Protein in INSANE! Membrane UpperLeaflet>POPC=1.0 LowerLeaflet>POPC=1.0
247995
   14AUC    AUC    1   3.407  44.613   7.501
   15AUC    AUC    2   3.652  44.613   7.349
   16AUC    AUC    3   3.652  44.613   7.652
   17AUC    AUC    4   3.161  44.613   7.349
   18AUC    AUC    5   3.161  44.613   7.652
   19AUC    AUC    6   3.255  44.858   7.501
   20AUC    AUC    7   3.558  44.858   7.501
   21AUC    AUC    8   3.255  44.367   7.501
   22AUC    AUC    9   3.558  44.367   7.501
   23AUC    AUC   10   3.407  44.461   7.746
   24AUC    AUC   11   3.407  44.764   7.746
   25AUC    AUC   12   3.407  44.461   7.255
   26AUC    AUC   13   3.407  44.764   7.255
   27AUC    AUC   14   3.898  44.613   7.197
   28AUC    AUC   15   3.898  44.613   7.501
   29AUC    AUC   16   3.898  44.613   7.804
   30AUC    AUC   17   2.916  44.613   7.197
   31AUC    AUC   18   2.916  44.613   7.501
   32AUC    AUC   19   2.916  44.613   7.804
   33AUC    AUC   20   3.103  45.103   7.501
   34AUC    AUC   21   3.407  45.103   7.501
   35AUC    AUC   22   3.710  45.103   7.501
   36AUC    AUC   23   3.103  44.122   7.501
   37AUC    AUC   24   3.407  44.122   7.501
   38AUC    AUC   25   3.710  44.122   7.501
   39AUC    AUC   26   3.407  44.309   7.991
   40AUC    AUC   27   3.407  44.613   7.991
   41AUC    AUC   28   3.407  44.916   7.991
   42AUC    AUC   29   3.407  44.309   7.010
   43AUC    AUC   30   3.407  44.613   7.010
   44AUC    AUC   31   3.407  44.916   7.010
   45AUC    AUC   32   3.652  44.461   7.898
   46AUC    AUC   33   3.652  44.764   7.898
   47AUC    AUC   34   3.652  44.461   7.103
   48AUC    AUC   35   3.652  44.764   7.103
   49AUC    AUC   36   3.161  44.461   7.898
   50AUC    AUC   37   3.161  44.764   7.898
   51AUC    AUC   38   3.161  44.461   7.103
   52AUC    AUC   39   3.161  44.764   7.103
   53AUC    AUC   40   3.804  44.858   7.349
   54AUC    AUC   41   3.804  44.858   7.652
   55AUC    AUC   42   3.010  44.858   7.349
   56AUC    AUC   43   3.010  44.858   7.652
   57AUC    AUC   44   3.804  44.367   7.349
   58AUC    AUC   45   3.804  44.367   7.652
   59AUC    AUC   46   3.010  44.367   7.349
   60AUC    AUC   47   3.010  44.367   7.652
   61AUC    AUC   48   3.255  45.010   7.746
   62AUC    AUC   49   3.558  45.010   7.746
   63AUC    AUC   50   3.255  44.216   7.746
   64AUC    AUC   51   3.558  44.216   7.746
   65AUC    AUC   52   3.255  45.010   7.255
   66AUC    AUC   53   3.558  45.010   7.255
   67AUC    AUC   54   3.255  44.216   7.255
   68AUC    AUC   55   3.558  44.216   7.255
   69AUSL   AUS   56   3.816  44.613   8.081
   70AUSL   AUS   57   3.672  44.196   8.011
   71AUL    AUL   58   3.898  44.309   8.295
   72THSLK    S   59   3.799  44.008   8.163
   73ETHY    C1   60   3.957  43.687   8.456
   74ETHY    C1   61   4.205  43.374   8.845
   75THSLK    S   62   3.921  44.573   8.333
   76ETHY    C1   63   4.164  44.506   8.720
   77ETHY    C1   64   4.457  44.525   9.194
   78AUSL   AUS   65   3.570  44.461   8.174
   79AUSL   AUS   66   3.243  44.764   8.174
   80AUL    AUL   67   3.407  44.613   8.482
   81THSLK    S   68   3.657  44.415   8.426
   82ETHY    C1   69   3.770  44.274   8.852
   83ETHY    C1   70   3.919  44.203   9.385
   84THSLK    S   71   3.155  44.733   8.439
   85ETHY    C1   72   3.050  44.744   8.889
   86ETHY    C1   73   2.900  44.852   9.415
   87AUSL   AUS   74   3.570  44.764   8.174
   88AUSL   AUS   75   3.917  44.877   7.917
   89AUL    AUL   76   3.898  44.916   8.295
   90THSLK    S   77   3.658  44.810   8.426
   91ETHY    C1   78   3.764  44.950   8.854
   92ETHY    C1   79   3.914  45.022   9.386
   93THSLK    S   80   4.097  44.993   8.082
   94ETHY    C1   81   4.442  45.128   8.358
   95ETHY    C1   82   4.817  45.382   8.683
   96AUSL   AUS   83   3.816  44.613   6.921
   97AUSL   AUS   84   3.672  45.029   6.990
   98AUL    AUL   85   3.898  44.916   6.706
   99THSLK    S   86   3.922  44.573   6.668
  100ETHY    C1   87   4.159  44.506   6.278
  101ETHY    C1   88   4.452  44.525   5.804
  102THSLK    S   89   3.847  45.157   6.816
  103ETHY    C1   90   4.078  45.375   6.480
  104ETHY    C1   91   4.304  45.717   6.102
  105AUSL   AUS   92   3.570  44.461   6.827
  106AUSL   AUS   93   3.917  44.348   7.084
  107AUL    AUL   94   3.898  44.309   6.706
  108THSLK    S   95   4.063  44.161   6.932
  109ETHY    C1   96   4.347  43.907   6.670
  110ETHY    C1   97   4.739  43.687   6.340
  111THSLK    S   98   3.658  44.415   6.575
  112ETHY    C1   99   3.764  44.275   6.147
  113ETHY    C1  100   3.914  44.203   5.615
  114AUSL   AUS  101   3.570  44.764   6.827
  115AUSL   AUS  102   3.243  44.461   6.827
  116AUL    AUL  103   3.407  44.613   6.519
  117THSLK    S  104   3.143  44.415   6.579
  118ETHY    C1  105   3.009  44.277   6.158
  119ETHY    C1  106   2.866  44.205   5.624
  120THSLK    S  107   3.671  44.732   6.566
  121ETHY    C1  108   3.798  44.741   6.121
  122ETHY    C1  109   3.942  44.850   5.594
  123AUSL   AUS  110   2.998  44.613   8.081
  124AUSL   AUS  111   3.142  45.029   8.011
  125AUL    AUL  112   2.916  44.916   8.295
  126THSLK    S  113   2.892  44.573   8.333
  127ETHY    C1  114   2.655  44.506   8.723
  128ETHY    C1  115   2.361  44.525   9.197
  129THSLK    S  116   3.014  45.171   8.202
  130ETHY    C1  117   2.861  45.416   8.563
  131ETHY    C1  118   2.613  45.751   8.933
  132AUSL   AUS  119   3.243  44.461   8.174
  133AUSL   AUS  120   2.897  44.348   7.917
  134AUL    AUL  121   2.916  44.309   8.295
  135THSLK    S  122   2.716  44.180   8.043
  136ETHY    C1  123   2.375  43.954   8.259
  137ETHY    C1  124   1.999  43.726   8.602
  138THSLK    S  125   3.143  44.415   8.422
  139ETHY    C1  126   3.015  44.276   8.844
  140ETHY    C1  127   2.871  44.204   9.378
  141AUSL   AUS  128   2.998  44.613   6.921
  142AUSL   AUS  129   3.142  44.196   6.990
  143AUL    AUL  130   2.916  44.309   6.706
  144THSLK    S  131   2.893  44.573   6.668
  145ETHY    C1  132   2.649  44.506   6.281
  146ETHY    C1  133   2.357  44.525   5.807
  147THSLK    S  134   2.968  44.022   6.855
  148ETHY    C1  135   2.731  43.729   6.587
  149ETHY    C1  136   2.506  43.408   6.190
  150AUSL   AUS  137   3.243  44.764   6.827
  151AUSL   AUS  138   2.897  44.877   7.084
  152AUL    AUL  139   2.916  44.916   6.706
  153THSLK    S  140   2.751  45.012   6.894
  154ETHY    C1  141   2.462  45.176   6.572
  155ETHY    C1  142   2.071  45.421   6.259
  156THSLK    S  143   3.156  44.733   6.562
  157ETHY    C1  144   3.043  44.743   6.114
  158ETHY    C1  145   2.895  44.851   5.587
  159AUSL   AUS  146   3.987  45.022   7.501
  160AUSL   AUS  147   3.917  44.877   7.084
  161AUL    AUL  148   4.201  45.103   7.197
  162THSLK    S  149   4.097  44.994   6.920
  163ETHY    C1  150   4.438  45.127   6.638
  164ETHY    C1  151   4.814  45.381   6.314
  165THSLK    S  152   4.260  45.093   7.501
  166ETHY    C1  153   4.684  45.277   7.497
  167ETHY    C1  154   5.148  45.586   7.498
  168AUSL   AUS  155   4.081  44.776   7.349
  169AUSL   AUS  156   4.081  44.449   7.652
  170AUL    AUL  157   4.388  44.613   7.501
  171THSLK    S  158   4.348  44.831   7.341
  172ETHY    C1  159   4.800  44.887   7.262
  173ETHY    C1  160   5.325  45.052   7.172
  174THSLK    S  161   4.327  44.317   7.659
  175ETHY    C1  162   4.744  44.132   7.728
  176ETHY    C1  163   5.280  44.004   7.820
  177AUSL   AUS  164   4.081  44.776   7.652
  178AUSL   AUS  165   3.823  45.123   7.765
  179AUL    AUL  166   4.201  45.103   7.804
  180THSLK    S  167   4.009  45.258   7.925
  181ETHY    C1  168   4.325  45.526   8.128
  182ETHY    C1  169   4.640  45.923   8.362
  183THSLK    S  170   4.348  44.831   7.661
  184ETHY    C1  171   4.800  44.887   7.733
  185ETHY    C1  172   5.326  45.052   7.824
  186AUSL   AUS  173   2.827  45.022   7.501
  187AUSL   AUS  174   2.897  44.877   7.917
  188AUL    AUL  175   2.613  45.103   7.804
  189THSLK    S  176   2.750  45.012   8.107
  190ETHY    C1  177   2.466  45.181   8.430
  191ETHY    C1  178   2.074  45.426   8.743
  192THSLK    S  179   2.596  45.160   7.501
  193ETHY    C1  180   2.242  45.458   7.497
  194ETHY    C1  181   1.758  45.735   7.498
  195AUSL   AUS  182   2.733  44.776   7.349
  196AUSL   AUS  183   2.990  45.123   7.236
  197AUL    AUL  184   2.613  45.103   7.197
  198THSLK    S  185   2.487  44.886   7.307
  199ETHY    C1  186   2.069  45.031   7.173
  200ETHY    C1  187   1.534  45.171   7.099
  201THSLK    S  188   2.859  45.292   7.056
  202ETHY    C1  189   2.635  45.614   6.812
  203ETHY    C1  190   2.295  45.996   6.589
  204AUSL   AUS  191   2.733  44.776   7.652
  205AUSL   AUS  192   2.733  44.449   7.349
  206AUL    AUL  193   2.425  44.613   7.501
  207THSLK    S  194   2.466  44.371   7.377
  208ETHY    C1  195   2.013  44.282   7.359
  209ETHY    C1  196   1.488  44.127   7.252
  210THSLK    S  197   2.487  44.886   7.694
  211ETHY    C1  198   2.070  45.037   7.825
  212ETHY    C1  199   1.535  45.175   7.900
  213AUSL   AUS  200   3.987  44.204   7.501
  214AUSL   AUS  201   3.917  44.348   7.917
  215AUL    AUL  202   4.201  44.122   7.804
  216THSLK    S  203   4.218  44.065   7.501
  217ETHY    C1  204   4.572  43.767   7.497
  218ETHY    C1  205   5.056  43.490   7.498
  219THSLK    S  206   4.063  44.161   8.070
  220ETHY    C1  207   4.351  43.906   8.326
  221ETHY    C1  208   4.743  43.686   8.657
  222AUSL   AUS  209   4.081  44.449   7.349
  223AUSL   AUS  210   3.823  44.102   7.236
  224AUL    AUL  211   4.201  44.122   7.197
  225THSLK    S  212   4.327  44.317   7.343
  226ETHY    C1  213   4.743  44.132   7.266
  227ETHY    C1  214   5.279  44.004   7.176
  228THSLK    S  215   3.955  43.911   7.092
  229ETHY    C1  216   4.176  43.550   6.907
  230ETHY    C1  217   4.517  43.180   6.667
  231AUSL   AUS  218   2.827  44.204   7.501
  232AUSL   AUS  219   2.897  44.348   7.084
  233AUL    AUL  220   2.613  44.122   7.197
  234THSLK    S  221   2.717  44.180   6.958
  235ETHY    C1  222   2.371  43.960   6.743
  236ETHY    C1  223   1.996  43.730   6.400
  237THSLK    S  224   2.554  44.132   7.501
  238ETHY    C1  225   2.130  43.949   7.497
  239ETHY    C1  226   1.666  43.639   7.498
  240AUSL   AUS  227   2.733  44.449   7.652
  241AUSL   AUS  228   2.990  44.102   7.765
  242AUL    AUL  229   2.613  44.122   7.804
  243THSLK    S  230   2.804  43.945   7.889
  244ETHY    C1  231   2.491  43.639   8.033
  245ETHY    C1  232   2.176  43.252   8.284
  246THSLK    S  233   2.466  44.372   7.625
  247ETHY    C1  234   2.014  44.276   7.639
  248ETHY    C1  235   1.489  44.123   7.746
  249AUSL   AUS  236   3.407  45.193   7.910
  250AUSL   AUS  237   2.990  45.123   7.765
  251AUL    AUL  238   3.103  45.407   7.991
  252THSLK    S  239   2.859  45.291   7.945
  253ETHY    C1  240   2.638  45.619   8.185
  254ETHY    C1  241   2.297  45.999   8.409
  255THSLK    S  242   3.441  45.434   8.033
  256ETHY    C1  243   3.499  45.806   8.301
  257ETHY    C1  244   3.483  46.285   8.586
  258AUSL   AUS  245   3.255  45.286   7.664
  259AUSL   AUS  246   3.558  45.286   7.337
  260AUL    AUL  247   3.407  45.594   7.501
  261THSLK    S  248   3.286  45.546   7.770
  262ETHY    C1  249   3.276  45.987   7.907
  263ETHY    C1  250   3.167  46.516   8.048
  264THSLK    S  251   3.603  45.535   7.235
  265ETHY    C1  252   3.741  45.953   7.097
  266ETHY    C1  253   3.813  46.488   6.955
  267AUSL   AUS  254   3.558  45.286   7.664
  268AUSL   AUS  255   3.672  45.029   8.011
  269AUL    AUL  256   3.710  45.407   7.991
  270THSLK    S  257   3.846  45.157   8.185
  271ETHY    C1  258   4.082  45.376   8.517
  272ETHY    C1  259   4.308  45.718   8.895
  273THSLK    S  260   3.603  45.534   7.767
  274ETHY    C1  261   3.742  45.955   7.898
  275ETHY    C1  262   3.815  46.489   8.041
  276AUSL   AUS  263   3.407  44.033   7.910
  277AUSL   AUS  264   3.823  44.102   7.765
  278AUL    AUL  265   3.710  43.818   7.991
  279THSLK    S  266   3.373  43.769   7.997
  280ETHY    C1  267   3.318  43.360   8.205
  281ETHY    C1  268   3.333  42.892   8.507
  282THSLK    S  269   3.955  43.911   7.910
  283ETHY    C1  270   4.178  43.549   8.089
  284ETHY    C1  271   4.519  43.179   8.330
  285AUSL   AUS  272   3.255  43.939   7.664
  286AUSL   AUS  273   3.142  44.196   8.011
  287AUL    AUL  274   3.103  43.818   7.991
  288THSLK    S  275   3.210  43.686   7.746
  289ETHY    C1  276   3.073  43.255   7.843
  290ETHY    C1  277   3.000  42.723   7.996
  291THSLK    S  278   2.967  44.022   8.146
  292ETHY    C1  279   2.736  43.724   8.413
  293ETHY    C1  280   2.509  43.404   8.810
  294AUSL   AUS  281   3.558  43.939   7.664
  295AUSL   AUS  282   3.255  43.939   7.337
  296AUL    AUL  283   3.407  43.631   7.501
  297THSLK    S  284   3.210  43.686   7.255
  298ETHY    C1  285   3.071  43.257   7.152
  299ETHY    C1  286   2.999  42.725   7.001
  300THSLK    S  287   3.527  43.674   7.750
  301ETHY    C1  288   3.540  43.223   7.852
  302ETHY    C1  289   3.648  42.697   8.003
  303AUSL   AUS  290   3.407  45.193   7.092
  304AUSL   AUS  291   3.823  45.123   7.236
  305AUL    AUL  292   3.710  45.407   7.010
  306THSLK    S  293   3.441  45.434   6.969
  307ETHY    C1  294   3.496  45.803   6.696
  308ETHY    C1  295   3.480  46.282   6.412
  309THSLK    S  296   4.010  45.258   7.077
  310ETHY    C1  297   4.323  45.525   6.868
  311ETHY    C1  298   4.638  45.922   6.634
  312AUSL   AUS  299   3.255  45.286   7.337
  313AUSL   AUS  300   3.142  45.029   6.990
  314AUL    AUL  301   3.103  45.407   7.010
  315THSLK    S  302   3.286  45.547   7.232
  316ETHY    C1  303   3.274  45.985   7.088
  317ETHY    C1  304   3.166  46.514   6.948
  318THSLK    S  305   3.015  45.172   6.799
  319ETHY    C1  306   2.857  45.412   6.437
  320ETHY    C1  307   2.609  45.747   6.067
  321AUSL   AUS  308   3.407  44.033   7.092
  322AUSL   AUS  309   2.990  44.102   7.236
  323AUL    AUL  310   3.103  43.818   7.010
  324THSLK    S  311   2.804  43.945   7.113
  325ETHY    C1  312   2.488  43.643   6.964
  326ETHY    C1  313   2.174  43.256   6.714
  327THSLK    S  314   3.373  43.769   7.004
  328ETHY    C1  315   3.314  43.364   6.791
  329ETHY    C1  316   3.331  42.894   6.490
  330AUSL   AUS  317   3.558  43.939   7.337
  331AUSL   AUS  318   3.672  44.196   6.990
  332AUL    AUL  319   3.710  43.818   7.010
  333THSLK    S  320   3.528  43.673   7.252
  334ETHY    C1  321   3.538  43.225   7.143
  335ETHY    C1  322   3.646  42.698   6.993
  336THSLK    S  323   3.800  44.007   6.839
  337ETHY    C1  324   3.952  43.689   6.541
  338ETHY    C1  325   4.201  43.375   6.152
  339AUC    AUC  326  30.755  28.707   7.501
  340AUC    AUC  327  31.000  28.707   7.349
  341AUC    AUC  328  31.000  28.707   7.652
  342AUC    AUC  329  30.509  28.707   7.349
  343AUC    AUC  330  30.509  28.707   7.652
  344AUC    AUC  331  30.603  28.952   7.501
  345AUC    AUC  332  30.906  28.952   7.501
  346AUC    AUC  333  30.603  28.461   7.501
  347AUC    AUC  334  30.906  28.461   7.501
  348AUC    AUC  335  30.755  28.555   7.746
  349AUC    AUC  336  30.755  28.858   7.746
  350AUC    AUC  337  30.755  28.555   7.255
  351AUC    AUC  338  30.755  28.858   7.255
  352AUC    AUC  339  31.246  28.707   7.197
  353AUC    AUC  340  31.246  28.707   7.501
  354AUC    AUC  341  31.246  28.707   7.804
  355AUC    AUC  342  30.264  28.707   7.197
  356AUC    AUC  343  30.264  28.707   7.501
  357AUC    AUC  344  30.264  28.707   7.804
  358AUC    AUC  345  30.451  29.197   7.501
  359AUC    AUC  346  30.755  29.197   7.501
  360AUC    AUC  347  31.058  29.197   7.501
  361AUC    AUC  348  30.451  28.216   7.501
  362AUC    AUC  349  30.755  28.216   7.501
  363AUC    AUC  350  31.058  28.216   7.501
  364AUC    AUC  351  30.755  28.403   7.991
  365AUC    AUC  352  30.755  28.707   7.991
  366AUC    AUC  353  30.755  29.010   7.991
  367AUC    AUC  354  30.755  28.403   7.010
  368AUC    AUC  355  30.755  28.707   7.010
  369AUC    AUC  356  30.755  29.010   7.010
  370AUC    AUC  357  31.000  28.555   7.898
  371AUC    AUC  358  31.000  28.858   7.898
  372AUC    AUC  359  31.000  28.555   7.103
  373AUC    AUC  360  31.000  28.858   7.103
  374AUC    AUC  361  30.509  28.555   7.898
  375AUC    AUC  362  30.509  28.858   7.898
  376AUC    AUC  363  30.509  28.555   7.103
  377AUC    AUC  364  30.509  28.858   7.103
  378AUC    AUC  365  31.152  28.952   7.349
  379AUC    AUC  366  31.152  28.952   7.652
  380AUC    AUC  367  30.358  28.952   7.349
  381AUC    AUC  368  30.358  28.952   7.652
  382AUC    AUC  369  31.152  28.461   7.349
  383AUC    AUC  370  31.152  28.461   7.652
  384AUC    AUC  371  30.358  28.461   7.349
  385AUC    AUC  372  30.358  28.461   7.652
  386AUC    AUC  373  30.603  29.104   7.746
  387AUC    AUC  374  30.906  29.104   7.746
  388AUC    AUC  375  30.603  28.310   7.746
  389AUC    AUC  376  30.906  28.310   7.746
  390AUC    AUC  377  30.603  29.104   7.255
  391AUC    AUC  378  30.906  29.104   7.255
  392AUC    AUC  379  30.603  28.310   7.255
  393AUC    AUC  380  30.906  28.310   7.255
  394AUSL   AUS  381  31.164  28.707   8.081
  395AUSL   AUS  382  31.020  28.290   8.011
  396AUL    AUL  383  31.246  28.403   8.295
  397THSLK    S  384  31.147  28.102   8.163
  398ETHY    C1  385  31.305  27.781   8.456
  399ETHY    C1  386  31.553  27.468   8.845
  400THSLK    S  387  31.269  28.667   8.333
  401ETHY    C1  388  31.512  28.600   8.720
  402ETHY    C1  389  31.805  28.619   9.194
  403AUSL   AUS  390  30.918  28.555   8.174
  404AUSL   AUS  391  30.591  28.858   8.174
  405AUL    AUL  392  30.755  28.707   8.482
  406THSLK    S  393  31.005  28.509   8.426
  407ETHY    C1  394  31.118  28.368   8.852
  408ETHY    C1  395  31.267  28.297   9.385
  409THSLK    S  396  30.503  28.827   8.439
  410ETHY    C1  397  30.398  28.838   8.889
  411ETHY    C1  398  30.248  28.946   9.415
  412AUSL   AUS  399  30.918  28.858   8.174
  413AUSL   AUS  400  31.265  28.971   7.917
  414AUL    AUL  401  31.246  29.010   8.295
  415THSLK    S  402  31.006  28.904   8.426
  416ETHY    C1  403  31.112  29.044   8.854
  417ETHY    C1  404  31.262  29.116   9.386
  418THSLK    S  405  31.445  29.087   8.082
  419ETHY    C1  406  31.790  29.222   8.358
  420ETHY    C1  407  32.165  29.476   8.683
  421AUSL   AUS  408  31.164  28.707   6.921
  422AUSL   AUS  409  31.020  29.123   6.990
  423AUL    AUL  410  31.246  29.010   6.706
  424THSLK    S  411  31.270  28.667   6.668
  425ETHY    C1  412  31.507  28.600   6.278
  426ETHY    C1  413  31.800  28.619   5.804
  427THSLK    S  414  31.195  29.251   6.816
  428ETHY    C1  415  31.426  29.469   6.480
  429ETHY    C1  416  31.652  29.811   6.102
  430AUSL   AUS  417  30.918  28.555   6.827
  431AUSL   AUS  418  31.265  28.442   7.084
  432AUL    AUL  419  31.246  28.403   6.706
  433THSLK    S  420  31.411  28.255   6.932
  434ETHY    C1  421  31.695  28.001   6.670
  435ETHY    C1  422  32.087  27.781   6.340
  436THSLK    S  423  31.006  28.509   6.575
  437ETHY    C1  424  31.112  28.369   6.147
  438ETHY    C1  425  31.262  28.297   5.615
  439AUSL   AUS  426  30.918  28.858   6.827
  440AUSL   AUS  427  30.591  28.555   6.827
  441AUL    AUL  428  30.755  28.707   6.519
  442THSLK    S  429  30.491  28.509   6.579
  443ETHY    C1  430  30.357  28.371   6.158
  444ETHY    C1  431  30.214  28.299   5.624
  445THSLK    S  432  31.019  28.826   6.566
  446ETHY    C1  433  31.146  28.835   6.121
  447ETHY    C1  434  31.290  28.944   5.594
  448AUSL   AUS  435  30.346  28.707   8.081
  449AUSL   AUS  436  30.490  29.123   8.011
  450AUL    AUL  437  30.264  29.010   8.295
  451THSLK    S  438  30.240  28.667   8.333
  452ETHY    C1  439  30.003  28.600   8.723
  453ETHY    C1  440  29.709  28.619   9.197
  454THSLK    S  441  30.362  29.265   8.202
  455ETHY    C1  442  30.209  29.510   8.563
  456ETHY    C1  443  29.961  29.845   8.933
  457AUSL   AUS  444  30.591  28.555   8.174
  458AUSL   AUS  445  30.245  28.442   7.917
  459AUL    AUL  446  30.264  28.403   8.295
  460THSLK    S  447  30.064  28.274   8.043
  461ETHY    C1  448  29.723  28.048   8.259
  462ETHY    C1  449  29.347  27.820   8.602
  463THSLK    S  450  30.491  28.509   8.422
  464ETHY    C1  451  30.363  28.370   8.844
  465ETHY    C1  452  30.219  28.298   9.378
  466AUSL   AUS  453  30.346  28.707   6.921
  467AUSL   AUS  454  30.490  28.290   6.990
  468AUL    AUL  455  30.264  28.403   6.706
  469THSLK    S  456  30.241  28.667   6.668
  470ETHY    C1  457  29.997  28.600   6.281
  471ETHY    C1  458  29.705  28.619   5.807
  472THSLK    S  459  30.316  28.116   6.855
  473ETHY    C1  460  30.079  27.823   6.587
  474ETHY    C1  461  29.854  27.502   6.190
  475AUSL   AUS  462  30.591  28.858   6.827
  476AUSL   AUS  463  30.245  28.971   7.084
  477AUL    AUL  464  30.264  29.010   6.706
  478THSLK    S  465  30.099  29.106   6.894
  479ETHY    C1  466  29.810  29.270   6.572
  480ETHY    C1  467  29.419  29.515   6.259
  481THSLK    S  468  30.504  28.827   6.562
  482ETHY    C1  469  30.391  28.837   6.114
  483ETHY    C1  470  30.243  28.945   5.587
  484AUSL   AUS  471  31.335  29.116   7.501
  485AUSL   AUS  472  31.265  28.971   7.084
  486AUL    AUL  473  31.549  29.197   7.197
  487THSLK    S  474  31.445  29.088   6.920
  488ETHY    C1  475  31.786  29.221   6.638
  489ETHY    C1  476  32.162  29.475   6.314
  490THSLK    S  477  31.608  29.187   7.501
  491ETHY    C1  478  32.032  29.371   7.497
  492ETHY    C1  479  32.496  29.680   7.498
  493AUSL   AUS  480  31.429  28.870   7.349
  494AUSL   AUS  481  31.429  28.543   7.652
  495AUL    AUL  482  31.736  28.707   7.501
  496THSLK    S  483  31.696  28.925   7.341
  497ETHY    C1  484  32.148  28.981   7.262
  498ETHY    C1  485  32.673  29.146   7.172
  499THSLK    S  486  31.675  28.411   7.659
  500ETHY    C1  487  32.092  28.226   7.728
  501ETHY    C1  488  32.628  28.098   7.820
  502AUSL   AUS  489  31.429  28.870   7.652
  503AUSL   AUS  490  31.171  29.217   7.765
  504AUL    AUL  491  31.549  29.197   7.804
  505THSLK    S  492  31.357  29.352   7.925
  506ETHY    C1  493  31.673  29.620   8.128
  507ETHY    C1  494  31.988  30.017   8.362
  508THSLK    S  495  31.696  28.925   7.661
  509ETHY    C1  496  32.148  28.981   7.733
  510ETHY    C1  497  32.674  29.146   7.824
  511AUSL   AUS  498  30.175  29.116   7.501
  512AUSL   AUS  499  30.245  28.971   7.917
  513AUL    AUL  500  29.961  29.197   7.804
  514THSLK    S  501  30.098  29.106   8.107
  515ETHY    C1  502  29.814  29.275   8.430
  516ETHY    C1  503  29.422  29.520   8.743
  517THSLK    S  504  29.944  29.254   7.501
  518ETHY    C1  505  29.590  29.552   7.497
  519ETHY    C1  506  29.106  29.829   7.498
  520AUSL   AUS  507  30.081  28.870   7.349
  521AUSL   AUS  508  30.338  29.217   7.236
  522AUL    AUL  509  29.961  29.197   7.197
  523THSLK    S  510  29.835  28.980   7.307
  524ETHY    C1  511  29.417  29.125   7.173
  525ETHY    C1  512  28.882  29.265   7.099
  526THSLK    S  513  30.207  29.386   7.056
  527ETHY    C1  514  29.983  29.708   6.812
  528ETHY    C1  515  29.643  30.090   6.589
  529AUSL   AUS  516  30.081  28.870   7.652
  530AUSL   AUS  517  30.081  28.543   7.349
  531AUL    AUL  518  29.773  28.707   7.501
  532THSLK    S  519  29.814  28.465   7.377
  533ETHY    C1  520  29.361  28.376   7.359
  534ETHY    C1  521  28.836  28.221   7.252
  535THSLK    S  522  29.835  28.980   7.694
  536ETHY    C1  523  29.418  29.131   7.825
  537ETHY    C1  524  28.883  29.269   7.900
  538AUSL   AUS  525  31.335  28.298   7.501
  539AUSL   AUS  526  31.265  28.442   7.917
  540AUL    AUL  527  31.549  28.216   7.804
  541THSLK    S  528  31.566  28.159   7.501
  542ETHY    C1  529  31.920  27.861   7.497
  543ETHY    C1  530  32.404  27.584   7.498
  544THSLK    S  531  31.411  28.255   8.070
  545ETHY    C1  532  31.699  28.000   8.326
  546ETHY    C1  533  32.091  27.780   8.657
  547AUSL   AUS  534  31.429  28.543   7.349
  548AUSL   AUS  535  31.171  28.196   7.236
  549AUL    AUL  536  31.549  28.216   7.197
  550THSLK    S  537  31.675  28.411   7.343
  551ETHY    C1  538  32.091  28.226   7.266
  552ETHY    C1  539  32.627  28.098   7.176
  553THSLK    S  540  31.303  28.005   7.092
  554ETHY    C1  541  31.524  27.644   6.907
  555ETHY    C1  542  31.865  27.274   6.667
  556AUSL   AUS  543  30.175  28.298   7.501
  557AUSL   AUS  544  30.245  28.442   7.084
  558AUL    AUL  545  29.961  28.216   7.197
  559THSLK    S  546  30.065  28.274   6.958
  560ETHY    C1  547  29.719  28.054   6.743
  561ETHY    C1  548  29.344  27.824   6.400
  562THSLK    S  549  29.902  28.226   7.501
  563ETHY    C1  550  29.478  28.043   7.497
  564ETHY    C1  551  29.014  27.733   7.498
  565AUSL   AUS  552  30.081  28.543   7.652
  566AUSL   AUS  553  30.338  28.196   7.765
  567AUL    AUL  554  29.961  28.216   7.804
  568THSLK    S  555  30.152  28.039   7.889
  569ETHY    C1  556  29.839  27.733   8.033
  570ETHY    C1  557  29.524  27.346   8.284
  571THSLK    S  558  29.814  28.466   7.625
  572ETHY    C1  559  29.362  28.370   7.639
  573ETHY    C1  560  28.837  28.217   7.746
  574AUSL   AUS  561  30.755  29.287   7.910
  575AUSL   AUS  562  30.338  29.217   7.765
  576AUL    AUL  563  30.451  29.501   7.991
  577THSLK    S  564  30.207  29.385   7.945
  578ETHY    C1  565  29.986  29.713   8.185
  579ETHY    C1  566  29.645  30.093   8.409
  580THSLK    S  567  30.789  29.528   8.033
  581ETHY    C1  568  30.847  29.900   8.301
  582ETHY    C1  569  30.831  30.379   8.586
  583AUSL   AUS  570  30.603  29.380   7.664
  584AUSL   AUS  571  30.906  29.380   7.337
  585AUL    AUL  572  30.755  29.688   7.501
  586THSLK    S  573  30.634  29.640   7.770
  587ETHY    C1  574  30.624  30.081   7.907
  588ETHY    C1  575  30.515  30.610   8.048
  589THSLK    S  576  30.951  29.629   7.235
  590ETHY    C1  577  31.089  30.047   7.097
  591ETHY    C1  578  31.161  30.582   6.955
  592AUSL   AUS  579  30.906  29.380   7.664
  593AUSL   AUS  580  31.020  29.123   8.011
  594AUL    AUL  581  31.058  29.501   7.991
  595THSLK    S  582  31.194  29.251   8.185
  596ETHY    C1  583  31.430  29.470   8.517
  597ETHY    C1  584  31.656  29.812   8.895
  598THSLK    S  585  30.951  29.628   7.767
  599ETHY    C1  586  31.090  30.049   7.898
  600ETHY    C1  587  31.163  30.583   8.041
  601AUSL   AUS  588  30.755  28.127   7.910
  602AUSL   AUS  589  31.171  28.196   7.765
  603AUL    AUL  590  31.058  27.912   7.991
  604THSLK    S  591  30.721  27.863   7.997
  605ETHY    C1  592  30.666  27.454   8.205
  606ETHY    C1  593  30.681  26.986   8.507
  607THSLK    S  594  31.303  28.005   7.910
  608ETHY    C1  595  31.526  27.643   8.089
  609ETHY    C1  596  31.867  27.273   8.330
  610AUSL   AUS  597  30.603  28.033   7.664
  611AUSL   AUS  598  30.490  28.290   8.011
  612AUL    AUL  599  30.451  27.912   7.991
  613THSLK    S  600  30.558  27.780   7.746
  614ETHY    C1  601  30.421  27.349   7.843
  615ETHY    C1  602  30.348  26.817   7.996
  616THSLK    S  603  30.315  28.116   8.146
  617ETHY    C1  604  30.084  27.818   8.413
  618ETHY    C1  605  29.857  27.498   8.810
  619AUSL   AUS  606  30.906  28.033   7.664
  620AUSL   AUS  607  30.603  28.033   7.337
  621AUL    AUL  608  30.755  27.725   7.501
  622THSLK    S  609  30.558  27.780   7.255
  623ETHY    C1  610  30.419  27.351   7.152
  624ETHY    C1  611  30.347  26.819   7.001
  625THSLK    S  612  30.875  27.768   7.750
  626ETHY    C1  613  30.888  27.317   7.852
  627ETHY    C1  614  30.996  26.791   8.003
  628AUSL   AUS  615  30.755  29.287   7.092
  629AUSL   AUS  616  31.171  29.217   7.236
  630AUL    AUL  617  31.058  29.501   7.010
  631THSLK    S  618  30.789  29.528   6.969
  632ETHY    C1  619  30.844  29.897   6.696
  633ETHY    C1  620  30.828  30.376   6.412
  634THSLK    S  621  31.358  29.352   7.077
  635ETHY    C1  622  31.671  29.619   6.868
  636ETHY    C1  623  31.986  30.016   6.634
  637AUSL   AUS  624  30.603  29.380   7.337
  638AUSL   AUS  625  30.490  29.123   6.990
  639AUL    AUL  626  30.451  29.501   7.010
  640THSLK    S  627  30.634  29.641   7.232
  641ETHY    C1  628  30.622  30.079   7.088
  642ETHY    C1  629  30.514  30.608   6.948
  643THSLK    S  630  30.363  29.266   6.799
  644ETHY    C1  631  30.205  29.506   6.437
  645ETHY    C1  632  29.957  29.841   6.067
  646AUSL   AUS  633  30.755  28.127   7.092
  647AUSL   AUS  634  30.338  28.196   7.236
  648AUL    AUL  635  30.451  27.912   7.010
  649THSLK    S  636  30.152  28.039   7.113
  650ETHY    C1  637  29.836  27.737   6.964
  651ETHY    C1  638  29.522  27.350   6.714
  652THSLK    S  639  30.721  27.863   7.004
  653ETHY    C1  640  30.662  27.458   6.791
  654ETHY    C1  641  30.679  26.988   6.490
  655AUSL   AUS  642  30.906  28.033   7.337
  656AUSL   AUS  643  31.020  28.290   6.990
  657AUL    AUL  644  31.058  27.912   7.010
  658THSLK    S  645  30.876  27.767   7.252
  659ETHY    C1  646  30.886  27.319   7.143
  660ETHY    C1  647  30.994  26.792   6.993
  661THSLK    S  648  31.148  28.101   6.839
  662ETHY    C1  649  31.300  27.783   6.541
  663ETHY    C1  650  31.549  27.469   6.152
  664AUC    AUC  651  13.930   4.996   7.501
  665AUC    AUC  652  14.175   4.996   7.349
  666AUC    AUC  653  14.175   4.996   7.652
  667AUC    AUC  654  13.684   4.996   7.349
  668AUC    AUC  655  13.684   4.996   7.652
  669AUC    AUC  656  13.778   5.241   7.501
  670AUC    AUC  657  14.081   5.241   7.501
  671AUC    AUC  658  13.778   4.750   7.501
  672AUC    AUC  659  14.081   4.750   7.501
  673AUC    AUC  660  13.930   4.844   7.746
  674AUC    AUC  661  13.930   5.147   7.746
  675AUC    AUC  662  13.930   4.844   7.255
  676AUC    AUC  663  13.930   5.147   7.255
  677AUC    AUC  664  14.421   4.996   7.197
  678AUC    AUC  665  14.421   4.996   7.501
  679AUC    AUC  666  14.421   4.996   7.804
  680AUC    AUC  667  13.439   4.996   7.197
  681AUC    AUC  668  13.439   4.996   7.501
  682AUC    AUC  669  13.439   4.996   7.804
  683AUC    AUC  670  13.626   5.486   7.501
  684AUC    AUC  671  13.930   5.486   7.501
  685AUC    AUC  672  14.233   5.486   7.501
  686AUC    AUC  673  13.626   4.505   7.501
  687AUC    AUC  674  13.930   4.505   7.501
  688AUC    AUC  675  14.233   4.505   7.501
  689AUC    AUC  676  13.930   4.692   7.991
  690AUC    AUC  677  13.930   4.996   7.991
  691AUC    AUC  678  13.930   5.299   7.991
  692AUC    AUC  679  13.930   4.692   7.010
  693AUC    AUC  680  13.930   4.996   7.010
  694AUC    AUC  681  13.930   5.299   7.010
  695AUC    AUC  682  14.175   4.844   7.898
  696AUC    AUC  683  14.175   5.147   7.898
  697AUC    AUC  684  14.175   4.844   7.103
  698AUC    AUC  685  14.175   5.147   7.103
  699AUC    AUC  686  13.684   4.844   7.898
  700AUC    AUC  687  13.684   5.147   7.898
  701AUC    AUC  688  13.684   4.844   7.103
  702AUC    AUC  689  13.684   5.147   7.103
  703AUC    AUC  690  14.327   5.241   7.349
  704AUC    AUC  691  14.327   5.241   7.652
  705AUC    AUC  692  13.533   5.241   7.349
  706AUC    AUC  693  13.533   5.241   7.652
  707AUC    AUC  694  14.327   4.750   7.349
  708AUC    AUC  695  14.327   4.750   7.652
  709AUC    AUC  696  13.533   4.750   7.349
  710AUC    AUC  697  13.533   4.750   7.652
  711AUC    AUC  698  13.778   5.393   7.746
  712AUC    AUC  699  14.081   5.393   7.746
  713AUC    AUC  700  13.778   4.599   7.746
  714AUC    AUC  701  14.081   4.599   7.746
  715AUC    AUC  702  13.778   5.393   7.255
  716AUC    AUC  703  14.081   5.393   7.255
  717AUC    AUC  704  13.778   4.599   7.255
  718AUC    AUC  705  14.081   4.599   7.255
  719AUSL   AUS  706  14.339   4.996   8.081
  720AUSL   AUS  707  14.195   4.579   8.011
  721AUL    AUL  708  14.421   4.692   8.295
  722THSLK    S  709  14.322   4.391   8.163
  723ETHY    C1  710  14.480   4.070   8.456
  724ETHY    C1  711  14.728   3.757   8.845
  725THSLK    S  712  14.444   4.956   8.333
  726ETHY    C1  713  14.687   4.889   8.720
  727ETHY    C1  714  14.980   4.908   9.194
  728AUSL   AUS  715  14.093   4.844   8.174
  729AUSL   AUS  716  13.766   5.147   8.174
  730AUL    AUL  717  13.930   4.996   8.482
  731THSLK    S  718  14.180   4.798   8.426
  732ETHY    C1  719  14.293   4.657   8.852
  733ETHY    C1  720  14.442   4.586   9.385
  734THSLK    S  721  13.678   5.116   8.439
  735ETHY    C1  722  13.573   5.127   8.889
  736ETHY    C1  723  13.423   5.235   9.415
  737AUSL   AUS  724  14.093   5.147   8.174
  738AUSL   AUS  725  14.440   5.260   7.917
  739AUL    AUL  726  14.421   5.299   8.295
  740THSLK    S  727  14.181   5.193   8.426
  741ETHY    C1  728  14.287   5.333   8.854
  742ETHY    C1  729  14.437   5.405   9.386
  743THSLK    S  730  14.620   5.376   8.082
  744ETHY    C1  731  14.965   5.511   8.358
  745ETHY    C1  732  15.340   5.765   8.683
  746AUSL   AUS  733  14.339   4.996   6.921
  747AUSL   AUS  734  14.195   5.412   6.990
  748AUL    AUL  735  14.421   5.299   6.706
  749THSLK    S  736  14.445   4.956   6.668
  750ETHY    C1  737  14.682   4.889   6.278
  751ETHY    C1  738  14.975   4.908   5.804
  752THSLK    S  739  14.370   5.540   6.816
  753ETHY    C1  740  14.601   5.758   6.480
  754ETHY    C1  741  14.827   6.100   6.102
  755AUSL   AUS  742  14.093   4.844   6.827
  756AUSL   AUS  743  14.440   4.731   7.084
  757AUL    AUL  744  14.421   4.692   6.706
  758THSLK    S  745  14.586   4.544   6.932
  759ETHY    C1  746  14.870   4.290   6.670
  760ETHY    C1  747  15.262   4.070   6.340
  761THSLK    S  748  14.181   4.798   6.575
  762ETHY    C1  749  14.287   4.658   6.147
  763ETHY    C1  750  14.437   4.586   5.615
  764AUSL   AUS  751  14.093   5.147   6.827
  765AUSL   AUS  752  13.766   4.844   6.827
  766AUL    AUL  753  13.930   4.996   6.519
  767THSLK    S  754  13.666   4.798   6.579
  768ETHY    C1  755  13.532   4.660   6.158
  769ETHY    C1  756  13.389   4.588   5.624
  770THSLK    S  757  14.194   5.115   6.566
  771ETHY    C1  758  14.321   5.124   6.121
  772ETHY    C1  759  14.465   5.233   5.594
  773AUSL   AUS  760  13.521   4.996   8.081
  774AUSL   AUS  761  13.665   5.412   8.011
  775AUL    AUL  762  13.439   5.299   8.295
  776THSLK    S  763  13.415   4.956   8.333
  777ETHY    C1  764  13.178   4.889   8.723
  778ETHY    C1  765  12.884   4.908   9.197
  779THSLK    S  766  13.537   5.554   8.202
  780ETHY    C1  767  13.384   5.799   8.563
  781ETHY    C1  768  13.136   6.134   8.933
  782AUSL   AUS  769  13.766   4.844   8.174
  783AUSL   AUS  770  13.420   4.731   7.917
  784AUL    AUL  771  13.439   4.692   8.295
  785THSLK    S  772  13.239   4.563   8.043
  786ETHY    C1  773  12.898   4.337   8.259
  787ETHY    C1  774  12.522   4.109   8.602
  788THSLK    S  775  13.666   4.798   8.422
  789ETHY    C1  776  13.538   4.659   8.844
  790ETHY    C1  777  13.394   4.587   9.378
  791AUSL   AUS  778  13.521   4.996   6.921
  792AUSL   AUS  779  13.665   4.579   6.990
  793AUL    AUL  780  13.439   4.692   6.706
  794THSLK    S  781  13.416   4.956   6.668
  795ETHY    C1  782  13.172   4.889   6.281
  796ETHY    C1  783  12.880   4.908   5.807
  797THSLK    S  784  13.491   4.405   6.855
  798ETHY    C1  785  13.254   4.112   6.587
  799ETHY    C1  786  13.029   3.791   6.190
  800AUSL   AUS  787  13.766   5.147   6.827
  801AUSL   AUS  788  13.420   5.260   7.084
  802AUL    AUL  789  13.439   5.299   6.706
  803THSLK    S  790  13.274   5.395   6.894
  804ETHY    C1  791  12.985   5.559   6.572
  805ETHY    C1  792  12.594   5.804   6.259
  806THSLK    S  793  13.679   5.116   6.562
  807ETHY    C1  794  13.566   5.126   6.114
  808ETHY    C1  795  13.418   5.234   5.587
  809AUSL   AUS  796  14.510   5.405   7.501
  810AUSL   AUS  797  14.440   5.260   7.084
  811AUL    AUL  798  14.724   5.486   7.197
  812THSLK    S  799  14.620   5.377   6.920
  813ETHY    C1  800  14.961   5.510   6.638
  814ETHY    C1  801  15.337   5.764   6.314
  815THSLK    S  802  14.783   5.476   7.501
  816ETHY    C1  803  15.207   5.660   7.497
  817ETHY    C1  804  15.671   5.969   7.498
  818AUSL   AUS  805  14.604   5.159   7.349
  819AUSL   AUS  806  14.604   4.832   7.652
  820AUL    AUL  807  14.911   4.996   7.501
  821THSLK    S  808  14.871   5.214   7.341
  822ETHY    C1  809  15.323   5.270   7.262
  823ETHY    C1  810  15.848   5.435   7.172
  824THSLK    S  811  14.850   4.700   7.659
  825ETHY    C1  812  15.267   4.515   7.728
  826ETHY    C1  813  15.803   4.387   7.820
  827AUSL   AUS  814  14.604   5.159   7.652
  828AUSL   AUS  815  14.346   5.506   7.765
  829AUL    AUL  816  14.724   5.486   7.804
  830THSLK    S  817  14.532   5.641   7.925
  831ETHY    C1  818  14.848   5.909   8.128
  832ETHY    C1  819  15.163   6.306   8.362
  833THSLK    S  820  14.871   5.214   7.661
  834ETHY    C1  821  15.323   5.270   7.733
  835ETHY    C1  822  15.849   5.435   7.824
  836AUSL   AUS  823  13.350   5.405   7.501
  837AUSL   AUS  824  13.420   5.260   7.917
  838AUL    AUL  825  13.136   5.486   7.804
  839THSLK    S  826  13.273   5.395   8.107
  840ETHY    C1  827  12.989   5.564   8.430
  841ETHY    C1  828  12.597   5.809   8.743
  842THSLK    S  829  13.119   5.543   7.501
  843ETHY    C1  830  12.765   5.841   7.497
  844ETHY    C1  831  12.281   6.118   7.498
  845AUSL   AUS  832  13.256   5.159   7.349
  846AUSL   AUS  833  13.513   5.506   7.236
  847AUL    AUL  834  13.136   5.486   7.197
  848THSLK    S  835  13.010   5.269   7.307
  849ETHY    C1  836  12.592   5.414   7.173
  850ETHY    C1  837  12.057   5.554   7.099
  851THSLK    S  838  13.382   5.675   7.056
  852ETHY    C1  839  13.158   5.997   6.812
  853ETHY    C1  840  12.818   6.379   6.589
  854AUSL   AUS  841  13.256   5.159   7.652
  855AUSL   AUS  842  13.256   4.832   7.349
  856AUL    AUL  843  12.948   4.996   7.501
  857THSLK    S  844  12.989   4.754   7.377
  858ETHY    C1  845  12.536   4.665   7.359
  859ETHY    C1  846  12.011   4.510   7.252
  860THSLK    S  847  13.010   5.269   7.694
  861ETHY    C1  848  12.593   5.420   7.825
  862ETHY    C1  849  12.058   5.558   7.900
  863AUSL   AUS  850  14.510   4.587   7.501
  864AUSL   AUS  851  14.440   4.731   7.917
  865AUL    AUL  852  14.724   4.505   7.804
  866THSLK    S  853  14.741   4.448   7.501
  867ETHY    C1  854  15.095   4.150   7.497
  868ETHY    C1  855  15.579   3.873   7.498
  869THSLK    S  856  14.586   4.544   8.070
  870ETHY    C1  857  14.874   4.289   8.326
  871ETHY    C1  858  15.266   4.069   8.657
  872AUSL   AUS  859  14.604   4.832   7.349
  873AUSL   AUS  860  14.346   4.485   7.236
  874AUL    AUL  861  14.724   4.505   7.197
  875THSLK    S  862  14.850   4.700   7.343
  876ETHY    C1  863  15.266   4.515   7.266
  877ETHY    C1  864  15.802   4.387   7.176
  878THSLK    S  865  14.478   4.294   7.092
  879ETHY    C1  866  14.699   3.933   6.907
  880ETHY    C1  867  15.040   3.563   6.667
  881AUSL   AUS  868  13.350   4.587   7.501
  882AUSL   AUS  869  13.420   4.731   7.084
  883AUL    AUL  870  13.136   4.505   7.197
  884THSLK    S  871  13.240   4.563   6.958
  885ETHY    C1  872  12.894   4.343   6.743
  886ETHY    C1  873  12.519   4.113   6.400
  887THSLK    S  874  13.077   4.515   7.501
  888ETHY    C1  875  12.653   4.332   7.497
  889ETHY    C1  876  12.189   4.022   7.498
  890AUSL   AUS  877  13.256   4.832   7.652
  891AUSL   AUS  878  13.513   4.485   7.765
  892AUL    AUL  879  13.136   4.505   7.804
  893THSLK    S  880  13.327   4.328   7.889
  894ETHY    C1  881  13.014   4.022   8.033
  895ETHY    C1  882  12.699   3.635   8.284
  896THSLK    S  883  12.989   4.755   7.625
  897ETHY    C1  884  12.537   4.659   7.639
  898ETHY    C1  885  12.012   4.506   7.746
  899AUSL   AUS  886  13.930   5.576   7.910
  900AUSL   AUS  887  13.513   5.506   7.765
  901AUL    AUL  888  13.626   5.790   7.991
  902THSLK    S  889  13.382   5.674   7.945
  903ETHY    C1  890  13.161   6.002   8.185
  904ETHY    C1  891  12.820   6.382   8.409
  905THSLK    S  892  13.964   5.817   8.033
  906ETHY    C1  893  14.022   6.189   8.301
  907ETHY    C1  894  14.006   6.668   8.586
  908AUSL   AUS  895  13.778   5.669   7.664
  909AUSL   AUS  896  14.081   5.669   7.337
  910AUL    AUL  897  13.930   5.977   7.501
  911THSLK    S  898  13.809   5.929   7.770
  912ETHY    C1  899  13.799   6.370   7.907
  913ETHY    C1  900  13.690   6.899   8.048
  914THSLK    S  901  14.126   5.918   7.235
  915ETHY    C1  902  14.264   6.336   7.097
  916ETHY    C1  903  14.336   6.871   6.955
  917AUSL   AUS  904  14.081   5.669   7.664
  918AUSL   AUS  905  14.195   5.412   8.011
  919AUL    AUL  906  14.233   5.790   7.991
  920THSLK    S  907  14.369   5.540   8.185
  921ETHY    C1  908  14.605   5.759   8.517
  922ETHY    C1  909  14.831   6.101   8.895
  923THSLK    S  910  14.126   5.917   7.767
  924ETHY    C1  911  14.265   6.338   7.898
  925ETHY    C1  912  14.338   6.872   8.041
  926AUSL   AUS  913  13.930   4.416   7.910
  927AUSL   AUS  914  14.346   4.485   7.765
  928AUL    AUL  915  14.233   4.201   7.991
  929THSLK    S  916  13.896   4.152   7.997
  930ETHY    C1  917  13.841   3.743   8.205
  931ETHY    C1  918  13.856   3.275   8.507
  932THSLK    S  919  14.478   4.294   7.910
  933ETHY    C1  920  14.701   3.932   8.089
  934ETHY    C1  921  15.042   3.562   8.330
  935AUSL   AUS  922  13.778   4.322   7.664
  936AUSL   AUS  923  13.665   4.579   8.011
  937AUL    AUL  924  13.626   4.201   7.991
  938THSLK    S  925  13.733   4.069   7.746
  939ETHY    C1  926  13.596   3.638   7.843
  940ETHY    C1  927  13.523   3.106   7.996
  941THSLK    S  928  13.490   4.405   8.146
  942ETHY    C1  929  13.259   4.107   8.413
  943ETHY    C1  930  13.032   3.787   8.810
  944AUSL   AUS  931  14.081   4.322   7.664
  945AUSL   AUS  932  13.778   4.322   7.337
  946AUL    AUL  933  13.930   4.014   7.501
  947THSLK    S  934  13.733   4.069   7.255
  948ETHY    C1  935  13.594   3.640   7.152
  949ETHY    C1  936  13.522   3.108   7.001
  950THSLK    S  937  14.050   4.057   7.750
  951ETHY    C1  938  14.063   3.606   7.852
  952ETHY    C1  939  14.171   3.080   8.003
  953AUSL   AUS  940  13.930   5.576   7.092
  954AUSL   AUS  941  14.346   5.506   7.236
  955AUL    AUL  942  14.233   5.790   7.010
  956THSLK    S  943  13.964   5.817   6.969
  957ETHY    C1  944  14.019   6.186   6.696
  958ETHY    C1  945  14.003   6.665   6.412
  959THSLK    S  946  14.533   5.641   7.077
  960ETHY    C1  947  14.846   5.908   6.868
  961ETHY    C1  948  15.161   6.305   6.634
  962AUSL   AUS  949  13.778   5.669   7.337
  963AUSL   AUS  950  13.665   5.412   6.990
  964AUL    AUL  951  13.626   5.790   7.010
  965THSLK    S  952  13.809   5.930   7.232
  966ETHY    C1  953  13.797   6.368   7.088
  967ETHY    C1  954  13.689   6.897   6.948
  968THSLK    S  955  13.538   5.555   6.799
  969ETHY    C1  956  13.380   5.795   6.437
  970ETHY    C1  957  13.132   6.130   6.067
  971AUSL   AUS  958  13.930   4.416   7.092
  972AUSL   AUS  959  13.513   4.485   7.236
  973AUL    AUL  960  13.626   4.201   7.010
  974THSLK    S  961  13.327   4.328   7.113
  975ETHY    C1  962  13.011   4.026   6.964
  976ETHY    C1  963  12.697   3.639   6.714
  977THSLK    S  964  13.896   4.152   7.004
  978ETHY    C1  965  13.837   3.747   6.791
  979ETHY    C1  966  13.854   3.277   6.490
  980AUSL   AUS  967  14.081   4.322   7.337
  981AUSL   AUS  968  14.195   4.579   6.990
  982AUL    AUL  969  14.233   4.201   7.010
  983THSLK    S  970  14.051   4.056   7.252
  984ETHY    C1  971  14.061   3.608   7.143
  985ETHY    C1  972  14.169   3.081   6.993
  986THSLK    S  973  14.323   4.390   6.839
  987ETHY    C1  974  14.475   4.072   6.541
  988ETHY    C1  975  14.724   3.758   6.152
  989AUC    AUC  976  15.398  17.148   7.501
  990AUC    AUC  977  15.643  17.148   7.349
  991AUC    AUC  978  15.643  17.148   7.652
  992AUC    AUC  979  15.152  17.148   7.349
  993AUC    AUC  980  15.152  17.148   7.652
  994AUC    AUC  981  15.246  17.393   7.501
  995AUC    AUC  982  15.549  17.393   7.501
  996AUC    AUC  983  15.246  16.902   7.501
  997AUC    AUC  984  15.549  16.902   7.501
  998AUC    AUC  985  15.398  16.996   7.746
  999AUC    AUC  986  15.398  17.299   7.746
 1000AUC    AUC  987  15.398  16.996   7.255
 1001AUC    AUC  988  15.398  17.299   7.255
 1002AUC    AUC  989  15.889  17.148   7.197
 1003AUC    AUC  990  15.889  17.148   7.501
 1004AUC    AUC  991  15.889  17.148   7.804
 1005AUC    AUC  992  14.907  17.148   7.197
 1006AUC    AUC  993  14.907  17.148   7.501
 1007AUC    AUC  994  14.907  17.148   7.804
 1008AUC    AUC  995  15.094  17.638   7.501
 1009AUC    AUC  996  15.398  17.638   7.501
 1010AUC    AUC  997  15.701  17.638   7.501
 1011AUC    AUC  998  15.094  16.657   7.501
 1012AUC    AUC  999  15.398  16.657   7.501
 1013AUC    AUC 1000  15.701  16.657   7.501
 1014AUC    AUC 1001  15.398  16.844   7.991
 1015AUC    AUC 1002  15.398  17.148   7.991
 1016AUC    AUC 1003  15.398  17.451   7.991
 1017AUC    AUC 1004  15.398  16.844   7.010
 1018AUC    AUC 1005  15.398  17.148   7.010
 1019AUC    AUC 1006  15.398  17.451   7.010
 1020AUC    AUC 1007  15.643  16.996   7.898
 1021AUC    AUC 1008  15.643  17.299   7.898
 1022AUC    AUC 1009  15.643  16.996   7.103
 1023AUC    AUC 1010  15.643  17.299   7.103
 1024AUC    AUC 1011  15.152  16.996   7.898
 1025AUC    AUC 1012  15.152  17.299   7.898
 1026AUC    AUC 1013  15.152  16.996   7.103
 1027AUC    AUC 1014  15.152  17.299   7.103
 1028AUC    AUC 1015  15.795  17.393   7.349
 1029AUC    AUC 1016  15.795  17.393   7.652
 1030AUC    AUC 1017  15.001  17.393   7.349
 1031AUC    AUC 1018  15.001  17.393   7.652
 1032AUC    AUC 1019  15.795  16.902   7.349
 1033AUC    AUC 1020  15.795  16.902   7.652
 1034AUC    AUC 1021  15.001  16.902   7.349
 1035AUC    AUC 1022  15.001  16.902   7.652
 1036AUC    AUC 1023  15.246  17.545   7.746
 1037AUC    AUC 1024  15.549  17.545   7.746
 1038AUC    AUC 1025  15.246  16.751   7.746
 1039AUC    AUC 1026  15.549  16.751   7.746
 1040AUC    AUC 1027  15.246  17.545   7.255
 1041AUC    AUC 1028  15.549  17.545   7.255
 1042AUC    AUC 1029  15.246  16.751   7.255
 1043AUC    AUC 1030  15.549  16.751   7.255
 1044AUSL   AUS 1031  15.807  17.148   8.081
 1045AUSL   AUS 1032  15.663  16.731   8.011
 1046AUL    AUL 1033  15.889  16.844   8.295
 1047THSLK    S 1034  15.790  16.543   8.163
 1048ETHY    C1 1035  15.948  16.222   8.456
 1049ETHY    C1 1036  16.196  15.909   8.845
 1050THSLK    S 1037  15.912  17.108   8.333
 1051ETHY    C1 1038  16.155  17.041   8.720
 1052ETHY    C1 1039  16.448  17.060   9.194
 1053AUSL   AUS 1040  15.561  16.996   8.174
 1054AUSL   AUS 1041  15.234  17.299   8.174
 1055AUL    AUL 1042  15.398  17.148   8.482
 1056THSLK    S 1043  15.648  16.950   8.426
 1057ETHY    C1 1044  15.761  16.809   8.852
 1058ETHY    C1 1045  15.910  16.738   9.385
 1059THSLK    S 1046  15.146  17.268   8.439
 1060ETHY    C1 1047  15.041  17.279   8.889
 1061ETHY    C1 1048  14.891  17.387   9.415
 1062AUSL   AUS 1049  15.561  17.299   8.174
 1063AUSL   AUS 1050  15.908  17.412   7.917
 1064AUL    AUL 1051  15.889  17.451   8.295
 1065THSLK    S 1052  15.649  17.345   8.426
 1066ETHY    C1 1053  15.755  17.485   8.854
 1067ETHY    C1 1054  15.905  17.557   9.386
 1068THSLK    S 1055  16.088  17.528   8.082
 1069ETHY    C1 1056  16.433  17.663   8.358
 1070ETHY    C1 1057  16.808  17.917   8.683
 1071AUSL   AUS 1058  15.807  17.148   6.921
 1072AUSL   AUS 1059  15.663  17.564   6.990
 1073AUL    AUL 1060  15.889  17.451   6.706
 1074THSLK    S 1061  15.913  17.108   6.668
 1075ETHY    C1 1062  16.150  17.041   6.278
 1076ETHY    C1 1063  16.443  17.060   5.804
 1077THSLK    S 1064  15.838  17.692   6.816
 1078ETHY    C1 1065  16.069  17.910   6.480
 1079ETHY    C1 1066  16.295  18.252   6.102
 1080AUSL   AUS 1067  15.561  16.996   6.827
 1081AUSL   AUS 1068  15.908  16.883   7.084
 1082AUL    AUL 1069  15.889  16.844   6.706
 1083THSLK    S 1070  16.054  16.696   6.932
 1084ETHY    C1 1071  16.338  16.442   6.670
 1085ETHY    C1 1072  16.730  16.222   6.340
 1086THSLK    S 1073  15.649  16.950   6.575
 1087ETHY    C1 1074  15.755  16.810   6.147
 1088ETHY    C1 1075  15.905  16.738   5.615
 1089AUSL   AUS 1076  15.561  17.299   6.827
 1090AUSL   AUS 1077  15.234  16.996   6.827
 1091AUL    AUL 1078  15.398  17.148   6.519
 1092THSLK    S 1079  15.134  16.950   6.579
 1093ETHY    C1 1080  15.000  16.812   6.158
 1094ETHY    C1 1081  14.857  16.740   5.624
 1095THSLK    S 1082  15.662  17.267   6.566
 1096ETHY    C1 1083  15.789  17.276   6.121
 1097ETHY    C1 1084  15.933  17.385   5.594
 1098AUSL   AUS 1085  14.989  17.148   8.081
 1099AUSL   AUS 1086  15.133  17.564   8.011
 1100AUL    AUL 1087  14.907  17.451   8.295
 1101THSLK    S 1088  14.883  17.108   8.333
 1102ETHY    C1 1089  14.646  17.041   8.723
 1103ETHY    C1 1090  14.352  17.060   9.197
 1104THSLK    S 1091  15.005  17.706   8.202
 1105ETHY    C1 1092  14.852  17.951   8.563
 1106ETHY    C1 1093  14.604  18.286   8.933
 1107AUSL   AUS 1094  15.234  16.996   8.174
 1108AUSL   AUS 1095  14.888  16.883   7.917
 1109AUL    AUL 1096  14.907  16.844   8.295
 1110THSLK    S 1097  14.707  16.715   8.043
 1111ETHY    C1 1098  14.366  16.489   8.259
 1112ETHY    C1 1099  13.990  16.261   8.602
 1113THSLK    S 1100  15.134  16.950   8.422
 1114ETHY    C1 1101  15.006  16.811   8.844
 1115ETHY    C1 1102  14.862  16.739   9.378
 1116AUSL   AUS 1103  14.989  17.148   6.921
 1117AUSL   AUS 1104  15.133  16.731   6.990
 1118AUL    AUL 1105  14.907  16.844   6.706
 1119THSLK    S 1106  14.884  17.108   6.668
 1120ETHY    C1 1107  14.640  17.041   6.281
 1121ETHY    C1 1108  14.348  17.060   5.807
 1122THSLK    S 1109  14.959  16.557   6.855
 1123ETHY    C1 1110  14.722  16.264   6.587
 1124ETHY    C1 1111  14.497  15.943   6.190
 1125AUSL   AUS 1112  15.234  17.299   6.827
 1126AUSL   AUS 1113  14.888  17.412   7.084
 1127AUL    AUL 1114  14.907  17.451   6.706
 1128THSLK    S 1115  14.742  17.547   6.894
 1129ETHY    C1 1116  14.453  17.711   6.572
 1130ETHY    C1 1117  14.062  17.956   6.259
 1131THSLK    S 1118  15.147  17.268   6.562
 1132ETHY    C1 1119  15.034  17.278   6.114
 1133ETHY    C1 1120  14.886  17.386   5.587
 1134AUSL   AUS 1121  15.978  17.557   7.501
 1135AUSL   AUS 1122  15.908  17.412   7.084
 1136AUL    AUL 1123  16.192  17.638   7.197
 1137THSLK    S 1124  16.088  17.529   6.920
 1138ETHY    C1 1125  16.429  17.662   6.638
 1139ETHY    C1 1126  16.805  17.916   6.314
 1140THSLK    S 1127  16.251  17.628   7.501
 1141ETHY    C1 1128  16.675  17.812   7.497
 1142ETHY    C1 1129  17.139  18.121   7.498
 1143AUSL   AUS 1130  16.072  17.311   7.349
 1144AUSL   AUS 1131  16.072  16.984   7.652
 1145AUL    AUL 1132  16.379  17.148   7.501
 1146THSLK    S 1133  16.339  17.366   7.341
 1147ETHY    C1 1134  16.791  17.422   7.262
 1148ETHY    C1 1135  17.316  17.587   7.172
 1149THSLK    S 1136  16.318  16.852   7.659
 1150ETHY    C1 1137  16.735  16.667   7.728
 1151ETHY    C1 1138  17.271  16.539   7.820
 1152AUSL   AUS 1139  16.072  17.311   7.652
 1153AUSL   AUS 1140  15.814  17.658   7.765
 1154AUL    AUL 1141  16.192  17.638   7.804
 1155THSLK    S 1142  16.000  17.793   7.925
 1156ETHY    C1 1143  16.316  18.061   8.128
 1157ETHY    C1 1144  16.631  18.458   8.362
 1158THSLK    S 1145  16.339  17.366   7.661
 1159ETHY    C1 1146  16.791  17.422   7.733
 1160ETHY    C1 1147  17.317  17.587   7.824
 1161AUSL   AUS 1148  14.818  17.557   7.501
 1162AUSL   AUS 1149  14.888  17.412   7.917
 1163AUL    AUL 1150  14.604  17.638   7.804
 1164THSLK    S 1151  14.741  17.547   8.107
 1165ETHY    C1 1152  14.457  17.716   8.430
 1166ETHY    C1 1153  14.065  17.961   8.743
 1167THSLK    S 1154  14.587  17.695   7.501
 1168ETHY    C1 1155  14.233  17.993   7.497
 1169ETHY    C1 1156  13.749  18.270   7.498
 1170AUSL   AUS 1157  14.724  17.311   7.349
 1171AUSL   AUS 1158  14.981  17.658   7.236
 1172AUL    AUL 1159  14.604  17.638   7.197
 1173THSLK    S 1160  14.478  17.421   7.307
 1174ETHY    C1 1161  14.060  17.566   7.173
 1175ETHY    C1 1162  13.525  17.706   7.099
 1176THSLK    S 1163  14.850  17.827   7.056
 1177ETHY    C1 1164  14.626  18.149   6.812
 1178ETHY    C1 1165  14.286  18.531   6.589
 1179AUSL   AUS 1166  14.724  17.311   7.652
 1180AUSL   AUS 1167  14.724  16.984   7.349
 1181AUL    AUL 1168  14.416  17.148   7.501
 1182THSLK    S 1169  14.457  16.906   7.377
 1183ETHY    C1 1170  14.004  16.817   7.359
 1184ETHY    C1 1171  13.479  16.662   7.252
 1185THSLK    S 1172  14.478  17.421   7.694
 1186ETHY    C1 1173  14.061  17.572   7.825
 1187ETHY    C1 1174  13.526  17.710   7.900
 1188AUSL   AUS 1175  15.978  16.739   7.501
 1189AUSL   AUS 1176  15.908  16.883   7.917
 1190AUL    AUL 1177  16.192  16.657   7.804
 1191THSLK    S 1178  16.209  16.600   7.501
 1192ETHY    C1 1179  16.563  16.302   7.497
 1193ETHY    C1 1180  17.047  16.025   7.498
 1194THSLK    S 1181  16.054  16.696   8.070
 1195ETHY    C1 1182  16.342  16.441   8.326
 1196ETHY    C1 1183  16.734  16.221   8.657
 1197AUSL   AUS 1184  16.072  16.984   7.349
 1198AUSL   AUS 1185  15.814  16.637   7.236
 1199AUL    AUL 1186  16.192  16.657   7.197
 1200THSLK    S 1187  16.318  16.852   7.343
 1201ETHY    C1 1188  16.734  16.667   7.266
 1202ETHY    C1 1189  17.270  16.539   7.176
 1203THSLK    S 1190  15.946  16.446   7.092
 1204ETHY    C1 1191  16.167  16.085   6.907
 1205ETHY    C1 1192  16.508  15.715   6.667
 1206AUSL   AUS 1193  14.818  16.739   7.501
 1207AUSL   AUS 1194  14.888  16.883   7.084
 1208AUL    AUL 1195  14.604  16.657   7.197
 1209THSLK    S 1196  14.708  16.715   6.958
 1210ETHY    C1 1197  14.362  16.495   6.743
 1211ETHY    C1 1198  13.987  16.265   6.400
 1212THSLK    S 1199  14.545  16.667   7.501
 1213ETHY    C1 1200  14.121  16.484   7.497
 1214ETHY    C1 1201  13.657  16.174   7.498
 1215AUSL   AUS 1202  14.724  16.984   7.652
 1216AUSL   AUS 1203  14.981  16.637   7.765
 1217AUL    AUL 1204  14.604  16.657   7.804
 1218THSLK    S 1205  14.795  16.480   7.889
 1219ETHY    C1 1206  14.482  16.174   8.033
 1220ETHY    C1 1207  14.167  15.787   8.284
 1221THSLK    S 1208  14.457  16.907   7.625
 1222ETHY    C1 1209  14.005  16.811   7.639
 1223ETHY    C1 1210  13.480  16.658   7.746
 1224AUSL   AUS 1211  15.398  17.728   7.910
 1225AUSL   AUS 1212  14.981  17.658   7.765
 1226AUL    AUL 1213  15.094  17.942   7.991
 1227THSLK    S 1214  14.850  17.826   7.945
 1228ETHY    C1 1215  14.629  18.154   8.185
 1229ETHY    C1 1216  14.288  18.534   8.409
 1230THSLK    S 1217  15.432  17.969   8.033
 1231ETHY    C1 1218  15.490  18.341   8.301
 1232ETHY    C1 1219  15.474  18.820   8.586
 1233AUSL   AUS 1220  15.246  17.821   7.664
 1234AUSL   AUS 1221  15.549  17.821   7.337
 1235AUL    AUL 1222  15.398  18.129   7.501
 1236THSLK    S 1223  15.277  18.081   7.770
 1237ETHY    C1 1224  15.267  18.522   7.907
 1238ETHY    C1 1225  15.158  19.051   8.048
 1239THSLK    S 1226  15.594  18.070   7.235
 1240ETHY    C1 1227  15.732  18.488   7.097
 1241ETHY    C1 1228  15.804  19.023   6.955
 1242AUSL   AUS 1229  15.549  17.821   7.664
 1243AUSL   AUS 1230  15.663  17.564   8.011
 1244AUL    AUL 1231  15.701  17.942   7.991
 1245THSLK    S 1232  15.837  17.692   8.185
 1246ETHY    C1 1233  16.073  17.911   8.517
 1247ETHY    C1 1234  16.299  18.253   8.895
 1248THSLK    S 1235  15.594  18.069   7.767
 1249ETHY    C1 1236  15.733  18.490   7.898
 1250ETHY    C1 1237  15.806  19.024   8.041
 1251AUSL   AUS 1238  15.398  16.568   7.910
 1252AUSL   AUS 1239  15.814  16.637   7.765
 1253AUL    AUL 1240  15.701  16.353   7.991
 1254THSLK    S 1241  15.364  16.304   7.997
 1255ETHY    C1 1242  15.309  15.895   8.205
 1256ETHY    C1 1243  15.324  15.427   8.507
 1257THSLK    S 1244  15.946  16.446   7.910
 1258ETHY    C1 1245  16.169  16.084   8.089
 1259ETHY    C1 1246  16.510  15.714   8.330
 1260AUSL   AUS 1247  15.246  16.474   7.664
 1261AUSL   AUS 1248  15.133  16.731   8.011
 1262AUL    AUL 1249  15.094  16.353   7.991
 1263THSLK    S 1250  15.201  16.221   7.746
 1264ETHY    C1 1251  15.064  15.790   7.843
 1265ETHY    C1 1252  14.991  15.258   7.996
 1266THSLK    S 1253  14.958  16.557   8.146
 1267ETHY    C1 1254  14.727  16.259   8.413
 1268ETHY    C1 1255  14.500  15.939   8.810
 1269AUSL   AUS 1256  15.549  16.474   7.664
 1270AUSL   AUS 1257  15.246  16.474   7.337
 1271AUL    AUL 1258  15.398  16.166   7.501
 1272THSLK    S 1259  15.201  16.221   7.255
 1273ETHY    C1 1260  15.062  15.792   7.152
 1274ETHY    C1 1261  14.990  15.260   7.001
 1275THSLK    S 1262  15.518  16.209   7.750
 1276ETHY    C1 1263  15.531  15.758   7.852
 1277ETHY    C1 1264  15.639  15.232   8.003
 1278AUSL   AUS 1265  15.398  17.728   7.092
 1279AUSL   AUS 1266  15.814  17.658   7.236
 1280AUL    AUL 1267  15.701  17.942   7.010
 1281THSLK    S 1268  15.432  17.969   6.969
 1282ETHY    C1 1269  15.487  18.338   6.696
 1283ETHY    C1 1270  15.471  18.817   6.412
 1284THSLK    S 1271  16.001  17.793   7.077
 1285ETHY    C1 1272  16.314  18.060   6.868
 1286ETHY    C1 1273  16.629  18.457   6.634
 1287AUSL   AUS 1274  15.246  17.821   7.337
 1288AUSL   AUS 1275  15.133  17.564   6.990
 1289AUL    AUL 1276  15.094  17.942   7.010
 1290THSLK    S 1277  15.277  18.082   7.232
 1291ETHY    C1 1278  15.265  18.520   7.088
 1292ETHY    C1 1279  15.157  19.049   6.948
 1293THSLK    S 1280  15.006  17.707   6.799
 1294ETHY    C1 1281  14.848  17.947   6.437
 1295ETHY    C1 1282  14.600  18.282   6.067
 1296AUSL   AUS 1283  15.398  16.568   7.092
 1297AUSL   AUS 1284  14.981  16.637   7.236
 1298AUL    AUL 1285  15.094  16.353   7.010
 1299THSLK    S 1286  14.795  16.480   7.113
 1300ETHY    C1 1287  14.479  16.178   6.964
 1301ETHY    C1 1288  14.165  15.791   6.714
 1302THSLK    S 1289  15.364  16.304   7.004
 1303ETHY    C1 1290  15.305  15.899   6.791
 1304ETHY    C1 1291  15.322  15.429   6.490
 1305AUSL   AUS 1292  15.549  16.474   7.337
 1306AUSL   AUS 1293  15.663  16.731   6.990
 1307AUL    AUL 1294  15.701  16.353   7.010
 1308THSLK    S 1295  15.519  16.208   7.252
 1309ETHY    C1 1296  15.529  15.760   7.143
 1310ETHY    C1 1297  15.637  15.233   6.993
 1311THSLK    S 1298  15.791  16.542   6.839
 1312ETHY    C1 1299  15.943  16.224   6.541
 1313ETHY    C1 1300  16.192  15.910   6.152
 1314AUC    AUC 1301  17.715  -2.687   7.501
 1315AUC    AUC 1302  17.960  -2.687   7.349
 1316AUC    AUC 1303  17.960  -2.687   7.652
 1317AUC    AUC 1304  17.469  -2.687   7.349
 1318AUC    AUC 1305  17.469  -2.687   7.652
 1319AUC    AUC 1306  17.563  -2.442   7.501
 1320AUC    AUC 1307  17.866  -2.442   7.501
 1321AUC    AUC 1308  17.563  -2.933   7.501
 1322AUC    AUC 1309  17.866  -2.933   7.501
 1323AUC    AUC 1310  17.715  -2.839   7.746
 1324AUC    AUC 1311  17.715  -2.536   7.746
 1325AUC    AUC 1312  17.715  -2.839   7.255
 1326AUC    AUC 1313  17.715  -2.536   7.255
 1327AUC    AUC 1314  18.206  -2.687   7.197
 1328AUC    AUC 1315  18.206  -2.687   7.501
 1329AUC    AUC 1316  18.206  -2.687   7.804
 1330AUC    AUC 1317  17.224  -2.687   7.197
 1331AUC    AUC 1318  17.224  -2.687   7.501
 1332AUC    AUC 1319  17.224  -2.687   7.804
 1333AUC    AUC 1320  17.411  -2.197   7.501
 1334AUC    AUC 1321  17.715  -2.197   7.501
 1335AUC    AUC 1322  18.018  -2.197   7.501
 1336AUC    AUC 1323  17.411  -3.178   7.501
 1337AUC    AUC 1324  17.715  -3.178   7.501
 1338AUC    AUC 1325  18.018  -3.178   7.501
 1339AUC    AUC 1326  17.715  -2.991   7.991
 1340AUC    AUC 1327  17.715  -2.687   7.991
 1341AUC    AUC 1328  17.715  -2.384   7.991
 1342AUC    AUC 1329  17.715  -2.991   7.010
 1343AUC    AUC 1330  17.715  -2.687   7.010
 1344AUC    AUC 1331  17.715  -2.384   7.010
 1345AUC    AUC 1332  17.960  -2.839   7.898
 1346AUC    AUC 1333  17.960  -2.536   7.898
 1347AUC    AUC 1334  17.960  -2.839   7.103
 1348AUC    AUC 1335  17.960  -2.536   7.103
 1349AUC    AUC 1336  17.469  -2.839   7.898
 1350AUC    AUC 1337  17.469  -2.536   7.898
 1351AUC    AUC 1338  17.469  -2.839   7.103
 1352AUC    AUC 1339  17.469  -2.536   7.103
 1353AUC    AUC 1340  18.112  -2.442   7.349
 1354AUC    AUC 1341  18.112  -2.442   7.652
 1355AUC    AUC 1342  17.318  -2.442   7.349
 1356AUC    AUC 1343  17.318  -2.442   7.652
 1357AUC    AUC 1344  18.112  -2.933   7.349
 1358AUC    AUC 1345  18.112  -2.933   7.652
 1359AUC    AUC 1346  17.318  -2.933   7.349
 1360AUC    AUC 1347  17.318  -2.933   7.652
 1361AUC    AUC 1348  17.563  -2.290   7.746
 1362AUC    AUC 1349  17.866  -2.290   7.746
 1363AUC    AUC 1350  17.563  -3.084   7.746
 1364AUC    AUC 1351  17.866  -3.084   7.746
 1365AUC    AUC 1352  17.563  -2.290   7.255
 1366AUC    AUC 1353  17.866  -2.290   7.255
 1367AUC    AUC 1354  17.563  -3.084   7.255
 1368AUC    AUC 1355  17.866  -3.084   7.255
 1369AUSL   AUS 1356  18.124  -2.687   8.081
 1370AUSL   AUS 1357  17.980  -3.104   8.011
 1371AUL    AUL 1358  18.206  -2.991   8.295
 1372THSLK    S 1359  18.107  -3.292   8.163
 1373ETHY    C1 1360  18.265  -3.613   8.456
 1374ETHY    C1 1361  18.513  -3.926   8.845
 1375THSLK    S 1362  18.229  -2.727   8.333
 1376ETHY    C1 1363  18.472  -2.794   8.720
 1377ETHY    C1 1364  18.765  -2.775   9.194
 1378AUSL   AUS 1365  17.878  -2.839   8.174
 1379AUSL   AUS 1366  17.551  -2.536   8.174
 1380AUL    AUL 1367  17.715  -2.687   8.482
 1381THSLK    S 1368  17.965  -2.885   8.426
 1382ETHY    C1 1369  18.078  -3.026   8.852
 1383ETHY    C1 1370  18.227  -3.097   9.385
 1384THSLK    S 1371  17.463  -2.567   8.439
 1385ETHY    C1 1372  17.358  -2.556   8.889
 1386ETHY    C1 1373  17.208  -2.448   9.415
 1387AUSL   AUS 1374  17.878  -2.536   8.174
 1388AUSL   AUS 1375  18.225  -2.423   7.917
 1389AUL    AUL 1376  18.206  -2.384   8.295
 1390THSLK    S 1377  17.966  -2.490   8.426
 1391ETHY    C1 1378  18.072  -2.350   8.854
 1392ETHY    C1 1379  18.222  -2.278   9.386
 1393THSLK    S 1380  18.405  -2.307   8.082
 1394ETHY    C1 1381  18.750  -2.172   8.358
 1395ETHY    C1 1382  19.125  -1.918   8.683
 1396AUSL   AUS 1383  18.124  -2.687   6.921
 1397AUSL   AUS 1384  17.980  -2.271   6.990
 1398AUL    AUL 1385  18.206  -2.384   6.706
 1399THSLK    S 1386  18.230  -2.727   6.668
 1400ETHY    C1 1387  18.467  -2.794   6.278
 1401ETHY    C1 1388  18.760  -2.775   5.804
 1402THSLK    S 1389  18.155  -2.143   6.816
 1403ETHY    C1 1390  18.386  -1.925   6.480
 1404ETHY    C1 1391  18.612  -1.583   6.102
 1405AUSL   AUS 1392  17.878  -2.839   6.827
 1406AUSL   AUS 1393  18.225  -2.952   7.084
 1407AUL    AUL 1394  18.206  -2.991   6.706
 1408THSLK    S 1395  18.371  -3.139   6.932
 1409ETHY    C1 1396  18.655  -3.393   6.670
 1410ETHY    C1 1397  19.047  -3.613   6.340
 1411THSLK    S 1398  17.966  -2.885   6.575
 1412ETHY    C1 1399  18.072  -3.025   6.147
 1413ETHY    C1 1400  18.222  -3.097   5.615
 1414AUSL   AUS 1401  17.878  -2.536   6.827
 1415AUSL   AUS 1402  17.551  -2.839   6.827
 1416AUL    AUL 1403  17.715  -2.687   6.519
 1417THSLK    S 1404  17.451  -2.885   6.579
 1418ETHY    C1 1405  17.317  -3.023   6.158
 1419ETHY    C1 1406  17.174  -3.095   5.624
 1420THSLK    S 1407  17.979  -2.568   6.566
 1421ETHY    C1 1408  18.106  -2.559   6.121
 1422ETHY    C1 1409  18.250  -2.450   5.594
 1423AUSL   AUS 1410  17.306  -2.687   8.081
 1424AUSL   AUS 1411  17.450  -2.271   8.011
 1425AUL    AUL 1412  17.224  -2.384   8.295
 1426THSLK    S 1413  17.200  -2.727   8.333
 1427ETHY    C1 1414  16.963  -2.794   8.723
 1428ETHY    C1 1415  16.669  -2.775   9.197
 1429THSLK    S 1416  17.322  -2.129   8.202
 1430ETHY    C1 1417  17.169  -1.884   8.563
 1431ETHY    C1 1418  16.921  -1.549   8.933
 1432AUSL   AUS 1419  17.551  -2.839   8.174
 1433AUSL   AUS 1420  17.205  -2.952   7.917
 1434AUL    AUL 1421  17.224  -2.991   8.295
 1435THSLK    S 1422  17.024  -3.120   8.043
 1436ETHY    C1 1423  16.683  -3.346   8.259
 1437ETHY    C1 1424  16.307  -3.574   8.602
 1438THSLK    S 1425  17.451  -2.885   8.422
 1439ETHY    C1 1426  17.323  -3.024   8.844
 1440ETHY    C1 1427  17.179  -3.096   9.378
 1441AUSL   AUS 1428  17.306  -2.687   6.921
 1442AUSL   AUS 1429  17.450  -3.104   6.990
 1443AUL    AUL 1430  17.224  -2.991   6.706
 1444THSLK    S 1431  17.201  -2.727   6.668
 1445ETHY    C1 1432  16.957  -2.794   6.281
 1446ETHY    C1 1433  16.665  -2.775   5.807
 1447THSLK    S 1434  17.276  -3.278   6.855
 1448ETHY    C1 1435  17.039  -3.571   6.587
 1449ETHY    C1 1436  16.814  -3.892   6.190
 1450AUSL   AUS 1437  17.551  -2.536   6.827
 1451AUSL   AUS 1438  17.205  -2.423   7.084
 1452AUL    AUL 1439  17.224  -2.384   6.706
 1453THSLK    S 1440  17.059  -2.288   6.894
 1454ETHY    C1 1441  16.770  -2.124   6.572
 1455ETHY    C1 1442  16.379  -1.879   6.259
 1456THSLK    S 1443  17.464  -2.567   6.562
 1457ETHY    C1 1444  17.351  -2.557   6.114
 1458ETHY    C1 1445  17.203  -2.449   5.587
 1459AUSL   AUS 1446  18.295  -2.278   7.501
 1460AUSL   AUS 1447  18.225  -2.423   7.084
 1461AUL    AUL 1448  18.509  -2.197   7.197
 1462THSLK    S 1449  18.405  -2.306   6.920
 1463ETHY    C1 1450  18.746  -2.173   6.638
 1464ETHY    C1 1451  19.122  -1.919   6.314
 1465THSLK    S 1452  18.568  -2.207   7.501
 1466ETHY    C1 1453  18.992  -2.023   7.497
 1467ETHY    C1 1454  19.456  -1.714   7.498
 1468AUSL   AUS 1455  18.389  -2.524   7.349
 1469AUSL   AUS 1456  18.389  -2.851   7.652
 1470AUL    AUL 1457  18.696  -2.687   7.501
 1471THSLK    S 1458  18.656  -2.469   7.341
 1472ETHY    C1 1459  19.108  -2.413   7.262
 1473ETHY    C1 1460  19.633  -2.248   7.172
 1474THSLK    S 1461  18.635  -2.983   7.659
 1475ETHY    C1 1462  19.052  -3.168   7.728
 1476ETHY    C1 1463  19.588  -3.296   7.820
 1477AUSL   AUS 1464  18.389  -2.524   7.652
 1478AUSL   AUS 1465  18.131  -2.177   7.765
 1479AUL    AUL 1466  18.509  -2.197   7.804
 1480THSLK    S 1467  18.317  -2.042   7.925
 1481ETHY    C1 1468  18.633  -1.774   8.128
 1482ETHY    C1 1469  18.948  -1.377   8.362
 1483THSLK    S 1470  18.656  -2.469   7.661
 1484ETHY    C1 1471  19.108  -2.413   7.733
 1485ETHY    C1 1472  19.634  -2.248   7.824
 1486AUSL   AUS 1473  17.135  -2.278   7.501
 1487AUSL   AUS 1474  17.205  -2.423   7.917
 1488AUL    AUL 1475  16.921  -2.197   7.804
 1489THSLK    S 1476  17.058  -2.288   8.107
 1490ETHY    C1 1477  16.774  -2.119   8.430
 1491ETHY    C1 1478  16.382  -1.874   8.743
 1492THSLK    S 1479  16.904  -2.140   7.501
 1493ETHY    C1 1480  16.550  -1.842   7.497
 1494ETHY    C1 1481  16.066  -1.565   7.498
 1495AUSL   AUS 1482  17.041  -2.524   7.349
 1496AUSL   AUS 1483  17.298  -2.177   7.236
 1497AUL    AUL 1484  16.921  -2.197   7.197
 1498THSLK    S 1485  16.795  -2.414   7.307
 1499ETHY    C1 1486  16.377  -2.269   7.173
 1500ETHY    C1 1487  15.842  -2.129   7.099
 1501THSLK    S 1488  17.167  -2.008   7.056
 1502ETHY    C1 1489  16.943  -1.686   6.812
 1503ETHY    C1 1490  16.603  -1.304   6.589
 1504AUSL   AUS 1491  17.041  -2.524   7.652
 1505AUSL   AUS 1492  17.041  -2.851   7.349
 1506AUL    AUL 1493  16.733  -2.687   7.501
 1507THSLK    S 1494  16.774  -2.929   7.377
 1508ETHY    C1 1495  16.321  -3.018   7.359
 1509ETHY    C1 1496  15.796  -3.173   7.252
 1510THSLK    S 1497  16.795  -2.414   7.694
 1511ETHY    C1 1498  16.378  -2.263   7.825
 1512ETHY    C1 1499  15.843  -2.125   7.900
 1513AUSL   AUS 1500  18.295  -3.096   7.501
 1514AUSL   AUS 1501  18.225  -2.952   7.917
 1515AUL    AUL 1502  18.509  -3.178   7.804
 1516THSLK    S 1503  18.526  -3.235   7.501
 1517ETHY    C1 1504  18.880  -3.533   7.497
 1518ETHY    C1 1505  19.364  -3.810   7.498
 1519THSLK    S 1506  18.371  -3.139   8.070
 1520ETHY    C1 1507  18.659  -3.394   8.326
 1521ETHY    C1 1508  19.051  -3.614   8.657
 1522AUSL   AUS 1509  18.389  -2.851   7.349
 1523AUSL   AUS 1510  18.131  -3.198   7.236
 1524AUL    AUL 1511  18.509  -3.178   7.197
 1525THSLK    S 1512  18.635  -2.983   7.343
 1526ETHY    C1 1513  19.051  -3.168   7.266
 1527ETHY    C1 1514  19.587  -3.296   7.176
 1528THSLK    S 1515  18.263  -3.389   7.092
 1529ETHY    C1 1516  18.484  -3.750   6.907
 1530ETHY    C1 1517  18.825  -4.120   6.667
 1531AUSL   AUS 1518  17.135  -3.096   7.501
 1532AUSL   AUS 1519  17.205  -2.952   7.084
 1533AUL    AUL 1520  16.921  -3.178   7.197
 1534THSLK    S 1521  17.025  -3.120   6.958
 1535ETHY    C1 1522  16.679  -3.340   6.743
 1536ETHY    C1 1523  16.304  -3.570   6.400
 1537THSLK    S 1524  16.862  -3.168   7.501
 1538ETHY    C1 1525  16.438  -3.351   7.497
 1539ETHY    C1 1526  15.974  -3.661   7.498
 1540AUSL   AUS 1527  17.041  -2.851   7.652
 1541AUSL   AUS 1528  17.298  -3.198   7.765
 1542AUL    AUL 1529  16.921  -3.178   7.804
 1543THSLK    S 1530  17.112  -3.355   7.889
 1544ETHY    C1 1531  16.799  -3.661   8.033
 1545ETHY    C1 1532  16.484  -4.048   8.284
 1546THSLK    S 1533  16.774  -2.928   7.625
 1547ETHY    C1 1534  16.322  -3.024   7.639
 1548ETHY    C1 1535  15.797  -3.177   7.746
 1549AUSL   AUS 1536  17.715  -2.107   7.910
 1550AUSL   AUS 1537  17.298  -2.177   7.765
 1551AUL    AUL 1538  17.411  -1.893   7.991
 1552THSLK    S 1539  17.167  -2.009   7.945
 1553ETHY    C1 1540  16.946  -1.681   8.185
 1554ETHY    C1 1541  16.605  -1.301   8.409
 1555THSLK    S 1542  17.749  -1.866   8.033
 1556ETHY    C1 1543  17.807  -1.494   8.301
 1557ETHY    C1 1544  17.791  -1.015   8.586
 1558AUSL   AUS 1545  17.563  -2.014   7.664
 1559AUSL   AUS 1546  17.866  -2.014   7.337
 1560AUL    AUL 1547  17.715  -1.706   7.501
 1561THSLK    S 1548  17.594  -1.754   7.770
 1562ETHY    C1 1549  17.584  -1.313   7.907
 1563ETHY    C1 1550  17.475  -0.784   8.048
 1564THSLK    S 1551  17.911  -1.765   7.235
 1565ETHY    C1 1552  18.049  -1.347   7.097
 1566ETHY    C1 1553  18.121  -0.812   6.955
 1567AUSL   AUS 1554  17.866  -2.014   7.664
 1568AUSL   AUS 1555  17.980  -2.271   8.011
 1569AUL    AUL 1556  18.018  -1.893   7.991
 1570THSLK    S 1557  18.154  -2.143   8.185
 1571ETHY    C1 1558  18.390  -1.924   8.517
 1572ETHY    C1 1559  18.616  -1.582   8.895
 1573THSLK    S 1560  17.911  -1.766   7.767
 1574ETHY    C1 1561  18.050  -1.345   7.898
 1575ETHY    C1 1562  18.123  -0.811   8.041
 1576AUSL   AUS 1563  17.715  -3.267   7.910
 1577AUSL   AUS 1564  18.131  -3.198   7.765
 1578AUL    AUL 1565  18.018  -3.482   7.991
 1579THSLK    S 1566  17.681  -3.531   7.997
 1580ETHY    C1 1567  17.626  -3.940   8.205
 1581ETHY    C1 1568  17.641  -4.408   8.507
 1582THSLK    S 1569  18.263  -3.389   7.910
 1583ETHY    C1 1570  18.486  -3.751   8.089
 1584ETHY    C1 1571  18.827  -4.121   8.330
 1585AUSL   AUS 1572  17.563  -3.361   7.664
 1586AUSL   AUS 1573  17.450  -3.104   8.011
 1587AUL    AUL 1574  17.411  -3.482   7.991
 1588THSLK    S 1575  17.518  -3.614   7.746
 1589ETHY    C1 1576  17.381  -4.045   7.843
 1590ETHY    C1 1577  17.308  -4.577   7.996
 1591THSLK    S 1578  17.275  -3.278   8.146
 1592ETHY    C1 1579  17.044  -3.576   8.413
 1593ETHY    C1 1580  16.817  -3.896   8.810
 1594AUSL   AUS 1581  17.866  -3.361   7.664
 1595AUSL   AUS 1582  17.563  -3.361   7.337
 1596AUL    AUL 1583  17.715  -3.669   7.501
 1597THSLK    S 1584  17.518  -3.614   7.255
 1598ETHY    C1 1585  17.379  -4.043   7.152
 1599ETHY    C1 1586  17.307  -4.575   7.001
 1600THSLK    S 1587  17.835  -3.626   7.750
 1601ETHY    C1 1588  17.848  -4.077   7.852
 1602ETHY    C1 1589  17.956  -4.603   8.003
 1603AUSL   AUS 1590  17.715  -2.107   7.092
 1604AUSL   AUS 1591  18.131  -2.177   7.236
 1605AUL    AUL 1592  18.018  -1.893   7.010
 1606THSLK    S 1593  17.749  -1.866   6.969
 1607ETHY    C1 1594  17.804  -1.497   6.696
 1608ETHY    C1 1595  17.788  -1.018   6.412
 1609THSLK    S 1596  18.318  -2.042   7.077
 1610ETHY    C1 1597  18.631  -1.775   6.868
 1611ETHY    C1 1598  18.946  -1.378   6.634
 1612AUSL   AUS 1599  17.563  -2.014   7.337
 1613AUSL   AUS 1600  17.450  -2.271   6.990
 1614AUL    AUL 1601  17.411  -1.893   7.010
 1615THSLK    S 1602  17.594  -1.753   7.232
 1616ETHY    C1 1603  17.582  -1.315   7.088
 1617ETHY    C1 1604  17.474  -0.786   6.948
 1618THSLK    S 1605  17.323  -2.128   6.799
 1619ETHY    C1 1606  17.165  -1.888   6.437
 1620ETHY    C1 1607  16.917  -1.553   6.067
 1621AUSL   AUS 1608  17.715  -3.267   7.092
 1622AUSL   AUS 1609  17.298  -3.198   7.236
 1623AUL    AUL 1610  17.411  -3.482   7.010
 1624THSLK    S 1611  17.112  -3.355   7.113
 1625ETHY    C1 1612  16.796  -3.657   6.964
 1626ETHY    C1 1613  16.482  -4.044   6.714
 1627THSLK    S 1614  17.681  -3.531   7.004
 1628ETHY    C1 1615  17.622  -3.936   6.791
 1629ETHY    C1 1616  17.639  -4.406   6.490
 1630AUSL   AUS 1617  17.866  -3.361   7.337
 1631AUSL   AUS 1618  17.980  -3.104   6.990
 1632AUL    AUL 1619  18.018  -3.482   7.010
 1633THSLK    S 1620  17.836  -3.627   7.252
 1634ETHY    C1 1621  17.846  -4.075   7.143
 1635ETHY    C1 1622  17.954  -4.602   6.993
 1636THSLK    S 1623  18.108  -3.293   6.839
 1637ETHY    C1 1624  18.260  -3.611   6.541
 1638ETHY    C1 1625  18.509  -3.925   6.152
 1639AUC    AUC 1626   2.369  23.364   7.501
 1640AUC    AUC 1627   2.614  23.364   7.349
 1641AUC    AUC 1628   2.614  23.364   7.652
 1642AUC    AUC 1629   2.123  23.364   7.349
 1643AUC    AUC 1630   2.123  23.364   7.652
 1644AUC    AUC 1631   2.217  23.609   7.501
 1645AUC    AUC 1632   2.520  23.609   7.501
 1646AUC    AUC 1633   2.217  23.118   7.501
 1647AUC    AUC 1634   2.520  23.118   7.501
 1648AUC    AUC 1635   2.369  23.212   7.746
 1649AUC    AUC 1636   2.369  23.515   7.746
 1650AUC    AUC 1637   2.369  23.212   7.255
 1651AUC    AUC 1638   2.369  23.515   7.255
 1652AUC    AUC 1639   2.860  23.364   7.197
 1653AUC    AUC 1640   2.860  23.364   7.501
 1654AUC    AUC 1641   2.860  23.364   7.804
 1655AUC    AUC 1642   1.878  23.364   7.197
 1656AUC    AUC 1643   1.878  23.364   7.501
 1657AUC    AUC 1644   1.878  23.364   7.804
 1658AUC    AUC 1645   2.065  23.854   7.501
 1659AUC    AUC 1646   2.369  23.854   7.501
 1660AUC    AUC 1647   2.672  23.854   7.501
 1661AUC    AUC 1648   2.065  22.873   7.501
 1662AUC    AUC 1649   2.369  22.873   7.501
 1663AUC    AUC 1650   2.672  22.873   7.501
 1664AUC    AUC 1651   2.369  23.060   7.991
 1665AUC    AUC 1652   2.369  23.364   7.991
 1666AUC    AUC 1653   2.369  23.667   7.991
 1667AUC    AUC 1654   2.369  23.060   7.010
 1668AUC    AUC 1655   2.369  23.364   7.010
 1669AUC    AUC 1656   2.369  23.667   7.010
 1670AUC    AUC 1657   2.614  23.212   7.898
 1671AUC    AUC 1658   2.614  23.515   7.898
 1672AUC    AUC 1659   2.614  23.212   7.103
 1673AUC    AUC 1660   2.614  23.515   7.103
 1674AUC    AUC 1661   2.123  23.212   7.898
 1675AUC    AUC 1662   2.123  23.515   7.898
 1676AUC    AUC 1663   2.123  23.212   7.103
 1677AUC    AUC 1664   2.123  23.515   7.103
 1678AUC    AUC 1665   2.766  23.609   7.349
 1679AUC    AUC 1666   2.766  23.609   7.652
 1680AUC    AUC 1667   1.972  23.609   7.349
 1681AUC    AUC 1668   1.972  23.609   7.652
 1682AUC    AUC 1669   2.766  23.118   7.349
 1683AUC    AUC 1670   2.766  23.118   7.652
 1684AUC    AUC 1671   1.972  23.118   7.349
 1685AUC    AUC 1672   1.972  23.118   7.652
 1686AUC    AUC 1673   2.217  23.761   7.746
 1687AUC    AUC 1674   2.520  23.761   7.746
 1688AUC    AUC 1675   2.217  22.967   7.746
 1689AUC    AUC 1676   2.520  22.967   7.746
 1690AUC    AUC 1677   2.217  23.761   7.255
 1691AUC    AUC 1678   2.520  23.761   7.255
 1692AUC    AUC 1679   2.217  22.967   7.255
 1693AUC    AUC 1680   2.520  22.967   7.255
 1694AUSL   AUS 1681   2.778  23.364   8.081
 1695AUSL   AUS 1682   2.634  22.947   8.011
 1696AUL    AUL 1683   2.860  23.060   8.295
 1697THSLK    S 1684   2.761  22.759   8.163
 1698ETHY    C1 1685   2.919  22.438   8.456
 1699ETHY    C1 1686   3.167  22.125   8.845
 1700THSLK    S 1687   2.883  23.324   8.333
 1701ETHY    C1 1688   3.126  23.257   8.720
 1702ETHY    C1 1689   3.419  23.276   9.194
 1703AUSL   AUS 1690   2.532  23.212   8.174
 1704AUSL   AUS 1691   2.205  23.515   8.174
 1705AUL    AUL 1692   2.369  23.364   8.482
 1706THSLK    S 1693   2.619  23.166   8.426
 1707ETHY    C1 1694   2.732  23.025   8.852
 1708ETHY    C1 1695   2.881  22.954   9.385
 1709THSLK    S 1696   2.117  23.484   8.439
 1710ETHY    C1 1697   2.012  23.495   8.889
 1711ETHY    C1 1698   1.862  23.603   9.415
 1712AUSL   AUS 1699   2.532  23.515   8.174
 1713AUSL   AUS 1700   2.879  23.628   7.917
 1714AUL    AUL 1701   2.860  23.667   8.295
 1715THSLK    S 1702   2.620  23.561   8.426
 1716ETHY    C1 1703   2.726  23.701   8.854
 1717ETHY    C1 1704   2.876  23.773   9.386
 1718THSLK    S 1705   3.059  23.744   8.082
 1719ETHY    C1 1706   3.404  23.879   8.358
 1720ETHY    C1 1707   3.779  24.133   8.683
 1721AUSL   AUS 1708   2.778  23.364   6.921
 1722AUSL   AUS 1709   2.634  23.780   6.990
 1723AUL    AUL 1710   2.860  23.667   6.706
 1724THSLK    S 1711   2.884  23.324   6.668
 1725ETHY    C1 1712   3.121  23.257   6.278
 1726ETHY    C1 1713   3.414  23.276   5.804
 1727THSLK    S 1714   2.809  23.908   6.816
 1728ETHY    C1 1715   3.040  24.126   6.480
 1729ETHY    C1 1716   3.266  24.468   6.102
 1730AUSL   AUS 1717   2.532  23.212   6.827
 1731AUSL   AUS 1718   2.879  23.099   7.084
 1732AUL    AUL 1719   2.860  23.060   6.706
 1733THSLK    S 1720   3.025  22.912   6.932
 1734ETHY    C1 1721   3.309  22.658   6.670
 1735ETHY    C1 1722   3.701  22.438   6.340
 1736THSLK    S 1723   2.620  23.166   6.575
 1737ETHY    C1 1724   2.726  23.026   6.147
 1738ETHY    C1 1725   2.876  22.954   5.615
 1739AUSL   AUS 1726   2.532  23.515   6.827
 1740AUSL   AUS 1727   2.205  23.212   6.827
 1741AUL    AUL 1728   2.369  23.364   6.519
 1742THSLK    S 1729   2.105  23.166   6.579
 1743ETHY    C1 1730   1.971  23.028   6.158
 1744ETHY    C1 1731   1.828  22.956   5.624
 1745THSLK    S 1732   2.633  23.483   6.566
 1746ETHY    C1 1733   2.760  23.492   6.121
 1747ETHY    C1 1734   2.904  23.601   5.594
 1748AUSL   AUS 1735   1.960  23.364   8.081
 1749AUSL   AUS 1736   2.104  23.780   8.011
 1750AUL    AUL 1737   1.878  23.667   8.295
 1751THSLK    S 1738   1.854  23.324   8.333
 1752ETHY    C1 1739   1.617  23.257   8.723
 1753ETHY    C1 1740   1.323  23.276   9.197
 1754THSLK    S 1741   1.976  23.922   8.202
 1755ETHY    C1 1742   1.823  24.167   8.563
 1756ETHY    C1 1743   1.575  24.502   8.933
 1757AUSL   AUS 1744   2.205  23.212   8.174
 1758AUSL   AUS 1745   1.859  23.099   7.917
 1759AUL    AUL 1746   1.878  23.060   8.295
 1760THSLK    S 1747   1.678  22.931   8.043
 1761ETHY    C1 1748   1.337  22.705   8.259
 1762ETHY    C1 1749   0.961  22.477   8.602
 1763THSLK    S 1750   2.105  23.166   8.422
 1764ETHY    C1 1751   1.977  23.027   8.844
 1765ETHY    C1 1752   1.833  22.955   9.378
 1766AUSL   AUS 1753   1.960  23.364   6.921
 1767AUSL   AUS 1754   2.104  22.947   6.990
 1768AUL    AUL 1755   1.878  23.060   6.706
 1769THSLK    S 1756   1.855  23.324   6.668
 1770ETHY    C1 1757   1.611  23.257   6.281
 1771ETHY    C1 1758   1.319  23.276   5.807
 1772THSLK    S 1759   1.930  22.773   6.855
 1773ETHY    C1 1760   1.693  22.480   6.587
 1774ETHY    C1 1761   1.468  22.159   6.190
 1775AUSL   AUS 1762   2.205  23.515   6.827
 1776AUSL   AUS 1763   1.859  23.628   7.084
 1777AUL    AUL 1764   1.878  23.667   6.706
 1778THSLK    S 1765   1.713  23.763   6.894
 1779ETHY    C1 1766   1.424  23.927   6.572
 1780ETHY    C1 1767   1.033  24.172   6.259
 1781THSLK    S 1768   2.118  23.484   6.562
 1782ETHY    C1 1769   2.005  23.494   6.114
 1783ETHY    C1 1770   1.857  23.602   5.587
 1784AUSL   AUS 1771   2.949  23.773   7.501
 1785AUSL   AUS 1772   2.879  23.628   7.084
 1786AUL    AUL 1773   3.163  23.854   7.197
 1787THSLK    S 1774   3.059  23.745   6.920
 1788ETHY    C1 1775   3.400  23.878   6.638
 1789ETHY    C1 1776   3.776  24.132   6.314
 1790THSLK    S 1777   3.222  23.844   7.501
 1791ETHY    C1 1778   3.646  24.028   7.497
 1792ETHY    C1 1779   4.110  24.337   7.498
 1793AUSL   AUS 1780   3.043  23.527   7.349
 1794AUSL   AUS 1781   3.043  23.200   7.652
 1795AUL    AUL 1782   3.350  23.364   7.501
 1796THSLK    S 1783   3.310  23.582   7.341
 1797ETHY    C1 1784   3.762  23.638   7.262
 1798ETHY    C1 1785   4.287  23.803   7.172
 1799THSLK    S 1786   3.289  23.068   7.659
 1800ETHY    C1 1787   3.706  22.883   7.728
 1801ETHY    C1 1788   4.242  22.755   7.820
 1802AUSL   AUS 1789   3.043  23.527   7.652
 1803AUSL   AUS 1790   2.785  23.874   7.765
 1804AUL    AUL 1791   3.163  23.854   7.804
 1805THSLK    S 1792   2.971  24.009   7.925
 1806ETHY    C1 1793   3.287  24.277   8.128
 1807ETHY    C1 1794   3.602  24.674   8.362
 1808THSLK    S 1795   3.310  23.582   7.661
 1809ETHY    C1 1796   3.762  23.638   7.733
 1810ETHY    C1 1797   4.288  23.803   7.824
 1811AUSL   AUS 1798   1.789  23.773   7.501
 1812AUSL   AUS 1799   1.859  23.628   7.917
 1813AUL    AUL 1800   1.575  23.854   7.804
 1814THSLK    S 1801   1.712  23.763   8.107
 1815ETHY    C1 1802   1.428  23.932   8.430
 1816ETHY    C1 1803   1.036  24.177   8.743
 1817THSLK    S 1804   1.558  23.911   7.501
 1818ETHY    C1 1805   1.204  24.209   7.497
 1819ETHY    C1 1806   0.720  24.486   7.498
 1820AUSL   AUS 1807   1.695  23.527   7.349
 1821AUSL   AUS 1808   1.952  23.874   7.236
 1822AUL    AUL 1809   1.575  23.854   7.197
 1823THSLK    S 1810   1.449  23.637   7.307
 1824ETHY    C1 1811   1.031  23.782   7.173
 1825ETHY    C1 1812   0.496  23.922   7.099
 1826THSLK    S 1813   1.821  24.043   7.056
 1827ETHY    C1 1814   1.597  24.365   6.812
 1828ETHY    C1 1815   1.257  24.747   6.589
 1829AUSL   AUS 1816   1.695  23.527   7.652
 1830AUSL   AUS 1817   1.695  23.200   7.349
 1831AUL    AUL 1818   1.387  23.364   7.501
 1832THSLK    S 1819   1.428  23.122   7.377
 1833ETHY    C1 1820   0.975  23.033   7.359
 1834ETHY    C1 1821   0.450  22.878   7.252
 1835THSLK    S 1822   1.449  23.637   7.694
 1836ETHY    C1 1823   1.032  23.788   7.825
 1837ETHY    C1 1824   0.497  23.926   7.900
 1838AUSL   AUS 1825   2.949  22.955   7.501
 1839AUSL   AUS 1826   2.879  23.099   7.917
 1840AUL    AUL 1827   3.163  22.873   7.804
 1841THSLK    S 1828   3.180  22.816   7.501
 1842ETHY    C1 1829   3.534  22.518   7.497
 1843ETHY    C1 1830   4.018  22.241   7.498
 1844THSLK    S 1831   3.025  22.912   8.070
 1845ETHY    C1 1832   3.313  22.657   8.326
 1846ETHY    C1 1833   3.705  22.437   8.657
 1847AUSL   AUS 1834   3.043  23.200   7.349
 1848AUSL   AUS 1835   2.785  22.853   7.236
 1849AUL    AUL 1836   3.163  22.873   7.197
 1850THSLK    S 1837   3.289  23.068   7.343
 1851ETHY    C1 1838   3.705  22.883   7.266
 1852ETHY    C1 1839   4.241  22.755   7.176
 1853THSLK    S 1840   2.917  22.662   7.092
 1854ETHY    C1 1841   3.138  22.301   6.907
 1855ETHY    C1 1842   3.479  21.931   6.667
 1856AUSL   AUS 1843   1.789  22.955   7.501
 1857AUSL   AUS 1844   1.859  23.099   7.084
 1858AUL    AUL 1845   1.575  22.873   7.197
 1859THSLK    S 1846   1.679  22.931   6.958
 1860ETHY    C1 1847   1.333  22.711   6.743
 1861ETHY    C1 1848   0.958  22.481   6.400
 1862THSLK    S 1849   1.516  22.883   7.501
 1863ETHY    C1 1850   1.092  22.700   7.497
 1864ETHY    C1 1851   0.628  22.390   7.498
 1865AUSL   AUS 1852   1.695  23.200   7.652
 1866AUSL   AUS 1853   1.952  22.853   7.765
 1867AUL    AUL 1854   1.575  22.873   7.804
 1868THSLK    S 1855   1.766  22.696   7.889
 1869ETHY    C1 1856   1.453  22.390   8.033
 1870ETHY    C1 1857   1.138  22.003   8.284
 1871THSLK    S 1858   1.428  23.123   7.625
 1872ETHY    C1 1859   0.976  23.027   7.639
 1873ETHY    C1 1860   0.451  22.874   7.746
 1874AUSL   AUS 1861   2.369  23.944   7.910
 1875AUSL   AUS 1862   1.952  23.874   7.765
 1876AUL    AUL 1863   2.065  24.158   7.991
 1877THSLK    S 1864   1.821  24.042   7.945
 1878ETHY    C1 1865   1.600  24.370   8.185
 1879ETHY    C1 1866   1.259  24.750   8.409
 1880THSLK    S 1867   2.403  24.185   8.033
 1881ETHY    C1 1868   2.461  24.557   8.301
 1882ETHY    C1 1869   2.445  25.036   8.586
 1883AUSL   AUS 1870   2.217  24.037   7.664
 1884AUSL   AUS 1871   2.520  24.037   7.337
 1885AUL    AUL 1872   2.369  24.345   7.501
 1886THSLK    S 1873   2.248  24.297   7.770
 1887ETHY    C1 1874   2.238  24.738   7.907
 1888ETHY    C1 1875   2.129  25.267   8.048
 1889THSLK    S 1876   2.565  24.286   7.235
 1890ETHY    C1 1877   2.703  24.704   7.097
 1891ETHY    C1 1878   2.775  25.239   6.955
 1892AUSL   AUS 1879   2.520  24.037   7.664
 1893AUSL   AUS 1880   2.634  23.780   8.011
 1894AUL    AUL 1881   2.672  24.158   7.991
 1895THSLK    S 1882   2.808  23.908   8.185
 1896ETHY    C1 1883   3.044  24.127   8.517
 1897ETHY    C1 1884   3.270  24.469   8.895
 1898THSLK    S 1885   2.565  24.285   7.767
 1899ETHY    C1 1886   2.704  24.706   7.898
 1900ETHY    C1 1887   2.777  25.240   8.041
 1901AUSL   AUS 1888   2.369  22.784   7.910
 1902AUSL   AUS 1889   2.785  22.853   7.765
 1903AUL    AUL 1890   2.672  22.569   7.991
 1904THSLK    S 1891   2.335  22.520   7.997
 1905ETHY    C1 1892   2.280  22.111   8.205
 1906ETHY    C1 1893   2.295  21.643   8.507
 1907THSLK    S 1894   2.917  22.662   7.910
 1908ETHY    C1 1895   3.140  22.300   8.089
 1909ETHY    C1 1896   3.481  21.930   8.330
 1910AUSL   AUS 1897   2.217  22.690   7.664
 1911AUSL   AUS 1898   2.104  22.947   8.011
 1912AUL    AUL 1899   2.065  22.569   7.991
 1913THSLK    S 1900   2.172  22.437   7.746
 1914ETHY    C1 1901   2.035  22.006   7.843
 1915ETHY    C1 1902   1.962  21.474   7.996
 1916THSLK    S 1903   1.929  22.773   8.146
 1917ETHY    C1 1904   1.698  22.475   8.413
 1918ETHY    C1 1905   1.471  22.155   8.810
 1919AUSL   AUS 1906   2.520  22.690   7.664
 1920AUSL   AUS 1907   2.217  22.690   7.337
 1921AUL    AUL 1908   2.369  22.382   7.501
 1922THSLK    S 1909   2.172  22.437   7.255
 1923ETHY    C1 1910   2.033  22.008   7.152
 1924ETHY    C1 1911   1.961  21.476   7.001
 1925THSLK    S 1912   2.489  22.425   7.750
 1926ETHY    C1 1913   2.502  21.974   7.852
 1927ETHY    C1 1914   2.610  21.448   8.003
 1928AUSL   AUS 1915   2.369  23.944   7.092
 1929AUSL   AUS 1916   2.785  23.874   7.236
 1930AUL    AUL 1917   2.672  24.158   7.010
 1931THSLK    S 1918   2.403  24.185   6.969
 1932ETHY    C1 1919   2.458  24.554   6.696
 1933ETHY    C1 1920   2.442  25.033   6.412
 1934THSLK    S 1921   2.972  24.009   7.077
 1935ETHY    C1 1922   3.285  24.276   6.868
 1936ETHY    C1 1923   3.600  24.673   6.634
 1937AUSL   AUS 1924   2.217  24.037   7.337
 1938AUSL   AUS 1925   2.104  23.780   6.990
 1939AUL    AUL 1926   2.065  24.158   7.010
 1940THSLK    S 1927   2.248  24.298   7.232
 1941ETHY    C1 1928   2.236  24.736   7.088
 1942ETHY    C1 1929   2.128  25.265   6.948
 1943THSLK    S 1930   1.977  23.923   6.799
 1944ETHY    C1 1931   1.819  24.163   6.437
 1945ETHY    C1 1932   1.571  24.498   6.067
 1946AUSL   AUS 1933   2.369  22.784   7.092
 1947AUSL   AUS 1934   1.952  22.853   7.236
 1948AUL    AUL 1935   2.065  22.569   7.010
 1949THSLK    S 1936   1.766  22.696   7.113
 1950ETHY    C1 1937   1.450  22.394   6.964
 1951ETHY    C1 1938   1.136  22.007   6.714
 1952THSLK    S 1939   2.335  22.520   7.004
 1953ETHY    C1 1940   2.276  22.115   6.791
 1954ETHY    C1 1941   2.293  21.645   6.490
 1955AUSL   AUS 1942   2.520  22.690   7.337
 1956AUSL   AUS 1943   2.634  22.947   6.990
 1957AUL    AUL 1944   2.672  22.569   7.010
 1958THSLK    S 1945   2.490  22.424   7.252
 1959ETHY    C1 1946   2.500  21.976   7.143
 1960ETHY    C1 1947   2.608  21.449   6.993
 1961THSLK    S 1948   2.762  22.758   6.839
 1962ETHY    C1 1949   2.914  22.440   6.541
 1963ETHY    C1 1950   3.163  22.126   6.152
 1964AUC    AUC 1951  43.552  36.751   7.501
 1965AUC    AUC 1952  43.797  36.751   7.349
 1966AUC    AUC 1953  43.797  36.751   7.652
 1967AUC    AUC 1954  43.306  36.751   7.349
 1968AUC    AUC 1955  43.306  36.751   7.652
 1969AUC    AUC 1956  43.400  36.996   7.501
 1970AUC    AUC 1957  43.703  36.996   7.501
 1971AUC    AUC 1958  43.400  36.505   7.501
 1972AUC    AUC 1959  43.703  36.505   7.501
 1973AUC    AUC 1960  43.552  36.599   7.746
 1974AUC    AUC 1961  43.552  36.902   7.746
 1975AUC    AUC 1962  43.552  36.599   7.255
 1976AUC    AUC 1963  43.552  36.902   7.255
 1977AUC    AUC 1964  44.043  36.751   7.197
 1978AUC    AUC 1965  44.043  36.751   7.501
 1979AUC    AUC 1966  44.043  36.751   7.804
 1980AUC    AUC 1967  43.061  36.751   7.197
 1981AUC    AUC 1968  43.061  36.751   7.501
 1982AUC    AUC 1969  43.061  36.751   7.804
 1983AUC    AUC 1970  43.248  37.241   7.501
 1984AUC    AUC 1971  43.552  37.241   7.501
 1985AUC    AUC 1972  43.855  37.241   7.501
 1986AUC    AUC 1973  43.248  36.260   7.501
 1987AUC    AUC 1974  43.552  36.260   7.501
 1988AUC    AUC 1975  43.855  36.260   7.501
 1989AUC    AUC 1976  43.552  36.447   7.991
 1990AUC    AUC 1977  43.552  36.751   7.991
 1991AUC    AUC 1978  43.552  37.054   7.991
 1992AUC    AUC 1979  43.552  36.447   7.010
 1993AUC    AUC 1980  43.552  36.751   7.010
 1994AUC    AUC 1981  43.552  37.054   7.010
 1995AUC    AUC 1982  43.797  36.599   7.898
 1996AUC    AUC 1983  43.797  36.902   7.898
 1997AUC    AUC 1984  43.797  36.599   7.103
 1998AUC    AUC 1985  43.797  36.902   7.103
 1999AUC    AUC 1986  43.306  36.599   7.898
 2000AUC    AUC 1987  43.306  36.902   7.898
 2001AUC    AUC 1988  43.306  36.599   7.103
 2002AUC    AUC 1989  43.306  36.902   7.103
 2003AUC    AUC 1990  43.949  36.996   7.349
 2004AUC    AUC 1991  43.949  36.996   7.652
 2005AUC    AUC 1992  43.155  36.996   7.349
 2006AUC    AUC 1993  43.155  36.996   7.652
 2007AUC    AUC 1994  43.949  36.505   7.349
 2008AUC    AUC 1995  43.949  36.505   7.652
 2009AUC    AUC 1996  43.155  36.505   7.349
 2010AUC    AUC 1997  43.155  36.505   7.652
 2011AUC    AUC 1998  43.400  37.148   7.746
 2012AUC    AUC 1999  43.703  37.148   7.746
 2013AUC    AUC 2000  43.400  36.354   7.746
 2014AUC    AUC 2001  43.703  36.354   7.746
 2015AUC    AUC 2002  43.400  37.148   7.255
 2016AUC    AUC 2003  43.703  37.148   7.255
 2017AUC    AUC 2004  43.400  36.354   7.255
 2018AUC    AUC 2005  43.703  36.354   7.255
 2019AUSL   AUS 2006  43.961  36.751   8.081
 2020AUSL   AUS 2007  43.817  36.334   8.011
 2021AUL    AUL 2008  44.043  36.447   8.295
 2022THSLK    S 2009  43.944  36.146   8.163
 2023ETHY    C1 2010  44.102  35.825   8.456
 2024ETHY    C1 2011  44.350  35.512   8.845
 2025THSLK    S 2012  44.066  36.711   8.333
 2026ETHY    C1 2013  44.309  36.644   8.720
 2027ETHY    C1 2014  44.602  36.663   9.194
 2028AUSL   AUS 2015  43.715  36.599   8.174
 2029AUSL   AUS 2016  43.388  36.902   8.174
 2030AUL    AUL 2017  43.552  36.751   8.482
 2031THSLK    S 2018  43.802  36.553   8.426
 2032ETHY    C1 2019  43.915  36.412   8.852
 2033ETHY    C1 2020  44.064  36.341   9.385
 2034THSLK    S 2021  43.300  36.871   8.439
 2035ETHY    C1 2022  43.195  36.882   8.889
 2036ETHY    C1 2023  43.045  36.990   9.415
 2037AUSL   AUS 2024  43.715  36.902   8.174
 2038AUSL   AUS 2025  44.062  37.015   7.917
 2039AUL    AUL 2026  44.043  37.054   8.295
 2040THSLK    S 2027  43.803  36.948   8.426
 2041ETHY    C1 2028  43.909  37.088   8.854
 2042ETHY    C1 2029  44.059  37.160   9.386
 2043THSLK    S 2030  44.242  37.131   8.082
 2044ETHY    C1 2031  44.587  37.266   8.358
 2045ETHY    C1 2032  44.962  37.520   8.683
 2046AUSL   AUS 2033  43.961  36.751   6.921
 2047AUSL   AUS 2034  43.817  37.167   6.990
 2048AUL    AUL 2035  44.043  37.054   6.706
 2049THSLK    S 2036  44.067  36.711   6.668
 2050ETHY    C1 2037  44.304  36.644   6.278
 2051ETHY    C1 2038  44.597  36.663   5.804
 2052THSLK    S 2039  43.992  37.295   6.816
 2053ETHY    C1 2040  44.223  37.513   6.480
 2054ETHY    C1 2041  44.449  37.855   6.102
 2055AUSL   AUS 2042  43.715  36.599   6.827
 2056AUSL   AUS 2043  44.062  36.486   7.084
 2057AUL    AUL 2044  44.043  36.447   6.706
 2058THSLK    S 2045  44.208  36.299   6.932
 2059ETHY    C1 2046  44.492  36.045   6.670
 2060ETHY    C1 2047  44.884  35.825   6.340
 2061THSLK    S 2048  43.803  36.553   6.575
 2062ETHY    C1 2049  43.909  36.413   6.147
 2063ETHY    C1 2050  44.059  36.341   5.615
 2064AUSL   AUS 2051  43.715  36.902   6.827
 2065AUSL   AUS 2052  43.388  36.599   6.827
 2066AUL    AUL 2053  43.552  36.751   6.519
 2067THSLK    S 2054  43.288  36.553   6.579
 2068ETHY    C1 2055  43.154  36.415   6.158
 2069ETHY    C1 2056  43.011  36.343   5.624
 2070THSLK    S 2057  43.816  36.870   6.566
 2071ETHY    C1 2058  43.943  36.879   6.121
 2072ETHY    C1 2059  44.087  36.988   5.594
 2073AUSL   AUS 2060  43.143  36.751   8.081
 2074AUSL   AUS 2061  43.287  37.167   8.011
 2075AUL    AUL 2062  43.061  37.054   8.295
 2076THSLK    S 2063  43.037  36.711   8.333
 2077ETHY    C1 2064  42.800  36.644   8.723
 2078ETHY    C1 2065  42.506  36.663   9.197
 2079THSLK    S 2066  43.159  37.309   8.202
 2080ETHY    C1 2067  43.006  37.554   8.563
 2081ETHY    C1 2068  42.758  37.889   8.933
 2082AUSL   AUS 2069  43.388  36.599   8.174
 2083AUSL   AUS 2070  43.042  36.486   7.917
 2084AUL    AUL 2071  43.061  36.447   8.295
 2085THSLK    S 2072  42.861  36.318   8.043
 2086ETHY    C1 2073  42.520  36.092   8.259
 2087ETHY    C1 2074  42.144  35.864   8.602
 2088THSLK    S 2075  43.288  36.553   8.422
 2089ETHY    C1 2076  43.160  36.414   8.844
 2090ETHY    C1 2077  43.016  36.342   9.378
 2091AUSL   AUS 2078  43.143  36.751   6.921
 2092AUSL   AUS 2079  43.287  36.334   6.990
 2093AUL    AUL 2080  43.061  36.447   6.706
 2094THSLK    S 2081  43.038  36.711   6.668
 2095ETHY    C1 2082  42.794  36.644   6.281
 2096ETHY    C1 2083  42.502  36.663   5.807
 2097THSLK    S 2084  43.113  36.160   6.855
 2098ETHY    C1 2085  42.876  35.867   6.587
 2099ETHY    C1 2086  42.651  35.546   6.190
 2100AUSL   AUS 2087  43.388  36.902   6.827
 2101AUSL   AUS 2088  43.042  37.015   7.084
 2102AUL    AUL 2089  43.061  37.054   6.706
 2103THSLK    S 2090  42.896  37.150   6.894
 2104ETHY    C1 2091  42.607  37.314   6.572
 2105ETHY    C1 2092  42.216  37.559   6.259
 2106THSLK    S 2093  43.301  36.871   6.562
 2107ETHY    C1 2094  43.188  36.881   6.114
 2108ETHY    C1 2095  43.040  36.989   5.587
 2109AUSL   AUS 2096  44.132  37.160   7.501
 2110AUSL   AUS 2097  44.062  37.015   7.084
 2111AUL    AUL 2098  44.346  37.241   7.197
 2112THSLK    S 2099  44.242  37.132   6.920
 2113ETHY    C1 2100  44.583  37.265   6.638
 2114ETHY    C1 2101  44.959  37.519   6.314
 2115THSLK    S 2102  44.405  37.231   7.501
 2116ETHY    C1 2103  44.829  37.415   7.497
 2117ETHY    C1 2104  45.293  37.724   7.498
 2118AUSL   AUS 2105  44.226  36.914   7.349
 2119AUSL   AUS 2106  44.226  36.587   7.652
 2120AUL    AUL 2107  44.533  36.751   7.501
 2121THSLK    S 2108  44.493  36.969   7.341
 2122ETHY    C1 2109  44.945  37.025   7.262
 2123ETHY    C1 2110  45.470  37.190   7.172
 2124THSLK    S 2111  44.472  36.455   7.659
 2125ETHY    C1 2112  44.889  36.270   7.728
 2126ETHY    C1 2113  45.425  36.142   7.820
 2127AUSL   AUS 2114  44.226  36.914   7.652
 2128AUSL   AUS 2115  43.968  37.261   7.765
 2129AUL    AUL 2116  44.346  37.241   7.804
 2130THSLK    S 2117  44.154  37.396   7.925
 2131ETHY    C1 2118  44.470  37.664   8.128
 2132ETHY    C1 2119  44.785  38.061   8.362
 2133THSLK    S 2120  44.493  36.969   7.661
 2134ETHY    C1 2121  44.945  37.025   7.733
 2135ETHY    C1 2122  45.471  37.190   7.824
 2136AUSL   AUS 2123  42.972  37.160   7.501
 2137AUSL   AUS 2124  43.042  37.015   7.917
 2138AUL    AUL 2125  42.758  37.241   7.804
 2139THSLK    S 2126  42.895  37.150   8.107
 2140ETHY    C1 2127  42.611  37.319   8.430
 2141ETHY    C1 2128  42.219  37.564   8.743
 2142THSLK    S 2129  42.741  37.298   7.501
 2143ETHY    C1 2130  42.387  37.596   7.497
 2144ETHY    C1 2131  41.903  37.873   7.498
 2145AUSL   AUS 2132  42.878  36.914   7.349
 2146AUSL   AUS 2133  43.135  37.261   7.236
 2147AUL    AUL 2134  42.758  37.241   7.197
 2148THSLK    S 2135  42.632  37.024   7.307
 2149ETHY    C1 2136  42.214  37.169   7.173
 2150ETHY    C1 2137  41.679  37.309   7.099
 2151THSLK    S 2138  43.004  37.430   7.056
 2152ETHY    C1 2139  42.780  37.752   6.812
 2153ETHY    C1 2140  42.440  38.134   6.589
 2154AUSL   AUS 2141  42.878  36.914   7.652
 2155AUSL   AUS 2142  42.878  36.587   7.349
 2156AUL    AUL 2143  42.570  36.751   7.501
 2157THSLK    S 2144  42.611  36.509   7.377
 2158ETHY    C1 2145  42.158  36.420   7.359
 2159ETHY    C1 2146  41.633  36.265   7.252
 2160THSLK    S 2147  42.632  37.024   7.694
 2161ETHY    C1 2148  42.215  37.175   7.825
 2162ETHY    C1 2149  41.680  37.313   7.900
 2163AUSL   AUS 2150  44.132  36.342   7.501
 2164AUSL   AUS 2151  44.062  36.486   7.917
 2165AUL    AUL 2152  44.346  36.260   7.804
 2166THSLK    S 2153  44.363  36.203   7.501
 2167ETHY    C1 2154  44.717  35.905   7.497
 2168ETHY    C1 2155  45.201  35.628   7.498
 2169THSLK    S 2156  44.208  36.299   8.070
 2170ETHY    C1 2157  44.496  36.044   8.326
 2171ETHY    C1 2158  44.888  35.824   8.657
 2172AUSL   AUS 2159  44.226  36.587   7.349
 2173AUSL   AUS 2160  43.968  36.240   7.236
 2174AUL    AUL 2161  44.346  36.260   7.197
 2175THSLK    S 2162  44.472  36.455   7.343
 2176ETHY    C1 2163  44.888  36.270   7.266
 2177ETHY    C1 2164  45.424  36.142   7.176
 2178THSLK    S 2165  44.100  36.049   7.092
 2179ETHY    C1 2166  44.321  35.688   6.907
 2180ETHY    C1 2167  44.662  35.318   6.667
 2181AUSL   AUS 2168  42.972  36.342   7.501
 2182AUSL   AUS 2169  43.042  36.486   7.084
 2183AUL    AUL 2170  42.758  36.260   7.197
 2184THSLK    S 2171  42.862  36.318   6.958
 2185ETHY    C1 2172  42.516  36.098   6.743
 2186ETHY    C1 2173  42.141  35.868   6.400
 2187THSLK    S 2174  42.699  36.270   7.501
 2188ETHY    C1 2175  42.275  36.087   7.497
 2189ETHY    C1 2176  41.811  35.777   7.498
 2190AUSL   AUS 2177  42.878  36.587   7.652
 2191AUSL   AUS 2178  43.135  36.240   7.765
 2192AUL    AUL 2179  42.758  36.260   7.804
 2193THSLK    S 2180  42.949  36.083   7.889
 2194ETHY    C1 2181  42.636  35.777   8.033
 2195ETHY    C1 2182  42.321  35.390   8.284
 2196THSLK    S 2183  42.611  36.510   7.625
 2197ETHY    C1 2184  42.159  36.414   7.639
 2198ETHY    C1 2185  41.634  36.261   7.746
 2199AUSL   AUS 2186  43.552  37.331   7.910
 2200AUSL   AUS 2187  43.135  37.261   7.765
 2201AUL    AUL 2188  43.248  37.545   7.991
 2202THSLK    S 2189  43.004  37.429   7.945
 2203ETHY    C1 2190  42.783  37.757   8.185
 2204ETHY    C1 2191  42.442  38.137   8.409
 2205THSLK    S 2192  43.586  37.572   8.033
 2206ETHY    C1 2193  43.644  37.944   8.301
 2207ETHY    C1 2194  43.628  38.423   8.586
 2208AUSL   AUS 2195  43.400  37.424   7.664
 2209AUSL   AUS 2196  43.703  37.424   7.337
 2210AUL    AUL 2197  43.552  37.732   7.501
 2211THSLK    S 2198  43.431  37.684   7.770
 2212ETHY    C1 2199  43.421  38.125   7.907
 2213ETHY    C1 2200  43.312  38.654   8.048
 2214THSLK    S 2201  43.748  37.673   7.235
 2215ETHY    C1 2202  43.886  38.091   7.097
 2216ETHY    C1 2203  43.958  38.626   6.955
 2217AUSL   AUS 2204  43.703  37.424   7.664
 2218AUSL   AUS 2205  43.817  37.167   8.011
 2219AUL    AUL 2206  43.855  37.545   7.991
 2220THSLK    S 2207  43.991  37.295   8.185
 2221ETHY    C1 2208  44.227  37.514   8.517
 2222ETHY    C1 2209  44.453  37.856   8.895
 2223THSLK    S 2210  43.748  37.672   7.767
 2224ETHY    C1 2211  43.887  38.093   7.898
 2225ETHY    C1 2212  43.960  38.627   8.041
 2226AUSL   AUS 2213  43.552  36.171   7.910
 2227AUSL   AUS 2214  43.968  36.240   7.765
 2228AUL    AUL 2215  43.855  35.956   7.991
 2229THSLK    S 2216  43.518  35.907   7.997
 2230ETHY    C1 2217  43.463  35.498   8.205
 2231ETHY    C1 2218  43.478  35.030   8.507
 2232THSLK    S 2219  44.100  36.049   7.910
 2233ETHY    C1 2220  44.323  35.687   8.089
 2234ETHY    C1 2221  44.664  35.317   8.330
 2235AUSL   AUS 2222  43.400  36.077   7.664
 2236AUSL   AUS 2223  43.287  36.334   8.011
 2237AUL    AUL 2224  43.248  35.956   7.991
 2238THSLK    S 2225  43.355  35.824   7.746
 2239ETHY    C1 2226  43.218  35.393   7.843
 2240ETHY    C1 2227  43.145  34.861   7.996
 2241THSLK    S 2228  43.112  36.160   8.146
 2242ETHY    C1 2229  42.881  35.862   8.413
 2243ETHY    C1 2230  42.654  35.542   8.810
 2244AUSL   AUS 2231  43.703  36.077   7.664
 2245AUSL   AUS 2232  43.400  36.077   7.337
 2246AUL    AUL 2233  43.552  35.769   7.501
 2247THSLK    S 2234  43.355  35.824   7.255
 2248ETHY    C1 2235  43.216  35.395   7.152
 2249ETHY    C1 2236  43.144  34.863   7.001
 2250THSLK    S 2237  43.672  35.812   7.750
 2251ETHY    C1 2238  43.685  35.361   7.852
 2252ETHY    C1 2239  43.793  34.835   8.003
 2253AUSL   AUS 2240  43.552  37.331   7.092
 2254AUSL   AUS 2241  43.968  37.261   7.236
 2255AUL    AUL 2242  43.855  37.545   7.010
 2256THSLK    S 2243  43.586  37.572   6.969
 2257ETHY    C1 2244  43.641  37.941   6.696
 2258ETHY    C1 2245  43.625  38.420   6.412
 2259THSLK    S 2246  44.155  37.396   7.077
 2260ETHY    C1 2247  44.468  37.663   6.868
 2261ETHY    C1 2248  44.783  38.060   6.634
 2262AUSL   AUS 2249  43.400  37.424   7.337
 2263AUSL   AUS 2250  43.287  37.167   6.990
 2264AUL    AUL 2251  43.248  37.545   7.010
 2265THSLK    S 2252  43.431  37.685   7.232
 2266ETHY    C1 2253  43.419  38.123   7.088
 2267ETHY    C1 2254  43.311  38.652   6.948
 2268THSLK    S 2255  43.160  37.310   6.799
 2269ETHY    C1 2256  43.002  37.550   6.437
 2270ETHY    C1 2257  42.754  37.885   6.067
 2271AUSL   AUS 2258  43.552  36.171   7.092
 2272AUSL   AUS 2259  43.135  36.240   7.236
 2273AUL    AUL 2260  43.248  35.956   7.010
 2274THSLK    S 2261  42.949  36.083   7.113
 2275ETHY    C1 2262  42.633  35.781   6.964
 2276ETHY    C1 2263  42.319  35.394   6.714
 2277THSLK    S 2264  43.518  35.907   7.004
 2278ETHY    C1 2265  43.459  35.502   6.791
 2279ETHY    C1 2266  43.476  35.032   6.490
 2280AUSL   AUS 2267  43.703  36.077   7.337
 2281AUSL   AUS 2268  43.817  36.334   6.990
 2282AUL    AUL 2269  43.855  35.956   7.010
 2283THSLK    S 2270  43.673  35.811   7.252
 2284ETHY    C1 2271  43.683  35.363   7.143
 2285ETHY    C1 2272  43.791  34.836   6.993
 2286THSLK    S 2273  43.945  36.145   6.839
 2287ETHY    C1 2274  44.097  35.827   6.541
 2288ETHY    C1 2275  44.346  35.513   6.152
 2289AUC    AUC 2276  27.085  14.995   7.501
 2290AUC    AUC 2277  27.330  14.995   7.349
 2291AUC    AUC 2278  27.330  14.995   7.652
 2292AUC    AUC 2279  26.839  14.995   7.349
 2293AUC    AUC 2280  26.839  14.995   7.652
 2294AUC    AUC 2281  26.933  15.240   7.501
 2295AUC    AUC 2282  27.236  15.240   7.501
 2296AUC    AUC 2283  26.933  14.749   7.501
 2297AUC    AUC 2284  27.236  14.749   7.501
 2298AUC    AUC 2285  27.085  14.843   7.746
 2299AUC    AUC 2286  27.085  15.146   7.746
 2300AUC    AUC 2287  27.085  14.843   7.255
 2301AUC    AUC 2288  27.085  15.146   7.255
 2302AUC    AUC 2289  27.576  14.995   7.197
 2303AUC    AUC 2290  27.576  14.995   7.501
 2304AUC    AUC 2291  27.576  14.995   7.804
 2305AUC    AUC 2292  26.594  14.995   7.197
 2306AUC    AUC 2293  26.594  14.995   7.501
 2307AUC    AUC 2294  26.594  14.995   7.804
 2308AUC    AUC 2295  26.781  15.485   7.501
 2309AUC    AUC 2296  27.085  15.485   7.501
 2310AUC    AUC 2297  27.388  15.485   7.501
 2311AUC    AUC 2298  26.781  14.504   7.501
 2312AUC    AUC 2299  27.085  14.504   7.501
 2313AUC    AUC 2300  27.388  14.504   7.501
 2314AUC    AUC 2301  27.085  14.691   7.991
 2315AUC    AUC 2302  27.085  14.995   7.991
 2316AUC    AUC 2303  27.085  15.298   7.991
 2317AUC    AUC 2304  27.085  14.691   7.010
 2318AUC    AUC 2305  27.085  14.995   7.010
 2319AUC    AUC 2306  27.085  15.298   7.010
 2320AUC    AUC 2307  27.330  14.843   7.898
 2321AUC    AUC 2308  27.330  15.146   7.898
 2322AUC    AUC 2309  27.330  14.843   7.103
 2323AUC    AUC 2310  27.330  15.146   7.103
 2324AUC    AUC 2311  26.839  14.843   7.898
 2325AUC    AUC 2312  26.839  15.146   7.898
 2326AUC    AUC 2313  26.839  14.843   7.103
 2327AUC    AUC 2314  26.839  15.146   7.103
 2328AUC    AUC 2315  27.482  15.240   7.349
 2329AUC    AUC 2316  27.482  15.240   7.652
 2330AUC    AUC 2317  26.688  15.240   7.349
 2331AUC    AUC 2318  26.688  15.240   7.652
 2332AUC    AUC 2319  27.482  14.749   7.349
 2333AUC    AUC 2320  27.482  14.749   7.652
 2334AUC    AUC 2321  26.688  14.749   7.349
 2335AUC    AUC 2322  26.688  14.749   7.652
 2336AUC    AUC 2323  26.933  15.392   7.746
 2337AUC    AUC 2324  27.236  15.392   7.746
 2338AUC    AUC 2325  26.933  14.598   7.746
 2339AUC    AUC 2326  27.236  14.598   7.746
 2340AUC    AUC 2327  26.933  15.392   7.255
 2341AUC    AUC 2328  27.236  15.392   7.255
 2342AUC    AUC 2329  26.933  14.598   7.255
 2343AUC    AUC 2330  27.236  14.598   7.255
 2344AUSL   AUS 2331  27.494  14.995   8.081
 2345AUSL   AUS 2332  27.350  14.578   8.011
 2346AUL    AUL 2333  27.576  14.691   8.295
 2347THSLK    S 2334  27.477  14.390   8.163
 2348ETHY    C1 2335  27.635  14.069   8.456
 2349ETHY    C1 2336  27.883  13.756   8.845
 2350THSLK    S 2337  27.599  14.955   8.333
 2351ETHY    C1 2338  27.842  14.888   8.720
 2352ETHY    C1 2339  28.135  14.907   9.194
 2353AUSL   AUS 2340  27.248  14.843   8.174
 2354AUSL   AUS 2341  26.921  15.146   8.174
 2355AUL    AUL 2342  27.085  14.995   8.482
 2356THSLK    S 2343  27.335  14.797   8.426
 2357ETHY    C1 2344  27.448  14.656   8.852
 2358ETHY    C1 2345  27.597  14.585   9.385
 2359THSLK    S 2346  26.833  15.115   8.439
 2360ETHY    C1 2347  26.728  15.126   8.889
 2361ETHY    C1 2348  26.578  15.234   9.415
 2362AUSL   AUS 2349  27.248  15.146   8.174
 2363AUSL   AUS 2350  27.595  15.259   7.917
 2364AUL    AUL 2351  27.576  15.298   8.295
 2365THSLK    S 2352  27.336  15.192   8.426
 2366ETHY    C1 2353  27.442  15.332   8.854
 2367ETHY    C1 2354  27.592  15.404   9.386
 2368THSLK    S 2355  27.775  15.375   8.082
 2369ETHY    C1 2356  28.120  15.510   8.358
 2370ETHY    C1 2357  28.495  15.764   8.683
 2371AUSL   AUS 2358  27.494  14.995   6.921
 2372AUSL   AUS 2359  27.350  15.411   6.990
 2373AUL    AUL 2360  27.576  15.298   6.706
 2374THSLK    S 2361  27.600  14.955   6.668
 2375ETHY    C1 2362  27.837  14.888   6.278
 2376ETHY    C1 2363  28.130  14.907   5.804
 2377THSLK    S 2364  27.525  15.539   6.816
 2378ETHY    C1 2365  27.756  15.757   6.480
 2379ETHY    C1 2366  27.982  16.099   6.102
 2380AUSL   AUS 2367  27.248  14.843   6.827
 2381AUSL   AUS 2368  27.595  14.730   7.084
 2382AUL    AUL 2369  27.576  14.691   6.706
 2383THSLK    S 2370  27.741  14.543   6.932
 2384ETHY    C1 2371  28.025  14.289   6.670
 2385ETHY    C1 2372  28.417  14.069   6.340
 2386THSLK    S 2373  27.336  14.797   6.575
 2387ETHY    C1 2374  27.442  14.657   6.147
 2388ETHY    C1 2375  27.592  14.585   5.615
 2389AUSL   AUS 2376  27.248  15.146   6.827
 2390AUSL   AUS 2377  26.921  14.843   6.827
 2391AUL    AUL 2378  27.085  14.995   6.519
 2392THSLK    S 2379  26.821  14.797   6.579
 2393ETHY    C1 2380  26.687  14.659   6.158
 2394ETHY    C1 2381  26.544  14.587   5.624
 2395THSLK    S 2382  27.349  15.114   6.566
 2396ETHY    C1 2383  27.476  15.123   6.121
 2397ETHY    C1 2384  27.620  15.232   5.594
 2398AUSL   AUS 2385  26.676  14.995   8.081
 2399AUSL   AUS 2386  26.820  15.411   8.011
 2400AUL    AUL 2387  26.594  15.298   8.295
 2401THSLK    S 2388  26.570  14.955   8.333
 2402ETHY    C1 2389  26.333  14.888   8.723
 2403ETHY    C1 2390  26.039  14.907   9.197
 2404THSLK    S 2391  26.692  15.553   8.202
 2405ETHY    C1 2392  26.539  15.798   8.563
 2406ETHY    C1 2393  26.291  16.133   8.933
 2407AUSL   AUS 2394  26.921  14.843   8.174
 2408AUSL   AUS 2395  26.575  14.730   7.917
 2409AUL    AUL 2396  26.594  14.691   8.295
 2410THSLK    S 2397  26.394  14.562   8.043
 2411ETHY    C1 2398  26.053  14.336   8.259
 2412ETHY    C1 2399  25.677  14.108   8.602
 2413THSLK    S 2400  26.821  14.797   8.422
 2414ETHY    C1 2401  26.693  14.658   8.844
 2415ETHY    C1 2402  26.549  14.586   9.378
 2416AUSL   AUS 2403  26.676  14.995   6.921
 2417AUSL   AUS 2404  26.820  14.578   6.990
 2418AUL    AUL 2405  26.594  14.691   6.706
 2419THSLK    S 2406  26.571  14.955   6.668
 2420ETHY    C1 2407  26.327  14.888   6.281
 2421ETHY    C1 2408  26.035  14.907   5.807
 2422THSLK    S 2409  26.646  14.404   6.855
 2423ETHY    C1 2410  26.409  14.111   6.587
 2424ETHY    C1 2411  26.184  13.790   6.190
 2425AUSL   AUS 2412  26.921  15.146   6.827
 2426AUSL   AUS 2413  26.575  15.259   7.084
 2427AUL    AUL 2414  26.594  15.298   6.706
 2428THSLK    S 2415  26.429  15.394   6.894
 2429ETHY    C1 2416  26.140  15.558   6.572
 2430ETHY    C1 2417  25.749  15.803   6.259
 2431THSLK    S 2418  26.834  15.115   6.562
 2432ETHY    C1 2419  26.721  15.125   6.114
 2433ETHY    C1 2420  26.573  15.233   5.587
 2434AUSL   AUS 2421  27.665  15.404   7.501
 2435AUSL   AUS 2422  27.595  15.259   7.084
 2436AUL    AUL 2423  27.879  15.485   7.197
 2437THSLK    S 2424  27.775  15.376   6.920
 2438ETHY    C1 2425  28.116  15.509   6.638
 2439ETHY    C1 2426  28.492  15.763   6.314
 2440THSLK    S 2427  27.938  15.475   7.501
 2441ETHY    C1 2428  28.362  15.659   7.497
 2442ETHY    C1 2429  28.826  15.968   7.498
 2443AUSL   AUS 2430  27.759  15.158   7.349
 2444AUSL   AUS 2431  27.759  14.831   7.652
 2445AUL    AUL 2432  28.066  14.995   7.501
 2446THSLK    S 2433  28.026  15.213   7.341
 2447ETHY    C1 2434  28.478  15.269   7.262
 2448ETHY    C1 2435  29.003  15.434   7.172
 2449THSLK    S 2436  28.005  14.699   7.659
 2450ETHY    C1 2437  28.422  14.514   7.728
 2451ETHY    C1 2438  28.958  14.386   7.820
 2452AUSL   AUS 2439  27.759  15.158   7.652
 2453AUSL   AUS 2440  27.501  15.505   7.765
 2454AUL    AUL 2441  27.879  15.485   7.804
 2455THSLK    S 2442  27.687  15.640   7.925
 2456ETHY    C1 2443  28.003  15.908   8.128
 2457ETHY    C1 2444  28.318  16.305   8.362
 2458THSLK    S 2445  28.026  15.213   7.661
 2459ETHY    C1 2446  28.478  15.269   7.733
 2460ETHY    C1 2447  29.004  15.434   7.824
 2461AUSL   AUS 2448  26.505  15.404   7.501
 2462AUSL   AUS 2449  26.575  15.259   7.917
 2463AUL    AUL 2450  26.291  15.485   7.804
 2464THSLK    S 2451  26.428  15.394   8.107
 2465ETHY    C1 2452  26.144  15.563   8.430
 2466ETHY    C1 2453  25.752  15.808   8.743
 2467THSLK    S 2454  26.274  15.542   7.501
 2468ETHY    C1 2455  25.920  15.840   7.497
 2469ETHY    C1 2456  25.436  16.117   7.498
 2470AUSL   AUS 2457  26.411  15.158   7.349
 2471AUSL   AUS 2458  26.668  15.505   7.236
 2472AUL    AUL 2459  26.291  15.485   7.197
 2473THSLK    S 2460  26.165  15.268   7.307
 2474ETHY    C1 2461  25.747  15.413   7.173
 2475ETHY    C1 2462  25.212  15.553   7.099
 2476THSLK    S 2463  26.537  15.674   7.056
 2477ETHY    C1 2464  26.313  15.996   6.812
 2478ETHY    C1 2465  25.973  16.378   6.589
 2479AUSL   AUS 2466  26.411  15.158   7.652
 2480AUSL   AUS 2467  26.411  14.831   7.349
 2481AUL    AUL 2468  26.103  14.995   7.501
 2482THSLK    S 2469  26.144  14.753   7.377
 2483ETHY    C1 2470  25.691  14.664   7.359
 2484ETHY    C1 2471  25.166  14.509   7.252
 2485THSLK    S 2472  26.165  15.268   7.694
 2486ETHY    C1 2473  25.748  15.419   7.825
 2487ETHY    C1 2474  25.213  15.557   7.900
 2488AUSL   AUS 2475  27.665  14.586   7.501
 2489AUSL   AUS 2476  27.595  14.730   7.917
 2490AUL    AUL 2477  27.879  14.504   7.804
 2491THSLK    S 2478  27.896  14.447   7.501
 2492ETHY    C1 2479  28.250  14.149   7.497
 2493ETHY    C1 2480  28.734  13.872   7.498
 2494THSLK    S 2481  27.741  14.543   8.070
 2495ETHY    C1 2482  28.029  14.288   8.326
 2496ETHY    C1 2483  28.421  14.068   8.657
 2497AUSL   AUS 2484  27.759  14.831   7.349
 2498AUSL   AUS 2485  27.501  14.484   7.236
 2499AUL    AUL 2486  27.879  14.504   7.197
 2500THSLK    S 2487  28.005  14.699   7.343
 2501ETHY    C1 2488  28.421  14.514   7.266
 2502ETHY    C1 2489  28.957  14.386   7.176
 2503THSLK    S 2490  27.633  14.293   7.092
 2504ETHY    C1 2491  27.854  13.932   6.907
 2505ETHY    C1 2492  28.195  13.562   6.667
 2506AUSL   AUS 2493  26.505  14.586   7.501
 2507AUSL   AUS 2494  26.575  14.730   7.084
 2508AUL    AUL 2495  26.291  14.504   7.197
 2509THSLK    S 2496  26.395  14.562   6.958
 2510ETHY    C1 2497  26.049  14.342   6.743
 2511ETHY    C1 2498  25.674  14.112   6.400
 2512THSLK    S 2499  26.232  14.514   7.501
 2513ETHY    C1 2500  25.808  14.331   7.497
 2514ETHY    C1 2501  25.344  14.021   7.498
 2515AUSL   AUS 2502  26.411  14.831   7.652
 2516AUSL   AUS 2503  26.668  14.484   7.765
 2517AUL    AUL 2504  26.291  14.504   7.804
 2518THSLK    S 2505  26.482  14.327   7.889
 2519ETHY    C1 2506  26.169  14.021   8.033
 2520ETHY    C1 2507  25.854  13.634   8.284
 2521THSLK    S 2508  26.144  14.754   7.625
 2522ETHY    C1 2509  25.692  14.658   7.639
 2523ETHY    C1 2510  25.167  14.505   7.746
 2524AUSL   AUS 2511  27.085  15.575   7.910
 2525AUSL   AUS 2512  26.668  15.505   7.765
 2526AUL    AUL 2513  26.781  15.789   7.991
 2527THSLK    S 2514  26.537  15.673   7.945
 2528ETHY    C1 2515  26.316  16.001   8.185
 2529ETHY    C1 2516  25.975  16.381   8.409
 2530THSLK    S 2517  27.119  15.816   8.033
 2531ETHY    C1 2518  27.177  16.188   8.301
 2532ETHY    C1 2519  27.161  16.667   8.586
 2533AUSL   AUS 2520  26.933  15.668   7.664
 2534AUSL   AUS 2521  27.236  15.668   7.337
 2535AUL    AUL 2522  27.085  15.976   7.501
 2536THSLK    S 2523  26.964  15.928   7.770
 2537ETHY    C1 2524  26.954  16.369   7.907
 2538ETHY    C1 2525  26.845  16.898   8.048
 2539THSLK    S 2526  27.281  15.917   7.235
 2540ETHY    C1 2527  27.419  16.335   7.097
 2541ETHY    C1 2528  27.491  16.870   6.955
 2542AUSL   AUS 2529  27.236  15.668   7.664
 2543AUSL   AUS 2530  27.350  15.411   8.011
 2544AUL    AUL 2531  27.388  15.789   7.991
 2545THSLK    S 2532  27.524  15.539   8.185
 2546ETHY    C1 2533  27.760  15.758   8.517
 2547ETHY    C1 2534  27.986  16.100   8.895
 2548THSLK    S 2535  27.281  15.916   7.767
 2549ETHY    C1 2536  27.420  16.337   7.898
 2550ETHY    C1 2537  27.493  16.871   8.041
 2551AUSL   AUS 2538  27.085  14.415   7.910
 2552AUSL   AUS 2539  27.501  14.484   7.765
 2553AUL    AUL 2540  27.388  14.200   7.991
 2554THSLK    S 2541  27.051  14.151   7.997
 2555ETHY    C1 2542  26.996  13.742   8.205
 2556ETHY    C1 2543  27.011  13.274   8.507
 2557THSLK    S 2544  27.633  14.293   7.910
 2558ETHY    C1 2545  27.856  13.931   8.089
 2559ETHY    C1 2546  28.197  13.561   8.330
 2560AUSL   AUS 2547  26.933  14.321   7.664
 2561AUSL   AUS 2548  26.820  14.578   8.011
 2562AUL    AUL 2549  26.781  14.200   7.991
 2563THSLK    S 2550  26.888  14.068   7.746
 2564ETHY    C1 2551  26.751  13.637   7.843
 2565ETHY    C1 2552  26.678  13.105   7.996
 2566THSLK    S 2553  26.645  14.404   8.146
 2567ETHY    C1 2554  26.414  14.106   8.413
 2568ETHY    C1 2555  26.187  13.786   8.810
 2569AUSL   AUS 2556  27.236  14.321   7.664
 2570AUSL   AUS 2557  26.933  14.321   7.337
 2571AUL    AUL 2558  27.085  14.013   7.501
 2572THSLK    S 2559  26.888  14.068   7.255
 2573ETHY    C1 2560  26.749  13.639   7.152
 2574ETHY    C1 2561  26.677  13.107   7.001
 2575THSLK    S 2562  27.205  14.056   7.750
 2576ETHY    C1 2563  27.218  13.605   7.852
 2577ETHY    C1 2564  27.326  13.079   8.003
 2578AUSL   AUS 2565  27.085  15.575   7.092
 2579AUSL   AUS 2566  27.501  15.505   7.236
 2580AUL    AUL 2567  27.388  15.789   7.010
 2581THSLK    S 2568  27.119  15.816   6.969
 2582ETHY    C1 2569  27.174  16.185   6.696
 2583ETHY    C1 2570  27.158  16.664   6.412
 2584THSLK    S 2571  27.688  15.640   7.077
 2585ETHY    C1 2572  28.001  15.907   6.868
 2586ETHY    C1 2573  28.316  16.304   6.634
 2587AUSL   AUS 2574  26.933  15.668   7.337
 2588AUSL   AUS 2575  26.820  15.411   6.990
 2589AUL    AUL 2576  26.781  15.789   7.010
 2590THSLK    S 2577  26.964  15.929   7.232
 2591ETHY    C1 2578  26.952  16.367   7.088
 2592ETHY    C1 2579  26.844  16.896   6.948
 2593THSLK    S 2580  26.693  15.554   6.799
 2594ETHY    C1 2581  26.535  15.794   6.437
 2595ETHY    C1 2582  26.287  16.129   6.067
 2596AUSL   AUS 2583  27.085  14.415   7.092
 2597AUSL   AUS 2584  26.668  14.484   7.236
 2598AUL    AUL 2585  26.781  14.200   7.010
 2599THSLK    S 2586  26.482  14.327   7.113
 2600ETHY    C1 2587  26.166  14.025   6.964
 2601ETHY    C1 2588  25.852  13.638   6.714
 2602THSLK    S 2589  27.051  14.151   7.004
 2603ETHY    C1 2590  26.992  13.746   6.791
 2604ETHY    C1 2591  27.009  13.276   6.490
 2605AUSL   AUS 2592  27.236  14.321   7.337
 2606AUSL   AUS 2593  27.350  14.578   6.990
 2607AUL    AUL 2594  27.388  14.200   7.010
 2608THSLK    S 2595  27.206  14.055   7.252
 2609ETHY    C1 2596  27.216  13.607   7.143
 2610ETHY    C1 2597  27.324  13.080   6.993
 2611THSLK    S 2598  27.478  14.389   6.839
 2612ETHY    C1 2599  27.630  14.071   6.541
 2613ETHY    C1 2600  27.879  13.757   6.152
 2614AUC    AUC 2601  38.032  11.934   7.501
 2615AUC    AUC 2602  38.277  11.934   7.349
 2616AUC    AUC 2603  38.277  11.934   7.652
 2617AUC    AUC 2604  37.786  11.934   7.349
 2618AUC    AUC 2605  37.786  11.934   7.652
 2619AUC    AUC 2606  37.880  12.179   7.501
 2620AUC    AUC 2607  38.183  12.179   7.501
 2621AUC    AUC 2608  37.880  11.688   7.501
 2622AUC    AUC 2609  38.183  11.688   7.501
 2623AUC    AUC 2610  38.032  11.782   7.746
 2624AUC    AUC 2611  38.032  12.085   7.746
 2625AUC    AUC 2612  38.032  11.782   7.255
 2626AUC    AUC 2613  38.032  12.085   7.255
 2627AUC    AUC 2614  38.523  11.934   7.197
 2628AUC    AUC 2615  38.523  11.934   7.501
 2629AUC    AUC 2616  38.523  11.934   7.804
 2630AUC    AUC 2617  37.541  11.934   7.197
 2631AUC    AUC 2618  37.541  11.934   7.501
 2632AUC    AUC 2619  37.541  11.934   7.804
 2633AUC    AUC 2620  37.728  12.424   7.501
 2634AUC    AUC 2621  38.032  12.424   7.501
 2635AUC    AUC 2622  38.335  12.424   7.501
 2636AUC    AUC 2623  37.728  11.443   7.501
 2637AUC    AUC 2624  38.032  11.443   7.501
 2638AUC    AUC 2625  38.335  11.443   7.501
 2639AUC    AUC 2626  38.032  11.630   7.991
 2640AUC    AUC 2627  38.032  11.934   7.991
 2641AUC    AUC 2628  38.032  12.237   7.991
 2642AUC    AUC 2629  38.032  11.630   7.010
 2643AUC    AUC 2630  38.032  11.934   7.010
 2644AUC    AUC 2631  38.032  12.237   7.010
 2645AUC    AUC 2632  38.277  11.782   7.898
 2646AUC    AUC 2633  38.277  12.085   7.898
 2647AUC    AUC 2634  38.277  11.782   7.103
 2648AUC    AUC 2635  38.277  12.085   7.103
 2649AUC    AUC 2636  37.786  11.782   7.898
 2650AUC    AUC 2637  37.786  12.085   7.898
 2651AUC    AUC 2638  37.786  11.782   7.103
 2652AUC    AUC 2639  37.786  12.085   7.103
 2653AUC    AUC 2640  38.429  12.179   7.349
 2654AUC    AUC 2641  38.429  12.179   7.652
 2655AUC    AUC 2642  37.635  12.179   7.349
 2656AUC    AUC 2643  37.635  12.179   7.652
 2657AUC    AUC 2644  38.429  11.688   7.349
 2658AUC    AUC 2645  38.429  11.688   7.652
 2659AUC    AUC 2646  37.635  11.688   7.349
 2660AUC    AUC 2647  37.635  11.688   7.652
 2661AUC    AUC 2648  37.880  12.331   7.746
 2662AUC    AUC 2649  38.183  12.331   7.746
 2663AUC    AUC 2650  37.880  11.537   7.746
 2664AUC    AUC 2651  38.183  11.537   7.746
 2665AUC    AUC 2652  37.880  12.331   7.255
 2666AUC    AUC 2653  38.183  12.331   7.255
 2667AUC    AUC 2654  37.880  11.537   7.255
 2668AUC    AUC 2655  38.183  11.537   7.255
 2669AUSL   AUS 2656  38.441  11.934   8.081
 2670AUSL   AUS 2657  38.297  11.517   8.011
 2671AUL    AUL 2658  38.523  11.630   8.295
 2672THSLK    S 2659  38.424  11.329   8.163
 2673ETHY    C1 2660  38.582  11.008   8.456
 2674ETHY    C1 2661  38.830  10.695   8.845
 2675THSLK    S 2662  38.546  11.894   8.333
 2676ETHY    C1 2663  38.789  11.827   8.720
 2677ETHY    C1 2664  39.082  11.846   9.194
 2678AUSL   AUS 2665  38.195  11.782   8.174
 2679AUSL   AUS 2666  37.868  12.085   8.174
 2680AUL    AUL 2667  38.032  11.934   8.482
 2681THSLK    S 2668  38.282  11.736   8.426
 2682ETHY    C1 2669  38.395  11.595   8.852
 2683ETHY    C1 2670  38.544  11.524   9.385
 2684THSLK    S 2671  37.780  12.054   8.439
 2685ETHY    C1 2672  37.675  12.065   8.889
 2686ETHY    C1 2673  37.525  12.173   9.415
 2687AUSL   AUS 2674  38.195  12.085   8.174
 2688AUSL   AUS 2675  38.542  12.198   7.917
 2689AUL    AUL 2676  38.523  12.237   8.295
 2690THSLK    S 2677  38.283  12.131   8.426
 2691ETHY    C1 2678  38.389  12.271   8.854
 2692ETHY    C1 2679  38.539  12.343   9.386
 2693THSLK    S 2680  38.722  12.314   8.082
 2694ETHY    C1 2681  39.067  12.449   8.358
 2695ETHY    C1 2682  39.442  12.703   8.683
 2696AUSL   AUS 2683  38.441  11.934   6.921
 2697AUSL   AUS 2684  38.297  12.350   6.990
 2698AUL    AUL 2685  38.523  12.237   6.706
 2699THSLK    S 2686  38.547  11.894   6.668
 2700ETHY    C1 2687  38.784  11.827   6.278
 2701ETHY    C1 2688  39.077  11.846   5.804
 2702THSLK    S 2689  38.472  12.478   6.816
 2703ETHY    C1 2690  38.703  12.696   6.480
 2704ETHY    C1 2691  38.929  13.038   6.102
 2705AUSL   AUS 2692  38.195  11.782   6.827
 2706AUSL   AUS 2693  38.542  11.669   7.084
 2707AUL    AUL 2694  38.523  11.630   6.706
 2708THSLK    S 2695  38.688  11.482   6.932
 2709ETHY    C1 2696  38.972  11.228   6.670
 2710ETHY    C1 2697  39.364  11.008   6.340
 2711THSLK    S 2698  38.283  11.736   6.575
 2712ETHY    C1 2699  38.389  11.596   6.147
 2713ETHY    C1 2700  38.539  11.524   5.615
 2714AUSL   AUS 2701  38.195  12.085   6.827
 2715AUSL   AUS 2702  37.868  11.782   6.827
 2716AUL    AUL 2703  38.032  11.934   6.519
 2717THSLK    S 2704  37.768  11.736   6.579
 2718ETHY    C1 2705  37.634  11.598   6.158
 2719ETHY    C1 2706  37.491  11.526   5.624
 2720THSLK    S 2707  38.296  12.053   6.566
 2721ETHY    C1 2708  38.423  12.062   6.121
 2722ETHY    C1 2709  38.567  12.171   5.594
 2723AUSL   AUS 2710  37.623  11.934   8.081
 2724AUSL   AUS 2711  37.767  12.350   8.011
 2725AUL    AUL 2712  37.541  12.237   8.295
 2726THSLK    S 2713  37.517  11.894   8.333
 2727ETHY    C1 2714  37.280  11.827   8.723
 2728ETHY    C1 2715  36.986  11.846   9.197
 2729THSLK    S 2716  37.639  12.492   8.202
 2730ETHY    C1 2717  37.486  12.737   8.563
 2731ETHY    C1 2718  37.238  13.072   8.933
 2732AUSL   AUS 2719  37.868  11.782   8.174
 2733AUSL   AUS 2720  37.522  11.669   7.917
 2734AUL    AUL 2721  37.541  11.630   8.295
 2735THSLK    S 2722  37.341  11.501   8.043
 2736ETHY    C1 2723  37.000  11.275   8.259
 2737ETHY    C1 2724  36.624  11.047   8.602
 2738THSLK    S 2725  37.768  11.736   8.422
 2739ETHY    C1 2726  37.640  11.597   8.844
 2740ETHY    C1 2727  37.496  11.525   9.378
 2741AUSL   AUS 2728  37.623  11.934   6.921
 2742AUSL   AUS 2729  37.767  11.517   6.990
 2743AUL    AUL 2730  37.541  11.630   6.706
 2744THSLK    S 2731  37.518  11.894   6.668
 2745ETHY    C1 2732  37.274  11.827   6.281
 2746ETHY    C1 2733  36.982  11.846   5.807
 2747THSLK    S 2734  37.593  11.343   6.855
 2748ETHY    C1 2735  37.356  11.050   6.587
 2749ETHY    C1 2736  37.131  10.729   6.190
 2750AUSL   AUS 2737  37.868  12.085   6.827
 2751AUSL   AUS 2738  37.522  12.198   7.084
 2752AUL    AUL 2739  37.541  12.237   6.706
 2753THSLK    S 2740  37.376  12.333   6.894
 2754ETHY    C1 2741  37.087  12.497   6.572
 2755ETHY    C1 2742  36.696  12.742   6.259
 2756THSLK    S 2743  37.781  12.054   6.562
 2757ETHY    C1 2744  37.668  12.064   6.114
 2758ETHY    C1 2745  37.520  12.172   5.587
 2759AUSL   AUS 2746  38.612  12.343   7.501
 2760AUSL   AUS 2747  38.542  12.198   7.084
 2761AUL    AUL 2748  38.826  12.424   7.197
 2762THSLK    S 2749  38.722  12.315   6.920
 2763ETHY    C1 2750  39.063  12.448   6.638
 2764ETHY    C1 2751  39.439  12.702   6.314
 2765THSLK    S 2752  38.885  12.414   7.501
 2766ETHY    C1 2753  39.309  12.598   7.497
 2767ETHY    C1 2754  39.773  12.907   7.498
 2768AUSL   AUS 2755  38.706  12.097   7.349
 2769AUSL   AUS 2756  38.706  11.770   7.652
 2770AUL    AUL 2757  39.013  11.934   7.501
 2771THSLK    S 2758  38.973  12.152   7.341
 2772ETHY    C1 2759  39.425  12.208   7.262
 2773ETHY    C1 2760  39.950  12.373   7.172
 2774THSLK    S 2761  38.952  11.638   7.659
 2775ETHY    C1 2762  39.369  11.453   7.728
 2776ETHY    C1 2763  39.905  11.325   7.820
 2777AUSL   AUS 2764  38.706  12.097   7.652
 2778AUSL   AUS 2765  38.448  12.444   7.765
 2779AUL    AUL 2766  38.826  12.424   7.804
 2780THSLK    S 2767  38.634  12.579   7.925
 2781ETHY    C1 2768  38.950  12.847   8.128
 2782ETHY    C1 2769  39.265  13.244   8.362
 2783THSLK    S 2770  38.973  12.152   7.661
 2784ETHY    C1 2771  39.425  12.208   7.733
 2785ETHY    C1 2772  39.951  12.373   7.824
 2786AUSL   AUS 2773  37.452  12.343   7.501
 2787AUSL   AUS 2774  37.522  12.198   7.917
 2788AUL    AUL 2775  37.238  12.424   7.804
 2789THSLK    S 2776  37.375  12.333   8.107
 2790ETHY    C1 2777  37.091  12.502   8.430
 2791ETHY    C1 2778  36.699  12.747   8.743
 2792THSLK    S 2779  37.221  12.481   7.501
 2793ETHY    C1 2780  36.867  12.779   7.497
 2794ETHY    C1 2781  36.383  13.056   7.498
 2795AUSL   AUS 2782  37.358  12.097   7.349
 2796AUSL   AUS 2783  37.615  12.444   7.236
 2797AUL    AUL 2784  37.238  12.424   7.197
 2798THSLK    S 2785  37.112  12.207   7.307
 2799ETHY    C1 2786  36.694  12.352   7.173
 2800ETHY    C1 2787  36.159  12.492   7.099
 2801THSLK    S 2788  37.484  12.613   7.056
 2802ETHY    C1 2789  37.260  12.935   6.812
 2803ETHY    C1 2790  36.920  13.317   6.589
 2804AUSL   AUS 2791  37.358  12.097   7.652
 2805AUSL   AUS 2792  37.358  11.770   7.349
 2806AUL    AUL 2793  37.050  11.934   7.501
 2807THSLK    S 2794  37.091  11.692   7.377
 2808ETHY    C1 2795  36.638  11.603   7.359
 2809ETHY    C1 2796  36.113  11.448   7.252
 2810THSLK    S 2797  37.112  12.207   7.694
 2811ETHY    C1 2798  36.695  12.358   7.825
 2812ETHY    C1 2799  36.160  12.496   7.900
 2813AUSL   AUS 2800  38.612  11.525   7.501
 2814AUSL   AUS 2801  38.542  11.669   7.917
 2815AUL    AUL 2802  38.826  11.443   7.804
 2816THSLK    S 2803  38.843  11.386   7.501
 2817ETHY    C1 2804  39.197  11.088   7.497
 2818ETHY    C1 2805  39.681  10.811   7.498
 2819THSLK    S 2806  38.688  11.482   8.070
 2820ETHY    C1 2807  38.976  11.227   8.326
 2821ETHY    C1 2808  39.368  11.007   8.657
 2822AUSL   AUS 2809  38.706  11.770   7.349
 2823AUSL   AUS 2810  38.448  11.423   7.236
 2824AUL    AUL 2811  38.826  11.443   7.197
 2825THSLK    S 2812  38.952  11.638   7.343
 2826ETHY    C1 2813  39.368  11.453   7.266
 2827ETHY    C1 2814  39.904  11.325   7.176
 2828THSLK    S 2815  38.580  11.232   7.092
 2829ETHY    C1 2816  38.801  10.871   6.907
 2830ETHY    C1 2817  39.142  10.501   6.667
 2831AUSL   AUS 2818  37.452  11.525   7.501
 2832AUSL   AUS 2819  37.522  11.669   7.084
 2833AUL    AUL 2820  37.238  11.443   7.197
 2834THSLK    S 2821  37.342  11.501   6.958
 2835ETHY    C1 2822  36.996  11.281   6.743
 2836ETHY    C1 2823  36.621  11.051   6.400
 2837THSLK    S 2824  37.179  11.453   7.501
 2838ETHY    C1 2825  36.755  11.270   7.497
 2839ETHY    C1 2826  36.291  10.960   7.498
 2840AUSL   AUS 2827  37.358  11.770   7.652
 2841AUSL   AUS 2828  37.615  11.423   7.765
 2842AUL    AUL 2829  37.238  11.443   7.804
 2843THSLK    S 2830  37.429  11.266   7.889
 2844ETHY    C1 2831  37.116  10.960   8.033
 2845ETHY    C1 2832  36.801  10.573   8.284
 2846THSLK    S 2833  37.091  11.693   7.625
 2847ETHY    C1 2834  36.639  11.597   7.639
 2848ETHY    C1 2835  36.114  11.444   7.746
 2849AUSL   AUS 2836  38.032  12.514   7.910
 2850AUSL   AUS 2837  37.615  12.444   7.765
 2851AUL    AUL 2838  37.728  12.728   7.991
 2852THSLK    S 2839  37.484  12.612   7.945
 2853ETHY    C1 2840  37.263  12.940   8.185
 2854ETHY    C1 2841  36.922  13.320   8.409
 2855THSLK    S 2842  38.066  12.755   8.033
 2856ETHY    C1 2843  38.124  13.127   8.301
 2857ETHY    C1 2844  38.108  13.606   8.586
 2858AUSL   AUS 2845  37.880  12.607   7.664
 2859AUSL   AUS 2846  38.183  12.607   7.337
 2860AUL    AUL 2847  38.032  12.915   7.501
 2861THSLK    S 2848  37.911  12.867   7.770
 2862ETHY    C1 2849  37.901  13.308   7.907
 2863ETHY    C1 2850  37.792  13.837   8.048
 2864THSLK    S 2851  38.228  12.856   7.235
 2865ETHY    C1 2852  38.366  13.274   7.097
 2866ETHY    C1 2853  38.438  13.809   6.955
 2867AUSL   AUS 2854  38.183  12.607   7.664
 2868AUSL   AUS 2855  38.297  12.350   8.011
 2869AUL    AUL 2856  38.335  12.728   7.991
 2870THSLK    S 2857  38.471  12.478   8.185
 2871ETHY    C1 2858  38.707  12.697   8.517
 2872ETHY    C1 2859  38.933  13.039   8.895
 2873THSLK    S 2860  38.228  12.855   7.767
 2874ETHY    C1 2861  38.367  13.276   7.898
 2875ETHY    C1 2862  38.440  13.810   8.041
 2876AUSL   AUS 2863  38.032  11.354   7.910
 2877AUSL   AUS 2864  38.448  11.423   7.765
 2878AUL    AUL 2865  38.335  11.139   7.991
 2879THSLK    S 2866  37.998  11.090   7.997
 2880ETHY    C1 2867  37.943  10.681   8.205
 2881ETHY    C1 2868  37.958  10.213   8.507
 2882THSLK    S 2869  38.580  11.232   7.910
 2883ETHY    C1 2870  38.803  10.870   8.089
 2884ETHY    C1 2871  39.144  10.500   8.330
 2885AUSL   AUS 2872  37.880  11.260   7.664
 2886AUSL   AUS 2873  37.767  11.517   8.011
 2887AUL    AUL 2874  37.728  11.139   7.991
 2888THSLK    S 2875  37.835  11.007   7.746
 2889ETHY    C1 2876  37.698  10.576   7.843
 2890ETHY    C1 2877  37.625  10.044   7.996
 2891THSLK    S 2878  37.592  11.343   8.146
 2892ETHY    C1 2879  37.361  11.045   8.413
 2893ETHY    C1 2880  37.134  10.725   8.810
 2894AUSL   AUS 2881  38.183  11.260   7.664
 2895AUSL   AUS 2882  37.880  11.260   7.337
 2896AUL    AUL 2883  38.032  10.952   7.501
 2897THSLK    S 2884  37.835  11.007   7.255
 2898ETHY    C1 2885  37.696  10.578   7.152
 2899ETHY    C1 2886  37.624  10.046   7.001
 2900THSLK    S 2887  38.152  10.995   7.750
 2901ETHY    C1 2888  38.165  10.544   7.852
 2902ETHY    C1 2889  38.273  10.018   8.003
 2903AUSL   AUS 2890  38.032  12.514   7.092
 2904AUSL   AUS 2891  38.448  12.444   7.236
 2905AUL    AUL 2892  38.335  12.728   7.010
 2906THSLK    S 2893  38.066  12.755   6.969
 2907ETHY    C1 2894  38.121  13.124   6.696
 2908ETHY    C1 2895  38.105  13.603   6.412
 2909THSLK    S 2896  38.635  12.579   7.077
 2910ETHY    C1 2897  38.948  12.846   6.868
 2911ETHY    C1 2898  39.263  13.243   6.634
 2912AUSL   AUS 2899  37.880  12.607   7.337
 2913AUSL   AUS 2900  37.767  12.350   6.990
 2914AUL    AUL 2901  37.728  12.728   7.010
 2915THSLK    S 2902  37.911  12.868   7.232
 2916ETHY    C1 2903  37.899  13.306   7.088
 2917ETHY    C1 2904  37.791  13.835   6.948
 2918THSLK    S 2905  37.640  12.493   6.799
 2919ETHY    C1 2906  37.482  12.733   6.437
 2920ETHY    C1 2907  37.234  13.068   6.067
 2921AUSL   AUS 2908  38.032  11.354   7.092
 2922AUSL   AUS 2909  37.615  11.423   7.236
 2923AUL    AUL 2910  37.728  11.139   7.010
 2924THSLK    S 2911  37.429  11.266   7.113
 2925ETHY    C1 2912  37.113  10.964   6.964
 2926ETHY    C1 2913  36.799  10.577   6.714
 2927THSLK    S 2914  37.998  11.090   7.004
 2928ETHY    C1 2915  37.939  10.685   6.791
 2929ETHY    C1 2916  37.956  10.215   6.490
 2930AUSL   AUS 2917  38.183  11.260   7.337
 2931AUSL   AUS 2918  38.297  11.517   6.990
 2932AUL    AUL 2919  38.335  11.139   7.010
 2933THSLK    S 2920  38.153  10.994   7.252
 2934ETHY    C1 2921  38.163  10.546   7.143
 2935ETHY    C1 2922  38.271  10.019   6.993
 2936THSLK    S 2923  38.425  11.328   6.839
 2937ETHY    C1 2924  38.577  11.010   6.541
 2938ETHY    C1 2925  38.826  10.696   6.152
 2939AUC    AUC 2926  32.761  45.365   7.501
 2940AUC    AUC 2927  33.006  45.365   7.349
 2941AUC    AUC 2928  33.006  45.365   7.652
 2942AUC    AUC 2929  32.515  45.365   7.349
 2943AUC    AUC 2930  32.515  45.365   7.652
 2944AUC    AUC 2931  32.609  45.610   7.501
 2945AUC    AUC 2932  32.912  45.610   7.501
 2946AUC    AUC 2933  32.609  45.119   7.501
 2947AUC    AUC 2934  32.912  45.119   7.501
 2948AUC    AUC 2935  32.761  45.213   7.746
 2949AUC    AUC 2936  32.761  45.516   7.746
 2950AUC    AUC 2937  32.761  45.213   7.255
 2951AUC    AUC 2938  32.761  45.516   7.255
 2952AUC    AUC 2939  33.252  45.365   7.197
 2953AUC    AUC 2940  33.252  45.365   7.501
 2954AUC    AUC 2941  33.252  45.365   7.804
 2955AUC    AUC 2942  32.270  45.365   7.197
 2956AUC    AUC 2943  32.270  45.365   7.501
 2957AUC    AUC 2944  32.270  45.365   7.804
 2958AUC    AUC 2945  32.457  45.855   7.501
 2959AUC    AUC 2946  32.761  45.855   7.501
 2960AUC    AUC 2947  33.064  45.855   7.501
 2961AUC    AUC 2948  32.457  44.874   7.501
 2962AUC    AUC 2949  32.761  44.874   7.501
 2963AUC    AUC 2950  33.064  44.874   7.501
 2964AUC    AUC 2951  32.761  45.061   7.991
 2965AUC    AUC 2952  32.761  45.365   7.991
 2966AUC    AUC 2953  32.761  45.668   7.991
 2967AUC    AUC 2954  32.761  45.061   7.010
 2968AUC    AUC 2955  32.761  45.365   7.010
 2969AUC    AUC 2956  32.761  45.668   7.010
 2970AUC    AUC 2957  33.006  45.213   7.898
 2971AUC    AUC 2958  33.006  45.516   7.898
 2972AUC    AUC 2959  33.006  45.213   7.103
 2973AUC    AUC 2960  33.006  45.516   7.103
 2974AUC    AUC 2961  32.515  45.213   7.898
 2975AUC    AUC 2962  32.515  45.516   7.898
 2976AUC    AUC 2963  32.515  45.213   7.103
 2977AUC    AUC 2964  32.515  45.516   7.103
 2978AUC    AUC 2965  33.158  45.610   7.349
 2979AUC    AUC 2966  33.158  45.610   7.652
 2980AUC    AUC 2967  32.364  45.610   7.349
 2981AUC    AUC 2968  32.364  45.610   7.652
 2982AUC    AUC 2969  33.158  45.119   7.349
 2983AUC    AUC 2970  33.158  45.119   7.652
 2984AUC    AUC 2971  32.364  45.119   7.349
 2985AUC    AUC 2972  32.364  45.119   7.652
 2986AUC    AUC 2973  32.609  45.762   7.746
 2987AUC    AUC 2974  32.912  45.762   7.746
 2988AUC    AUC 2975  32.609  44.968   7.746
 2989AUC    AUC 2976  32.912  44.968   7.746
 2990AUC    AUC 2977  32.609  45.762   7.255
 2991AUC    AUC 2978  32.912  45.762   7.255
 2992AUC    AUC 2979  32.609  44.968   7.255
 2993AUC    AUC 2980  32.912  44.968   7.255
 2994AUSL   AUS 2981  33.170  45.365   8.081
 2995AUSL   AUS 2982  33.026  44.948   8.011
 2996AUL    AUL 2983  33.252  45.061   8.295
 2997THSLK    S 2984  33.153  44.760   8.163
 2998ETHY    C1 2985  33.311  44.439   8.456
 2999ETHY    C1 2986  33.559  44.126   8.845
 3000THSLK    S 2987  33.275  45.325   8.333
 3001ETHY    C1 2988  33.518  45.258   8.720
 3002ETHY    C1 2989  33.811  45.277   9.194
 3003AUSL   AUS 2990  32.924  45.213   8.174
 3004AUSL   AUS 2991  32.597  45.516   8.174
 3005AUL    AUL 2992  32.761  45.365   8.482
 3006THSLK    S 2993  33.011  45.167   8.426
 3007ETHY    C1 2994  33.124  45.026   8.852
 3008ETHY    C1 2995  33.273  44.955   9.385
 3009THSLK    S 2996  32.509  45.485   8.439
 3010ETHY    C1 2997  32.404  45.496   8.889
 3011ETHY    C1 2998  32.254  45.604   9.415
 3012AUSL   AUS 2999  32.924  45.516   8.174
 3013AUSL   AUS 3000  33.271  45.629   7.917
 3014AUL    AUL 3001  33.252  45.668   8.295
 3015THSLK    S 3002  33.012  45.562   8.426
 3016ETHY    C1 3003  33.118  45.702   8.854
 3017ETHY    C1 3004  33.268  45.774   9.386
 3018THSLK    S 3005  33.451  45.745   8.082
 3019ETHY    C1 3006  33.796  45.880   8.358
 3020ETHY    C1 3007  34.171  46.134   8.683
 3021AUSL   AUS 3008  33.170  45.365   6.921
 3022AUSL   AUS 3009  33.026  45.781   6.990
 3023AUL    AUL 3010  33.252  45.668   6.706
 3024THSLK    S 3011  33.276  45.325   6.668
 3025ETHY    C1 3012  33.513  45.258   6.278
 3026ETHY    C1 3013  33.806  45.277   5.804
 3027THSLK    S 3014  33.201  45.909   6.816
 3028ETHY    C1 3015  33.432  46.127   6.480
 3029ETHY    C1 3016  33.658  46.469   6.102
 3030AUSL   AUS 3017  32.924  45.213   6.827
 3031AUSL   AUS 3018  33.271  45.100   7.084
 3032AUL    AUL 3019  33.252  45.061   6.706
 3033THSLK    S 3020  33.417  44.913   6.932
 3034ETHY    C1 3021  33.701  44.659   6.670
 3035ETHY    C1 3022  34.093  44.439   6.340
 3036THSLK    S 3023  33.012  45.167   6.575
 3037ETHY    C1 3024  33.118  45.027   6.147
 3038ETHY    C1 3025  33.268  44.955   5.615
 3039AUSL   AUS 3026  32.924  45.516   6.827
 3040AUSL   AUS 3027  32.597  45.213   6.827
 3041AUL    AUL 3028  32.761  45.365   6.519
 3042THSLK    S 3029  32.497  45.167   6.579
 3043ETHY    C1 3030  32.363  45.029   6.158
 3044ETHY    C1 3031  32.220  44.957   5.624
 3045THSLK    S 3032  33.025  45.484   6.566
 3046ETHY    C1 3033  33.152  45.493   6.121
 3047ETHY    C1 3034  33.296  45.602   5.594
 3048AUSL   AUS 3035  32.352  45.365   8.081
 3049AUSL   AUS 3036  32.496  45.781   8.011
 3050AUL    AUL 3037  32.270  45.668   8.295
 3051THSLK    S 3038  32.246  45.325   8.333
 3052ETHY    C1 3039  32.009  45.258   8.723
 3053ETHY    C1 3040  31.715  45.277   9.197
 3054THSLK    S 3041  32.368  45.923   8.202
 3055ETHY    C1 3042  32.215  46.168   8.563
 3056ETHY    C1 3043  31.967  46.503   8.933
 3057AUSL   AUS 3044  32.597  45.213   8.174
 3058AUSL   AUS 3045  32.251  45.100   7.917
 3059AUL    AUL 3046  32.270  45.061   8.295
 3060THSLK    S 3047  32.070  44.932   8.043
 3061ETHY    C1 3048  31.729  44.706   8.259
 3062ETHY    C1 3049  31.353  44.478   8.602
 3063THSLK    S 3050  32.497  45.167   8.422
 3064ETHY    C1 3051  32.369  45.028   8.844
 3065ETHY    C1 3052  32.225  44.956   9.378
 3066AUSL   AUS 3053  32.352  45.365   6.921
 3067AUSL   AUS 3054  32.496  44.948   6.990
 3068AUL    AUL 3055  32.270  45.061   6.706
 3069THSLK    S 3056  32.247  45.325   6.668
 3070ETHY    C1 3057  32.003  45.258   6.281
 3071ETHY    C1 3058  31.711  45.277   5.807
 3072THSLK    S 3059  32.322  44.774   6.855
 3073ETHY    C1 3060  32.085  44.481   6.587
 3074ETHY    C1 3061  31.860  44.160   6.190
 3075AUSL   AUS 3062  32.597  45.516   6.827
 3076AUSL   AUS 3063  32.251  45.629   7.084
 3077AUL    AUL 3064  32.270  45.668   6.706
 3078THSLK    S 3065  32.105  45.764   6.894
 3079ETHY    C1 3066  31.816  45.928   6.572
 3080ETHY    C1 3067  31.425  46.173   6.259
 3081THSLK    S 3068  32.510  45.485   6.562
 3082ETHY    C1 3069  32.397  45.495   6.114
 3083ETHY    C1 3070  32.249  45.603   5.587
 3084AUSL   AUS 3071  33.341  45.774   7.501
 3085AUSL   AUS 3072  33.271  45.629   7.084
 3086AUL    AUL 3073  33.555  45.855   7.197
 3087THSLK    S 3074  33.451  45.746   6.920
 3088ETHY    C1 3075  33.792  45.879   6.638
 3089ETHY    C1 3076  34.168  46.133   6.314
 3090THSLK    S 3077  33.614  45.845   7.501
 3091ETHY    C1 3078  34.038  46.029   7.497
 3092ETHY    C1 3079  34.502  46.338   7.498
 3093AUSL   AUS 3080  33.435  45.528   7.349
 3094AUSL   AUS 3081  33.435  45.201   7.652
 3095AUL    AUL 3082  33.742  45.365   7.501
 3096THSLK    S 3083  33.702  45.583   7.341
 3097ETHY    C1 3084  34.154  45.639   7.262
 3098ETHY    C1 3085  34.679  45.804   7.172
 3099THSLK    S 3086  33.681  45.069   7.659
 3100ETHY    C1 3087  34.098  44.884   7.728
 3101ETHY    C1 3088  34.634  44.756   7.820
 3102AUSL   AUS 3089  33.435  45.528   7.652
 3103AUSL   AUS 3090  33.177  45.875   7.765
 3104AUL    AUL 3091  33.555  45.855   7.804
 3105THSLK    S 3092  33.363  46.010   7.925
 3106ETHY    C1 3093  33.679  46.278   8.128
 3107ETHY    C1 3094  33.994  46.675   8.362
 3108THSLK    S 3095  33.702  45.583   7.661
 3109ETHY    C1 3096  34.154  45.639   7.733
 3110ETHY    C1 3097  34.680  45.804   7.824
 3111AUSL   AUS 3098  32.181  45.774   7.501
 3112AUSL   AUS 3099  32.251  45.629   7.917
 3113AUL    AUL 3100  31.967  45.855   7.804
 3114THSLK    S 3101  32.104  45.764   8.107
 3115ETHY    C1 3102  31.820  45.933   8.430
 3116ETHY    C1 3103  31.428  46.178   8.743
 3117THSLK    S 3104  31.950  45.912   7.501
 3118ETHY    C1 3105  31.596  46.210   7.497
 3119ETHY    C1 3106  31.112  46.487   7.498
 3120AUSL   AUS 3107  32.087  45.528   7.349
 3121AUSL   AUS 3108  32.344  45.875   7.236
 3122AUL    AUL 3109  31.967  45.855   7.197
 3123THSLK    S 3110  31.841  45.638   7.307
 3124ETHY    C1 3111  31.423  45.783   7.173
 3125ETHY    C1 3112  30.888  45.923   7.099
 3126THSLK    S 3113  32.213  46.044   7.056
 3127ETHY    C1 3114  31.989  46.366   6.812
 3128ETHY    C1 3115  31.649  46.748   6.589
 3129AUSL   AUS 3116  32.087  45.528   7.652
 3130AUSL   AUS 3117  32.087  45.201   7.349
 3131AUL    AUL 3118  31.779  45.365   7.501
 3132THSLK    S 3119  31.820  45.123   7.377
 3133ETHY    C1 3120  31.367  45.034   7.359
 3134ETHY    C1 3121  30.842  44.879   7.252
 3135THSLK    S 3122  31.841  45.638   7.694
 3136ETHY    C1 3123  31.424  45.789   7.825
 3137ETHY    C1 3124  30.889  45.927   7.900
 3138AUSL   AUS 3125  33.341  44.956   7.501
 3139AUSL   AUS 3126  33.271  45.100   7.917
 3140AUL    AUL 3127  33.555  44.874   7.804
 3141THSLK    S 3128  33.572  44.817   7.501
 3142ETHY    C1 3129  33.926  44.519   7.497
 3143ETHY    C1 3130  34.410  44.242   7.498
 3144THSLK    S 3131  33.417  44.913   8.070
 3145ETHY    C1 3132  33.705  44.658   8.326
 3146ETHY    C1 3133  34.097  44.438   8.657
 3147AUSL   AUS 3134  33.435  45.201   7.349
 3148AUSL   AUS 3135  33.177  44.854   7.236
 3149AUL    AUL 3136  33.555  44.874   7.197
 3150THSLK    S 3137  33.681  45.069   7.343
 3151ETHY    C1 3138  34.097  44.884   7.266
 3152ETHY    C1 3139  34.633  44.756   7.176
 3153THSLK    S 3140  33.309  44.663   7.092
 3154ETHY    C1 3141  33.530  44.302   6.907
 3155ETHY    C1 3142  33.871  43.932   6.667
 3156AUSL   AUS 3143  32.181  44.956   7.501
 3157AUSL   AUS 3144  32.251  45.100   7.084
 3158AUL    AUL 3145  31.967  44.874   7.197
 3159THSLK    S 3146  32.071  44.932   6.958
 3160ETHY    C1 3147  31.725  44.712   6.743
 3161ETHY    C1 3148  31.350  44.482   6.400
 3162THSLK    S 3149  31.908  44.884   7.501
 3163ETHY    C1 3150  31.484  44.701   7.497
 3164ETHY    C1 3151  31.020  44.391   7.498
 3165AUSL   AUS 3152  32.087  45.201   7.652
 3166AUSL   AUS 3153  32.344  44.854   7.765
 3167AUL    AUL 3154  31.967  44.874   7.804
 3168THSLK    S 3155  32.158  44.697   7.889
 3169ETHY    C1 3156  31.845  44.391   8.033
 3170ETHY    C1 3157  31.530  44.004   8.284
 3171THSLK    S 3158  31.820  45.124   7.625
 3172ETHY    C1 3159  31.368  45.028   7.639
 3173ETHY    C1 3160  30.843  44.875   7.746
 3174AUSL   AUS 3161  32.761  45.945   7.910
 3175AUSL   AUS 3162  32.344  45.875   7.765
 3176AUL    AUL 3163  32.457  46.159   7.991
 3177THSLK    S 3164  32.213  46.043   7.945
 3178ETHY    C1 3165  31.992  46.371   8.185
 3179ETHY    C1 3166  31.651  46.751   8.409
 3180THSLK    S 3167  32.795  46.186   8.033
 3181ETHY    C1 3168  32.853  46.558   8.301
 3182ETHY    C1 3169  32.837  47.037   8.586
 3183AUSL   AUS 3170  32.609  46.038   7.664
 3184AUSL   AUS 3171  32.912  46.038   7.337
 3185AUL    AUL 3172  32.761  46.346   7.501
 3186THSLK    S 3173  32.640  46.298   7.770
 3187ETHY    C1 3174  32.630  46.739   7.907
 3188ETHY    C1 3175  32.521  47.268   8.048
 3189THSLK    S 3176  32.957  46.287   7.235
 3190ETHY    C1 3177  33.095  46.705   7.097
 3191ETHY    C1 3178  33.167  47.240   6.955
 3192AUSL   AUS 3179  32.912  46.038   7.664
 3193AUSL   AUS 3180  33.026  45.781   8.011
 3194AUL    AUL 3181  33.064  46.159   7.991
 3195THSLK    S 3182  33.200  45.909   8.185
 3196ETHY    C1 3183  33.436  46.128   8.517
 3197ETHY    C1 3184  33.662  46.470   8.895
 3198THSLK    S 3185  32.957  46.286   7.767
 3199ETHY    C1 3186  33.096  46.707   7.898
 3200ETHY    C1 3187  33.169  47.241   8.041
 3201AUSL   AUS 3188  32.761  44.785   7.910
 3202AUSL   AUS 3189  33.177  44.854   7.765
 3203AUL    AUL 3190  33.064  44.570   7.991
 3204THSLK    S 3191  32.727  44.521   7.997
 3205ETHY    C1 3192  32.672  44.112   8.205
 3206ETHY    C1 3193  32.687  43.644   8.507
 3207THSLK    S 3194  33.309  44.663   7.910
 3208ETHY    C1 3195  33.532  44.301   8.089
 3209ETHY    C1 3196  33.873  43.931   8.330
 3210AUSL   AUS 3197  32.609  44.691   7.664
 3211AUSL   AUS 3198  32.496  44.948   8.011
 3212AUL    AUL 3199  32.457  44.570   7.991
 3213THSLK    S 3200  32.564  44.438   7.746
 3214ETHY    C1 3201  32.427  44.007   7.843
 3215ETHY    C1 3202  32.354  43.475   7.996
 3216THSLK    S 3203  32.321  44.774   8.146
 3217ETHY    C1 3204  32.090  44.476   8.413
 3218ETHY    C1 3205  31.863  44.156   8.810
 3219AUSL   AUS 3206  32.912  44.691   7.664
 3220AUSL   AUS 3207  32.609  44.691   7.337
 3221AUL    AUL 3208  32.761  44.383   7.501
 3222THSLK    S 3209  32.564  44.438   7.255
 3223ETHY    C1 3210  32.425  44.009   7.152
 3224ETHY    C1 3211  32.353  43.477   7.001
 3225THSLK    S 3212  32.881  44.426   7.750
 3226ETHY    C1 3213  32.894  43.975   7.852
 3227ETHY    C1 3214  33.002  43.449   8.003
 3228AUSL   AUS 3215  32.761  45.945   7.092
 3229AUSL   AUS 3216  33.177  45.875   7.236
 3230AUL    AUL 3217  33.064  46.159   7.010
 3231THSLK    S 3218  32.795  46.186   6.969
 3232ETHY    C1 3219  32.850  46.555   6.696
 3233ETHY    C1 3220  32.834  47.034   6.412
 3234THSLK    S 3221  33.364  46.010   7.077
 3235ETHY    C1 3222  33.677  46.277   6.868
 3236ETHY    C1 3223  33.992  46.674   6.634
 3237AUSL   AUS 3224  32.609  46.038   7.337
 3238AUSL   AUS 3225  32.496  45.781   6.990
 3239AUL    AUL 3226  32.457  46.159   7.010
 3240THSLK    S 3227  32.640  46.299   7.232
 3241ETHY    C1 3228  32.628  46.737   7.088
 3242ETHY    C1 3229  32.520  47.266   6.948
 3243THSLK    S 3230  32.369  45.924   6.799
 3244ETHY    C1 3231  32.211  46.164   6.437
 3245ETHY    C1 3232  31.963  46.499   6.067
 3246AUSL   AUS 3233  32.761  44.785   7.092
 3247AUSL   AUS 3234  32.344  44.854   7.236
 3248AUL    AUL 3235  32.457  44.570   7.010
 3249THSLK    S 3236  32.158  44.697   7.113
 3250ETHY    C1 3237  31.842  44.395   6.964
 3251ETHY    C1 3238  31.528  44.008   6.714
 3252THSLK    S 3239  32.727  44.521   7.004
 3253ETHY    C1 3240  32.668  44.116   6.791
 3254ETHY    C1 3241  32.685  43.646   6.490
 3255AUSL   AUS 3242  32.912  44.691   7.337
 3256AUSL   AUS 3243  33.026  44.948   6.990
 3257AUL    AUL 3244  33.064  44.570   7.010
 3258THSLK    S 3245  32.882  44.425   7.252
 3259ETHY    C1 3246  32.892  43.977   7.143
 3260ETHY    C1 3247  33.000  43.450   6.993
 3261THSLK    S 3248  33.154  44.759   6.839
 3262ETHY    C1 3249  33.306  44.441   6.541
 3263ETHY    C1 3250  33.555  44.127   6.152
 3264POPC   NC3 3251  22.121  36.871   9.450
 3264POPC   PO4 3252  22.133  36.933   9.150
 3264POPC   GL1 3253  22.144  36.899   8.850
 3264POPC   GL2 3254  22.102  37.001   8.850
 3264POPC   C1A 3255  22.198  36.900   8.550
 3264POPC   D2A 3256  22.145  36.950   8.250
 3264POPC   C3A 3257  22.167  36.913   7.950
 3264POPC   C4A 3258  22.165  36.883   7.650
 3264POPC   C1B 3259  22.067  37.163   8.550
 3264POPC   C2B 3260  22.028  37.096   8.250
 3264POPC   C3B 3261  22.053  37.114   7.950
 3264POPC   C4B 3262  22.009  37.112   7.650
 3265POPC   NC3 3263   1.227  11.330   9.450
 3265POPC   PO4 3264   1.243  11.280   9.150
 3265POPC   GL1 3265   1.169  11.301   8.850
 3265POPC   GL2 3266   1.274  11.385   8.850
 3265POPC   C1A 3267   1.208  11.265   8.550
 3265POPC   D2A 3268   1.193  11.261   8.250
 3265POPC   C3A 3269   1.165  11.272   7.950
 3265POPC   C4A 3270   1.251  11.313   7.650
 3265POPC   C1B 3271   1.300  11.538   8.550
 3265POPC   C2B 3272   1.388  11.496   8.250
 3265POPC   C3B 3273   1.349  11.527   7.950
 3265POPC   C4B 3274   1.391  11.531   7.650
 3266POPC   NC3 3275  19.822  35.376   9.450
 3266POPC   PO4 3276  19.865  35.331   9.150
 3266POPC   GL1 3277  19.876  35.314   8.850
 3266POPC   GL2 3278  19.925  35.393   8.850
 3266POPC   C1A 3279  19.877  35.326   8.550
 3266POPC   D2A 3280  19.792  35.339   8.250
 3266POPC   C3A 3281  19.788  35.383   7.950
 3266POPC   C4A 3282  19.822  35.307   7.650
 3266POPC   C1B 3283  20.033  35.505   8.550
 3266POPC   C2B 3284  20.055  35.557   8.250
 3266POPC   C3B 3285  20.064  35.527   7.950
 3266POPC   C4B 3286  20.011  35.514   7.650
 3267POPC   NC3 3287  22.981  30.726   9.450
 3267POPC   PO4 3288  22.945  30.657   9.150
 3267POPC   GL1 3289  22.946  30.651   8.850
 3267POPC   GL2 3290  22.936  30.795   8.850
 3267POPC   C1A 3291  22.924  30.651   8.550
 3267POPC   D2A 3292  22.966  30.670   8.250
 3267POPC   C3A 3293  22.947  30.707   7.950
 3267POPC   C4A 3294  22.977  30.668   7.650
 3267POPC   C1B 3295  22.942  30.952   8.550
 3267POPC   C2B 3296  22.878  30.983   8.250
 3267POPC   C3B 3297  22.954  30.920   7.950
 3267POPC   C4B 3298  22.883  30.964   7.650
 3268POPC   NC3 3299  26.789  39.242   9.450
 3268POPC   PO4 3300  26.772  39.184   9.150
 3268POPC   GL1 3301  26.831  39.237   8.850
 3268POPC   GL2 3302  26.819  39.313   8.850
 3268POPC   C1A 3303  26.815  39.257   8.550
 3268POPC   D2A 3304  26.818  39.186   8.250
 3268POPC   C3A 3305  26.866  39.181   7.950
 3268POPC   C4A 3306  26.819  39.272   7.650
 3268POPC   C1B 3307  26.708  39.451   8.550
 3268POPC   C2B 3308  26.747  39.471   8.250
 3268POPC   C3B 3309  26.764  39.427   7.950
 3268POPC   C4B 3310  26.776  39.515   7.650
 3269POPC   NC3 3311   9.019   3.547   9.450
 3269POPC   PO4 3312   8.966   3.553   9.150
 3269POPC   GL1 3313   8.941   3.503   8.850
 3269POPC   GL2 3314   9.014   3.661   8.850
 3269POPC   C1A 3315   8.987   3.569   8.550
 3269POPC   D2A 3316   8.997   3.499   8.250
 3269POPC   C3A 3317   9.010   3.501   7.950
 3269POPC   C4A 3318   8.934   3.565   7.650
 3269POPC   C1B 3319   9.001   3.781   8.550
 3269POPC   C2B 3320   8.958   3.760   8.250
 3269POPC   C3B 3321   8.982   3.795   7.950
 3269POPC   C4B 3322   8.968   3.796   7.650
 3270POPC   NC3 3323  11.308  42.359   9.450
 3270POPC   PO4 3324  11.314  42.313   9.150
 3270POPC   GL1 3325  11.292  42.381   8.850
 3270POPC   GL2 3326  11.451  42.389   8.850
 3270POPC   C1A 3327  11.326  42.324   8.550
 3270POPC   D2A 3328  11.308  42.333   8.250
 3270POPC   C3A 3329  11.323  42.318   7.950
 3270POPC   C4A 3330  11.344  42.307   7.650
 3270POPC   C1B 3331  11.566  42.378   8.550
 3270POPC   C2B 3332  11.497  42.431   8.250
 3270POPC   C3B 3333  11.498  42.402   7.950
 3270POPC   C4B 3334  11.555  42.381   7.650
 3271POPC   NC3 3335  22.153  11.339   9.450
 3271POPC   PO4 3336  22.208  11.345   9.150
 3271POPC   GL1 3337  22.141  11.256   8.850
 3271POPC   GL2 3338  22.092  11.454   8.850
 3271POPC   C1A 3339  22.119  11.293   8.550
 3271POPC   D2A 3340  22.149  11.273   8.250
 3271POPC   C3A 3341  22.149  11.260   7.950
 3271POPC   C4A 3342  22.175  11.255   7.650
 3271POPC   C1B 3343  22.041  11.539   8.550
 3271POPC   C2B 3344  22.119  11.554   8.250
 3271POPC   C3B 3345  22.103  11.506   7.950
 3271POPC   C4B 3346  22.125  11.536   7.650
 3272POPC   NC3 3347  43.128  15.184   9.450
 3272POPC   PO4 3348  43.126  15.174   9.150
 3272POPC   GL1 3349  43.064  15.182   8.850
 3272POPC   GL2 3350  43.233  15.156   8.850
 3272POPC   C1A 3351  43.069  15.139   8.550
 3272POPC   D2A 3352  43.075  15.155   8.250
 3272POPC   C3A 3353  43.119  15.213   7.950
 3272POPC   C4A 3354  43.160  15.135   7.650
 3272POPC   C1B 3355  43.339  15.082   8.550
 3272POPC   C2B 3356  43.309  15.048   8.250
 3272POPC   C3B 3357  43.305  15.054   7.950
 3272POPC   C4B 3358  43.380  15.081   7.650
 3273POPC   NC3 3359  26.810  17.534   9.450
 3273POPC   PO4 3360  26.830  17.535   9.150
 3273POPC   GL1 3361  26.801  17.461   8.850
 3273POPC   GL2 3362  26.935  17.559   8.850
 3273POPC   C1A 3363  26.827  17.524   8.550
 3273POPC   D2A 3364  26.830  17.488   8.250
 3273POPC   C3A 3365  26.769  17.488   7.950
 3273POPC   C4A 3366  26.840  17.501   7.650
 3273POPC   C1B 3367  27.052  17.632   8.550
 3273POPC   C2B 3368  27.028  17.650   8.250
 3273POPC   C3B 3369  27.028  17.603   7.950
 3273POPC   C4B 3370  27.004  17.632   7.650
 3274POPC   NC3 3371  33.065   3.518   9.450
 3274POPC   PO4 3372  33.036   3.531   9.150
 3274POPC   GL1 3373  32.984   3.492   8.850
 3274POPC   GL2 3374  32.946   3.616   8.850
 3274POPC   C1A 3375  33.023   3.512   8.550
 3274POPC   D2A 3376  33.020   3.557   8.250
 3274POPC   C3A 3377  32.995   3.540   7.950
 3274POPC   C4A 3378  32.978   3.555   7.650
 3274POPC   C1B 3379  32.916   3.799   8.550
 3274POPC   C2B 3380  32.914   3.721   8.250
 3274POPC   C3B 3381  32.913   3.739   7.950
 3274POPC   C4B 3382  32.918   3.757   7.650
 3275POPC   NC3 3383   8.932   1.264   9.450
 3275POPC   PO4 3384   9.017   1.234   9.150
 3275POPC   GL1 3385   8.953   1.217   8.850
 3275POPC   GL2 3386   8.813   1.261   8.850
 3275POPC   C1A 3387   9.018   1.223   8.550
 3275POPC   D2A 3388   8.991   1.190   8.250
 3275POPC   C3A 3389   8.981   1.202   7.950
 3275POPC   C4A 3390   9.016   1.175   7.650
 3275POPC   C1B 3391   8.710   1.244   8.550
 3275POPC   C2B 3392   8.763   1.251   8.250
 3275POPC   C3B 3393   8.692   1.251   7.950
 3275POPC   C4B 3394   8.772   1.194   7.650
 3276POPC   NC3 3395  31.462  10.562   9.450
 3276POPC   PO4 3396  31.488  10.554   9.150
 3276POPC   GL1 3397  31.519  10.512   8.850
 3276POPC   GL2 3398  31.446  10.398   8.850
 3276POPC   C1A 3399  31.478  10.556   8.550
 3276POPC   D2A 3400  31.460  10.485   8.250
 3276POPC   C3A 3401  31.458  10.553   7.950
 3276POPC   C4A 3402  31.440  10.518   7.650
 3276POPC   C1B 3403  31.454  10.236   8.550
 3276POPC   C2B 3404  31.480  10.228   8.250
 3276POPC   C3B 3405  31.424  10.242   7.950
 3276POPC   C4B 3406  31.462  10.276   7.650
 3277POPC   NC3 3407  11.253  37.710   9.450
 3277POPC   PO4 3408  11.262  37.652   9.150
 3277POPC   GL1 3409  11.271  37.704   8.850
 3277POPC   GL2 3410  11.311  37.809   8.850
 3277POPC   C1A 3411  11.308  37.681   8.550
 3277POPC   D2A 3412  11.262  37.638   8.250
 3277POPC   C3A 3413  11.291  37.631   7.950
 3277POPC   C4A 3414  11.300  37.698   7.650
 3277POPC   C1B 3415  11.338  37.925   8.550
 3277POPC   C2B 3416  11.303  37.887   8.250
 3277POPC   C3B 3417  11.283  37.897   7.950
 3277POPC   C4B 3418  11.254  37.924   7.650
 3278POPC   NC3 3419   5.085  40.787   9.450
 3278POPC   PO4 3420   5.060  40.767   9.150
 3278POPC   GL1 3421   5.107  40.742   8.850
 3278POPC   GL2 3422   4.947  40.711   8.850
 3278POPC   C1A 3423   5.128  40.829   8.550
 3278POPC   D2A 3424   5.047  40.759   8.250
 3278POPC   C3A 3425   5.062  40.781   7.950
 3278POPC   C4A 3426   5.081  40.820   7.650
 3278POPC   C1B 3427   4.813  40.739   8.550
 3278POPC   C2B 3428   4.804  40.721   8.250
 3278POPC   C3B 3429   4.826  40.732   7.950
 3278POPC   C4B 3430   4.868  40.741   7.650
 3279POPC   NC3 3431  32.278  18.275   9.450
 3279POPC   PO4 3432  32.214  18.299   9.150
 3279POPC   GL1 3433  32.226  18.258   8.850
 3279POPC   GL2 3434  32.083  18.277   8.850
 3279POPC   C1A 3435  32.267  18.271   8.550
 3279POPC   D2A 3436  32.215  18.276   8.250
 3279POPC   C3A 3437  32.238  18.300   7.950
 3279POPC   C4A 3438  32.249  18.290   7.650
 3279POPC   C1B 3439  31.965  18.206   8.550
 3279POPC   C2B 3440  31.982  18.252   8.250
 3279POPC   C3B 3441  31.969  18.203   7.950
 3279POPC   C4B 3442  32.050  18.208   7.650
 3280POPC   NC3 3443  30.727  13.615   9.450
 3280POPC   PO4 3444  30.662  13.587   9.150
 3280POPC   GL1 3445  30.693  13.648   8.850
 3280POPC   GL2 3446  30.621  13.529   8.850
 3280POPC   C1A 3447  30.694  13.638   8.550
 3280POPC   D2A 3448  30.739  13.583   8.250
 3280POPC   C3A 3449  30.735  13.669   7.950
 3280POPC   C4A 3450  30.727  13.637   7.650
 3280POPC   C1B 3451  30.509  13.523   8.550
 3280POPC   C2B 3452  30.451  13.562   8.250
 3280POPC   C3B 3453  30.465  13.566   7.950
 3280POPC   C4B 3454  30.445  13.550   7.650
 3281POPC   NC3 3455   3.543  19.093   9.450
 3281POPC   PO4 3456   3.520  19.030   9.150
 3281POPC   GL1 3457   3.558  19.026   8.850
 3281POPC   GL2 3458   3.458  18.929   8.850
 3281POPC   C1A 3459   3.522  19.019   8.550
 3281POPC   D2A 3460   3.497  19.027   8.250
 3281POPC   C3A 3461   3.524  19.105   7.950
 3281POPC   C4A 3462   3.523  19.040   7.650
 3281POPC   C1B 3463   3.365  18.898   8.550
 3281POPC   C2B 3464   3.381  18.885   8.250
 3281POPC   C3B 3465   3.359  18.880   7.950
 3281POPC   C4B 3466   3.392  18.892   7.650
 3282POPC   NC3 3467  22.936  26.019   9.450
 3282POPC   PO4 3468  22.963  26.013   9.150
 3282POPC   GL1 3469  22.948  25.997   8.850
 3282POPC   GL2 3470  22.869  25.979   8.850
 3282POPC   C1A 3471  22.925  26.000   8.550
 3282POPC   D2A 3472  22.960  26.042   8.250
 3282POPC   C3A 3473  22.903  26.008   7.950
 3282POPC   C4A 3474  22.910  26.078   7.650
 3282POPC   C1B 3475  22.712  25.917   8.550
 3282POPC   C2B 3476  22.694  25.858   8.250
 3282POPC   C3B 3477  22.697  25.893   7.950
 3282POPC   C4B 3478  22.746  25.869   7.650
 3283POPC   NC3 3479   3.504   8.228   9.450
 3283POPC   PO4 3480   3.496   8.165   9.150
 3283POPC   GL1 3481   3.509   8.231   8.850
 3283POPC   GL2 3482   3.474   8.319   8.850
 3283POPC   C1A 3483   3.565   8.231   8.550
 3283POPC   D2A 3484   3.564   8.200   8.250
 3283POPC   C3A 3485   3.570   8.161   7.950
 3283POPC   C4A 3486   3.585   8.156   7.650
 3283POPC   C1B 3487   3.402   8.357   8.550
 3283POPC   C2B 3488   3.410   8.369   8.250
 3283POPC   C3B 3489   3.326   8.407   7.950
 3283POPC   C4B 3490   3.328   8.410   7.650
 3284POPC   NC3 3491  41.548   2.717   9.450
 3284POPC   PO4 3492  41.509   2.769   9.150
 3284POPC   GL1 3493  41.560   2.733   8.850
 3284POPC   GL2 3494  41.556   2.858   8.850
 3284POPC   C1A 3495  41.571   2.765   8.550
 3284POPC   D2A 3496  41.525   2.767   8.250
 3284POPC   C3A 3497  41.511   2.724   7.950
 3284POPC   C4A 3498  41.568   2.812   7.650
 3284POPC   C1B 3499  41.579   2.980   8.550
 3284POPC   C2B 3500  41.600   2.974   8.250
 3284POPC   C3B 3501  41.630   3.003   7.950
 3284POPC   C4B 3502  41.610   3.048   7.650
 3285POPC   NC3 3503  22.947  31.437   9.450
 3285POPC   PO4 3504  22.972  31.464   9.150
 3285POPC   GL1 3505  22.972  31.451   8.850
 3285POPC   GL2 3506  22.900  31.399   8.850
 3285POPC   C1A 3507  22.930  31.454   8.550
 3285POPC   D2A 3508  22.940  31.521   8.250
 3285POPC   C3A 3509  22.909  31.497   7.950
 3285POPC   C4A 3510  22.948  31.484   7.650
 3285POPC   C1B 3511  22.848  31.211   8.550
 3285POPC   C2B 3512  22.925  31.258   8.250
 3285POPC   C3B 3513  22.844  31.229   7.950
 3285POPC   C4B 3514  22.860  31.180   7.650
 3286POPC   NC3 3515  16.728   1.186   9.450
 3286POPC   PO4 3516  16.753   1.250   9.150
 3286POPC   GL1 3517  16.728   1.245   8.850
 3286POPC   GL2 3518  16.814   1.179   8.850
 3286POPC   C1A 3519  16.748   1.232   8.550
 3286POPC   D2A 3520  16.718   1.184   8.250
 3286POPC   C3A 3521  16.687   1.221   7.950
 3286POPC   C4A 3522  16.755   1.175   7.650
 3286POPC   C1B 3523  16.965   1.065   8.550
 3286POPC   C2B 3524  16.932   1.041   8.250
 3286POPC   C3B 3525  16.883   1.001   7.950
 3286POPC   C4B 3526  16.920   1.033   7.650
 3287POPC   NC3 3527   5.848  16.001   9.450
 3287POPC   PO4 3528   5.840  16.004   9.150
 3287POPC   GL1 3529   5.914  15.955   8.850
 3287POPC   GL2 3530   6.013  15.996   8.850
 3287POPC   C1A 3531   5.856  15.952   8.550
 3287POPC   D2A 3532   5.916  15.999   8.250
 3287POPC   C3A 3533   5.847  15.947   7.950
 3287POPC   C4A 3534   5.889  15.967   7.650
 3287POPC   C1B 3535   6.142  16.033   8.550
 3287POPC   C2B 3536   6.147  15.980   8.250
 3287POPC   C3B 3537   6.083  15.997   7.950
 3287POPC   C4B 3538   6.124  16.011   7.650
 3288POPC   NC3 3539   8.950  34.600   9.450
 3288POPC   PO4 3540   8.996  34.599   9.150
 3288POPC   GL1 3541   8.950  34.586   8.850
 3288POPC   GL2 3542   8.831  34.542   8.850
 3288POPC   C1A 3543   8.965  34.564   8.550
 3288POPC   D2A 3544   8.948  34.615   8.250
 3288POPC   C3A 3545   8.943  34.610   7.950
 3288POPC   C4A 3546   8.946  34.527   7.650
 3288POPC   C1B 3547   8.752  34.564   8.550
 3288POPC   C2B 3548   8.731  34.575   8.250
 3288POPC   C3B 3549   8.719  34.527   7.950
 3288POPC   C4B 3550   8.742  34.559   7.650
 3289POPC   NC3 3551  11.268  33.760   9.450
 3289POPC   PO4 3552  11.284  33.838   9.150
 3289POPC   GL1 3553  11.330  33.786   8.850
 3289POPC   GL2 3554  11.281  33.947   8.850
 3289POPC   C1A 3555  11.282  33.842   8.550
 3289POPC   D2A 3556  11.269  33.777   8.250
 3289POPC   C3A 3557  11.293  33.776   7.950
 3289POPC   C4A 3558  11.325  33.799   7.650
 3289POPC   C1B 3559  11.290  34.024   8.550
 3289POPC   C2B 3560  11.271  34.023   8.250
 3289POPC   C3B 3561  11.331  34.058   7.950
 3289POPC   C4B 3562  11.324  34.039   7.650
 3290POPC   NC3 3563  23.745  15.935   9.450
 3290POPC   PO4 3564  23.687  15.928   9.150
 3290POPC   GL1 3565  23.687  15.949   8.850
 3290POPC   GL2 3566  23.665  16.003   8.850
 3290POPC   C1A 3567  23.756  15.958   8.550
 3290POPC   D2A 3568  23.704  15.924   8.250
 3290POPC   C3A 3569  23.682  15.982   7.950
 3290POPC   C4A 3570  23.670  15.927   7.650
 3290POPC   C1B 3571  23.486  16.079   8.550
 3290POPC   C2B 3572  23.556  16.109   8.250
 3290POPC   C3B 3573  23.494  16.100   7.950
 3290POPC   C4B 3574  23.493  16.089   7.650
 3291POPC   NC3 3575  12.826  12.124   9.450
 3291POPC   PO4 3576  12.817  12.118   9.150
 3291POPC   GL1 3577  12.887  12.049   8.850
 3291POPC   GL2 3578  12.826  12.201   8.850
 3291POPC   C1A 3579  12.841  12.076   8.550
 3291POPC   D2A 3580  12.819  12.080   8.250
 3291POPC   C3A 3581  12.892  12.125   7.950
 3291POPC   C4A 3582  12.879  12.044   7.650
 3291POPC   C1B 3583  12.798  12.312   8.550
 3291POPC   C2B 3584  12.766  12.285   8.250
 3291POPC   C3B 3585  12.770  12.361   7.950
 3291POPC   C4B 3586  12.828  12.279   7.650
 3292POPC   NC3 3587  23.687  33.767   9.450
 3292POPC   PO4 3588  23.710  33.754   9.150
 3292POPC   GL1 3589  23.742  33.773   8.850
 3292POPC   GL2 3590  23.789  33.967   8.850
 3292POPC   C1A 3591  23.754  33.825   8.550
 3292POPC   D2A 3592  23.683  33.777   8.250
 3292POPC   C3A 3593  23.736  33.828   7.950
 3292POPC   C4A 3594  23.671  33.780   7.650
 3292POPC   C1B 3595  23.749  34.057   8.550
 3292POPC   C2B 3596  23.829  33.993   8.250
 3292POPC   C3B 3597  23.796  34.022   7.950
 3292POPC   C4B 3598  23.805  34.043   7.650
 3293POPC   NC3 3599  23.735  31.466   9.450
 3293POPC   PO4 3600  23.672  31.450   9.150
 3293POPC   GL1 3601  23.674  31.480   8.850
 3293POPC   GL2 3602  23.826  31.419   8.850
 3293POPC   C1A 3603  23.698  31.458   8.550
 3293POPC   D2A 3604  23.666  31.464   8.250
 3293POPC   C3A 3605  23.703  31.460   7.950
 3293POPC   C4A 3606  23.681  31.432   7.650
 3293POPC   C1B 3607  23.875  31.335   8.550
 3293POPC   C2B 3608  23.911  31.284   8.250
 3293POPC   C3B 3609  23.852  31.333   7.950
 3293POPC   C4B 3610  23.921  31.287   7.650
 3294POPC   NC3 3611  10.549  29.182   9.450
 3294POPC   PO4 3612  10.562  29.182   9.150
 3294POPC   GL1 3613  10.503  29.134   8.850
 3294POPC   GL2 3614  10.545  29.232   8.850
 3294POPC   C1A 3615  10.570  29.180   8.550
 3294POPC   D2A 3616  10.480  29.098   8.250
 3294POPC   C3A 3617  10.475  29.173   7.950
 3294POPC   C4A 3618  10.573  29.119   7.650
 3294POPC   C1B 3619  10.493  29.362   8.550
 3294POPC   C2B 3620  10.512  29.357   8.250
 3294POPC   C3B 3621  10.495  29.370   7.950
 3294POPC   C4B 3622  10.432  29.410   7.650
 3295POPC   NC3 3623  25.303  33.009   9.450
 3295POPC   PO4 3624  25.235  33.028   9.150
 3295POPC   GL1 3625  25.282  33.025   8.850
 3295POPC   GL2 3626  25.302  33.118   8.850
 3295POPC   C1A 3627  25.313  32.989   8.550
 3295POPC   D2A 3628  25.219  33.063   8.250
 3295POPC   C3A 3629  25.247  32.984   7.950
 3295POPC   C4A 3630  25.303  33.003   7.650
 3295POPC   C1B 3631  25.411  33.249   8.550
 3295POPC   C2B 3632  25.397  33.279   8.250
 3295POPC   C3B 3633  25.395  33.210   7.950
 3295POPC   C4B 3634  25.425  33.227   7.650
 3296POPC   NC3 3635  12.107   3.580   9.450
 3296POPC   PO4 3636  12.031   3.566   9.150
 3296POPC   GL1 3637  12.074   3.499   8.850
 3296POPC   GL2 3638  12.071   3.635   8.850
 3296POPC   C1A 3639  12.076   3.547   8.550
 3296POPC   D2A 3640  12.087   3.548   8.250
 3296POPC   C3A 3641  12.066   3.568   7.950
 3296POPC   C4A 3642  12.124   3.536   7.650
 3296POPC   C1B 3643  12.146   3.814   8.550
 3296POPC   C2B 3644  12.167   3.750   8.250
 3296POPC   C3B 3645  12.087   3.829   7.950
 3296POPC   C4B 3646  12.128   3.813   7.650
 3297POPC   NC3 3647  10.498  30.675   9.450
 3297POPC   PO4 3648  10.537  30.734   9.150
 3297POPC   GL1 3649  10.549  30.650   8.850
 3297POPC   GL2 3650  10.446  30.800   8.850
 3297POPC   C1A 3651  10.563  30.737   8.550
 3297POPC   D2A 3652  10.561  30.675   8.250
 3297POPC   C3A 3653  10.496  30.709   7.950
 3297POPC   C4A 3654  10.481  30.676   7.650
 3297POPC   C1B 3655  10.415  30.953   8.550
 3297POPC   C2B 3656  10.392  30.887   8.250
 3297POPC   C3B 3657  10.374  30.952   7.950
 3297POPC   C4B 3658  10.452  30.900   7.650
 3298POPC   NC3 3659  26.857  23.687   9.450
 3298POPC   PO4 3660  26.860  23.754   9.150
 3298POPC   GL1 3661  26.817  23.744   8.850
 3298POPC   GL2 3662  26.887  23.767   8.850
 3298POPC   C1A 3663  26.862  23.701   8.550
 3298POPC   D2A 3664  26.862  23.664   8.250
 3298POPC   C3A 3665  26.864  23.677   7.950
 3298POPC   C4A 3666  26.852  23.726   7.650
 3298POPC   C1B 3667  27.039  23.801   8.550
 3298POPC   C2B 3668  27.052  23.827   8.250
 3298POPC   C3B 3669  26.982  23.841   7.950
 3298POPC   C4B 3670  27.008  23.843   7.650
 3299POPC   NC3 3671  41.524  41.597   9.450
 3299POPC   PO4 3672  41.518  41.549   9.150
 3299POPC   GL1 3673  41.551  41.570   8.850
 3299POPC   GL2 3674  41.513  41.692   8.850
 3299POPC   C1A 3675  41.518  41.518   8.550
 3299POPC   D2A 3676  41.526  41.588   8.250
 3299POPC   C3A 3677  41.513  41.548   7.950
 3299POPC   C4A 3678  41.534  41.524   7.650
 3299POPC   C1B 3679  41.441  41.767   8.550
 3299POPC   C2B 3680  41.438  41.765   8.250
 3299POPC   C3B 3681  41.454  41.783   7.950
 3299POPC   C4B 3682  41.378  41.781   7.650
 3300POPC   NC3 3683  23.711   4.348   9.450
 3300POPC   PO4 3684  23.678   4.341   9.150
 3300POPC   GL1 3685  23.677   4.270   8.850
 3300POPC   GL2 3686  23.576   4.262   8.850
 3300POPC   C1A 3687  23.678   4.297   8.550
 3300POPC   D2A 3688  23.759   4.355   8.250
 3300POPC   C3A 3689  23.668   4.278   7.950
 3300POPC   C4A 3690  23.705   4.301   7.650
 3300POPC   C1B 3691  23.469   4.187   8.550
 3300POPC   C2B 3692  23.470   4.212   8.250
 3300POPC   C3B 3693  23.504   4.207   7.950
 3300POPC   C4B 3694  23.523   4.237   7.650
 3301POPC   NC3 3695   1.964   2.736   9.450
 3301POPC   PO4 3696   2.002   2.809   9.150
 3301POPC   GL1 3697   2.028   2.800   8.850
 3301POPC   GL2 3698   1.892   2.790   8.850
 3301POPC   C1A 3699   2.000   2.806   8.550
 3301POPC   D2A 3700   2.032   2.774   8.250
 3301POPC   C3A 3701   2.020   2.808   7.950
 3301POPC   C4A 3702   2.019   2.722   7.650
 3301POPC   C1B 3703   1.735   2.938   8.550
 3301POPC   C2B 3704   1.768   2.875   8.250
 3301POPC   C3B 3705   1.729   2.860   7.950
 3301POPC   C4B 3706   1.768   2.876   7.650
 3302POPC   NC3 3707   5.045  42.341   9.450
 3302POPC   PO4 3708   5.067  42.371   9.150
 3302POPC   GL1 3709   5.112  42.306   8.850
 3302POPC   GL2 3710   5.131  42.452   8.850
 3302POPC   C1A 3711   5.105  42.322   8.550
 3302POPC   D2A 3712   5.073  42.326   8.250
 3302POPC   C3A 3713   5.081  42.316   7.950
 3302POPC   C4A 3714   5.103  42.364   7.650
 3302POPC   C1B 3715   5.231  42.501   8.550
 3302POPC   C2B 3716   5.270  42.588   8.250
 3302POPC   C3B 3717   5.199  42.566   7.950
 3302POPC   C4B 3718   5.228  42.548   7.650
 3303POPC   NC3 3719  13.634  43.124   9.450
 3303POPC   PO4 3720  13.601  43.131   9.150
 3303POPC   GL1 3721  13.651  43.148   8.850
 3303POPC   GL2 3722  13.549  43.162   8.850
 3303POPC   C1A 3723  13.653  43.115   8.550
 3303POPC   D2A 3724  13.580  43.136   8.250
 3303POPC   C3A 3725  13.670  43.098   7.950
 3303POPC   C4A 3726  13.658  43.101   7.650
 3303POPC   C1B 3727  13.469  43.304   8.550
 3303POPC   C2B 3728  13.435  43.255   8.250
 3303POPC   C3B 3729  13.427  43.278   7.950
 3303POPC   C4B 3730  13.459  43.344   7.650
 3304POPC   NC3 3731  36.087  21.365   9.450
 3304POPC   PO4 3732  36.120  21.390   9.150
 3304POPC   GL1 3733  36.110  21.389   8.850
 3304POPC   GL2 3734  36.127  21.551   8.850
 3304POPC   C1A 3735  36.137  21.386   8.550
 3304POPC   D2A 3736  36.133  21.396   8.250
 3304POPC   C3A 3737  36.080  21.340   7.950
 3304POPC   C4A 3738  36.133  21.433   7.650
 3304POPC   C1B 3739  36.008  21.588   8.550
 3304POPC   C2B 3740  35.988  21.657   8.250
 3304POPC   C3B 3741  36.067  21.621   7.950
 3304POPC   C4B 3742  36.067  21.640   7.650
 3305POPC   NC3 3743  17.528  33.792   9.450
 3305POPC   PO4 3744  17.548  33.766   9.150
 3305POPC   GL1 3745  17.480  33.822   8.850
 3305POPC   GL2 3746  17.557  33.707   8.850
 3305POPC   C1A 3747  17.538  33.777   8.550
 3305POPC   D2A 3748  17.503  33.846   8.250
 3305POPC   C3A 3749  17.515  33.791   7.950
 3305POPC   C4A 3750  17.473  33.821   7.650
 3305POPC   C1B 3751  17.718  33.639   8.550
 3305POPC   C2B 3752  17.753  33.653   8.250
 3305POPC   C3B 3753  17.752  33.681   7.950
 3305POPC   C4B 3754  17.729  33.652   7.650
 3306POPC   NC3 3755  31.517  15.219   9.450
 3306POPC   PO4 3756  31.484  15.145   9.150
 3306POPC   GL1 3757  31.486  15.140   8.850
 3306POPC   GL2 3758  31.336  15.172   8.850
 3306POPC   C1A 3759  31.425  15.154   8.550
 3306POPC   D2A 3760  31.502  15.217   8.250
 3306POPC   C3A 3761  31.438  15.214   7.950
 3306POPC   C4A 3762  31.513  15.162   7.650
 3306POPC   C1B 3763  31.298  15.076   8.550
 3306POPC   C2B 3764  31.251  15.109   8.250
 3306POPC   C3B 3765  31.251  15.078   7.950
 3306POPC   C4B 3766  31.220  15.046   7.650
 3307POPC   NC3 3767  15.199   0.471   9.450
 3307POPC   PO4 3768  15.211   0.446   9.150
 3307POPC   GL1 3769  15.198   0.447   8.850
 3307POPC   GL2 3770  15.079   0.550   8.850
 3307POPC   C1A 3771  15.152   0.417   8.550
 3307POPC   D2A 3772  15.207   0.473   8.250
 3307POPC   C3A 3773  15.160   0.448   7.950
 3307POPC   C4A 3774  15.155   0.416   7.650
 3307POPC   C1B 3775  15.035   0.560   8.550
 3307POPC   C2B 3776  14.965   0.608   8.250
 3307POPC   C3B 3777  15.031   0.550   7.950
 3307POPC   C4B 3778  14.971   0.579   7.650
 3308POPC   NC3 3779  37.717  43.875   9.450
 3308POPC   PO4 3780  37.705  43.904   9.150
 3308POPC   GL1 3781  37.666  43.917   8.850
 3308POPC   GL2 3782  37.642  43.761   8.850
 3308POPC   C1A 3783  37.695  43.933   8.550
 3308POPC   D2A 3784  37.665  43.876   8.250
 3308POPC   C3A 3785  37.725  43.875   7.950
 3308POPC   C4A 3786  37.719  43.926   7.650
 3308POPC   C1B 3787  37.527  43.717   8.550
 3308POPC   C2B 3788  37.584  43.706   8.250
 3308POPC   C3B 3789  37.524  43.708   7.950
 3308POPC   C4B 3790  37.550  43.678   7.650
 3309POPC   NC3 3791  44.632  11.344   9.450
 3309POPC   PO4 3792  44.681  11.326   9.150
 3309POPC   GL1 3793  44.641  11.310   8.850
 3309POPC   GL2 3794  44.695  11.179   8.850
 3309POPC   C1A 3795  44.638  11.317   8.550
 3309POPC   D2A 3796  44.675  11.323   8.250
 3309POPC   C3A 3797  44.632  11.285   7.950
 3309POPC   C4A 3798  44.687  11.250   7.650
 3309POPC   C1B 3799  44.665  11.046   8.550
 3309POPC   C2B 3800  44.707  11.094   8.250
 3309POPC   C3B 3801  44.716  11.006   7.950
 3309POPC   C4B 3802  44.709  11.099   7.650
 3310POPC   NC3 3803  36.168  36.121   9.450
 3310POPC   PO4 3804  36.138  36.133   9.150
 3310POPC   GL1 3805  36.166  36.158   8.850
 3310POPC   GL2 3806  36.054  36.209   8.850
 3310POPC   C1A 3807  36.086  36.097   8.550
 3310POPC   D2A 3808  36.158  36.102   8.250
 3310POPC   C3A 3809  36.121  36.151   7.950
 3310POPC   C4A 3810  36.154  36.160   7.650
 3310POPC   C1B 3811  36.095  36.406   8.550
 3310POPC   C2B 3812  36.119  36.397   8.250
 3310POPC   C3B 3813  36.077  36.413   7.950
 3310POPC   C4B 3814  36.102  36.383   7.650
 3311POPC   NC3 3815  31.426  19.047   9.450
 3311POPC   PO4 3816  31.521  19.068   9.150
 3311POPC   GL1 3817  31.485  19.048   8.850
 3311POPC   GL2 3818  31.426  19.197   8.850
 3311POPC   C1A 3819  31.475  19.087   8.550
 3311POPC   D2A 3820  31.472  19.100   8.250
 3311POPC   C3A 3821  31.450  19.060   7.950
 3311POPC   C4A 3822  31.518  19.044   7.650
 3311POPC   C1B 3823  31.419  19.279   8.550
 3311POPC   C2B 3824  31.369  19.264   8.250
 3311POPC   C3B 3825  31.377  19.274   7.950
 3311POPC   C4B 3826  31.406  19.343   7.650
 3312POPC   NC3 3827  22.148  37.688   9.450
 3312POPC   PO4 3828  22.159  37.717   9.150
 3312POPC   GL1 3829  22.211  37.650   8.850
 3312POPC   GL2 3830  22.037  37.659   8.850
 3312POPC   C1A 3831  22.198  37.723   8.550
 3312POPC   D2A 3832  22.117  37.692   8.250
 3312POPC   C3A 3833  22.181  37.723   7.950
 3312POPC   C4A 3834  22.122  37.721   7.650
 3312POPC   C1B 3835  21.903  37.628   8.550
 3312POPC   C2B 3836  21.912  37.668   8.250
 3312POPC   C3B 3837  21.893  37.637   7.950
 3312POPC   C4B 3838  21.896  37.616   7.650
 3313POPC   NC3 3839  16.780  10.476   9.450
 3313POPC   PO4 3840  16.751  10.542   9.150
 3313POPC   GL1 3841  16.724  10.509   8.850
 3313POPC   GL2 3842  16.811  10.534   8.850
 3313POPC   C1A 3843  16.781  10.485   8.550
 3313POPC   D2A 3844  16.776  10.493   8.250
 3313POPC   C3A 3845  16.751  10.539   7.950
 3313POPC   C4A 3846  16.748  10.566   7.650
 3313POPC   C1B 3847  16.954  10.599   8.550
 3313POPC   C2B 3848  16.930  10.600   8.250
 3313POPC   C3B 3849  16.975  10.617   7.950
 3313POPC   C4B 3850  16.966  10.631   7.650
 3314POPC   NC3 3851  33.024  40.793   9.450
 3314POPC   PO4 3852  33.001  40.802   9.150
 3314POPC   GL1 3853  33.051  40.746   8.850
 3314POPC   GL2 3854  32.895  40.874   8.850
 3314POPC   C1A 3855  32.983  40.733   8.550
 3314POPC   D2A 3856  32.984  40.753   8.250
 3314POPC   C3A 3857  33.009  40.756   7.950
 3314POPC   C4A 3858  33.066  40.777   7.650
 3314POPC   C1B 3859  32.787  40.890   8.550
 3314POPC   C2B 3860  32.809  40.884   8.250
 3314POPC   C3B 3861  32.834  40.920   7.950
 3314POPC   C4B 3862  32.778  40.895   7.650
 3315POPC   NC3 3863  31.445  26.026   9.450
 3315POPC   PO4 3864  31.516  26.079   9.150
 3315POPC   GL1 3865  31.479  26.066   8.850
 3315POPC   GL2 3866  31.375  25.947   8.850
 3315POPC   C1A 3867  31.424  26.010   8.550
 3315POPC   D2A 3868  31.506  26.060   8.250
 3315POPC   C3A 3869  31.500  26.012   7.950
 3315POPC   C4A 3870  31.440  25.994   7.650
 3315POPC   C1B 3871  31.314  25.862   8.550
 3315POPC   C2B 3872  31.347  25.808   8.250
 3315POPC   C3B 3873  31.327  25.825   7.950
 3315POPC   C4B 3874  31.381  25.800   7.650
 3316POPC   NC3 3875  39.188  31.471   9.450
 3316POPC   PO4 3876  39.268  31.504   9.150
 3316POPC   GL1 3877  39.259  31.426   8.850
 3316POPC   GL2 3878  39.143  31.429   8.850
 3316POPC   C1A 3879  39.277  31.489   8.550
 3316POPC   D2A 3880  39.254  31.471   8.250
 3316POPC   C3A 3881  39.252  31.460   7.950
 3316POPC   C4A 3882  39.269  31.496   7.650
 3316POPC   C1B 3883  39.019  31.276   8.550
 3316POPC   C2B 3884  39.058  31.288   8.250
 3316POPC   C3B 3885  39.060  31.295   7.950
 3316POPC   C4B 3886  39.086  31.315   7.650
 3317POPC   NC3 3887  41.519  38.501   9.450
 3317POPC   PO4 3888  41.560  38.467   9.150
 3317POPC   GL1 3889  41.541  38.425   8.850
 3317POPC   GL2 3890  41.483  38.493   8.850
 3317POPC   C1A 3891  41.539  38.501   8.550
 3317POPC   D2A 3892  41.548  38.417   8.250
 3317POPC   C3A 3893  41.556  38.410   7.950
 3317POPC   C4A 3894  41.575  38.451   7.650
 3317POPC   C1B 3895  41.328  38.496   8.550
 3317POPC   C2B 3896  41.306  38.436   8.250
 3317POPC   C3B 3897  41.271  38.420   7.950
 3317POPC   C4B 3898  41.288  38.448   7.650
 3318POPC   NC3 3899  44.639  19.051   9.450
 3318POPC   PO4 3900  44.680  19.021   9.150
 3318POPC   GL1 3901  44.632  19.106   8.850
 3318POPC   GL2 3902  44.676  19.163   8.850
 3318POPC   C1A 3903  44.701  19.055   8.550
 3318POPC   D2A 3904  44.705  19.026   8.250
 3318POPC   C3A 3905  44.656  19.021   7.950
 3318POPC   C4A 3906  44.644  19.027   7.650
 3318POPC   C1B 3907  44.573  19.282   8.550
 3318POPC   C2B 3908  44.617  19.294   8.250
 3318POPC   C3B 3909  44.653  19.295   7.950
 3318POPC   C4B 3910  44.589  19.343   7.650
 3319POPC   NC3 3911  44.645   2.023   9.450
 3319POPC   PO4 3912  44.615   2.017   9.150
 3319POPC   GL1 3913  44.684   2.023   8.850
 3319POPC   GL2 3914  44.635   1.882   8.850
 3319POPC   C1A 3915  44.664   2.010   8.550
 3319POPC   D2A 3916  44.615   1.987   8.250
 3319POPC   C3A 3917  44.649   1.977   7.950
 3319POPC   C4A 3918  44.710   1.974   7.650
 3319POPC   C1B 3919  44.645   1.772   8.550
 3319POPC   C2B 3920  44.576   1.796   8.250
 3319POPC   C3B 3921  44.630   1.771   7.950
 3319POPC   C4B 3922  44.584   1.736   7.650
 3320POPC   NC3 3923  15.931  30.739   9.450
 3320POPC   PO4 3924  15.945  30.660   9.150
 3320POPC   GL1 3925  15.952  30.659   8.850
 3320POPC   GL2 3926  16.109  30.662   8.850
 3320POPC   C1A 3927  15.909  30.664   8.550
 3320POPC   D2A 3928  15.933  30.681   8.250
 3320POPC   C3A 3929  15.997  30.717   7.950
 3320POPC   C4A 3930  15.966  30.703   7.650
 3320POPC   C1B 3931  16.173  30.605   8.550
 3320POPC   C2B 3932  16.214  30.524   8.250
 3320POPC   C3B 3933  16.209  30.548   7.950
 3320POPC   C4B 3934  16.132  30.597   7.650
 3321POPC   NC3 3935  16.760  35.350   9.450
 3321POPC   PO4 3936  16.724  35.341   9.150
 3321POPC   GL1 3937  16.700  35.318   8.850
 3321POPC   GL2 3938  16.757  35.280   8.850
 3321POPC   C1A 3939  16.692  35.330   8.550
 3321POPC   D2A 3940  16.727  35.366   8.250
 3321POPC   C3A 3941  16.780  35.392   7.950
 3321POPC   C4A 3942  16.762  35.335   7.650
 3321POPC   C1B 3943  16.902  35.120   8.550
 3321POPC   C2B 3944  16.917  35.112   8.250
 3321POPC   C3B 3945  16.830  35.106   7.950
 3321POPC   C4B 3946  16.852  35.104   7.650
 3322POPC   NC3 3947  26.807   9.775   9.450
 3322POPC   PO4 3948  26.788   9.721   9.150
 3322POPC   GL1 3949  26.838   9.713   8.850
 3322POPC   GL2 3950  26.991   9.703   8.850
 3322POPC   C1A 3951  26.832   9.711   8.550
 3322POPC   D2A 3952  26.828   9.750   8.250
 3322POPC   C3A 3953  26.799   9.785   7.950
 3322POPC   C4A 3954  26.848   9.717   7.650
 3322POPC   C1B 3955  27.117   9.718   8.550
 3322POPC   C2B 3956  27.081   9.748   8.250
 3322POPC   C3B 3957  27.115   9.683   7.950
 3322POPC   C4B 3958  27.038   9.706   7.650
 3323POPC   NC3 3959  40.029  21.346   9.450
 3323POPC   PO4 3960  40.032  21.392   9.150
 3323POPC   GL1 3961  40.021  21.399   8.850
 3323POPC   GL2 3962  40.129  21.464   8.850
 3323POPC   C1A 3963  39.995  21.429   8.550
 3323POPC   D2A 3964  39.972  21.348   8.250
 3323POPC   C3A 3965  40.028  21.381   7.950
 3323POPC   C4A 3966  40.020  21.412   7.650
 3323POPC   C1B 3967  40.233  21.465   8.550
 3323POPC   C2B 3968  40.248  21.473   8.250
 3323POPC   C3B 3969  40.198  21.536   7.950
 3323POPC   C4B 3970  40.201  21.489   7.650
 3324POPC   NC3 3971  40.736  16.749   9.450
 3324POPC   PO4 3972  40.799  16.690   9.150
 3324POPC   GL1 3973  40.792  16.699   8.850
 3324POPC   GL2 3974  40.700  16.729   8.850
 3324POPC   C1A 3975  40.806  16.728   8.550
 3324POPC   D2A 3976  40.804  16.771   8.250
 3324POPC   C3A 3977  40.793  16.771   7.950
 3324POPC   C4A 3978  40.733  16.715   7.650
 3324POPC   C1B 3979  40.508  16.727   8.550
 3324POPC   C2B 3980  40.510  16.752   8.250
 3324POPC   C3B 3981  40.544  16.767   7.950
 3324POPC   C4B 3982  40.495  16.695   7.650
 3325POPC   NC3 3983   2.813   8.990   9.450
 3325POPC   PO4 3984   2.725   9.006   9.150
 3325POPC   GL1 3985   2.786   8.975   8.850
 3325POPC   GL2 3986   2.625   9.025   8.850
 3325POPC   C1A 3987   2.768   9.001   8.550
 3325POPC   D2A 3988   2.739   8.991   8.250
 3325POPC   C3A 3989   2.721   8.933   7.950
 3325POPC   C4A 3990   2.785   8.934   7.650
 3325POPC   C1B 3991   2.487   9.061   8.550
 3325POPC   C2B 3992   2.539   9.086   8.250
 3325POPC   C3B 3993   2.506   9.059   7.950
 3325POPC   C4B 3994   2.539   9.037   7.650
 3326POPC   NC3 3995  11.284  32.238   9.450
 3326POPC   PO4 3996  11.271  32.237   9.150
 3326POPC   GL1 3997  11.311  32.260   8.850
 3326POPC   GL2 3998  11.325  32.395   8.850
 3326POPC   C1A 3999  11.265  32.234   8.550
 3326POPC   D2A 4000  11.275  32.207   8.250
 3326POPC   C3A 4001  11.254  32.216   7.950
 3326POPC   C4A 4002  11.305  32.249   7.650
 3326POPC   C1B 4003  11.244  32.460   8.550
 3326POPC   C2B 4004  11.220  32.514   8.250
 3326POPC   C3B 4005  11.244  32.485   7.950
 3326POPC   C4B 4006  11.315  32.492   7.650
 3327POPC   NC3 4007  39.255   2.028   9.450
 3327POPC   PO4 4008  39.222   1.988   9.150
 3327POPC   GL1 4009  39.231   1.962   8.850
 3327POPC   GL2 4010  39.309   1.911   8.850
 3327POPC   C1A 4011  39.249   1.950   8.550
 3327POPC   D2A 4012  39.233   2.033   8.250
 3327POPC   C3A 4013  39.216   2.029   7.950
 3327POPC   C4A 4014  39.255   1.944   7.650
 3327POPC   C1B 4015  39.411   1.856   8.550
 3327POPC   C2B 4016  39.456   1.838   8.250
 3327POPC   C3B 4017  39.412   1.902   7.950
 3327POPC   C4B 4018  39.456   1.826   7.650
 3328POPC   NC3 4019  14.435  40.768   9.450
 3328POPC   PO4 4020  14.390  40.760   9.150
 3328POPC   GL1 4021  14.419  40.825   8.850
 3328POPC   GL2 4022  14.426  40.644   8.850
 3328POPC   C1A 4023  14.430  40.751   8.550
 3328POPC   D2A 4024  14.358  40.779   8.250
 3328POPC   C3A 4025  14.427  40.822   7.950
 3328POPC   C4A 4026  14.379  40.795   7.650
 3328POPC   C1B 4027  14.331  40.543   8.550
 3328POPC   C2B 4028  14.404  40.506   8.250
 3328POPC   C3B 4029  14.365  40.585   7.950
 3328POPC   C4B 4030  14.375  40.579   7.650
 3329POPC   NC3 4031  19.075  23.695   9.450
 3329POPC   PO4 4032  19.012  23.729   9.150
 3329POPC   GL1 4033  19.083  23.677   8.850
 3329POPC   GL2 4034  19.133  23.587   8.850
 3329POPC   C1A 4035  19.024  23.761   8.550
 3329POPC   D2A 4036  19.083  23.668   8.250
 3329POPC   C3A 4037  19.013  23.730   7.950
 3329POPC   C4A 4038  19.033  23.748   7.650
 3329POPC   C1B 4039  19.128  23.481   8.550
 3329POPC   C2B 4040  19.095  23.450   8.250
 3329POPC   C3B 4041  19.179  23.524   7.950
 3329POPC   C4B 4042  19.177  23.500   7.650
 3330POPC   NC3 4043  17.524  26.056   9.450
 3330POPC   PO4 4044  17.494  26.082   9.150
 3330POPC   GL1 4045  17.549  26.057   8.850
 3330POPC   GL2 4046  17.402  25.949   8.850
 3330POPC   C1A 4047  17.531  26.011   8.550
 3330POPC   D2A 4048  17.543  26.026   8.250
 3330POPC   C3A 4049  17.512  26.025   7.950
 3330POPC   C4A 4050  17.468  26.024   7.650
 3330POPC   C1B 4051  17.385  25.870   8.550
 3330POPC   C2B 4052  17.375  25.836   8.250
 3330POPC   C3B 4053  17.320  25.841   7.950
 3330POPC   C4B 4054  17.356  25.801   7.650
 3331POPC   NC3 4055  28.387  32.264   9.450
 3331POPC   PO4 4056  28.319  32.255   9.150
 3331POPC   GL1 4057  28.324  32.273   8.850
 3331POPC   GL2 4058  28.347  32.333   8.850
 3331POPC   C1A 4059  28.333  32.258   8.550
 3331POPC   D2A 4060  28.332  32.260   8.250
 3331POPC   C3A 4061  28.382  32.235   7.950
 3331POPC   C4A 4062  28.379  32.212   7.650
 3331POPC   C1B 4063  28.199  32.436   8.550
 3331POPC   C2B 4064  28.223  32.425   8.250
 3331POPC   C3B 4065  28.206  32.411   7.950
 3331POPC   C4B 4066  28.247  32.487   7.650
 3332POPC   NC3 4067  43.929  31.447   9.450
 3332POPC   PO4 4068  43.903  31.509   9.150
 3332POPC   GL1 4069  43.887  31.514   8.850
 3332POPC   GL2 4070  43.953  31.508   8.850
 3332POPC   C1A 4071  43.880  31.500   8.550
 3332POPC   D2A 4072  43.854  31.468   8.250
 3332POPC   C3A 4073  43.843  31.511   7.950
 3332POPC   C4A 4074  43.875  31.437   7.650
 3332POPC   C1B 4075  44.101  31.627   8.550
 3332POPC   C2B 4076  44.089  31.634   8.250
 3332POPC   C3B 4077  44.079  31.624   7.950
 3332POPC   C4B 4078  44.059  31.615   7.650
 3333POPC   NC3 4079  32.270  23.682   9.450
 3333POPC   PO4 4080  32.287  23.676   9.150
 3333POPC   GL1 4081  32.255  23.698   8.850
 3333POPC   GL2 4082  32.331  23.723   8.850
 3333POPC   C1A 4083  32.279  23.671   8.550
 3333POPC   D2A 4084  32.220  23.749   8.250
 3333POPC   C3A 4085  32.212  23.680   7.950
 3333POPC   C4A 4086  32.209  23.725   7.650
 3333POPC   C1B 4087  32.461  23.733   8.550
 3333POPC   C2B 4088  32.491  23.750   8.250
 3333POPC   C3B 4089  32.478  23.759   7.950
 3333POPC   C4B 4090  32.503  23.719   7.650
 3334POPC   NC3 4091  29.178  36.856   9.450
 3334POPC   PO4 4092  29.179  36.937   9.150
 3334POPC   GL1 4093  29.096  36.915   8.850
 3334POPC   GL2 4094  29.160  37.056   8.850
 3334POPC   C1A 4095  29.109  36.946   8.550
 3334POPC   D2A 4096  29.185  36.857   8.250
 3334POPC   C3A 4097  29.112  36.900   7.950
 3334POPC   C4A 4098  29.098  36.951   7.650
 3334POPC   C1B 4099  29.250  37.163   8.550
 3334POPC   C2B 4100  29.194  37.163   8.250
 3334POPC   C3B 4101  29.164  37.097   7.950
 3334POPC   C4B 4102  29.236  37.099   7.650
 3335POPC   NC3 4103  14.435   0.398   9.450
 3335POPC   PO4 4104  14.382   0.410   9.150
 3335POPC   GL1 4105  14.380   0.445   8.850
 3335POPC   GL2 4106  14.341   0.301   8.850
 3335POPC   C1A 4107  14.415   0.459   8.550
 3335POPC   D2A 4108  14.426   0.477   8.250
 3335POPC   C3A 4109  14.418   0.484   7.950
 3335POPC   C4A 4110  14.356   0.423   7.650
 3335POPC   C1B 4111  14.309   0.216   8.550
 3335POPC   C2B 4112  14.334   0.240   8.250
 3335POPC   C3B 4113  14.300   0.173   7.950
 3335POPC   C4B 4114  14.307   0.173   7.650
 3336POPC   NC3 4115  44.640  23.698   9.450
 3336POPC   PO4 4116  44.650  23.720   9.150
 3336POPC   GL1 4117  44.658  23.712   8.850
 3336POPC   GL2 4118  44.803  23.622   8.850
 3336POPC   C1A 4119  44.662  23.715   8.550
 3336POPC   D2A 4120  44.655  23.722   8.250
 3336POPC   C3A 4121  44.696  23.698   7.950
 3336POPC   C4A 4122  44.619  23.680   7.650
 3336POPC   C1B 4123  44.927  23.632   8.550
 3336POPC   C2B 4124  44.908  23.553   8.250
 3336POPC   C3B 4125  44.925  23.626   7.950
 3336POPC   C4B 4126  44.922  23.548   7.650
 3337POPC   NC3 4127  26.838   2.764   9.450
 3337POPC   PO4 4128  26.847   2.804   9.150
 3337POPC   GL1 4129  26.835   2.724   8.850
 3337POPC   GL2 4130  26.951   2.789   8.850
 3337POPC   C1A 4131  26.769   2.786   8.550
 3337POPC   D2A 4132  26.780   2.766   8.250
 3337POPC   C3A 4133  26.835   2.744   7.950
 3337POPC   C4A 4134  26.792   2.749   7.650
 3337POPC   C1B 4135  27.035   2.840   8.550
 3337POPC   C2B 4136  27.025   2.830   8.250
 3337POPC   C3B 4137  27.059   2.859   7.950
 3337POPC   C4B 4138  27.110   2.848   7.650
 3338POPC   NC3 4139  12.836  22.143   9.450
 3338POPC   PO4 4140  12.838  22.198   9.150
 3338POPC   GL1 4141  12.823  22.199   8.850
 3338POPC   GL2 4142  12.819  22.058   8.850
 3338POPC   C1A 4143  12.876  22.151   8.550
 3338POPC   D2A 4144  12.832  22.179   8.250
 3338POPC   C3A 4145  12.823  22.159   7.950
 3338POPC   C4A 4146  12.866  22.184   7.650
 3338POPC   C1B 4147  12.731  21.927   8.550
 3338POPC   C2B 4148  12.732  21.911   8.250
 3338POPC   C3B 4149  12.746  21.941   7.950
 3338POPC   C4B 4150  12.756  21.928   7.650
 3339POPC   NC3 4151  42.372  39.972   9.450
 3339POPC   PO4 4152  42.344  40.045   9.150
 3339POPC   GL1 4153  42.299  40.042   8.850
 3339POPC   GL2 4154  42.503  40.006   8.850
 3339POPC   C1A 4155  42.379  40.052   8.550
 3339POPC   D2A 4156  42.324  40.046   8.250
 3339POPC   C3A 4157  42.323  39.990   7.950
 3339POPC   C4A 4158  42.312  40.028   7.650
 3339POPC   C1B 4159  42.538  40.027   8.550
 3339POPC   C2B 4160  42.598  39.980   8.250
 3339POPC   C3B 4161  42.553  40.014   7.950
 3339POPC   C4B 4162  42.605  39.949   7.650
 3340POPC   NC3 4163  29.099  32.977   9.450
 3340POPC   PO4 4164  29.160  33.061   9.150
 3340POPC   GL1 4165  29.140  32.989   8.850
 3340POPC   GL2 4166  29.093  33.137   8.850
 3340POPC   C1A 4167  29.096  33.010   8.550
 3340POPC   D2A 4168  29.112  32.976   8.250
 3340POPC   C3A 4169  29.173  33.003   7.950
 3340POPC   C4A 4170  29.104  32.979   7.650
 3340POPC   C1B 4171  28.966  33.204   8.550
 3340POPC   C2B 4172  29.018  33.262   8.250
 3340POPC   C3B 4173  28.985  33.198   7.950
 3340POPC   C4B 4174  28.999  33.207   7.650
 3341POPC   NC3 4175  36.910  25.218   9.450
 3341POPC   PO4 4176  36.868  25.246   9.150
 3341POPC   GL1 4177  36.905  25.291   8.850
 3341POPC   GL2 4178  36.851  25.092   8.850
 3341POPC   C1A 4179  36.940  25.266   8.550
 3341POPC   D2A 4180  36.926  25.295   8.250
 3341POPC   C3A 4181  36.878  25.281   7.950
 3341POPC   C4A 4182  36.920  25.301   7.650
 3341POPC   C1B 4183  36.898  25.039   8.550
 3341POPC   C2B 4184  36.883  24.976   8.250
 3341POPC   C3B 4185  36.844  24.993   7.950
 3341POPC   C4B 4186  36.920  25.040   7.650
 3342POPC   NC3 4187  17.495   1.943   9.450
 3342POPC   PO4 4188  17.528   2.013   9.150
 3342POPC   GL1 4189  17.472   1.970   8.850
 3342POPC   GL2 4190  17.529   1.882   8.850
 3342POPC   C1A 4191  17.554   1.947   8.550
 3342POPC   D2A 4192  17.493   1.952   8.250
 3342POPC   C3A 4193  17.482   1.984   7.950
 3342POPC   C4A 4194  17.463   1.992   7.650
 3342POPC   C1B 4195  17.652   1.820   8.550
 3342POPC   C2B 4196  17.654   1.787   8.250
 3342POPC   C3B 4197  17.668   1.811   7.950
 3342POPC   C4B 4198  17.631   1.763   7.650
 3343POPC   NC3 4199  15.957  36.883   9.450
 3343POPC   PO4 4200  15.979  36.928   9.150
 3343POPC   GL1 4201  15.913  36.891   8.850
 3343POPC   GL2 4202  15.968  36.740   8.850
 3343POPC   C1A 4203  15.924  36.931   8.550
 3343POPC   D2A 4204  15.979  36.931   8.250
 3343POPC   C3A 4205  15.954  36.949   7.950
 3343POPC   C4A 4206  15.965  36.932   7.650
 3343POPC   C1B 4207  16.036  36.685   8.550
 3343POPC   C2B 4208  16.094  36.687   8.250
 3343POPC   C3B 4209  16.100  36.699   7.950
 3343POPC   C4B 4210  16.018  36.709   7.650
 3344POPC   NC3 4211   8.926  15.929   9.450
 3344POPC   PO4 4212   8.982  15.924   9.150
 3344POPC   GL1 4213   8.978  15.927   8.850
 3344POPC   GL2 4214   9.044  15.982   8.850
 3344POPC   C1A 4215   8.995  15.986   8.550
 3344POPC   D2A 4216   8.952  15.945   8.250
 3344POPC   C3A 4217   8.990  15.993   7.950
 3344POPC   C4A 4218   8.933  15.946   7.650
 3344POPC   C1B 4219   9.199  15.977   8.550
 3344POPC   C2B 4220   9.177  16.035   8.250
 3344POPC   C3B 4221   9.236  16.044   7.950
 3344POPC   C4B 4222   9.234  15.967   7.650
 3345POPC   NC3 4223  26.810  26.082   9.450
 3345POPC   PO4 4224  26.781  26.023   9.150
 3345POPC   GL1 4225  26.767  26.048   8.850
 3345POPC   GL2 4226  26.663  26.080   8.850
 3345POPC   C1A 4227  26.819  26.027   8.550
 3345POPC   D2A 4228  26.800  26.013   8.250
 3345POPC   C3A 4229  26.767  26.016   7.950
 3345POPC   C4A 4230  26.809  26.068   7.650
 3345POPC   C1B 4231  26.595  26.024   8.550
 3345POPC   C2B 4232  26.587  26.110   8.250
 3345POPC   C3B 4233  26.571  26.106   7.950
 3345POPC   C4B 4234  26.591  26.091   7.650
 3346POPC   NC3 4235   3.515  38.424   9.450
 3346POPC   PO4 4236   3.530  38.466   9.150
 3346POPC   GL1 4237   3.552  38.406   8.850
 3346POPC   GL2 4238   3.574  38.573   8.850
 3346POPC   C1A 4239   3.549  38.448   8.550
 3346POPC   D2A 4240   3.518  38.498   8.250
 3346POPC   C3A 4241   3.545  38.438   7.950
 3346POPC   C4A 4242   3.589  38.482   7.650
 3346POPC   C1B 4243   3.573  38.686   8.550
 3346POPC   C2B 4244   3.510  38.683   8.250
 3346POPC   C3B 4245   3.519  38.739   7.950
 3346POPC   C4B 4246   3.523  38.658   7.650
 3347POPC   NC3 4247  38.417   5.848   9.450
 3347POPC   PO4 4248  38.460   5.896   9.150
 3347POPC   GL1 4249  38.419   5.834   8.850
 3347POPC   GL2 4250  38.522   5.702   8.850
 3347POPC   C1A 4251  38.473   5.840   8.550
 3347POPC   D2A 4252  38.415   5.890   8.250
 3347POPC   C3A 4253  38.438   5.916   7.950
 3347POPC   C4A 4254  38.490   5.897   7.650
 3347POPC   C1B 4255  38.466   5.644   8.550
 3347POPC   C2B 4256  38.543   5.583   8.250
 3347POPC   C3B 4257  38.454   5.665   7.950
 3347POPC   C4B 4258  38.530   5.581   7.650
 3348POPC   NC3 4259  23.743   3.512   9.450
 3348POPC   PO4 4260  23.708   3.507   9.150
 3348POPC   GL1 4261  23.676   3.524   8.850
 3348POPC   GL2 4262  23.733   3.652   8.850
 3348POPC   C1A 4263  23.753   3.581   8.550
 3348POPC   D2A 4264  23.761   3.542   8.250
 3348POPC   C3A 4265  23.748   3.559   7.950
 3348POPC   C4A 4266  23.736   3.588   7.650
 3348POPC   C1B 4267  23.807   3.781   8.550
 3348POPC   C2B 4268  23.798   3.759   8.250
 3348POPC   C3B 4269  23.789   3.760   7.950
 3348POPC   C4B 4270  23.777   3.768   7.650
 3349POPC   NC3 4271  43.857  23.742   9.450
 3349POPC   PO4 4272  43.871  23.744   9.150
 3349POPC   GL1 4273  43.905  23.738   8.850
 3349POPC   GL2 4274  43.758  23.718   8.850
 3349POPC   C1A 4275  43.866  23.742   8.550
 3349POPC   D2A 4276  43.850  23.723   8.250
 3349POPC   C3A 4277  43.852  23.682   7.950
 3349POPC   C4A 4278  43.883  23.719   7.650
 3349POPC   C1B 4279  43.601  23.794   8.550
 3349POPC   C2B 4280  43.682  23.752   8.250
 3349POPC   C3B 4281  43.664  23.754   7.950
 3349POPC   C4B 4282  43.607  23.707   7.650
 3350POPC   NC3 4283  15.145  43.919   9.450
 3350POPC   PO4 4284  15.136  43.851   9.150
 3350POPC   GL1 4285  15.188  43.891   8.850
 3350POPC   GL2 4286  15.179  43.773   8.850
 3350POPC   C1A 4287  15.219  43.878   8.550
 3350POPC   D2A 4288  15.209  43.846   8.250
 3350POPC   C3A 4289  15.214  43.925   7.950
 3350POPC   C4A 4290  15.171  43.896   7.650
 3350POPC   C1B 4291  15.200  43.607   8.550
 3350POPC   C2B 4292  15.199  43.686   8.250
 3350POPC   C3B 4293  15.159  43.651   7.950
 3350POPC   C4B 4294  15.205  43.625   7.650
 3351POPC   NC3 4295  42.379  20.638   9.450
 3351POPC   PO4 4296  42.341  20.622   9.150
 3351POPC   GL1 4297  42.324  20.583   8.850
 3351POPC   GL2 4298  42.318  20.764   8.850
 3351POPC   C1A 4299  42.302  20.632   8.550
 3351POPC   D2A 4300  42.319  20.622   8.250
 3351POPC   C3A 4301  42.296  20.634   7.950
 3351POPC   C4A 4302  42.353  20.620   7.650
 3351POPC   C1B 4303  42.359  20.898   8.550
 3351POPC   C2B 4304  42.334  20.815   8.250
 3351POPC   C3B 4305  42.388  20.839   7.950
 3351POPC   C4B 4306  42.376  20.885   7.650
 3352POPC   NC3 4307  27.549   1.991   9.450
 3352POPC   PO4 4308  27.615   2.025   9.150
 3352POPC   GL1 4309  27.618   2.003   8.850
 3352POPC   GL2 4310  27.624   1.865   8.850
 3352POPC   C1A 4311  27.546   1.992   8.550
 3352POPC   D2A 4312  27.618   1.971   8.250
 3352POPC   C3A 4313  27.602   1.992   7.950
 3352POPC   C4A 4314  27.629   1.974   7.650
 3352POPC   C1B 4315  27.681   1.745   8.550
 3352POPC   C2B 4316  27.683   1.713   8.250
 3352POPC   C3B 4317  27.624   1.759   7.950
 3352POPC   C4B 4318  27.673   1.775   7.650
 3353POPC   NC3 4319  33.013   5.069   9.450
 3353POPC   PO4 4320  33.035   5.096   9.150
 3353POPC   GL1 4321  33.035   5.089   8.850
 3353POPC   GL2 4322  33.047   4.951   8.850
 3353POPC   C1A 4323  33.072   5.126   8.550
 3353POPC   D2A 4324  33.012   5.105   8.250
 3353POPC   C3A 4325  33.052   5.117   7.950
 3353POPC   C4A 4326  32.981   5.054   7.650
 3353POPC   C1B 4327  33.144   4.857   8.550
 3353POPC   C2B 4328  33.173   4.896   8.250
 3353POPC   C3B 4329  33.088   4.897   7.950
 3353POPC   C4B 4330  33.087   4.855   7.650
 3354POPC   NC3 4331  15.933  38.456   9.450
 3354POPC   PO4 4332  15.912  38.461   9.150
 3354POPC   GL1 4333  15.958  38.420   8.850
 3354POPC   GL2 4334  16.097  38.516   8.850
 3354POPC   C1A 4335  15.954  38.487   8.550
 3354POPC   D2A 4336  15.910  38.453   8.250
 3354POPC   C3A 4337  15.995  38.466   7.950
 3354POPC   C4A 4338  15.910  38.478   7.650
 3354POPC   C1B 4339  16.164  38.601   8.550
 3354POPC   C2B 4340  16.144  38.545   8.250
 3354POPC   C3B 4341  16.210  38.550   7.950
 3354POPC   C4B 4342  16.214  38.613   7.650
 3355POPC   NC3 4343  12.896  30.729   9.450
 3355POPC   PO4 4344  12.805  30.738   9.150
 3355POPC   GL1 4345  12.828  30.741   8.850
 3355POPC   GL2 4346  12.761  30.737   8.850
 3355POPC   C1A 4347  12.894  30.688   8.550
 3355POPC   D2A 4348  12.900  30.689   8.250
 3355POPC   C3A 4349  12.808  30.706   7.950
 3355POPC   C4A 4350  12.863  30.719   7.650
 3355POPC   C1B 4351  12.597  30.723   8.550
 3355POPC   C2B 4352  12.625  30.678   8.250
 3355POPC   C3B 4353  12.557  30.669   7.950
 3355POPC   C4B 4354  12.554  30.681   7.650
 3356POPC   NC3 4355   9.790  33.070   9.450
 3356POPC   PO4 4356   9.798  32.979   9.150
 3356POPC   GL1 4357   9.790  33.051   8.850
 3356POPC   GL2 4358   9.841  32.958   8.850
 3356POPC   C1A 4359   9.798  33.008   8.550
 3356POPC   D2A 4360   9.769  33.070   8.250
 3356POPC   C3A 4361   9.776  32.979   7.950
 3356POPC   C4A 4362   9.774  32.999   7.650
 3356POPC   C1B 4363   9.905  32.863   8.550
 3356POPC   C2B 4364   9.961  32.867   8.250
 3356POPC   C3B 4365   9.900  32.834   7.950
 3356POPC   C4B 4366   9.917  32.824   7.650
 3357POPC   NC3 4367   1.261   8.243   9.450
 3357POPC   PO4 4368   1.237   8.185   9.150
 3357POPC   GL1 4369   1.168   8.244   8.850
 3357POPC   GL2 4370   1.083   8.068   8.850
 3357POPC   C1A 4371   1.182   8.159   8.550
 3357POPC   D2A 4372   1.245   8.240   8.250
 3357POPC   C3A 4373   1.189   8.148   7.950
 3357POPC   C4A 4374   1.200   8.157   7.650
 3357POPC   C1B 4375   1.039   7.987   8.550
 3357POPC   C2B 4376   1.042   8.048   8.250
 3357POPC   C3B 4377   1.003   8.039   7.950
 3357POPC   C4B 4378   1.048   8.036   7.650
 3358POPC   NC3 4379  11.345  36.143   9.450
 3358POPC   PO4 4380  11.293  36.092   9.150
 3358POPC   GL1 4381  11.316  36.159   8.850
 3358POPC   GL2 4382  11.335  35.955   8.850
 3358POPC   C1A 4383  11.256  36.103   8.550
 3358POPC   D2A 4384  11.252  36.110   8.250
 3358POPC   C3A 4385  11.276  36.125   7.950
 3358POPC   C4A 4386  11.307  36.139   7.650
 3358POPC   C1B 4387  11.319  35.873   8.550
 3358POPC   C2B 4388  11.334  35.877   8.250
 3358POPC   C3B 4389  11.304  35.857   7.950
 3358POPC   C4B 4390  11.330  35.912   7.650
 3359POPC   NC3 4391  36.854  20.572   9.450
 3359POPC   PO4 4392  36.865  20.641   9.150
 3359POPC   GL1 4393  36.919  20.655   8.850
 3359POPC   GL2 4394  36.972  20.456   8.850
 3359POPC   C1A 4395  36.875  20.569   8.550
 3359POPC   D2A 4396  36.875  20.630   8.250
 3359POPC   C3A 4397  36.902  20.586   7.950
 3359POPC   C4A 4398  36.915  20.583   7.650
 3359POPC   C1B 4399  36.959  20.371   8.550
 3359POPC   C2B 4400  37.023  20.399   8.250
 3359POPC   C3B 4401  36.967  20.349   7.950
 3359POPC   C4B 4402  36.987  20.362   7.650
 3360POPC   NC3 4403  39.211  35.306   9.450
 3360POPC   PO4 4404  39.204  35.317   9.150
 3360POPC   GL1 4405  39.250  35.365   8.850
 3360POPC   GL2 4406  39.271  35.485   8.850
 3360POPC   C1A 4407  39.255  35.307   8.550
 3360POPC   D2A 4408  39.204  35.307   8.250
 3360POPC   C3A 4409  39.184  35.310   7.950
 3360POPC   C4A 4410  39.211  35.318   7.650
 3360POPC   C1B 4411  39.225  35.583   8.550
 3360POPC   C2B 4412  39.243  35.647   8.250
 3360POPC   C3B 4413  39.268  35.582   7.950
 3360POPC   C4B 4414  39.209  35.569   7.650
 3361POPC   NC3 4415  36.902  30.666   9.450
 3361POPC   PO4 4416  36.868  30.717   9.150
 3361POPC   GL1 4417  36.948  30.735   8.850
 3361POPC   GL2 4418  36.919  30.848   8.850
 3361POPC   C1A 4419  36.854  30.698   8.550
 3361POPC   D2A 4420  36.918  30.663   8.250
 3361POPC   C3A 4421  36.952  30.721   7.950
 3361POPC   C4A 4422  36.948  30.686   7.650
 3361POPC   C1B 4423  37.041  30.914   8.550
 3361POPC   C2B 4424  36.980  30.949   8.250
 3361POPC   C3B 4425  36.970  30.946   7.950
 3361POPC   C4B 4426  37.005  30.886   7.650
 3362POPC   NC3 4427  24.452  10.485   9.450
 3362POPC   PO4 4428  24.478  10.563   9.150
 3362POPC   GL1 4429  24.526  10.532   8.850
 3362POPC   GL2 4430  24.400  10.488   8.850
 3362POPC   C1A 4431  24.498  10.521   8.550
 3362POPC   D2A 4432  24.467  10.491   8.250
 3362POPC   C3A 4433  24.539  10.523   7.950
 3362POPC   C4A 4434  24.464  10.569   7.650
 3362POPC   C1B 4435  24.247  10.514   8.550
 3362POPC   C2B 4436  24.255  10.503   8.250
 3362POPC   C3B 4437  24.222  10.464   7.950
 3362POPC   C4B 4438  24.212  10.535   7.650
 3363POPC   NC3 4439   5.123  33.772   9.450
 3363POPC   PO4 4440   5.095  33.780   9.150
 3363POPC   GL1 4441   5.071  33.763   8.850
 3363POPC   GL2 4442   4.972  33.782   8.850
 3363POPC   C1A 4443   5.088  33.831   8.550
 3363POPC   D2A 4444   5.134  33.779   8.250
 3363POPC   C3A 4445   5.085  33.777   7.950
 3363POPC   C4A 4446   5.085  33.833   7.650
 3363POPC   C1B 4447   4.910  33.683   8.550
 3363POPC   C2B 4448   4.868  33.729   8.250
 3363POPC   C3B 4449   4.862  33.706   7.950
 3363POPC   C4B 4450   4.851  33.675   7.650
 3364POPC   NC3 4451  14.422  43.113   9.450
 3364POPC   PO4 4452  14.367  43.142   9.150
 3364POPC   GL1 4453  14.441  43.113   8.850
 3364POPC   GL2 4454  14.287  43.143   8.850
 3364POPC   C1A 4455  14.390  43.121   8.550
 3364POPC   D2A 4456  14.408  43.061   8.250
 3364POPC   C3A 4457  14.437  43.073   7.950
 3364POPC   C4A 4458  14.404  43.148   7.650
 3364POPC   C1B 4459  14.119  43.144   8.550
 3364POPC   C2B 4460  14.161  43.153   8.250
 3364POPC   C3B 4461  14.147  43.090   7.950
 3364POPC   C4B 4462  14.123  43.124   7.650
 3365POPC   NC3 4463   6.654  35.369   9.450
 3365POPC   PO4 4464   6.686  35.394   9.150
 3365POPC   GL1 4465   6.688  35.367   8.850
 3365POPC   GL2 4466   6.490  35.379   8.850
 3365POPC   C1A 4467   6.647  35.317   8.550
 3365POPC   D2A 4468   6.658  35.308   8.250
 3365POPC   C3A 4469   6.678  35.344   7.950
 3365POPC   C4A 4470   6.620  35.377   7.650
 3365POPC   C1B 4471   6.356  35.377   8.550
 3365POPC   C2B 4472   6.382  35.430   8.250
 3365POPC   C3B 4473   6.421  35.404   7.950
 3365POPC   C4B 4474   6.443  35.433   7.650
 3366POPC   NC3 4475  37.650  35.351   9.450
 3366POPC   PO4 4476  37.718  35.396   9.150
 3366POPC   GL1 4477  37.708  35.378   8.850
 3366POPC   GL2 4478  37.716  35.219   8.850
 3366POPC   C1A 4479  37.663  35.312   8.550
 3366POPC   D2A 4480  37.682  35.309   8.250
 3366POPC   C3A 4481  37.676  35.397   7.950
 3366POPC   C4A 4482  37.649  35.401   7.650
 3366POPC   C1B 4483  37.704  35.096   8.550
 3366POPC   C2B 4484  37.685  35.147   8.250
 3366POPC   C3B 4485  37.712  35.057   7.950
 3366POPC   C4B 4486  37.696  35.147   7.650
 3367POPC   NC3 4487  15.965  33.035   9.450
 3367POPC   PO4 4488  15.977  33.013   9.150
 3367POPC   GL1 4489  15.982  33.042   8.850
 3367POPC   GL2 4490  15.929  33.168   8.850
 3367POPC   C1A 4491  15.911  33.051   8.550
 3367POPC   D2A 4492  15.907  33.066   8.250
 3367POPC   C3A 4493  15.933  32.997   7.950
 3367POPC   C4A 4494  15.945  33.071   7.650
 3367POPC   C1B 4495  15.840  33.209   8.550
 3367POPC   C2B 4496  15.836  33.205   8.250
 3367POPC   C3B 4497  15.808  33.250   7.950
 3367POPC   C4B 4498  15.804  33.238   7.650
 3368POPC   NC3 4499   6.657  11.274   9.450
 3368POPC   PO4 4500   6.661  11.284   9.150
 3368POPC   GL1 4501   6.623  11.252   8.850
 3368POPC   GL2 4502   6.533  11.324   8.850
 3368POPC   C1A 4503   6.600  11.296   8.550
 3368POPC   D2A 4504   6.677  11.343   8.250
 3368POPC   C3A 4505   6.673  11.260   7.950
 3368POPC   C4A 4506   6.597  11.257   7.650
 3368POPC   C1B 4507   6.417  11.469   8.550
 3368POPC   C2B 4508   6.412  11.421   8.250
 3368POPC   C3B 4509   6.444  11.408   7.950
 3368POPC   C4B 4510   6.431  11.408   7.650
 3369POPC   NC3 4511  19.009  40.757   9.450
 3369POPC   PO4 4512  19.045  40.788   9.150
 3369POPC   GL1 4513  19.034  40.772   8.850
 3369POPC   GL2 4514  18.966  40.683   8.850
 3369POPC   C1A 4515  19.090  40.758   8.550
 3369POPC   D2A 4516  19.040  40.775   8.250
 3369POPC   C3A 4517  19.032  40.749   7.950
 3369POPC   C4A 4518  19.026  40.793   7.650
 3369POPC   C1B 4519  18.885  40.695   8.550
 3369POPC   C2B 4520  18.859  40.642   8.250
 3369POPC   C3B 4521  18.800  40.643   7.950
 3369POPC   C4B 4522  18.819  40.621   7.650
 3370POPC   NC3 4523  10.573  21.428   9.450
 3370POPC   PO4 4524  10.487  21.359   9.150
 3370POPC   GL1 4525  10.537  21.401   8.850
 3370POPC   GL2 4526  10.559  21.250   8.850
 3370POPC   C1A 4527  10.528  21.380   8.550
 3370POPC   D2A 4528  10.491  21.402   8.250
 3370POPC   C3A 4529  10.528  21.411   7.950
 3370POPC   C4A 4530  10.536  21.419   7.650
 3370POPC   C1B 4531  10.602  21.155   8.550
 3370POPC   C2B 4532  10.636  21.148   8.250
 3370POPC   C3B 4533  10.617  21.167   7.950
 3370POPC   C4B 4534  10.651  21.122   7.650
 3371POPC   NC3 4535  15.137  37.691   9.450
 3371POPC   PO4 4536  15.205  37.701   9.150
 3371POPC   GL1 4537  15.196  37.648   8.850
 3371POPC   GL2 4538  15.276  37.694   8.850
 3371POPC   C1A 4539  15.134  37.671   8.550
 3371POPC   D2A 4540  15.162  37.636   8.250
 3371POPC   C3A 4541  15.197  37.647   7.950
 3371POPC   C4A 4542  15.154  37.700   7.650
 3371POPC   C1B 4543  15.428  37.662   8.550
 3371POPC   C2B 4544  15.386  37.632   8.250
 3371POPC   C3B 4545  15.468  37.634   7.950
 3371POPC   C4B 4546  15.468  37.627   7.650
 3372POPC   NC3 4547  25.228  44.665   9.450
 3372POPC   PO4 4548  25.217  44.668   9.150
 3372POPC   GL1 4549  25.302  44.641   8.850
 3372POPC   GL2 4550  25.290  44.767   8.850
 3372POPC   C1A 4551  25.311  44.687   8.550
 3372POPC   D2A 4552  25.300  44.694   8.250
 3372POPC   C3A 4553  25.250  44.673   7.950
 3372POPC   C4A 4554  25.292  44.644   7.650
 3372POPC   C1B 4555  25.304  44.933   8.550
 3372POPC   C2B 4556  25.304  44.905   8.250
 3372POPC   C3B 4557  25.332  44.893   7.950
 3372POPC   C4B 4558  25.301  44.949   7.650
 3373POPC   NC3 4559  40.777  15.917   9.450
 3373POPC   PO4 4560  40.746  15.954   9.150
 3373POPC   GL1 4561  40.789  15.941   8.850
 3373POPC   GL2 4562  40.639  15.881   8.850
 3373POPC   C1A 4563  40.748  15.985   8.550
 3373POPC   D2A 4564  40.736  15.997   8.250
 3373POPC   C3A 4565  40.774  15.971   7.950
 3373POPC   C4A 4566  40.793  15.989   7.650
 3373POPC   C1B 4567  40.616  15.802   8.550
 3373POPC   C2B 4568  40.562  15.777   8.250
 3373POPC   C3B 4569  40.537  15.810   7.950
 3373POPC   C4B 4570  40.591  15.793   7.650
 3374POPC   NC3 4571  12.032  33.062   9.450
 3374POPC   PO4 4572  12.107  33.013   9.150
 3374POPC   GL1 4573  12.059  32.996   8.850
 3374POPC   GL2 4574  12.196  33.137   8.850
 3374POPC   C1A 4575  12.117  33.013   8.550
 3374POPC   D2A 4576  12.070  33.053   8.250
 3374POPC   C3A 4577  12.073  33.070   7.950
 3374POPC   C4A 4578  12.121  33.038   7.650
 3374POPC   C1B 4579  12.255  33.193   8.550
 3374POPC   C2B 4580  12.281  33.187   8.250
 3374POPC   C3B 4581  12.218  33.178   7.950
 3374POPC   C4B 4582  12.210  33.252   7.650
 3375POPC   NC3 4583   1.959  42.293   9.450
 3375POPC   PO4 4584   1.967  42.370   9.150
 3375POPC   GL1 4585   2.016  42.382   8.850
 3375POPC   GL2 4586   1.894  42.251   8.850
 3375POPC   C1A 4587   1.994  42.341   8.550
 3375POPC   D2A 4588   2.036  42.348   8.250
 3375POPC   C3A 4589   1.989  42.360   7.950
 3375POPC   C4A 4590   1.988  42.351   7.650
 3375POPC   C1B 4591   1.785  42.165   8.550
 3375POPC   C2B 4592   1.865  42.120   8.250
 3375POPC   C3B 4593   1.823  42.150   7.950
 3375POPC   C4B 4594   1.821  42.144   7.650
 3376POPC   NC3 4595  26.783   7.469   9.450
 3376POPC   PO4 4596  26.825   7.427   9.150
 3376POPC   GL1 4597  26.841   7.439   8.850
 3376POPC   GL2 4598  26.799   7.335   8.850
 3376POPC   C1A 4599  26.833   7.397   8.550
 3376POPC   D2A 4600  26.844   7.409   8.250
 3376POPC   C3A 4601  26.772   7.398   7.950
 3376POPC   C4A 4602  26.823   7.389   7.650
 3376POPC   C1B 4603  26.805   7.219   8.550
 3376POPC   C2B 4604  26.844   7.156   8.250
 3376POPC   C3B 4605  26.796   7.178   7.950
 3376POPC   C4B 4606  26.833   7.138   7.650
 3377POPC   NC3 4607  40.820   1.172   9.450
 3377POPC   PO4 4608  40.780   1.198   9.150
 3377POPC   GL1 4609  40.798   1.254   8.850
 3377POPC   GL2 4610  40.879   1.105   8.850
 3377POPC   C1A 4611  40.825   1.204   8.550
 3377POPC   D2A 4612  40.805   1.210   8.250
 3377POPC   C3A 4613  40.812   1.240   7.950
 3377POPC   C4A 4614  40.824   1.237   7.650
 3377POPC   C1B 4615  40.978   1.104   8.550
 3377POPC   C2B 4616  40.957   1.054   8.250
 3377POPC   C3B 4617  40.990   1.060   7.950
 3377POPC   C4B 4618  40.993   1.068   7.650
 3378POPC   NC3 4619   3.577  29.908   9.450
 3378POPC   PO4 4620   3.498  29.958   9.150
 3378POPC   GL1 4621   3.572  29.895   8.850
 3378POPC   GL2 4622   3.524  29.994   8.850
 3378POPC   C1A 4623   3.511  29.928   8.550
 3378POPC   D2A 4624   3.506  29.935   8.250
 3378POPC   C3A 4625   3.565  29.935   7.950
 3378POPC   C4A 4626   3.495  29.877   7.650
 3378POPC   C1B 4627   3.638  30.168   8.550
 3378POPC   C2B 4628   3.584  30.197   8.250
 3378POPC   C3B 4629   3.594  30.167   7.950
 3378POPC   C4B 4630   3.620  30.187   7.650
 3379POPC   NC3 4631   3.511  36.093   9.450
 3379POPC   PO4 4632   3.520  36.151   9.150
 3379POPC   GL1 4633   3.498  36.090   8.850
 3379POPC   GL2 4634   3.471  36.238   8.850
 3379POPC   C1A 4635   3.529  36.156   8.550
 3379POPC   D2A 4636   3.546  36.079   8.250
 3379POPC   C3A 4637   3.579  36.099   7.950
 3379POPC   C4A 4638   3.574  36.170   7.650
 3379POPC   C1B 4639   3.417  36.330   8.550
 3379POPC   C2B 4640   3.432  36.304   8.250
 3379POPC   C3B 4641   3.400  36.321   7.950
 3379POPC   C4B 4642   3.448  36.351   7.650
 3380POPC   NC3 4643  11.349  22.983   9.450
 3380POPC   PO4 4644  11.282  22.941   9.150
 3380POPC   GL1 4645  11.303  22.903   8.850
 3380POPC   GL2 4646  11.293  23.028   8.850
 3380POPC   C1A 4647  11.282  22.904   8.550
 3380POPC   D2A 4648  11.314  22.939   8.250
 3380POPC   C3A 4649  11.313  22.903   7.950
 3380POPC   C4A 4650  11.345  22.892   7.650
 3380POPC   C1B 4651  11.246  23.188   8.550
 3380POPC   C2B 4652  11.206  23.177   8.250
 3380POPC   C3B 4653  11.226  23.176   7.950
 3380POPC   C4B 4654  11.239  23.187   7.650
 3381POPC   NC3 4655   7.387   5.880   9.450
 3381POPC   PO4 4656   7.428   5.883   9.150
 3381POPC   GL1 4657   7.401   5.916   8.850
 3381POPC   GL2 4658   7.488   5.969   8.850
 3381POPC   C1A 4659   7.418   5.902   8.550
 3381POPC   D2A 4660   7.438   5.826   8.250
 3381POPC   C3A 4661   7.455   5.890   7.950
 3381POPC   C4A 4662   7.401   5.883   7.650
 3381POPC   C1B 4663   7.618   6.059   8.550
 3381POPC   C2B 4664   7.542   6.047   8.250
 3381POPC   C3B 4665   7.554   6.018   7.950
 3381POPC   C4B 4666   7.597   6.052   7.650
 3382POPC   NC3 4667  28.369  10.541   9.450
 3382POPC   PO4 4668  28.329  10.502   9.150
 3382POPC   GL1 4669  28.401  10.563   8.850
 3382POPC   GL2 4670  28.237  10.446   8.850
 3382POPC   C1A 4671  28.337  10.476   8.550
 3382POPC   D2A 4672  28.386  10.562   8.250
 3382POPC   C3A 4673  28.355  10.563   7.950
 3382POPC   C4A 4674  28.406  10.527   7.650
 3382POPC   C1B 4675  28.171  10.346   8.550
 3382POPC   C2B 4676  28.166  10.339   8.250
 3382POPC   C3B 4677  28.228  10.384   7.950
 3382POPC   C4B 4678  28.214  10.328   7.650
 3383POPC   NC3 4679   8.999  37.677   9.450
 3383POPC   PO4 4680   8.996  37.637   9.150
 3383POPC   GL1 4681   8.933  37.692   8.850
 3383POPC   GL2 4682   8.938  37.571   8.850
 3383POPC   C1A 4683   8.979  37.697   8.550
 3383POPC   D2A 4684   8.988  37.673   8.250
 3383POPC   C3A 4685   9.008  37.673   7.950
 3383POPC   C4A 4686   9.019  37.634   7.650
 3383POPC   C1B 4687   8.879  37.429   8.550
 3383POPC   C2B 4688   8.863  37.448   8.250
 3383POPC   C3B 4689   8.893  37.497   7.950
 3383POPC   C4B 4690   8.908  37.439   7.650
 3384POPC   NC3 4691  20.598  25.260   9.450
 3384POPC   PO4 4692  20.606  25.260   9.150
 3384POPC   GL1 4693  20.583  25.236   8.850
 3384POPC   GL2 4694  20.545  25.374   8.850
 3384POPC   C1A 4695  20.608  25.286   8.550
 3384POPC   D2A 4696  20.627  25.281   8.250
 3384POPC   C3A 4697  20.640  25.295   7.950
 3384POPC   C4A 4698  20.588  25.250   7.650
 3384POPC   C1B 4699  20.455  25.464   8.550
 3384POPC   C2B 4700  20.457  25.502   8.250
 3384POPC   C3B 4701  20.467  25.499   7.950
 3384POPC   C4B 4702  20.467  25.414   7.650
 3385POPC   NC3 4703   8.971  42.368   9.450
 3385POPC   PO4 4704   8.925  42.303   9.150
 3385POPC   GL1 4705   8.946  42.344   8.850
 3385POPC   GL2 4706   8.864  42.211   8.850
 3385POPC   C1A 4707   9.009  42.330   8.550
 3385POPC   D2A 4708   8.928  42.304   8.250
 3385POPC   C3A 4709   8.951  42.341   7.950
 3385POPC   C4A 4710   8.996  42.378   7.650
 3385POPC   C1B 4711   8.806  42.226   8.550
 3385POPC   C2B 4712   8.788  42.159   8.250
 3385POPC   C3B 4713   8.818  42.138   7.950
 3385POPC   C4B 4714   8.728  42.144   7.650
 3386POPC   NC3 4715   1.237  39.996   9.450
 3386POPC   PO4 4716   1.211  40.000   9.150
 3386POPC   GL1 4717   1.210  40.015   8.850
 3386POPC   GL2 4718   1.190  40.128   8.850
 3386POPC   C1A 4719   1.240  39.975   8.550
 3386POPC   D2A 4720   1.175  39.986   8.250
 3386POPC   C3A 4721   1.190  39.971   7.950
 3386POPC   C4A 4722   1.197  40.028   7.650
 3386POPC   C1B 4723   1.200  40.284   8.550
 3386POPC   C2B 4724   1.233  40.285   8.250
 3386POPC   C3B 4725   1.190  40.250   7.950
 3386POPC   C4B 4726   1.158  40.224   7.650
 3387POPC   NC3 4727  35.393  41.602   9.450
 3387POPC   PO4 4728  35.322  41.520   9.150
 3387POPC   GL1 4729  35.303  41.526   8.850
 3387POPC   GL2 4730  35.412  41.673   8.850
 3387POPC   C1A 4731  35.342  41.558   8.550
 3387POPC   D2A 4732  35.397  41.553   8.250
 3387POPC   C3A 4733  35.374  41.607   7.950
 3387POPC   C4A 4734  35.309  41.546   7.650
 3387POPC   C1B 4735  35.346  41.779   8.550
 3387POPC   C2B 4736  35.417  41.835   8.250
 3387POPC   C3B 4737  35.348  41.763   7.950
 3387POPC   C4B 4738  35.413  41.780   7.650
 3388POPC   NC3 4739  23.695  13.610   9.450
 3388POPC   PO4 4740  23.764  13.602   9.150
 3388POPC   GL1 4741  23.731  13.626   8.850
 3388POPC   GL2 4742  23.879  13.629   8.850
 3388POPC   C1A 4743  23.687  13.676   8.550
 3388POPC   D2A 4744  23.747  13.668   8.250
 3388POPC   C3A 4745  23.669  13.668   7.950
 3388POPC   C4A 4746  23.702  13.611   7.650
 3388POPC   C1B 4747  23.937  13.549   8.550
 3388POPC   C2B 4748  24.007  13.553   8.250
 3388POPC   C3B 4749  23.935  13.594   7.950
 3388POPC   C4B 4750  23.918  13.567   7.650
 3389POPC   NC3 4751   8.208  23.749   9.450
 3389POPC   PO4 4752   8.215  23.683   9.150
 3389POPC   GL1 4753   8.175  23.670   8.850
 3389POPC   GL2 4754   8.282  23.603   8.850
 3389POPC   C1A 4755   8.223  23.669   8.550
 3389POPC   D2A 4756   8.166  23.683   8.250
 3389POPC   C3A 4757   8.159  23.720   7.950
 3389POPC   C4A 4758   8.161  23.756   7.650
 3389POPC   C1B 4759   8.402  23.579   8.550
 3389POPC   C2B 4760   8.397  23.513   8.250
 3389POPC   C3B 4761   8.404  23.574   7.950
 3389POPC   C4B 4762   8.358  23.609   7.650
 3390POPC   NC3 4763  29.873  20.618   9.450
 3390POPC   PO4 4764  29.965  20.615   9.150
 3390POPC   GL1 4765  29.967  20.567   8.850
 3390POPC   GL2 4766  29.991  20.720   8.850
 3390POPC   C1A 4767  29.960  20.614   8.550
 3390POPC   D2A 4768  29.911  20.596   8.250
 3390POPC   C3A 4769  29.878  20.655   7.950
 3390POPC   C4A 4770  29.971  20.602   7.650
 3390POPC   C1B 4771  30.014  20.837   8.550
 3390POPC   C2B 4772  30.021  20.877   8.250
 3390POPC   C3B 4773  30.021  20.846   7.950
 3390POPC   C4B 4774  30.049  20.880   7.650
 3391POPC   NC3 4775  27.602  19.862   9.450
 3391POPC   PO4 4776  27.582  19.863   9.150
 3391POPC   GL1 4777  27.627  19.874   8.850
 3391POPC   GL2 4778  27.610  19.931   8.850
 3391POPC   C1A 4779  27.602  19.853   8.550
 3391POPC   D2A 4780  27.631  19.826   8.250
 3391POPC   C3A 4781  27.610  19.819   7.950
 3391POPC   C4A 4782  27.551  19.854   7.650
 3391POPC   C1B 4783  27.679  20.043   8.550
 3391POPC   C2B 4784  27.651  20.036   8.250
 3391POPC   C3B 4785  27.678  20.059   7.950
 3391POPC   C4B 4786  27.632  20.074   7.650
 3392POPC   NC3 4787  20.648  39.234   9.450
 3392POPC   PO4 4788  20.650  39.231   9.150
 3392POPC   GL1 4789  20.625  39.226   8.850
 3392POPC   GL2 4790  20.522  39.120   8.850
 3392POPC   C1A 4791  20.584  39.261   8.550
 3392POPC   D2A 4792  20.614  39.264   8.250
 3392POPC   C3A 4793  20.591  39.207   7.950
 3392POPC   C4A 4794  20.644  39.240   7.650
 3392POPC   C1B 4795  20.536  39.024   8.550
 3392POPC   C2B 4796  20.531  38.970   8.250
 3392POPC   C3B 4797  20.564  39.033   7.950
 3392POPC   C4B 4798  20.474  39.018   7.650
 3393POPC   NC3 4799  30.730  21.389   9.450
 3393POPC   PO4 4800  30.657  21.380   9.150
 3393POPC   GL1 4801  30.745  21.430   8.850
 3393POPC   GL2 4802  30.609  21.484   8.850
 3393POPC   C1A 4803  30.660  21.385   8.550
 3393POPC   D2A 4804  30.648  21.406   8.250
 3393POPC   C3A 4805  30.723  21.340   7.950
 3393POPC   C4A 4806  30.665  21.408   7.650
 3393POPC   C1B 4807  30.631  21.614   8.550
 3393POPC   C2B 4808  30.647  21.645   8.250
 3393POPC   C3B 4809  30.594  21.655   7.950
 3393POPC   C4B 4810  30.608  21.645   7.650
 3394POPC   NC3 4811   3.538   5.138   9.450
 3394POPC   PO4 4812   3.585   5.079   9.150
 3394POPC   GL1 4813   3.543   5.057   8.850
 3394POPC   GL2 4814   3.666   4.974   8.850
 3394POPC   C1A 4815   3.536   5.076   8.550
 3394POPC   D2A 4816   3.568   5.060   8.250
 3394POPC   C3A 4817   3.579   5.077   7.950
 3394POPC   C4A 4818   3.538   5.143   7.650
 3394POPC   C1B 4819   3.755   4.982   8.550
 3394POPC   C2B 4820   3.745   4.958   8.250
 3394POPC   C3B 4821   3.704   4.942   7.950
 3394POPC   C4B 4822   3.790   4.991   7.650
 3395POPC   NC3 4823   5.053  29.123   9.450
 3395POPC   PO4 4824   5.090  29.191   9.150
 3395POPC   GL1 4825   5.060  29.112   8.850
 3395POPC   GL2 4826   5.103  29.225   8.850
 3395POPC   C1A 4827   5.120  29.129   8.550
 3395POPC   D2A 4828   5.043  29.181   8.250
 3395POPC   C3A 4829   5.087  29.193   7.950
 3395POPC   C4A 4830   5.092  29.143   7.650
 3395POPC   C1B 4831   5.104  29.351   8.550
 3395POPC   C2B 4832   5.141  29.401   8.250
 3395POPC   C3B 4833   5.088  29.370   7.950
 3395POPC   C4B 4834   5.164  29.395   7.650
 3396POPC   NC3 4835   0.476  38.417   9.450
 3396POPC   PO4 4836   0.419  38.496   9.150
 3396POPC   GL1 4837   0.488  38.469   8.850
 3396POPC   GL2 4838   0.292  38.489   8.850
 3396POPC   C1A 4839   0.402  38.458   8.550
 3396POPC   D2A 4840   0.412  38.504   8.250
 3396POPC   C3A 4841   0.408  38.504   7.950
 3396POPC   C4A 4842   0.432  38.477   7.650
 3396POPC   C1B 4843   0.225  38.473   8.550
 3396POPC   C2B 4844   0.185  38.444   8.250
 3396POPC   C3B 4845   0.192  38.441   7.950
 3396POPC   C4B 4846   0.209  38.448   7.650
 3397POPC   NC3 4847  22.919   0.440   9.450
 3397POPC   PO4 4848  22.895   0.414   9.150
 3397POPC   GL1 4849  22.931   0.445   8.850
 3397POPC   GL2 4850  23.026   0.491   8.850
 3397POPC   C1A 4851  22.934   0.407   8.550
 3397POPC   D2A 4852  22.942   0.436   8.250
 3397POPC   C3A 4853  22.908   0.422   7.950
 3397POPC   C4A 4854  22.895   0.466   7.650
 3397POPC   C1B 4855  23.211   0.469   8.550
 3397POPC   C2B 4856  23.228   0.480   8.250
 3397POPC   C3B 4857  23.209   0.452   7.950
 3397POPC   C4B 4858  23.163   0.471   7.650
 3398POPC   NC3 4859  33.767  14.431   9.450
 3398POPC   PO4 4860  33.768  14.394   9.150
 3398POPC   GL1 4861  33.821  14.441   8.850
 3398POPC   GL2 4862  33.681  14.351   8.850
 3398POPC   C1A 4863  33.764  14.365   8.550
 3398POPC   D2A 4864  33.788  14.399   8.250
 3398POPC   C3A 4865  33.789  14.396   7.950
 3398POPC   C4A 4866  33.806  14.365   7.650
 3398POPC   C1B 4867  33.604  14.287   8.550
 3398POPC   C2B 4868  33.608  14.273   8.250
 3398POPC   C3B 4869  33.570  14.301   7.950
 3398POPC   C4B 4870  33.551  14.283   7.650
 3399POPC   NC3 4871  36.103   7.400   9.450
 3399POPC   PO4 4872  36.161   7.403   9.150
 3399POPC   GL1 4873  36.159   7.378   8.850
 3399POPC   GL2 4874  36.180   7.571   8.850
 3399POPC   C1A 4875  36.140   7.470   8.550
 3399POPC   D2A 4876  36.154   7.385   8.250
 3399POPC   C3A 4877  36.117   7.421   7.950
 3399POPC   C4A 4878  36.091   7.426   7.650
 3399POPC   C1B 4879  36.099   7.712   8.550
 3399POPC   C2B 4880  36.179   7.686   8.250
 3399POPC   C3B 4881  36.106   7.653   7.950
 3399POPC   C4B 4882  36.089   7.689   7.650
 3400POPC   NC3 4883  19.034   1.961   9.450
 3400POPC   PO4 4884  19.055   2.018   9.150
 3400POPC   GL1 4885  19.050   1.964   8.850
 3400POPC   GL2 4886  19.038   1.838   8.850
 3400POPC   C1A 4887  19.050   1.976   8.550
 3400POPC   D2A 4888  19.093   1.958   8.250
 3400POPC   C3A 4889  19.024   1.948   7.950
 3400POPC   C4A 4890  19.047   1.983   7.650
 3400POPC   C1B 4891  19.031   1.713   8.550
 3400POPC   C2B 4892  18.986   1.795   8.250
 3400POPC   C3B 4893  19.028   1.774   7.950
 3400POPC   C4B 4894  18.945   1.794   7.650
 3401POPC   NC3 4895  19.804  26.037   9.450
 3401POPC   PO4 4896  19.877  26.023   9.150
 3401POPC   GL1 4897  19.790  26.023   8.850
 3401POPC   GL2 4898  19.795  26.202   8.850
 3401POPC   C1A 4899  19.853  25.994   8.550
 3401POPC   D2A 4900  19.851  26.034   8.250
 3401POPC   C3A 4901  19.868  26.019   7.950
 3401POPC   C4A 4902  19.794  26.024   7.650
 3401POPC   C1B 4903  19.814  26.294   8.550
 3401POPC   C2B 4904  19.813  26.241   8.250
 3401POPC   C3B 4905  19.756  26.297   7.950
 3401POPC   C4B 4906  19.760  26.318   7.650
 3402POPC   NC3 4907  19.840   8.166   9.450
 3402POPC   PO4 4908  19.797   8.191   9.150
 3402POPC   GL1 4909  19.875   8.237   8.850
 3402POPC   GL2 4910  19.767   8.312   8.850
 3402POPC   C1A 4911  19.855   8.171   8.550
 3402POPC   D2A 4912  19.852   8.198   8.250
 3402POPC   C3A 4913  19.872   8.152   7.950
 3402POPC   C4A 4914  19.832   8.223   7.650
 3402POPC   C1B 4915  19.830   8.470   8.550
 3402POPC   C2B 4916  19.800   8.435   8.250
 3402POPC   C3B 4917  19.831   8.394   7.950
 3402POPC   C4B 4918  19.820   8.393   7.650
 3403POPC   NC3 4919  33.018  31.511   9.450
 3403POPC   PO4 4920  32.976  31.451   9.150
 3403POPC   GL1 4921  33.018  31.456   8.850
 3403POPC   GL2 4922  33.139  31.617   8.850
 3403POPC   C1A 4923  33.013  31.436   8.550
 3403POPC   D2A 4924  33.041  31.426   8.250
 3403POPC   C3A 4925  33.073  31.476   7.950
 3403POPC   C4A 4926  33.028  31.500   7.650
 3403POPC   C1B 4927  33.136  31.705   8.550
 3403POPC   C2B 4928  33.147  31.709   8.250
 3403POPC   C3B 4929  33.215  31.692   7.950
 3403POPC   C4B 4930  33.175  31.628   7.650
 3404POPC   NC3 4931  19.048  19.848   9.450
 3404POPC   PO4 4932  19.090  19.831   9.150
 3404POPC   GL1 4933  19.032  19.862   8.850
 3404POPC   GL2 4934  19.160  19.875   8.850
 3404POPC   C1A 4935  19.057  19.848   8.550
 3404POPC   D2A 4936  19.100  19.813   8.250
 3404POPC   C3A 4937  19.053  19.846   7.950
 3404POPC   C4A 4938  19.030  19.818   7.650
 3404POPC   C1B 4939  19.280  19.842   8.550
 3404POPC   C2B 4940  19.310  19.793   8.250
 3404POPC   C3B 4941  19.309  19.820   7.950
 3404POPC   C4B 4942  19.295  19.794   7.650
 3405POPC   NC3 4943   4.318   3.554   9.450
 3405POPC   PO4 4944   4.322   3.509   9.150
 3405POPC   GL1 4945   4.314   3.554   8.850
 3405POPC   GL2 4946   4.275   3.439   8.850
 3405POPC   C1A 4947   4.286   3.504   8.550
 3405POPC   D2A 4948   4.355   3.529   8.250
 3405POPC   C3A 4949   4.268   3.561   7.950
 3405POPC   C4A 4950   4.305   3.583   7.650
 3405POPC   C1B 4951   4.187   3.384   8.550
 3405POPC   C2B 4952   4.145   3.376   8.250
 3405POPC   C3B 4953   4.189   3.337   7.950
 3405POPC   C4B 4954   4.137   3.389   7.650
 3406POPC   NC3 4955  40.754  43.147   9.450
 3406POPC   PO4 4956  40.768  43.062   9.150
 3406POPC   GL1 4957  40.766  43.141   8.850
 3406POPC   GL2 4958  40.699  43.109   8.850
 3406POPC   C1A 4959  40.776  43.069   8.550
 3406POPC   D2A 4960  40.833  43.096   8.250
 3406POPC   C3A 4961  40.768  43.102   7.950
 3406POPC   C4A 4962  40.817  43.107   7.650
 3406POPC   C1B 4963  40.514  43.040   8.550
 3406POPC   C2B 4964  40.577  43.024   8.250
 3406POPC   C3B 4965  40.553  43.090   7.950
 3406POPC   C4B 4966  40.502  43.074   7.650
 3407POPC   NC3 4967  31.500  40.816   9.450
 3407POPC   PO4 4968  31.519  40.741   9.150
 3407POPC   GL1 4969  31.486  40.780   8.850
 3407POPC   GL2 4970  31.424  40.707   8.850
 3407POPC   C1A 4971  31.516  40.801   8.550
 3407POPC   D2A 4972  31.438  40.790   8.250
 3407POPC   C3A 4973  31.486  40.744   7.950
 3407POPC   C4A 4974  31.496  40.811   7.650
 3407POPC   C1B 4975  31.295  40.586   8.550
 3407POPC   C2B 4976  31.284  40.570   8.250
 3407POPC   C3B 4977  31.291  40.607   7.950
 3407POPC   C4B 4978  31.314  40.546   7.650
 3408POPC   NC3 4979   3.499   9.794   9.450
 3408POPC   PO4 4980   3.537   9.773   9.150
 3408POPC   GL1 4981   3.522   9.699   8.850
 3408POPC   GL2 4982   3.610   9.854   8.850
 3408POPC   C1A 4983   3.550   9.739   8.550
 3408POPC   D2A 4984   3.533   9.779   8.250
 3408POPC   C3A 4985   3.497   9.698   7.950
 3408POPC   C4A 4986   3.540   9.780   7.650
 3408POPC   C1B 4987   3.756   9.915   8.550
 3408POPC   C2B 4988   3.684   9.898   8.250
 3408POPC   C3B 4989   3.706   9.931   7.950
 3408POPC   C4B 4990   3.741   9.867   7.650
 3409POPC   NC3 4991  42.353  15.907   9.450
 3409POPC   PO4 4992  42.301  15.948   9.150
 3409POPC   GL1 4993  42.288  15.961   8.850
 3409POPC   GL2 4994  42.285  15.883   8.850
 3409POPC   C1A 4995  42.369  15.986   8.550
 3409POPC   D2A 4996  42.310  15.934   8.250
 3409POPC   C3A 4997  42.335  15.953   7.950
 3409POPC   C4A 4998  42.372  15.957   7.650
 3409POPC   C1B 4999  42.208  15.802   8.550
 3409POPC   C2B 5000  42.193  15.722   8.250
 3409POPC   C3B 5001  42.153  15.767   7.950
 3409POPC   C4B 5002  42.180  15.777   7.650
 3410POPC   NC3 5003  17.537   4.331   9.450
 3410POPC   PO4 5004  17.555   4.328   9.150
 3410POPC   GL1 5005  17.467   4.340   8.850
 3410POPC   GL2 5006  17.367   4.249   8.850
 3410POPC   C1A 5007  17.458   4.300   8.550
 3410POPC   D2A 5008  17.485   4.328   8.250
 3410POPC   C3A 5009  17.519   4.279   7.950
 3410POPC   C4A 5010  17.466   4.297   7.650
 3410POPC   C1B 5011  17.240   4.167   8.550
 3410POPC   C2B 5012  17.266   4.237   8.250
 3410POPC   C3B 5013  17.285   4.228   7.950
 3410POPC   C4B 5014  17.254   4.171   7.650
 3411POPC   NC3 5015  35.348  42.335   9.450
 3411POPC   PO4 5016  35.302  42.324   9.150
 3411POPC   GL1 5017  35.305  42.376   8.850
 3411POPC   GL2 5018  35.293  42.460   8.850
 3411POPC   C1A 5019  35.338  42.362   8.550
 3411POPC   D2A 5020  35.316  42.355   8.250
 3411POPC   C3A 5021  35.353  42.357   7.950
 3411POPC   C4A 5022  35.325  42.359   7.650
 3411POPC   C1B 5023  35.197  42.510   8.550
 3411POPC   C2B 5024  35.274  42.549   8.250
 3411POPC   C3B 5025  35.218  42.513   7.950
 3411POPC   C4B 5026  35.226  42.504   7.650
 3412POPC   NC3 5027  12.122  19.817   9.450
 3412POPC   PO4 5028  12.047  19.794   9.150
 3412POPC   GL1 5029  12.036  19.827   8.850
 3412POPC   GL2 5030  11.944  19.783   8.850
 3412POPC   C1A 5031  12.051  19.854   8.550
 3412POPC   D2A 5032  12.075  19.863   8.250
 3412POPC   C3A 5033  12.071  19.801   7.950
 3412POPC   C4A 5034  12.045  19.875   7.650
 3412POPC   C1B 5035  11.848  19.696   8.550
 3412POPC   C2B 5036  11.835  19.655   8.250
 3412POPC   C3B 5037  11.895  19.698   7.950
 3412POPC   C4B 5038  11.891  19.680   7.650
 3413POPC   NC3 5039  32.210   7.397   9.450
 3413POPC   PO4 5040  32.246   7.417   9.150
 3413POPC   GL1 5041  32.237   7.462   8.850
 3413POPC   GL2 5042  32.118   7.436   8.850
 3413POPC   C1A 5043  32.290   7.399   8.550
 3413POPC   D2A 5044  32.226   7.461   8.250
 3413POPC   C3A 5045  32.246   7.442   7.950
 3413POPC   C4A 5046  32.279   7.397   7.650
 3413POPC   C1B 5047  31.958   7.420   8.550
 3413POPC   C2B 5048  32.012   7.402   8.250
 3413POPC   C3B 5049  32.009   7.388   7.950
 3413POPC   C4B 5050  31.998   7.452   7.650
 3414POPC   NC3 5051   4.304  19.843   9.450
 3414POPC   PO4 5052   4.289  19.802   9.150
 3414POPC   GL1 5053   4.335  19.864   8.850
 3414POPC   GL2 5054   4.350  19.983   8.850
 3414POPC   C1A 5055   4.296  19.827   8.550
 3414POPC   D2A 5056   4.316  19.815   8.250
 3414POPC   C3A 5057   4.276  19.809   7.950
 3414POPC   C4A 5058   4.312  19.851   7.650
 3414POPC   C1B 5059   4.373  20.076   8.550
 3414POPC   C2B 5060   4.369  20.104   8.250
 3414POPC   C3B 5061   4.377  20.075   7.950
 3414POPC   C4B 5062   4.440  20.088   7.650
 3415POPC   NC3 5063  26.776  24.496   9.450
 3415POPC   PO4 5064  26.865  24.470   9.150
 3415POPC   GL1 5065  26.860  24.507   8.850
 3415POPC   GL2 5066  26.918  24.456   8.850
 3415POPC   C1A 5067  26.833  24.483   8.550
 3415POPC   D2A 5068  26.803  24.483   8.250
 3415POPC   C3A 5069  26.779  24.448   7.950
 3415POPC   C4A 5070  26.771  24.445   7.650
 3415POPC   C1B 5071  27.069  24.364   8.550
 3415POPC   C2B 5072  27.008  24.388   8.250
 3415POPC   C3B 5073  27.076  24.377   7.950
 3415POPC   C4B 5074  27.054  24.391   7.650
 3416POPC   NC3 5075   9.732   8.987   9.450
 3416POPC   PO4 5076   9.724   8.983   9.150
 3416POPC   GL1 5077   9.726   8.930   8.850
 3416POPC   GL2 5078   9.756   9.119   8.850
 3416POPC   C1A 5079   9.713   8.931   8.550
 3416POPC   D2A 5080   9.728   8.935   8.250
 3416POPC   C3A 5081   9.763   9.009   7.950
 3416POPC   C4A 5082   9.761   8.923   7.650
 3416POPC   C1B 5083   9.660   9.171   8.550
 3416POPC   C2B 5084   9.686   9.216   8.250
 3416POPC   C3B 5085   9.639   9.248   7.950
 3416POPC   C4B 5086   9.726   9.192   7.650
 3417POPC   NC3 5087  14.366  11.258   9.450
 3417POPC   PO4 5088  14.379  11.306   9.150
 3417POPC   GL1 5089  14.431  11.287   8.850
 3417POPC   GL2 5090  14.308  11.257   8.850
 3417POPC   C1A 5091  14.370  11.288   8.550
 3417POPC   D2A 5092  14.358  11.338   8.250
 3417POPC   C3A 5093  14.443  11.268   7.950
 3417POPC   C4A 5094  14.362  11.261   7.650
 3417POPC   C1B 5095  14.197  11.275   8.550
 3417POPC   C2B 5096  14.169  11.201   8.250
 3417POPC   C3B 5097  14.200  11.280   7.950
 3417POPC   C4B 5098  14.200  11.236   7.650
 3418POPC   NC3 5099  21.409   0.480   9.450
 3418POPC   PO4 5100  21.418   0.436   9.150
 3418POPC   GL1 5101  21.416   0.479   8.850
 3418POPC   GL2 5102  21.487   0.386   8.850
 3418POPC   C1A 5103  21.407   0.420   8.550
 3418POPC   D2A 5104  21.397   0.426   8.250
 3418POPC   C3A 5105  21.368   0.425   7.950
 3418POPC   C4A 5106  21.373   0.414   7.650
 3418POPC   C1B 5107  21.552   0.286   8.550
 3418POPC   C2B 5108  21.610   0.336   8.250
 3418POPC   C3B 5109  21.617   0.340   7.950
 3418POPC   C4B 5110  21.623   0.352   7.650
 3419POPC   NC3 5111  41.533  15.130   9.450
 3419POPC   PO4 5112  41.590  15.133   9.150
 3419POPC   GL1 5113  41.603  15.192   8.850
 3419POPC   GL2 5114  41.615  15.205   8.850
 3419POPC   C1A 5115  41.548  15.181   8.550
 3419POPC   D2A 5116  41.531  15.213   8.250
 3419POPC   C3A 5117  41.588  15.143   7.950
 3419POPC   C4A 5118  41.593  15.221   7.650
 3419POPC   C1B 5119  41.780  15.316   8.550
 3419POPC   C2B 5120  41.721  15.375   8.250
 3419POPC   C3B 5121  41.752  15.375   7.950
 3419POPC   C4B 5122  41.766  15.344   7.650
 3420POPC   NC3 5123  22.921  12.049   9.450
 3420POPC   PO4 5124  22.931  12.082   9.150
 3420POPC   GL1 5125  22.894  12.098   8.850
 3420POPC   GL2 5126  22.810  12.086   8.850
 3420POPC   C1A 5127  22.914  12.055   8.550
 3420POPC   D2A 5128  22.947  12.097   8.250
 3420POPC   C3A 5129  22.947  12.055   7.950
 3420POPC   C4A 5130  22.903  12.068   7.650
 3420POPC   C1B 5131  22.738  12.145   8.550
 3420POPC   C2B 5132  22.731  12.198   8.250
 3420POPC   C3B 5133  22.671  12.217   7.950
 3420POPC   C4B 5134  22.700  12.185   7.650
 3421POPC   NC3 5135  36.880  43.887   9.450
 3421POPC   PO4 5136  36.884  43.874   9.150
 3421POPC   GL1 5137  36.855  43.929   8.850
 3421POPC   GL2 5138  36.990  43.870   8.850
 3421POPC   C1A 5139  36.919  43.895   8.550
 3421POPC   D2A 5140  36.885  43.867   8.250
 3421POPC   C3A 5141  36.857  43.876   7.950
 3421POPC   C4A 5142  36.949  43.888   7.650
 3421POPC   C1B 5143  37.115  43.870   8.550
 3421POPC   C2B 5144  37.118  43.849   8.250
 3421POPC   C3B 5145  37.183  43.801   7.950
 3421POPC   C4B 5146  37.103  43.834   7.650
 3422POPC   NC3 5147  42.323  32.980   9.450
 3422POPC   PO4 5148  42.366  33.071   9.150
 3422POPC   GL1 5149  42.297  33.026   8.850
 3422POPC   GL2 5150  42.407  33.062   8.850
 3422POPC   C1A 5151  42.362  32.981   8.550
 3422POPC   D2A 5152  42.356  32.990   8.250
 3422POPC   C3A 5153  42.343  32.983   7.950
 3422POPC   C4A 5154  42.373  33.036   7.650
 3422POPC   C1B 5155  42.549  33.115   8.550
 3422POPC   C2B 5156  42.558  33.103   8.250
 3422POPC   C3B 5157  42.598  33.052   7.950
 3422POPC   C4B 5158  42.562  33.049   7.650
 3423POPC   NC3 5159  29.176  21.419   9.450
 3423POPC   PO4 5160  29.116  21.348   9.150
 3423POPC   GL1 5161  29.110  21.411   8.850
 3423POPC   GL2 5162  29.262  21.452   8.850
 3423POPC   C1A 5163  29.180  21.346   8.550
 3423POPC   D2A 5164  29.138  21.349   8.250
 3423POPC   C3A 5165  29.186  21.396   7.950
 3423POPC   C4A 5166  29.185  21.413   7.650
 3423POPC   C1B 5167  29.303  21.584   8.550
 3423POPC   C2B 5168  29.334  21.568   8.250
 3423POPC   C3B 5169  29.274  21.627   7.950
 3423POPC   C4B 5170  29.277  21.626   7.650
 3424POPC   NC3 5171  25.998  43.923   9.450
 3424POPC   PO4 5172  26.056  43.862   9.150
 3424POPC   GL1 5173  26.013  43.911   8.850
 3424POPC   GL2 5174  26.065  43.745   8.850
 3424POPC   C1A 5175  26.022  43.900   8.550
 3424POPC   D2A 5176  26.024  43.895   8.250
 3424POPC   C3A 5177  26.061  43.866   7.950
 3424POPC   C4A 5178  26.079  43.888   7.650
 3424POPC   C1B 5179  26.080  43.605   8.550
 3424POPC   C2B 5180  26.040  43.650   8.250
 3424POPC   C3B 5181  26.049  43.672   7.950
 3424POPC   C4B 5182  25.994  43.589   7.650
 3425POPC   NC3 5183  19.089   0.486   9.450
 3425POPC   PO4 5184  19.077   0.445   9.150
 3425POPC   GL1 5185  19.026   0.474   8.850
 3425POPC   GL2 5186  19.004   0.590   8.850
 3425POPC   C1A 5187  19.073   0.442   8.550
 3425POPC   D2A 5188  19.094   0.397   8.250
 3425POPC   C3A 5189  19.013   0.390   7.950
 3425POPC   C4A 5190  19.016   0.392   7.650
 3425POPC   C1B 5191  19.030   0.649   8.550
 3425POPC   C2B 5192  19.031   0.638   8.250
 3425POPC   C3B 5193  18.984   0.647   7.950
 3425POPC   C4B 5194  19.017   0.673   7.650
 3426POPC   NC3 5195  12.889  15.151   9.450
 3426POPC   PO4 5196  12.838  15.189   9.150
 3426POPC   GL1 5197  12.828  15.155   8.850
 3426POPC   GL2 5198  12.930  15.262   8.850
 3426POPC   C1A 5199  12.839  15.183   8.550
 3426POPC   D2A 5200  12.897  15.192   8.250
 3426POPC   C3A 5201  12.827  15.205   7.950
 3426POPC   C4A 5202  12.853  15.179   7.650
 3426POPC   C1B 5203  13.083  15.334   8.550
 3426POPC   C2B 5204  13.028  15.321   8.250
 3426POPC   C3B 5205  13.001  15.384   7.950
 3426POPC   C4B 5206  13.055  15.309   7.650
 3427POPC   NC3 5207  29.107  22.167   9.450
 3427POPC   PO4 5208  29.181  22.211   9.150
 3427POPC   GL1 5209  29.106  22.144   8.850
 3427POPC   GL2 5210  29.109  22.068   8.850
 3427POPC   C1A 5211  29.108  22.161   8.550
 3427POPC   D2A 5212  29.121  22.115   8.250
 3427POPC   C3A 5213  29.179  22.178   7.950
 3427POPC   C4A 5214  29.195  22.139   7.650
 3427POPC   C1B 5215  29.138  21.958   8.550
 3427POPC   C2B 5216  29.137  21.865   8.250
 3427POPC   C3B 5217  29.186  21.886   7.950
 3427POPC   C4B 5218  29.209  21.910   7.650
 3428POPC   NC3 5219   8.211  10.548   9.450
 3428POPC   PO4 5220   8.167  10.477   9.150
 3428POPC   GL1 5221   8.147  10.541   8.850
 3428POPC   GL2 5222   8.149  10.469   8.850
 3428POPC   C1A 5223   8.171  10.562   8.550
 3428POPC   D2A 5224   8.154  10.559   8.250
 3428POPC   C3A 5225   8.231  10.506   7.950
 3428POPC   C4A 5226   8.208  10.496   7.650
 3428POPC   C1B 5227   8.030  10.313   8.550
 3428POPC   C2B 5228   8.079  10.303   8.250
 3428POPC   C3B 5229   8.009  10.336   7.950
 3428POPC   C4B 5230   8.066  10.297   7.650
 3429POPC   NC3 5231  37.642  38.486   9.450
 3429POPC   PO4 5232  37.666  38.489   9.150
 3429POPC   GL1 5233  37.667  38.491   8.850
 3429POPC   GL2 5234  37.563  38.508   8.850
 3429POPC   C1A 5235  37.691  38.489   8.550
 3429POPC   D2A 5236  37.660  38.428   8.250
 3429POPC   C3A 5237  37.685  38.487   7.950
 3429POPC   C4A 5238  37.657  38.424   7.650
 3429POPC   C1B 5239  37.452  38.470   8.550
 3429POPC   C2B 5240  37.436  38.506   8.250
 3429POPC   C3B 5241  37.438  38.472   7.950
 3429POPC   C4B 5242  37.414  38.519   7.650
 3430POPC   NC3 5243   9.773   9.753   9.450
 3430POPC   PO4 5244   9.770   9.738   9.150
 3430POPC   GL1 5245   9.738   9.769   8.850
 3430POPC   GL2 5246   9.606   9.785   8.850
 3430POPC   C1A 5247   9.741   9.752   8.550
 3430POPC   D2A 5248   9.777   9.751   8.250
 3430POPC   C3A 5249   9.769   9.780   7.950
 3430POPC   C4A 5250   9.796   9.760   7.650
 3430POPC   C1B 5251   9.514   9.779   8.550
 3430POPC   C2B 5252   9.468   9.843   8.250
 3430POPC   C3B 5253   9.522   9.786   7.950
 3430POPC   C4B 5254   9.501   9.814   7.650
 3431POPC   NC3 5255  36.885  31.476   9.450
 3431POPC   PO4 5256  36.862  31.424   9.150
 3431POPC   GL1 5257  36.942  31.423   8.850
 3431POPC   GL2 5258  36.864  31.522   8.850
 3431POPC   C1A 5259  36.891  31.445   8.550
 3431POPC   D2A 5260  36.882  31.471   8.250
 3431POPC   C3A 5261  36.944  31.423   7.950
 3431POPC   C4A 5262  36.875  31.518   7.650
 3431POPC   C1B 5263  36.747  31.667   8.550
 3431POPC   C2B 5264  36.736  31.612   8.250
 3431POPC   C3B 5265  36.697  31.631   7.950
 3431POPC   C4B 5266  36.765  31.653   7.650
 3432POPC   NC3 5267  36.158   6.681   9.450
 3432POPC   PO4 5268  36.113   6.649   9.150
 3432POPC   GL1 5269  36.175   6.659   8.850
 3432POPC   GL2 5270  36.095   6.747   8.850
 3432POPC   C1A 5271  36.079   6.687   8.550
 3432POPC   D2A 5272  36.124   6.673   8.250
 3432POPC   C3A 5273  36.162   6.603   7.950
 3432POPC   C4A 5274  36.092   6.601   7.650
 3432POPC   C1B 5275  35.988   6.819   8.550
 3432POPC   C2B 5276  35.932   6.827   8.250
 3432POPC   C3B 5277  35.921   6.878   7.950
 3432POPC   C4B 5278  35.915   6.850   7.650
 3433POPC   NC3 5279  27.552  34.570   9.450
 3433POPC   PO4 5280  27.643  34.546   9.150
 3433POPC   GL1 5281  27.622  34.561   8.850
 3433POPC   GL2 5282  27.495  34.572   8.850
 3433POPC   C1A 5283  27.595  34.626   8.550
 3433POPC   D2A 5284  27.603  34.596   8.250
 3433POPC   C3A 5285  27.588  34.536   7.950
 3433POPC   C4A 5286  27.578  34.568   7.650
 3433POPC   C1B 5287  27.334  34.571   8.550
 3433POPC   C2B 5288  27.296  34.508   8.250
 3433POPC   C3B 5289  27.319  34.525   7.950
 3433POPC   C4B 5290  27.341  34.512   7.650
 3434POPC   NC3 5291  35.391   5.127   9.450
 3434POPC   PO4 5292  35.339   5.110   9.150
 3434POPC   GL1 5293  35.329   5.047   8.850
 3434POPC   GL2 5294  35.343   5.012   8.850
 3434POPC   C1A 5295  35.393   5.127   8.550
 3434POPC   D2A 5296  35.315   5.045   8.250
 3434POPC   C3A 5297  35.401   5.110   7.950
 3434POPC   C4A 5298  35.390   5.104   7.650
 3434POPC   C1B 5299  35.405   4.825   8.550
 3434POPC   C2B 5300  35.385   4.813   8.250
 3434POPC   C3B 5301  35.421   4.874   7.950
 3434POPC   C4B 5302  35.453   4.827   7.650
 3435POPC   NC3 5303  21.432  25.261   9.450
 3435POPC   PO4 5304  21.409  25.256   9.150
 3435POPC   GL1 5305  21.363  25.310   8.850
 3435POPC   GL2 5306  21.501  25.384   8.850
 3435POPC   C1A 5307  21.421  25.247   8.550
 3435POPC   D2A 5308  21.366  25.284   8.250
 3435POPC   C3A 5309  21.382  25.243   7.950
 3435POPC   C4A 5310  21.421  25.276   7.650
 3435POPC   C1B 5311  21.527  25.495   8.550
 3435POPC   C2B 5312  21.507  25.438   8.250
 3435POPC   C3B 5313  21.499  25.433   7.950
 3435POPC   C4B 5314  21.524  25.480   7.650
 3436POPC   NC3 5315   7.427  15.183   9.450
 3436POPC   PO4 5316   7.402  15.154   9.150
 3436POPC   GL1 5317   7.434  15.182   8.850
 3436POPC   GL2 5318   7.370  15.309   8.850
 3436POPC   C1A 5319   7.372  15.204   8.550
 3436POPC   D2A 5320   7.412  15.216   8.250
 3436POPC   C3A 5321   7.455  15.153   7.950
 3436POPC   C4A 5322   7.454  15.201   7.650
 3436POPC   C1B 5323   7.320  15.464   8.550
 3436POPC   C2B 5324   7.332  15.448   8.250
 3436POPC   C3B 5325   7.333  15.394   7.950
 3436POPC   C4B 5326   7.340  15.441   7.650
 3437POPC   NC3 5327  18.325   5.101   9.450
 3437POPC   PO4 5328  18.279   5.081   9.150
 3437POPC   GL1 5329  18.255   5.089   8.850
 3437POPC   GL2 5330  18.401   5.064   8.850
 3437POPC   C1A 5331  18.254   5.130   8.550
 3437POPC   D2A 5332  18.333   5.131   8.250
 3437POPC   C3A 5333  18.244   5.044   7.950
 3437POPC   C4A 5334  18.317   5.117   7.650
 3437POPC   C1B 5335  18.505   5.096   8.550
 3437POPC   C2B 5336  18.512   5.130   8.250
 3437POPC   C3B 5337  18.556   5.088   7.950
 3437POPC   C4B 5338  18.509   5.131   7.650
 3438POPC   NC3 5339  43.846  25.274   9.450
 3438POPC   PO4 5340  43.903  25.306   9.150
 3438POPC   GL1 5341  43.909  25.309   8.850
 3438POPC   GL2 5342  44.022  25.375   8.850
 3438POPC   C1A 5343  43.919  25.310   8.550
 3438POPC   D2A 5344  43.849  25.265   8.250
 3438POPC   C3A 5345  43.877  25.238   7.950
 3438POPC   C4A 5346  43.898  25.294   7.650
 3438POPC   C1B 5347  44.086  25.434   8.550
 3438POPC   C2B 5348  44.079  25.379   8.250
 3438POPC   C3B 5349  44.049  25.374   7.950
 3438POPC   C4B 5350  44.063  25.383   7.650
 3439POPC   NC3 5351  12.102  31.502   9.450
 3439POPC   PO4 5352  12.124  31.457   9.150
 3439POPC   GL1 5353  12.029  31.507   8.850
 3439POPC   GL2 5354  12.000  31.356   8.850
 3439POPC   C1A 5355  12.051  31.509   8.550
 3439POPC   D2A 5356  12.097  31.517   8.250
 3439POPC   C3A 5357  12.099  31.489   7.950
 3439POPC   C4A 5358  12.069  31.487   7.650
 3439POPC   C1B 5359  11.972  31.259   8.550
 3439POPC   C2B 5360  12.025  31.189   8.250
 3439POPC   C3B 5361  12.005  31.204   7.950
 3439POPC   C4B 5362  11.998  31.192   7.650
 3440POPC   NC3 5363  18.234   7.429   9.450
 3440POPC   PO4 5364  18.329   7.393   9.150
 3440POPC   GL1 5365  18.312   7.448   8.850
 3440POPC   GL2 5366  18.358   7.479   8.850
 3440POPC   C1A 5367  18.298   7.405   8.550
 3440POPC   D2A 5368  18.315   7.388   8.250
 3440POPC   C3A 5369  18.319   7.434   7.950
 3440POPC   C4A 5370  18.263   7.469   7.650
 3440POPC   C1B 5371  18.508   7.517   8.550
 3440POPC   C2B 5372  18.471   7.529   8.250
 3440POPC   C3B 5373  18.536   7.504   7.950
 3440POPC   C4B 5374  18.507   7.549   7.650
 3441POPC   NC3 5375  33.036  14.396   9.450
 3441POPC   PO4 5376  33.030  14.428   9.150
 3441POPC   GL1 5377  33.039  14.446   8.850
 3441POPC   GL2 5378  32.944  14.440   8.850
 3441POPC   C1A 5379  33.026  14.369   8.550
 3441POPC   D2A 5380  33.001  14.426   8.250
 3441POPC   C3A 5381  33.037  14.396   7.950
 3441POPC   C4A 5382  33.033  14.432   7.650
 3441POPC   C1B 5383  32.812  14.522   8.550
 3441POPC   C2B 5384  32.840  14.536   8.250
 3441POPC   C3B 5385  32.779  14.551   7.950
 3441POPC   C4B 5386  32.851  14.497   7.650
 3442POPC   NC3 5387  26.046   7.372   9.450
 3442POPC   PO4 5388  26.004   7.372   9.150
 3442POPC   GL1 5389  26.059   7.423   8.850
 3442POPC   GL2 5390  26.056   7.508   8.850
 3442POPC   C1A 5391  26.039   7.449   8.550
 3442POPC   D2A 5392  26.025   7.371   8.250
 3442POPC   C3A 5393  26.037   7.391   7.950
 3442POPC   C4A 5394  26.067   7.379   7.650
 3442POPC   C1B 5395  26.138   7.681   8.550
 3442POPC   C2B 5396  26.135   7.620   8.250
 3442POPC   C3B 5397  26.188   7.674   7.950
 3442POPC   C4B 5398  26.191   7.602   7.650
 3443POPC   NC3 5399  13.609  33.809   9.450
 3443POPC   PO4 5400  13.641  33.755   9.150
 3443POPC   GL1 5401  13.593  33.763   8.850
 3443POPC   GL2 5402  13.527  33.874   8.850
 3443POPC   C1A 5403  13.668  33.751   8.550
 3443POPC   D2A 5404  13.639  33.810   8.250
 3443POPC   C3A 5405  13.613  33.776   7.950
 3443POPC   C4A 5406  13.623  33.796   7.650
 3443POPC   C1B 5407  13.432  33.872   8.550
 3443POPC   C2B 5408  13.348  33.861   8.250
 3443POPC   C3B 5409  13.374  33.883   7.950
 3443POPC   C4B 5410  13.367  33.873   7.650
 3444POPC   NC3 5411  19.877  23.695   9.450
 3444POPC   PO4 5412  19.822  23.726   9.150
 3444POPC   GL1 5413  19.811  23.739   8.850
 3444POPC   GL2 5414  19.906  23.647   8.850
 3444POPC   C1A 5415  19.821  23.681   8.550
 3444POPC   D2A 5416  19.849  23.720   8.250
 3444POPC   C3A 5417  19.864  23.691   7.950
 3444POPC   C4A 5418  19.824  23.755   7.650
 3444POPC   C1B 5419  20.037  23.569   8.550
 3444POPC   C2B 5420  20.071  23.573   8.250
 3444POPC   C3B 5421  20.069  23.556   7.950
 3444POPC   C4B 5422  20.026  23.530   7.650
 3445POPC   NC3 5423  10.541  13.664   9.450
 3445POPC   PO4 5424  10.478  13.582   9.150
 3445POPC   GL1 5425  10.558  13.585   8.850
 3445POPC   GL2 5426  10.530  13.494   8.850
 3445POPC   C1A 5427  10.522  13.670   8.550
 3445POPC   D2A 5428  10.560  13.582   8.250
 3445POPC   C3A 5429  10.574  13.625   7.950
 3445POPC   C4A 5430  10.571  13.620   7.650
 3445POPC   C1B 5431  10.548  13.406   8.550
 3445POPC   C2B 5432  10.536  13.394   8.250
 3445POPC   C3B 5433  10.503  13.409   7.950
 3445POPC   C4B 5434  10.494  13.417   7.650
 3446POPC   NC3 5435  15.987  29.148   9.450
 3446POPC   PO4 5436  15.913  29.151   9.150
 3446POPC   GL1 5437  15.907  29.134   8.850
 3446POPC   GL2 5438  15.928  29.065   8.850
 3446POPC   C1A 5439  15.999  29.170   8.550
 3446POPC   D2A 5440  15.969  29.104   8.250
 3446POPC   C3A 5441  15.938  29.175   7.950
 3446POPC   C4A 5442  15.965  29.187   7.650
 3446POPC   C1B 5443  15.981  28.879   8.550
 3446POPC   C2B 5444  15.952  28.853   8.250
 3446POPC   C3B 5445  16.034  28.938   7.950
 3446POPC   C4B 5446  15.977  28.878   7.650
 3447POPC   NC3 5447  37.640  31.461   9.450
 3447POPC   PO4 5448  37.635  31.503   9.150
 3447POPC   GL1 5449  37.642  31.502   8.850
 3447POPC   GL2 5450  37.643  31.620   8.850
 3447POPC   C1A 5451  37.650  31.475   8.550
 3447POPC   D2A 5452  37.728  31.442   8.250
 3447POPC   C3A 5453  37.707  31.432   7.950
 3447POPC   C4A 5454  37.673  31.483   7.650
 3447POPC   C1B 5455  37.556  31.717   8.550
 3447POPC   C2B 5456  37.553  31.654   8.250
 3447POPC   C3B 5457  37.513  31.728   7.950
 3447POPC   C4B 5458  37.522  31.707   7.650
 3448POPC   NC3 5459  14.380  37.664   9.450
 3448POPC   PO4 5460  14.445  37.721   9.150
 3448POPC   GL1 5461  14.409  37.684   8.850
 3448POPC   GL2 5462  14.290  37.711   8.850
 3448POPC   C1A 5463  14.412  37.661   8.550
 3448POPC   D2A 5464  14.400  37.657   8.250
 3448POPC   C3A 5465  14.356  37.659   7.950
 3448POPC   C4A 5466  14.448  37.709   7.650
 3448POPC   C1B 5467  14.109  37.743   8.550
 3448POPC   C2B 5468  14.121  37.768   8.250
 3448POPC   C3B 5469  14.137  37.730   7.950
 3448POPC   C4B 5470  14.168  37.748   7.650
 3449POPC   NC3 5471  19.789  16.001   9.450
 3449POPC   PO4 5472  19.856  15.957   9.150
 3449POPC   GL1 5473  19.799  15.997   8.850
 3449POPC   GL2 5474  19.698  15.956   8.850
 3449POPC   C1A 5475  19.836  15.965   8.550
 3449POPC   D2A 5476  19.846  15.977   8.250
 3449POPC   C3A 5477  19.819  15.931   7.950
 3449POPC   C4A 5478  19.818  15.992   7.650
 3449POPC   C1B 5479  19.544  15.918   8.550
 3449POPC   C2B 5480  19.616  15.982   8.250
 3449POPC   C3B 5481  19.625  15.957   7.950
 3449POPC   C4B 5482  19.596  15.975   7.650
 3450POPC   NC3 5483  38.439  14.391   9.450
 3450POPC   PO4 5484  38.504  14.420   9.150
 3450POPC   GL1 5485  38.429  14.375   8.850
 3450POPC   GL2 5486  38.520  14.512   8.850
 3450POPC   C1A 5487  38.467  14.399   8.550
 3450POPC   D2A 5488  38.488  14.380   8.250
 3450POPC   C3A 5489  38.420  14.365   7.950
 3450POPC   C4A 5490  38.467  14.384   7.650
 3450POPC   C1B 5491  38.664  14.520   8.550
 3450POPC   C2B 5492  38.636  14.500   8.250
 3450POPC   C3B 5493  38.713  14.496   7.950
 3450POPC   C4B 5494  38.653  14.566   7.650
 3451POPC   NC3 5495  24.538  12.108   9.450
 3451POPC   PO4 5496  24.476  12.036   9.150
 3451POPC   GL1 5497  24.466  12.117   8.850
 3451POPC   GL2 5498  24.377  12.119   8.850
 3451POPC   C1A 5499  24.525  12.050   8.550
 3451POPC   D2A 5500  24.526  12.034   8.250
 3451POPC   C3A 5501  24.447  12.115   7.950
 3451POPC   C4A 5502  24.459  12.033   7.650
 3451POPC   C1B 5503  24.269  12.259   8.550
 3451POPC   C2B 5504  24.319  12.208   8.250
 3451POPC   C3B 5505  24.304  12.305   7.950
 3451POPC   C4B 5506  24.346  12.263   7.650
 3452POPC   NC3 5507  32.217  33.008   9.450
 3452POPC   PO4 5508  32.212  33.050   9.150
 3452POPC   GL1 5509  32.218  33.015   8.850
 3452POPC   GL2 5510  32.272  33.118   8.850
 3452POPC   C1A 5511  32.205  33.046   8.550
 3452POPC   D2A 5512  32.205  33.002   8.250
 3452POPC   C3A 5513  32.248  32.984   7.950
 3452POPC   C4A 5514  32.255  32.977   7.650
 3452POPC   C1B 5515  32.275  33.235   8.550
 3452POPC   C2B 5516  32.297  33.304   8.250
 3452POPC   C3B 5517  32.268  33.289   7.950
 3452POPC   C4B 5518  32.213  33.239   7.650
 3453POPC   NC3 5519  17.476  25.260   9.450
 3453POPC   PO4 5520  17.544  25.276   9.150
 3453POPC   GL1 5521  17.506  25.225   8.850
 3453POPC   GL2 5522  17.620  25.341   8.850
 3453POPC   C1A 5523  17.476  25.287   8.550
 3453POPC   D2A 5524  17.483  25.294   8.250
 3453POPC   C3A 5525  17.472  25.261   7.950
 3453POPC   C4A 5526  17.492  25.291   7.650
 3453POPC   C1B 5527  17.674  25.389   8.550
 3453POPC   C2B 5528  17.718  25.459   8.250
 3453POPC   C3B 5529  17.721  25.473   7.950
 3453POPC   C4B 5530  17.706  25.415   7.650
 3454POPC   NC3 5531  24.475   5.112   9.450
 3454POPC   PO4 5532  24.501   5.111   9.150
 3454POPC   GL1 5533  24.485   5.098   8.850
 3454POPC   GL2 5534  24.544   5.179   8.850
 3454POPC   C1A 5535  24.533   5.076   8.550
 3454POPC   D2A 5536  24.449   5.143   8.250
 3454POPC   C3A 5537  24.522   5.127   7.950
 3454POPC   C4A 5538  24.484   5.133   7.650
 3454POPC   C1B 5539  24.638   5.286   8.550
 3454POPC   C2B 5540  24.681   5.340   8.250
 3454POPC   C3B 5541  24.668   5.250   7.950
 3454POPC   C4B 5542  24.615   5.259   7.650
 3455POPC   NC3 5543  32.297  22.117   9.450
 3455POPC   PO4 5544  32.256  22.177   9.150
 3455POPC   GL1 5545  32.211  22.186   8.850
 3455POPC   GL2 5546  32.240  22.292   8.850
 3455POPC   C1A 5547  32.255  22.183   8.550
 3455POPC   D2A 5548  32.231  22.113   8.250
 3455POPC   C3A 5549  32.221  22.140   7.950
 3455POPC   C4A 5550  32.250  22.165   7.650
 3455POPC   C1B 5551  32.328  22.428   8.550
 3455POPC   C2B 5552  32.281  22.457   8.250
 3455POPC   C3B 5553  32.292  22.399   7.950
 3455POPC   C4B 5554  32.339  22.430   7.650
 3456POPC   NC3 5555  44.666  44.650   9.450
 3456POPC   PO4 5556  44.628  44.625   9.150
 3456POPC   GL1 5557  44.653  44.649   8.850
 3456POPC   GL2 5558  44.724  44.590   8.850
 3456POPC   C1A 5559  44.691  44.676   8.550
 3456POPC   D2A 5560  44.614  44.660   8.250
 3456POPC   C3A 5561  44.630  44.676   7.950
 3456POPC   C4A 5562  44.634  44.693   7.650
 3456POPC   C1B 5563  44.720  44.411   8.550
 3456POPC   C2B 5564  44.670  44.424   8.250
 3456POPC   C3B 5565  44.693  44.419   7.950
 3456POPC   C4B 5566  44.714  44.457   7.650
 3457POPC   NC3 5567  38.418   1.214   9.450
 3457POPC   PO4 5568  38.418   1.205   9.150
 3457POPC   GL1 5569  38.430   1.212   8.850
 3457POPC   GL2 5570  38.381   1.106   8.850
 3457POPC   C1A 5571  38.418   1.232   8.550
 3457POPC   D2A 5572  38.441   1.170   8.250
 3457POPC   C3A 5573  38.409   1.216   7.950
 3457POPC   C4A 5574  38.461   1.221   7.650
 3457POPC   C1B 5575  38.412   0.953   8.550
 3457POPC   C2B 5576  38.446   0.930   8.250
 3457POPC   C3B 5577  38.417   0.992   7.950
 3457POPC   C4B 5578  38.425   1.004   7.650
 3458POPC   NC3 5579  23.762  19.074   9.450
 3458POPC   PO4 5580  23.689  19.031   9.150
 3458POPC   GL1 5581  23.734  19.097   8.850
 3458POPC   GL2 5582  23.814  19.200   8.850
 3458POPC   C1A 5583  23.759  19.023   8.550
 3458POPC   D2A 5584  23.673  19.062   8.250
 3458POPC   C3A 5585  23.678  19.026   7.950
 3458POPC   C4A 5586  23.702  19.084   7.650
 3458POPC   C1B 5587  23.878  19.264   8.550
 3458POPC   C2B 5588  23.852  19.215   8.250
 3458POPC   C3B 5589  23.889  19.250   7.950
 3458POPC   C4B 5590  23.850  19.224   7.650
 3459POPC   NC3 5591  24.526  17.556   9.450
 3459POPC   PO4 5592  24.493  17.485   9.150
 3459POPC   GL1 5593  24.489  17.525   8.850
 3459POPC   GL2 5594  24.399  17.401   8.850
 3459POPC   C1A 5595  24.508  17.478   8.550
 3459POPC   D2A 5596  24.496  17.478   8.250
 3459POPC   C3A 5597  24.512  17.519   7.950
 3459POPC   C4A 5598  24.533  17.492   7.650
 3459POPC   C1B 5599  24.280  17.309   8.550
 3459POPC   C2B 5600  24.286  17.400   8.250
 3459POPC   C3B 5601  24.263  17.399   7.950
 3459POPC   C4B 5602  24.241  17.373   7.650
 3460POPC   NC3 5603  23.688  39.184   9.450
 3460POPC   PO4 5604  23.672  39.187   9.150
 3460POPC   GL1 5605  23.749  39.230   8.850
 3460POPC   GL2 5606  23.777  39.318   8.850
 3460POPC   C1A 5607  23.761  39.219   8.550
 3460POPC   D2A 5608  23.762  39.247   8.250
 3460POPC   C3A 5609  23.747  39.193   7.950
 3460POPC   C4A 5610  23.753  39.249   7.650
 3460POPC   C1B 5611  23.902  39.381   8.550
 3460POPC   C2B 5612  23.939  39.334   8.250
 3460POPC   C3B 5613  23.958  39.417   7.950
 3460POPC   C4B 5614  23.885  39.374   7.650
 3461POPC   NC3 5615  28.397  28.366   9.450
 3461POPC   PO4 5616  28.319  28.414   9.150
 3461POPC   GL1 5617  28.409  28.328   8.850
 3461POPC   GL2 5618  28.283  28.463   8.850
 3461POPC   C1A 5619  28.392  28.373   8.550
 3461POPC   D2A 5620  28.412  28.347   8.250
 3461POPC   C3A 5621  28.368  28.406   7.950
 3461POPC   C4A 5622  28.351  28.333   7.650
 3461POPC   C1B 5623  28.215  28.489   8.550
 3461POPC   C2B 5624  28.123  28.561   8.250
 3461POPC   C3B 5625  28.147  28.483   7.950
 3461POPC   C4B 5626  28.158  28.548   7.650
 3462POPC   NC3 5627  44.677  21.435   9.450
 3462POPC   PO4 5628  44.663  21.389   9.150
 3462POPC   GL1 5629  44.665  21.406   8.850
 3462POPC   GL2 5630  44.618  21.468   8.850
 3462POPC   C1A 5631  44.671  21.381   8.550
 3462POPC   D2A 5632  44.687  21.392   8.250
 3462POPC   C3A 5633  44.622  21.389   7.950
 3462POPC   C4A 5634  44.637  21.392   7.650
 3462POPC   C1B 5635  44.552  21.595   8.550
 3462POPC   C2B 5636  44.553  21.564   8.250
 3462POPC   C3B 5637  44.484  21.616   7.950
 3462POPC   C4B 5638  44.492  21.619   7.650
 3463POPC   NC3 5639  43.132  16.695   9.450
 3463POPC   PO4 5640  43.128  16.714   9.150
 3463POPC   GL1 5641  43.126  16.686   8.850
 3463POPC   GL2 5642  43.201  16.833   8.850
 3463POPC   C1A 5643  43.150  16.693   8.550
 3463POPC   D2A 5644  43.118  16.694   8.250
 3463POPC   C3A 5645  43.147  16.721   7.950
 3463POPC   C4A 5646  43.093  16.703   7.650
 3463POPC   C1B 5647  43.203  16.969   8.550
 3463POPC   C2B 5648  43.184  16.946   8.250
 3463POPC   C3B 5649  43.212  16.922   7.950
 3463POPC   C4B 5650  43.194  16.948   7.650
 3464POPC   NC3 5651   9.731  12.879   9.450
 3464POPC   PO4 5652   9.718  12.846   9.150
 3464POPC   GL1 5653   9.735  12.897   8.850
 3464POPC   GL2 5654   9.746  12.752   8.850
 3464POPC   C1A 5655   9.736  12.846   8.550
 3464POPC   D2A 5656   9.767  12.853   8.250
 3464POPC   C3A 5657   9.768  12.848   7.950
 3464POPC   C4A 5658   9.733  12.810   7.650
 3464POPC   C1B 5659   9.855  12.614   8.550
 3464POPC   C2B 5660   9.839  12.570   8.250
 3464POPC   C3B 5661   9.851  12.653   7.950
 3464POPC   C4B 5662   9.780  12.609   7.650
 3465POPC   NC3 5663  23.743  16.758   9.450
 3465POPC   PO4 5664  23.679  16.733   9.150
 3465POPC   GL1 5665  23.680  16.742   8.850
 3465POPC   GL2 5666  23.592  16.819   8.850
 3465POPC   C1A 5667  23.759  16.682   8.550
 3465POPC   D2A 5668  23.670  16.731   8.250
 3465POPC   C3A 5669  23.709  16.742   7.950
 3465POPC   C4A 5670  23.675  16.780   7.650
 3465POPC   C1B 5671  23.544  16.889   8.550
 3465POPC   C2B 5672  23.551  16.874   8.250
 3465POPC   C3B 5673  23.522  16.881   7.950
 3465POPC   C4B 5674  23.520  16.941   7.650
 3466POPC   NC3 5675  37.666  22.194   9.450
 3466POPC   PO4 5676  37.707  22.170   9.150
 3466POPC   GL1 5677  37.680  22.115   8.850
 3466POPC   GL2 5678  37.531  22.219   8.850
 3466POPC   C1A 5679  37.712  22.160   8.550
 3466POPC   D2A 5680  37.702  22.157   8.250
 3466POPC   C3A 5681  37.640  22.186   7.950
 3466POPC   C4A 5682  37.653  22.195   7.650
 3466POPC   C1B 5683  37.417  22.306   8.550
 3466POPC   C2B 5684  37.468  22.216   8.250
 3466POPC   C3B 5685  37.418  22.296   7.950
 3466POPC   C4B 5686  37.437  22.257   7.650
 3467POPC   NC3 5687   6.656  25.301   9.450
 3467POPC   PO4 5688   6.622  25.301   9.150
 3467POPC   GL1 5689   6.668  25.267   8.850
 3467POPC   GL2 5690   6.502  25.242   8.850
 3467POPC   C1A 5691   6.603  25.281   8.550
 3467POPC   D2A 5692   6.619  25.256   8.250
 3467POPC   C3A 5693   6.684  25.223   7.950
 3467POPC   C4A 5694   6.649  25.230   7.650
 3467POPC   C1B 5695   6.367  25.279   8.550
 3467POPC   C2B 5696   6.378  25.264   8.250
 3467POPC   C3B 5697   6.425  25.321   7.950
 3467POPC   C4B 5698   6.366  25.272   7.650
 3468POPC   NC3 5699  25.276  42.349   9.450
 3468POPC   PO4 5700  25.273  42.329   9.150
 3468POPC   GL1 5701  25.266  42.359   8.850
 3468POPC   GL2 5702  25.145  42.343   8.850
 3468POPC   C1A 5703  25.267  42.331   8.550
 3468POPC   D2A 5704  25.280  42.325   8.250
 3468POPC   C3A 5705  25.216  42.335   7.950
 3468POPC   C4A 5706  25.229  42.336   7.650
 3468POPC   C1B 5707  25.003  42.422   8.550
 3468POPC   C2B 5708  25.011  42.448   8.250
 3468POPC   C3B 5709  24.988  42.410   7.950
 3468POPC   C4B 5710  24.976  42.427   7.650
 3469POPC   NC3 5711  12.074  20.643   9.450
 3469POPC   PO4 5712  12.063  20.640   9.150
 3469POPC   GL1 5713  12.077  20.649   8.850
 3469POPC   GL2 5714  12.019  20.741   8.850
 3469POPC   C1A 5715  12.044  20.620   8.550
 3469POPC   D2A 5716  12.074  20.616   8.250
 3469POPC   C3A 5717  12.097  20.648   7.950
 3469POPC   C4A 5718  12.094  20.616   7.650
 3469POPC   C1B 5719  11.944  20.806   8.550
 3469POPC   C2B 5720  11.914  20.795   8.250
 3469POPC   C3B 5721  11.854  20.805   7.950
 3469POPC   C4B 5722  11.868  20.837   7.650
 3470POPC   NC3 5723  17.547   5.063   9.450
 3470POPC   PO4 5724  17.518   5.134   9.150
 3470POPC   GL1 5725  17.508   5.060   8.850
 3470POPC   GL2 5726  17.378   5.114   8.850
 3470POPC   C1A 5727  17.522   5.061   8.550
 3470POPC   D2A 5728  17.533   5.121   8.250
 3470POPC   C3A 5729  17.463   5.093   7.950
 3470POPC   C4A 5730  17.464   5.124   7.650
 3470POPC   C1B 5731  17.268   5.059   8.550
 3470POPC   C2B 5732  17.301   5.064   8.250
 3470POPC   C3B 5733  17.261   5.050   7.950
 3470POPC   C4B 5734  17.283   5.027   7.650
 3471POPC   NC3 5735   5.832   6.630   9.450
 3471POPC   PO4 5736   5.885   6.658   9.150
 3471POPC   GL1 5737   5.910   6.648   8.850
 3471POPC   GL2 5738   5.935   6.801   8.850
 3471POPC   C1A 5739   5.826   6.651   8.550
 3471POPC   D2A 5740   5.848   6.606   8.250
 3471POPC   C3A 5741   5.872   6.617   7.950
 3471POPC   C4A 5742   5.858   6.687   7.650
 3471POPC   C1B 5743   5.943   6.889   8.550
 3471POPC   C2B 5744   5.918   6.870   8.250
 3471POPC   C3B 5745   5.889   6.842   7.950
 3471POPC   C4B 5746   5.915   6.923   7.650
 3472POPC   NC3 5747  44.656  19.836   9.450
 3472POPC   PO4 5748  44.662  19.879   9.150
 3472POPC   GL1 5749  44.676  19.786   8.850
 3472POPC   GL2 5750  44.712  19.682   8.850
 3472POPC   C1A 5751  44.704  19.844   8.550
 3472POPC   D2A 5752  44.665  19.822   8.250
 3472POPC   C3A 5753  44.645  19.789   7.950
 3472POPC   C4A 5754  44.707  19.834   7.650
 3472POPC   C1B 5755  44.623  19.566   8.550
 3472POPC   C2B 5756  44.680  19.598   8.250
 3472POPC   C3B 5757  44.639  19.555   7.950
 3472POPC   C4B 5758  44.695  19.589   7.650
 3473POPC   NC3 5759  38.500  33.008   9.450
 3473POPC   PO4 5760  38.426  32.987   9.150
 3473POPC   GL1 5761  38.500  33.008   8.850
 3473POPC   GL2 5762  38.443  32.901   8.850
 3473POPC   C1A 5763  38.497  32.994   8.550
 3473POPC   D2A 5764  38.421  32.979   8.250
 3473POPC   C3A 5765  38.409  33.068   7.950
 3473POPC   C4A 5766  38.426  33.040   7.650
 3473POPC   C1B 5767  38.438  32.733   8.550
 3473POPC   C2B 5768  38.473  32.816   8.250
 3473POPC   C3B 5769  38.472  32.804   7.950
 3473POPC   C4B 5770  38.441  32.740   7.650
 3474POPC   NC3 5771   7.418  40.009   9.450
 3474POPC   PO4 5772   7.398  40.001   9.150
 3474POPC   GL1 5773   7.380  40.031   8.850
 3474POPC   GL2 5774   7.548  39.998   8.850
 3474POPC   C1A 5775   7.411  40.040   8.550
 3474POPC   D2A 5776   7.461  39.985   8.250
 3474POPC   C3A 5777   7.409  40.036   7.950
 3474POPC   C4A 5778   7.411  39.965   7.650
 3474POPC   C1B 5779   7.653  39.965   8.550
 3474POPC   C2B 5780   7.697  39.951   8.250
 3474POPC   C3B 5781   7.644  39.914   7.950
 3474POPC   C4B 5782   7.682  39.923   7.650
 3475POPC   NC3 5783  15.156  12.046   9.450
 3475POPC   PO4 5784  15.139  12.121   9.150
 3475POPC   GL1 5785  15.193  12.075   8.850
 3475POPC   GL2 5786  15.088  12.229   8.850
 3475POPC   C1A 5787  15.221  12.075   8.550
 3475POPC   D2A 5788  15.153  12.066   8.250
 3475POPC   C3A 5789  15.204  12.065   7.950
 3475POPC   C4A 5790  15.195  12.078   7.650
 3475POPC   C1B 5791  15.067  12.316   8.550
 3475POPC   C2B 5792  15.026  12.280   8.250
 3475POPC   C3B 5793  15.061  12.322   7.950
 3475POPC   C4B 5794  15.051  12.323   7.650
 3476POPC   NC3 5795   1.187  31.431   9.450
 3476POPC   PO4 5796   1.253  31.510   9.150
 3476POPC   GL1 5797   1.175  31.512   8.850
 3476POPC   GL2 5798   1.158  31.570   8.850
 3476POPC   C1A 5799   1.262  31.456   8.550
 3476POPC   D2A 5800   1.189  31.494   8.250
 3476POPC   C3A 5801   1.200  31.476   7.950
 3476POPC   C4A 5802   1.256  31.520   7.650
 3476POPC   C1B 5803   1.154  31.735   8.550
 3476POPC   C2B 5804   1.108  31.683   8.250
 3476POPC   C3B 5805   1.107  31.700   7.950
 3476POPC   C4B 5806   1.129  31.724   7.650
 3477POPC   NC3 5807   9.795   3.509   9.450
 3477POPC   PO4 5808   9.708   3.518   9.150
 3477POPC   GL1 5809   9.724   3.501   8.850
 3477POPC   GL2 5810   9.792   3.434   8.850
 3477POPC   C1A 5811   9.785   3.558   8.550
 3477POPC   D2A 5812   9.788   3.492   8.250
 3477POPC   C3A 5813   9.782   3.512   7.950
 3477POPC   C4A 5814   9.768   3.516   7.650
 3477POPC   C1B 5815   9.809   3.312   8.550
 3477POPC   C2B 5816   9.838   3.283   8.250
 3477POPC   C3B 5817   9.785   3.344   7.950
 3477POPC   C4B 5818   9.804   3.337   7.650
 3478POPC   NC3 5819  36.087   8.991   9.450
 3478POPC   PO4 5820  36.154   9.009   9.150
 3478POPC   GL1 5821  36.160   8.986   8.850
 3478POPC   GL2 5822  36.162   9.090   8.850
 3478POPC   C1A 5823  36.118   8.962   8.550
 3478POPC   D2A 5824  36.151   8.944   8.250
 3478POPC   C3A 5825  36.118   8.924   7.950
 3478POPC   C4A 5826  36.154   8.948   7.650
 3478POPC   C1B 5827  36.275   9.156   8.550
 3478POPC   C2B 5828  36.334   9.140   8.250
 3478POPC   C3B 5829  36.299   9.189   7.950
 3478POPC   C4B 5830  36.244   9.169   7.650
 3479POPC   NC3 5831   3.526  34.592   9.450
 3479POPC   PO4 5832   3.559  34.536   9.150
 3479POPC   GL1 5833   3.569  34.593   8.850
 3479POPC   GL2 5834   3.465  34.619   8.850
 3479POPC   C1A 5835   3.570  34.607   8.550
 3479POPC   D2A 5836   3.495  34.625   8.250
 3479POPC   C3A 5837   3.523  34.569   7.950
 3479POPC   C4A 5838   3.545  34.537   7.650
 3479POPC   C1B 5839   3.349  34.702   8.550
 3479POPC   C2B 5840   3.339  34.713   8.250
 3479POPC   C3B 5841   3.379  34.707   7.950
 3479POPC   C4B 5842   3.363  34.741   7.650
 3480POPC   NC3 5843  23.683   9.752   9.450
 3480POPC   PO4 5844  23.741   9.702   9.150
 3480POPC   GL1 5845  23.664   9.708   8.850
 3480POPC   GL2 5846  23.665   9.901   8.850
 3480POPC   C1A 5847  23.721   9.749   8.550
 3480POPC   D2A 5848  23.746   9.721   8.250
 3480POPC   C3A 5849  23.678   9.701   7.950
 3480POPC   C4A 5850  23.719   9.725   7.650
 3480POPC   C1B 5851  23.639  10.005   8.550
 3480POPC   C2B 5852  23.568  10.015   8.250
 3480POPC   C3B 5853  23.624   9.940   7.950
 3480POPC   C4B 5854  23.608   9.931   7.650
 3481POPC   NC3 5855   9.796  15.944   9.450
 3481POPC   PO4 5856   9.739  15.976   9.150
 3481POPC   GL1 5857   9.745  15.922   8.850
 3481POPC   GL2 5858   9.893  15.911   8.850
 3481POPC   C1A 5859   9.793  15.958   8.550
 3481POPC   D2A 5860   9.787  15.943   8.250
 3481POPC   C3A 5861   9.783  15.943   7.950
 3481POPC   C4A 5862   9.719  16.003   7.650
 3481POPC   C1B 5863  10.033  15.925   8.550
 3481POPC   C2B 5864   9.959  15.959   8.250
 3481POPC   C3B 5865  10.015  15.911   7.950
 3481POPC   C4B 5866  10.014  15.928   7.650
 3482POPC   NC3 5867  19.851  41.571   9.450
 3482POPC   PO4 5868  19.834  41.540   9.150
 3482POPC   GL1 5869  19.862  41.575   8.850
 3482POPC   GL2 5870  19.935  41.562   8.850
 3482POPC   C1A 5871  19.869  41.554   8.550
 3482POPC   D2A 5872  19.826  41.549   8.250
 3482POPC   C3A 5873  19.790  41.523   7.950
 3482POPC   C4A 5874  19.851  41.590   7.650
 3482POPC   C1B 5875  20.044  41.677   8.550
 3482POPC   C2B 5876  20.039  41.638   8.250
 3482POPC   C3B 5877  20.065  41.671   7.950
 3482POPC   C4B 5878  20.088  41.607   7.650
 3483POPC   NC3 5879  21.385  38.469   9.450
 3483POPC   PO4 5880  21.403  38.486   9.150
 3483POPC   GL1 5881  21.337  38.476   8.850
 3483POPC   GL2 5882  21.285  38.436   8.850
 3483POPC   C1A 5883  21.431  38.450   8.550
 3483POPC   D2A 5884  21.370  38.445   8.250
 3483POPC   C3A 5885  21.401  38.441   7.950
 3483POPC   C4A 5886  21.380  38.409   7.650
 3483POPC   C1B 5887  21.209  38.303   8.550
 3483POPC   C2B 5888  21.113  38.338   8.250
 3483POPC   C3B 5889  21.171  38.358   7.950
 3483POPC   C4B 5890  21.134  38.341   7.650
 3484POPC   NC3 5891  42.333   9.750   9.450
 3484POPC   PO4 5892  42.303   9.759   9.150
 3484POPC   GL1 5893  42.377   9.781   8.850
 3484POPC   GL2 5894  42.210   9.757   8.850
 3484POPC   C1A 5895  42.291   9.706   8.550
 3484POPC   D2A 5896  42.381   9.775   8.250
 3484POPC   C3A 5897  42.375   9.725   7.950
 3484POPC   C4A 5898  42.302   9.786   7.650
 3484POPC   C1B 5899  42.069   9.730   8.550
 3484POPC   C2B 5900  42.136   9.784   8.250
 3484POPC   C3B 5901  42.098   9.808   7.950
 3484POPC   C4B 5902  42.075   9.795   7.650
 3485POPC   NC3 5903   2.729  33.798   9.450
 3485POPC   PO4 5904   2.814  33.825   9.150
 3485POPC   GL1 5905   2.771  33.790   8.850
 3485POPC   GL2 5906   2.773  33.965   8.850
 3485POPC   C1A 5907   2.815  33.772   8.550
 3485POPC   D2A 5908   2.764  33.780   8.250
 3485POPC   C3A 5909   2.743  33.765   7.950
 3485POPC   C4A 5910   2.749  33.836   7.650
 3485POPC   C1B 5911   2.724  34.074   8.550
 3485POPC   C2B 5912   2.793  34.049   8.250
 3485POPC   C3B 5913   2.720  34.047   7.950
 3485POPC   C4B 5914   2.738  34.055   7.650
 3486POPC   NC3 5915  40.010  30.736   9.450
 3486POPC   PO4 5916  39.971  30.678   9.150
 3486POPC   GL1 5917  39.998  30.740   8.850
 3486POPC   GL2 5918  40.023  30.782   8.850
 3486POPC   C1A 5919  40.009  30.669   8.550
 3486POPC   D2A 5920  40.030  30.675   8.250
 3486POPC   C3A 5921  39.990  30.699   7.950
 3486POPC   C4A 5922  40.037  30.711   7.650
 3486POPC   C1B 5923  40.056  30.914   8.550
 3486POPC   C2B 5924  40.106  30.917   8.250
 3486POPC   C3B 5925  40.020  30.947   7.950
 3486POPC   C4B 5926  40.063  30.895   7.650
 3487POPC   NC3 5927  29.163  38.501   9.450
 3487POPC   PO4 5928  29.131  38.485   9.150
 3487POPC   GL1 5929  29.164  38.452   8.850
 3487POPC   GL2 5930  29.203  38.534   8.850
 3487POPC   C1A 5931  29.149  38.459   8.550
 3487POPC   D2A 5932  29.168  38.439   8.250
 3487POPC   C3A 5933  29.130  38.432   7.950
 3487POPC   C4A 5934  29.116  38.434   7.650
 3487POPC   C1B 5935  29.180  38.667   8.550
 3487POPC   C2B 5936  29.180  38.728   8.250
 3487POPC   C3B 5937  29.185  38.703   7.950
 3487POPC   C4B 5938  29.208  38.717   7.650
 3488POPC   NC3 5939  12.853  28.409   9.450
 3488POPC   PO4 5940  12.855  28.331   9.150
 3488POPC   GL1 5941  12.813  28.412   8.850
 3488POPC   GL2 5942  12.922  28.233   8.850
 3488POPC   C1A 5943  12.890  28.320   8.550
 3488POPC   D2A 5944  12.808  28.373   8.250
 3488POPC   C3A 5945  12.809  28.391   7.950
 3488POPC   C4A 5946  12.850  28.411   7.650
 3488POPC   C1B 5947  13.047  28.153   8.550
 3488POPC   C2B 5948  12.979  28.202   8.250
 3488POPC   C3B 5949  13.046  28.138   7.950
 3488POPC   C4B 5950  12.995  28.197   7.650
 3489POPC   NC3 5951  20.594  13.615   9.450
 3489POPC   PO4 5952  20.591  13.648   9.150
 3489POPC   GL1 5953  20.659  13.583   8.850
 3489POPC   GL2 5954  20.484  13.621   8.850
 3489POPC   C1A 5955  20.643  13.668   8.550
 3489POPC   D2A 5956  20.634  13.646   8.250
 3489POPC   C3A 5957  20.641  13.669   7.950
 3489POPC   C4A 5958  20.649  13.653   7.650
 3489POPC   C1B 5959  20.405  13.598   8.550
 3489POPC   C2B 5960  20.392  13.548   8.250
 3489POPC   C3B 5961  20.384  13.565   7.950
 3489POPC   C4B 5962  20.366  13.613   7.650
 3490POPC   NC3 5963  39.983   6.665   9.450
 3490POPC   PO4 5964  39.964   6.628   9.150
 3490POPC   GL1 5965  40.007   6.691   8.850
 3490POPC   GL2 5966  40.097   6.687   8.850
 3490POPC   C1A 5967  39.980   6.683   8.550
 3490POPC   D2A 5968  40.047   6.602   8.250
 3490POPC   C3A 5969  40.027   6.607   7.950
 3490POPC   C4A 5970  40.049   6.692   7.650
 3490POPC   C1B 5971  40.276   6.683   8.550
 3490POPC   C2B 5972  40.301   6.729   8.250
 3490POPC   C3B 5973  40.302   6.698   7.950
 3490POPC   C4B 5974  40.288   6.674   7.650
 3491POPC   NC3 5975  37.700  43.124   9.450
 3491POPC   PO4 5976  37.663  43.140   9.150
 3491POPC   GL1 5977  37.691  43.127   8.850
 3491POPC   GL2 5978  37.759  43.211   8.850
 3491POPC   C1A 5979  37.682  43.156   8.550
 3491POPC   D2A 5980  37.651  43.101   8.250
 3491POPC   C3A 5981  37.686  43.110   7.950
 3491POPC   C4A 5982  37.698  43.093   7.650
 3491POPC   C1B 5983  37.825  43.315   8.550
 3491POPC   C2B 5984  37.859  43.326   8.250
 3491POPC   C3B 5985  37.797  43.308   7.950
 3491POPC   C4B 5986  37.798  43.269   7.650
 3492POPC   NC3 5987  32.246  12.883   9.450
 3492POPC   PO4 5988  32.224  12.864   9.150
 3492POPC   GL1 5989  32.220  12.881   8.850
 3492POPC   GL2 5990  32.168  12.885   8.850
 3492POPC   C1A 5991  32.281  12.897   8.550
 3492POPC   D2A 5992  32.238  12.848   8.250
 3492POPC   C3A 5993  32.290  12.898   7.950
 3492POPC   C4A 5994  32.255  12.837   7.650
 3492POPC   C1B 5995  31.968  12.897   8.550
 3492POPC   C2B 5996  31.961  12.912   8.250
 3492POPC   C3B 5997  31.993  12.911   7.950
 3492POPC   C4B 5998  32.029  12.927   7.650
 3493POPC   NC3 5999   6.617  10.543   9.450
 3493POPC   PO4 6000   6.612  10.478   9.150
 3493POPC   GL1 6001   6.608  10.557   8.850
 3493POPC   GL2 6002   6.790  10.561   8.850
 3493POPC   C1A 6003   6.679  10.531   8.550
 3493POPC   D2A 6004   6.628  10.539   8.250
 3493POPC   C3A 6005   6.612  10.479   7.950
 3493POPC   C4A 6006   6.628  10.528   7.650
 3493POPC   C1B 6007   6.875  10.648   8.550
 3493POPC   C2B 6008   6.838  10.693   8.250
 3493POPC   C3B 6009   6.826  10.673   7.950
 3493POPC   C4B 6010   6.834  10.627   7.650
 3494POPC   NC3 6011  43.160   5.106   9.450
 3494POPC   PO4 6012  43.094   5.129   9.150
 3494POPC   GL1 6013  43.075   5.098   8.850
 3494POPC   GL2 6014  42.958   5.077   8.850
 3494POPC   C1A 6015  43.115   5.064   8.550
 3494POPC   D2A 6016  43.066   5.067   8.250
 3494POPC   C3A 6017  43.129   5.101   7.950
 3494POPC   C4A 6018  43.142   5.105   7.650
 3494POPC   C1B 6019  42.837   5.114   8.550
 3494POPC   C2B 6020  42.824   5.163   8.250
 3494POPC   C3B 6021  42.824   5.182   7.950
 3494POPC   C4B 6022  42.903   5.103   7.650
 3495POPC   NC3 6023  25.279   1.192   9.450
 3495POPC   PO4 6024  25.314   1.192   9.150
 3495POPC   GL1 6025  25.285   1.205   8.850
 3495POPC   GL2 6026  25.109   1.197   8.850
 3495POPC   C1A 6027  25.244   1.251   8.550
 3495POPC   D2A 6028  25.289   1.258   8.250
 3495POPC   C3A 6029  25.267   1.187   7.950
 3495POPC   C4A 6030  25.290   1.197   7.650
 3495POPC   C1B 6031  24.991   1.242   8.550
 3495POPC   C2B 6032  25.009   1.244   8.250
 3495POPC   C3B 6033  25.004   1.244   7.950
 3495POPC   C4B 6034  25.043   1.229   7.650
 3496POPC   NC3 6035  22.929  22.147   9.450
 3496POPC   PO4 6036  22.981  22.190   9.150
 3496POPC   GL1 6037  22.914  22.202   8.850
 3496POPC   GL2 6038  22.913  22.290   8.850
 3496POPC   C1A 6039  22.947  22.184   8.550
 3496POPC   D2A 6040  22.925  22.201   8.250
 3496POPC   C3A 6041  22.922  22.127   7.950
 3496POPC   C4A 6042  22.898  22.203   7.650
 3496POPC   C1B 6043  22.881  22.375   8.550
 3496POPC   C2B 6044  22.917  22.439   8.250
 3496POPC   C3B 6045  22.910  22.374   7.950
 3496POPC   C4B 6046  22.925  22.441   7.650
 3497POPC   NC3 6047  39.986  36.858   9.450
 3497POPC   PO4 6048  40.020  36.897   9.150
 3497POPC   GL1 6049  39.967  36.898   8.850
 3497POPC   GL2 6050  40.057  36.977   8.850
 3497POPC   C1A 6051  40.013  36.893   8.550
 3497POPC   D2A 6052  40.020  36.932   8.250
 3497POPC   C3A 6053  39.968  36.923   7.950
 3497POPC   C4A 6054  40.037  36.888   7.650
 3497POPC   C1B 6055  40.047  37.184   8.550
 3497POPC   C2B 6056  40.126  37.179   8.250
 3497POPC   C3B 6057  40.142  37.169   7.950
 3497POPC   C4B 6058  40.076  37.146   7.650
 3498POPC   NC3 6059  34.601  12.886   9.450
 3498POPC   PO4 6060  34.624  12.861   9.150
 3498POPC   GL1 6061  34.563  12.853   8.850
 3498POPC   GL2 6062  34.499  12.718   8.850
 3498POPC   C1A 6063  34.605  12.886   8.550
 3498POPC   D2A 6064  34.574  12.804   8.250
 3498POPC   C3A 6065  34.563  12.860   7.950
 3498POPC   C4A 6066  34.556  12.823   7.650
 3498POPC   C1B 6067  34.409  12.647   8.550
 3498POPC   C2B 6068  34.454  12.676   8.250
 3498POPC   C3B 6069  34.509  12.629   7.950
 3498POPC   C4B 6070  34.437  12.637   7.650
 3499POPC   NC3 6071  12.116  27.604   9.450
 3499POPC   PO4 6072  12.059  27.554   9.150
 3499POPC   GL1 6073  12.039  27.575   8.850
 3499POPC   GL2 6074  12.101  27.501   8.850
 3499POPC   C1A 6075  12.070  27.586   8.550
 3499POPC   D2A 6076  12.048  27.639   8.250
 3499POPC   C3A 6077  12.061  27.571   7.950
 3499POPC   C4A 6078  12.027  27.615   7.650
 3499POPC   C1B 6079  12.052  27.296   8.550
 3499POPC   C2B 6080  12.082  27.380   8.250
 3499POPC   C3B 6081  12.142  27.317   7.950
 3499POPC   C4B 6082  12.104  27.372   7.650
 3500POPC   NC3 6083  43.891   9.771   9.450
 3500POPC   PO4 6084  43.849   9.746   9.150
 3500POPC   GL1 6085  43.853   9.796   8.850
 3500POPC   GL2 6086  43.995   9.856   8.850
 3500POPC   C1A 6087  43.852   9.781   8.550
 3500POPC   D2A 6088  43.892   9.785   8.250
 3500POPC   C3A 6089  43.844   9.735   7.950
 3500POPC   C4A 6090  43.906   9.763   7.650
 3500POPC   C1B 6091  44.058   9.963   8.550
 3500POPC   C2B 6092  44.002   9.961   8.250
 3500POPC   C3B 6093  44.020   9.942   7.950
 3500POPC   C4B 6094  43.988   9.987   7.650
 3501POPC   NC3 6095  43.895   6.605   9.450
 3501POPC   PO4 6096  43.933   6.648   9.150
 3501POPC   GL1 6097  43.874   6.612   8.850
 3501POPC   GL2 6098  43.841   6.554   8.850
 3501POPC   C1A 6099  43.929   6.687   8.550
 3501POPC   D2A 6100  43.913   6.617   8.250
 3501POPC   C3A 6101  43.858   6.656   7.950
 3501POPC   C4A 6102  43.918   6.680   7.650
 3501POPC   C1B 6103  43.785   6.457   8.550
 3501POPC   C2B 6104  43.802   6.443   8.250
 3501POPC   C3B 6105  43.796   6.454   7.950
 3501POPC   C4B 6106  43.765   6.453   7.650
 3502POPC   NC3 6107  18.241  29.191   9.450
 3502POPC   PO4 6108  18.302  29.190   9.150
 3502POPC   GL1 6109  18.234  29.182   8.850
 3502POPC   GL2 6110  18.175  29.185   8.850
 3502POPC   C1A 6111  18.244  29.137   8.550
 3502POPC   D2A 6112  18.239  29.141   8.250
 3502POPC   C3A 6113  18.275  29.178   7.950
 3502POPC   C4A 6114  18.312  29.167   7.650
 3502POPC   C1B 6115  18.056  29.279   8.550
 3502POPC   C2B 6116  18.108  29.307   8.250
 3502POPC   C3B 6117  18.107  29.259   7.950
 3502POPC   C4B 6118  18.062  29.279   7.650
 3503POPC   NC3 6119  19.851   1.260   9.450
 3503POPC   PO4 6120  19.832   1.237   9.150
 3503POPC   GL1 6121  19.868   1.186   8.850
 3503POPC   GL2 6122  19.946   1.064   8.850
 3503POPC   C1A 6123  19.859   1.192   8.550
 3503POPC   D2A 6124  19.881   1.234   8.250
 3503POPC   C3A 6125  19.807   1.238   7.950
 3503POPC   C4A 6126  19.870   1.208   7.650
 3503POPC   C1B 6127  19.955   1.051   8.550
 3503POPC   C2B 6128  19.972   0.993   8.250
 3503POPC   C3B 6129  19.961   1.030   7.950
 3503POPC   C4B 6130  19.927   1.028   7.650
 3504POPC   NC3 6131  36.151  12.068   9.450
 3504POPC   PO4 6132  36.091  12.092   9.150
 3504POPC   GL1 6133  36.111  12.100   8.850
 3504POPC   GL2 6134  36.205  12.093   8.850
 3504POPC   C1A 6135  36.109  12.041   8.550
 3504POPC   D2A 6136  36.085  12.053   8.250
 3504POPC   C3A 6137  36.154  12.107   7.950
 3504POPC   C4A 6138  36.080  12.048   7.650
 3504POPC   C1B 6139  36.384  12.149   8.550
 3504POPC   C2B 6140  36.364  12.187   8.250
 3504POPC   C3B 6141  36.369  12.196   7.950
 3504POPC   C4B 6142  36.333  12.210   7.650
 3505POPC   NC3 6143  30.694  24.459   9.450
 3505POPC   PO4 6144  30.742  24.520   9.150
 3505POPC   GL1 6145  30.683  24.446   8.850
 3505POPC   GL2 6146  30.794  24.416   8.850
 3505POPC   C1A 6147  30.658  24.507   8.550
 3505POPC   D2A 6148  30.649  24.444   8.250
 3505POPC   C3A 6149  30.690  24.487   7.950
 3505POPC   C4A 6150  30.658  24.455   7.650
 3505POPC   C1B 6151  30.903  24.452   8.550
 3505POPC   C2B 6152  30.979  24.427   8.250
 3505POPC   C3B 6153  30.979  24.385   7.950
 3505POPC   C4B 6154  30.962  24.399   7.650
 3506POPC   NC3 6155  39.221  36.938   9.450
 3506POPC   PO4 6156  39.196  36.907   9.150
 3506POPC   GL1 6157  39.188  36.863   8.850
 3506POPC   GL2 6158  39.148  36.977   8.850
 3506POPC   C1A 6159  39.215  36.910   8.550
 3506POPC   D2A 6160  39.261  36.915   8.250
 3506POPC   C3A 6161  39.246  36.898   7.950
 3506POPC   C4A 6162  39.216  36.922   7.650
 3506POPC   C1B 6163  39.063  37.108   8.550
 3506POPC   C2B 6164  39.037  37.091   8.250
 3506POPC   C3B 6165  39.035  37.027   7.950
 3506POPC   C4B 6166  39.040  37.019   7.650
 3507POPC   NC3 6167  25.314   3.540   9.450
 3507POPC   PO4 6168  25.239   3.524   9.150
 3507POPC   GL1 6169  25.278   3.522   8.850
 3507POPC   GL2 6170  25.256   3.407   8.850
 3507POPC   C1A 6171  25.239   3.506   8.550
 3507POPC   D2A 6172  25.272   3.536   8.250
 3507POPC   C3A 6173  25.246   3.536   7.950
 3507POPC   C4A 6174  25.248   3.539   7.650
 3507POPC   C1B 6175  25.289   3.298   8.550
 3507POPC   C2B 6176  25.240   3.299   8.250
 3507POPC   C3B 6177  25.271   3.260   7.950
 3507POPC   C4B 6178  25.278   3.338   7.650
 3508POPC   NC3 6179   1.993  19.817   9.450
 3508POPC   PO4 6180   1.963  19.834   9.150
 3508POPC   GL1 6181   2.013  19.851   8.850
 3508POPC   GL2 6182   1.875  19.886   8.850
 3508POPC   C1A 6183   2.010  19.812   8.550
 3508POPC   D2A 6184   2.006  19.815   8.250
 3508POPC   C3A 6185   1.956  19.869   7.950
 3508POPC   C4A 6186   2.003  19.850   7.650
 3508POPC   C1B 6187   1.710  19.940   8.550
 3508POPC   C2B 6188   1.774  19.937   8.250
 3508POPC   C3B 6189   1.754  19.928   7.950
 3508POPC   C4B 6190   1.713  19.938   7.650
 3509POPC   NC3 6191  32.990  32.228   9.450
 3509POPC   PO4 6192  32.999  32.246   9.150
 3509POPC   GL1 6193  32.979  32.235   8.850
 3509POPC   GL2 6194  33.034  32.156   8.850
 3509POPC   C1A 6195  32.994  32.275   8.550
 3509POPC   D2A 6196  33.000  32.271   8.250
 3509POPC   C3A 6197  33.017  32.249   7.950
 3509POPC   C4A 6198  33.004  32.261   7.650
 3509POPC   C1B 6199  33.100  32.009   8.550
 3509POPC   C2B 6200  33.142  32.006   8.250
 3509POPC   C3B 6201  33.135  31.982   7.950
 3509POPC   C4B 6202  33.076  32.008   7.650
 3510POPC   NC3 6203  36.161  10.509   9.450
 3510POPC   PO4 6204  36.172  10.483   9.150
 3510POPC   GL1 6205  36.134  10.546   8.850
 3510POPC   GL2 6206  36.209  10.597   8.850
 3510POPC   C1A 6207  36.132  10.513   8.550
 3510POPC   D2A 6208  36.110  10.477   8.250
 3510POPC   C3A 6209  36.124  10.499   7.950
 3510POPC   C4A 6210  36.137  10.513   7.650
 3510POPC   C1B 6211  36.396  10.585   8.550
 3510POPC   C2B 6212  36.306  10.653   8.250
 3510POPC   C3B 6213  36.377  10.635   7.950
 3510POPC   C4B 6214  36.400  10.601   7.650
 3511POPC   NC3 6215  40.807   9.756   9.450
 3511POPC   PO4 6216  40.788   9.702   9.150
 3511POPC   GL1 6217  40.762   9.742   8.850
 3511POPC   GL2 6218  40.724   9.803   8.850
 3511POPC   C1A 6219  40.748   9.737   8.550
 3511POPC   D2A 6220  40.818   9.719   8.250
 3511POPC   C3A 6221  40.737   9.779   7.950
 3511POPC   C4A 6222  40.795   9.716   7.650
 3511POPC   C1B 6223  40.548   9.893   8.550
 3511POPC   C2B 6224  40.566   9.855   8.250
 3511POPC   C3B 6225  40.553   9.857   7.950
 3511POPC   C4B 6226  40.560   9.908   7.650
 3512POPC   NC3 6227  19.866   5.887   9.450
 3512POPC   PO4 6228  19.797   5.902   9.150
 3512POPC   GL1 6229  19.862   5.865   8.850
 3512POPC   GL2 6230  19.859   5.967   8.850
 3512POPC   C1A 6231  19.871   5.849   8.550
 3512POPC   D2A 6232  19.873   5.824   8.250
 3512POPC   C3A 6233  19.826   5.862   7.950
 3512POPC   C4A 6234  19.786   5.828   7.650
 3512POPC   C1B 6235  19.917   6.141   8.550
 3512POPC   C2B 6236  19.916   6.119   8.250
 3512POPC   C3B 6237  19.868   6.130   7.950
 3512POPC   C4B 6238  19.924   6.122   7.650
 3513POPC   NC3 6239  26.839   0.484   9.450
 3513POPC   PO4 6240  26.858   0.460   9.150
 3513POPC   GL1 6241  26.774   0.464   8.850
 3513POPC   GL2 6242  26.975   0.511   8.850
 3513POPC   C1A 6243  26.845   0.473   8.550
 3513POPC   D2A 6244  26.780   0.419   8.250
 3513POPC   C3A 6245  26.785   0.400   7.950
 3513POPC   C4A 6246  26.846   0.392   7.650
 3513POPC   C1B 6247  27.009   0.544   8.550
 3513POPC   C2B 6248  27.011   0.545   8.250
 3513POPC   C3B 6249  26.999   0.510   7.950
 3513POPC   C4B 6250  27.019   0.573   7.650
 3514POPC   NC3 6251  20.591  32.250   9.450
 3514POPC   PO4 6252  20.624  32.243   9.150
 3514POPC   GL1 6253  20.627  32.295   8.850
 3514POPC   GL2 6254  20.541  32.308   8.850
 3514POPC   C1A 6255  20.635  32.235   8.550
 3514POPC   D2A 6256  20.597  32.244   8.250
 3514POPC   C3A 6257  20.590  32.210   7.950
 3514POPC   C4A 6258  20.624  32.285   7.650
 3514POPC   C1B 6259  20.505  32.436   8.550
 3514POPC   C2B 6260  20.498  32.399   8.250
 3514POPC   C3B 6261  20.443  32.412   7.950
 3514POPC   C4B 6262  20.473  32.487   7.650
 3515POPC   NC3 6263  21.371   2.755   9.450
 3515POPC   PO4 6264  21.353   2.726   9.150
 3515POPC   GL1 6265  21.409   2.756   8.850
 3515POPC   GL2 6266  21.514   2.672   8.850
 3515POPC   C1A 6267  21.429   2.782   8.550
 3515POPC   D2A 6268  21.392   2.741   8.250
 3515POPC   C3A 6269  21.378   2.761   7.950
 3515POPC   C4A 6270  21.382   2.758   7.650
 3515POPC   C1B 6271  21.653   2.648   8.550
 3515POPC   C2B 6272  21.640   2.610   8.250
 3515POPC   C3B 6273  21.649   2.669   7.950
 3515POPC   C4B 6274  21.644   2.681   7.650
 3516POPC   NC3 6275  43.901  33.833   9.450
 3516POPC   PO4 6276  43.879  33.806   9.150
 3516POPC   GL1 6277  43.877  33.773   8.850
 3516POPC   GL2 6278  43.970  33.902   8.850
 3516POPC   C1A 6279  43.845  33.811   8.550
 3516POPC   D2A 6280  43.906  33.778   8.250
 3516POPC   C3A 6281  43.837  33.820   7.950
 3516POPC   C4A 6282  43.872  33.764   7.650
 3516POPC   C1B 6283  44.013  34.022   8.550
 3516POPC   C2B 6284  43.959  34.025   8.250
 3516POPC   C3B 6285  43.972  34.057   7.950
 3516POPC   C4B 6286  43.956  34.021   7.650
 3517POPC   NC3 6287  19.845   6.684   9.450
 3517POPC   PO4 6288  19.836   6.605   9.150
 3517POPC   GL1 6289  19.849   6.650   8.850
 3517POPC   GL2 6290  19.911   6.691   8.850
 3517POPC   C1A 6291  19.841   6.694   8.550
 3517POPC   D2A 6292  19.879   6.609   8.250
 3517POPC   C3A 6293  19.833   6.678   7.950
 3517POPC   C4A 6294  19.868   6.675   7.650
 3517POPC   C1B 6295  19.986   6.771   8.550
 3517POPC   C2B 6296  20.008   6.770   8.250
 3517POPC   C3B 6297  20.051   6.805   7.950
 3517POPC   C4B 6298  19.987   6.863   7.650
 3518POPC   NC3 6299   5.843  19.083   9.450
 3518POPC   PO4 6300   5.848  19.018   9.150
 3518POPC   GL1 6301   5.902  19.020   8.850
 3518POPC   GL2 6302   6.033  19.018   8.850
 3518POPC   C1A 6303   5.894  19.096   8.550
 3518POPC   D2A 6304   5.826  19.068   8.250
 3518POPC   C3A 6305   5.846  19.058   7.950
 3518POPC   C4A 6306   5.896  19.031   7.650
 3518POPC   C1B 6307   6.088  18.941   8.550
 3518POPC   C2B 6308   6.054  18.965   8.250
 3518POPC   C3B 6309   6.072  18.933   7.950
 3518POPC   C4B 6310   6.099  18.951   7.650
 3519POPC   NC3 6311  36.923   5.886   9.450
 3519POPC   PO4 6312  36.939   5.901   9.150
 3519POPC   GL1 6313  36.917   5.885   8.850
 3519POPC   GL2 6314  36.958   5.750   8.850
 3519POPC   C1A 6315  36.869   5.844   8.550
 3519POPC   D2A 6316  36.863   5.917   8.250
 3519POPC   C3A 6317  36.933   5.902   7.950
 3519POPC   C4A 6318  36.875   5.819   7.650
 3519POPC   C1B 6319  36.988   5.619   8.550
 3519POPC   C2B 6320  37.070   5.691   8.250
 3519POPC   C3B 6321  36.993   5.609   7.950
 3519POPC   C4B 6322  37.055   5.647   7.650
 3520POPC   NC3 6323   8.152  36.878   9.450
 3520POPC   PO4 6324   8.154  36.926   9.150
 3520POPC   GL1 6325   8.165  36.863   8.850
 3520POPC   GL2 6326   8.230  36.810   8.850
 3520POPC   C1A 6327   8.194  36.862   8.550
 3520POPC   D2A 6328   8.158  36.875   8.250
 3520POPC   C3A 6329   8.167  36.854   7.950
 3520POPC   C4A 6330   8.158  36.892   7.650
 3520POPC   C1B 6331   8.296  36.617   8.550
 3520POPC   C2B 6332   8.287  36.701   8.250
 3520POPC   C3B 6333   8.275  36.637   7.950
 3520POPC   C4B 6334   8.304  36.710   7.650
 3521POPC   NC3 6335  27.586  17.517   9.450
 3521POPC   PO4 6336  27.584  17.516   9.150
 3521POPC   GL1 6337  27.574  17.542   8.850
 3521POPC   GL2 6338  27.622  17.378   8.850
 3521POPC   C1A 6339  27.590  17.496   8.550
 3521POPC   D2A 6340  27.593  17.488   8.250
 3521POPC   C3A 6341  27.566  17.474   7.950
 3521POPC   C4A 6342  27.635  17.526   7.650
 3521POPC   C1B 6343  27.769  17.270   8.550
 3521POPC   C2B 6344  27.758  17.253   8.250
 3521POPC   C3B 6345  27.757  17.261   7.950
 3521POPC   C4B 6346  27.742  17.317   7.650
 3522POPC   NC3 6347   9.000  14.374   9.450
 3522POPC   PO4 6348   8.945  14.453   9.150
 3522POPC   GL1 6349   9.011  14.422   8.850
 3522POPC   GL2 6350   9.017  14.519   8.850
 3522POPC   C1A 6351   9.000  14.390   8.550
 3522POPC   D2A 6352   9.008  14.361   8.250
 3522POPC   C3A 6353   8.950  14.444   7.950
 3522POPC   C4A 6354   9.020  14.429   7.650
 3522POPC   C1B 6355   8.916  14.628   8.550
 3522POPC   C2B 6356   8.946  14.615   8.250
 3522POPC   C3B 6357   8.985  14.674   7.950
 3522POPC   C4B 6358   8.935  14.650   7.650
 3523POPC   NC3 6359   8.154  18.331   9.450
 3523POPC   PO4 6360   8.232  18.307   9.150
 3523POPC   GL1 6361   8.228  18.314   8.850
 3523POPC   GL2 6362   8.099  18.214   8.850
 3523POPC   C1A 6363   8.242  18.326   8.550
 3523POPC   D2A 6364   8.154  18.327   8.250
 3523POPC   C3A 6365   8.202  18.251   7.950
 3523POPC   C4A 6366   8.233  18.272   7.650
 3523POPC   C1B 6367   7.989  18.195   8.550
 3523POPC   C2B 6368   7.973  18.192   8.250
 3523POPC   C3B 6369   7.923  18.176   7.950
 3523POPC   C4B 6370   7.954  18.229   7.650
 3524POPC   NC3 6371  19.878  31.451   9.450
 3524POPC   PO4 6372  19.806  31.485   9.150
 3524POPC   GL1 6373  19.845  31.465   8.850
 3524POPC   GL2 6374  19.663  31.486   8.850
 3524POPC   C1A 6375  19.876  31.445   8.550
 3524POPC   D2A 6376  19.857  31.435   8.250
 3524POPC   C3A 6377  19.851  31.455   7.950
 3524POPC   C4A 6378  19.871  31.521   7.650
 3524POPC   C1B 6379  19.618  31.438   8.550
 3524POPC   C2B 6380  19.542  31.402   8.250
 3524POPC   C3B 6381  19.559  31.484   7.950
 3524POPC   C4B 6382  19.582  31.457   7.650
 3525POPC   NC3 6383  15.206  13.627   9.450
 3525POPC   PO4 6384  15.178  13.651   9.150
 3525POPC   GL1 6385  15.194  13.605   8.850
 3525POPC   GL2 6386  15.124  13.493   8.850
 3525POPC   C1A 6387  15.151  13.666   8.550
 3525POPC   D2A 6388  15.216  13.582   8.250
 3525POPC   C3A 6389  15.171  13.621   7.950
 3525POPC   C4A 6390  15.208  13.645   7.650
 3525POPC   C1B 6391  15.046  13.462   8.550
 3525POPC   C2B 6392  15.009  13.428   8.250
 3525POPC   C3B 6393  15.059  13.463   7.950
 3525POPC   C4B 6394  15.014  13.398   7.650
 3526POPC   NC3 6395  34.549  15.913   9.450
 3526POPC   PO4 6396  34.583  15.941   9.150
 3526POPC   GL1 6397  34.591  15.999   8.850
 3526POPC   GL2 6398  34.640  16.068   8.850
 3526POPC   C1A 6399  34.591  15.951   8.550
 3526POPC   D2A 6400  34.570  15.971   8.250
 3526POPC   C3A 6401  34.531  15.925   7.950
 3526POPC   C4A 6402  34.609  15.933   7.650
 3526POPC   C1B 6403  34.736  16.161   8.550
 3526POPC   C2B 6404  34.759  16.193   8.250
 3526POPC   C3B 6405  34.699  16.196   7.950
 3526POPC   C4B 6406  34.759  16.207   7.650
 3527POPC   NC3 6407  26.804  42.363   9.450
 3527POPC   PO4 6408  26.801  42.315   9.150
 3527POPC   GL1 6409  26.830  42.341   8.850
 3527POPC   GL2 6410  26.778  42.207   8.850
 3527POPC   C1A 6411  26.844  42.313   8.550
 3527POPC   D2A 6412  26.842  42.347   8.250
 3527POPC   C3A 6413  26.857  42.375   7.950
 3527POPC   C4A 6414  26.774  42.354   7.650
 3527POPC   C1B 6415  26.747  42.124   8.550
 3527POPC   C2B 6416  26.750  42.100   8.250
 3527POPC   C3B 6417  26.780  42.084   7.950
 3527POPC   C4B 6418  26.702  42.085   7.650
 3528POPC   NC3 6419  12.865  42.322   9.450
 3528POPC   PO4 6420  12.865  42.317   9.150
 3528POPC   GL1 6421  12.885  42.380   8.850
 3528POPC   GL2 6422  12.963  42.410   8.850
 3528POPC   C1A 6423  12.841  42.351   8.550
 3528POPC   D2A 6424  12.828  42.332   8.250
 3528POPC   C3A 6425  12.820  42.288   7.950
 3528POPC   C4A 6426  12.887  42.289   7.650
 3528POPC   C1B 6427  12.999  42.457   8.550
 3528POPC   C2B 6428  13.041  42.536   8.250
 3528POPC   C3B 6429  13.008  42.521   7.950
 3528POPC   C4B 6430  13.013  42.455   7.650
 3529POPC   NC3 6431  39.969  40.049   9.450
 3529POPC   PO4 6432  39.978  39.978   9.150
 3529POPC   GL1 6433  40.015  40.035   8.850
 3529POPC   GL2 6434  40.007  40.086   8.850
 3529POPC   C1A 6435  39.996  40.026   8.550
 3529POPC   D2A 6436  40.026  39.958   8.250
 3529POPC   C3A 6437  39.959  39.998   7.950
 3529POPC   C4A 6438  40.038  39.993   7.650
 3529POPC   C1B 6439  40.045  40.253   8.550
 3529POPC   C2B 6440  40.083  40.262   8.250
 3529POPC   C3B 6441  40.024  40.291   7.950
 3529POPC   C4B 6442  40.060  40.285   7.650
 3530POPC   NC3 6443  16.743  12.866   9.450
 3530POPC   PO4 6444  16.721  12.855   9.150
 3530POPC   GL1 6445  16.734  12.862   8.850
 3530POPC   GL2 6446  16.562  12.836   8.850
 3530POPC   C1A 6447  16.776  12.810   8.550
 3530POPC   D2A 6448  16.719  12.821   8.250
 3530POPC   C3A 6449  16.767  12.870   7.950
 3530POPC   C4A 6450  16.758  12.875   7.650
 3530POPC   C1B 6451  16.523  12.770   8.550
 3530POPC   C2B 6452  16.517  12.751   8.250
 3530POPC   C3B 6453  16.502  12.761   7.950
 3530POPC   C4B 6454  16.480  12.828   7.650
 3531POPC   NC3 6455  15.147  11.285   9.450
 3531POPC   PO4 6456  15.217  11.318   9.150
 3531POPC   GL1 6457  15.222  11.349   8.850
 3531POPC   GL2 6458  15.312  11.356   8.850
 3531POPC   C1A 6459  15.141  11.312   8.550
 3531POPC   D2A 6460  15.176  11.258   8.250
 3531POPC   C3A 6461  15.227  11.339   7.950
 3531POPC   C4A 6462  15.170  11.283   7.650
 3531POPC   C1B 6463  15.365  11.352   8.550
 3531POPC   C2B 6464  15.439  11.426   8.250
 3531POPC   C3B 6465  15.413  11.434   7.950
 3531POPC   C4B 6466  15.447  11.339   7.650
 3532POPC   NC3 6467   5.901  18.243   9.450
 3532POPC   PO4 6468   5.907  18.315   9.150
 3532POPC   GL1 6469   5.902  18.316   8.850
 3532POPC   GL2 6470   5.761  18.345   8.850
 3532POPC   C1A 6471   5.829  18.238   8.550
 3532POPC   D2A 6472   5.845  18.270   8.250
 3532POPC   C3A 6473   5.854  18.238   7.950
 3532POPC   C4A 6474   5.916  18.307   7.650
 3532POPC   C1B 6475   5.698  18.478   8.550
 3532POPC   C2B 6476   5.749  18.500   8.250
 3532POPC   C3B 6477   5.684  18.453   7.950
 3532POPC   C4B 6478   5.724  18.445   7.650
 3533POPC   NC3 6479  37.690  17.482   9.450
 3533POPC   PO4 6480  37.708  17.510   9.150
 3533POPC   GL1 6481  37.660  17.472   8.850
 3533POPC   GL2 6482  37.820  17.462   8.850
 3533POPC   C1A 6483  37.657  17.467   8.550
 3533POPC   D2A 6484  37.646  17.519   8.250
 3533POPC   C3A 6485  37.726  17.555   7.950
 3533POPC   C4A 6486  37.720  17.494   7.650
 3533POPC   C1B 6487  37.832  17.350   8.550
 3533POPC   C2B 6488  37.837  17.320   8.250
 3533POPC   C3B 6489  37.924  17.370   7.950
 3533POPC   C4B 6490  37.866  17.384   7.650
 3534POPC   NC3 6491  27.604   4.359   9.450
 3534POPC   PO4 6492  27.557   4.365   9.150
 3534POPC   GL1 6493  27.577   4.339   8.850
 3534POPC   GL2 6494  27.532   4.392   8.850
 3534POPC   C1A 6495  27.565   4.317   8.550
 3534POPC   D2A 6496  27.586   4.302   8.250
 3534POPC   C3A 6497  27.595   4.308   7.950
 3534POPC   C4A 6498  27.587   4.355   7.650
 3534POPC   C1B 6499  27.586   4.560   8.550
 3534POPC   C2B 6500  27.532   4.615   8.250
 3534POPC   C3B 6501  27.568   4.558   7.950
 3534POPC   C4B 6502  27.567   4.578   7.650
 3535POPC   NC3 6503  19.027  31.439   9.450
 3535POPC   PO4 6504  19.075  31.431   9.150
 3535POPC   GL1 6505  19.053  31.494   8.850
 3535POPC   GL2 6506  18.972  31.541   8.850
 3535POPC   C1A 6507  19.099  31.489   8.550
 3535POPC   D2A 6508  19.039  31.453   8.250
 3535POPC   C3A 6509  19.036  31.437   7.950
 3535POPC   C4A 6510  19.071  31.425   7.650
 3535POPC   C1B 6511  18.899  31.670   8.550
 3535POPC   C2B 6512  18.885  31.675   8.250
 3535POPC   C3B 6513  18.956  31.701   7.950
 3535POPC   C4B 6514  18.928  31.691   7.650
 3536POPC   NC3 6515  29.887  31.515   9.450
 3536POPC   PO4 6516  29.960  31.492   9.150
 3536POPC   GL1 6517  29.892  31.473   8.850
 3536POPC   GL2 6518  29.958  31.348   8.850
 3536POPC   C1A 6519  29.898  31.461   8.550
 3536POPC   D2A 6520  29.969  31.509   8.250
 3536POPC   C3A 6521  29.905  31.429   7.950
 3536POPC   C4A 6522  29.872  31.479   7.650
 3536POPC   C1B 6523  30.047  31.285   8.550
 3536POPC   C2B 6524  30.081  31.277   8.250
 3536POPC   C3B 6525  30.123  31.333   7.950
 3536POPC   C4B 6526  30.073  31.285   7.650
 3537POPC   NC3 6527  26.054   0.480   9.450
 3537POPC   PO4 6528  26.070   0.434   9.150
 3537POPC   GL1 6529  26.087   0.414   8.850
 3537POPC   GL2 6530  25.975   0.302   8.850
 3537POPC   C1A 6531  26.041   0.453   8.550
 3537POPC   D2A 6532  26.038   0.454   8.250
 3537POPC   C3A 6533  26.033   0.412   7.950
 3537POPC   C4A 6534  26.015   0.474   7.650
 3537POPC   C1B 6535  25.909   0.226   8.550
 3537POPC   C2B 6536  25.950   0.252   8.250
 3537POPC   C3B 6537  25.915   0.230   7.950
 3537POPC   C4B 6538  25.901   0.265   7.650
 3538POPC   NC3 6539  32.235  36.162   9.450
 3538POPC   PO4 6540  32.265  36.092   9.150
 3538POPC   GL1 6541  32.219  36.085   8.850
 3538POPC   GL2 6542  32.122  36.153   8.850
 3538POPC   C1A 6543  32.242  36.125   8.550
 3538POPC   D2A 6544  32.232  36.158   8.250
 3538POPC   C3A 6545  32.291  36.136   7.950
 3538POPC   C4A 6546  32.280  36.082   7.650
 3538POPC   C1B 6547  32.008  36.136   8.550
 3538POPC   C2B 6548  32.007  36.103   8.250
 3538POPC   C3B 6549  31.994  36.096   7.950
 3538POPC   C4B 6550  32.033  36.055   7.650
 3539POPC   NC3 6551  16.698  40.772   9.450
 3539POPC   PO4 6552  16.729  40.752   9.150
 3539POPC   GL1 6553  16.704  40.754   8.850
 3539POPC   GL2 6554  16.842  40.710   8.850
 3539POPC   C1A 6555  16.762  40.761   8.550
 3539POPC   D2A 6556  16.745  40.775   8.250
 3539POPC   C3A 6557  16.687  40.778   7.950
 3539POPC   C4A 6558  16.705  40.756   7.650
 3539POPC   C1B 6559  17.017  40.713   8.550
 3539POPC   C2B 6560  16.957  40.761   8.250
 3539POPC   C3B 6561  16.989  40.670   7.950
 3539POPC   C4B 6562  16.967  40.758   7.650
 3540POPC   NC3 6563  32.286  31.478   9.450
 3540POPC   PO4 6564  32.207  31.468   9.150
 3540POPC   GL1 6565  32.261  31.507   8.850
 3540POPC   GL2 6566  32.114  31.418   8.850
 3540POPC   C1A 6567  32.220  31.468   8.550
 3540POPC   D2A 6568  32.293  31.460   8.250
 3540POPC   C3A 6569  32.227  31.444   7.950
 3540POPC   C4A 6570  32.257  31.513   7.650
 3540POPC   C1B 6571  32.000  31.403   8.550
 3540POPC   C2B 6572  31.987  31.414   8.250
 3540POPC   C3B 6573  31.973  31.410   7.950
 3540POPC   C4B 6574  32.048  31.355   7.650
 3541POPC   NC3 6575  39.983  26.809   9.450
 3541POPC   PO4 6576  39.957  26.854   9.150
 3541POPC   GL1 6577  40.024  26.799   8.850
 3541POPC   GL2 6578  39.925  26.849   8.850
 3541POPC   C1A 6579  39.974  26.856   8.550
 3541POPC   D2A 6580  39.995  26.811   8.250
 3541POPC   C3A 6581  39.982  26.780   7.950
 3541POPC   C4A 6582  40.038  26.779   7.650
 3541POPC   C1B 6583  39.741  26.874   8.550
 3541POPC   C2B 6584  39.762  26.890   8.250
 3541POPC   C3B 6585  39.717  26.829   7.950
 3541POPC   C4B 6586  39.727  26.891   7.650
 3542POPC   NC3 6587  17.515  22.948   9.450
 3542POPC   PO4 6588  17.468  22.905   9.150
 3542POPC   GL1 6589  17.508  22.920   8.850
 3542POPC   GL2 6590  17.418  22.935   8.850
 3542POPC   C1A 6591  17.500  22.961   8.550
 3542POPC   D2A 6592  17.547  22.952   8.250
 3542POPC   C3A 6593  17.517  22.958   7.950
 3542POPC   C4A 6594  17.542  22.930   7.650
 3542POPC   C1B 6595  17.298  22.859   8.550
 3542POPC   C2B 6596  17.234  22.916   8.250
 3542POPC   C3B 6597  17.223  22.905   7.950
 3542POPC   C4B 6598  17.280  22.929   7.650
 3543POPC   NC3 6599  41.602   5.105   9.450
 3543POPC   PO4 6600  41.563   5.081   9.150
 3543POPC   GL1 6601  41.523   5.122   8.850
 3543POPC   GL2 6602  41.586   4.942   8.850
 3543POPC   C1A 6603  41.536   5.101   8.550
 3543POPC   D2A 6604  41.602   5.119   8.250
 3543POPC   C3A 6605  41.524   5.095   7.950
 3543POPC   C4A 6606  41.514   5.125   7.650
 3543POPC   C1B 6607  41.687   4.900   8.550
 3543POPC   C2B 6608  41.659   4.894   8.250
 3543POPC   C3B 6609  41.641   4.826   7.950
 3543POPC   C4B 6610  41.636   4.903   7.650
 3544POPC   NC3 6611  16.686  29.926   9.450
 3544POPC   PO4 6612  16.718  29.969   9.150
 3544POPC   GL1 6613  16.693  29.880   8.850
 3544POPC   GL2 6614  16.651  29.775   8.850
 3544POPC   C1A 6615  16.708  29.913   8.550
 3544POPC   D2A 6616  16.686  29.923   8.250
 3544POPC   C3A 6617  16.698  29.958   7.950
 3544POPC   C4A 6618  16.722  29.907   7.650
 3544POPC   C1B 6619  16.568  29.719   8.550
 3544POPC   C2B 6620  16.526  29.743   8.250
 3544POPC   C3B 6621  16.529  29.681   7.950
 3544POPC   C4B 6622  16.532  29.684   7.650
 3545POPC   NC3 6623  19.038  14.435   9.450
 3545POPC   PO4 6624  19.020  14.434   9.150
 3545POPC   GL1 6625  19.073  14.401   8.850
 3545POPC   GL2 6626  19.100  14.285   8.850
 3545POPC   C1A 6627  19.082  14.380   8.550
 3545POPC   D2A 6628  19.108  14.389   8.250
 3545POPC   C3A 6629  19.013  14.366   7.950
 3545POPC   C4A 6630  19.063  14.378   7.650
 3545POPC   C1B 6631  19.103  14.150   8.550
 3545POPC   C2B 6632  19.101  14.176   8.250
 3545POPC   C3B 6633  19.102  14.193   7.950
 3545POPC   C4B 6634  19.134  14.212   7.650
 3546POPC   NC3 6635  20.585  14.389   9.450
 3546POPC   PO4 6636  20.601  14.444   9.150
 3546POPC   GL1 6637  20.654  14.360   8.850
 3546POPC   GL2 6638  20.647  14.351   8.850
 3546POPC   C1A 6639  20.633  14.403   8.550
 3546POPC   D2A 6640  20.595  14.404   8.250
 3546POPC   C3A 6641  20.626  14.382   7.950
 3546POPC   C4A 6642  20.644  14.421   7.650
 3546POPC   C1B 6643  20.795  14.255   8.550
 3546POPC   C2B 6644  20.800  14.204   8.250
 3546POPC   C3B 6645  20.760  14.211   7.950
 3546POPC   C4B 6646  20.796  14.216   7.650
 3547POPC   NC3 6647   5.878   1.181   9.450
 3547POPC   PO4 6648   5.894   1.182   9.150
 3547POPC   GL1 6649   5.876   1.182   8.850
 3547POPC   GL2 6650   5.882   1.045   8.850
 3547POPC   C1A 6651   5.829   1.174   8.550
 3547POPC   D2A 6652   5.875   1.178   8.250
 3547POPC   C3A 6653   5.913   1.263   7.950
 3547POPC   C4A 6654   5.833   1.247   7.650
 3547POPC   C1B 6655   5.787   0.966   8.550
 3547POPC   C2B 6656   5.815   1.008   8.250
 3547POPC   C3B 6657   5.800   0.931   7.950
 3547POPC   C4B 6658   5.820   0.989   7.650
 3548POPC   NC3 6659  11.287  20.612   9.450
 3548POPC   PO4 6660  11.321  20.651   9.150
 3548POPC   GL1 6661  11.260  20.611   8.850
 3548POPC   GL2 6662  11.206  20.651   8.850
 3548POPC   C1A 6663  11.269  20.610   8.550
 3548POPC   D2A 6664  11.334  20.641   8.250
 3548POPC   C3A 6665  11.286  20.602   7.950
 3548POPC   C4A 6666  11.332  20.598   7.650
 3548POPC   C1B 6667  11.017  20.638   8.550
 3548POPC   C2B 6668  11.028  20.591   8.250
 3548POPC   C3B 6669  11.098  20.595   7.950
 3548POPC   C4B 6670  11.095  20.585   7.650
 3549POPC   NC3 6671  19.846  14.437   9.450
 3549POPC   PO4 6672  19.833  14.380   9.150
 3549POPC   GL1 6673  19.873  14.452   8.850
 3549POPC   GL2 6674  19.749  14.465   8.850
 3549POPC   C1A 6675  19.860  14.451   8.550
 3549POPC   D2A 6676  19.801  14.406   8.250
 3549POPC   C3A 6677  19.860  14.445   7.950
 3549POPC   C4A 6678  19.785  14.433   7.650
 3549POPC   C1B 6679  19.632  14.535   8.550
 3549POPC   C2B 6680  19.560  14.508   8.250
 3549POPC   C3B 6681  19.617  14.501   7.950
 3549POPC   C4B 6682  19.616  14.539   7.650
 3550POPC   NC3 6683  22.946   7.397   9.450
 3550POPC   PO4 6684  22.898   7.438   9.150
 3550POPC   GL1 6685  22.922   7.446   8.850
 3550POPC   GL2 6686  22.823   7.442   8.850
 3550POPC   C1A 6687  22.936   7.378   8.550
 3550POPC   D2A 6688  22.932   7.383   8.250
 3550POPC   C3A 6689  22.965   7.419   7.950
 3550POPC   C4A 6690  22.888   7.378   7.650
 3550POPC   C1B 6691  22.699   7.518   8.550
 3550POPC   C2B 6692  22.743   7.447   8.250
 3550POPC   C3B 6693  22.706   7.483   7.950
 3550POPC   C4B 6694  22.743   7.487   7.650
 3551POPC   NC3 6695   3.494   2.729   9.450
 3551POPC   PO4 6696   3.584   2.797   9.150
 3551POPC   GL1 6697   3.567   2.781   8.850
 3551POPC   GL2 6698   3.637   2.859   8.850
 3551POPC   C1A 6699   3.557   2.745   8.550
 3551POPC   D2A 6700   3.540   2.781   8.250
 3551POPC   C3A 6701   3.551   2.730   7.950
 3551POPC   C4A 6702   3.584   2.753   7.650
 3551POPC   C1B 6703   3.667   3.007   8.550
 3551POPC   C2B 6704   3.592   2.996   8.250
 3551POPC   C3B 6705   3.590   2.953   7.950
 3551POPC   C4B 6706   3.593   3.020   7.650
 3552POPC   NC3 6707  44.667   0.436   9.450
 3552POPC   PO4 6708  44.700   0.418   9.150
 3552POPC   GL1 6709  44.677   0.432   8.850
 3552POPC   GL2 6710  44.583   0.538   8.850
 3552POPC   C1A 6711  44.620   0.450   8.550
 3552POPC   D2A 6712  44.613   0.400   8.250
 3552POPC   C3A 6713  44.662   0.407   7.950
 3552POPC   C4A 6714  44.618   0.419   7.650
 3552POPC   C1B 6715  44.577   0.689   8.550
 3552POPC   C2B 6716  44.543   0.617   8.250
 3552POPC   C3B 6717  44.507   0.638   7.950
 3552POPC   C4B 6718  44.564   0.624   7.650
 3553POPC   NC3 6719  23.690  44.710   9.450
 3553POPC   PO4 6720  23.743  44.672   9.150
 3553POPC   GL1 6721  23.748  44.673   8.850
 3553POPC   GL2 6722  23.645  44.796   8.850
 3553POPC   C1A 6723  23.681  44.710   8.550
 3553POPC   D2A 6724  23.734  44.688   8.250
 3553POPC   C3A 6725  23.727  44.687   7.950
 3553POPC   C4A 6726  23.753  44.672   7.650
 3553POPC   C1B 6727  23.678  44.889   8.550
 3553POPC   C2B 6728  23.669  44.950   8.250
 3553POPC   C3B 6729  23.655  44.919   7.950
 3553POPC   C4B 6730  23.660  44.938   7.650
 3554POPC   NC3 6731  39.988   2.020   9.450
 3554POPC   PO4 6732  39.981   1.961   9.150
 3554POPC   GL1 6733  39.998   1.949   8.850
 3554POPC   GL2 6734  40.047   1.844   8.850
 3554POPC   C1A 6735  39.961   2.038   8.550
 3554POPC   D2A 6736  40.031   1.944   8.250
 3554POPC   C3A 6737  39.983   1.958   7.950
 3554POPC   C4A 6738  39.994   2.033   7.650
 3554POPC   C1B 6739  40.061   1.721   8.550
 3554POPC   C2B 6740  39.967   1.697   8.250
 3554POPC   C3B 6741  39.983   1.707   7.950
 3554POPC   C4B 6742  40.022   1.738   7.650
 3555POPC   NC3 6743  38.451  39.989   9.450
 3555POPC   PO4 6744  38.454  40.046   9.150
 3555POPC   GL1 6745  38.407  39.971   8.850
 3555POPC   GL2 6746  38.483  39.926   8.850
 3555POPC   C1A 6747  38.500  39.966   8.550
 3555POPC   D2A 6748  38.418  40.010   8.250
 3555POPC   C3A 6749  38.456  40.031   7.950
 3555POPC   C4A 6750  38.479  40.016   7.650
 3555POPC   C1B 6751  38.486  39.811   8.550
 3555POPC   C2B 6752  38.519  39.816   8.250
 3555POPC   C3B 6753  38.529  39.772   7.950
 3555POPC   C4B 6754  38.520  39.798   7.650
 3556POPC   NC3 6755  37.701  14.378   9.450
 3556POPC   PO4 6756  37.667  14.403   9.150
 3556POPC   GL1 6757  37.713  14.377   8.850
 3556POPC   GL2 6758  37.580  14.473   8.850
 3556POPC   C1A 6759  37.654  14.402   8.550
 3556POPC   D2A 6760  37.667  14.375   8.250
 3556POPC   C3A 6761  37.660  14.433   7.950
 3556POPC   C4A 6762  37.637  14.443   7.650
 3556POPC   C1B 6763  37.437  14.564   8.550
 3556POPC   C2B 6764  37.463  14.592   8.250
 3556POPC   C3B 6765  37.443  14.529   7.950
 3556POPC   C4B 6766  37.437  14.542   7.650
 3557POPC   NC3 6767  44.711  39.989   9.450
 3557POPC   PO4 6768  44.613  39.977   9.150
 3557POPC   GL1 6769  44.674  40.038   8.850
 3557POPC   GL2 6770  44.560  39.998   8.850
 3557POPC   C1A 6771  44.639  40.003   8.550
 3557POPC   D2A 6772  44.652  39.987   8.250
 3557POPC   C3A 6773  44.659  39.986   7.950
 3557POPC   C4A 6774  44.662  39.985   7.650
 3557POPC   C1B 6775  44.421  39.973   8.550
 3557POPC   C2B 6776  44.455  40.029   8.250
 3557POPC   C3B 6777  44.444  40.008   7.950
 3557POPC   C4B 6778  44.424  40.044   7.650
 3558POPC   NC3 6779  15.971  33.766   9.450
 3558POPC   PO4 6780  15.936  33.820   9.150
 3558POPC   GL1 6781  15.987  33.794   8.850
 3558POPC   GL2 6782  15.888  33.844   8.850
 3558POPC   C1A 6783  15.952  33.755   8.550
 3558POPC   D2A 6784  15.976  33.826   8.250
 3558POPC   C3A 6785  15.978  33.825   7.950
 3558POPC   C4A 6786  15.925  33.796   7.650
 3558POPC   C1B 6787  15.738  33.974   8.550
 3558POPC   C2B 6788  15.731  33.915   8.250
 3558POPC   C3B 6789  15.742  33.942   7.950
 3558POPC   C4B 6790  15.759  33.925   7.650
 3559POPC   NC3 6791   6.643  14.440   9.450
 3559POPC   PO4 6792   6.627  14.404   9.150
 3559POPC   GL1 6793   6.659  14.423   8.850
 3559POPC   GL2 6794   6.741  14.522   8.850
 3559POPC   C1A 6795   6.666  14.367   8.550
 3559POPC   D2A 6796   6.597  14.404   8.250
 3559POPC   C3A 6797   6.641  14.408   7.950
 3559POPC   C4A 6798   6.607  14.404   7.650
 3559POPC   C1B 6799   6.836  14.649   8.550
 3559POPC   C2B 6800   6.825  14.633   8.250
 3559POPC   C3B 6801   6.827  14.557   7.950
 3559POPC   C4B 6802   6.837  14.605   7.650
 3560POPC   NC3 6803   2.808  39.965   9.450
 3560POPC   PO4 6804   2.809  40.018   9.150
 3560POPC   GL1 6805   2.780  40.034   8.850
 3560POPC   GL2 6806   2.731  40.105   8.850
 3560POPC   C1A 6807   2.720  39.978   8.550
 3560POPC   D2A 6808   2.734  40.055   8.250
 3560POPC   C3A 6809   2.785  40.046   7.950
 3560POPC   C4A 6810   2.736  40.019   7.650
 3560POPC   C1B 6811   2.648  40.188   8.550
 3560POPC   C2B 6812   2.619  40.226   8.250
 3560POPC   C3B 6813   2.620  40.258   7.950
 3560POPC   C4B 6814   2.640  40.224   7.650
 3561POPC   NC3 6815   8.169  12.838   9.450
 3561POPC   PO4 6816   8.228  12.898   9.150
 3561POPC   GL1 6817   8.241  12.865   8.850
 3561POPC   GL2 6818   8.038  12.811   8.850
 3561POPC   C1A 6819   8.155  12.888   8.550
 3561POPC   D2A 6820   8.199  12.889   8.250
 3561POPC   C3A 6821   8.220  12.900   7.950
 3561POPC   C4A 6822   8.232  12.882   7.650
 3561POPC   C1B 6823   7.980  12.734   8.550
 3561POPC   C2B 6824   8.011  12.745   8.250
 3561POPC   C3B 6825   8.002  12.705   7.950
 3561POPC   C4B 6826   7.955  12.791   7.650
 3562POPC   NC3 6827  31.454  16.758   9.450
 3562POPC   PO4 6828  31.499  16.719   9.150
 3562POPC   GL1 6829  31.442  16.731   8.850
 3562POPC   GL2 6830  31.607  16.750   8.850
 3562POPC   C1A 6831  31.454  16.718   8.550
 3562POPC   D2A 6832  31.425  16.686   8.250
 3562POPC   C3A 6833  31.496  16.693   7.950
 3562POPC   C4A 6834  31.462  16.741   7.650
 3562POPC   C1B 6835  31.716  16.789   8.550
 3562POPC   C2B 6836  31.678  16.882   8.250
 3562POPC   C3B 6837  31.650  16.869   7.950
 3562POPC   C4B 6838  31.662  16.845   7.650
 3563POPC   NC3 6839  12.072  42.340   9.450
 3563POPC   PO4 6840  12.104  42.362   9.150
 3563POPC   GL1 6841  12.033  42.328   8.850
 3563POPC   GL2 6842  11.930  42.212   8.850
 3563POPC   C1A 6843  12.115  42.382   8.550
 3563POPC   D2A 6844  12.119  42.370   8.250
 3563POPC   C3A 6845  12.069  42.295   7.950
 3563POPC   C4A 6846  12.123  42.306   7.650
 3563POPC   C1B 6847  11.876  42.141   8.550
 3563POPC   C2B 6848  11.919  42.212   8.250
 3563POPC   C3B 6849  11.867  42.204   7.950
 3563POPC   C4B 6850  11.869  42.177   7.650
 3564POPC   NC3 6851  22.148  43.086   9.450
 3564POPC   PO4 6852  22.197  43.127   9.150
 3564POPC   GL1 6853  22.163  43.103   8.850
 3564POPC   GL2 6854  22.227  43.035   8.850
 3564POPC   C1A 6855  22.205  43.088   8.550
 3564POPC   D2A 6856  22.174  43.078   8.250
 3564POPC   C3A 6857  22.199  43.068   7.950
 3564POPC   C4A 6858  22.197  43.091   7.650
 3564POPC   C1B 6859  22.279  42.880   8.550
 3564POPC   C2B 6860  22.251  42.866   8.250
 3564POPC   C3B 6861  22.254  42.887   7.950
 3564POPC   C4B 6862  22.319  42.857   7.650
 3565POPC   NC3 6863  39.977  35.351   9.450
 3565POPC   PO4 6864  40.002  35.401   9.150
 3565POPC   GL1 6865  40.016  35.376   8.850
 3565POPC   GL2 6866  39.968  35.267   8.850
 3565POPC   C1A 6867  40.045  35.356   8.550
 3565POPC   D2A 6868  39.995  35.367   8.250
 3565POPC   C3A 6869  39.995  35.341   7.950
 3565POPC   C4A 6870  39.972  35.385   7.650
 3565POPC   C1B 6871  39.938  35.142   8.550
 3565POPC   C2B 6872  39.945  35.131   8.250
 3565POPC   C3B 6873  39.944  35.056   7.950
 3565POPC   C4B 6874  39.958  35.145   7.650
 3566POPC   NC3 6875  29.151  43.156   9.450
 3566POPC   PO4 6876  29.127  43.124   9.150
 3566POPC   GL1 6877  29.110  43.158   8.850
 3566POPC   GL2 6878  29.130  43.254   8.850
 3566POPC   C1A 6879  29.125  43.131   8.550
 3566POPC   D2A 6880  29.178  43.119   8.250
 3566POPC   C3A 6881  29.189  43.070   7.950
 3566POPC   C4A 6882  29.101  43.143   7.650
 3566POPC   C1B 6883  29.208  43.363   8.550
 3566POPC   C2B 6884  29.222  43.372   8.250
 3566POPC   C3B 6885  29.209  43.348   7.950
 3566POPC   C4B 6886  29.243  43.370   7.650
 3567POPC   NC3 6887  12.081  37.676   9.450
 3567POPC   PO4 6888  12.078  37.645   9.150
 3567POPC   GL1 6889  12.106  37.636   8.850
 3567POPC   GL2 6890  11.913  37.692   8.850
 3567POPC   C1A 6891  12.126  37.669   8.550
 3567POPC   D2A 6892  12.062  37.640   8.250
 3567POPC   C3A 6893  12.077  37.669   7.950
 3567POPC   C4A 6894  12.096  37.723   7.650
 3567POPC   C1B 6895  11.798  37.605   8.550
 3567POPC   C2B 6896  11.820  37.567   8.250
 3567POPC   C3B 6897  11.796  37.603   7.950
 3567POPC   C4B 6898  11.806  37.627   7.650
 3568POPC   NC3 6899  29.908  19.879   9.450
 3568POPC   PO4 6900  29.948  19.859   9.150
 3568POPC   GL1 6901  29.965  19.791   8.850
 3568POPC   GL2 6902  30.043  19.777   8.850
 3568POPC   C1A 6903  29.948  19.804   8.550
 3568POPC   D2A 6904  29.879  19.795   8.250
 3568POPC   C3A 6905  29.873  19.872   7.950
 3568POPC   C4A 6906  29.911  19.857   7.650
 3568POPC   C1B 6907  30.189  19.827   8.550
 3568POPC   C2B 6908  30.167  19.785   8.250
 3568POPC   C3B 6909  30.190  19.824   7.950
 3568POPC   C4B 6910  30.152  19.835   7.650
 3569POPC   NC3 6911  10.497   2.027   9.450
 3569POPC   PO4 6912  10.572   1.988   9.150
 3569POPC   GL1 6913  10.477   2.037   8.850
 3569POPC   GL2 6914  10.681   2.052   8.850
 3569POPC   C1A 6915  10.483   1.959   8.550
 3569POPC   D2A 6916  10.480   1.973   8.250
 3569POPC   C3A 6917  10.480   1.942   7.950
 3569POPC   C4A 6918  10.505   1.986   7.650
 3569POPC   C1B 6919  10.710   2.111   8.550
 3569POPC   C2B 6920  10.728   2.058   8.250
 3569POPC   C3B 6921  10.729   2.085   7.950
 3569POPC   C4B 6922  10.731   2.070   7.650
 3570POPC   NC3 6923  42.321  31.462   9.450
 3570POPC   PO4 6924  42.331  31.502   9.150
 3570POPC   GL1 6925  42.311  31.483   8.850
 3570POPC   GL2 6926  42.485  31.428   8.850
 3570POPC   C1A 6927  42.355  31.499   8.550
 3570POPC   D2A 6928  42.380  31.468   8.250
 3570POPC   C3A 6929  42.317  31.435   7.950
 3570POPC   C4A 6930  42.292  31.459   7.650
 3570POPC   C1B 6931  42.592  31.446   8.550
 3570POPC   C2B 6932  42.629  31.503   8.250
 3570POPC   C3B 6933  42.548  31.482   7.950
 3570POPC   C4B 6934  42.535  31.440   7.650
 3571POPC   NC3 6935  44.652  32.203   9.450
 3571POPC   PO4 6936  44.627  32.246   9.150
 3571POPC   GL1 6937  44.702  32.247   8.850
 3571POPC   GL2 6938  44.689  32.373   8.850
 3571POPC   C1A 6939  44.618  32.282   8.550
 3571POPC   D2A 6940  44.676  32.254   8.250
 3571POPC   C3A 6941  44.648  32.275   7.950
 3571POPC   C4A 6942  44.702  32.228   7.650
 3571POPC   C1B 6943  44.735  32.447   8.550
 3571POPC   C2B 6944  44.760  32.434   8.250
 3571POPC   C3B 6945  44.778  32.477   7.950
 3571POPC   C4B 6946  44.715  32.518   7.650
 3572POPC   NC3 6947  43.868  39.226   9.450
 3572POPC   PO4 6948  43.871  39.207   9.150
 3572POPC   GL1 6949  43.909  39.256   8.850
 3572POPC   GL2 6950  43.808  39.107   8.850
 3572POPC   C1A 6951  43.901  39.264   8.550
 3572POPC   D2A 6952  43.857  39.266   8.250
 3572POPC   C3A 6953  43.904  39.245   7.950
 3572POPC   C4A 6954  43.893  39.264   7.650
 3572POPC   C1B 6955  43.651  39.065   8.550
 3572POPC   C2B 6956  43.646  39.123   8.250
 3572POPC   C3B 6957  43.657  39.087   7.950
 3572POPC   C4B 6958  43.705  39.076   7.650
 3573POPC   NC3 6959   1.945  26.846   9.450
 3573POPC   PO4 6960   1.977  26.814   9.150
 3573POPC   GL1 6961   2.019  26.862   8.850
 3573POPC   GL2 6962   1.991  26.962   8.850
 3573POPC   C1A 6963   1.993  26.794   8.550
 3573POPC   D2A 6964   1.977  26.847   8.250
 3573POPC   C3A 6965   1.972  26.794   7.950
 3573POPC   C4A 6966   1.966  26.852   7.650
 3573POPC   C1B 6967   2.042  27.046   8.550
 3573POPC   C2B 6968   2.031  27.063   8.250
 3573POPC   C3B 6969   2.081  27.061   7.950
 3573POPC   C4B 6970   2.054  27.050   7.650
 3574POPC   NC3 6971  29.890  34.538   9.450
 3574POPC   PO4 6972  29.947  34.586   9.150
 3574POPC   GL1 6973  29.951  34.561   8.850
 3574POPC   GL2 6974  29.861  34.432   8.850
 3574POPC   C1A 6975  29.913  34.576   8.550
 3574POPC   D2A 6976  29.910  34.589   8.250
 3574POPC   C3A 6977  29.954  34.613   7.950
 3574POPC   C4A 6978  29.911  34.619   7.650
 3574POPC   C1B 6979  29.759  34.418   8.550
 3574POPC   C2B 6980  29.771  34.372   8.250
 3574POPC   C3B 6981  29.761  34.410   7.950
 3574POPC   C4B 6982  29.731  34.361   7.650
 3575POPC   NC3 6983  43.908   2.753   9.450
 3575POPC   PO4 6984  43.899   2.750   9.150
 3575POPC   GL1 6985  43.842   2.746   8.850
 3575POPC   GL2 6986  43.931   2.900   8.850
 3575POPC   C1A 6987  43.931   2.720   8.550
 3575POPC   D2A 6988  43.921   2.738   8.250
 3575POPC   C3A 6989  43.897   2.763   7.950
 3575POPC   C4A 6990  43.916   2.784   7.650
 3575POPC   C1B 6991  43.922   3.034   8.550
 3575POPC   C2B 6992  43.975   2.971   8.250
 3575POPC   C3B 6993  43.912   3.002   7.950
 3575POPC   C4B 6994  43.925   2.970   7.650
 3576POPC   NC3 6995   6.624  13.657   9.450
 3576POPC   PO4 6996   6.625  13.637   9.150
 3576POPC   GL1 6997   6.619  13.601   8.850
 3576POPC   GL2 6998   6.530  13.550   8.850
 3576POPC   C1A 6999   6.618  13.618   8.550
 3576POPC   D2A 7000   6.608  13.648   8.250
 3576POPC   C3A 7001   6.604  13.588   7.950
 3576POPC   C4A 7002   6.615  13.583   7.650
 3576POPC   C1B 7003   6.413  13.442   8.550
 3576POPC   C2B 7004   6.485  13.510   8.250
 3576POPC   C3B 7005   6.401  13.507   7.950
 3576POPC   C4B 7006   6.400  13.457   7.650
 3577POPC   NC3 7007  12.090   8.187   9.450
 3577POPC   PO4 7008  12.085   8.166   9.150
 3577POPC   GL1 7009  12.097   8.243   8.850
 3577POPC   GL2 7010  12.012   8.257   8.850
 3577POPC   C1A 7011  12.078   8.191   8.550
 3577POPC   D2A 7012  12.076   8.219   8.250
 3577POPC   C3A 7013  12.059   8.198   7.950
 3577POPC   C4A 7014  12.058   8.200   7.650
 3577POPC   C1B 7015  11.915   8.396   8.550
 3577POPC   C2B 7016  11.907   8.376   8.250
 3577POPC   C3B 7017  11.876   8.365   7.950
 3577POPC   C4B 7018  11.897   8.403   7.650
 3578POPC   NC3 7019   2.002   8.929   9.450
 3578POPC   PO4 7020   1.978   8.977   9.150
 3578POPC   GL1 7021   2.019   9.009   8.850
 3578POPC   GL2 7022   2.041   9.126   8.850
 3578POPC   C1A 7023   2.021   8.962   8.550
 3578POPC   D2A 7024   1.992   8.950   8.250
 3578POPC   C3A 7025   1.951   8.980   7.950
 3578POPC   C4A 7026   1.970   8.938   7.650
 3578POPC   C1B 7027   2.097   9.164   8.550
 3578POPC   C2B 7028   2.117   9.238   8.250
 3578POPC   C3B 7029   2.048   9.166   7.950
 3578POPC   C4B 7030   2.053   9.242   7.650
 3579POPC   NC3 7031  22.191  40.741   9.450
 3579POPC   PO4 7032  22.134  40.736   9.150
 3579POPC   GL1 7033  22.187  40.751   8.850
 3579POPC   GL2 7034  22.031  40.842   8.850
 3579POPC   C1A 7035  22.150  40.827   8.550
 3579POPC   D2A 7036  22.171  40.740   8.250
 3579POPC   C3A 7037  22.199  40.759   7.950
 3579POPC   C4A 7038  22.157  40.773   7.650
 3579POPC   C1B 7039  21.981  40.968   8.550
 3579POPC   C2B 7040  22.034  40.989   8.250
 3579POPC   C3B 7041  21.967  41.003   7.950
 3579POPC   C4B 7042  21.984  41.015   7.650
 3580POPC   NC3 7043  39.208  43.159   9.450
 3580POPC   PO4 7044  39.190  43.098   9.150
 3580POPC   GL1 7045  39.229  43.145   8.850
 3580POPC   GL2 7046  39.123  43.065   8.850
 3580POPC   C1A 7047  39.274  43.069   8.550
 3580POPC   D2A 7048  39.256  43.101   8.250
 3580POPC   C3A 7049  39.214  43.073   7.950
 3580POPC   C4A 7050  39.248  43.066   7.650
 3580POPC   C1B 7051  39.048  43.036   8.550
 3580POPC   C2B 7052  38.985  43.033   8.250
 3580POPC   C3B 7053  38.958  42.984   7.950
 3580POPC   C4B 7054  38.959  43.038   7.650
 3581POPC   NC3 7055  38.478  28.380   9.450
 3581POPC   PO4 7056  38.495  28.325   9.150
 3581POPC   GL1 7057  38.473  28.417   8.850
 3581POPC   GL2 7058  38.367  28.429   8.850
 3581POPC   C1A 7059  38.496  28.325   8.550
 3581POPC   D2A 7060  38.449  28.405   8.250
 3581POPC   C3A 7061  38.489  28.319   7.950
 3581POPC   C4A 7062  38.471  28.402   7.650
 3581POPC   C1B 7063  38.217  28.504   8.550
 3581POPC   C2B 7064  38.226  28.528   8.250
 3581POPC   C3B 7065  38.292  28.548   7.950
 3581POPC   C4B 7066  38.299  28.551   7.650
 3582POPC   NC3 7067  21.415   4.282   9.450
 3582POPC   PO4 7068  21.358   4.331   9.150
 3582POPC   GL1 7069  21.410   4.312   8.850
 3582POPC   GL2 7070  21.497   4.208   8.850
 3582POPC   C1A 7071  21.356   4.290   8.550
 3582POPC   D2A 7072  21.410   4.318   8.250
 3582POPC   C3A 7073  21.375   4.340   7.950
 3582POPC   C4A 7074  21.416   4.300   7.650
 3582POPC   C1B 7075  21.479   4.140   8.550
 3582POPC   C2B 7076  21.499   4.130   8.250
 3582POPC   C3B 7077  21.538   4.121   7.950
 3582POPC   C4B 7078  21.541   4.106   7.650
 3583POPC   NC3 7079  35.386  29.946   9.450
 3583POPC   PO4 7080  35.323  29.928   9.150
 3583POPC   GL1 7081  35.364  29.925   8.850
 3583POPC   GL2 7082  35.395  29.814   8.850
 3583POPC   C1A 7083  35.358  29.951   8.550
 3583POPC   D2A 7084  35.383  29.970   8.250
 3583POPC   C3A 7085  35.310  29.892   7.950
 3583POPC   C4A 7086  35.349  29.929   7.650
 3583POPC   C1B 7087  35.439  29.676   8.550
 3583POPC   C2B 7088  35.430  29.636   8.250
 3583POPC   C3B 7089  35.438  29.662   7.950
 3583POPC   C4B 7090  35.423  29.699   7.650
 3584POPC   NC3 7091  26.071   5.823   9.450
 3584POPC   PO4 7092  26.050   5.851   9.150
 3584POPC   GL1 7093  26.010   5.893   8.850
 3584POPC   GL2 7094  26.146   5.854   8.850
 3584POPC   C1A 7095  25.999   5.864   8.550
 3584POPC   D2A 7096  26.022   5.897   8.250
 3584POPC   C3A 7097  26.068   5.891   7.950
 3584POPC   C4A 7098  26.019   5.907   7.650
 3584POPC   C1B 7099  26.254   5.723   8.550
 3584POPC   C2B 7100  26.234   5.715   8.250
 3584POPC   C3B 7101  26.238   5.702   7.950
 3584POPC   C4B 7102  26.220   5.780   7.650
 3585POPC   NC3 7103   8.241   3.546   9.450
 3585POPC   PO4 7104   8.153   3.493   9.150
 3585POPC   GL1 7105   8.214   3.494   8.850
 3585POPC   GL2 7106   8.190   3.463   8.850
 3585POPC   C1A 7107   8.169   3.522   8.550
 3585POPC   D2A 7108   8.148   3.576   8.250
 3585POPC   C3A 7109   8.234   3.523   7.950
 3585POPC   C4A 7110   8.154   3.506   7.650
 3585POPC   C1B 7111   8.194   3.253   8.550
 3585POPC   C2B 7112   8.208   3.287   8.250
 3585POPC   C3B 7113   8.280   3.254   7.950
 3585POPC   C4B 7114   8.238   3.334   7.650
 3586POPC   NC3 7115  30.678  43.070   9.450
 3586POPC   PO4 7116  30.703  43.132   9.150
 3586POPC   GL1 7117  30.744  43.074   8.850
 3586POPC   GL2 7118  30.616  43.009   8.850
 3586POPC   C1A 7119  30.700  43.155   8.550
 3586POPC   D2A 7120  30.721  43.092   8.250
 3586POPC   C3A 7121  30.653  43.091   7.950
 3586POPC   C4A 7122  30.698  43.097   7.650
 3586POPC   C1B 7123  30.495  42.961   8.550
 3586POPC   C2B 7124  30.516  42.960   8.250
 3586POPC   C3B 7125  30.452  43.003   7.950
 3586POPC   C4B 7126  30.434  43.028   7.650
 3587POPC   NC3 7127  10.544  38.473   9.450
 3587POPC   PO4 7128  10.571  38.496   9.150
 3587POPC   GL1 7129  10.543  38.435   8.850
 3587POPC   GL2 7130  10.460  38.424   8.850
 3587POPC   C1A 7131  10.494  38.453   8.550
 3587POPC   D2A 7132  10.525  38.458   8.250
 3587POPC   C3A 7133  10.529  38.406   7.950
 3587POPC   C4A 7134  10.477  38.413   7.650
 3587POPC   C1B 7135  10.317  38.272   8.550
 3587POPC   C2B 7136  10.291  38.307   8.250
 3587POPC   C3B 7137  10.311  38.293   7.950
 3587POPC   C4B 7138  10.305  38.295   7.650
 3588POPC   NC3 7139  12.825  36.867   9.450
 3588POPC   PO4 7140  12.858  36.901   9.150
 3588POPC   GL1 7141  12.864  36.880   8.850
 3588POPC   GL2 7142  12.815  36.977   8.850
 3588POPC   C1A 7143  12.871  36.948   8.550
 3588POPC   D2A 7144  12.853  36.870   8.250
 3588POPC   C3A 7145  12.803  36.948   7.950
 3588POPC   C4A 7146  12.809  36.913   7.650
 3588POPC   C1B 7147  12.759  37.178   8.550
 3588POPC   C2B 7148  12.753  37.139   8.250
 3588POPC   C3B 7149  12.795  37.120   7.950
 3588POPC   C4B 7150  12.780  37.100   7.650
 3589POPC   NC3 7151  36.093  36.904   9.450
 3589POPC   PO4 7152  36.174  36.937   9.150
 3589POPC   GL1 7153  36.106  36.860   8.850
 3589POPC   GL2 7154  36.262  36.856   8.850
 3589POPC   C1A 7155  36.104  36.902   8.550
 3589POPC   D2A 7156  36.135  36.891   8.250
 3589POPC   C3A 7157  36.081  36.864   7.950
 3589POPC   C4A 7158  36.127  36.907   7.650
 3589POPC   C1B 7159  36.351  36.775   8.550
 3589POPC   C2B 7160  36.312  36.752   8.250
 3589POPC   C3B 7161  36.336  36.737   7.950
 3589POPC   C4B 7162  36.304  36.791   7.650
 3590POPC   NC3 7163  43.873   1.203   9.450
 3590POPC   PO4 7164  43.857   1.200   9.150
 3590POPC   GL1 7165  43.860   1.219   8.850
 3590POPC   GL2 7166  43.730   1.283   8.850
 3590POPC   C1A 7167  43.915   1.234   8.550
 3590POPC   D2A 7168  43.849   1.238   8.250
 3590POPC   C3A 7169  43.935   1.215   7.950
 3590POPC   C4A 7170  43.884   1.211   7.650
 3590POPC   C1B 7171  43.678   1.276   8.550
 3590POPC   C2B 7172  43.659   1.296   8.250
 3590POPC   C3B 7173  43.627   1.285   7.950
 3590POPC   C4B 7174  43.631   1.292   7.650
 3591POPC   NC3 7175  16.688   2.019   9.450
 3591POPC   PO4 7176  16.695   1.998   9.150
 3591POPC   GL1 7177  16.703   2.033   8.850
 3591POPC   GL2 7178  16.671   1.972   8.850
 3591POPC   C1A 7179  16.769   1.954   8.550
 3591POPC   D2A 7180  16.721   1.946   8.250
 3591POPC   C3A 7181  16.686   1.958   7.950
 3591POPC   C4A 7182  16.704   2.031   7.650
 3591POPC   C1B 7183  16.551   1.849   8.550
 3591POPC   C2B 7184  16.563   1.841   8.250
 3591POPC   C3B 7185  16.512   1.893   7.950
 3591POPC   C4B 7186  16.540   1.839   7.650
 3592POPC   NC3 7187  31.446   6.630   9.450
 3592POPC   PO4 7188  31.479   6.631   9.150
 3592POPC   GL1 7189  31.470   6.609   8.850
 3592POPC   GL2 7190  31.337   6.589   8.850
 3592POPC   C1A 7191  31.439   6.625   8.550
 3592POPC   D2A 7192  31.493   6.678   8.250
 3592POPC   C3A 7193  31.506   6.666   7.950
 3592POPC   C4A 7194  31.462   6.651   7.650
 3592POPC   C1B 7195  31.183   6.597   8.550
 3592POPC   C2B 7196  31.221   6.564   8.250
 3592POPC   C3B 7197  31.237   6.620   7.950
 3592POPC   C4B 7198  31.187   6.563   7.650
 3593POPC   NC3 7199  18.253  40.755   9.450
 3593POPC   PO4 7200  18.253  40.795   9.150
 3593POPC   GL1 7201  18.291  40.757   8.850
 3593POPC   GL2 7202  18.353  40.747   8.850
 3593POPC   C1A 7203  18.274  40.807   8.550
 3593POPC   D2A 7204  18.265  40.745   8.250
 3593POPC   C3A 7205  18.329  40.828   7.950
 3593POPC   C4A 7206  18.319  40.790   7.650
 3593POPC   C1B 7207  18.474  40.746   8.550
 3593POPC   C2B 7208  18.515  40.670   8.250
 3593POPC   C3B 7209  18.480  40.674   7.950
 3593POPC   C4B 7210  18.509  40.751   7.650
 3594POPC   NC3 7211   8.165   2.018   9.450
 3594POPC   PO4 7212   8.217   2.021   9.150
 3594POPC   GL1 7213   8.154   1.964   8.850
 3594POPC   GL2 7214   8.081   2.067   8.850
 3594POPC   C1A 7215   8.217   1.954   8.550
 3594POPC   D2A 7216   8.182   1.951   8.250
 3594POPC   C3A 7217   8.148   1.950   7.950
 3594POPC   C4A 7218   8.208   2.022   7.650
 3594POPC   C1B 7219   7.932   2.061   8.550
 3594POPC   C2B 7220   7.946   2.026   8.250
 3594POPC   C3B 7221   7.934   2.022   7.950
 3594POPC   C4B 7222   7.995   2.075   7.650
 3595POPC   NC3 7223  34.534   4.326   9.450
 3595POPC   PO4 7224  34.529   4.358   9.150
 3595POPC   GL1 7225  34.537   4.311   8.850
 3595POPC   GL2 7226  34.497   4.205   8.850
 3595POPC   C1A 7227  34.623   4.347   8.550
 3595POPC   D2A 7228  34.601   4.334   8.250
 3595POPC   C3A 7229  34.615   4.321   7.950
 3595POPC   C4A 7230  34.611   4.296   7.650
 3595POPC   C1B 7231  34.440   4.167   8.550
 3595POPC   C2B 7232  34.461   4.163   8.250
 3595POPC   C3B 7233  34.430   4.153   7.950
 3595POPC   C4B 7234  34.404   4.117   7.650
 3596POPC   NC3 7235  14.437  33.027   9.450
 3596POPC   PO4 7236  14.432  33.027   9.150
 3596POPC   GL1 7237  14.441  33.009   8.850
 3596POPC   GL2 7238  14.344  32.944   8.850
 3596POPC   C1A 7239  14.395  33.045   8.550
 3596POPC   D2A 7240  14.384  33.049   8.250
 3596POPC   C3A 7241  14.401  33.035   7.950
 3596POPC   C4A 7242  14.366  33.009   7.650
 3596POPC   C1B 7243  14.387  32.822   8.550
 3596POPC   C2B 7244  14.352  32.744   8.250
 3596POPC   C3B 7245  14.385  32.795   7.950
 3596POPC   C4B 7246  14.369  32.760   7.650
 3597POPC   NC3 7247  13.611  29.179   9.450
 3597POPC   PO4 7248  13.630  29.157   9.150
 3597POPC   GL1 7249  13.632  29.126   8.850
 3597POPC   GL2 7250  13.503  29.204   8.850
 3597POPC   C1A 7251  13.674  29.186   8.550
 3597POPC   D2A 7252  13.597  29.165   8.250
 3597POPC   C3A 7253  13.635  29.116   7.950
 3597POPC   C4A 7254  13.625  29.162   7.650
 3597POPC   C1B 7255  13.496  29.363   8.550
 3597POPC   C2B 7256  13.468  29.352   8.250
 3597POPC   C3B 7257  13.453  29.320   7.950
 3597POPC   C4B 7258  13.448  29.350   7.650
 3598POPC   NC3 7259  13.655  11.295   9.450
 3598POPC   PO4 7260  13.578  11.289   9.150
 3598POPC   GL1 7261  13.593  11.289   8.850
 3598POPC   GL2 7262  13.521  11.204   8.850
 3598POPC   C1A 7263  13.671  11.256   8.550
 3598POPC   D2A 7264  13.669  11.344   8.250
 3598POPC   C3A 7265  13.617  11.316   7.950
 3598POPC   C4A 7266  13.650  11.275   7.650
 3598POPC   C1B 7267  13.419  11.188   8.550
 3598POPC   C2B 7268  13.469  11.182   8.250
 3598POPC   C3B 7269  13.386  11.165   7.950
 3598POPC   C4B 7270  13.454  11.119   7.650
 3599POPC   NC3 7271  32.225  15.961   9.450
 3599POPC   PO4 7272  32.228  15.991   9.150
 3599POPC   GL1 7273  32.278  15.922   8.850
 3599POPC   GL2 7274  32.348  15.966   8.850
 3599POPC   C1A 7275  32.242  16.004   8.550
 3599POPC   D2A 7276  32.240  15.953   8.250
 3599POPC   C3A 7277  32.256  15.963   7.950
 3599POPC   C4A 7278  32.278  15.929   7.650
 3599POPC   C1B 7279  32.481  15.875   8.550
 3599POPC   C2B 7280  32.511  15.879   8.250
 3599POPC   C3B 7281  32.503  15.909   7.950
 3599POPC   C4B 7282  32.540  15.955   7.650
 3600POPC   NC3 7283  23.754  26.037   9.450
 3600POPC   PO4 7284  23.729  26.088   9.150
 3600POPC   GL1 7285  23.729  26.003   8.850
 3600POPC   GL2 7286  23.663  26.191   8.850
 3600POPC   C1A 7287  23.740  26.091   8.550
 3600POPC   D2A 7288  23.761  26.008   8.250
 3600POPC   C3A 7289  23.686  26.020   7.950
 3600POPC   C4A 7290  23.682  26.081   7.650
 3600POPC   C1B 7291  23.628  26.288   8.550
 3600POPC   C2B 7292  23.608  26.266   8.250
 3600POPC   C3B 7293  23.635  26.268   7.950
 3600POPC   C4B 7294  23.605  26.287   7.650
 3601POPC   NC3 7295  12.112   1.184   9.450
 3601POPC   PO4 7296  12.122   1.219   9.150
 3601POPC   GL1 7297  12.117   1.227   8.850
 3601POPC   GL2 7298  12.232   1.219   8.850
 3601POPC   C1A 7299  12.073   1.258   8.550
 3601POPC   D2A 7300  12.102   1.182   8.250
 3601POPC   C3A 7301  12.072   1.194   7.950
 3601POPC   C4A 7302  12.109   1.214   7.650
 3601POPC   C1B 7303  12.352   1.288   8.550
 3601POPC   C2B 7304  12.343   1.334   8.250
 3601POPC   C3B 7305  12.349   1.340   7.950
 3601POPC   C4B 7306  12.293   1.276   7.650
 3602POPC   NC3 7307  15.950  31.454   9.450
 3602POPC   PO4 7308  15.938  31.492   9.150
 3602POPC   GL1 7309  15.988  31.511   8.850
 3602POPC   GL2 7310  15.943  31.615   8.850
 3602POPC   C1A 7311  15.924  31.466   8.550
 3602POPC   D2A 7312  15.972  31.455   8.250
 3602POPC   C3A 7313  15.978  31.452   7.950
 3602POPC   C4A 7314  15.948  31.438   7.650
 3602POPC   C1B 7315  15.861  31.736   8.550
 3602POPC   C2B 7316  15.891  31.691   8.250
 3602POPC   C3B 7317  15.942  31.667   7.950
 3602POPC   C4B 7318  15.944  31.747   7.650
 3603POPC   NC3 7319  18.311  30.705   9.450
 3603POPC   PO4 7320  18.276  30.710   9.150
 3603POPC   GL1 7321  18.235  30.653   8.850
 3603POPC   GL2 7322  18.251  30.805   8.850
 3603POPC   C1A 7323  18.253  30.663   8.550
 3603POPC   D2A 7324  18.234  30.658   8.250
 3603POPC   C3A 7325  18.296  30.692   7.950
 3603POPC   C4A 7326  18.286  30.724   7.650
 3603POPC   C1B 7327  18.271  30.945   8.550
 3603POPC   C2B 7328  18.278  30.964   8.250
 3603POPC   C3B 7329  18.249  30.972   7.950
 3603POPC   C4B 7330  18.257  30.918   7.650
 3604POPC   NC3 7331  12.842  26.837   9.450
 3604POPC   PO4 7332  12.864  26.848   9.150
 3604POPC   GL1 7333  12.900  26.810   8.850
 3604POPC   GL2 7334  12.867  26.730   8.850
 3604POPC   C1A 7335  12.884  26.771   8.550
 3604POPC   D2A 7336  12.835  26.828   8.250
 3604POPC   C3A 7337  12.843  26.867   7.950
 3604POPC   C4A 7338  12.829  26.782   7.650
 3604POPC   C1B 7339  12.883  26.564   8.550
 3604POPC   C2B 7340  12.896  26.571   8.250
 3604POPC   C3B 7341  12.887  26.525   7.950
 3604POPC   C4B 7342  12.828  26.588   7.650
 3605POPC   NC3 7343  43.926  20.660   9.450
 3605POPC   PO4 7344  43.924  20.577   9.150
 3605POPC   GL1 7345  43.852  20.619   8.850
 3605POPC   GL2 7346  43.940  20.741   8.850
 3605POPC   C1A 7347  43.884  20.567   8.550
 3605POPC   D2A 7348  43.881  20.580   8.250
 3605POPC   C3A 7349  43.887  20.636   7.950
 3605POPC   C4A 7350  43.907  20.659   7.650
 3605POPC   C1B 7351  43.946  20.865   8.550
 3605POPC   C2B 7352  43.903  20.887   8.250
 3605POPC   C3B 7353  43.880  20.883   7.950
 3605POPC   C4B 7354  43.875  20.858   7.650
 3606POPC   NC3 7355  26.850  25.233   9.450
 3606POPC   PO4 7356  26.808  25.268   9.150
 3606POPC   GL1 7357  26.856  25.267   8.850
 3606POPC   GL2 7358  26.743  25.194   8.850
 3606POPC   C1A 7359  26.845  25.219   8.550
 3606POPC   D2A 7360  26.778  25.284   8.250
 3606POPC   C3A 7361  26.843  25.303   7.950
 3606POPC   C4A 7362  26.774  25.305   7.650
 3606POPC   C1B 7363  26.629  25.136   8.550
 3606POPC   C2B 7364  26.600  25.119   8.250
 3606POPC   C3B 7365  26.625  25.109   7.950
 3606POPC   C4B 7366  26.617  25.185   7.650
 3607POPC   NC3 7367  16.695  33.825   9.450
 3607POPC   PO4 7368  16.700  33.785   9.150
 3607POPC   GL1 7369  16.753  33.790   8.850
 3607POPC   GL2 7370  16.873  33.809   8.850
 3607POPC   C1A 7371  16.739  33.751   8.550
 3607POPC   D2A 7372  16.755  33.785   8.250
 3607POPC   C3A 7373  16.765  33.814   7.950
 3607POPC   C4A 7374  16.735  33.817   7.650
 3607POPC   C1B 7375  17.004  33.766   8.550
 3607POPC   C2B 7376  16.988  33.725   8.250
 3607POPC   C3B 7377  16.989  33.709   7.950
 3607POPC   C4B 7378  16.942  33.752   7.650
 3608POPC   NC3 7379  40.019  13.653   9.450
 3608POPC   PO4 7380  40.021  13.664   9.150
 3608POPC   GL1 7381  40.038  13.653   8.850
 3608POPC   GL2 7382  40.015  13.526   8.850
 3608POPC   C1A 7383  39.970  13.619   8.550
 3608POPC   D2A 7384  39.975  13.623   8.250
 3608POPC   C3A 7385  39.986  13.635   7.950
 3608POPC   C4A 7386  39.997  13.580   7.650
 3608POPC   C1B 7387  40.064  13.428   8.550
 3608POPC   C2B 7388  40.098  13.374   8.250
 3608POPC   C3B 7389  40.068  13.361   7.950
 3608POPC   C4B 7390  40.025  13.359   7.650
 3609POPC   NC3 7391  20.639  41.555   9.450
 3609POPC   PO4 7392  20.583  41.543   9.150
 3609POPC   GL1 7393  20.645  41.590   8.850
 3609POPC   GL2 7394  20.685  41.550   8.850
 3609POPC   C1A 7395  20.585  41.576   8.550
 3609POPC   D2A 7396  20.620  41.536   8.250
 3609POPC   C3A 7397  20.583  41.516   7.950
 3609POPC   C4A 7398  20.657  41.512   7.650
 3609POPC   C1B 7399  20.866  41.537   8.550
 3609POPC   C2B 7400  20.855  41.583   8.250
 3609POPC   C3B 7401  20.825  41.575   7.950
 3609POPC   C4B 7402  20.906  41.579   7.650
 3610POPC   NC3 7403  36.098  22.910   9.450
 3610POPC   PO4 7404  36.138  22.968   9.150
 3610POPC   GL1 7405  36.080  22.915   8.850
 3610POPC   GL2 7406  36.104  23.067   8.850
 3610POPC   C1A 7407  36.133  22.967   8.550
 3610POPC   D2A 7408  36.083  22.940   8.250
 3610POPC   C3A 7409  36.079  22.934   7.950
 3610POPC   C4A 7410  36.166  22.949   7.650
 3610POPC   C1B 7411  36.069  23.158   8.550
 3610POPC   C2B 7412  36.058  23.200   8.250
 3610POPC   C3B 7413  36.042  23.143   7.950
 3610POPC   C4B 7414  36.038  23.203   7.650
 3611POPC   NC3 7415  18.234  13.585   9.450
 3611POPC   PO4 7416  18.250  13.627   9.150
 3611POPC   GL1 7417  18.320  13.628   8.850
 3611POPC   GL2 7418  18.339  13.553   8.850
 3611POPC   C1A 7419  18.320  13.626   8.550
 3611POPC   D2A 7420  18.309  13.609   8.250
 3611POPC   C3A 7421  18.291  13.626   7.950
 3611POPC   C4A 7422  18.266  13.616   7.650
 3611POPC   C1B 7423  18.382  13.415   8.550
 3611POPC   C2B 7424  18.371  13.439   8.250
 3611POPC   C3B 7425  18.371  13.380   7.950
 3611POPC   C4B 7426  18.331  13.405   7.650
 3612POPC   NC3 7427   4.323  34.590   9.450
 3612POPC   PO4 7428   4.296  34.555   9.150
 3612POPC   GL1 7429   4.300  34.586   8.850
 3612POPC   GL2 7430   4.290  34.641   8.850
 3612POPC   C1A 7431   4.317  34.619   8.550
 3612POPC   D2A 7432   4.267  34.556   8.250
 3612POPC   C3A 7433   4.326  34.538   7.950
 3612POPC   C4A 7434   4.353  34.542   7.650
 3612POPC   C1B 7435   4.165  34.845   8.550
 3612POPC   C2B 7436   4.198  34.753   8.250
 3612POPC   C3B 7437   4.155  34.843   7.950
 3612POPC   C4B 7438   4.198  34.847   7.650
 3613POPC   NC3 7439   6.597  33.053   9.450
 3613POPC   PO4 7440   6.694  33.056   9.150
 3613POPC   GL1 7441   6.610  33.064   8.850
 3613POPC   GL2 7442   6.737  32.983   8.850
 3613POPC   C1A 7443   6.645  33.021   8.550
 3613POPC   D2A 7444   6.672  33.052   8.250
 3613POPC   C3A 7445   6.596  33.003   7.950
 3613POPC   C4A 7446   6.645  33.017   7.650
 3613POPC   C1B 7447   6.918  33.063   8.550
 3613POPC   C2B 7448   6.893  33.013   8.250
 3613POPC   C3B 7449   6.850  32.998   7.950
 3613POPC   C4B 7450   6.911  32.982   7.650
 3614POPC   NC3 7451  22.972  36.171   9.450
 3614POPC   PO4 7452  22.911  36.136   9.150
 3614POPC   GL1 7453  22.910  36.141   8.850
 3614POPC   GL2 7454  23.064  36.196   8.850
 3614POPC   C1A 7455  22.958  36.171   8.550
 3614POPC   D2A 7456  22.970  36.137   8.250
 3614POPC   C3A 7457  22.891  36.119   7.950
 3614POPC   C4A 7458  22.925  36.128   7.650
 3614POPC   C1B 7459  23.137  36.177   8.550
 3614POPC   C2B 7460  23.171  36.169   8.250
 3614POPC   C3B 7461  23.127  36.260   7.950
 3614POPC   C4B 7462  23.149  36.170   7.650
 3615POPC   NC3 7463  12.056  10.545   9.450
 3615POPC   PO4 7464  12.118  10.536   9.150
 3615POPC   GL1 7465  12.075  10.514   8.850
 3615POPC   GL2 7466  11.997  10.504   8.850
 3615POPC   C1A 7467  12.112  10.554   8.550
 3615POPC   D2A 7468  12.049  10.506   8.250
 3615POPC   C3A 7469  12.061  10.543   7.950
 3615POPC   C4A 7470  12.073  10.505   7.650
 3615POPC   C1B 7471  11.890  10.437   8.550
 3615POPC   C2B 7472  11.804  10.364   8.250
 3615POPC   C3B 7473  11.831  10.402   7.950
 3615POPC   C4B 7474  11.832  10.417   7.650
 3616POPC   NC3 7475  36.887  40.045   9.450
 3616POPC   PO4 7476  36.912  39.991   9.150
 3616POPC   GL1 7477  36.918  39.970   8.850
 3616POPC   GL2 7478  36.830  40.132   8.850
 3616POPC   C1A 7479  36.881  39.991   8.550
 3616POPC   D2A 7480  36.914  39.997   8.250
 3616POPC   C3A 7481  36.877  39.978   7.950
 3616POPC   C4A 7482  36.889  40.026   7.650
 3616POPC   C1B 7483  36.736  40.202   8.550
 3616POPC   C2B 7484  36.726  40.242   8.250
 3616POPC   C3B 7485  36.701  40.180   7.950
 3616POPC   C4B 7486  36.733  40.196   7.650
 3617POPC   NC3 7487  33.814  21.434   9.450
 3617POPC   PO4 7488  33.834  21.386   9.150
 3617POPC   GL1 7489  33.810  21.384   8.850
 3617POPC   GL2 7490  33.654  21.435   8.850
 3617POPC   C1A 7491  33.789  21.377   8.550
 3617POPC   D2A 7492  33.793  21.429   8.250
 3617POPC   C3A 7493  33.826  21.340   7.950
 3617POPC   C4A 7494  33.817  21.435   7.650
 3617POPC   C1B 7495  33.512  21.435   8.550
 3617POPC   C2B 7496  33.545  21.474   8.250
 3617POPC   C3B 7497  33.593  21.483   7.950
 3617POPC   C4B 7498  33.519  21.413   7.650
 3618POPC   NC3 7499   1.972  37.655   9.450
 3618POPC   PO4 7500   1.950  37.655   9.150
 3618POPC   GL1 7501   1.952  37.729   8.850
 3618POPC   GL2 7502   2.053  37.784   8.850
 3618POPC   C1A 7503   2.027  37.641   8.550
 3618POPC   D2A 7504   1.978  37.672   8.250
 3618POPC   C3A 7505   1.956  37.718   7.950
 3618POPC   C4A 7506   1.951  37.661   7.650
 3618POPC   C1B 7507   2.017  37.895   8.550
 3618POPC   C2B 7508   1.992  37.952   8.250
 3618POPC   C3B 7509   2.009  37.947   7.950
 3618POPC   C4B 7510   1.983  37.889   7.650
 3619POPC   NC3 7511  13.609  43.920   9.450
 3619POPC   PO4 7512  13.653  43.906   9.150
 3619POPC   GL1 7513  13.623  43.889   8.850
 3619POPC   GL2 7514  13.705  43.807   8.850
 3619POPC   C1A 7515  13.648  43.854   8.550
 3619POPC   D2A 7516  13.650  43.886   8.250
 3619POPC   C3A 7517  13.601  43.884   7.950
 3619POPC   C4A 7518  13.593  43.909   7.650
 3619POPC   C1B 7519  13.785  43.644   8.550
 3619POPC   C2B 7520  13.743  43.637   8.250
 3619POPC   C3B 7521  13.702  43.705   7.950
 3619POPC   C4B 7522  13.722  43.679   7.650
 3620POPC   NC3 7523   7.438  17.507   9.450
 3620POPC   PO4 7524   7.460  17.463   9.150
 3620POPC   GL1 7525   7.450  17.541   8.850
 3620POPC   GL2 7526   7.578  17.582   8.850
 3620POPC   C1A 7527   7.440  17.493   8.550
 3620POPC   D2A 7528   7.383  17.540   8.250
 3620POPC   C3A 7529   7.387  17.463   7.950
 3620POPC   C4A 7530   7.384  17.531   7.650
 3620POPC   C1B 7531   7.685  17.541   8.550
 3620POPC   C2B 7532   7.623  17.591   8.250
 3620POPC   C3B 7533   7.681  17.584   7.950
 3620POPC   C4B 7534   7.656  17.571   7.650
 3621POPC   NC3 7535  31.464  15.954   9.450
 3621POPC   PO4 7536  31.452  15.932   9.150
 3621POPC   GL1 7537  31.502  15.906   8.850
 3621POPC   GL2 7538  31.513  15.828   8.850
 3621POPC   C1A 7539  31.485  15.906   8.550
 3621POPC   D2A 7540  31.482  15.963   8.250
 3621POPC   C3A 7541  31.487  15.967   7.950
 3621POPC   C4A 7542  31.520  15.968   7.650
 3621POPC   C1B 7543  31.657  15.747   8.550
 3621POPC   C2B 7544  31.647  15.741   8.250
 3621POPC   C3B 7545  31.648  15.745   7.950
 3621POPC   C4B 7546  31.581  15.806   7.650
 3622POPC   NC3 7547  12.121  32.218   9.450
 3622POPC   PO4 7548  12.088  32.236   9.150
 3622POPC   GL1 7549  12.123  32.292   8.850
 3622POPC   GL2 7550  12.241  32.262   8.850
 3622POPC   C1A 7551  12.075  32.261   8.550
 3622POPC   D2A 7552  12.113  32.284   8.250
 3622POPC   C3A 7553  12.104  32.289   7.950
 3622POPC   C4A 7554  12.059  32.287   7.650
 3622POPC   C1B 7555  12.364  32.209   8.550
 3622POPC   C2B 7556  12.369  32.223   8.250
 3622POPC   C3B 7557  12.310  32.205   7.950
 3622POPC   C4B 7558  12.295  32.183   7.650
 3623POPC   NC3 7559  31.450  22.192   9.450
 3623POPC   PO4 7560  31.491  22.121   9.150
 3623POPC   GL1 7561  31.466  22.178   8.850
 3623POPC   GL2 7562  31.375  22.227   8.850
 3623POPC   C1A 7563  31.449  22.113   8.550
 3623POPC   D2A 7564  31.463  22.205   8.250
 3623POPC   C3A 7565  31.428  22.137   7.950
 3623POPC   C4A 7566  31.441  22.154   7.650
 3623POPC   C1B 7567  31.274  22.311   8.550
 3623POPC   C2B 7568  31.300  22.305   8.250
 3623POPC   C3B 7569  31.281  22.358   7.950
 3623POPC   C4B 7570  31.241  22.352   7.650
 3624POPC   NC3 7571  36.139  38.424   9.450
 3624POPC   PO4 7572  36.085  38.460   9.150
 3624POPC   GL1 7573  36.107  38.407   8.850
 3624POPC   GL2 7574  36.016  38.522   8.850
 3624POPC   C1A 7575  36.106  38.411   8.550
 3624POPC   D2A 7576  36.163  38.428   8.250
 3624POPC   C3A 7577  36.174  38.413   7.950
 3624POPC   C4A 7578  36.099  38.425   7.650
 3624POPC   C1B 7579  35.912  38.589   8.550
 3624POPC   C2B 7580  35.984  38.673   8.250
 3624POPC   C3B 7581  35.962  38.587   7.950
 3624POPC   C4B 7582  35.981  38.647   7.650
 3625POPC   NC3 7583  29.949  23.679   9.450
 3625POPC   PO4 7584  29.890  23.712   9.150
 3625POPC   GL1 7585  29.935  23.745   8.850
 3625POPC   GL2 7586  29.962  23.568   8.850
 3625POPC   C1A 7587  29.887  23.674   8.550
 3625POPC   D2A 7588  29.912  23.720   8.250
 3625POPC   C3A 7589  29.897  23.758   7.950
 3625POPC   C4A 7590  29.890  23.672   7.650
 3625POPC   C1B 7591  30.016  23.512   8.550
 3625POPC   C2B 7592  30.035  23.506   8.250
 3625POPC   C3B 7593  29.992  23.434   7.950
 3625POPC   C4B 7594  29.963  23.491   7.650
 3626POPC   NC3 7595  24.538  23.735   9.450
 3626POPC   PO4 7596  24.448  23.681   9.150
 3626POPC   GL1 7597  24.501  23.746   8.850
 3626POPC   GL2 7598  24.482  23.838   8.850
 3626POPC   C1A 7599  24.537  23.709   8.550
 3626POPC   D2A 7600  24.530  23.712   8.250
 3626POPC   C3A 7601  24.462  23.666   7.950
 3626POPC   C4A 7602  24.520  23.684   7.650
 3626POPC   C1B 7603  24.488  24.008   8.550
 3626POPC   C2B 7604  24.468  23.919   8.250
 3626POPC   C3B 7605  24.467  23.983   7.950
 3626POPC   C4B 7606  24.560  23.939   7.650
 3627POPC   NC3 7607   4.332  12.053   9.450
 3627POPC   PO4 7608   4.349  12.115   9.150
 3627POPC   GL1 7609   4.330  12.093   8.850
 3627POPC   GL2 7610   4.402  12.110   8.850
 3627POPC   C1A 7611   4.292  12.053   8.550
 3627POPC   D2A 7612   4.357  12.061   8.250
 3627POPC   C3A 7613   4.357  12.103   7.950
 3627POPC   C4A 7614   4.365  12.116   7.650
 3627POPC   C1B 7615   4.585  12.082   8.550
 3627POPC   C2B 7616   4.541  12.146   8.250
 3627POPC   C3B 7617   4.515  12.084   7.950
 3627POPC   C4B 7618   4.601  12.143   7.650
 3628POPC   NC3 7619  44.621   5.089   9.450
 3628POPC   PO4 7620  44.616   5.131   9.150
 3628POPC   GL1 7621  44.622   5.079   8.850
 3628POPC   GL2 7622  44.770   5.231   8.850
 3628POPC   C1A 7623  44.688   5.132   8.550
 3628POPC   D2A 7624  44.673   5.045   8.250
 3628POPC   C3A 7625  44.647   5.111   7.950
 3628POPC   C4A 7626  44.632   5.139   7.650
 3628POPC   C1B 7627  44.832   5.296   8.550
 3628POPC   C2B 7628  44.843   5.280   8.250
 3628POPC   C3B 7629  44.798   5.258   7.950
 3628POPC   C4B 7630  44.845   5.326   7.650
 3629POPC   NC3 7631  19.837  22.120   9.450
 3629POPC   PO4 7632  19.808  22.114   9.150
 3629POPC   GL1 7633  19.869  22.132   8.850
 3629POPC   GL2 7634  19.886  22.241   8.850
 3629POPC   C1A 7635  19.857  22.133   8.550
 3629POPC   D2A 7636  19.867  22.114   8.250
 3629POPC   C3A 7637  19.825  22.172   7.950
 3629POPC   C4A 7638  19.864  22.146   7.650
 3629POPC   C1B 7639  19.922  22.433   8.550
 3629POPC   C2B 7640  19.871  22.381   8.250
 3629POPC   C3B 7641  19.862  22.437   7.950
 3629POPC   C4B 7642  19.866  22.406   7.650
 3630POPC   NC3 7643  32.268  26.863   9.450
 3630POPC   PO4 7644  32.209  26.808   9.150
 3630POPC   GL1 7645  32.281  26.822   8.850
 3630POPC   GL2 7646  32.094  26.730   8.850
 3630POPC   C1A 7647  32.275  26.823   8.550
 3630POPC   D2A 7648  32.201  26.811   8.250
 3630POPC   C3A 7649  32.252  26.807   7.950
 3630POPC   C4A 7650  32.283  26.862   7.650
 3630POPC   C1B 7651  32.028  26.688   8.550
 3630POPC   C2B 7652  32.047  26.784   8.250
 3630POPC   C3B 7653  32.019  26.756   7.950
 3630POPC   C4B 7654  31.981  26.756   7.650
 3631POPC   NC3 7655  44.699  39.231   9.450
 3631POPC   PO4 7656  44.630  39.199   9.150
 3631POPC   GL1 7657  44.704  39.235   8.850
 3631POPC   GL2 7658  44.536  39.109   8.850
 3631POPC   C1A 7659  44.633  39.200   8.550
 3631POPC   D2A 7660  44.711  39.276   8.250
 3631POPC   C3A 7661  44.683  39.225   7.950
 3631POPC   C4A 7662  44.675  39.229   7.650
 3631POPC   C1B 7663  44.493  39.053   8.550
 3631POPC   C2B 7664  44.537  39.093   8.250
 3631POPC   C3B 7665  44.535  38.998   7.950
 3631POPC   C4B 7666  44.479  39.041   7.650
 3632POPC   NC3 7667  27.596   8.210   9.450
 3632POPC   PO4 7668  27.595   8.147   9.150
 3632POPC   GL1 7669  27.592   8.197   8.850
 3632POPC   GL2 7670  27.487   8.215   8.850
 3632POPC   C1A 7671  27.591   8.150   8.550
 3632POPC   D2A 7672  27.603   8.186   8.250
 3632POPC   C3A 7673  27.582   8.182   7.950
 3632POPC   C4A 7674  27.559   8.152   7.650
 3632POPC   C1B 7675  27.310   8.261   8.550
 3632POPC   C2B 7676  27.327   8.256   8.250
 3632POPC   C3B 7677  27.303   8.294   7.950
 3632POPC   C4B 7678  27.366   8.287   7.650
 3633POPC   NC3 7679  10.480  22.139   9.450
 3633POPC   PO4 7680  10.500  22.138   9.150
 3633POPC   GL1 7681  10.546  22.195   8.850
 3633POPC   GL2 7682  10.607  22.302   8.850
 3633POPC   C1A 7683  10.477  22.128   8.550
 3633POPC   D2A 7684  10.556  22.113   8.250
 3633POPC   C3A 7685  10.552  22.178   7.950
 3633POPC   C4A 7686  10.475  22.211   7.650
 3633POPC   C1B 7687  10.652  22.343   8.550
 3633POPC   C2B 7688  10.701  22.364   8.250
 3633POPC   C3B 7689  10.721  22.391   7.950
 3633POPC   C4B 7690  10.670  22.404   7.650
 3634POPC   NC3 7691   6.657  39.250   9.450
 3634POPC   PO4 7692   6.689  39.248   9.150
 3634POPC   GL1 7693   6.686  39.254   8.850
 3634POPC   GL2 7694   6.616  39.070   8.850
 3634POPC   C1A 7695   6.664  39.249   8.550
 3634POPC   D2A 7696   6.622  39.228   8.250
 3634POPC   C3A 7697   6.675  39.255   7.950
 3634POPC   C4A 7698   6.668  39.224   7.650
 3634POPC   C1B 7699   6.571  38.972   8.550
 3634POPC   C2B 7700   6.499  38.957   8.250
 3634POPC   C3B 7701   6.512  39.012   7.950
 3634POPC   C4B 7702   6.528  39.025   7.650
 3635POPC   NC3 7703  15.945  40.817   9.450
 3635POPC   PO4 7704  15.971  40.829   9.150
 3635POPC   GL1 7705  15.918  40.796   8.850
 3635POPC   GL2 7706  15.997  40.880   8.850
 3635POPC   C1A 7707  15.955  40.812   8.550
 3635POPC   D2A 7708  15.987  40.789   8.250
 3635POPC   C3A 7709  15.964  40.773   7.950
 3635POPC   C4A 7710  15.928  40.812   7.650
 3635POPC   C1B 7711  16.094  40.988   8.550
 3635POPC   C2B 7712  16.088  40.974   8.250
 3635POPC   C3B 7713  16.047  41.055   7.950
 3635POPC   C4B 7714  16.060  41.048   7.650
 3636POPC   NC3 7715   8.980  12.865   9.450
 3636POPC   PO4 7716   8.972  12.900   9.150
 3636POPC   GL1 7717   8.930  12.805   8.850
 3636POPC   GL2 7718   8.835  12.770   8.850
 3636POPC   C1A 7719   8.996  12.885   8.550
 3636POPC   D2A 7720   9.017  12.850   8.250
 3636POPC   C3A 7721   9.006  12.804   7.950
 3636POPC   C4A 7722   8.939  12.831   7.650
 3636POPC   C1B 7723   8.744  12.731   8.550
 3636POPC   C2B 7724   8.796  12.649   8.250
 3636POPC   C3B 7725   8.749  12.668   7.950
 3636POPC   C4B 7726   8.753  12.648   7.650
 3637POPC   NC3 7727  11.318   5.821   9.450
 3637POPC   PO4 7728  11.338   5.861   9.150
 3637POPC   GL1 7729  11.336   5.821   8.850
 3637POPC   GL2 7730  11.376   5.846   8.850
 3637POPC   C1A 7731  11.348   5.882   8.550
 3637POPC   D2A 7732  11.333   5.833   8.250
 3637POPC   C3A 7733  11.347   5.835   7.950
 3637POPC   C4A 7734  11.341   5.850   7.650
 3637POPC   C1B 7735  11.548   5.790   8.550
 3637POPC   C2B 7736  11.578   5.836   8.250
 3637POPC   C3B 7737  11.552   5.772   7.950
 3637POPC   C4B 7738  11.567   5.813   7.650
 3638POPC   NC3 7739  35.343  19.795   9.450
 3638POPC   PO4 7740  35.315  19.833   9.150
 3638POPC   GL1 7741  35.321  19.794   8.850
 3638POPC   GL2 7742  35.229  19.935   8.850
 3638POPC   C1A 7743  35.324  19.797   8.550
 3638POPC   D2A 7744  35.394  19.808   8.250
 3638POPC   C3A 7745  35.337  19.815   7.950
 3638POPC   C4A 7746  35.304  19.816   7.650
 3638POPC   C1B 7747  35.168  20.028   8.550
 3638POPC   C2B 7748  35.156  20.030   8.250
 3638POPC   C3B 7749  35.110  20.028   7.950
 3638POPC   C4B 7750  35.152  19.953   7.650
 3639POPC   NC3 7751  15.953   3.570   9.450
 3639POPC   PO4 7752  15.946   3.503   9.150
 3639POPC   GL1 7753  16.001   3.559   8.850
 3639POPC   GL2 7754  15.974   3.458   8.850
 3639POPC   C1A 7755  15.977   3.587   8.550
 3639POPC   D2A 7756  15.978   3.580   8.250
 3639POPC   C3A 7757  15.909   3.590   7.950
 3639POPC   C4A 7758  15.975   3.525   7.650
 3639POPC   C1B 7759  15.978   3.323   8.550
 3639POPC   C2B 7760  15.952   3.336   8.250
 3639POPC   C3B 7761  15.943   3.262   7.950
 3639POPC   C4B 7762  15.990   3.304   7.650
 3640POPC   NC3 7763  33.026  19.882   9.450
 3640POPC   PO4 7764  33.012  19.881   9.150
 3640POPC   GL1 7765  33.040  19.859   8.850
 3640POPC   GL2 7766  33.045  19.911   8.850
 3640POPC   C1A 7767  33.038  19.860   8.550
 3640POPC   D2A 7768  33.027  19.860   8.250
 3640POPC   C3A 7769  33.029  19.803   7.950
 3640POPC   C4A 7770  33.031  19.877   7.650
 3640POPC   C1B 7771  33.039  20.123   8.550
 3640POPC   C2B 7772  33.057  20.089   8.250
 3640POPC   C3B 7773  33.095  20.106   7.950
 3640POPC   C4B 7774  33.116  20.095   7.650
 3641POPC   NC3 7775   2.783  12.887   9.450
 3641POPC   PO4 7776   2.791  12.835   9.150
 3641POPC   GL1 7777   2.781  12.882   8.850
 3641POPC   GL2 7778   2.657  12.734   8.850
 3641POPC   C1A 7779   2.759  12.886   8.550
 3641POPC   D2A 7780   2.763  12.863   8.250
 3641POPC   C3A 7781   2.719  12.813   7.950
 3641POPC   C4A 7782   2.740  12.841   7.650
 3641POPC   C1B 7783   2.590  12.697   8.550
 3641POPC   C2B 7784   2.514  12.728   8.250
 3641POPC   C3B 7785   2.554  12.708   7.950
 3641POPC   C4B 7786   2.520  12.714   7.650
 3642POPC   NC3 7787  32.281  40.045   9.450
 3642POPC   PO4 7788  32.264  39.989   9.150
 3642POPC   GL1 7789  32.278  39.989   8.850
 3642POPC   GL2 7790  32.135  39.913   8.850
 3642POPC   C1A 7791  32.233  40.051   8.550
 3642POPC   D2A 7792  32.257  40.026   8.250
 3642POPC   C3A 7793  32.202  40.003   7.950
 3642POPC   C4A 7794  32.257  39.977   7.650
 3642POPC   C1B 7795  32.168  39.746   8.550
 3642POPC   C2B 7796  32.083  39.831   8.250
 3642POPC   C3B 7797  32.118  39.832   7.950
 3642POPC   C4B 7798  32.165  39.776   7.650
 3643POPC   NC3 7799   6.663   0.403   9.450
 3643POPC   PO4 7800   6.632   0.439   9.150
 3643POPC   GL1 7801   6.636   0.444   8.850
 3643POPC   GL2 7802   6.621   0.325   8.850
 3643POPC   C1A 7803   6.685   0.477   8.550
 3643POPC   D2A 7804   6.648   0.485   8.250
 3643POPC   C3A 7805   6.643   0.430   7.950
 3643POPC   C4A 7806   6.600   0.441   7.650
 3643POPC   C1B 7807   6.493   0.169   8.550
 3643POPC   C2B 7808   6.561   0.244   8.250
 3643POPC   C3B 7809   6.498   0.182   7.950
 3643POPC   C4B 7810   6.555   0.258   7.650
 3644POPC   NC3 7811   4.275   4.346   9.450
 3644POPC   PO4 7812   4.319   4.330   9.150
 3644POPC   GL1 7813   4.327   4.365   8.850
 3644POPC   GL2 7814   4.441   4.370   8.850
 3644POPC   C1A 7815   4.272   4.358   8.550
 3644POPC   D2A 7816   4.283   4.351   8.250
 3644POPC   C3A 7817   4.293   4.335   7.950
 3644POPC   C4A 7818   4.289   4.299   7.650
 3644POPC   C1B 7819   4.565   4.413   8.550
 3644POPC   C2B 7820   4.599   4.436   8.250
 3644POPC   C3B 7821   4.592   4.387   7.950
 3644POPC   C4B 7822   4.580   4.379   7.650
 3645POPC   NC3 7823   5.890  26.812   9.450
 3645POPC   PO4 7824   5.819  26.814   9.150
 3645POPC   GL1 7825   5.830  26.788   8.850
 3645POPC   GL2 7826   5.762  26.842   8.850
 3645POPC   C1A 7827   5.856  26.854   8.550
 3645POPC   D2A 7828   5.844  26.829   8.250
 3645POPC   C3A 7829   5.842  26.798   7.950
 3645POPC   C4A 7830   5.834  26.865   7.650
 3645POPC   C1B 7831   5.625  26.817   8.550
 3645POPC   C2B 7832   5.623  26.844   8.250
 3645POPC   C3B 7833   5.641  26.826   7.950
 3645POPC   C4B 7834   5.642  26.816   7.650
 3646POPC   NC3 7835  42.357  41.559   9.450
 3646POPC   PO4 7836  42.314  41.514   9.150
 3646POPC   GL1 7837  42.372  41.579   8.850
 3646POPC   GL2 7838  42.489  41.561   8.850
 3646POPC   C1A 7839  42.375  41.535   8.550
 3646POPC   D2A 7840  42.346  41.552   8.250
 3646POPC   C3A 7841  42.313  41.557   7.950
 3646POPC   C4A 7842  42.353  41.556   7.650
 3646POPC   C1B 7843  42.589  41.539   8.550
 3646POPC   C2B 7844  42.549  41.548   8.250
 3646POPC   C3B 7845  42.570  41.531   7.950
 3646POPC   C4B 7846  42.607  41.626   7.650
 3647POPC   NC3 7847  13.604   1.185   9.450
 3647POPC   PO4 7848  13.601   1.213   9.150
 3647POPC   GL1 7849  13.643   1.174   8.850
 3647POPC   GL2 7850  13.784   1.215   8.850
 3647POPC   C1A 7851  13.643   1.180   8.550
 3647POPC   D2A 7852  13.632   1.205   8.250
 3647POPC   C3A 7853  13.659   1.171   7.950
 3647POPC   C4A 7854  13.618   1.166   7.650
 3647POPC   C1B 7855  13.822   1.125   8.550
 3647POPC   C2B 7856  13.831   1.128   8.250
 3647POPC   C3B 7857  13.857   1.181   7.950
 3647POPC   C4B 7858  13.868   1.149   7.650
 3648POPC   NC3 7859  34.596  24.528   9.450
 3648POPC   PO4 7860  34.619  24.457   9.150
 3648POPC   GL1 7861  34.540  24.452   8.850
 3648POPC   GL2 7862  34.692  24.493   8.850
 3648POPC   C1A 7863  34.616  24.494   8.550
 3648POPC   D2A 7864  34.617  24.513   8.250
 3648POPC   C3A 7865  34.622  24.523   7.950
 3648POPC   C4A 7866  34.561  24.490   7.650
 3648POPC   C1B 7867  34.798  24.552   8.550
 3648POPC   C2B 7868  34.856  24.510   8.250
 3648POPC   C3B 7869  34.870  24.539   7.950
 3648POPC   C4B 7870  34.840  24.554   7.650
 3649POPC   NC3 7871  29.931  17.531   9.450
 3649POPC   PO4 7872  29.911  17.524   9.150
 3649POPC   GL1 7873  29.958  17.501   8.850
 3649POPC   GL2 7874  30.023  17.567   8.850
 3649POPC   C1A 7875  29.959  17.480   8.550
 3649POPC   D2A 7876  29.951  17.473   8.250
 3649POPC   C3A 7877  29.894  17.517   7.950
 3649POPC   C4A 7878  29.966  17.467   7.650
 3649POPC   C1B 7879  30.062  17.741   8.550
 3649POPC   C2B 7880  30.098  17.688   8.250
 3649POPC   C3B 7881  30.040  17.732   7.950
 3649POPC   C4B 7882  30.058  17.720   7.650
 3650POPC   NC3 7883  31.474  20.577   9.450
 3650POPC   PO4 7884  31.490  20.588   9.150
 3650POPC   GL1 7885  31.507  20.561   8.850
 3650POPC   GL2 7886  31.379  20.642   8.850
 3650POPC   C1A 7887  31.456  20.590   8.550
 3650POPC   D2A 7888  31.437  20.597   8.250
 3650POPC   C3A 7889  31.452  20.658   7.950
 3650POPC   C4A 7890  31.479  20.612   7.650
 3650POPC   C1B 7891  31.190  20.567   8.550
 3650POPC   C2B 7892  31.225  20.586   8.250
 3650POPC   C3B 7893  31.238  20.584   7.950
 3650POPC   C4B 7894  31.184  20.611   7.650
 3651POPC   NC3 7895  11.320   3.532   9.450
 3651POPC   PO4 7896  11.320   3.532   9.150
 3651POPC   GL1 7897  11.330   3.581   8.850
 3651POPC   GL2 7898  11.428   3.575   8.850
 3651POPC   C1A 7899  11.280   3.532   8.550
 3651POPC   D2A 7900  11.253   3.519   8.250
 3651POPC   C3A 7901  11.255   3.570   7.950
 3651POPC   C4A 7902  11.270   3.572   7.650
 3651POPC   C1B 7903  11.578   3.599   8.550
 3651POPC   C2B 7904  11.552   3.552   8.250
 3651POPC   C3B 7905  11.552   3.576   7.950
 3651POPC   C4B 7906  11.521   3.534   7.650
 3652POPC   NC3 7907  19.059   1.174   9.450
 3652POPC   PO4 7908  19.098   1.189   9.150
 3652POPC   GL1 7909  19.023   1.249   8.850
 3652POPC   GL2 7910  19.131   1.271   8.850
 3652POPC   C1A 7911  19.021   1.205   8.550
 3652POPC   D2A 7912  19.077   1.261   8.250
 3652POPC   C3A 7913  19.082   1.204   7.950
 3652POPC   C4A 7914  19.102   1.212   7.650
 3652POPC   C1B 7915  19.247   1.285   8.550
 3652POPC   C2B 7916  19.278   1.267   8.250
 3652POPC   C3B 7917  19.260   1.256   7.950
 3652POPC   C4B 7918  19.275   1.302   7.650
 3653POPC   NC3 7919  25.258  33.765   9.450
 3653POPC   PO4 7920  25.216  33.822   9.150
 3653POPC   GL1 7921  25.239  33.823   8.850
 3653POPC   GL2 7922  25.199  33.933   8.850
 3653POPC   C1A 7923  25.285  33.766   8.550
 3653POPC   D2A 7924  25.239  33.817   8.250
 3653POPC   C3A 7925  25.263  33.826   7.950
 3653POPC   C4A 7926  25.225  33.805   7.650
 3653POPC   C1B 7927  25.225  34.067   8.550
 3653POPC   C2B 7928  25.243  34.047   8.250
 3653POPC   C3B 7929  25.250  34.047   7.950
 3653POPC   C4B 7930  25.253  34.065   7.650
 3654POPC   NC3 7931  23.687  29.123   9.450
 3654POPC   PO4 7932  23.758  29.173   9.150
 3654POPC   GL1 7933  23.739  29.151   8.850
 3654POPC   GL2 7934  23.844  29.250   8.850
 3654POPC   C1A 7935  23.724  29.191   8.550
 3654POPC   D2A 7936  23.692  29.151   8.250
 3654POPC   C3A 7937  23.710  29.163   7.950
 3654POPC   C4A 7938  23.711  29.129   7.650
 3654POPC   C1B 7939  23.911  29.316   8.550
 3654POPC   C2B 7940  23.865  29.317   8.250
 3654POPC   C3B 7941  23.879  29.326   7.950
 3654POPC   C4B 7942  23.876  29.348   7.650
 3655POPC   NC3 7943  33.836  15.992   9.450
 3655POPC   PO4 7944  33.768  15.969   9.150
 3655POPC   GL1 7945  33.758  15.920   8.850
 3655POPC   GL2 7946  33.923  16.006   8.850
 3655POPC   C1A 7947  33.831  15.953   8.550
 3655POPC   D2A 7948  33.771  16.004   8.250
 3655POPC   C3A 7949  33.844  15.906   7.950
 3655POPC   C4A 7950  33.760  15.942   7.650
 3655POPC   C1B 7951  34.031  16.083   8.550
 3655POPC   C2B 7952  34.031  16.135   8.250
 3655POPC   C3B 7953  33.947  16.098   7.950
 3655POPC   C4B 7954  33.965  16.157   7.650
 3656POPC   NC3 7955  31.493   5.096   9.450
 3656POPC   PO4 7956  31.513   5.074   9.150
 3656POPC   GL1 7957  31.522   5.126   8.850
 3656POPC   GL2 7958  31.559   5.179   8.850
 3656POPC   C1A 7959  31.445   5.089   8.550
 3656POPC   D2A 7960  31.429   5.121   8.250
 3656POPC   C3A 7961  31.426   5.097   7.950
 3656POPC   C4A 7962  31.433   5.097   7.650
 3656POPC   C1B 7963  31.695   5.263   8.550
 3656POPC   C2B 7964  31.632   5.241   8.250
 3656POPC   C3B 7965  31.672   5.270   7.950
 3656POPC   C4B 7966  31.703   5.186   7.650
 3657POPC   NC3 7967   2.766  26.804   9.450
 3657POPC   PO4 7968   2.807  26.784   9.150
 3657POPC   GL1 7969   2.766  26.799   8.850
 3657POPC   GL2 7970   2.908  26.802   8.850
 3657POPC   C1A 7971   2.768  26.841   8.550
 3657POPC   D2A 7972   2.717  26.796   8.250
 3657POPC   C3A 7973   2.802  26.826   7.950
 3657POPC   C4A 7974   2.776  26.824   7.650
 3657POPC   C1B 7975   3.011  26.896   8.550
 3657POPC   C2B 7976   2.977  26.836   8.250
 3657POPC   C3B 7977   3.024  26.858   7.950
 3657POPC   C4B 7978   3.004  26.822   7.650
 3658POPC   NC3 7979   5.142   5.094   9.450
 3658POPC   PO4 7980   5.128   5.101   9.150
 3658POPC   GL1 7981   5.050   5.050   8.850
 3658POPC   GL2 7982   5.135   4.930   8.850
 3658POPC   C1A 7983   5.122   5.052   8.550
 3658POPC   D2A 7984   5.056   5.081   8.250
 3658POPC   C3A 7985   5.138   5.084   7.950
 3658POPC   C4A 7986   5.080   5.138   7.650
 3658POPC   C1B 7987   5.114   4.819   8.550
 3658POPC   C2B 7988   5.120   4.824   8.250
 3658POPC   C3B 7989   5.109   4.839   7.950
 3658POPC   C4B 7990   5.170   4.870   7.650
 3659POPC   NC3 7991  15.181  27.556   9.450
 3659POPC   PO4 7992  15.168  27.595   9.150
 3659POPC   GL1 7993  15.147  27.564   8.850
 3659POPC   GL2 7994  15.281  27.470   8.850
 3659POPC   C1A 7995  15.182  27.642   8.550
 3659POPC   D2A 7996  15.144  27.567   8.250
 3659POPC   C3A 7997  15.181  27.605   7.950
 3659POPC   C4A 7998  15.210  27.605   7.650
 3659POPC   C1B 7999  15.397  27.411   8.550
 3659POPC   C2B 8000  15.351  27.388   8.250
 3659POPC   C3B 8001  15.323  27.394   7.950
 3659POPC   C4B 8002  15.369  27.424   7.650
 3660POPC   NC3 8003  30.713  39.214   9.450
 3660POPC   PO4 8004  30.667  39.182   9.150
 3660POPC   GL1 8005  30.696  39.192   8.850
 3660POPC   GL2 8006  30.637  39.311   8.850
 3660POPC   C1A 8007  30.694  39.186   8.550
 3660POPC   D2A 8008  30.724  39.274   8.250
 3660POPC   C3A 8009  30.735  39.270   7.950
 3660POPC   C4A 8010  30.742  39.229   7.650
 3660POPC   C1B 8011  30.643  39.489   8.550
 3660POPC   C2B 8012  30.587  39.416   8.250
 3660POPC   C3B 8013  30.603  39.456   7.950
 3660POPC   C4B 8014  30.568  39.444   7.650
 3661POPC   NC3 8015  16.744  20.638   9.450
 3661POPC   PO4 8016  16.751  20.565   9.150
 3661POPC   GL1 8017  16.765  20.590   8.850
 3661POPC   GL2 8018  16.817  20.717   8.850
 3661POPC   C1A 8019  16.703  20.605   8.550
 3661POPC   D2A 8020  16.766  20.591   8.250
 3661POPC   C3A 8021  16.768  20.598   7.950
 3661POPC   C4A 8022  16.724  20.631   7.650
 3661POPC   C1B 8023  16.887  20.709   8.550
 3661POPC   C2B 8024  16.955  20.707   8.250
 3661POPC   C3B 8025  16.933  20.777   7.950
 3661POPC   C4B 8026  16.897  20.783   7.650
 3662POPC   NC3 8027  39.264  23.731   9.450
 3662POPC   PO4 8028  39.201  23.713   9.150
 3662POPC   GL1 8029  39.279  23.723   8.850
 3662POPC   GL2 8030  39.131  23.602   8.850
 3662POPC   C1A 8031  39.271  23.746   8.550
 3662POPC   D2A 8032  39.194  23.681   8.250
 3662POPC   C3A 8033  39.280  23.666   7.950
 3662POPC   C4A 8034  39.254  23.712   7.650
 3662POPC   C1B 8035  39.110  23.515   8.550
 3662POPC   C2B 8036  39.132  23.487   8.250
 3662POPC   C3B 8037  39.134  23.539   7.950
 3662POPC   C4B 8038  39.115  23.520   7.650
 3663POPC   NC3 8039  34.570  21.367   9.450
 3663POPC   PO4 8040  34.582  21.352   9.150
 3663POPC   GL1 8041  34.544  21.347   8.850
 3663POPC   GL2 8042  34.512  21.297   8.850
 3663POPC   C1A 8043  34.584  21.432   8.550
 3663POPC   D2A 8044  34.529  21.359   8.250
 3663POPC   C3A 8045  34.577  21.374   7.950
 3663POPC   C4A 8046  34.528  21.430   7.650
 3663POPC   C1B 8047  34.442  21.198   8.550
 3663POPC   C2B 8048  34.474  21.188   8.250
 3663POPC   C3B 8049  34.455  21.174   7.950
 3663POPC   C4B 8050  34.422  21.223   7.650
 3664POPC   NC3 8051  27.548  40.816   9.450
 3664POPC   PO4 8052  27.641  40.780   9.150
 3664POPC   GL1 8053  27.618  40.815   8.850
 3664POPC   GL2 8054  27.433  40.769   8.850
 3664POPC   C1A 8055  27.581  40.749   8.550
 3664POPC   D2A 8056  27.544  40.816   8.250
 3664POPC   C3A 8057  27.592  40.741   7.950
 3664POPC   C4A 8058  27.545  40.745   7.650
 3664POPC   C1B 8059  27.313  40.754   8.550
 3664POPC   C2B 8060  27.311  40.734   8.250
 3664POPC   C3B 8061  27.315  40.764   7.950
 3664POPC   C4B 8062  27.350  40.735   7.650
 3665POPC   NC3 8063  25.261   5.108   9.450
 3665POPC   PO4 8064  25.237   5.084   9.150
 3665POPC   GL1 8065  25.271   5.066   8.850
 3665POPC   GL2 8066  25.270   4.963   8.850
 3665POPC   C1A 8067  25.241   5.126   8.550
 3665POPC   D2A 8068  25.314   5.062   8.250
 3665POPC   C3A 8069  25.303   5.120   7.950
 3665POPC   C4A 8070  25.220   5.059   7.650
 3665POPC   C1B 8071  25.369   4.906   8.550
 3665POPC   C2B 8072  25.316   4.852   8.250
 3665POPC   C3B 8073  25.404   4.891   7.950
 3665POPC   C4B 8074  25.331   4.903   7.650
 3666POPC   NC3 8075   1.182  29.100   9.450
 3666POPC   PO4 8076   1.258  29.121   9.150
 3666POPC   GL1 8077   1.233  29.109   8.850
 3666POPC   GL2 8078   1.089  29.089   8.850
 3666POPC   C1A 8079   1.176  29.173   8.550
 3666POPC   D2A 8080   1.226  29.151   8.250
 3666POPC   C3A 8081   1.235  29.141   7.950
 3666POPC   C4A 8082   1.208  29.118   7.650
 3666POPC   C1B 8083   0.934  29.135   8.550
 3666POPC   C2B 8084   1.008  29.152   8.250
 3666POPC   C3B 8085   0.992  29.172   7.950
 3666POPC   C4B 8086   0.998  29.112   7.650
 3667POPC   NC3 8087  22.185   1.983   9.450
 3667POPC   PO4 8088  22.188   1.970   9.150
 3667POPC   GL1 8089  22.151   1.953   8.850
 3667POPC   GL2 8090  22.251   1.978   8.850
 3667POPC   C1A 8091  22.143   1.987   8.550
 3667POPC   D2A 8092  22.154   2.004   8.250
 3667POPC   C3A 8093  22.123   2.022   7.950
 3667POPC   C4A 8094  22.117   1.979   7.650
 3667POPC   C1B 8095  22.438   1.953   8.550
 3667POPC   C2B 8096  22.401   1.970   8.250
 3667POPC   C3B 8097  22.414   1.984   7.950
 3667POPC   C4B 8098  22.397   2.009   7.650
 3668POPC   NC3 8099  41.516   3.580   9.450
 3668POPC   PO4 8100  41.539   3.514   9.150
 3668POPC   GL1 8101  41.591   3.503   8.850
 3668POPC   GL2 8102  41.654   3.425   8.850
 3668POPC   C1A 8103  41.556   3.586   8.550
 3668POPC   D2A 8104  41.524   3.515   8.250
 3668POPC   C3A 8105  41.516   3.502   7.950
 3668POPC   C4A 8106  41.542   3.586   7.650
 3668POPC   C1B 8107  41.625   3.340   8.550
 3668POPC   C2B 8108  41.685   3.325   8.250
 3668POPC   C3B 8109  41.632   3.270   7.950
 3668POPC   C4B 8110  41.703   3.290   7.650
 3669POPC   NC3 8111   6.646  23.728   9.450
 3669POPC   PO4 8112   6.668  23.680   9.150
 3669POPC   GL1 8113   6.626  23.674   8.850
 3669POPC   GL2 8114   6.596  23.780   8.850
 3669POPC   C1A 8115   6.607  23.671   8.550
 3669POPC   D2A 8116   6.605  23.674   8.250
 3669POPC   C3A 8117   6.633  23.738   7.950
 3669POPC   C4A 8118   6.656  23.688   7.650
 3669POPC   C1B 8119   6.505  23.950   8.550
 3669POPC   C2B 8120   6.493  23.911   8.250
 3669POPC   C3B 8121   6.578  23.966   7.950
 3669POPC   C4B 8122   6.485  23.971   7.650
 3670POPC   NC3 8123   5.914  40.052   9.450
 3670POPC   PO4 8124   5.873  40.052   9.150
 3670POPC   GL1 8125   5.827  40.036   8.850
 3670POPC   GL2 8126   5.802  39.919   8.850
 3670POPC   C1A 8127   5.897  40.021   8.550
 3670POPC   D2A 8128   5.855  39.974   8.250
 3670POPC   C3A 8129   5.909  40.037   7.950
 3670POPC   C4A 8130   5.857  39.975   7.650
 3670POPC   C1B 8131   5.788  39.807   8.550
 3670POPC   C2B 8132   5.770  39.793   8.250
 3670POPC   C3B 8133   5.772  39.792   7.950
 3670POPC   C4B 8134   5.766  39.773   7.650
 3671POPC   NC3 8135  43.157   5.915   9.450
 3671POPC   PO4 8136  43.076   5.883   9.150
 3671POPC   GL1 8137  43.158   5.859   8.850
 3671POPC   GL2 8138  43.068   5.963   8.850
 3671POPC   C1A 8139  43.081   5.863   8.550
 3671POPC   D2A 8140  43.066   5.832   8.250
 3671POPC   C3A 8141  43.083   5.878   7.950
 3671POPC   C4A 8142  43.095   5.823   7.650
 3671POPC   C1B 8143  42.928   6.042   8.550
 3671POPC   C2B 8144  42.949   6.052   8.250
 3671POPC   C3B 8145  42.971   6.068   7.950
 3671POPC   C4B 8146  42.973   6.092   7.650
 3672POPC   NC3 8147   3.584  36.912   9.450
 3672POPC   PO4 8148   3.519  36.940   9.150
 3672POPC   GL1 8149   3.567  36.879   8.850
 3672POPC   GL2 8150   3.464  36.900   8.850
 3672POPC   C1A 8151   3.513  36.900   8.550
 3672POPC   D2A 8152   3.504  36.925   8.250
 3672POPC   C3A 8153   3.551  36.884   7.950
 3672POPC   C4A 8154   3.499  36.942   7.650
 3672POPC   C1B 8155   3.261  36.960   8.550
 3672POPC   C2B 8156   3.330  36.954   8.250
 3672POPC   C3B 8157   3.298  36.948   7.950
 3672POPC   C4B 8158   3.262  36.952   7.650
 3673POPC   NC3 8159  29.925   9.759   9.450
 3673POPC   PO4 8160  29.951   9.788   9.150
 3673POPC   GL1 8161  29.918   9.719   8.850
 3673POPC   GL2 8162  30.024   9.792   8.850
 3673POPC   C1A 8163  29.923   9.767   8.550
 3673POPC   D2A 8164  29.970   9.711   8.250
 3673POPC   C3A 8165  29.924   9.774   7.950
 3673POPC   C4A 8166  29.875   9.702   7.650
 3673POPC   C1B 8167  30.190   9.819   8.550
 3673POPC   C2B 8168  30.118   9.848   8.250
 3673POPC   C3B 8169  30.127   9.834   7.950
 3673POPC   C4B 8170  30.159   9.873   7.650
 3674POPC   NC3 8171   8.219  25.268   9.450
 3674POPC   PO4 8172   8.235  25.217   9.150
 3674POPC   GL1 8173   8.196  25.276   8.850
 3674POPC   GL2 8174   8.304  25.299   8.850
 3674POPC   C1A 8175   8.193  25.247   8.550
 3674POPC   D2A 8176   8.172  25.260   8.250
 3674POPC   C3A 8177   8.194  25.265   7.950
 3674POPC   C4A 8178   8.172  25.236   7.650
 3674POPC   C1B 8179   8.432  25.404   8.550
 3674POPC   C2B 8180   8.415  25.438   8.250
 3674POPC   C3B 8181   8.379  25.371   7.950
 3674POPC   C4B 8182   8.436  25.418   7.650
 3675POPC   NC3 8183  12.873  15.987   9.450
 3675POPC   PO4 8184  12.808  16.001   9.150
 3675POPC   GL1 8185  12.826  15.942   8.850
 3675POPC   GL2 8186  12.763  15.805   8.850
 3675POPC   C1A 8187  12.895  15.956   8.550
 3675POPC   D2A 8188  12.880  15.932   8.250
 3675POPC   C3A 8189  12.885  15.912   7.950
 3675POPC   C4A 8190  12.889  15.970   7.650
 3675POPC   C1B 8191  12.703  15.733   8.550
 3675POPC   C2B 8192  12.791  15.744   8.250
 3675POPC   C3B 8193  12.786  15.750   7.950
 3675POPC   C4B 8194  12.783  15.780   7.650
 3676POPC   NC3 8195  24.475   4.281   9.450
 3676POPC   PO4 8196  24.445   4.353   9.150
 3676POPC   GL1 8197  24.502   4.279   8.850
 3676POPC   GL2 8198  24.605   4.332   8.850
 3676POPC   C1A 8199  24.492   4.347   8.550
 3676POPC   D2A 8200  24.508   4.294   8.250
 3676POPC   C3A 8201  24.478   4.284   7.950
 3676POPC   C4A 8202  24.461   4.332   7.650
 3676POPC   C1B 8203  24.781   4.213   8.550
 3676POPC   C2B 8204  24.729   4.241   8.250
 3676POPC   C3B 8205  24.764   4.305   7.950
 3676POPC   C4B 8206  24.736   4.293   7.650
 3677POPC   NC3 8207  19.103  40.026   9.450
 3677POPC   PO4 8208  19.019  40.021   9.150
 3677POPC   GL1 8209  19.027  39.981   8.850
 3677POPC   GL2 8210  19.213  39.940   8.850
 3677POPC   C1A 8211  19.093  40.011   8.550
 3677POPC   D2A 8212  19.028  39.964   8.250
 3677POPC   C3A 8213  19.100  40.021   7.950
 3677POPC   C4A 8214  19.012  40.023   7.650
 3677POPC   C1B 8215  19.328  39.970   8.550
 3677POPC   C2B 8216  19.280  39.942   8.250
 3677POPC   C3B 8217  19.302  39.936   7.950
 3677POPC   C4B 8218  19.277  39.890   7.650
 3678POPC   NC3 8219   5.130  13.588   9.450
 3678POPC   PO4 8220   5.054  13.629   9.150
 3678POPC   GL1 8221   5.125  13.609   8.850
 3678POPC   GL2 8222   5.012  13.527   8.850
 3678POPC   C1A 8223   5.127  13.641   8.550
 3678POPC   D2A 8224   5.093  13.673   8.250
 3678POPC   C3A 8225   5.080  13.677   7.950
 3678POPC   C4A 8226   5.049  13.586   7.650
 3678POPC   C1B 8227   4.964  13.435   8.550
 3678POPC   C2B 8228   5.012  13.437   8.250
 3678POPC   C3B 8229   5.054  13.383   7.950
 3678POPC   C4B 8230   5.047  13.403   7.650
 3679POPC   NC3 8231   3.572  39.229   9.450
 3679POPC   PO4 8232   3.513  39.227   9.150
 3679POPC   GL1 8233   3.545  39.242   8.850
 3679POPC   GL2 8234   3.460  39.284   8.850
 3679POPC   C1A 8235   3.512  39.271   8.550
 3679POPC   D2A 8236   3.544  39.263   8.250
 3679POPC   C3A 8237   3.519  39.215   7.950
 3679POPC   C4A 8238   3.506  39.242   7.650
 3679POPC   C1B 8239   3.354  39.387   8.550
 3679POPC   C2B 8240   3.319  39.386   8.250
 3679POPC   C3B 8241   3.393  39.357   7.950
 3679POPC   C4B 8242   3.388  39.352   7.650
 3680POPC   NC3 8243  37.706  32.984   9.450
 3680POPC   PO4 8244  37.684  33.040   9.150
 3680POPC   GL1 8245  37.693  32.998   8.850
 3680POPC   GL2 8246  37.553  32.936   8.850
 3680POPC   C1A 8247  37.661  33.073   8.550
 3680POPC   D2A 8248  37.684  32.976   8.250
 3680POPC   C3A 8249  37.645  32.980   7.950
 3680POPC   C4A 8250  37.664  33.006   7.650
 3680POPC   C1B 8251  37.496  32.856   8.550
 3680POPC   C2B 8252  37.524  32.849   8.250
 3680POPC   C3B 8253  37.489  32.840   7.950
 3680POPC   C4B 8254  37.491  32.864   7.650
 3681POPC   NC3 8255  13.646   2.726   9.450
 3681POPC   PO4 8256  13.588   2.764   9.150
 3681POPC   GL1 8257  13.675   2.766   8.850
 3681POPC   GL2 8258  13.587   2.855   8.850
 3681POPC   C1A 8259  13.673   2.791   8.550
 3681POPC   D2A 8260  13.579   2.801   8.250
 3681POPC   C3A 8261  13.602   2.778   7.950
 3681POPC   C4A 8262  13.670   2.795   7.650
 3681POPC   C1B 8263  13.498   2.960   8.550
 3681POPC   C2B 8264  13.499   2.956   8.250
 3681POPC   C3B 8265  13.446   2.968   7.950
 3681POPC   C4B 8266  13.523   2.999   7.650
 3682POPC   NC3 8267  37.729  16.696   9.450
 3682POPC   PO4 8268  37.637  16.715   9.150
 3682POPC   GL1 8269  37.642  16.717   8.850
 3682POPC   GL2 8270  37.644  16.654   8.850
 3682POPC   C1A 8271  37.695  16.700   8.550
 3682POPC   D2A 8272  37.652  16.739   8.250
 3682POPC   C3A 8273  37.679  16.727   7.950
 3682POPC   C4A 8274  37.711  16.701   7.650
 3682POPC   C1B 8275  37.714  16.488   8.550
 3682POPC   C2B 8276  37.702  16.528   8.250
 3682POPC   C3B 8277  37.684  16.499   7.950
 3682POPC   C4B 8278  37.688  16.443   7.650
 3683POPC   NC3 8279  33.838  13.630   9.450
 3683POPC   PO4 8280  33.832  13.637   9.150
 3683POPC   GL1 8281  33.824  13.627   8.850
 3683POPC   GL2 8282  33.878  13.572   8.850
 3683POPC   C1A 8283  33.829  13.616   8.550
 3683POPC   D2A 8284  33.837  13.610   8.250
 3683POPC   C3A 8285  33.847  13.634   7.950
 3683POPC   C4A 8286  33.769  13.600   7.650
 3683POPC   C1B 8287  33.926  13.398   8.550
 3683POPC   C2B 8288  33.902  13.373   8.250
 3683POPC   C3B 8289  33.930  13.442   7.950
 3683POPC   C4B 8290  33.933  13.440   7.650
 3684POPC   NC3 8291  36.917  28.387   9.450
 3684POPC   PO4 8292  36.907  28.325   9.150
 3684POPC   GL1 8293  36.950  28.345   8.850
 3684POPC   GL2 8294  36.925  28.238   8.850
 3684POPC   C1A 8295  36.930  28.406   8.550
 3684POPC   D2A 8296  36.912  28.321   8.250
 3684POPC   C3A 8297  36.860  28.360   7.950
 3684POPC   C4A 8298  36.896  28.400   7.650
 3684POPC   C1B 8299  36.886  28.120   8.550
 3684POPC   C2B 8300  36.884  28.112   8.250
 3684POPC   C3B 8301  36.837  28.113   7.950
 3684POPC   C4B 8302  36.837  28.075   7.650
 3685POPC   NC3 8303  31.487  12.880   9.450
 3685POPC   PO4 8304  31.486  12.832   9.150
 3685POPC   GL1 8305  31.513  12.894   8.850
 3685POPC   GL2 8306  31.507  12.729   8.850
 3685POPC   C1A 8307  31.445  12.862   8.550
 3685POPC   D2A 8308  31.439  12.824   8.250
 3685POPC   C3A 8309  31.488  12.845   7.950
 3685POPC   C4A 8310  31.436  12.877   7.650
 3685POPC   C1B 8311  31.447  12.650   8.550
 3685POPC   C2B 8312  31.499  12.560   8.250
 3685POPC   C3B 8313  31.476  12.582   7.950
 3685POPC   C4B 8314  31.527  12.569   7.650
 3686POPC   NC3 8315  32.247   4.296   9.450
 3686POPC   PO4 8316  32.258   4.275   9.150
 3686POPC   GL1 8317  32.293   4.325   8.850
 3686POPC   GL2 8318  32.396   4.326   8.850
 3686POPC   C1A 8319  32.200   4.281   8.550
 3686POPC   D2A 8320  32.267   4.292   8.250
 3686POPC   C3A 8321  32.231   4.359   7.950
 3686POPC   C4A 8322  32.234   4.288   7.650
 3686POPC   C1B 8323  32.445   4.269   8.550
 3686POPC   C2B 8324  32.499   4.280   8.250
 3686POPC   C3B 8325  32.466   4.280   7.950
 3686POPC   C4B 8326  32.494   4.202   7.650
 3687POPC   NC3 8327  36.098  43.860   9.450
 3687POPC   PO4 8328  36.091  43.848   9.150
 3687POPC   GL1 8329  36.132  43.897   8.850
 3687POPC   GL2 8330  36.296  43.938   8.850
 3687POPC   C1A 8331  36.103  43.850   8.550
 3687POPC   D2A 8332  36.078  43.860   8.250
 3687POPC   C3A 8333  36.090  43.840   7.950
 3687POPC   C4A 8334  36.138  43.864   7.650
 3687POPC   C1B 8335  36.424  43.893   8.550
 3687POPC   C2B 8336  36.412  43.878   8.250
 3687POPC   C3B 8337  36.377  43.898   7.950
 3687POPC   C4B 8338  36.366  43.892   7.650
 3688POPC   NC3 8339  12.862  29.190   9.450
 3688POPC   PO4 8340  12.836  29.157   9.150
 3688POPC   GL1 8341  12.812  29.143   8.850
 3688POPC   GL2 8342  12.842  29.004   8.850
 3688POPC   C1A 8343  12.850  29.185   8.550
 3688POPC   D2A 8344  12.830  29.103   8.250
 3688POPC   C3A 8345  12.834  29.173   7.950
 3688POPC   C4A 8346  12.863  29.170   7.650
 3688POPC   C1B 8347  12.762  28.935   8.550
 3688POPC   C2B 8348  12.802  28.888   8.250
 3688POPC   C3B 8349  12.756  28.887   7.950
 3688POPC   C4B 8350  12.789  28.896   7.650
 3689POPC   NC3 8351  29.882  39.278   9.450
 3689POPC   PO4 8352  29.893  39.266   9.150
 3689POPC   GL1 8353  29.892  39.279   8.850
 3689POPC   GL2 8354  29.929  39.088   8.850
 3689POPC   C1A 8355  29.931  39.279   8.550
 3689POPC   D2A 8356  29.888  39.281   8.250
 3689POPC   C3A 8357  29.906  39.258   7.950
 3689POPC   C4A 8358  29.873  39.267   7.650
 3689POPC   C1B 8359  30.062  39.005   8.550
 3689POPC   C2B 8360  30.011  38.957   8.250
 3689POPC   C3B 8361  30.054  39.036   7.950
 3689POPC   C4B 8362  29.988  38.981   7.650
 3690POPC   NC3 8363   5.823  12.847   9.450
 3690POPC   PO4 8364   5.908  12.890   9.150
 3690POPC   GL1 8365   5.910  12.852   8.850
 3690POPC   GL2 8366   5.846  12.936   8.850
 3690POPC   C1A 8367   5.866  12.816   8.550
 3690POPC   D2A 8368   5.835  12.876   8.250
 3690POPC   C3A 8369   5.885  12.877   7.950
 3690POPC   C4A 8370   5.919  12.889   7.650
 3690POPC   C1B 8371   5.910  13.104   8.550
 3690POPC   C2B 8372   5.828  13.098   8.250
 3690POPC   C3B 8373   5.836  13.131   7.950
 3690POPC   C4B 8374   5.823  13.113   7.650
 3691POPC   NC3 8375   8.244   5.075   9.450
 3691POPC   PO4 8376   8.154   5.070   9.150
 3691POPC   GL1 8377   8.203   5.117   8.850
 3691POPC   GL2 8378   8.319   4.990   8.850
 3691POPC   C1A 8379   8.177   5.062   8.550
 3691POPC   D2A 8380   8.225   5.045   8.250
 3691POPC   C3A 8381   8.193   5.119   7.950
 3691POPC   C4A 8382   8.208   5.121   7.650
 3691POPC   C1B 8383   8.353   4.897   8.550
 3691POPC   C2B 8384   8.367   4.864   8.250
 3691POPC   C3B 8385   8.391   4.874   7.950
 3691POPC   C4B 8386   8.392   4.859   7.650
 3692POPC   NC3 8387  31.484  36.943   9.450
 3692POPC   PO4 8388  31.428  36.874   9.150
 3692POPC   GL1 8389  31.447  36.931   8.850
 3692POPC   GL2 8390  31.573  36.940   8.850
 3692POPC   C1A 8391  31.471  36.940   8.550
 3692POPC   D2A 8392  31.465  36.873   8.250
 3692POPC   C3A 8393  31.476  36.894   7.950
 3692POPC   C4A 8394  31.512  36.879   7.650
 3692POPC   C1B 8395  31.703  36.846   8.550
 3692POPC   C2B 8396  31.746  36.913   8.250
 3692POPC   C3B 8397  31.675  36.911   7.950
 3692POPC   C4B 8398  31.724  36.866   7.650
 3693POPC   NC3 8399  39.192   5.132   9.450
 3693POPC   PO4 8400  39.244   5.079   9.150
 3693POPC   GL1 8401  39.190   5.080   8.850
 3693POPC   GL2 8402  39.253   5.228   8.850
 3693POPC   C1A 8403  39.201   5.090   8.550
 3693POPC   D2A 8404  39.276   5.071   8.250
 3693POPC   C3A 8405  39.257   5.059   7.950
 3693POPC   C4A 8406  39.251   5.061   7.650
 3693POPC   C1B 8407  39.290   5.364   8.550
 3693POPC   C2B 8408  39.240   5.345   8.250
 3693POPC   C3B 8409  39.281   5.389   7.950
 3693POPC   C4B 8410  39.260   5.318   7.650
 3694POPC   NC3 8411  15.996  26.781   9.450
 3694POPC   PO4 8412  16.001  26.853   9.150
 3694POPC   GL1 8413  15.990  26.866   8.850
 3694POPC   GL2 8414  15.800  26.738   8.850
 3694POPC   C1A 8415  15.920  26.778   8.550
 3694POPC   D2A 8416  15.936  26.844   8.250
 3694POPC   C3A 8417  15.990  26.833   7.950
 3694POPC   C4A 8418  15.908  26.814   7.650
 3694POPC   C1B 8419  15.697  26.696   8.550
 3694POPC   C2B 8420  15.721  26.723   8.250
 3694POPC   C3B 8421  15.719  26.763   7.950
 3694POPC   C4B 8422  15.691  26.737   7.650
 3695POPC   NC3 8423   5.054  12.097   9.450
 3695POPC   PO4 8424   5.132  12.099   9.150
 3695POPC   GL1 8425   5.065  12.072   8.850
 3695POPC   GL2 8426   5.217  12.066   8.850
 3695POPC   C1A 8427   5.139  12.070   8.550
 3695POPC   D2A 8428   5.080  12.122   8.250
 3695POPC   C3A 8429   5.092  12.037   7.950
 3695POPC   C4A 8430   5.116  12.077   7.650
 3695POPC   C1B 8431   5.345  12.136   8.550
 3695POPC   C2B 8432   5.366  12.080   8.250
 3695POPC   C3B 8433   5.331  12.139   7.950
 3695POPC   C4B 8434   5.347  12.052   7.650
 3696POPC   NC3 8435  36.119  18.248   9.450
 3696POPC   PO4 8436  36.116  18.273   9.150
 3696POPC   GL1 8437  36.168  18.259   8.850
 3696POPC   GL2 8438  36.258  18.345   8.850
 3696POPC   C1A 8439  36.096  18.288   8.550
 3696POPC   D2A 8440  36.168  18.291   8.250
 3696POPC   C3A 8441  36.125  18.241   7.950
 3696POPC   C4A 8442  36.166  18.261   7.650
 3696POPC   C1B 8443  36.399  18.375   8.550
 3696POPC   C2B 8444  36.368  18.382   8.250
 3696POPC   C3B 8445  36.346  18.417   7.950
 3696POPC   C4B 8446  36.381  18.352   7.650
 3697POPC   NC3 8447  23.664   7.435   9.450
 3697POPC   PO4 8448  23.698   7.464   9.150
 3697POPC   GL1 8449  23.670   7.449   8.850
 3697POPC   GL2 8450  23.755   7.312   8.850
 3697POPC   C1A 8451  23.718   7.429   8.550
 3697POPC   D2A 8452  23.677   7.434   8.250
 3697POPC   C3A 8453  23.686   7.454   7.950
 3697POPC   C4A 8454  23.702   7.415   7.650
 3697POPC   C1B 8455  23.680   7.172   8.550
 3697POPC   C2B 8456  23.726   7.124   8.250
 3697POPC   C3B 8457  23.711   7.200   7.950
 3697POPC   C4B 8458  23.747   7.143   7.650
 3698POPC   NC3 8459  15.977  19.819   9.450
 3698POPC   PO4 8460  15.931  19.845   9.150
 3698POPC   GL1 8461  15.922  19.824   8.850
 3698POPC   GL2 8462  15.883  19.923   8.850
 3698POPC   C1A 8463  15.980  19.816   8.550
 3698POPC   D2A 8464  15.919  19.870   8.250
 3698POPC   C3A 8465  15.986  19.859   7.950
 3698POPC   C4A 8466  15.961  19.850   7.650
 3698POPC   C1B 8467  15.813  20.091   8.550
 3698POPC   C2B 8468  15.834  20.070   8.250
 3698POPC   C3B 8469  15.805  20.051   7.950
 3698POPC   C4B 8470  15.846  20.060   7.650
 3699POPC   NC3 8471  27.556  30.678   9.450
 3699POPC   PO4 8472  27.640  30.737   9.150
 3699POPC   GL1 8473  27.605  30.737   8.850
 3699POPC   GL2 8474  27.421  30.681   8.850
 3699POPC   C1A 8475  27.631  30.701   8.550
 3699POPC   D2A 8476  27.635  30.740   8.250
 3699POPC   C3A 8477  27.575  30.740   7.950
 3699POPC   C4A 8478  27.579  30.658   7.650
 3699POPC   C1B 8479  27.294  30.755   8.550
 3699POPC   C2B 8480  27.296  30.669   8.250
 3699POPC   C3B 8481  27.333  30.746   7.950
 3699POPC   C4B 8482  27.340  30.687   7.650
 3700POPC   NC3 8483  43.085   1.192   9.450
 3700POPC   PO4 8484  43.118   1.236   9.150
 3700POPC   GL1 8485  43.093   1.253   8.850
 3700POPC   GL2 8486  43.221   1.349   8.850
 3700POPC   C1A 8487  43.068   1.246   8.550
 3700POPC   D2A 8488  43.147   1.217   8.250
 3700POPC   C3A 8489  43.104   1.262   7.950
 3700POPC   C4A 8490  43.124   1.263   7.650
 3700POPC   C1B 8491  43.208   1.413   8.550
 3700POPC   C2B 8492  43.212   1.452   8.250
 3700POPC   C3B 8493  43.244   1.393   7.950
 3700POPC   C4B 8494  43.278   1.427   7.650
 3701POPC   NC3 8495  20.604  36.170   9.450
 3701POPC   PO4 8496  20.564  36.106   9.150
 3701POPC   GL1 8497  20.571  36.117   8.850
 3701POPC   GL2 8498  20.449  36.163   8.850
 3701POPC   C1A 8499  20.603  36.115   8.550
 3701POPC   D2A 8500  20.638  36.146   8.250
 3701POPC   C3A 8501  20.578  36.106   7.950
 3701POPC   C4A 8502  20.612  36.153   7.650
 3701POPC   C1B 8503  20.325  36.160   8.550
 3701POPC   C2B 8504  20.322  36.156   8.250
 3701POPC   C3B 8505  20.390  36.149   7.950
 3701POPC   C4B 8506  20.341  36.147   7.650
 3702POPC   NC3 8507  19.040  21.382   9.450
 3702POPC   PO4 8508  19.036  21.406   9.150
 3702POPC   GL1 8509  19.086  21.365   8.850
 3702POPC   GL2 8510  19.180  21.495   8.850
 3702POPC   C1A 8511  19.108  21.363   8.550
 3702POPC   D2A 8512  19.093  21.392   8.250
 3702POPC   C3A 8513  19.061  21.367   7.950
 3702POPC   C4A 8514  19.055  21.401   7.650
 3702POPC   C1B 8515  19.199  21.564   8.550
 3702POPC   C2B 8516  19.272  21.542   8.250
 3702POPC   C3B 8517  19.216  21.532   7.950
 3702POPC   C4B 8518  19.226  21.607   7.650
 3703POPC   NC3 8519  35.389  36.945   9.450
 3703POPC   PO4 8520  35.355  36.881   9.150
 3703POPC   GL1 8521  35.358  36.873   8.850
 3703POPC   GL2 8522  35.493  36.870   8.850
 3703POPC   C1A 8523  35.398  36.953   8.550
 3703POPC   D2A 8524  35.358  36.953   8.250
 3703POPC   C3A 8525  35.316  36.951   7.950
 3703POPC   C4A 8526  35.317  36.914   7.650
 3703POPC   C1B 8527  35.647  36.936   8.550
 3703POPC   C2B 8528  35.607  36.902   8.250
 3703POPC   C3B 8529  35.631  36.878   7.950
 3703POPC   C4B 8530  35.575  36.896   7.650
 3704POPC   NC3 8531  33.018   9.734   9.450
 3704POPC   PO4 8532  33.064   9.730   9.150
 3704POPC   GL1 8533  33.068   9.779   8.850
 3704POPC   GL2 8534  33.073   9.641   8.850
 3704POPC   C1A 8535  32.996   9.717   8.550
 3704POPC   D2A 8536  33.028   9.789   8.250
 3704POPC   C3A 8537  33.027   9.739   7.950
 3704POPC   C4A 8538  33.065   9.759   7.650
 3704POPC   C1B 8539  33.068   9.544   8.550
 3704POPC   C2B 8540  33.078   9.521   8.250
 3704POPC   C3B 8541  33.151   9.557   7.950
 3704POPC   C4B 8542  33.090   9.524   7.650
 3705POPC   NC3 8543  39.230  20.562   9.450
 3705POPC   PO4 8544  39.272  20.651   9.150
 3705POPC   GL1 8545  39.221  20.628   8.850
 3705POPC   GL2 8546  39.195  20.678   8.850
 3705POPC   C1A 8547  39.253  20.644   8.550
 3705POPC   D2A 8548  39.191  20.596   8.250
 3705POPC   C3A 8549  39.213  20.639   7.950
 3705POPC   C4A 8550  39.203  20.584   7.650
 3705POPC   C1B 8551  39.088  20.819   8.550
 3705POPC   C2B 8552  39.129  20.844   8.250
 3705POPC   C3B 8553  39.061  20.856   7.950
 3705POPC   C4B 8554  39.149  20.864   7.650
 3706POPC   NC3 8555  39.260   9.762   9.450
 3706POPC   PO4 8556  39.232   9.748   9.150
 3706POPC   GL1 8557  39.208   9.755   8.850
 3706POPC   GL2 8558  39.327   9.847   8.850
 3706POPC   C1A 8559  39.224   9.763   8.550
 3706POPC   D2A 8560  39.270   9.764   8.250
 3706POPC   C3A 8561  39.271   9.724   7.950
 3706POPC   C4A 8562  39.234   9.715   7.650
 3706POPC   C1B 8563  39.364   9.968   8.550
 3706POPC   C2B 8564  39.438   9.946   8.250
 3706POPC   C3B 8565  39.429   9.980   7.950
 3706POPC   C4B 8566  39.410   9.988   7.650
 3707POPC   NC3 8567  44.673  30.692   9.450
 3707POPC   PO4 8568  44.712  30.691   9.150
 3707POPC   GL1 8569  44.647  30.650   8.850
 3707POPC   GL2 8570  44.670  30.534   8.850
 3707POPC   C1A 8571  44.638  30.686   8.550
 3707POPC   D2A 8572  44.691  30.672   8.250
 3707POPC   C3A 8573  44.650  30.669   7.950
 3707POPC   C4A 8574  44.703  30.648   7.650
 3707POPC   C1B 8575  44.609  30.450   8.550
 3707POPC   C2B 8576  44.637  30.429   8.250
 3707POPC   C3B 8577  44.659  30.452   7.950
 3707POPC   C4B 8578  44.651  30.424   7.650
 3708POPC   NC3 8579   1.968  16.710   9.450
 3708POPC   PO4 8580   1.988  16.695   9.150
 3708POPC   GL1 8581   1.958  16.710   8.850
 3708POPC   GL2 8582   2.089  16.810   8.850
 3708POPC   C1A 8583   1.943  16.713   8.550
 3708POPC   D2A 8584   1.948  16.747   8.250
 3708POPC   C3A 8585   2.000  16.750   7.950
 3708POPC   C4A 8586   2.033  16.768   7.650
 3708POPC   C1B 8587   2.127  16.899   8.550
 3708POPC   C2B 8588   2.191  16.940   8.250
 3708POPC   C3B 8589   2.135  16.910   7.950
 3708POPC   C4B 8590   2.130  16.868   7.650
 3709POPC   NC3 8591  12.085  34.578   9.450
 3709POPC   PO4 8592  12.037  34.618   9.150
 3709POPC   GL1 8593  12.058  34.579   8.850
 3709POPC   GL2 8594  12.136  34.676   8.850
 3709POPC   C1A 8595  12.055  34.580   8.550
 3709POPC   D2A 8596  12.050  34.547   8.250
 3709POPC   C3A 8597  12.037  34.567   7.950
 3709POPC   C4A 8598  12.071  34.592   7.650
 3709POPC   C1B 8599  12.233  34.833   8.550
 3709POPC   C2B 8600  12.166  34.768   8.250
 3709POPC   C3B 8601  12.258  34.814   7.950
 3709POPC   C4B 8602  12.202  34.742   7.650
 3710POPC   NC3 8603  21.363  41.587   9.450
 3710POPC   PO4 8604  21.410  41.572   9.150
 3710POPC   GL1 8605  21.406  41.555   8.850
 3710POPC   GL2 8606  21.359  41.406   8.850
 3710POPC   C1A 8607  21.341  41.518   8.550
 3710POPC   D2A 8608  21.366  41.595   8.250
 3710POPC   C3A 8609  21.339  41.521   7.950
 3710POPC   C4A 8610  21.358  41.564   7.650
 3710POPC   C1B 8611  21.399  41.350   8.550
 3710POPC   C2B 8612  21.459  41.357   8.250
 3710POPC   C3B 8613  21.394  41.264   7.950
 3710POPC   C4B 8614  21.409  41.304   7.650
 3711POPC   NC3 8615  34.622  38.439   9.450
 3711POPC   PO4 8616  34.605  38.481   9.150
 3711POPC   GL1 8617  34.609  38.483   8.850
 3711POPC   GL2 8618  34.600  38.345   8.850
 3711POPC   C1A 8619  34.566  38.483   8.550
 3711POPC   D2A 8620  34.567  38.475   8.250
 3711POPC   C3A 8621  34.619  38.460   7.950
 3711POPC   C4A 8622  34.556  38.490   7.650
 3711POPC   C1B 8623  34.565  38.226   8.550
 3711POPC   C2B 8624  34.574  38.223   8.250
 3711POPC   C3B 8625  34.570  38.160   7.950
 3711POPC   C4B 8626  34.521  38.224   7.650
 3712POPC   NC3 8627   4.282  21.430   9.450
 3712POPC   PO4 8628   4.311  21.352   9.150
 3712POPC   GL1 8629   4.304  21.388   8.850
 3712POPC   GL2 8630   4.147  21.406   8.850
 3712POPC   C1A 8631   4.320  21.419   8.550
 3712POPC   D2A 8632   4.279  21.393   8.250
 3712POPC   C3A 8633   4.307  21.415   7.950
 3712POPC   C4A 8634   4.308  21.430   7.650
 3712POPC   C1B 8635   4.075  21.344   8.550
 3712POPC   C2B 8636   4.050  21.342   8.250
 3712POPC   C3B 8637   4.097  21.423   7.950
 3712POPC   C4B 8638   4.050  21.393   7.650
 3713POPC   NC3 8639  17.494   5.865   9.450
 3713POPC   PO4 8640  17.538   5.875   9.150
 3713POPC   GL1 8641  17.505   5.898   8.850
 3713POPC   GL2 8642  17.447   5.980   8.850
 3713POPC   C1A 8643  17.502   5.875   8.550
 3713POPC   D2A 8644  17.500   5.885   8.250
 3713POPC   C3A 8645  17.501   5.844   7.950
 3713POPC   C4A 8646  17.491   5.910   7.650
 3713POPC   C1B 8647  17.347   6.105   8.550
 3713POPC   C2B 8648  17.307   6.038   8.250
 3713POPC   C3B 8649  17.311   6.039   7.950
 3713POPC   C4B 8650  17.313   6.109   7.650
 3714POPC   NC3 8651   5.901  29.892   9.450
 3714POPC   PO4 8652   5.902  29.939   9.150
 3714POPC   GL1 8653   5.883  29.874   8.850
 3714POPC   GL2 8654   5.787  29.787   8.850
 3714POPC   C1A 8655   5.888  29.902   8.550
 3714POPC   D2A 8656   5.865  29.958   8.250
 3714POPC   C3A 8657   5.898  29.937   7.950
 3714POPC   C4A 8658   5.895  29.928   7.650
 3714POPC   C1B 8659   5.791  29.683   8.550
 3714POPC   C2B 8660   5.768  29.732   8.250
 3714POPC   C3B 8661   5.759  29.735   7.950
 3714POPC   C4B 8662   5.750  29.665   7.650
 3715POPC   NC3 8663  18.234  11.336   9.450
 3715POPC   PO4 8664  18.276  11.279   9.150
 3715POPC   GL1 8665  18.306  11.349   8.850
 3715POPC   GL2 8666  18.154  11.305   8.850
 3715POPC   C1A 8667  18.282  11.293   8.550
 3715POPC   D2A 8668  18.330  11.299   8.250
 3715POPC   C3A 8669  18.258  11.315   7.950
 3715POPC   C4A 8670  18.311  11.306   7.650
 3715POPC   C1B 8671  18.041  11.440   8.550
 3715POPC   C2B 8672  18.069  11.381   8.250
 3715POPC   C3B 8673  18.079  11.394   7.950
 3715POPC   C4B 8674  18.062  11.424   7.650
 3716POPC   NC3 8675  29.161  24.482   9.450
 3716POPC   PO4 8676  29.123  24.442   9.150
 3716POPC   GL1 8677  29.096  24.486   8.850
 3716POPC   GL2 8678  29.222  24.415   8.850
 3716POPC   C1A 8679  29.183  24.509   8.550
 3716POPC   D2A 8680  29.123  24.515   8.250
 3716POPC   C3A 8681  29.120  24.457   7.950
 3716POPC   C4A 8682  29.194  24.446   7.650
 3716POPC   C1B 8683  29.329  24.309   8.550
 3716POPC   C2B 8684  29.301  24.326   8.250
 3716POPC   C3B 8685  29.266  24.288   7.950
 3716POPC   C4B 8686  29.275  24.299   7.650
 3717POPC   NC3 8687   0.487  42.365   9.450
 3717POPC   PO4 8688   0.450  42.326   9.150
 3717POPC   GL1 8689   0.401  42.299   8.850
 3717POPC   GL2 8690   0.495  42.230   8.850
 3717POPC   C1A 8691   0.404  42.324   8.550
 3717POPC   D2A 8692   0.407  42.375   8.250
 3717POPC   C3A 8693   0.438  42.381   7.950
 3717POPC   C4A 8694   0.483  42.368   7.650
 3717POPC   C1B 8695   0.600  42.149   8.550
 3717POPC   C2B 8696   0.513  42.093   8.250
 3717POPC   C3B 8697   0.582  42.068   7.950
 3717POPC   C4B 8698   0.544  42.133   7.650
 3718POPC   NC3 8699  40.825  40.000   9.450
 3718POPC   PO4 8700  40.740  40.000   9.150
 3718POPC   GL1 8701  40.741  40.027   8.850
 3718POPC   GL2 8702  40.885  40.095   8.850
 3718POPC   C1A 8703  40.803  40.054   8.550
 3718POPC   D2A 8704  40.814  39.972   8.250
 3718POPC   C3A 8705  40.761  40.038   7.950
 3718POPC   C4A 8706  40.820  39.975   7.650
 3718POPC   C1B 8707  41.007  40.151   8.550
 3718POPC   C2B 8708  40.991  40.117   8.250
 3718POPC   C3B 8709  41.005  40.120   7.950
 3718POPC   C4B 8710  40.973  40.122   7.650
 3719POPC   NC3 8711  36.859  18.300   9.450
 3719POPC   PO4 8712  36.939  18.288   9.150
 3719POPC   GL1 8713  36.906  18.245   8.850
 3719POPC   GL2 8714  37.070  18.251   8.850
 3719POPC   C1A 8715  36.857  18.244   8.550
 3719POPC   D2A 8716  36.915  18.279   8.250
 3719POPC   C3A 8717  36.860  18.289   7.950
 3719POPC   C4A 8718  36.918  18.244   7.650
 3719POPC   C1B 8719  37.115  18.250   8.550
 3719POPC   C2B 8720  37.187  18.199   8.250
 3719POPC   C3B 8721  37.190  18.248   7.950
 3719POPC   C4B 8722  37.163  18.211   7.650
 3720POPC   NC3 8723  10.528  41.543   9.450
 3720POPC   PO4 8724  10.541  41.565   9.150
 3720POPC   GL1 8725  10.497  41.518   8.850
 3720POPC   GL2 8726  10.604  41.546   8.850
 3720POPC   C1A 8727  10.490  41.602   8.550
 3720POPC   D2A 8728  10.553  41.604   8.250
 3720POPC   C3A 8729  10.484  41.519   7.950
 3720POPC   C4A 8730  10.570  41.537   7.650
 3720POPC   C1B 8731  10.770  41.563   8.550
 3720POPC   C2B 8732  10.793  41.543   8.250
 3720POPC   C3B 8733  10.799  41.484   7.950
 3720POPC   C4B 8734  10.742  41.510   7.650
 3721POPC   NC3 8735   9.787   5.099   9.450
 3721POPC   PO4 8736   9.798   5.070   9.150
 3721POPC   GL1 8737   9.704   5.118   8.850
 3721POPC   GL2 8738   9.831   5.058   8.850
 3721POPC   C1A 8739   9.740   5.116   8.550
 3721POPC   D2A 8740   9.731   5.108   8.250
 3721POPC   C3A 8741   9.795   5.125   7.950
 3721POPC   C4A 8742   9.771   5.096   7.650
 3721POPC   C1B 8743   9.908   4.980   8.550
 3721POPC   C2B 8744  10.005   4.905   8.250
 3721POPC   C3B 8745  10.004   4.915   7.950
 3721POPC   C4B 8746   9.958   4.943   7.650
 3722POPC   NC3 8747  30.650  35.311   9.450
 3722POPC   PO4 8748  30.671  35.358   9.150
 3722POPC   GL1 8749  30.675  35.312   8.850
 3722POPC   GL2 8750  30.552  35.359   8.850
 3722POPC   C1A 8751  30.693  35.303   8.550
 3722POPC   D2A 8752  30.675  35.333   8.250
 3722POPC   C3A 8753  30.690  35.311   7.950
 3722POPC   C4A 8754  30.688  35.387   7.650
 3722POPC   C1B 8755  30.437  35.297   8.550
 3722POPC   C2B 8756  30.463  35.255   8.250
 3722POPC   C3B 8757  30.418  35.233   7.950
 3722POPC   C4B 8758  30.428  35.283   7.650
 3723POPC   NC3 8759  39.201  34.549   9.450
 3723POPC   PO4 8760  39.276  34.544   9.150
 3723POPC   GL1 8761  39.224  34.540   8.850
 3723POPC   GL2 8762  39.336  34.511   8.850
 3723POPC   C1A 8763  39.223  34.542   8.550
 3723POPC   D2A 8764  39.218  34.577   8.250
 3723POPC   C3A 8765  39.206  34.604   7.950
 3723POPC   C4A 8766  39.231  34.611   7.650
 3723POPC   C1B 8767  39.432  34.542   8.550
 3723POPC   C2B 8768  39.501  34.558   8.250
 3723POPC   C3B 8769  39.451  34.499   7.950
 3723POPC   C4B 8770  39.469  34.494   7.650
 3724POPC   NC3 8771  39.235  42.357   9.450
 3724POPC   PO4 8772  39.196  42.289   9.150
 3724POPC   GL1 8773  39.226  42.286   8.850
 3724POPC   GL2 8774  39.346  42.201   8.850
 3724POPC   C1A 8775  39.198  42.359   8.550
 3724POPC   D2A 8776  39.217  42.362   8.250
 3724POPC   C3A 8777  39.217  42.289   7.950
 3724POPC   C4A 8778  39.252  42.312   7.650
 3724POPC   C1B 8779  39.365  42.151   8.550
 3724POPC   C2B 8780  39.436  42.197   8.250
 3724POPC   C3B 8781  39.373  42.146   7.950
 3724POPC   C4B 8782  39.449  42.133   7.650
 3725POPC   NC3 8783   9.012   5.853   9.450
 3725POPC   PO4 8784   8.949   5.902   9.150
 3725POPC   GL1 8785   8.934   5.829   8.850
 3725POPC   GL2 8786   8.937   5.793   8.850
 3725POPC   C1A 8787   8.962   5.912   8.550
 3725POPC   D2A 8788   9.007   5.862   8.250
 3725POPC   C3A 8789   8.994   5.835   7.950
 3725POPC   C4A 8790   8.926   5.900   7.650
 3725POPC   C1B 8791   8.805   5.684   8.550
 3725POPC   C2B 8792   8.857   5.654   8.250
 3725POPC   C3B 8793   8.849   5.667   7.950
 3725POPC   C4B 8794   8.774   5.724   7.650
 3726POPC   NC3 8795  25.232  38.446   9.450
 3726POPC   PO4 8796  25.252  38.430   9.150
 3726POPC   GL1 8797  25.277  38.418   8.850
 3726POPC   GL2 8798  25.169  38.473   8.850
 3726POPC   C1A 8799  25.272  38.496   8.550
 3726POPC   D2A 8800  25.216  38.428   8.250
 3726POPC   C3A 8801  25.259  38.448   7.950
 3726POPC   C4A 8802  25.263  38.425   7.650
 3726POPC   C1B 8803  24.978  38.364   8.550
 3726POPC   C2B 8804  25.065  38.460   8.250
 3726POPC   C3B 8805  24.974  38.418   7.950
 3726POPC   C4B 8806  25.066  38.445   7.650
 3727POPC   NC3 8807  22.972  32.982   9.450
 3727POPC   PO4 8808  22.987  33.008   9.150
 3727POPC   GL1 8809  22.984  33.016   8.850
 3727POPC   GL2 8810  22.993  33.123   8.850
 3727POPC   C1A 8811  22.902  33.004   8.550
 3727POPC   D2A 8812  22.899  33.013   8.250
 3727POPC   C3A 8813  22.939  32.976   7.950
 3727POPC   C4A 8814  22.952  32.993   7.650
 3727POPC   C1B 8815  22.982  33.261   8.550
 3727POPC   C2B 8816  22.952  33.294   8.250
 3727POPC   C3B 8817  22.994  33.278   7.950
 3727POPC   C4B 8818  22.920  33.292   7.650
 3728POPC   NC3 8819   9.007   2.791   9.450
 3728POPC   PO4 8820   9.004   2.766   9.150
 3728POPC   GL1 8821   8.924   2.730   8.850
 3728POPC   GL2 8822   9.043   2.885   8.850
 3728POPC   C1A 8823   8.930   2.772   8.550
 3728POPC   D2A 8824   8.959   2.777   8.250
 3728POPC   C3A 8825   8.999   2.752   7.950
 3728POPC   C4A 8826   9.019   2.775   7.650
 3728POPC   C1B 8827   9.180   2.913   8.550
 3728POPC   C2B 8828   9.158   2.923   8.250
 3728POPC   C3B 8829   9.181   2.954   7.950
 3728POPC   C4B 8830   9.133   2.954   7.650
 3729POPC   NC3 8831  12.037   5.140   9.450
 3729POPC   PO4 8832  12.124   5.125   9.150
 3729POPC   GL1 8833  12.120   5.104   8.850
 3729POPC   GL2 8834  12.085   4.935   8.850
 3729POPC   C1A 8835  12.110   5.115   8.550
 3729POPC   D2A 8836  12.051   5.119   8.250
 3729POPC   C3A 8837  12.078   5.074   7.950
 3729POPC   C4A 8838  12.065   5.097   7.650
 3729POPC   C1B 8839  12.124   4.867   8.550
 3729POPC   C2B 8840  12.082   4.822   8.250
 3729POPC   C3B 8841  12.111   4.886   7.950
 3729POPC   C4B 8842  12.105   4.813   7.650
 3730POPC   NC3 8843  33.770  10.537   9.450
 3730POPC   PO4 8844  33.820  10.572   9.150
 3730POPC   GL1 8845  33.813  10.489   8.850
 3730POPC   GL2 8846  33.735  10.478   8.850
 3730POPC   C1A 8847  33.839  10.509   8.550
 3730POPC   D2A 8848  33.816  10.490   8.250
 3730POPC   C3A 8849  33.816  10.531   7.950
 3730POPC   C4A 8850  33.818  10.526   7.650
 3730POPC   C1B 8851  33.646  10.385   8.550
 3730POPC   C2B 8852  33.643  10.352   8.250
 3730POPC   C3B 8853  33.671  10.308   7.950
 3730POPC   C4B 8854  33.594  10.376   7.650
 3731POPC   NC3 8855  17.481  26.778   9.450
 3731POPC   PO4 8856  17.542  26.805   9.150
 3731POPC   GL1 8857  17.462  26.772   8.850
 3731POPC   GL2 8858  17.414  26.903   8.850
 3731POPC   C1A 8859  17.548  26.831   8.550
 3731POPC   D2A 8860  17.468  26.785   8.250
 3731POPC   C3A 8861  17.491  26.865   7.950
 3731POPC   C4A 8862  17.553  26.823   7.650
 3731POPC   C1B 8863  17.244  26.875   8.550
 3731POPC   C2B 8864  17.322  26.948   8.250
 3731POPC   C3B 8865  17.314  26.945   7.950
 3731POPC   C4B 8866  17.290  26.922   7.650
 3732POPC   NC3 8867  16.739  29.123   9.450
 3732POPC   PO4 8868  16.767  29.193   9.150
 3732POPC   GL1 8869  16.768  29.157   8.850
 3732POPC   GL2 8870  16.735  28.978   8.850
 3732POPC   C1A 8871  16.708  29.187   8.550
 3732POPC   D2A 8872  16.716  29.150   8.250
 3732POPC   C3A 8873  16.711  29.158   7.950
 3732POPC   C4A 8874  16.777  29.097   7.650
 3732POPC   C1B 8875  16.623  28.883   8.550
 3732POPC   C2B 8876  16.663  28.927   8.250
 3732POPC   C3B 8877  16.691  28.871   7.950
 3732POPC   C4B 8878  16.642  28.859   7.650
 3733POPC   NC3 8879  19.866  26.817   9.450
 3733POPC   PO4 8880  19.856  26.825   9.150
 3733POPC   GL1 8881  19.833  26.826   8.850
 3733POPC   GL2 8882  19.838  26.662   8.850
 3733POPC   C1A 8883  19.786  26.788   8.550
 3733POPC   D2A 8884  19.859  26.797   8.250
 3733POPC   C3A 8885  19.801  26.785   7.950
 3733POPC   C4A 8886  19.855  26.771   7.650
 3733POPC   C1B 8887  19.790  26.553   8.550
 3733POPC   C2B 8888  19.847  26.578   8.250
 3733POPC   C3B 8889  19.840  26.561   7.950
 3733POPC   C4B 8890  19.781  26.596   7.650
 3734POPC   NC3 8891  18.328  38.480   9.450
 3734POPC   PO4 8892  18.287  38.501   9.150
 3734POPC   GL1 8893  18.270  38.454   8.850
 3734POPC   GL2 8894  18.425  38.450   8.850
 3734POPC   C1A 8895  18.285  38.457   8.550
 3734POPC   D2A 8896  18.296  38.496   8.250
 3734POPC   C3A 8897  18.296  38.439   7.950
 3734POPC   C4A 8898  18.319  38.495   7.650
 3734POPC   C1B 8899  18.576  38.451   8.550
 3734POPC   C2B 8900  18.564  38.439   8.250
 3734POPC   C3B 8901  18.508  38.439   7.950
 3734POPC   C4B 8902  18.531  38.434   7.650
 3735POPC   NC3 8903  15.977   6.632   9.450
 3735POPC   PO4 8904  15.996   6.659   9.150
 3735POPC   GL1 8905  15.949   6.694   8.850
 3735POPC   GL2 8906  16.081   6.765   8.850
 3735POPC   C1A 8907  15.965   6.599   8.550
 3735POPC   D2A 8908  15.949   6.694   8.250
 3735POPC   C3A 8909  15.921   6.648   7.950
 3735POPC   C4A 8910  15.962   6.677   7.650
 3735POPC   C1B 8911  16.092   6.800   8.550
 3735POPC   C2B 8912  16.076   6.851   8.250
 3735POPC   C3B 8913  16.170   6.804   7.950
 3735POPC   C4B 8914  16.164   6.782   7.650
 3736POPC   NC3 8915   4.342  35.358   9.450
 3736POPC   PO4 8916   4.360  35.348   9.150
 3736POPC   GL1 8917   4.359  35.379   8.850
 3736POPC   GL2 8918   4.415  35.277   8.850
 3736POPC   C1A 8919   4.290  35.333   8.550
 3736POPC   D2A 8920   4.360  35.325   8.250
 3736POPC   C3A 8921   4.336  35.380   7.950
 3736POPC   C4A 8922   4.346  35.400   7.650
 3736POPC   C1B 8923   4.474  35.222   8.550
 3736POPC   C2B 8924   4.533  35.181   8.250
 3736POPC   C3B 8925   4.462  35.188   7.950
 3736POPC   C4B 8926   4.478  35.225   7.650
 3737POPC   NC3 8927  43.877  18.290   9.450
 3737POPC   PO4 8928  43.841  18.317   9.150
 3737POPC   GL1 8929  43.934  18.302   8.850
 3737POPC   GL2 8930  43.757  18.238   8.850
 3737POPC   C1A 8931  43.917  18.329   8.550
 3737POPC   D2A 8932  43.902  18.321   8.250
 3737POPC   C3A 8933  43.919  18.256   7.950
 3737POPC   C4A 8934  43.859  18.250   7.650
 3737POPC   C1B 8935  43.664  18.276   8.550
 3737POPC   C2B 8936  43.616  18.246   8.250
 3737POPC   C3B 8937  43.683  18.223   7.950
 3737POPC   C4B 8938  43.685  18.260   7.650
 3738POPC   NC3 8939   1.242  26.069   9.450
 3738POPC   PO4 8940   1.227  26.038   9.150
 3738POPC   GL1 8941   1.173  26.033   8.850
 3738POPC   GL2 8942   1.141  26.030   8.850
 3738POPC   C1A 8943   1.170  26.008   8.550
 3738POPC   D2A 8944   1.253  26.035   8.250
 3738POPC   C3A 8945   1.200  26.025   7.950
 3738POPC   C4A 8946   1.203  26.012   7.650
 3738POPC   C1B 8947   0.925  25.930   8.550
 3738POPC   C2B 8948   0.977  25.982   8.250
 3738POPC   C3B 8949   1.006  25.986   7.950
 3738POPC   C4B 8950   0.960  25.974   7.650
 3739POPC   NC3 8951   1.200   9.744   9.450
 3739POPC   PO4 8952   1.239   9.779   9.150
 3739POPC   GL1 8953   1.192   9.716   8.850
 3739POPC   GL2 8954   1.070   9.829   8.850
 3739POPC   C1A 8955   1.188   9.779   8.550
 3739POPC   D2A 8956   1.217   9.756   8.250
 3739POPC   C3A 8957   1.188   9.766   7.950
 3739POPC   C4A 8958   1.180   9.713   7.650
 3739POPC   C1B 8959   0.988   9.858   8.550
 3739POPC   C2B 8960   0.998   9.954   8.250
 3739POPC   C3B 8961   1.055   9.943   7.950
 3739POPC   C4B 8962   1.060   9.898   7.650
 3740POPC   NC3 8963  12.078  29.944   9.450
 3740POPC   PO4 8964  12.083  29.909   9.150
 3740POPC   GL1 8965  12.061  29.886   8.850
 3740POPC   GL2 8966  12.093  30.002   8.850
 3740POPC   C1A 8967  12.082  29.872   8.550
 3740POPC   D2A 8968  12.122  29.889   8.250
 3740POPC   C3A 8969  12.052  29.937   7.950
 3740POPC   C4A 8970  12.034  29.932   7.650
 3740POPC   C1B 8971  12.097  30.176   8.550
 3740POPC   C2B 8972  12.034  30.132   8.250
 3740POPC   C3B 8973  12.052  30.157   7.950
 3740POPC   C4B 8974  12.025  30.212   7.650
 3741POPC   NC3 8975  28.344  30.731   9.450
 3741POPC   PO4 8976  28.412  30.703   9.150
 3741POPC   GL1 8977  28.392  30.707   8.850
 3741POPC   GL2 8978  28.409  30.538   8.850
 3741POPC   C1A 8979  28.418  30.700   8.550
 3741POPC   D2A 8980  28.413  30.656   8.250
 3741POPC   C3A 8981  28.344  30.728   7.950
 3741POPC   C4A 8982  28.410  30.730   7.650
 3741POPC   C1B 8983  28.435  30.435   8.550
 3741POPC   C2B 8984  28.437  30.450   8.250
 3741POPC   C3B 8985  28.513  30.488   7.950
 3741POPC   C4B 8986  28.448  30.433   7.650
 3742POPC   NC3 8987  13.624  42.339   9.450
 3742POPC   PO4 8988  13.634  42.313   9.150
 3742POPC   GL1 8989  13.658  42.354   8.850
 3742POPC   GL2 8990  13.612  42.477   8.850
 3742POPC   C1A 8991  13.630  42.333   8.550
 3742POPC   D2A 8992  13.581  42.304   8.250
 3742POPC   C3A 8993  13.615  42.373   7.950
 3742POPC   C4A 8994  13.630  42.321   7.650
 3742POPC   C1B 8995  13.593  42.543   8.550
 3742POPC   C2B 8996  13.520  42.581   8.250
 3742POPC   C3B 8997  13.516  42.613   7.950
 3742POPC   C4B 8998  13.520  42.617   7.650
 3743POPC   NC3 8999  38.442  35.313   9.450
 3743POPC   PO4 9000  38.442  35.341   9.150
 3743POPC   GL1 9001  38.443  35.322   8.850
 3743POPC   GL2 9002  38.624  35.404   8.850
 3743POPC   C1A 9003  38.410  35.364   8.550
 3743POPC   D2A 9004  38.485  35.389   8.250
 3743POPC   C3A 9005  38.444  35.399   7.950
 3743POPC   C4A 9006  38.413  35.357   7.650
 3743POPC   C1B 9007  38.664  35.329   8.550
 3743POPC   C2B 9008  38.674  35.358   8.250
 3743POPC   C3B 9009  38.705  35.408   7.950
 3743POPC   C4B 9010  38.730  35.399   7.650
 3744POPC   NC3 9011  40.039  39.267   9.450
 3744POPC   PO4 9012  40.044  39.204   9.150
 3744POPC   GL1 9013  39.961  39.238   8.850
 3744POPC   GL2 9014  39.981  39.146   8.850
 3744POPC   C1A 9015  40.007  39.213   8.550
 3744POPC   D2A 9016  39.958  39.191   8.250
 3744POPC   C3A 9017  40.029  39.202   7.950
 3744POPC   C4A 9018  39.988  39.185   7.650
 3744POPC   C1B 9019  39.976  38.976   8.550
 3744POPC   C2B 9020  40.019  39.032   8.250
 3744POPC   C3B 9021  39.942  38.963   7.950
 3744POPC   C4B 9022  39.954  38.951   7.650
 3745POPC   NC3 9023   2.768  18.279   9.450
 3745POPC   PO4 9024   2.805  18.308   9.150
 3745POPC   GL1 9025   2.805  18.239   8.850
 3745POPC   GL2 9026   2.742  18.446   8.850
 3745POPC   C1A 9027   2.788  18.273   8.550
 3745POPC   D2A 9028   2.721  18.236   8.250
 3745POPC   C3A 9029   2.789  18.278   7.950
 3745POPC   C4A 9030   2.765  18.316   7.650
 3745POPC   C1B 9031   2.688  18.521   8.550
 3745POPC   C2B 9032   2.747  18.540   8.250
 3745POPC   C3B 9033   2.765  18.506   7.950
 3745POPC   C4B 9034   2.701  18.489   7.650
 3746POPC   NC3 9035   6.610  26.811   9.450
 3746POPC   PO4 9036   6.688  26.815   9.150
 3746POPC   GL1 9037   6.692  26.787   8.850
 3746POPC   GL2 9038   6.558  26.676   8.850
 3746POPC   C1A 9039   6.691  26.861   8.550
 3746POPC   D2A 9040   6.631  26.780   8.250
 3746POPC   C3A 9041   6.691  26.835   7.950
 3746POPC   C4A 9042   6.654  26.796   7.650
 3746POPC   C1B 9043   6.584  26.541   8.550
 3746POPC   C2B 9044   6.510  26.601   8.250
 3746POPC   C3B 9045   6.591  26.637   7.950
 3746POPC   C4B 9046   6.562  26.598   7.650
 3747POPC   NC3 9047  36.944   4.286   9.450
 3747POPC   PO4 9048  36.859   4.271   9.150
 3747POPC   GL1 9049  36.861   4.318   8.850
 3747POPC   GL2 9050  36.932   4.251   8.850
 3747POPC   C1A 9051  36.875   4.333   8.550
 3747POPC   D2A 9052  36.870   4.345   8.250
 3747POPC   C3A 9053  36.921   4.309   7.950
 3747POPC   C4A 9054  36.878   4.311   7.650
 3747POPC   C1B 9055  37.019   4.111   8.550
 3747POPC   C2B 9056  37.061   4.088   8.250
 3747POPC   C3B 9057  37.084   4.100   7.950
 3747POPC   C4B 9058  37.096   4.095   7.650
 3748POPC   NC3 9059  12.858  26.065   9.450
 3748POPC   PO4 9060  12.837  26.042   9.150
 3748POPC   GL1 9061  12.868  26.080   8.850
 3748POPC   GL2 9062  12.917  26.138   8.850
 3748POPC   C1A 9063  12.891  26.080   8.550
 3748POPC   D2A 9064  12.863  26.000   8.250
 3748POPC   C3A 9065  12.808  26.052   7.950
 3748POPC   C4A 9066  12.860  26.046   7.650
 3748POPC   C1B 9067  13.113  26.182   8.550
 3748POPC   C2B 9068  13.032  26.193   8.250
 3748POPC   C3B 9069  13.060  26.148   7.950
 3748POPC   C4B 9070  13.082  26.128   7.650
 3749POPC   NC3 9071  19.105   8.212   9.450
 3749POPC   PO4 9072  19.097   8.192   9.150
 3749POPC   GL1 9073  19.080   8.234   8.850
 3749POPC   GL2 9074  19.000   8.167   8.850
 3749POPC   C1A 9075  19.099   8.164   8.550
 3749POPC   D2A 9076  19.083   8.185   8.250
 3749POPC   C3A 9077  19.093   8.210   7.950
 3749POPC   C4A 9078  19.093   8.160   7.650
 3749POPC   C1B 9079  18.896   8.003   8.550
 3749POPC   C2B 9080  18.871   8.048   8.250
 3749POPC   C3B 9081  18.910   8.051   7.950
 3749POPC   C4B 9082  18.845   8.087   7.650
 3750POPC   NC3 9083  19.091  26.796   9.450
 3750POPC   PO4 9084  19.062  26.865   9.150
 3750POPC   GL1 9085  19.105  26.859   8.850
 3750POPC   GL2 9086  19.053  26.969   8.850
 3750POPC   C1A 9087  19.039  26.803   8.550
 3750POPC   D2A 9088  19.025  26.806   8.250
 3750POPC   C3A 9089  19.054  26.862   7.950
 3750POPC   C4A 9090  19.074  26.779   7.650
 3750POPC   C1B 9091  19.107  27.071   8.550
 3750POPC   C2B 9092  19.056  27.097   8.250
 3750POPC   C3B 9093  19.098  27.052   7.950
 3750POPC   C4B 9094  19.046  27.080   7.650
 3751POPC   NC3 9095   4.345   9.748   9.450
 3751POPC   PO4 9096   4.366   9.750   9.150
 3751POPC   GL1 9097   4.271   9.748   8.850
 3751POPC   GL2 9098   4.372   9.674   8.850
 3751POPC   C1A 9099   4.308   9.795   8.550
 3751POPC   D2A 9100   4.312   9.725   8.250
 3751POPC   C3A 9101   4.294   9.755   7.950
 3751POPC   C4A 9102   4.296   9.731   7.650
 3751POPC   C1B 9103   4.393   9.497   8.550
 3751POPC   C2B 9104   4.401   9.523   8.250
 3751POPC   C3B 9105   4.450   9.486   7.950
 3751POPC   C4B 9106   4.369   9.497   7.650
 3752POPC   NC3 9107  32.984  29.890   9.450
 3752POPC   PO4 9108  32.989  29.908   9.150
 3752POPC   GL1 9109  32.999  29.879   8.850
 3752POPC   GL2 9110  32.943  29.838   8.850
 3752POPC   C1A 9111  33.065  29.873   8.550
 3752POPC   D2A 9112  32.996  29.882   8.250
 3752POPC   C3A 9113  33.044  29.895   7.950
 3752POPC   C4A 9114  33.041  29.970   7.650
 3752POPC   C1B 9115  32.846  29.760   8.550
 3752POPC   C2B 9116  32.780  29.814   8.250
 3752POPC   C3B 9117  32.799  29.775   7.950
 3752POPC   C4B 9118  32.848  29.799   7.650
 3753POPC   NC3 9119  22.144  23.722   9.450
 3753POPC   PO4 9120  22.119  23.714   9.150
 3753POPC   GL1 9121  22.162  23.754   8.850
 3753POPC   GL2 9122  22.184  23.608   8.850
 3753POPC   C1A 9123  22.202  23.668   8.550
 3753POPC   D2A 9124  22.169  23.693   8.250
 3753POPC   C3A 9125  22.137  23.725   7.950
 3753POPC   C4A 9126  22.175  23.667   7.650
 3753POPC   C1B 9127  22.148  23.422   8.550
 3753POPC   C2B 9128  22.088  23.491   8.250
 3753POPC   C3B 9129  22.114  23.481   7.950
 3753POPC   C4B 9130  22.151  23.450   7.650
 3754POPC   NC3 9131   6.627  32.269   9.450
 3754POPC   PO4 9132   6.622  32.289   9.150
 3754POPC   GL1 9133   6.615  32.294   8.850
 3754POPC   GL2 9134   6.635  32.361   8.850
 3754POPC   C1A 9135   6.660  32.251   8.550
 3754POPC   D2A 9136   6.683  32.208   8.250
 3754POPC   C3A 9137   6.635  32.212   7.950
 3754POPC   C4A 9138   6.682  32.279   7.650
 3754POPC   C1B 9139   6.625  32.477   8.550
 3754POPC   C2B 9140   6.629  32.497   8.250
 3754POPC   C3B 9141   6.635  32.505   7.950
 3754POPC   C4B 9142   6.687  32.536   7.650
 3755POPC   NC3 9143  29.157   6.613   9.450
 3755POPC   PO4 9144  29.107   6.599   9.150
 3755POPC   GL1 9145  29.123   6.636   8.850
 3755POPC   GL2 9146  29.181   6.717   8.850
 3755POPC   C1A 9147  29.147   6.614   8.550
 3755POPC   D2A 9148  29.132   6.654   8.250
 3755POPC   C3A 9149  29.182   6.681   7.950
 3755POPC   C4A 9150  29.152   6.621   7.650
 3755POPC   C1B 9151  29.243   6.927   8.550
 3755POPC   C2B 9152  29.178   6.836   8.250
 3755POPC   C3B 9153  29.219   6.846   7.950
 3755POPC   C4B 9154  29.201   6.879   7.650
 3756POPC   NC3 9155  21.359   7.469   9.450
 3756POPC   PO4 9156  21.421   7.444   9.150
 3756POPC   GL1 9157  21.427   7.450   8.850
 3756POPC   GL2 9158  21.307   7.273   8.850
 3756POPC   C1A 9159  21.402   7.411   8.550
 3756POPC   D2A 9160  21.402   7.427   8.250
 3756POPC   C3A 9161  21.349   7.464   7.950
 3756POPC   C4A 9162  21.411   7.419   7.650
 3756POPC   C1B 9163  21.250   7.257   8.550
 3756POPC   C2B 9164  21.249   7.181   8.250
 3756POPC   C3B 9165  21.249   7.172   7.950
 3756POPC   C4B 9166  21.213   7.249   7.650
 3757POPC   NC3 9167  35.340  14.422   9.450
 3757POPC   PO4 9168  35.318  14.445   9.150
 3757POPC   GL1 9169  35.361  14.425   8.850
 3757POPC   GL2 9170  35.344  14.485   8.850
 3757POPC   C1A 9171  35.312  14.377   8.550
 3757POPC   D2A 9172  35.354  14.385   8.250
 3757POPC   C3A 9173  35.374  14.366   7.950
 3757POPC   C4A 9174  35.397  14.386   7.650
 3757POPC   C1B 9175  35.394  14.619   8.550
 3757POPC   C2B 9176  35.442  14.594   8.250
 3757POPC   C3B 9177  35.434  14.612   7.950
 3757POPC   C4B 9178  35.435  14.653   7.650
 3758POPC   NC3 9179  14.447   8.206   9.450
 3758POPC   PO4 9180  14.385   8.188   9.150
 3758POPC   GL1 9181  14.362   8.184   8.850
 3758POPC   GL2 9182  14.292   8.256   8.850
 3758POPC   C1A 9183  14.367   8.235   8.550
 3758POPC   D2A 9184  14.449   8.222   8.250
 3758POPC   C3A 9185  14.436   8.244   7.950
 3758POPC   C4A 9186  14.417   8.151   7.650
 3758POPC   C1B 9187  14.240   8.410   8.550
 3758POPC   C2B 9188  14.215   8.447   8.250
 3758POPC   C3B 9189  14.258   8.438   7.950
 3758POPC   C4B 9190  14.254   8.424   7.650
 3759POPC   NC3 9191  42.384  18.294   9.450
 3759POPC   PO4 9192  42.299  18.318   9.150
 3759POPC   GL1 9193  42.363  18.261   8.850
 3759POPC   GL2 9194  42.482  18.314   8.850
 3759POPC   C1A 9195  42.314  18.287   8.550
 3759POPC   D2A 9196  42.341  18.318   8.250
 3759POPC   C3A 9197  42.348  18.305   7.950
 3759POPC   C4A 9198  42.322  18.243   7.650
 3759POPC   C1B 9199  42.555  18.449   8.550
 3759POPC   C2B 9200  42.534  18.470   8.250
 3759POPC   C3B 9201  42.565  18.386   7.950
 3759POPC   C4B 9202  42.522  18.464   7.650
 3760POPC   NC3 9203  34.551  43.892   9.450
 3760POPC   PO4 9204  34.559  43.875   9.150
 3760POPC   GL1 9205  34.612  43.885   8.850
 3760POPC   GL2 9206  34.643  43.980   8.850
 3760POPC   C1A 9207  34.550  43.871   8.550
 3760POPC   D2A 9208  34.595  43.840   8.250
 3760POPC   C3A 9209  34.560  43.910   7.950
 3760POPC   C4A 9210  34.601  43.837   7.650
 3760POPC   C1B 9211  34.752  44.051   8.550
 3760POPC   C2B 9212  34.722  44.045   8.250
 3760POPC   C3B 9213  34.738  44.093   7.950
 3760POPC   C4B 9214  34.746  44.101   7.650
 3761POPC   NC3 9215   9.763  33.782   9.450
 3761POPC   PO4 9216   9.740  33.753   9.150
 3761POPC   GL1 9217   9.705  33.825   8.850
 3761POPC   GL2 9218   9.837  33.650   8.850
 3761POPC   C1A 9219   9.711  33.752   8.550
 3761POPC   D2A 9220   9.709  33.784   8.250
 3761POPC   C3A 9221   9.788  33.805   7.950
 3761POPC   C4A 9222   9.700  33.769   7.650
 3761POPC   C1B 9223   9.875  33.550   8.550
 3761POPC   C2B 9224   9.822  33.595   8.250
 3761POPC   C3B 9225   9.861  33.625   7.950
 3761POPC   C4B 9226   9.900  33.616   7.650
 3762POPC   NC3 9227  33.817   5.090   9.450
 3762POPC   PO4 9228  33.768   5.109   9.150
 3762POPC   GL1 9229  33.824   5.044   8.850
 3762POPC   GL2 9230  33.709   5.176   8.850
 3762POPC   C1A 9231  33.842   5.045   8.550
 3762POPC   D2A 9232  33.763   5.066   8.250
 3762POPC   C3A 9233  33.846   5.073   7.950
 3762POPC   C4A 9234  33.832   5.099   7.650
 3762POPC   C1B 9235  33.532   5.206   8.550
 3762POPC   C2B 9236  33.530   5.203   8.250
 3762POPC   C3B 9237  33.578   5.247   7.950
 3762POPC   C4B 9238  33.586   5.213   7.650
 3763POPC   NC3 9239  39.236   8.215   9.450
 3763POPC   PO4 9240  39.218   8.173   9.150
 3763POPC   GL1 9241  39.192   8.170   8.850
 3763POPC   GL2 9242  39.117   8.183   8.850
 3763POPC   C1A 9243  39.199   8.159   8.550
 3763POPC   D2A 9244  39.260   8.201   8.250
 3763POPC   C3A 9245  39.184   8.164   7.950
 3763POPC   C4A 9246  39.228   8.222   7.650
 3763POPC   C1B 9247  38.943   8.199   8.550
 3763POPC   C2B 9248  39.002   8.168   8.250
 3763POPC   C3B 9249  38.966   8.166   7.950
 3763POPC   C4B 9250  38.972   8.166   7.650
 3764POPC   NC3 9251  44.706  22.165   9.450
 3764POPC   PO4 9252  44.614  22.132   9.150
 3764POPC   GL1 9253  44.701  22.199   8.850
 3764POPC   GL2 9254  44.659  22.024   8.850
 3764POPC   C1A 9255  44.700  22.155   8.550
 3764POPC   D2A 9256  44.674  22.199   8.250
 3764POPC   C3A 9257  44.646  22.169   7.950
 3764POPC   C4A 9258  44.643  22.167   7.650
 3764POPC   C1B 9259  44.696  21.871   8.550
 3764POPC   C2B 9260  44.714  21.903   8.250
 3764POPC   C3B 9261  44.673  21.879   7.950
 3764POPC   C4B 9262  44.690  21.888   7.650
 3765POPC   NC3 9263  43.086  22.199   9.450
 3765POPC   PO4 9264  43.095  22.172   9.150
 3765POPC   GL1 9265  43.129  22.179   8.850
 3765POPC   GL2 9266  43.060  22.272   8.850
 3765POPC   C1A 9267  43.095  22.186   8.550
 3765POPC   D2A 9268  43.154  22.172   8.250
 3765POPC   C3A 9269  43.062  22.189   7.950
 3765POPC   C4A 9270  43.154  22.149   7.650
 3765POPC   C1B 9271  42.984  22.381   8.550
 3765POPC   C2B 9272  42.987  22.416   8.250
 3765POPC   C3B 9273  42.985  22.416   7.950
 3765POPC   C4B 9274  42.962  22.361   7.650
 3766POPC   NC3 9275  35.363  19.053   9.450
 3766POPC   PO4 9276  35.392  19.022   9.150
 3766POPC   GL1 9277  35.381  19.098   8.850
 3766POPC   GL2 9278  35.216  19.094   8.850
 3766POPC   C1A 9279  35.343  19.040   8.550
 3766POPC   D2A 9280  35.310  19.038   8.250
 3766POPC   C3A 9281  35.321  19.071   7.950
 3766POPC   C4A 9282  35.388  19.038   7.650
 3766POPC   C1B 9283  35.098  19.074   8.550
 3766POPC   C2B 9284  35.127  19.162   8.250
 3766POPC   C3B 9285  35.072  19.140   7.950
 3766POPC   C4B 9286  35.115  19.083   7.650
 3767POPC   NC3 9287  10.494  10.560   9.450
 3767POPC   PO4 9288  10.502  10.562   9.150
 3767POPC   GL1 9289  10.488  10.507   8.850
 3767POPC   GL2 9290  10.469  10.658   8.850
 3767POPC   C1A 9291  10.541  10.507   8.550
 3767POPC   D2A 9292  10.530  10.510   8.250
 3767POPC   C3A 9293  10.558  10.521   7.950
 3767POPC   C4A 9294  10.483  10.519   7.650
 3767POPC   C1B 9295  10.392  10.776   8.550
 3767POPC   C2B 9296  10.340  10.742   8.250
 3767POPC   C3B 9297  10.396  10.723   7.950
 3767POPC   C4B 9298  10.385  10.687   7.650
 3768POPC   NC3 9299  19.060   9.022   9.450
 3768POPC   PO4 9300  19.042   8.933   9.150
 3768POPC   GL1 9301  19.098   8.988   8.850
 3768POPC   GL2 9302  19.230   8.915   8.850
 3768POPC   C1A 9303  19.087   8.944   8.550
 3768POPC   D2A 9304  19.073   8.968   8.250
 3768POPC   C3A 9305  19.036   8.959   7.950
 3768POPC   C4A 9306  19.065   9.014   7.650
 3768POPC   C1B 9307  19.270   8.915   8.550
 3768POPC   C2B 9308  19.299   8.973   8.250
 3768POPC   C3B 9309  19.283   8.923   7.950
 3768POPC   C4B 9310  19.306   8.944   7.650
 3769POPC   NC3 9311  13.669  23.677   9.450
 3769POPC   PO4 9312  13.637  23.712   9.150
 3769POPC   GL1 9313  13.653  23.667   8.850
 3769POPC   GL2 9314  13.657  23.842   8.850
 3769POPC   C1A 9315  13.648  23.742   8.550
 3769POPC   D2A 9316  13.650  23.705   8.250
 3769POPC   C3A 9317  13.666  23.672   7.950
 3769POPC   C4A 9318  13.662  23.681   7.650
 3769POPC   C1B 9319  13.752  23.930   8.550
 3769POPC   C2B 9320  13.699  23.974   8.250
 3769POPC   C3B 9321  13.680  23.912   7.950
 3769POPC   C4B 9322  13.761  23.908   7.650
 3770POPC   NC3 9323  12.822  27.596   9.450
 3770POPC   PO4 9324  12.813  27.581   9.150
 3770POPC   GL1 9325  12.854  27.616   8.850
 3770POPC   GL2 9326  12.775  27.700   8.850
 3770POPC   C1A 9327  12.893  27.602   8.550
 3770POPC   D2A 9328  12.823  27.568   8.250
 3770POPC   C3A 9329  12.823  27.612   7.950
 3770POPC   C4A 9330  12.864  27.612   7.650
 3770POPC   C1B 9331  12.671  27.807   8.550
 3770POPC   C2B 9332  12.668  27.800   8.250
 3770POPC   C3B 9333  12.742  27.791   7.950
 3770POPC   C4B 9334  12.735  27.804   7.650
 3771POPC   NC3 9335  18.258   8.950   9.450
 3771POPC   PO4 9336  18.314   8.978   9.150
 3771POPC   GL1 9337  18.318   8.951   8.850
 3771POPC   GL2 9338  18.369   9.006   8.850
 3771POPC   C1A 9339  18.309   8.931   8.550
 3771POPC   D2A 9340  18.277   8.965   8.250
 3771POPC   C3A 9341  18.261   8.979   7.950
 3771POPC   C4A 9342  18.263   8.967   7.650
 3771POPC   C1B 9343  18.501   9.092   8.550
 3771POPC   C2B 9344  18.494   9.082   8.250
 3771POPC   C3B 9345  18.449   9.065   7.950
 3771POPC   C4B 9346  18.445   9.076   7.650
 3772POPC   NC3 9347  38.423  33.823   9.450
 3772POPC   PO4 9348  38.467  33.814   9.150
 3772POPC   GL1 9349  38.493  33.844   8.850
 3772POPC   GL2 9350  38.451  33.672   8.850
 3772POPC   C1A 9351  38.475  33.785   8.550
 3772POPC   D2A 9352  38.405  33.812   8.250
 3772POPC   C3A 9353  38.478  33.763   7.950
 3772POPC   C4A 9354  38.495  33.827   7.650
 3772POPC   C1B 9355  38.415  33.520   8.550
 3772POPC   C2B 9356  38.424  33.553   8.250
 3772POPC   C3B 9357  38.434  33.513   7.950
 3772POPC   C4B 9358  38.417  33.545   7.650
 3773POPC   NC3 9359  15.200  22.158   9.450
 3773POPC   PO4 9360  15.221  22.123   9.150
 3773POPC   GL1 9361  15.181  22.118   8.850
 3773POPC   GL2 9362  15.039  22.156   8.850
 3773POPC   C1A 9363  15.222  22.132   8.550
 3773POPC   D2A 9364  15.139  22.145   8.250
 3773POPC   C3A 9365  15.215  22.125   7.950
 3773POPC   C4A 9366  15.157  22.204   7.650
 3773POPC   C1B 9367  15.000  22.010   8.550
 3773POPC   C2B 9368  14.942  22.024   8.250
 3773POPC   C3B 9369  14.950  22.031   7.950
 3773POPC   C4B 9370  14.914  22.096   7.650
 3774POPC   NC3 9371  29.138  17.482   9.450
 3774POPC   PO4 9372  29.151  17.507   9.150
 3774POPC   GL1 9373  29.141  17.532   8.850
 3774POPC   GL2 9374  29.100  17.424   8.850
 3774POPC   C1A 9375  29.176  17.485   8.550
 3774POPC   D2A 9376  29.102  17.534   8.250
 3774POPC   C3A 9377  29.185  17.505   7.950
 3774POPC   C4A 9378  29.151  17.492   7.650
 3774POPC   C1B 9379  29.015  17.313   8.550
 3774POPC   C2B 9380  28.997  17.323   8.250
 3774POPC   C3B 9381  28.996  17.317   7.950
 3774POPC   C4B 9382  29.011  17.244   7.650
 3775POPC   NC3 9383  41.603  20.602   9.450
 3775POPC   PO4 9384  41.534  20.631   9.150
 3775POPC   GL1 9385  41.587  20.584   8.850
 3775POPC   GL2 9386  41.401  20.646   8.850
 3775POPC   C1A 9387  41.520  20.628   8.550
 3775POPC   D2A 9388  41.578  20.605   8.250
 3775POPC   C3A 9389  41.583  20.599   7.950
 3775POPC   C4A 9390  41.524  20.622   7.650
 3775POPC   C1B 9391  41.317  20.642   8.550
 3775POPC   C2B 9392  41.338  20.655   8.250
 3775POPC   C3B 9393  41.298  20.616   7.950
 3775POPC   C4B 9394  41.317  20.590   7.650
 3776POPC   NC3 9395  23.740  20.625   9.450
 3776POPC   PO4 9396  23.695  20.629   9.150
 3776POPC   GL1 9397  23.698  20.654   8.850
 3776POPC   GL2 9398  23.797  20.555   8.850
 3776POPC   C1A 9399  23.728  20.633   8.550
 3776POPC   D2A 9400  23.722  20.624   8.250
 3776POPC   C3A 9401  23.694  20.627   7.950
 3776POPC   C4A 9402  23.679  20.563   7.650
 3776POPC   C1B 9403  23.847  20.374   8.550
 3776POPC   C2B 9404  23.856  20.450   8.250
 3776POPC   C3B 9405  23.912  20.409   7.950
 3776POPC   C4B 9406  23.854  20.377   7.650
 3777POPC   NC3 9407   5.911  10.533   9.450
 3777POPC   PO4 9408   5.848  10.490   9.150
 3777POPC   GL1 9409   5.861  10.551   8.850
 3777POPC   GL2 9410   5.968  10.524   8.850
 3777POPC   C1A 9411   5.844  10.535   8.550
 3777POPC   D2A 9412   5.896  10.543   8.250
 3777POPC   C3A 9413   5.892  10.565   7.950
 3777POPC   C4A 9414   5.846  10.542   7.650
 3777POPC   C1B 9415   6.096  10.592   8.550
 3777POPC   C2B 9416   6.095  10.590   8.250
 3777POPC   C3B 9417   6.135  10.559   7.950
 3777POPC   C4B 9418   6.106  10.586   7.650
 3778POPC   NC3 9419  43.900  27.590   9.450
 3778POPC   PO4 9420  43.866  27.568   9.150
 3778POPC   GL1 9421  43.868  27.573   8.850
 3778POPC   GL2 9422  43.768  27.558   8.850
 3778POPC   C1A 9423  43.917  27.595   8.550
 3778POPC   D2A 9424  43.862  27.549   8.250
 3778POPC   C3A 9425  43.935  27.624   7.950
 3778POPC   C4A 9426  43.877  27.572   7.650
 3778POPC   C1B 9427  43.642  27.515   8.550
 3778POPC   C2B 9428  43.635  27.503   8.250
 3778POPC   C3B 9429  43.661  27.535   7.950
 3778POPC   C4B 9430  43.699  27.465   7.650
 3779POPC   NC3 9431  35.324   8.183   9.450
 3779POPC   PO4 9432  35.321   8.220   9.150
 3779POPC   GL1 9433  35.393   8.166   8.850
 3779POPC   GL2 9434  35.471   8.207   8.850
 3779POPC   C1A 9435  35.401   8.224   8.550
 3779POPC   D2A 9436  35.380   8.165   8.250
 3779POPC   C3A 9437  35.366   8.172   7.950
 3779POPC   C4A 9438  35.370   8.147   7.650
 3779POPC   C1B 9439  35.558   8.134   8.550
 3779POPC   C2B 9440  35.584   8.107   8.250
 3779POPC   C3B 9441  35.588   8.083   7.950
 3779POPC   C4B 9442  35.584   8.136   7.650
 3780POPC   NC3 9443  19.068  29.963   9.450
 3780POPC   PO4 9444  19.044  29.917   9.150
 3780POPC   GL1 9445  19.104  29.911   8.850
 3780POPC   GL2 9446  18.954  29.986   8.850
 3780POPC   C1A 9447  19.023  29.919   8.550
 3780POPC   D2A 9448  19.046  29.885   8.250
 3780POPC   C3A 9449  19.084  29.924   7.950
 3780POPC   C4A 9450  19.033  29.874   7.650
 3780POPC   C1B 9451  18.820  30.065   8.550
 3780POPC   C2B 9452  18.824  30.104   8.250
 3780POPC   C3B 9453  18.822  30.039   7.950
 3780POPC   C4B 9454  18.825  30.051   7.650
 3781POPC   NC3 9455  12.100  28.416   9.450
 3781POPC   PO4 9456  12.034  28.341   9.150
 3781POPC   GL1 9457  12.097  28.389   8.850
 3781POPC   GL2 9458  11.989  28.498   8.850
 3781POPC   C1A 9459  12.104  28.414   8.550
 3781POPC   D2A 9460  12.065  28.351   8.250
 3781POPC   C3A 9461  12.121  28.336   7.950
 3781POPC   C4A 9462  12.076  28.409   7.650
 3781POPC   C1B 9463  11.971  28.629   8.550
 3781POPC   C2B 9464  11.964  28.616   8.250
 3781POPC   C3B 9465  12.009  28.610   7.950
 3781POPC   C4B 9466  11.994  28.603   7.650
 3782POPC   NC3 9467  11.311  31.468   9.450
 3782POPC   PO4 9468  11.344  31.434   9.150
 3782POPC   GL1 9469  11.258  31.433   8.850
 3782POPC   GL2 9470  11.323  31.637   8.850
 3782POPC   C1A 9471  11.348  31.489   8.550
 3782POPC   D2A 9472  11.264  31.446   8.250
 3782POPC   C3A 9473  11.283  31.506   7.950
 3782POPC   C4A 9474  11.298  31.460   7.650
 3782POPC   C1B 9475  11.346  31.742   8.550
 3782POPC   C2B 9476  11.413  31.734   8.250
 3782POPC   C3B 9477  11.352  31.664   7.950
 3782POPC   C4B 9478  11.422  31.714   7.650
 3783POPC   NC3 9479  43.913  29.960   9.450
 3783POPC   PO4 9480  43.882  29.948   9.150
 3783POPC   GL1 9481  43.839  29.892   8.850
 3783POPC   GL2 9482  44.038  29.915   8.850
 3783POPC   C1A 9483  43.920  29.932   8.550
 3783POPC   D2A 9484  43.880  29.884   8.250
 3783POPC   C3A 9485  43.914  29.945   7.950
 3783POPC   C4A 9486  43.902  29.890   7.650
 3783POPC   C1B 9487  44.127  29.851   8.550
 3783POPC   C2B 9488  44.093  29.914   8.250
 3783POPC   C3B 9489  44.168  29.946   7.950
 3783POPC   C4B 9490  44.145  29.877   7.650
 3784POPC   NC3 9491  37.666   4.294   9.450
 3784POPC   PO4 9492  37.707   4.360   9.150
 3784POPC   GL1 9493  37.712   4.339   8.850
 3784POPC   GL2 9494  37.777   4.189   8.850
 3784POPC   C1A 9495  37.670   4.289   8.550
 3784POPC   D2A 9496  37.653   4.324   8.250
 3784POPC   C3A 9497  37.707   4.271   7.950
 3784POPC   C4A 9498  37.647   4.361   7.650
 3784POPC   C1B 9499  37.828   4.114   8.550
 3784POPC   C2B 9500  37.920   4.140   8.250
 3784POPC   C3B 9501  37.908   4.192   7.950
 3784POPC   C4B 9502  37.884   4.179   7.650
 3785POPC   NC3 9503   1.941  40.752   9.450
 3785POPC   PO4 9504   2.035  40.747   9.150
 3785POPC   GL1 9505   1.983  40.800   8.850
 3785POPC   GL2 9506   1.897  40.831   8.850
 3785POPC   C1A 9507   2.011  40.758   8.550
 3785POPC   D2A 9508   2.007  40.790   8.250
 3785POPC   C3A 9509   1.995  40.739   7.950
 3785POPC   C4A 9510   2.026  40.760   7.650
 3785POPC   C1B 9511   1.781  40.989   8.550
 3785POPC   C2B 9512   1.852  40.991   8.250
 3785POPC   C3B 9513   1.839  40.993   7.950
 3785POPC   C4B 9514   1.778  40.941   7.650
 3786POPC   NC3 9515   9.749  39.193   9.450
 3786POPC   PO4 9516   9.777  39.202   9.150
 3786POPC   GL1 9517   9.715  39.227   8.850
 3786POPC   GL2 9518   9.680  39.135   8.850
 3786POPC   C1A 9519   9.776  39.211   8.550
 3786POPC   D2A 9520   9.749  39.209   8.250
 3786POPC   C3A 9521   9.776  39.196   7.950
 3786POPC   C4A 9522   9.746  39.212   7.650
 3786POPC   C1B 9523   9.509  39.085   8.550
 3786POPC   C2B 9524   9.534  39.099   8.250
 3786POPC   C3B 9525   9.550  39.167   7.950
 3786POPC   C4B 9526   9.519  39.135   7.650
 3787POPC   NC3 9527  36.951  40.779   9.450
 3787POPC   PO4 9528  36.913  40.823   9.150
 3787POPC   GL1 9529  36.911  40.814   8.850
 3787POPC   GL2 9530  36.974  40.682   8.850
 3787POPC   C1A 9531  36.900  40.766   8.550
 3787POPC   D2A 9532  36.898  40.823   8.250
 3787POPC   C3A 9533  36.863  40.758   7.950
 3787POPC   C4A 9534  36.930  40.829   7.650
 3787POPC   C1B 9535  37.028  40.582   8.550
 3787POPC   C2B 9536  37.070  40.562   8.250
 3787POPC   C3B 9537  37.074  40.611   7.950
 3787POPC   C4B 9538  37.042  40.624   7.650
 3788POPC   NC3 9539   9.743  21.366   9.450
 3788POPC   PO4 9540   9.773  21.387   9.150
 3788POPC   GL1 9541   9.788  21.419   8.850
 3788POPC   GL2 9542   9.853  21.348   8.850
 3788POPC   C1A 9543   9.795  21.342   8.550
 3788POPC   D2A 9544   9.778  21.410   8.250
 3788POPC   C3A 9545   9.793  21.373   7.950
 3788POPC   C4A 9546   9.783  21.414   7.650
 3788POPC   C1B 9547  10.010  21.307   8.550
 3788POPC   C2B 9548  10.011  21.314   8.250
 3788POPC   C3B 9549  10.027  21.362   7.950
 3788POPC   C4B 9550  10.012  21.318   7.650
 3789POPC   NC3 9551  36.126  19.826   9.450
 3789POPC   PO4 9552  36.146  19.854   9.150
 3789POPC   GL1 9553  36.081  19.799   8.850
 3789POPC   GL2 9554  36.100  19.712   8.850
 3789POPC   C1A 9555  36.137  19.807   8.550
 3789POPC   D2A 9556  36.128  19.816   8.250
 3789POPC   C3A 9557  36.137  19.873   7.950
 3789POPC   C4A 9558  36.171  19.822   7.650
 3789POPC   C1B 9559  35.998  19.623   8.550
 3789POPC   C2B 9560  36.015  19.621   8.250
 3789POPC   C3B 9561  36.016  19.555   7.950
 3789POPC   C4B 9562  36.033  19.639   7.650
 3790POPC   NC3 9563  35.350  12.877   9.450
 3790POPC   PO4 9564  35.401  12.819   9.150
 3790POPC   GL1 9565  35.335  12.885   8.850
 3790POPC   GL2 9566  35.230  12.757   8.850
 3790POPC   C1A 9567  35.362  12.870   8.550
 3790POPC   D2A 9568  35.307  12.840   8.250
 3790POPC   C3A 9569  35.397  12.890   7.950
 3790POPC   C4A 9570  35.363  12.862   7.650
 3790POPC   C1B 9571  35.132  12.776   8.550
 3790POPC   C2B 9572  35.154  12.776   8.250
 3790POPC   C3B 9573  35.119  12.750   7.950
 3790POPC   C4B 9574  35.181  12.729   7.650
 3791POPC   NC3 9575   3.557  32.231   9.450
 3791POPC   PO4 9576   3.518  32.270   9.150
 3791POPC   GL1 9577   3.520  32.214   8.850
 3791POPC   GL2 9578   3.631  32.244   8.850
 3791POPC   C1A 9579   3.504  32.209   8.550
 3791POPC   D2A 9580   3.584  32.241   8.250
 3791POPC   C3A 9581   3.546  32.256   7.950
 3791POPC   C4A 9582   3.574  32.209   7.650
 3791POPC   C1B 9583   3.793  32.187   8.550
 3791POPC   C2B 9584   3.801  32.235   8.250
 3791POPC   C3B 9585   3.816  32.202   7.950
 3791POPC   C4B 9586   3.810  32.256   7.650
 3792POPC   NC3 9587   1.952  33.063   9.450
 3792POPC   PO4 9588   2.026  33.004   9.150
 3792POPC   GL1 9589   1.942  33.058   8.850
 3792POPC   GL2 9590   1.854  32.940   8.850
 3792POPC   C1A 9591   2.011  33.068   8.550
 3792POPC   D2A 9592   2.032  33.073   8.250
 3792POPC   C3A 9593   2.006  33.072   7.950
 3792POPC   C4A 9594   1.958  32.980   7.650
 3792POPC   C1B 9595   1.753  32.863   8.550
 3792POPC   C2B 9596   1.730  32.874   8.250
 3792POPC   C3B 9597   1.723  32.926   7.950
 3792POPC   C4B 9598   1.813  32.930   7.650
 3793POPC   NC3 9599  11.325  41.591   9.450
 3793POPC   PO4 9600  11.298  41.553   9.150
 3793POPC   GL1 9601  11.288  41.571   8.850
 3793POPC   GL2 9602  11.403  41.622   8.850
 3793POPC   C1A 9603  11.301  41.585   8.550
 3793POPC   D2A 9604  11.261  41.515   8.250
 3793POPC   C3A 9605  11.274  41.517   7.950
 3793POPC   C4A 9606  11.334  41.580   7.650
 3793POPC   C1B 9607  11.438  41.769   8.550
 3793POPC   C2B 9608  11.441  41.707   8.250
 3793POPC   C3B 9609  11.495  41.720   7.950
 3793POPC   C4B 9610  11.488  41.805   7.650
 3794POPC   NC3 9611  26.009  42.343   9.450
 3794POPC   PO4 9612  26.088  42.372   9.150
 3794POPC   GL1 9613  26.045  42.326   8.850
 3794POPC   GL2 9614  26.057  42.423   8.850
 3794POPC   C1A 9615  26.017  42.375   8.550
 3794POPC   D2A 9616  26.060  42.301   8.250
 3794POPC   C3A 9617  25.997  42.343   7.950
 3794POPC   C4A 9618  26.063  42.343   7.650
 3794POPC   C1B 9619  26.021  42.562   8.550
 3794POPC   C2B 9620  26.049  42.591   8.250
 3794POPC   C3B 9621  25.997  42.616   7.950
 3794POPC   C4B 9622  26.056  42.602   7.650
 3795POPC   NC3 9623   7.470  22.140   9.450
 3795POPC   PO4 9624   7.412  22.202   9.150
 3795POPC   GL1 9625   7.434  22.164   8.850
 3795POPC   GL2 9626   7.539  22.089   8.850
 3795POPC   C1A 9627   7.372  22.143   8.550
 3795POPC   D2A 9628   7.456  22.208   8.250
 3795POPC   C3A 9629   7.388  22.209   7.950
 3795POPC   C4A 9630   7.437  22.166   7.650
 3795POPC   C1B 9631   7.667  22.004   8.550
 3795POPC   C2B 9632   7.644  22.089   8.250
 3795POPC   C3B 9633   7.661  22.093   7.950
 3795POPC   C4B 9634   7.637  22.020   7.650
 3796POPC   NC3 9635  34.580  18.330   9.450
 3796POPC   PO4 9636  34.598  18.310   9.150
 3796POPC   GL1 9637  34.557  18.306   8.850
 3796POPC   GL2 9638  34.467  18.152   8.850
 3796POPC   C1A 9639  34.568  18.251   8.550
 3796POPC   D2A 9640  34.547  18.281   8.250
 3796POPC   C3A 9641  34.574  18.239   7.950
 3796POPC   C4A 9642  34.597  18.256   7.650
 3796POPC   C1B 9643  34.455  18.030   8.550
 3796POPC   C2B 9644  34.439  18.123   8.250
 3796POPC   C3B 9645  34.394  18.122   7.950
 3796POPC   C4B 9646  34.472  18.050   7.650
 3797POPC   NC3 9647  28.418   5.087   9.450
 3797POPC   PO4 9648  28.382   5.085   9.150
 3797POPC   GL1 9649  28.399   5.050   8.850
 3797POPC   GL2 9650  28.263   5.140   8.850
 3797POPC   C1A 9651  28.322   5.082   8.550
 3797POPC   D2A 9652  28.384   5.058   8.250
 3797POPC   C3A 9653  28.321   5.102   7.950
 3797POPC   C4A 9654  28.348   5.103   7.650
 3797POPC   C1B 9655  28.078   5.136   8.550
 3797POPC   C2B 9656  28.118   5.129   8.250
 3797POPC   C3B 9657  28.137   5.123   7.950
 3797POPC   C4B 9658  28.139   5.126   7.650
 3798POPC   NC3 9659  21.415  16.761   9.450
 3798POPC   PO4 9660  21.385  16.748   9.150
 3798POPC   GL1 9661  21.356  16.752   8.850
 3798POPC   GL2 9662  21.511  16.751   8.850
 3798POPC   C1A 9663  21.364  16.689   8.550
 3798POPC   D2A 9664  21.352  16.715   8.250
 3798POPC   C3A 9665  21.388  16.717   7.950
 3798POPC   C4A 9666  21.418  16.715   7.650
 3798POPC   C1B 9667  21.682  16.713   8.550
 3798POPC   C2B 9668  21.640  16.661   8.250
 3798POPC   C3B 9669  21.665  16.740   7.950
 3798POPC   C4B 9670  21.657  16.666   7.650
 3799POPC   NC3 9671  13.629  12.876   9.450
 3799POPC   PO4 9672  13.588  12.896   9.150
 3799POPC   GL1 9673  13.649  12.853   8.850
 3799POPC   GL2 9674  13.683  12.926   8.850
 3799POPC   C1A 9675  13.650  12.810   8.550
 3799POPC   D2A 9676  13.591  12.869   8.250
 3799POPC   C3A 9677  13.635  12.883   7.950
 3799POPC   C4A 9678  13.663  12.900   7.650
 3799POPC   C1B 9679  13.814  12.970   8.550
 3799POPC   C2B 9680  13.828  12.989   8.250
 3799POPC   C3B 9681  13.833  13.003   7.950
 3799POPC   C4B 9682  13.805  13.008   7.650
 3800POPC   NC3 9683   3.528   8.970   9.450
 3800POPC   PO4 9684   3.526   8.967   9.150
 3800POPC   GL1 9685   3.523   8.969   8.850
 3800POPC   GL2 9686   3.479   9.121   8.850
 3800POPC   C1A 9687   3.565   9.005   8.550
 3800POPC   D2A 9688   3.525   8.975   8.250
 3800POPC   C3A 9689   3.588   8.942   7.950
 3800POPC   C4A 9690   3.532   8.964   7.650
 3800POPC   C1B 9691   3.420   9.201   8.550
 3800POPC   C2B 9692   3.443   9.195   8.250
 3800POPC   C3B 9693   3.426   9.206   7.950
 3800POPC   C4B 9694   3.427   9.168   7.650
 3801POPC   NC3 9695  42.289  23.713   9.450
 3801POPC   PO4 9696  42.375  23.664   9.150
 3801POPC   GL1 9697  42.348  23.686   8.850
 3801POPC   GL2 9698  42.383  23.572   8.850
 3801POPC   C1A 9699  42.309  23.713   8.550
 3801POPC   D2A 9700  42.377  23.696   8.250
 3801POPC   C3A 9701  42.331  23.665   7.950
 3801POPC   C4A 9702  42.342  23.742   7.650
 3801POPC   C1B 9703  42.360  23.430   8.550
 3801POPC   C2B 9704  42.353  23.498   8.250
 3801POPC   C3B 9705  42.375  23.490   7.950
 3801POPC   C4B 9706  42.357  23.429   7.650
 3802POPC   NC3 9707  39.987   4.269   9.450
 3802POPC   PO4 9708  39.987   4.342   9.150
 3802POPC   GL1 9709  40.036   4.277   8.850
 3802POPC   GL2 9710  40.001   4.401   8.850
 3802POPC   C1A 9711  39.972   4.322   8.550
 3802POPC   D2A 9712  40.026   4.363   8.250
 3802POPC   C3A 9713  40.026   4.353   7.950
 3802POPC   C4A 9714  40.023   4.313   7.650
 3802POPC   C1B 9715  40.142   4.540   8.550
 3802POPC   C2B 9716  40.085   4.504   8.250
 3802POPC   C3B 9717  40.119   4.529   7.950
 3802POPC   C4B 9718  40.095   4.525   7.650
 3803POPC   NC3 9719   8.927  35.387   9.450
 3803POPC   PO4 9720   8.958  35.373   9.150
 3803POPC   GL1 9721   8.932  35.348   8.850
 3803POPC   GL2 9722   9.037  35.466   8.850
 3803POPC   C1A 9723   8.926  35.373   8.550
 3803POPC   D2A 9724   8.984  35.368   8.250
 3803POPC   C3A 9725   8.993  35.338   7.950
 3803POPC   C4A 9726   8.957  35.345   7.650
 3803POPC   C1B 9727   9.153  35.587   8.550
 3803POPC   C2B 9728   9.132  35.570   8.250
 3803POPC   C3B 9729   9.180  35.551   7.950
 3803POPC   C4B 9730   9.165  35.568   7.650
 3804POPC   NC3 9731  15.196   8.212   9.450
 3804POPC   PO4 9732  15.205   8.215   9.150
 3804POPC   GL1 9733  15.222   8.186   8.850
 3804POPC   GL2 9734  15.094   8.251   8.850
 3804POPC   C1A 9735  15.149   8.162   8.550
 3804POPC   D2A 9736  15.202   8.173   8.250
 3804POPC   C3A 9737  15.212   8.174   7.950
 3804POPC   C4A 9738  15.182   8.165   7.650
 3804POPC   C1B 9739  14.971   8.292   8.550
 3804POPC   C2B 9740  14.987   8.258   8.250
 3804POPC   C3B 9741  14.951   8.287   7.950
 3804POPC   C4B 9742  14.985   8.287   7.650
 3805POPC   NC3 9743  43.083  23.689   9.450
 3805POPC   PO4 9744  43.153  23.712   9.150
 3805POPC   GL1 9745  43.118  23.724   8.850
 3805POPC   GL2 9746  43.261  23.696   8.850
 3805POPC   C1A 9747  43.091  23.739   8.550
 3805POPC   D2A 9748  43.134  23.704   8.250
 3805POPC   C3A 9749  43.146  23.678   7.950
 3805POPC   C4A 9750  43.098  23.676   7.650
 3805POPC   C1B 9751  43.316  23.713   8.550
 3805POPC   C2B 9752  43.348  23.795   8.250
 3805POPC   C3B 9753  43.373  23.747   7.950
 3805POPC   C4B 9754  43.331  23.781   7.650
 3806POPC   NC3 9755   9.767  11.267   9.450
 3806POPC   PO4 9756   9.743  11.266   9.150
 3806POPC   GL1 9757   9.765  11.324   8.850
 3806POPC   GL2 9758   9.615  11.223   8.850
 3806POPC   C1A 9759   9.706  11.281   8.550
 3806POPC   D2A 9760   9.788  11.292   8.250
 3806POPC   C3A 9761   9.783  11.323   7.950
 3806POPC   C4A 9762   9.733  11.322   7.650
 3806POPC   C1B 9763   9.571  11.147   8.550
 3806POPC   C2B 9764   9.483  11.150   8.250
 3806POPC   C3B 9765   9.483  11.214   7.950
 3806POPC   C4B 9766   9.521  11.200   7.650
 3807POPC   NC3 9767   3.497  27.602   9.450
 3807POPC   PO4 9768   3.507  27.606   9.150
 3807POPC   GL1 9769   3.549  27.624   8.850
 3807POPC   GL2 9770   3.496  27.512   8.850
 3807POPC   C1A 9771   3.505  27.558   8.550
 3807POPC   D2A 9772   3.581  27.578   8.250
 3807POPC   C3A 9773   3.579  27.553   7.950
 3807POPC   C4A 9774   3.569  27.545   7.650
 3807POPC   C1B 9775   3.382  27.397   8.550
 3807POPC   C2B 9776   3.475  27.358   8.250
 3807POPC   C3B 9777   3.418  27.351   7.950
 3807POPC   C4B 9778   3.410  27.407   7.650
 3808POPC   NC3 9779  26.805  18.299   9.450
 3808POPC   PO4 9780  26.788  18.244   9.150
 3808POPC   GL1 9781  26.856  18.320   8.850
 3808POPC   GL2 9782  26.956  18.311   8.850
 3808POPC   C1A 9783  26.780  18.312   8.550
 3808POPC   D2A 9784  26.798  18.303   8.250
 3808POPC   C3A 9785  26.818  18.322   7.950
 3808POPC   C4A 9786  26.855  18.294   7.650
 3808POPC   C1B 9787  27.045  18.424   8.550
 3808POPC   C2B 9788  27.045  18.428   8.250
 3808POPC   C3B 9789  27.079  18.385   7.950
 3808POPC   C4B 9790  27.064  18.377   7.650
 3809POPC   NC3 9791  30.672  25.244   9.450
 3809POPC   PO4 9792  30.682  25.257   9.150
 3809POPC   GL1 9793  30.689  25.294   8.850
 3809POPC   GL2 9794  30.797  25.277   8.850
 3809POPC   C1A 9795  30.689  25.313   8.550
 3809POPC   D2A 9796  30.739  25.297   8.250
 3809POPC   C3A 9797  30.741  25.251   7.950
 3809POPC   C4A 9798  30.669  25.267   7.650
 3809POPC   C1B 9799  30.981  25.175   8.550
 3809POPC   C2B 9800  30.924  25.255   8.250
 3809POPC   C3B 9801  30.960  25.168   7.950
 3809POPC   C4B 9802  30.891  25.175   7.650
 3810POPC   NC3 9803  40.824  26.020   9.450
 3810POPC   PO4 9804  40.820  26.033   9.150
 3810POPC   GL1 9805  40.750  26.050   8.850
 3810POPC   GL2 9806  40.723  26.171   8.850
 3810POPC   C1A 9807  40.805  26.060   8.550
 3810POPC   D2A 9808  40.760  26.042   8.250
 3810POPC   C3A 9809  40.765  26.029   7.950
 3810POPC   C4A 9810  40.825  26.020   7.650
 3810POPC   C1B 9811  40.554  26.199   8.550
 3810POPC   C2B 9812  40.615  26.213   8.250
 3810POPC   C3B 9813  40.628  26.175   7.950
 3810POPC   C4B 9814  40.628  26.248   7.650
 3811POPC   NC3 9815  21.388  13.651   9.450
 3811POPC   PO4 9816  21.357  13.627   9.150
 3811POPC   GL1 9817  21.423  13.629   8.850
 3811POPC   GL2 9818  21.491  13.707   8.850
 3811POPC   C1A 9819  21.365  13.595   8.550
 3811POPC   D2A 9820  21.388  13.663   8.250
 3811POPC   C3A 9821  21.429  13.625   7.950
 3811POPC   C4A 9822  21.361  13.586   7.650
 3811POPC   C1B 9823  21.509  13.815   8.550
 3811POPC   C2B 9824  21.487  13.885   8.250
 3811POPC   C3B 9825  21.475  13.820   7.950
 3811POPC   C4B 9826  21.541  13.875   7.650
 3812POPC   NC3 9827  34.615   8.218   9.450
 3812POPC   PO4 9828  34.546   8.209   9.150
 3812POPC   GL1 9829  34.576   8.205   8.850
 3812POPC   GL2 9830  34.663   8.151   8.850
 3812POPC   C1A 9831  34.592   8.163   8.550
 3812POPC   D2A 9832  34.555   8.201   8.250
 3812POPC   C3A 9833  34.593   8.156   7.950
 3812POPC   C4A 9834  34.562   8.204   7.650
 3812POPC   C1B 9835  34.791   8.128   8.550
 3812POPC   C2B 9836  34.792   8.133   8.250
 3812POPC   C3B 9837  34.853   8.106   7.950
 3812POPC   C4B 9838  34.852   8.127   7.650
 3813POPC   NC3 9839  25.273  35.302   9.450
 3813POPC   PO4 9840  25.303  35.335   9.150
 3813POPC   GL1 9841  25.287  35.326   8.850
 3813POPC   GL2 9842  25.379  35.248   8.850
 3813POPC   C1A 9843  25.308  35.313   8.550
 3813POPC   D2A 9844  25.244  35.361   8.250
 3813POPC   C3A 9845  25.306  35.321   7.950
 3813POPC   C4A 9846  25.305  35.307   7.650
 3813POPC   C1B 9847  25.470  35.230   8.550
 3813POPC   C2B 9848  25.485  35.178   8.250
 3813POPC   C3B 9849  25.421  35.180   7.950
 3813POPC   C4B 9850  25.436  35.189   7.650
 3814POPC   NC3 9851  32.204  30.725   9.450
 3814POPC   PO4 9852  32.295  30.736   9.150
 3814POPC   GL1 9853  32.240  30.719   8.850
 3814POPC   GL2 9854  32.175  30.689   8.850
 3814POPC   C1A 9855  32.200  30.659   8.550
 3814POPC   D2A 9856  32.227  30.650   8.250
 3814POPC   C3A 9857  32.225  30.677   7.950
 3814POPC   C4A 9858  32.199  30.681   7.650
 3814POPC   C1B 9859  32.040  30.633   8.550
 3814POPC   C2B 9860  31.976  30.539   8.250
 3814POPC   C3B 9861  31.980  30.622   7.950
 3814POPC   C4B 9862  32.035  30.622   7.650
 3815POPC   NC3 9863  44.692  40.791   9.450
 3815POPC   PO4 9864  44.644  40.804   9.150
 3815POPC   GL1 9865  44.657  40.791   8.850
 3815POPC   GL2 9866  44.709  40.824   8.850
 3815POPC   C1A 9867  44.637  40.742   8.550
 3815POPC   D2A 9868  44.689  40.761   8.250
 3815POPC   C3A 9869  44.652  40.819   7.950
 3815POPC   C4A 9870  44.685  40.769   7.650
 3815POPC   C1B 9871  44.831  40.980   8.550
 3815POPC   C2B 9872  44.892  40.925   8.250
 3815POPC   C3B 9873  44.834  40.960   7.950
 3815POPC   C4B 9874  44.868  40.915   7.650
 3816POPC   NC3 9875  32.269  39.244   9.450
 3816POPC   PO4 9876  32.223  39.230   9.150
 3816POPC   GL1 9877  32.265  39.191   8.850
 3816POPC   GL2 9878  32.338  39.173   8.850
 3816POPC   C1A 9879  32.223  39.199   8.550
 3816POPC   D2A 9880  32.253  39.255   8.250
 3816POPC   C3A 9881  32.279  39.220   7.950
 3816POPC   C4A 9882  32.229  39.277   7.650
 3816POPC   C1B 9883  32.413  39.008   8.550
 3816POPC   C2B 9884  32.358  39.035   8.250
 3816POPC   C3B 9885  32.343  39.019   7.950
 3816POPC   C4B 9886  32.396  39.070   7.650
 3817POPC   NC3 9887  29.153   0.483   9.450
 3817POPC   PO4 9888  29.148   0.439   9.150
 3817POPC   GL1 9889  29.159   0.479   8.850
 3817POPC   GL2 9890  29.196   0.539   8.850
 3817POPC   C1A 9891  29.188   0.455   8.550
 3817POPC   D2A 9892  29.139   0.441   8.250
 3817POPC   C3A 9893  29.117   0.415   7.950
 3817POPC   C4A 9894  29.097   0.390   7.650
 3817POPC   C1B 9895  29.223   0.660   8.550
 3817POPC   C2B 9896  29.236   0.671   8.250
 3817POPC   C3B 9897  29.234   0.675   7.950
 3817POPC   C4B 9898  29.221   0.663   7.650
 3818POPC   NC3 9899   7.443  24.477   9.450
 3818POPC   PO4 9900   7.388  24.504   9.150
 3818POPC   GL1 9901   7.414  24.520   8.850
 3818POPC   GL2 9902   7.280  24.546   8.850
 3818POPC   C1A 9903   7.456  24.466   8.550
 3818POPC   D2A 9904   7.459  24.476   8.250
 3818POPC   C3A 9905   7.409  24.488   7.950
 3818POPC   C4A 9906   7.442  24.517   7.650
 3818POPC   C1B 9907   7.183  24.548   8.550
 3818POPC   C2B 9908   7.177  24.545   8.250
 3818POPC   C3B 9909   7.148  24.511   7.950
 3818POPC   C4B 9910   7.219  24.528   7.650
 3819POPC   NC3 9911  29.165   8.222   9.450
 3819POPC   PO4 9912  29.113   8.233   9.150
 3819POPC   GL1 9913  29.169   8.231   8.850
 3819POPC   GL2 9914  29.238   8.179   8.850
 3819POPC   C1A 9915  29.114   8.154   8.550
 3819POPC   D2A 9916  29.120   8.175   8.250
 3819POPC   C3A 9917  29.143   8.225   7.950
 3819POPC   C4A 9918  29.116   8.156   7.650
 3819POPC   C1B 9919  29.346   8.134   8.550
 3819POPC   C2B 9920  29.397   8.064   8.250
 3819POPC   C3B 9921  29.356   8.110   7.950
 3819POPC   C4B 9922  29.344   8.109   7.650
 3820POPC   NC3 9923  12.102   9.759   9.450
 3820POPC   PO4 9924  12.124   9.731   9.150
 3820POPC   GL1 9925  12.060   9.725   8.850
 3820POPC   GL2 9926  12.010   9.830   8.850
 3820POPC   C1A 9927  12.048   9.751   8.550
 3820POPC   D2A 9928  12.086   9.706   8.250
 3820POPC   C3A 9929  12.049   9.716   7.950
 3820POPC   C4A 9930  12.052   9.776   7.650
 3820POPC   C1B 9931  12.019   9.934   8.550
 3820POPC   C2B 9932  11.984   9.940   8.250
 3820POPC   C3B 9933  11.983   9.931   7.950
 3820POPC   C4B 9934  11.928   9.938   7.650
 3821POPC   NC3 9935  22.141   9.013   9.450
 3821POPC   PO4 9936  22.172   9.001   9.150
 3821POPC   GL1 9937  22.122   8.971   8.850
 3821POPC   GL2 9938  22.051   8.912   8.850
 3821POPC   C1A 9939  22.196   8.978   8.550
 3821POPC   D2A 9940  22.177   9.018   8.250
 3821POPC   C3A 9941  22.171   8.972   7.950
 3821POPC   C4A 9942  22.207   9.000   7.650
 3821POPC   C1B 9943  22.015   8.791   8.550
 3821POPC   C2B 9944  21.943   8.822   8.250
 3821POPC   C3B 9945  21.941   8.864   7.950
 3821POPC   C4B 9946  22.012   8.848   7.650
 3822POPC   NC3 9947  30.697  38.464   9.450
 3822POPC   PO4 9948  30.685  38.406   9.150
 3822POPC   GL1 9949  30.685  38.458   8.850
 3822POPC   GL2 9950  30.587  38.393   8.850
 3822POPC   C1A 9951  30.744  38.498   8.550
 3822POPC   D2A 9952  30.674  38.500   8.250
 3822POPC   C3A 9953  30.651  38.411   7.950
 3822POPC   C4A 9954  30.665  38.498   7.650
 3822POPC   C1B 9955  30.521  38.201   8.550
 3822POPC   C2B 9956  30.578  38.262   8.250
 3822POPC   C3B 9957  30.551  38.269   7.950
 3822POPC   C4B 9958  30.517  38.197   7.650
 3823POPC   NC3 9959  21.361  33.803   9.450
 3823POPC   PO4 9960  21.376  33.838   9.150
 3823POPC   GL1 9961  21.356  33.755   8.850
 3823POPC   GL2 9962  21.458  33.844   8.850
 3823POPC   C1A 9963  21.423  33.761   8.550
 3823POPC   D2A 9964  21.357  33.797   8.250
 3823POPC   C3A 9965  21.348  33.786   7.950
 3823POPC   C4A 9966  21.366  33.833   7.650
 3823POPC   C1B 9967  21.577  33.922   8.550
 3823POPC   C2B 9968  21.594  33.970   8.250
 3823POPC   C3B 9969  21.579  33.928   7.950
 3823POPC   C4B 9970  21.585  33.941   7.650
 3824POPC   NC3 9971  19.011  25.255   9.450
 3824POPC   PO4 9972  19.051  25.242   9.150
 3824POPC   GL1 9973  19.096  25.283   8.850
 3824POPC   GL2 9974  18.938  25.220   8.850
 3824POPC   C1A 9975  19.038  25.273   8.550
 3824POPC   D2A 9976  19.027  25.291   8.250
 3824POPC   C3A 9977  19.098  25.275   7.950
 3824POPC   C4A 9978  19.064  25.306   7.650
 3824POPC   C1B 9979  18.842  25.140   8.550
 3824POPC   C2B 9980  18.812  25.155   8.250
 3824POPC   C3B 9981  18.868  25.136   7.950
 3824POPC   C4B 9982  18.808  25.158   7.650
 3825POPC   NC3 9983  18.298  27.616   9.450
 3825POPC   PO4 9984  18.331  27.609   9.150
 3825POPC   GL1 9985  18.315  27.602   8.850
 3825POPC   GL2 9986  18.315  27.684   8.850
 3825POPC   C1A 9987  18.236  27.584   8.550
 3825POPC   D2A 9988  18.251  27.638   8.250
 3825POPC   C3A 9989  18.244  27.592   7.950
 3825POPC   C4A 9990  18.271  27.552   7.650
 3825POPC   C1B 9991  18.379  27.823   8.550
 3825POPC   C2B 9992  18.385  27.796   8.250
 3825POPC   C3B 9993  18.353  27.849   7.950
 3825POPC   C4B 9994  18.373  27.836   7.650
 3826POPC   NC3 9995  29.904   4.344   9.450
 3826POPC   PO4 9996  29.932   4.326   9.150
 3826POPC   GL1 9997  29.950   4.312   8.850
 3826POPC   GL2 9998  29.917   4.169   8.850
 3826POPC   C1A 9999  29.927   4.286   8.550
 3826POPC   D2A10000  29.906   4.355   8.250
 3826POPC   C3A10001  29.899   4.276   7.950
 3826POPC   C4A10002  29.931   4.289   7.650
 3826POPC   C1B10003  29.920   4.082   8.550
 3826POPC   C2B10004  29.896   4.051   8.250
 3826POPC   C3B10005  29.923   4.102   7.950
 3826POPC   C4B10006  29.884   4.022   7.650
 3827POPC   NC310007   2.723   2.812   9.450
 3827POPC   PO410008   2.746   2.801   9.150
 3827POPC   GL110009   2.767   2.745   8.850
 3827POPC   GL210010   2.873   2.652   8.850
 3827POPC   C1A10011   2.763   2.732   8.550
 3827POPC   D2A10012   2.804   2.796   8.250
 3827POPC   C3A10013   2.740   2.793   7.950
 3827POPC   C4A10014   2.720   2.726   7.650
 3827POPC   C1B10015   3.011   2.609   8.550
 3827POPC   C2B10016   2.976   2.651   8.250
 3827POPC   C3B10017   2.916   2.618   7.950
 3827POPC   C4B10018   2.918   2.619   7.650
 3828POPC   NC310019  33.848  33.777   9.450
 3828POPC   PO410020  33.791  33.771   9.150
 3828POPC   GL110021  33.782  33.818   8.850
 3828POPC   GL210022  33.773  33.675   8.850
 3828POPC   C1A10023  33.808  33.779   8.550
 3828POPC   D2A10024  33.809  33.758   8.250
 3828POPC   C3A10025  33.798  33.782   7.950
 3828POPC   C4A10026  33.789  33.801   7.650
 3828POPC   C1B10027  33.780  33.561   8.550
 3828POPC   C2B10028  33.799  33.597   8.250
 3828POPC   C3B10029  33.751  33.569   7.950
 3828POPC   C4B10030  33.822  33.509   7.650
 3829POPC   NC310031  11.332  22.115   9.450
 3829POPC   PO410032  11.296  22.112   9.150
 3829POPC   GL110033  11.282  22.126   8.850
 3829POPC   GL210034  11.254  22.240   8.850
 3829POPC   C1A10035  11.308  22.168   8.550
 3829POPC   D2A10036  11.276  22.121   8.250
 3829POPC   C3A10037  11.319  22.194   7.950
 3829POPC   C4A10038  11.335  22.125   7.650
 3829POPC   C1B10039  11.165  22.295   8.550
 3829POPC   C2B10040  11.131  22.379   8.250
 3829POPC   C3B10041  11.093  22.387   7.950
 3829POPC   C4B10042  11.096  22.365   7.650
 3830POPC   NC310043  33.754  23.679   9.450
 3830POPC   PO410044  33.799  23.752   9.150
 3830POPC   GL110045  33.826  23.690   8.850
 3830POPC   GL210046  33.643  23.604   8.850
 3830POPC   C1A10047  33.848  23.709   8.550
 3830POPC   D2A10048  33.773  23.757   8.250
 3830POPC   C3A10049  33.813  23.697   7.950
 3830POPC   C4A10050  33.756  23.733   7.650
 3830POPC   C1B10051  33.581  23.613   8.550
 3830POPC   C2B10052  33.624  23.597   8.250
 3830POPC   C3B10053  33.543  23.616   7.950
 3830POPC   C4B10054  33.603  23.590   7.650
 3831POPC   NC310055  15.966  34.602   9.450
 3831POPC   PO410056  15.952  34.551   9.150
 3831POPC   GL110057  15.942  34.607   8.850
 3831POPC   GL210058  16.056  34.691   8.850
 3831POPC   C1A10059  15.985  34.588   8.550
 3831POPC   D2A10060  15.927  34.576   8.250
 3831POPC   C3A10061  15.978  34.593   7.950
 3831POPC   C4A10062  15.934  34.620   7.650
 3831POPC   C1B10063  16.047  34.827   8.550
 3831POPC   C2B10064  16.057  34.827   8.250
 3831POPC   C3B10065  16.062  34.822   7.950
 3831POPC   C4B10066  16.027  34.838   7.650
 3832POPC   NC310067  19.826  39.201   9.450
 3832POPC   PO410068  19.790  39.230   9.150
 3832POPC   GL110069  19.867  39.219   8.850
 3832POPC   GL210070  19.688  39.332   8.850
 3832POPC   C1A10071  19.821  39.247   8.550
 3832POPC   D2A10072  19.795  39.270   8.250
 3832POPC   C3A10073  19.798  39.274   7.950
 3832POPC   C4A10074  19.872  39.264   7.650
 3832POPC   C1B10075  19.644  39.340   8.550
 3832POPC   C2B10076  19.625  39.348   8.250
 3832POPC   C3B10077  19.595  39.396   7.950
 3832POPC   C4B10078  19.656  39.352   7.650
 3833POPC   NC310079  24.498  25.246   9.450
 3833POPC   PO410080  24.457  25.272   9.150
 3833POPC   GL110081  24.492  25.263   8.850
 3833POPC   GL210082  24.573  25.229   8.850
 3833POPC   C1A10083  24.459  25.269   8.550
 3833POPC   D2A10084  24.479  25.250   8.250
 3833POPC   C3A10085  24.538  25.297   7.950
 3833POPC   C4A10086  24.501  25.244   7.650
 3833POPC   C1B10087  24.688  25.185   8.550
 3833POPC   C2B10088  24.716  25.232   8.250
 3833POPC   C3B10089  24.761  25.170   7.950
 3833POPC   C4B10090  24.748  25.263   7.650
 3834POPC   NC310091  12.836   2.802   9.450
 3834POPC   PO410092  12.889   2.758   9.150
 3834POPC   GL110093  12.855   2.773   8.850
 3834POPC   GL210094  12.818   2.633   8.850
 3834POPC   C1A10095  12.827   2.777   8.550
 3834POPC   D2A10096  12.871   2.780   8.250
 3834POPC   C3A10097  12.883   2.779   7.950
 3834POPC   C4A10098  12.900   2.739   7.650
 3834POPC   C1B10099  12.710   2.568   8.550
 3834POPC   C2B10100  12.690   2.552   8.250
 3834POPC   C3B10101  12.747   2.542   7.950
 3834POPC   C4B10102  12.728   2.589   7.650
 3835POPC   NC310103  18.236  33.020   9.450
 3835POPC   PO410104  18.235  33.035   9.150
 3835POPC   GL110105  18.248  33.032   8.850
 3835POPC   GL210106  18.362  32.973   8.850
 3835POPC   C1A10107  18.297  33.061   8.550
 3835POPC   D2A10108  18.314  32.990   8.250
 3835POPC   C3A10109  18.237  33.016   7.950
 3835POPC   C4A10110  18.299  33.015   7.650
 3835POPC   C1B10111  18.561  33.012   8.550
 3835POPC   C2B10112  18.524  33.004   8.250
 3835POPC   C3B10113  18.568  33.039   7.950
 3835POPC   C4B10114  18.507  33.002   7.650
 3836POPC   NC310115  43.113  10.490   9.450
 3836POPC   PO410116  43.120  10.528   9.150
 3836POPC   GL110117  43.076  10.507   8.850
 3836POPC   GL210118  42.983  10.567   8.850
 3836POPC   C1A10119  43.160  10.509   8.550
 3836POPC   D2A10120  43.142  10.569   8.250
 3836POPC   C3A10121  43.134  10.558   7.950
 3836POPC   C4A10122  43.142  10.557   7.650
 3836POPC   C1B10123  42.909  10.681   8.550
 3836POPC   C2B10124  42.949  10.651   8.250
 3836POPC   C3B10125  42.890  10.727   7.950
 3836POPC   C4B10126  42.949  10.728   7.650
 3837POPC   NC310127  17.458  36.126   9.450
 3837POPC   PO410128  17.485  36.171   9.150
 3837POPC   GL110129  17.511  36.098   8.850
 3837POPC   GL210130  17.638  36.080   8.850
 3837POPC   C1A10131  17.530  36.128   8.550
 3837POPC   D2A10132  17.484  36.094   8.250
 3837POPC   C3A10133  17.533  36.089   7.950
 3837POPC   C4A10134  17.538  36.163   7.650
 3837POPC   C1B10135  17.727  35.980   8.550
 3837POPC   C2B10136  17.672  35.968   8.250
 3837POPC   C3B10137  17.755  35.959   7.950
 3837POPC   C4B10138  17.749  35.955   7.650
 3838POPC   NC310139  19.873   0.441   9.450
 3838POPC   PO410140  19.862   0.425   9.150
 3838POPC   GL110141  19.813   0.430   8.850
 3838POPC   GL210142  19.815   0.535   8.850
 3838POPC   C1A10143  19.813   0.389   8.550
 3838POPC   D2A10144  19.813   0.416   8.250
 3838POPC   C3A10145  19.802   0.481   7.950
 3838POPC   C4A10146  19.853   0.429   7.650
 3838POPC   C1B10147  19.851   0.688   8.550
 3838POPC   C2B10148  19.929   0.707   8.250
 3838POPC   C3B10149  19.914   0.689   7.950
 3838POPC   C4B10150  19.905   0.651   7.650
 3839POPC   NC310151   7.448  21.339   9.450
 3839POPC   PO410152   7.440  21.382   9.150
 3839POPC   GL110153   7.435  21.352   8.850
 3839POPC   GL210154   7.408  21.221   8.850
 3839POPC   C1A10155   7.424  21.393   8.550
 3839POPC   D2A10156   7.431  21.420   8.250
 3839POPC   C3A10157   7.436  21.377   7.950
 3839POPC   C4A10158   7.381  21.374   7.650
 3839POPC   C1B10159   7.491  21.195   8.550
 3839POPC   C2B10160   7.518  21.138   8.250
 3839POPC   C3B10161   7.536  21.120   7.950
 3839POPC   C4B10162   7.453  21.194   7.650
 3840POPC   NC310163   3.587  33.024   9.450
 3840POPC   PO410164   3.508  32.974   9.150
 3840POPC   GL110165   3.533  33.008   8.850
 3840POPC   GL210166   3.639  32.929   8.850
 3840POPC   C1A10167   3.568  33.004   8.550
 3840POPC   D2A10168   3.497  33.055   8.250
 3840POPC   C3A10169   3.582  33.016   7.950
 3840POPC   C4A10170   3.532  33.059   7.650
 3840POPC   C1B10171   3.652  32.798   8.550
 3840POPC   C2B10172   3.717  32.798   8.250
 3840POPC   C3B10173   3.736  32.811   7.950
 3840POPC   C4B10174   3.640  32.869   7.650
 3841POPC   NC310175  35.366  44.626   9.450
 3841POPC   PO410176  35.319  44.670   9.150
 3841POPC   GL110177  35.313  44.655   8.850
 3841POPC   GL210178  35.233  44.683   8.850
 3841POPC   C1A10179  35.303  44.698   8.550
 3841POPC   D2A10180  35.323  44.696   8.250
 3841POPC   C3A10181  35.323  44.702   7.950
 3841POPC   C4A10182  35.387  44.644   7.650
 3841POPC   C1B10183  35.095  44.629   8.550
 3841POPC   C2B10184  35.134  44.605   8.250
 3841POPC   C3B10185  35.155  44.627   7.950
 3841POPC   C4B10186  35.124  44.612   7.650
 3842POPC   NC310187  29.919  44.636   9.450
 3842POPC   PO410188  29.912  44.676   9.150
 3842POPC   GL110189  29.906  44.641   8.850
 3842POPC   GL210190  29.809  44.758   8.850
 3842POPC   C1A10191  29.953  44.678   8.550
 3842POPC   D2A10192  29.932  44.682   8.250
 3842POPC   C3A10193  29.947  44.624   7.950
 3842POPC   C4A10194  29.943  44.669   7.650
 3842POPC   C1B10195  29.716  44.873   8.550
 3842POPC   C2B10196  29.784  44.855   8.250
 3842POPC   C3B10197  29.713  44.863   7.950
 3842POPC   C4B10198  29.783  44.817   7.650
 3843POPC   NC310199  20.645  37.689   9.450
 3843POPC   PO410200  20.585  37.690   9.150
 3843POPC   GL110201  20.646  37.690   8.850
 3843POPC   GL210202  20.467  37.717   8.850
 3843POPC   C1A10203  20.623  37.694   8.550
 3843POPC   D2A10204  20.574  37.660   8.250
 3843POPC   C3A10205  20.569  37.660   7.950
 3843POPC   C4A10206  20.617  37.663   7.650
 3843POPC   C1B10207  20.366  37.815   8.550
 3843POPC   C2B10208  20.392  37.752   8.250
 3843POPC   C3B10209  20.336  37.814   7.950
 3843POPC   C4B10210  20.376  37.740   7.650
 3844POPC   NC310211  43.095   7.455   9.450
 3844POPC   PO410212  43.103   7.460   9.150
 3844POPC   GL110213  43.146   7.445   8.850
 3844POPC   GL210214  42.963   7.454   8.850
 3844POPC   C1A10215  43.116   7.435   8.550
 3844POPC   D2A10216  43.145   7.378   8.250
 3844POPC   C3A10217  43.144   7.445   7.950
 3844POPC   C4A10218  43.159   7.419   7.650
 3844POPC   C1B10219  42.877   7.406   8.550
 3844POPC   C2B10220  42.840   7.393   8.250
 3844POPC   C3B10221  42.857   7.398   7.950
 3844POPC   C4B10222  42.842   7.395   7.650
 3845POPC   NC310223  40.767   5.104   9.450
 3845POPC   PO410224  40.801   5.140   9.150
 3845POPC   GL110225  40.829   5.137   8.850
 3845POPC   GL210226  40.720   5.008   8.850
 3845POPC   C1A10227  40.750   5.093   8.550
 3845POPC   D2A10228  40.818   5.122   8.250
 3845POPC   C3A10229  40.798   5.115   7.950
 3845POPC   C4A10230  40.809   5.132   7.650
 3845POPC   C1B10231  40.683   4.847   8.550
 3845POPC   C2B10232  40.655   4.908   8.250
 3845POPC   C3B10233  40.668   4.835   7.950
 3845POPC   C4B10234  40.675   4.901   7.650
 3846POPC   NC310235  26.051   1.226   9.450
 3846POPC   PO410236  26.003   1.166   9.150
 3846POPC   GL110237  26.001   1.256   8.850
 3846POPC   GL210238  26.006   1.315   8.850
 3846POPC   C1A10239  26.059   1.225   8.550
 3846POPC   D2A10240  26.074   1.208   8.250
 3846POPC   C3A10241  26.057   1.238   7.950
 3846POPC   C4A10242  26.013   1.256   7.650
 3846POPC   C1B10243  25.965   1.441   8.550
 3846POPC   C2B10244  25.983   1.496   8.250
 3846POPC   C3B10245  26.024   1.437   7.950
 3846POPC   C4B10246  26.033   1.410   7.650
 3847POPC   NC310247   2.018  36.104   9.450
 3847POPC   PO410248   2.031  36.093   9.150
 3847POPC   GL110249   2.033  36.089   8.850
 3847POPC   GL210250   2.112  36.071   8.850
 3847POPC   C1A10251   2.034  36.125   8.550
 3847POPC   D2A10252   1.954  36.122   8.250
 3847POPC   C3A10253   1.951  36.115   7.950
 3847POPC   C4A10254   2.029  36.122   7.650
 3847POPC   C1B10255   2.279  36.150   8.550
 3847POPC   C2B10256   2.217  36.153   8.250
 3847POPC   C3B10257   2.225  36.098   7.950
 3847POPC   C4B10258   2.258  36.099   7.650
 3848POPC   NC310259  31.516   8.173   9.450
 3848POPC   PO410260  31.428   8.222   9.150
 3848POPC   GL110261  31.485   8.209   8.850
 3848POPC   GL210262  31.304   8.236   8.850
 3848POPC   C1A10263  31.510   8.209   8.550
 3848POPC   D2A10264  31.518   8.221   8.250
 3848POPC   C3A10265  31.493   8.195   7.950
 3848POPC   C4A10266  31.522   8.186   7.650
 3848POPC   C1B10267  31.241   8.220   8.550
 3848POPC   C2B10268  31.208   8.200   8.250
 3848POPC   C3B10269  31.192   8.230   7.950
 3848POPC   C4B10270  31.189   8.216   7.650
 3849POPC   NC310271  39.193  21.363   9.450
 3849POPC   PO410272  39.225  21.410   9.150
 3849POPC   GL110273  39.257  21.352   8.850
 3849POPC   GL210274  39.226  21.540   8.850
 3849POPC   C1A10275  39.230  21.403   8.550
 3849POPC   D2A10276  39.197  21.432   8.250
 3849POPC   C3A10277  39.225  21.366   7.950
 3849POPC   C4A10278  39.216  21.345   7.650
 3849POPC   C1B10279  39.149  21.606   8.550
 3849POPC   C2B10280  39.117  21.633   8.250
 3849POPC   C3B10281  39.177  21.624   7.950
 3849POPC   C4B10282  39.167  21.576   7.650
 3850POPC   NC310283  39.256  15.952   9.450
 3850POPC   PO410284  39.262  15.965   9.150
 3850POPC   GL110285  39.252  15.969   8.850
 3850POPC   GL210286  39.211  16.102   8.850
 3850POPC   C1A10287  39.194  15.949   8.550
 3850POPC   D2A10288  39.252  15.949   8.250
 3850POPC   C3A10289  39.225  15.997   7.950
 3850POPC   C4A10290  39.225  15.945   7.650
 3850POPC   C1B10291  39.145  16.202   8.550
 3850POPC   C2B10292  39.185  16.167   8.250
 3850POPC   C3B10293  39.136  16.162   7.950
 3850POPC   C4B10294  39.176  16.157   7.650
 3851POPC   NC310295  30.660   1.985   9.450
 3851POPC   PO410296  30.662   1.967   9.150
 3851POPC   GL110297  30.688   2.005   8.850
 3851POPC   GL210298  30.608   2.017   8.850
 3851POPC   C1A10299  30.733   1.974   8.550
 3851POPC   D2A10300  30.722   1.965   8.250
 3851POPC   C3A10301  30.742   1.941   7.950
 3851POPC   C4A10302  30.696   1.992   7.650
 3851POPC   C1B10303  30.440   1.975   8.550
 3851POPC   C2B10304  30.493   2.054   8.250
 3851POPC   C3B10305  30.479   1.989   7.950
 3851POPC   C4B10306  30.472   2.060   7.650
 3852POPC   NC310307  26.846  44.632   9.450
 3852POPC   PO410308  26.805  44.647   9.150
 3852POPC   GL110309  26.825  44.685   8.850
 3852POPC   GL210310  26.833  44.512   8.850
 3852POPC   C1A10311  26.841  44.683   8.550
 3852POPC   D2A10312  26.863  44.679   8.250
 3852POPC   C3A10313  26.840  44.674   7.950
 3852POPC   C4A10314  26.784  44.659   7.650
 3852POPC   C1B10315  26.813  44.458   8.550
 3852POPC   C2B10316  26.782  44.434   8.250
 3852POPC   C3B10317  26.824  44.429   7.950
 3852POPC   C4B10318  26.829  44.376   7.650
 3853POPC   NC310319   0.411  26.839   9.450
 3853POPC   PO410320   0.462  26.862   9.150
 3853POPC   GL110321   0.413  26.776   8.850
 3853POPC   GL210322   0.518  26.823   8.850
 3853POPC   C1A10323   0.449  26.812   8.550
 3853POPC   D2A10324   0.413  26.770   8.250
 3853POPC   C3A10325   0.423  26.776   7.950
 3853POPC   C4A10326   0.437  26.843   7.650
 3853POPC   C1B10327   0.659  26.815   8.550
 3853POPC   C2B10328   0.694  26.788   8.250
 3853POPC   C3B10329   0.668  26.800   7.950
 3853POPC   C4B10330   0.651  26.821   7.650
 3854POPC   NC310331  21.353   1.228   9.450
 3854POPC   PO410332  21.346   1.212   9.150
 3854POPC   GL110333  21.424   1.262   8.850
 3854POPC   GL210334  21.411   1.123   8.850
 3854POPC   C1A10335  21.365   1.183   8.550
 3854POPC   D2A10336  21.424   1.233   8.250
 3854POPC   C3A10337  21.336   1.165   7.950
 3854POPC   C4A10338  21.338   1.252   7.650
 3854POPC   C1B10339  21.336   1.004   8.550
 3854POPC   C2B10340  21.411   0.941   8.250
 3854POPC   C3B10341  21.351   1.012   7.950
 3854POPC   C4B10342  21.397   0.994   7.650
 3855POPC   NC310343  16.772  38.409   9.450
 3855POPC   PO410344  16.749  38.434   9.150
 3855POPC   GL110345  16.767  38.477   8.850
 3855POPC   GL210346  16.838  38.371   8.850
 3855POPC   C1A10347  16.697  38.411   8.550
 3855POPC   D2A10348  16.681  38.481   8.250
 3855POPC   C3A10349  16.742  38.424   7.950
 3855POPC   C4A10350  16.768  38.477   7.650
 3855POPC   C1B10351  16.952  38.286   8.550
 3855POPC   C2B10352  16.937  38.314   8.250
 3855POPC   C3B10353  16.974  38.299   7.950
 3855POPC   C4B10354  16.949  38.279   7.650
 3856POPC   NC310355  29.907  36.091   9.450
 3856POPC   PO410356  29.924  36.152   9.150
 3856POPC   GL110357  29.949  36.124   8.850
 3856POPC   GL210358  30.047  36.035   8.850
 3856POPC   C1A10359  29.891  36.136   8.550
 3856POPC   D2A10360  29.879  36.143   8.250
 3856POPC   C3A10361  29.966  36.155   7.950
 3856POPC   C4A10362  29.971  36.151   7.650
 3856POPC   C1B10363  30.150  35.993   8.550
 3856POPC   C2B10364  30.172  36.084   8.250
 3856POPC   C3B10365  30.194  36.016   7.950
 3856POPC   C4B10366  30.138  36.060   7.650
 3857POPC   NC310367  14.422  25.274   9.450
 3857POPC   PO410368  14.381  25.257   9.150
 3857POPC   GL110369  14.426  25.278   8.850
 3857POPC   GL210370  14.281  25.320   8.850
 3857POPC   C1A10371  14.381  25.287   8.550
 3857POPC   D2A10372  14.429  25.249   8.250
 3857POPC   C3A10373  14.367  25.260   7.950
 3857POPC   C4A10374  14.393  25.265   7.650
 3857POPC   C1B10375  14.208  25.389   8.550
 3857POPC   C2B10376  14.175  25.384   8.250
 3857POPC   C3B10377  14.125  25.292   7.950
 3857POPC   C4B10378  14.117  25.391   7.650
 3858POPC   NC310379  13.643  15.162   9.450
 3858POPC   PO410380  13.578  15.202   9.150
 3858POPC   GL110381  13.592  15.136   8.850
 3858POPC   GL210382  13.467  15.112   8.850
 3858POPC   C1A10383  13.640  15.140   8.550
 3858POPC   D2A10384  13.579  15.139   8.250
 3858POPC   C3A10385  13.604  15.138   7.950
 3858POPC   C4A10386  13.666  15.179   7.650
 3858POPC   C1B10387  13.343  15.154   8.550
 3858POPC   C2B10388  13.337  15.125   8.250
 3858POPC   C3B10389  13.428  15.129   7.950
 3858POPC   C4B10390  13.397  15.065   7.650
 3859POPC   NC310391  36.940  21.368   9.450
 3859POPC   PO410392  36.940  21.373   9.150
 3859POPC   GL110393  36.863  21.430   8.850
 3859POPC   GL210394  36.974  21.419   8.850
 3859POPC   C1A10395  36.953  21.358   8.550
 3859POPC   D2A10396  36.875  21.418   8.250
 3859POPC   C3A10397  36.921  21.392   7.950
 3859POPC   C4A10398  36.862  21.386   7.650
 3859POPC   C1B10399  37.156  21.566   8.550
 3859POPC   C2B10400  37.143  21.493   8.250
 3859POPC   C3B10401  37.110  21.491   7.950
 3859POPC   C4B10402  37.163  21.555   7.650
 3860POPC   NC310403   5.897  20.622   9.450
 3860POPC   PO410404   5.907  20.582   9.150
 3860POPC   GL110405   5.870  20.633   8.850
 3860POPC   GL210406   5.799  20.679   8.850
 3860POPC   C1A10407   5.820  20.639   8.550
 3860POPC   D2A10408   5.871  20.628   8.250
 3860POPC   C3A10409   5.860  20.645   7.950
 3860POPC   C4A10410   5.865  20.604   7.650
 3860POPC   C1B10411   5.673  20.736   8.550
 3860POPC   C2B10412   5.648  20.747   8.250
 3860POPC   C3B10413   5.651  20.800   7.950
 3860POPC   C4B10414   5.690  20.815   7.650
 3861POPC   NC310415  23.676  17.494   9.450
 3861POPC   PO410416  23.708  17.466   9.150
 3861POPC   GL110417  23.730  17.474   8.850
 3861POPC   GL210418  23.737  17.425   8.850
 3861POPC   C1A10419  23.673  17.546   8.550
 3861POPC   D2A10420  23.681  17.540   8.250
 3861POPC   C3A10421  23.698  17.527   7.950
 3861POPC   C4A10422  23.732  17.491   7.650
 3861POPC   C1B10423  23.804  17.292   8.550
 3861POPC   C2B10424  23.862  17.233   8.250
 3861POPC   C3B10425  23.799  17.324   7.950
 3861POPC   C4B10426  23.863  17.301   7.650
 3862POPC   NC310427   9.795  27.580   9.450
 3862POPC   PO410428   9.759  27.638   9.150
 3862POPC   GL110429   9.784  27.639   8.850
 3862POPC   GL210430   9.703  27.684   8.850
 3862POPC   C1A10431   9.723  27.619   8.550
 3862POPC   D2A10432   9.725  27.550   8.250
 3862POPC   C3A10433   9.793  27.550   7.950
 3862POPC   C4A10434   9.702  27.595   7.650
 3862POPC   C1B10435   9.702  27.869   8.550
 3862POPC   C2B10436   9.687  27.850   8.250
 3862POPC   C3B10437   9.614  27.856   7.950
 3862POPC   C4B10438   9.669  27.810   7.650
 3863POPC   NC310439  19.047  33.032   9.450
 3863POPC   PO410440  19.068  33.018   9.150
 3863POPC   GL110441  19.041  33.000   8.850
 3863POPC   GL210442  19.089  32.935   8.850
 3863POPC   C1A10443  19.075  33.007   8.550
 3863POPC   D2A10444  19.105  32.986   8.250
 3863POPC   C3A10445  19.024  33.043   7.950
 3863POPC   C4A10446  19.086  33.069   7.650
 3863POPC   C1B10447  19.170  32.763   8.550
 3863POPC   C2B10448  19.159  32.824   8.250
 3863POPC   C3B10449  19.121  32.763   7.950
 3863POPC   C4B10450  19.144  32.813   7.650
 3864POPC   NC310451  36.872  22.951   9.450
 3864POPC   PO410452  36.931  22.971   9.150
 3864POPC   GL110453  36.909  22.920   8.850
 3864POPC   GL210454  36.761  22.994   8.850
 3864POPC   C1A10455  36.854  22.943   8.550
 3864POPC   D2A10456  36.886  22.968   8.250
 3864POPC   C3A10457  36.871  22.931   7.950
 3864POPC   C4A10458  36.931  22.951   7.650
 3864POPC   C1B10459  36.622  22.983   8.550
 3864POPC   C2B10460  36.711  23.063   8.250
 3864POPC   C3B10461  36.657  23.063   7.950
 3864POPC   C4B10462  36.685  23.041   7.650
 3865POPC   NC310463  33.801  40.803   9.450
 3865POPC   PO410464  33.828  40.788   9.150
 3865POPC   GL110465  33.809  40.759   8.850
 3865POPC   GL210466  33.849  40.857   8.850
 3865POPC   C1A10467  33.800  40.748   8.550
 3865POPC   D2A10468  33.813  40.775   8.250
 3865POPC   C3A10469  33.796  40.747   7.950
 3865POPC   C4A10470  33.763  40.761   7.650
 3865POPC   C1B10471  33.975  40.942   8.550
 3865POPC   C2B10472  34.001  40.900   8.250
 3865POPC   C3B10473  33.982  40.976   7.950
 3865POPC   C4B10474  33.969  40.979   7.650
 3866POPC   NC310475   9.016  41.546   9.450
 3866POPC   PO410476   8.979  41.516   9.150
 3866POPC   GL110477   8.972  41.565   8.850
 3866POPC   GL210478   9.088  41.641   8.850
 3866POPC   C1A10479   8.939  41.509   8.550
 3866POPC   D2A10480   8.943  41.586   8.250
 3866POPC   C3A10481   8.992  41.549   7.950
 3866POPC   C4A10482   8.972  41.608   7.650
 3866POPC   C1B10483   9.169  41.759   8.550
 3866POPC   C2B10484   9.176  41.710   8.250
 3866POPC   C3B10485   9.175  41.712   7.950
 3866POPC   C4B10486   9.123  41.743   7.650
 3867POPC   NC310487  28.359  42.307   9.450
 3867POPC   PO410488  28.358  42.306   9.150
 3867POPC   GL110489  28.349  42.285   8.850
 3867POPC   GL210490  28.433  42.234   8.850
 3867POPC   C1A10491  28.410  42.351   8.550
 3867POPC   D2A10492  28.385  42.329   8.250
 3867POPC   C3A10493  28.417  42.301   7.950
 3867POPC   C4A10494  28.395  42.348   7.650
 3867POPC   C1B10495  28.588  42.252   8.550
 3867POPC   C2B10496  28.586  42.240   8.250
 3867POPC   C3B10497  28.547  42.204   7.950
 3867POPC   C4B10498  28.626  42.165   7.650
 3868POPC   NC310499   0.399  26.032   9.450
 3868POPC   PO410500   0.452  26.021   9.150
 3868POPC   GL110501   0.401  26.028   8.850
 3868POPC   GL210502   0.282  26.101   8.850
 3868POPC   C1A10503   0.400  26.002   8.550
 3868POPC   D2A10504   0.391  26.059   8.250
 3868POPC   C3A10505   0.484  26.083   7.950
 3868POPC   C4A10506   0.467  26.017   7.650
 3868POPC   C1B10507   0.226  26.148   8.550
 3868POPC   C2B10508   0.236  26.125   8.250
 3868POPC   C3B10509   0.249  26.106   7.950
 3868POPC   C4B10510   0.220  26.166   7.650
 3869POPC   NC310511   6.655   8.937   9.450
 3869POPC   PO410512   6.621   8.974   9.150
 3869POPC   GL110513   6.674   8.977   8.850
 3869POPC   GL210514   6.534   9.063   8.850
 3869POPC   C1A10515   6.651   8.984   8.550
 3869POPC   D2A10516   6.605   9.019   8.250
 3869POPC   C3A10517   6.642   8.992   7.950
 3869POPC   C4A10518   6.647   9.000   7.650
 3869POPC   C1B10519   6.450   9.173   8.550
 3869POPC   C2B10520   6.461   9.116   8.250
 3869POPC   C3B10521   6.509   9.139   7.950
 3869POPC   C4B10522   6.498   9.118   7.650
 3870POPC   NC310523  41.536  13.635   9.450
 3870POPC   PO410524  41.521  13.581   9.150
 3870POPC   GL110525  41.536  13.605   8.850
 3870POPC   GL210526  41.632  13.722   8.850
 3870POPC   C1A10527  41.565  13.591   8.550
 3870POPC   D2A10528  41.565  13.630   8.250
 3870POPC   C3A10529  41.602  13.579   7.950
 3870POPC   C4A10530  41.600  13.600   7.650
 3870POPC   C1B10531  41.653  13.872   8.550
 3870POPC   C2B10532  41.584  13.897   8.250
 3870POPC   C3B10533  41.579  13.909   7.950
 3870POPC   C4B10534  41.606  13.890   7.650
 3871POPC   NC310535  30.647   6.665   9.450
 3871POPC   PO410536  30.649   6.639   9.150
 3871POPC   GL110537  30.720   6.677   8.850
 3871POPC   GL210538  30.803   6.611   8.850
 3871POPC   C1A10539  30.746   6.682   8.550
 3871POPC   D2A10540  30.671   6.627   8.250
 3871POPC   C3A10541  30.719   6.636   7.950
 3871POPC   C4A10542  30.680   6.632   7.650
 3871POPC   C1B10543  30.976   6.613   8.550
 3871POPC   C2B10544  30.993   6.638   8.250
 3871POPC   C3B10545  30.901   6.616   7.950
 3871POPC   C4B10546  30.959   6.606   7.650
 3872POPC   NC310547  18.280  20.580   9.450
 3872POPC   PO410548  18.235  20.658   9.150
 3872POPC   GL110549  18.322  20.633   8.850
 3872POPC   GL210550  18.234  20.469   8.850
 3872POPC   C1A10551  18.331  20.571   8.550
 3872POPC   D2A10552  18.308  20.617   8.250
 3872POPC   C3A10553  18.302  20.577   7.950
 3872POPC   C4A10554  18.272  20.597   7.650
 3872POPC   C1B10555  18.228  20.376   8.550
 3872POPC   C2B10556  18.177  20.347   8.250
 3872POPC   C3B10557  18.235  20.407   7.950
 3872POPC   C4B10558  18.240  20.374   7.650
 3873POPC   NC310559  29.889  14.443   9.450
 3873POPC   PO410560  29.878  14.365   9.150
 3873POPC   GL110561  29.890  14.391   8.850
 3873POPC   GL210562  29.971  14.492   8.850
 3873POPC   C1A10563  29.934  14.422   8.550
 3873POPC   D2A10564  29.938  14.399   8.250
 3873POPC   C3A10565  29.939  14.440   7.950
 3873POPC   C4A10566  29.960  14.423   7.650
 3873POPC   C1B10567  29.918  14.629   8.550
 3873POPC   C2B10568  29.930  14.674   8.250
 3873POPC   C3B10569  29.932  14.632   7.950
 3873POPC   C4B10570  29.954  14.700   7.650
 3874POPC   NC310571   7.446  39.266   9.450
 3874POPC   PO410572   7.462  39.230   9.150
 3874POPC   GL110573   7.381  39.273   8.850
 3874POPC   GL210574   7.550  39.360   8.850
 3874POPC   C1A10575   7.371  39.232   8.550
 3874POPC   D2A10576   7.414  39.273   8.250
 3874POPC   C3A10577   7.402  39.262   7.950
 3874POPC   C4A10578   7.407  39.267   7.650
 3874POPC   C1B10579   7.601  39.385   8.550
 3874POPC   C2B10580   7.578  39.445   8.250
 3874POPC   C3B10581   7.579  39.393   7.950
 3874POPC   C4B10582   7.550  39.426   7.650
 3875POPC   NC310583  20.641  34.565   9.450
 3875POPC   PO410584  20.567  34.582   9.150
 3875POPC   GL110585  20.577  34.572   8.850
 3875POPC   GL210586  20.494  34.628   8.850
 3875POPC   C1A10587  20.649  34.619   8.550
 3875POPC   D2A10588  20.581  34.556   8.250
 3875POPC   C3A10589  20.561  34.576   7.950
 3875POPC   C4A10590  20.645  34.604   7.650
 3875POPC   C1B10591  20.371  34.613   8.550
 3875POPC   C2B10592  20.320  34.666   8.250
 3875POPC   C3B10593  20.332  34.626   7.950
 3875POPC   C4B10594  20.393  34.659   7.650
 3876POPC   NC310595  31.432  26.791   9.450
 3876POPC   PO410596  31.470  26.831   9.150
 3876POPC   GL110597  31.474  26.785   8.850
 3876POPC   GL210598  31.463  26.956   8.850
 3876POPC   C1A10599  31.508  26.861   8.550
 3876POPC   D2A10600  31.447  26.809   8.250
 3876POPC   C3A10601  31.427  26.768   7.950
 3876POPC   C4A10602  31.518  26.836   7.650
 3876POPC   C1B10603  31.423  27.012   8.550
 3876POPC   C2B10604  31.358  27.056   8.250
 3876POPC   C3B10605  31.399  27.025   7.950
 3876POPC   C4B10606  31.363  27.083   7.650
 3877POPC   NC310607  21.364  21.413   9.450
 3877POPC   PO410608  21.396  21.369   9.150
 3877POPC   GL110609  21.364  21.432   8.850
 3877POPC   GL210610  21.285  21.341   8.850
 3877POPC   C1A10611  21.424  21.410   8.550
 3877POPC   D2A10612  21.356  21.360   8.250
 3877POPC   C3A10613  21.411  21.358   7.950
 3877POPC   C4A10614  21.390  21.402   7.650
 3877POPC   C1B10615  21.134  21.273   8.550
 3877POPC   C2B10616  21.142  21.287   8.250
 3877POPC   C3B10617  21.164  21.285   7.950
 3877POPC   C4B10618  21.179  21.342   7.650
 3878POPC   NC310619  28.347   3.580   9.450
 3878POPC   PO410620  28.379   3.538   9.150
 3878POPC   GL110621  28.381   3.508   8.850
 3878POPC   GL210622  28.466   3.426   8.850
 3878POPC   C1A10623  28.413   3.513   8.550
 3878POPC   D2A10624  28.412   3.550   8.250
 3878POPC   C3A10625  28.411   3.554   7.950
 3878POPC   C4A10626  28.332   3.498   7.650
 3878POPC   C1B10627  28.449   3.346   8.550
 3878POPC   C2B10628  28.536   3.281   8.250
 3878POPC   C3B10629  28.500   3.355   7.950
 3878POPC   C4B10630  28.519   3.317   7.650
 3879POPC   NC310631  22.987  38.471   9.450
 3879POPC   PO410632  22.889  38.443   9.150
 3879POPC   GL110633  22.918  38.422   8.850
 3879POPC   GL210634  23.040  38.426   8.850
 3879POPC   C1A10635  22.950  38.484   8.550
 3879POPC   D2A10636  22.975  38.432   8.250
 3879POPC   C3A10637  22.944  38.419   7.950
 3879POPC   C4A10638  22.958  38.464   7.650
 3879POPC   C1B10639  23.238  38.466   8.550
 3879POPC   C2B10640  23.185  38.487   8.250
 3879POPC   C3B10641  23.206  38.426   7.950
 3879POPC   C4B10642  23.196  38.467   7.650
 3880POPC   NC310643  40.025  43.918   9.450
 3880POPC   PO410644  39.981  43.894   9.150
 3880POPC   GL110645  40.050  43.881   8.850
 3880POPC   GL210646  40.126  43.783   8.850
 3880POPC   C1A10647  40.038  43.926   8.550
 3880POPC   D2A10648  40.036  43.879   8.250
 3880POPC   C3A10649  40.004  43.905   7.950
 3880POPC   C4A10650  40.040  43.872   7.650
 3880POPC   C1B10651  40.204  43.735   8.550
 3880POPC   C2B10652  40.210  43.715   8.250
 3880POPC   C3B10653  40.258  43.735   7.950
 3880POPC   C4B10654  40.180  43.725   7.650
 3881POPC   NC310655  27.617   0.391   9.450
 3881POPC   PO410656  27.576   0.469   9.150
 3881POPC   GL110657  27.557   0.458   8.850
 3881POPC   GL210658  27.421   0.404   8.850
 3881POPC   C1A10659  27.631   0.442   8.550
 3881POPC   D2A10660  27.621   0.404   8.250
 3881POPC   C3A10661  27.595   0.395   7.950
 3881POPC   C4A10662  27.624   0.471   7.650
 3881POPC   C1B10663  27.336   0.396   8.550
 3881POPC   C2B10664  27.365   0.408   8.250
 3881POPC   C3B10665  27.298   0.407   7.950
 3881POPC   C4B10666  27.354   0.417   7.650
 3882POPC   NC310667  40.020  42.301   9.450
 3882POPC   PO410668  39.993  42.361   9.150
 3882POPC   GL110669  40.053  42.337   8.850
 3882POPC   GL210670  39.851  42.348   8.850
 3882POPC   C1A10671  40.022  42.376   8.550
 3882POPC   D2A10672  39.980  42.381   8.250
 3882POPC   C3A10673  40.006  42.313   7.950
 3882POPC   C4A10674  40.033  42.365   7.650
 3882POPC   C1B10675  39.758  42.278   8.550
 3882POPC   C2B10676  39.783  42.258   8.250
 3882POPC   C3B10677  39.776  42.289   7.950
 3882POPC   C4B10678  39.743  42.332   7.650
 3883POPC   NC310679   0.487  43.904   9.450
 3883POPC   PO410680   0.394  43.852   9.150
 3883POPC   GL110681   0.465  43.879   8.850
 3883POPC   GL210682   0.306  43.974   8.850
 3883POPC   C1A10683   0.464  43.923   8.550
 3883POPC   D2A10684   0.458  43.843   8.250
 3883POPC   C3A10685   0.426  43.872   7.950
 3883POPC   C4A10686   0.447  43.891   7.650
 3883POPC   C1B10687   0.186  43.955   8.550
 3883POPC   C2B10688   0.157  44.026   8.250
 3883POPC   C3B10689   0.196  43.948   7.950
 3883POPC   C4B10690   0.239  43.958   7.650
 3884POPC   NC310691   3.555  29.125   9.450
 3884POPC   PO410692   3.532  29.102   9.150
 3884POPC   GL110693   3.505  29.109   8.850
 3884POPC   GL210694   3.475  29.073   8.850
 3884POPC   C1A10695   3.505  29.155   8.550
 3884POPC   D2A10696   3.517  29.148   8.250
 3884POPC   C3A10697   3.511  29.124   7.950
 3884POPC   C4A10698   3.521  29.151   7.650
 3884POPC   C1B10699   3.384  28.969   8.550
 3884POPC   C2B10700   3.421  28.969   8.250
 3884POPC   C3B10701   3.435  28.911   7.950
 3884POPC   C4B10702   3.429  28.931   7.650
 3885POPC   NC310703  39.959   1.247   9.450
 3885POPC   PO410704  40.032   1.189   9.150
 3885POPC   GL110705  39.967   1.173   8.850
 3885POPC   GL210706  40.140   1.280   8.850
 3885POPC   C1A10707  39.987   1.249   8.550
 3885POPC   D2A10708  39.983   1.260   8.250
 3885POPC   C3A10709  39.964   1.200   7.950
 3885POPC   C4A10710  40.033   1.193   7.650
 3885POPC   C1B10711  40.243   1.290   8.550
 3885POPC   C2B10712  40.290   1.294   8.250
 3885POPC   C3B10713  40.260   1.315   7.950
 3885POPC   C4B10714  40.222   1.260   7.650
 3886POPC   NC310715  16.718  28.321   9.450
 3886POPC   PO410716  16.738  28.332   9.150
 3886POPC   GL110717  16.752  28.406   8.850
 3886POPC   GL210718  16.648  28.389   8.850
 3886POPC   C1A10719  16.686  28.386   8.550
 3886POPC   D2A10720  16.693  28.414   8.250
 3886POPC   C3A10721  16.744  28.346   7.950
 3886POPC   C4A10722  16.722  28.376   7.650
 3886POPC   C1B10723  16.525  28.469   8.550
 3886POPC   C2B10724  16.495  28.474   8.250
 3886POPC   C3B10725  16.534  28.536   7.950
 3886POPC   C4B10726  16.537  28.477   7.650
 3887POPC   NC310727   0.420   5.132   9.450
 3887POPC   PO410728   0.467   5.100   9.150
 3887POPC   GL110729   0.428   5.107   8.850
 3887POPC   GL210730   0.449   5.230   8.850
 3887POPC   C1A10731   0.461   5.110   8.550
 3887POPC   D2A10732   0.413   5.091   8.250
 3887POPC   C3A10733   0.438   5.123   7.950
 3887POPC   C4A10734   0.413   5.106   7.650
 3887POPC   C1B10735   0.479   5.331   8.550
 3887POPC   C2B10736   0.543   5.282   8.250
 3887POPC   C3B10737   0.539   5.352   7.950
 3887POPC   C4B10738   0.517   5.364   7.650
 3888POPC   NC310739  22.166  16.755   9.450
 3888POPC   PO410740  22.198  16.719   9.150
 3888POPC   GL110741  22.154  16.721   8.850
 3888POPC   GL210742  22.113  16.787   8.850
 3888POPC   C1A10743  22.206  16.686   8.550
 3888POPC   D2A10744  22.140  16.735   8.250
 3888POPC   C3A10745  22.162  16.724   7.950
 3888POPC   C4A10746  22.113  16.770   7.650
 3888POPC   C1B10747  22.005  16.929   8.550
 3888POPC   C2B10748  21.970  16.873   8.250
 3888POPC   C3B10749  22.010  16.866   7.950
 3888POPC   C4B10750  22.008  16.897   7.650
 3889POPC   NC310751   9.005  13.648   9.450
 3889POPC   PO410752   9.021  13.621   9.150
 3889POPC   GL110753   8.964  13.585   8.850
 3889POPC   GL210754   8.944  13.486   8.850
 3889POPC   C1A10755   9.019  13.676   8.550
 3889POPC   D2A10756   8.975  13.633   8.250
 3889POPC   C3A10757   8.984  13.634   7.950
 3889POPC   C4A10758   8.940  13.639   7.650
 3889POPC   C1B10759   8.832  13.411   8.550
 3889POPC   C2B10760   8.807  13.397   8.250
 3889POPC   C3B10761   8.869  13.428   7.950
 3889POPC   C4B10762   8.891  13.401   7.650
 3890POPC   NC310763  42.341  24.486   9.450
 3890POPC   PO410764  42.352  24.444   9.150
 3890POPC   GL110765  42.374  24.466   8.850
 3890POPC   GL210766  42.456  24.480   8.850
 3890POPC   C1A10767  42.331  24.488   8.550
 3890POPC   D2A10768  42.320  24.467   8.250
 3890POPC   C3A10769  42.295  24.473   7.950
 3890POPC   C4A10770  42.372  24.444   7.650
 3890POPC   C1B10771  42.581  24.515   8.550
 3890POPC   C2B10772  42.611  24.527   8.250
 3890POPC   C3B10773  42.574  24.553   7.950
 3890POPC   C4B10774  42.573  24.556   7.650
 3891POPC   NC310775  33.752  11.284   9.450
 3891POPC   PO410776  33.813  11.312   9.150
 3891POPC   GL110777  33.780  11.260   8.850
 3891POPC   GL210778  33.829  11.471   8.850
 3891POPC   C1A10779  33.844  11.281   8.550
 3891POPC   D2A10780  33.779  11.319   8.250
 3891POPC   C3A10781  33.848  11.289   7.950
 3891POPC   C4A10782  33.782  11.328   7.650
 3891POPC   C1B10783  33.820  11.567   8.550
 3891POPC   C2B10784  33.792  11.590   8.250
 3891POPC   C3B10785  33.806  11.547   7.950
 3891POPC   C4B10786  33.802  11.506   7.650
 3892POPC   NC310787  13.647   8.227   9.450
 3892POPC   PO410788  13.670   8.193   9.150
 3892POPC   GL110789  13.594   8.187   8.850
 3892POPC   GL210790  13.703   8.124   8.850
 3892POPC   C1A10791  13.595   8.242   8.550
 3892POPC   D2A10792  13.599   8.197   8.250
 3892POPC   C3A10793  13.676   8.191   7.950
 3892POPC   C4A10794  13.635   8.210   7.650
 3892POPC   C1B10795  13.861   8.146   8.550
 3892POPC   C2B10796  13.867   8.116   8.250
 3892POPC   C3B10797  13.863   8.153   7.950
 3892POPC   C4B10798  13.916   8.154   7.650
 3893POPC   NC310799  42.293   1.231   9.450
 3893POPC   PO410800  42.377   1.247   9.150
 3893POPC   GL110801  42.357   1.235   8.850
 3893POPC   GL210802  42.419   1.177   8.850
 3893POPC   C1A10803  42.291   1.261   8.550
 3893POPC   D2A10804  42.320   1.194   8.250
 3893POPC   C3A10805  42.302   1.190   7.950
 3893POPC   C4A10806  42.327   1.175   7.650
 3893POPC   C1B10807  42.503   1.084   8.550
 3893POPC   C2B10808  42.544   1.082   8.250
 3893POPC   C3B10809  42.546   1.035   7.950
 3893POPC   C4B10810  42.529   1.108   7.650
 3894POPC   NC310811  21.366  30.714   9.450
 3894POPC   PO410812  21.425  30.680   9.150
 3894POPC   GL110813  21.430  30.671   8.850
 3894POPC   GL210814  21.294  30.617   8.850
 3894POPC   C1A10815  21.339  30.660   8.550
 3894POPC   D2A10816  21.364  30.673   8.250
 3894POPC   C3A10817  21.433  30.681   7.950
 3894POPC   C4A10818  21.414  30.682   7.650
 3894POPC   C1B10819  21.205  30.590   8.550
 3894POPC   C2B10820  21.176  30.595   8.250
 3894POPC   C3B10821  21.181  30.588   7.950
 3894POPC   C4B10822  21.151  30.522   7.650
 3895POPC   NC310823  42.292  27.608   9.450
 3895POPC   PO410824  42.317  27.584   9.150
 3895POPC   GL110825  42.330  27.583   8.850
 3895POPC   GL210826  42.438  27.605   8.850
 3895POPC   C1A10827  42.376  27.583   8.550
 3895POPC   D2A10828  42.353  27.595   8.250
 3895POPC   C3A10829  42.374  27.573   7.950
 3895POPC   C4A10830  42.354  27.558   7.650
 3895POPC   C1B10831  42.627  27.589   8.550
 3895POPC   C2B10832  42.598  27.589   8.250
 3895POPC   C3B10833  42.618  27.605   7.950
 3895POPC   C4B10834  42.609  27.561   7.650
 3896POPC   NC310835  18.259  34.613   9.450
 3896POPC   PO410836  18.246  34.542   9.150
 3896POPC   GL110837  18.276  34.616   8.850
 3896POPC   GL210838  18.139  34.633   8.850
 3896POPC   C1A10839  18.316  34.528   8.550
 3896POPC   D2A10840  18.328  34.579   8.250
 3896POPC   C3A10841  18.322  34.546   7.950
 3896POPC   C4A10842  18.312  34.562   7.650
 3896POPC   C1B10843  18.065  34.720   8.550
 3896POPC   C2B10844  18.086  34.712   8.250
 3896POPC   C3B10845  18.059  34.679   7.950
 3896POPC   C4B10846  18.051  34.746   7.650
 3897POPC   NC310847   7.375  29.891   9.450
 3897POPC   PO410848   7.446  29.895   9.150
 3897POPC   GL110849   7.470  29.881   8.850
 3897POPC   GL210850   7.377  29.810   8.850
 3897POPC   C1A10851   7.403  29.950   8.550
 3897POPC   D2A10852   7.423  29.932   8.250
 3897POPC   C3A10853   7.400  29.942   7.950
 3897POPC   C4A10854   7.465  29.930   7.650
 3897POPC   C1B10855   7.282  29.694   8.550
 3897POPC   C2B10856   7.277  29.776   8.250
 3897POPC   C3B10857   7.240  29.782   7.950
 3897POPC   C4B10858   7.281  29.705   7.650
 3898POPC   NC310859   9.756   5.894   9.450
 3898POPC   PO410860   9.785   5.832   9.150
 3898POPC   GL110861   9.735   5.901   8.850
 3898POPC   GL210862   9.682   5.740   8.850
 3898POPC   C1A10863   9.782   5.841   8.550
 3898POPC   D2A10864   9.727   5.831   8.250
 3898POPC   C3A10865   9.796   5.892   7.950
 3898POPC   C4A10866   9.754   5.845   7.650
 3898POPC   C1B10867   9.544   5.648   8.550
 3898POPC   C2B10868   9.528   5.694   8.250
 3898POPC   C3B10869   9.566   5.661   7.950
 3898POPC   C4B10870   9.613   5.734   7.650
 3899POPC   NC310871  20.599  31.433   9.450
 3899POPC   PO410872  20.582  31.507   9.150
 3899POPC   GL110873  20.561  31.438   8.850
 3899POPC   GL210874  20.764  31.420   8.850
 3899POPC   C1A10875  20.612  31.474   8.550
 3899POPC   D2A10876  20.658  31.429   8.250
 3899POPC   C3A10877  20.638  31.483   7.950
 3899POPC   C4A10878  20.660  31.475   7.650
 3899POPC   C1B10879  20.822  31.433   8.550
 3899POPC   C2B10880  20.880  31.409   8.250
 3899POPC   C3B10881  20.871  31.429   7.950
 3899POPC   C4B10882  20.862  31.444   7.650
 3900POPC   NC310883  20.634  30.713   9.450
 3900POPC   PO410884  20.643  30.695   9.150
 3900POPC   GL110885  20.601  30.692   8.850
 3900POPC   GL210886  20.727  30.777   8.850
 3900POPC   C1A10887  20.573  30.658   8.550
 3900POPC   D2A10888  20.610  30.647   8.250
 3900POPC   C3A10889  20.611  30.707   7.950
 3900POPC   C4A10890  20.612  30.722   7.650
 3900POPC   C1B10891  20.834  30.852   8.550
 3900POPC   C2B10892  20.786  30.913   8.250
 3900POPC   C3B10893  20.788  30.909   7.950
 3900POPC   C4B10894  20.800  30.872   7.650
 3901POPC   NC310895   8.149  13.578   9.450
 3901POPC   PO410896   8.232  13.642   9.150
 3901POPC   GL110897   8.175  13.585   8.850
 3901POPC   GL210898   8.030  13.590   8.850
 3901POPC   C1A10899   8.210  13.601   8.550
 3901POPC   D2A10900   8.171  13.592   8.250
 3901POPC   C3A10901   8.224  13.641   7.950
 3901POPC   C4A10902   8.157  13.668   7.650
 3901POPC   C1B10903   7.945  13.629   8.550
 3901POPC   C2B10904   7.938  13.617   8.250
 3901POPC   C3B10905   7.960  13.660   7.950
 3901POPC   C4B10906   7.967  13.673   7.650
 3902POPC   NC310907  13.636  27.560   9.450
 3902POPC   PO410908  13.643  27.609   9.150
 3902POPC   GL110909  13.670  27.630   8.850
 3902POPC   GL210910  13.515  27.532   8.850
 3902POPC   C1A10911  13.625  27.633   8.550
 3902POPC   D2A10912  13.608  27.606   8.250
 3902POPC   C3A10913  13.640  27.611   7.950
 3902POPC   C4A10914  13.631  27.627   7.650
 3902POPC   C1B10915  13.436  27.473   8.550
 3902POPC   C2B10916  13.408  27.448   8.250
 3902POPC   C3B10917  13.393  27.442   7.950
 3902POPC   C4B10918  13.394  27.438   7.650
 3903POPC   NC310919  26.000  36.868   9.450
 3903POPC   PO410920  26.015  36.890   9.150
 3903POPC   GL110921  26.021  36.856   8.850
 3903POPC   GL210922  26.032  36.757   8.850
 3903POPC   C1A10923  25.998  36.946   8.550
 3903POPC   D2A10924  26.039  36.914   8.250
 3903POPC   C3A10925  26.030  36.857   7.950
 3903POPC   C4A10926  26.015  36.940   7.650
 3903POPC   C1B10927  26.027  36.645   8.550
 3903POPC   C2B10928  26.088  36.697   8.250
 3903POPC   C3B10929  26.068  36.661   7.950
 3903POPC   C4B10930  26.067  36.641   7.650
 3904POPC   NC310931  33.768  20.577   9.450
 3904POPC   PO410932  33.804  20.613   9.150
 3904POPC   GL110933  33.823  20.605   8.850
 3904POPC   GL210934  33.904  20.691   8.850
 3904POPC   C1A10935  33.845  20.599   8.550
 3904POPC   D2A10936  33.807  20.650   8.250
 3904POPC   C3A10937  33.759  20.569   7.950
 3904POPC   C4A10938  33.807  20.630   7.650
 3904POPC   C1B10939  33.907  20.831   8.550
 3904POPC   C2B10940  33.894  20.847   8.250
 3904POPC   C3B10941  33.957  20.873   7.950
 3904POPC   C4B10942  33.875  20.862   7.650
 3905POPC   NC310943  26.815  30.717   9.450
 3905POPC   PO410944  26.823  30.723   9.150
 3905POPC   GL110945  26.848  30.703   8.850
 3905POPC   GL210946  26.653  30.673   8.850
 3905POPC   C1A10947  26.771  30.654   8.550
 3905POPC   D2A10948  26.786  30.730   8.250
 3905POPC   C3A10949  26.825  30.736   7.950
 3905POPC   C4A10950  26.781  30.727   7.650
 3905POPC   C1B10951  26.581  30.583   8.550
 3905POPC   C2B10952  26.584  30.599   8.250
 3905POPC   C3B10953  26.548  30.578   7.950
 3905POPC   C4B10954  26.582  30.596   7.650
 3906POPC   NC310955  25.289   5.837   9.450
 3906POPC   PO410956  25.300   5.915   9.150
 3906POPC   GL110957  25.216   5.849   8.850
 3906POPC   GL210958  25.353   5.902   8.850
 3906POPC   C1A10959  25.251   5.904   8.550
 3906POPC   D2A10960  25.236   5.882   8.250
 3906POPC   C3A10961  25.253   5.850   7.950
 3906POPC   C4A10962  25.269   5.914   7.650
 3906POPC   C1B10963  25.516   5.894   8.550
 3906POPC   C2B10964  25.486   5.868   8.250
 3906POPC   C3B10965  25.511   5.828   7.950
 3906POPC   C4B10966  25.498   5.834   7.650
 3907POPC   NC310967   5.134   9.794   9.450
 3907POPC   PO410968   5.115   9.741   9.150
 3907POPC   GL110969   5.058   9.772   8.850
 3907POPC   GL210970   5.016   9.745   8.850
 3907POPC   C1A10971   5.143   9.735   8.550
 3907POPC   D2A10972   5.050   9.777   8.250
 3907POPC   C3A10973   5.112   9.774   7.950
 3907POPC   C4A10974   5.101   9.744   7.650
 3907POPC   C1B10975   4.806   9.865   8.550
 3907POPC   C2B10976   4.873   9.843   8.250
 3907POPC   C3B10977   4.823   9.798   7.950
 3907POPC   C4B10978   4.860   9.849   7.650
 3908POPC   NC310979  32.225  20.582   9.450
 3908POPC   PO410980  32.232  20.646   9.150
 3908POPC   GL110981  32.264  20.606   8.850
 3908POPC   GL210982  32.309  20.469   8.850
 3908POPC   C1A10983  32.264  20.630   8.550
 3908POPC   D2A10984  32.273  20.660   8.250
 3908POPC   C3A10985  32.268  20.587   7.950
 3908POPC   C4A10986  32.234  20.576   7.650
 3908POPC   C1B10987  32.408  20.451   8.550
 3908POPC   C2B10988  32.423  20.460   8.250
 3908POPC   C3B10989  32.410  20.420   7.950
 3908POPC   C4B10990  32.438  20.413   7.650
 3909POPC   NC310991  26.800  33.791   9.450
 3909POPC   PO410992  26.769  33.849   9.150
 3909POPC   GL110993  26.822  33.758   8.850
 3909POPC   GL210994  26.658  33.803   8.850
 3909POPC   C1A10995  26.861  33.832   8.550
 3909POPC   D2A10996  26.815  33.834   8.250
 3909POPC   C3A10997  26.798  33.751   7.950
 3909POPC   C4A10998  26.823  33.765   7.650
 3909POPC   C1B10999  26.550  33.868   8.550
 3909POPC   C2B11000  26.568  33.892   8.250
 3909POPC   C3B11001  26.609  33.843   7.950
 3909POPC   C4B11002  26.542  33.933   7.650
 3910POPC   NC311003   9.710  42.314   9.450
 3910POPC   PO411004   9.706  42.351   9.150
 3910POPC   GL111005   9.753  42.296   8.850
 3910POPC   GL211006   9.694  42.445   8.850
 3910POPC   C1A11007   9.740  42.384   8.550
 3910POPC   D2A11008   9.775  42.350   8.250
 3910POPC   C3A11009   9.749  42.371   7.950
 3910POPC   C4A11010   9.775  42.342   7.650
 3910POPC   C1B11011   9.677  42.523   8.550
 3910POPC   C2B11012   9.697  42.567   8.250
 3910POPC   C3B11013   9.639  42.563   7.950
 3910POPC   C4B11014   9.631  42.606   7.650
 3911POPC   NC311015   8.943  15.181   9.450
 3911POPC   PO411016   8.957  15.167   9.150
 3911POPC   GL111017   9.021  15.218   8.850
 3911POPC   GL211018   9.024  15.275   8.850
 3911POPC   C1A11019   8.975  15.167   8.550
 3911POPC   D2A11020   8.977  15.164   8.250
 3911POPC   C3A11021   8.972  15.206   7.950
 3911POPC   C4A11022   8.992  15.202   7.650
 3911POPC   C1B11023   9.169  15.324   8.550
 3911POPC   C2B11024   9.206  15.363   8.250
 3911POPC   C3B11025   9.135  15.337   7.950
 3911POPC   C4B11026   9.131  15.362   7.650
 3912POPC   NC311027  13.638  13.596   9.450
 3912POPC   PO411028  13.652  13.614   9.150
 3912POPC   GL111029  13.650  13.624   8.850
 3912POPC   GL211030  13.541  13.558   8.850
 3912POPC   C1A11031  13.676  13.630   8.550
 3912POPC   D2A11032  13.604  13.659   8.250
 3912POPC   C3A11033  13.616  13.655   7.950
 3912POPC   C4A11034  13.613  13.623   7.650
 3912POPC   C1B11035  13.524  13.439   8.550
 3912POPC   C2B11036  13.496  13.420   8.250
 3912POPC   C3B11037  13.564  13.442   7.950
 3912POPC   C4B11038  13.559  13.429   7.650
 3913POPC   NC311039  12.867  25.272   9.450
 3913POPC   PO411040  12.863  25.232   9.150
 3913POPC   GL111041  12.826  25.259   8.850
 3913POPC   GL211042  12.856  25.117   8.850
 3913POPC   C1A11043  12.893  25.307   8.550
 3913POPC   D2A11044  12.826  25.311   8.250
 3913POPC   C3A11045  12.899  25.264   7.950
 3913POPC   C4A11046  12.897  25.301   7.650
 3913POPC   C1B11047  12.884  24.989   8.550
 3913POPC   C2B11048  12.883  24.985   8.250
 3913POPC   C3B11049  12.861  24.989   7.950
 3913POPC   C4B11050  12.872  25.022   7.650
 3914POPC   NC311051  12.860  36.116   9.450
 3914POPC   PO411052  12.847  36.142   9.150
 3914POPC   GL111053  12.889  36.113   8.850
 3914POPC   GL211054  12.768  36.203   8.850
 3914POPC   C1A11055  12.901  36.118   8.550
 3914POPC   D2A11056  12.805  36.166   8.250
 3914POPC   C3A11057  12.839  36.101   7.950
 3914POPC   C4A11058  12.814  36.129   7.650
 3914POPC   C1B11059  12.565  36.171   8.550
 3914POPC   C2B11060  12.629  36.221   8.250
 3914POPC   C3B11061  12.570  36.175   7.950
 3914POPC   C4B11062  12.597  36.203   7.650
 3915POPC   NC311063  15.224  38.421   9.450
 3915POPC   PO411064  15.132  38.454   9.150
 3915POPC   GL111065  15.136  38.485   8.850
 3915POPC   GL211066  15.047  38.437   8.850
 3915POPC   C1A11067  15.217  38.432   8.550
 3915POPC   D2A11068  15.139  38.428   8.250
 3915POPC   C3A11069  15.156  38.417   7.950
 3915POPC   C4A11070  15.193  38.458   7.650
 3915POPC   C1B11071  14.886  38.496   8.550
 3915POPC   C2B11072  14.956  38.546   8.250
 3915POPC   C3B11073  14.920  38.463   7.950
 3915POPC   C4B11074  14.903  38.524   7.650
 3916POPC   NC311075   8.238  36.154   9.450
 3916POPC   PO411076   8.152  36.086   9.150
 3916POPC   GL111077   8.198  36.094   8.850
 3916POPC   GL211078   8.135  36.242   8.850
 3916POPC   C1A11079   8.213  36.083   8.550
 3916POPC   D2A11080   8.211  36.157   8.250
 3916POPC   C3A11081   8.241  36.121   7.950
 3916POPC   C4A11082   8.164  36.119   7.650
 3916POPC   C1B11083   8.153  36.393   8.550
 3916POPC   C2B11084   8.073  36.386   8.250
 3916POPC   C3B11085   8.093  36.412   7.950
 3916POPC   C4B11086   8.074  36.346   7.650
 3917POPC   NC311087  33.041   9.006   9.450
 3917POPC   PO411088  33.018   8.925   9.150
 3917POPC   GL111089  33.030   9.005   8.850
 3917POPC   GL211090  33.032   9.117   8.850
 3917POPC   C1A11091  32.988   9.009   8.550
 3917POPC   D2A11092  33.019   9.018   8.250
 3917POPC   C3A11093  33.002   8.930   7.950
 3917POPC   C4A11094  33.023   8.932   7.650
 3917POPC   C1B11095  32.972   9.224   8.550
 3917POPC   C2B11096  33.026   9.198   8.250
 3917POPC   C3B11097  33.036   9.196   7.950
 3917POPC   C4B11098  32.969   9.207   7.650
 3918POPC   NC311099  16.735  21.420   9.450
 3918POPC   PO411100  16.686  21.375   9.150
 3918POPC   GL111101  16.775  21.406   8.850
 3918POPC   GL211102  16.819  21.459   8.850
 3918POPC   C1A11103  16.737  21.392   8.550
 3918POPC   D2A11104  16.701  21.339   8.250
 3918POPC   C3A11105  16.755  21.428   7.950
 3918POPC   C4A11106  16.725  21.396   7.650
 3918POPC   C1B11107  16.942  21.436   8.550
 3918POPC   C2B11108  16.980  21.424   8.250
 3918POPC   C3B11109  16.944  21.388   7.950
 3918POPC   C4B11110  16.942  21.421   7.650
 3919POPC   NC311111  26.010  21.351   9.450
 3919POPC   PO411112  25.996  21.386   9.150
 3919POPC   GL111113  26.030  21.394   8.850
 3919POPC   GL211114  26.038  21.223   8.850
 3919POPC   C1A11115  26.056  21.377   8.550
 3919POPC   D2A11116  26.058  21.389   8.250
 3919POPC   C3A11117  26.043  21.424   7.950
 3919POPC   C4A11118  26.074  21.416   7.650
 3919POPC   C1B11119  26.096  21.123   8.550
 3919POPC   C2B11120  26.024  21.098   8.250
 3919POPC   C3B11121  26.043  21.148   7.950
 3919POPC   C4B11122  26.071  21.126   7.650
 3920POPC   NC311123  32.224  19.796   9.450
 3920POPC   PO411124  32.261  19.793   9.150
 3920POPC   GL111125  32.215  19.832   8.850
 3920POPC   GL211126  32.129  19.901   8.850
 3920POPC   C1A11127  32.217  19.838   8.550
 3920POPC   D2A11128  32.273  19.882   8.250
 3920POPC   C3A11129  32.292  19.867   7.950
 3920POPC   C4A11130  32.218  19.862   7.650
 3920POPC   C1B11131  32.015  19.890   8.550
 3920POPC   C2B11132  31.967  19.937   8.250
 3920POPC   C3B11133  32.029  19.936   7.950
 3920POPC   C4B11134  32.018  19.867   7.650
 3921POPC   NC311135  17.489   1.209   9.450
 3921POPC   PO411136  17.538   1.203   9.150
 3921POPC   GL111137  17.486   1.184   8.850
 3921POPC   GL211138  17.567   1.327   8.850
 3921POPC   C1A11139  17.490   1.174   8.550
 3921POPC   D2A11140  17.462   1.250   8.250
 3921POPC   C3A11141  17.460   1.257   7.950
 3921POPC   C4A11142  17.478   1.215   7.650
 3921POPC   C1B11143  17.654   1.354   8.550
 3921POPC   C2B11144  17.696   1.372   8.250
 3921POPC   C3B11145  17.701   1.381   7.950
 3921POPC   C4B11146  17.694   1.406   7.650
 3922POPC   NC311147   0.460  41.522   9.450
 3922POPC   PO411148   0.480  41.562   9.150
 3922POPC   GL111149   0.466  41.533   8.850
 3922POPC   GL211150   0.476  41.445   8.850
 3922POPC   C1A11151   0.426  41.525   8.550
 3922POPC   D2A11152   0.462  41.555   8.250
 3922POPC   C3A11153   0.391  41.521   7.950
 3922POPC   C4A11154   0.445  41.509   7.650
 3922POPC   C1B11155   0.454  41.299   8.550
 3922POPC   C2B11156   0.435  41.332   8.250
 3922POPC   C3B11157   0.432  41.306   7.950
 3922POPC   C4B11158   0.443  41.307   7.650
 3923POPC   NC311159  43.089  33.800   9.450
 3923POPC   PO411160  43.061  33.808   9.150
 3923POPC   GL111161  43.078  33.770   8.850
 3923POPC   GL211162  43.127  33.960   8.850
 3923POPC   C1A11163  43.098  33.843   8.550
 3923POPC   D2A11164  43.142  33.777   8.250
 3923POPC   C3A11165  43.123  33.764   7.950
 3923POPC   C4A11166  43.095  33.841   7.650
 3923POPC   C1B11167  43.011  34.074   8.550
 3923POPC   C2B11168  43.064  34.053   8.250
 3923POPC   C3B11169  43.008  34.064   7.950
 3923POPC   C4B11170  43.055  34.060   7.650
 3924POPC   NC311171   2.742   7.423   9.450
 3924POPC   PO411172   2.770   7.440   9.150
 3924POPC   GL111173   2.811   7.470   8.850
 3924POPC   GL211174   2.754   7.543   8.850
 3924POPC   C1A11175   2.785   7.436   8.550
 3924POPC   D2A11176   2.779   7.459   8.250
 3924POPC   C3A11177   2.794   7.382   7.950
 3924POPC   C4A11178   2.780   7.459   7.650
 3924POPC   C1B11179   2.674   7.606   8.550
 3924POPC   C2B11180   2.690   7.617   8.250
 3924POPC   C3B11181   2.683   7.608   7.950
 3924POPC   C4B11182   2.658   7.684   7.650
 3925POPC   NC311183  32.283   5.119   9.450
 3925POPC   PO411184  32.224   5.048   9.150
 3925POPC   GL111185  32.272   5.088   8.850
 3925POPC   GL211186  32.107   5.132   8.850
 3925POPC   C1A11187  32.227   5.133   8.550
 3925POPC   D2A11188  32.211   5.053   8.250
 3925POPC   C3A11189  32.226   5.079   7.950
 3925POPC   C4A11190  32.254   5.127   7.650
 3925POPC   C1B11191  32.013   5.254   8.550
 3925POPC   C2B11192  32.015   5.174   8.250
 3925POPC   C3B11193  32.042   5.247   7.950
 3925POPC   C4B11194  31.997   5.220   7.650
 3926POPC   NC311195  19.811  29.961   9.450
 3926POPC   PO411196  19.863  29.927   9.150
 3926POPC   GL111197  19.880  29.957   8.850
 3926POPC   GL211198  19.698  29.913   8.850
 3926POPC   C1A11199  19.876  29.881   8.550
 3926POPC   D2A11200  19.834  29.913   8.250
 3926POPC   C3A11201  19.824  29.922   7.950
 3926POPC   C4A11202  19.853  29.956   7.650
 3926POPC   C1B11203  19.560  29.829   8.550
 3926POPC   C2B11204  19.623  29.848   8.250
 3926POPC   C3B11205  19.597  29.856   7.950
 3926POPC   C4B11206  19.573  29.831   7.650
 3927POPC   NC311207  13.662  37.644   9.450
 3927POPC   PO411208  13.664  37.653   9.150
 3927POPC   GL111209  13.580  37.719   8.850
 3927POPC   GL211210  13.761  37.675   8.850
 3927POPC   C1A11211  13.650  37.711   8.550
 3927POPC   D2A11212  13.633  37.665   8.250
 3927POPC   C3A11213  13.630  37.661   7.950
 3927POPC   C4A11214  13.588  37.646   7.650
 3927POPC   C1B11215  13.902  37.599   8.550
 3927POPC   C2B11216  13.840  37.638   8.250
 3927POPC   C3B11217  13.914  37.615   7.950
 3927POPC   C4B11218  13.874  37.630   7.650
 3928POPC   NC311219  16.760  40.052   9.450
 3928POPC   PO411220  16.725  40.043   9.150
 3928POPC   GL111221  16.769  39.979   8.850
 3928POPC   GL211222  16.871  40.009   8.850
 3928POPC   C1A11223  16.771  39.983   8.550
 3928POPC   D2A11224  16.712  40.007   8.250
 3928POPC   C3A11225  16.683  40.055   7.950
 3928POPC   C4A11226  16.730  39.997   7.650
 3928POPC   C1B11227  16.982  40.087   8.550
 3928POPC   C2B11228  16.921  40.086   8.250
 3928POPC   C3B11229  16.951  40.076   7.950
 3928POPC   C4B11230  16.960  40.095   7.650
 3929POPC   NC311231  35.308  33.843   9.450
 3929POPC   PO411232  35.364  33.822   9.150
 3929POPC   GL111233  35.375  33.762   8.850
 3929POPC   GL211234  35.476  33.693   8.850
 3929POPC   C1A11235  35.318  33.780   8.550
 3929POPC   D2A11236  35.398  33.776   8.250
 3929POPC   C3A11237  35.327  33.840   7.950
 3929POPC   C4A11238  35.401  33.849   7.650
 3929POPC   C1B11239  35.518  33.632   8.550
 3929POPC   C2B11240  35.535  33.678   8.250
 3929POPC   C3B11241  35.601  33.689   7.950
 3929POPC   C4B11242  35.560  33.720   7.650
 3930POPC   NC311243  43.100  29.172   9.450
 3930POPC   PO411244  43.121  29.127   9.150
 3930POPC   GL111245  43.065  29.185   8.850
 3930POPC   GL211246  42.988  29.178   8.850
 3930POPC   C1A11247  43.061  29.186   8.550
 3930POPC   D2A11248  43.070  29.104   8.250
 3930POPC   C3A11249  43.158  29.194   7.950
 3930POPC   C4A11250  43.089  29.122   7.650
 3930POPC   C1B11251  42.844  29.140   8.550
 3930POPC   C2B11252  42.874  29.121   8.250
 3930POPC   C3B11253  42.859  29.172   7.950
 3930POPC   C4B11254  42.837  29.182   7.650
 3931POPC   NC311255  17.543  28.408   9.450
 3931POPC   PO411256  17.540  28.367   9.150
 3931POPC   GL111257  17.468  28.361   8.850
 3931POPC   GL211258  17.494  28.282   8.850
 3931POPC   C1A11259  17.534  28.355   8.550
 3931POPC   D2A11260  17.480  28.389   8.250
 3931POPC   C3A11261  17.494  28.322   7.950
 3931POPC   C4A11262  17.556  28.353   7.650
 3931POPC   C1B11263  17.587  28.161   8.550
 3931POPC   C2B11264  17.560  28.101   8.250
 3931POPC   C3B11265  17.587  28.141   7.950
 3931POPC   C4B11266  17.544  28.093   7.650
 3932POPC   NC311267  25.222  29.927   9.450
 3932POPC   PO411268  25.257  29.898   9.150
 3932POPC   GL111269  25.307  29.946   8.850
 3932POPC   GL211270  25.236  29.780   8.850
 3932POPC   C1A11271  25.263  29.887   8.550
 3932POPC   D2A11272  25.249  29.912   8.250
 3932POPC   C3A11273  25.276  29.914   7.950
 3932POPC   C4A11274  25.313  29.872   7.650
 3932POPC   C1B11275  25.251  29.675   8.550
 3932POPC   C2B11276  25.233  29.641   8.250
 3932POPC   C3B11277  25.224  29.679   7.950
 3932POPC   C4B11278  25.254  29.722   7.650
 3933POPC   NC311279  36.912   8.955   9.450
 3933POPC   PO411280  36.897   8.954   9.150
 3933POPC   GL111281  36.938   8.959   8.850
 3933POPC   GL211282  36.824   8.834   8.850
 3933POPC   C1A11283  36.872   8.991   8.550
 3933POPC   D2A11284  36.868   8.944   8.250
 3933POPC   C3A11285  36.857   8.929   7.950
 3933POPC   C4A11286  36.899   8.975   7.650
 3933POPC   C1B11287  36.813   8.768   8.550
 3933POPC   C2B11288  36.816   8.751   8.250
 3933POPC   C3B11289  36.769   8.763   7.950
 3933POPC   C4B11290  36.814   8.794   7.650
 3934POPC   NC311291  33.796  30.733   9.450
 3934POPC   PO411292  33.815  30.695   9.150
 3934POPC   GL111293  33.839  30.721   8.850
 3934POPC   GL211294  33.905  30.692   8.850
 3934POPC   C1A11295  33.773  30.685   8.550
 3934POPC   D2A11296  33.751  30.712   8.250
 3934POPC   C3A11297  33.845  30.723   7.950
 3934POPC   C4A11298  33.776  30.715   7.650
 3934POPC   C1B11299  34.028  30.627   8.550
 3934POPC   C2B11300  34.014  30.702   8.250
 3934POPC   C3B11301  34.005  30.721   7.950
 3934POPC   C4B11302  34.035  30.717   7.650
 3935POPC   NC311303  33.037  22.905   9.450
 3935POPC   PO411304  32.991  22.969   9.150
 3935POPC   GL111305  33.009  22.927   8.850
 3935POPC   GL211306  32.926  22.887   8.850
 3935POPC   C1A11307  33.064  22.957   8.550
 3935POPC   D2A11308  32.987  22.954   8.250
 3935POPC   C3A11309  33.016  22.960   7.950
 3935POPC   C4A11310  33.019  22.961   7.650
 3935POPC   C1B11311  32.747  22.910   8.550
 3935POPC   C2B11312  32.801  22.944   8.250
 3935POPC   C3B11313  32.793  22.869   7.950
 3935POPC   C4B11314  32.739  22.929   7.650
 3936POPC   NC311315   3.586  15.938   9.450
 3936POPC   PO411316   3.548  15.986   9.150
 3936POPC   GL111317   3.519  15.971   8.850
 3936POPC   GL211318   3.569  16.026   8.850
 3936POPC   C1A11319   3.536  15.938   8.550
 3936POPC   D2A11320   3.549  15.996   8.250
 3936POPC   C3A11321   3.588  15.945   7.950
 3936POPC   C4A11322   3.555  15.906   7.650
 3936POPC   C1B11323   3.637  16.185   8.550
 3936POPC   C2B11324   3.592  16.193   8.250
 3936POPC   C3B11325   3.597  16.161   7.950
 3936POPC   C4B11326   3.644  16.148   7.650
 3937POPC   NC311327  19.080   2.716   9.450
 3937POPC   PO411328  19.097   2.798   9.150
 3937POPC   GL111329  19.067   2.777   8.850
 3937POPC   GL211330  19.008   2.634   8.850
 3937POPC   C1A11331  19.080   2.790   8.550
 3937POPC   D2A11332  19.010   2.723   8.250
 3937POPC   C3A11333  19.051   2.739   7.950
 3937POPC   C4A11334  19.103   2.773   7.650
 3937POPC   C1B11335  18.883   2.611   8.550
 3937POPC   C2B11336  18.856   2.588   8.250
 3937POPC   C3B11337  18.918   2.605   7.950
 3937POPC   C4B11338  18.862   2.554   7.650
 3938POPC   NC311339  10.516   0.439   9.450
 3938POPC   PO411340  10.530   0.435   9.150
 3938POPC   GL111341  10.540   0.481   8.850
 3938POPC   GL211342  10.408   0.513   8.850
 3938POPC   C1A11343  10.521   0.480   8.550
 3938POPC   D2A11344  10.479   0.445   8.250
 3938POPC   C3A11345  10.518   0.409   7.950
 3938POPC   C4A11346  10.496   0.445   7.650
 3938POPC   C1B11347  10.343   0.557   8.550
 3938POPC   C2B11348  10.305   0.591   8.250
 3938POPC   C3B11349  10.268   0.605   7.950
 3938POPC   C4B11350  10.311   0.577   7.650
 3939POPC   NC311351   4.308  32.255   9.450
 3939POPC   PO411352   4.273  32.275   9.150
 3939POPC   GL111353   4.311  32.262   8.850
 3939POPC   GL211354   4.199  32.340   8.850
 3939POPC   C1A11355   4.357  32.280   8.550
 3939POPC   D2A11356   4.298  32.266   8.250
 3939POPC   C3A11357   4.343  32.253   7.950
 3939POPC   C4A11358   4.289  32.274   7.650
 3939POPC   C1B11359   4.127  32.366   8.550
 3939POPC   C2B11360   4.067  32.353   8.250
 3939POPC   C3B11361   4.128  32.364   7.950
 3939POPC   C4B11362   4.057  32.411   7.650
 3940POPC   NC311363  26.840   3.536   9.450
 3940POPC   PO411364  26.768   3.543   9.150
 3940POPC   GL111365  26.820   3.587   8.850
 3940POPC   GL211366  26.681   3.528   8.850
 3940POPC   C1A11367  26.844   3.558   8.550
 3940POPC   D2A11368  26.804   3.546   8.250
 3940POPC   C3A11369  26.827   3.500   7.950
 3940POPC   C4A11370  26.857   3.508   7.650
 3940POPC   C1B11371  26.608   3.379   8.550
 3940POPC   C2B11372  26.614   3.444   8.250
 3940POPC   C3B11373  26.602   3.412   7.950
 3940POPC   C4B11374  26.638   3.414   7.650
 3941POPC   NC311375  43.080  14.441   9.450
 3941POPC   PO411376  43.067  14.379   9.150
 3941POPC   GL111377  43.151  14.379   8.850
 3941POPC   GL211378  42.946  14.442   8.850
 3941POPC   C1A11379  43.061  14.391   8.550
 3941POPC   D2A11380  43.158  14.407   8.250
 3941POPC   C3A11381  43.142  14.409   7.950
 3941POPC   C4A11382  43.083  14.446   7.650
 3941POPC   C1B11383  42.888  14.542   8.550
 3941POPC   C2B11384  42.896  14.500   8.250
 3941POPC   C3B11385  42.900  14.510   7.950
 3941POPC   C4B11386  42.896  14.449   7.650
 3942POPC   NC311387  14.396  42.290   9.450
 3942POPC   PO411388  14.369  42.352   9.150
 3942POPC   GL111389  14.368  42.303   8.850
 3942POPC   GL211390  14.536  42.370   8.850
 3942POPC   C1A11391  14.357  42.381   8.550
 3942POPC   D2A11392  14.433  42.320   8.250
 3942POPC   C3A11393  14.431  42.344   7.950
 3942POPC   C4A11394  14.404  42.338   7.650
 3942POPC   C1B11395  14.630  42.384   8.550
 3942POPC   C2B11396  14.662  42.400   8.250
 3942POPC   C3B11397  14.672  42.397   7.950
 3942POPC   C4B11398  14.654  42.364   7.650
 3943POPC   NC311399  40.786  29.151   9.450
 3943POPC   PO411400  40.750  29.150   9.150
 3943POPC   GL111401  40.787  29.110   8.850
 3943POPC   GL211402  40.667  29.280   8.850
 3943POPC   C1A11403  40.811  29.191   8.550
 3943POPC   D2A11404  40.764  29.103   8.250
 3943POPC   C3A11405  40.770  29.149   7.950
 3943POPC   C4A11406  40.790  29.165   7.650
 3943POPC   C1B11407  40.590  29.387   8.550
 3943POPC   C2B11408  40.636  29.373   8.250
 3943POPC   C3B11409  40.627  29.295   7.950
 3943POPC   C4B11410  40.647  29.353   7.650
 3944POPC   NC311411  34.595  37.657   9.450
 3944POPC   PO411412  34.534  37.647   9.150
 3944POPC   GL111413  34.605  37.699   8.850
 3944POPC   GL211414  34.643  37.594   8.850
 3944POPC   C1A11415  34.571  37.700   8.550
 3944POPC   D2A11416  34.548  37.638   8.250
 3944POPC   C3A11417  34.615  37.667   7.950
 3944POPC   C4A11418  34.571  37.684   7.650
 3944POPC   C1B11419  34.745  37.496   8.550
 3944POPC   C2B11420  34.774  37.468   8.250
 3944POPC   C3B11421  34.756  37.452   7.950
 3944POPC   C4B11422  34.721  37.514   7.650
 3945POPC   NC311423  29.095  34.564   9.450
 3945POPC   PO411424  29.140  34.569   9.150
 3945POPC   GL111425  29.165  34.617   8.850
 3945POPC   GL211426  29.039  34.643   8.850
 3945POPC   C1A11427  29.125  34.535   8.550
 3945POPC   D2A11428  29.127  34.568   8.250
 3945POPC   C3A11429  29.096  34.530   7.950
 3945POPC   C4A11430  29.152  34.574   7.650
 3945POPC   C1B11431  28.914  34.639   8.550
 3945POPC   C2B11432  28.877  34.645   8.250
 3945POPC   C3B11433  28.924  34.682   7.950
 3945POPC   C4B11434  28.880  34.625   7.650
 3946POPC   NC311435  30.723  34.542   9.450
 3946POPC   PO411436  30.741  34.579   9.150
 3946POPC   GL111437  30.721  34.541   8.850
 3946POPC   GL211438  30.645  34.722   8.850
 3946POPC   C1A11439  30.681  34.590   8.550
 3946POPC   D2A11440  30.660  34.530   8.250
 3946POPC   C3A11441  30.648  34.572   7.950
 3946POPC   C4A11442  30.737  34.570   7.650
 3946POPC   C1B11443  30.717  34.784   8.550
 3946POPC   C2B11444  30.710  34.827   8.250
 3946POPC   C3B11445  30.706  34.779   7.950
 3946POPC   C4B11446  30.650  34.809   7.650
 3947POPC   NC311447  38.471   3.560   9.450
 3947POPC   PO411448  38.443   3.520   9.150
 3947POPC   GL111449  38.411   3.528   8.850
 3947POPC   GL211450  38.539   3.590   8.850
 3947POPC   C1A11451  38.421   3.525   8.550
 3947POPC   D2A11452  38.448   3.516   8.250
 3947POPC   C3A11453  38.463   3.566   7.950
 3947POPC   C4A11454  38.460   3.567   7.650
 3947POPC   C1B11455  38.662   3.682   8.550
 3947POPC   C2B11456  38.611   3.675   8.250
 3947POPC   C3B11457  38.655   3.718   7.950
 3947POPC   C4B11458  38.603   3.745   7.650
 3948POPC   NC311459  29.921  18.296   9.450
 3948POPC   PO411460  29.963  18.282   9.150
 3948POPC   GL111461  29.874  18.238   8.850
 3948POPC   GL211462  29.928  18.170   8.850
 3948POPC   C1A11463  29.947  18.290   8.550
 3948POPC   D2A11464  29.872  18.285   8.250
 3948POPC   C3A11465  29.895  18.316   7.950
 3948POPC   C4A11466  29.877  18.324   7.650
 3948POPC   C1B11467  29.960  18.073   8.550
 3948POPC   C2B11468  29.903  18.022   8.250
 3948POPC   C3B11469  29.919  17.984   7.950
 3948POPC   C4B11470  29.954  18.062   7.650
 3949POPC   NC311471  29.887  25.998   9.450
 3949POPC   PO411472  29.899  26.013   9.150
 3949POPC   GL111473  29.888  26.011   8.850
 3949POPC   GL211474  29.815  26.005   8.850
 3949POPC   C1A11475  29.958  26.035   8.550
 3949POPC   D2A11476  29.876  26.001   8.250
 3949POPC   C3A11477  29.931  26.065   7.950
 3949POPC   C4A11478  29.923  26.075   7.650
 3949POPC   C1B11479  29.720  26.054   8.550
 3949POPC   C2B11480  29.714  26.068   8.250
 3949POPC   C3B11481  29.671  25.972   7.950
 3949POPC   C4B11482  29.658  25.976   7.650
 3950POPC   NC311483   1.994  17.504   9.450
 3950POPC   PO411484   2.004  17.503   9.150
 3950POPC   GL111485   2.034  17.550   8.850
 3950POPC   GL211486   1.841  17.548   8.850
 3950POPC   C1A11487   2.006  17.545   8.550
 3950POPC   D2A11488   2.023  17.476   8.250
 3950POPC   C3A11489   1.999  17.468   7.950
 3950POPC   C4A11490   1.986  17.547   7.650
 3950POPC   C1B11491   1.737  17.628   8.550
 3950POPC   C2B11492   1.709  17.618   8.250
 3950POPC   C3B11493   1.739  17.547   7.950
 3950POPC   C4B11494   1.745  17.614   7.650
 3951POPC   NC311495  22.954  29.878   9.450
 3951POPC   PO411496  22.978  29.926   9.150
 3951POPC   GL111497  22.974  29.919   8.850
 3951POPC   GL211498  22.959  30.002   8.850
 3951POPC   C1A11499  22.955  29.892   8.550
 3951POPC   D2A11500  22.930  29.907   8.250
 3951POPC   C3A11501  22.934  29.871   7.950
 3951POPC   C4A11502  22.930  29.916   7.650
 3951POPC   C1B11503  23.048  30.115   8.550
 3951POPC   C2B11504  23.008  30.095   8.250
 3951POPC   C3B11505  23.059  30.123   7.950
 3951POPC   C4B11506  23.035  30.115   7.650
 3952POPC   NC311507  21.348   5.843   9.450
 3952POPC   PO411508  21.434   5.918   9.150
 3952POPC   GL111509  21.415   5.846   8.850
 3952POPC   GL211510  21.311   5.897   8.850
 3952POPC   C1A11511  21.341   5.875   8.550
 3952POPC   D2A11512  21.427   5.884   8.250
 3952POPC   C3A11513  21.399   5.880   7.950
 3952POPC   C4A11514  21.416   5.871   7.650
 3952POPC   C1B11515  21.178   5.911   8.550
 3952POPC   C2B11516  21.130   5.903   8.250
 3952POPC   C3B11517  21.155   5.945   7.950
 3952POPC   C4B11518  21.164   5.933   7.650
 3953POPC   NC311519   5.837  39.208   9.450
 3953POPC   PO411520   5.840  39.192   9.150
 3953POPC   GL111521   5.904  39.253   8.850
 3953POPC   GL211522   5.925  39.087   8.850
 3953POPC   C1A11523   5.821  39.197   8.550
 3953POPC   D2A11524   5.864  39.213   8.250
 3953POPC   C3A11525   5.892  39.263   7.950
 3953POPC   C4A11526   5.909  39.211   7.650
 3953POPC   C1B11527   5.878  39.023   8.550
 3953POPC   C2B11528   5.866  38.947   8.250
 3953POPC   C3B11529   5.901  38.976   7.950
 3953POPC   C4B11530   5.876  38.943   7.650
 3954POPC   NC311531   1.173  34.538   9.450
 3954POPC   PO411532   1.216  34.613   9.150
 3954POPC   GL111533   1.244  34.619   8.850
 3954POPC   GL211534   1.345  34.586   8.850
 3954POPC   C1A11535   1.183  34.621   8.550
 3954POPC   D2A11536   1.200  34.570   8.250
 3954POPC   C3A11537   1.188  34.576   7.950
 3954POPC   C4A11538   1.182  34.558   7.650
 3954POPC   C1B11539   1.476  34.563   8.550
 3954POPC   C2B11540   1.414  34.574   8.250
 3954POPC   C3B11541   1.446  34.567   7.950
 3954POPC   C4B11542   1.478  34.603   7.650
 3955POPC   NC311543  11.327  30.736   9.450
 3955POPC   PO411544  11.255  30.660   9.150
 3955POPC   GL111545  11.331  30.742   8.850
 3955POPC   GL211546  11.405  30.622   8.850
 3955POPC   C1A11547  11.275  30.687   8.550
 3955POPC   D2A11548  11.332  30.716   8.250
 3955POPC   C3A11549  11.305  30.709   7.950
 3955POPC   C4A11550  11.268  30.654   7.650
 3955POPC   C1B11551  11.433  30.537   8.550
 3955POPC   C2B11552  11.510  30.541   8.250
 3955POPC   C3B11553  11.484  30.469   7.950
 3955POPC   C4B11554  11.425  30.533   7.650
 3956POPC   NC311555  36.170   1.174   9.450
 3956POPC   PO411556  36.137   1.193   9.150
 3956POPC   GL111557  36.138   1.173   8.850
 3956POPC   GL211558  36.252   1.139   8.850
 3956POPC   C1A11559  36.088   1.176   8.550
 3956POPC   D2A11560  36.117   1.205   8.250
 3956POPC   C3A11561  36.123   1.214   7.950
 3956POPC   C4A11562  36.146   1.223   7.650
 3956POPC   C1B11563  36.384   1.088   8.550
 3956POPC   C2B11564  36.375   1.093   8.250
 3956POPC   C3B11565  36.359   1.073   7.950
 3956POPC   C4B11566  36.388   1.069   7.650
 3957POPC   NC311567   2.804  29.180   9.450
 3957POPC   PO411568   2.782  29.155   9.150
 3957POPC   GL111569   2.717  29.112   8.850
 3957POPC   GL211570   2.810  28.990   8.850
 3957POPC   C1A11571   2.739  29.145   8.550
 3957POPC   D2A11572   2.779  29.191   8.250
 3957POPC   C3A11573   2.772  29.134   7.950
 3957POPC   C4A11574   2.789  29.176   7.650
 3957POPC   C1B11575   2.744  28.850   8.550
 3957POPC   C2B11576   2.732  28.911   8.250
 3957POPC   C3B11577   2.741  28.923   7.950
 3957POPC   C4B11578   2.784  28.878   7.650
 3958POPC   NC311579  31.463  22.929   9.450
 3958POPC   PO411580  31.505  22.905   9.150
 3958POPC   GL111581  31.470  22.983   8.850
 3958POPC   GL211582  31.382  23.058   8.850
 3958POPC   C1A11583  31.521  22.976   8.550
 3958POPC   D2A11584  31.479  22.922   8.250
 3958POPC   C3A11585  31.507  22.899   7.950
 3958POPC   C4A11586  31.507  22.898   7.650
 3958POPC   C1B11587  31.273  23.122   8.550
 3958POPC   C2B11588  31.309  23.139   8.250
 3958POPC   C3B11589  31.297  23.113   7.950
 3958POPC   C4B11590  31.226  23.123   7.650
 3959POPC   NC311591  32.277   8.923   9.450
 3959POPC   PO411592  32.275   8.989   9.150
 3959POPC   GL111593  32.254   9.012   8.850
 3959POPC   GL211594  32.330   8.974   8.850
 3959POPC   C1A11595  32.252   8.936   8.550
 3959POPC   D2A11596  32.243   8.989   8.250
 3959POPC   C3A11597  32.218   8.941   7.950
 3959POPC   C4A11598  32.262   9.016   7.650
 3959POPC   C1B11599  32.451   8.978   8.550
 3959POPC   C2B11600  32.526   8.957   8.250
 3959POPC   C3B11601  32.493   8.945   7.950
 3959POPC   C4B11602  32.498   8.969   7.650
 3960POPC   NC311603  20.652  20.560   9.450
 3960POPC   PO411604  20.646  20.575   9.150
 3960POPC   GL111605  20.646  20.588   8.850
 3960POPC   GL211606  20.577  20.545   8.850
 3960POPC   C1A11607  20.657  20.608   8.550
 3960POPC   D2A11608  20.569  20.634   8.250
 3960POPC   C3A11609  20.605  20.560   7.950
 3960POPC   C4A11610  20.641  20.637   7.650
 3960POPC   C1B11611  20.478  20.391   8.550
 3960POPC   C2B11612  20.489  20.394   8.250
 3960POPC   C3B11613  20.503  20.341   7.950
 3960POPC   C4B11614  20.501  20.341   7.650
 3961POPC   NC311615   1.253  28.414   9.450
 3961POPC   PO411616   1.185  28.377   9.150
 3961POPC   GL111617   1.258  28.342   8.850
 3961POPC   GL211618   1.339  28.467   8.850
 3961POPC   C1A11619   1.235  28.370   8.550
 3961POPC   D2A11620   1.174  28.394   8.250
 3961POPC   C3A11621   1.182  28.338   7.950
 3961POPC   C4A11622   1.213  28.364   7.650
 3961POPC   C1B11623   1.430  28.593   8.550
 3961POPC   C2B11624   1.430  28.550   8.250
 3961POPC   C3B11625   1.398  28.585   7.950
 3961POPC   C4B11626   1.367  28.502   7.650
 3962POPC   NC311627  43.848  16.742   9.450
 3962POPC   PO411628  43.936  16.749   9.150
 3962POPC   GL111629  43.854  16.751   8.850
 3962POPC   GL211630  43.777  16.745   8.850
 3962POPC   C1A11631  43.862  16.748   8.550
 3962POPC   D2A11632  43.862  16.729   8.250
 3962POPC   C3A11633  43.859  16.729   7.950
 3962POPC   C4A11634  43.837  16.687   7.650
 3962POPC   C1B11635  43.627  16.849   8.550
 3962POPC   C2B11636  43.645  16.818   8.250
 3962POPC   C3B11637  43.666  16.882   7.950
 3962POPC   C4B11638  43.691  16.862   7.650
 3963POPC   NC311639   8.936  29.871   9.450
 3963POPC   PO411640   8.971  29.959   9.150
 3963POPC   GL111641   9.010  29.935   8.850
 3963POPC   GL211642   9.147  29.938   8.850
 3963POPC   C1A11643   9.018  29.966   8.550
 3963POPC   D2A11644   8.951  29.922   8.250
 3963POPC   C3A11645   8.947  29.952   7.950
 3963POPC   C4A11646   9.009  29.871   7.650
 3963POPC   C1B11647   9.272  29.879   8.550
 3963POPC   C2B11648   9.191  29.964   8.250
 3963POPC   C3B11649   9.226  29.889   7.950
 3963POPC   C4B11650   9.228  29.918   7.650
 3964POPC   NC311651   1.239  40.802   9.450
 3964POPC   PO411652   1.179  40.748   9.150
 3964POPC   GL111653   1.256  40.789   8.850
 3964POPC   GL211654   1.169  40.681   8.850
 3964POPC   C1A11655   1.177  40.756   8.550
 3964POPC   D2A11656   1.252  40.817   8.250
 3964POPC   C3A11657   1.203  40.784   7.950
 3964POPC   C4A11658   1.252  40.769   7.650
 3964POPC   C1B11659   1.088  40.549   8.550
 3964POPC   C2B11660   1.092  40.606   8.250
 3964POPC   C3B11661   1.033  40.570   7.950
 3964POPC   C4B11662   1.114  40.614   7.650
 3965POPC   NC311663  20.644  33.790   9.450
 3965POPC   PO411664  20.568  33.832   9.150
 3965POPC   GL111665  20.582  33.823   8.850
 3965POPC   GL211666  20.651  33.689   8.850
 3965POPC   C1A11667  20.623  33.830   8.550
 3965POPC   D2A11668  20.603  33.836   8.250
 3965POPC   C3A11669  20.598  33.791   7.950
 3965POPC   C4A11670  20.649  33.755   7.650
 3965POPC   C1B11671  20.774  33.567   8.550
 3965POPC   C2B11672  20.722  33.625   8.250
 3965POPC   C3B11673  20.813  33.567   7.950
 3965POPC   C4B11674  20.743  33.630   7.650
 3966POPC   NC311675   4.296  40.016   9.450
 3966POPC   PO411676   4.344  40.014   9.150
 3966POPC   GL111677   4.286  40.036   8.850
 3966POPC   GL211678   4.310  40.132   8.850
 3966POPC   C1A11679   4.318  39.997   8.550
 3966POPC   D2A11680   4.305  39.972   8.250
 3966POPC   C3A11681   4.364  40.055   7.950
 3966POPC   C4A11682   4.295  39.962   7.650
 3966POPC   C1B11683   4.283  40.299   8.550
 3966POPC   C2B11684   4.288  40.211   8.250
 3966POPC   C3B11685   4.306  40.251   7.950
 3966POPC   C4B11686   4.307  40.237   7.650
 3967POPC   NC311687   4.364  12.809   9.450
 3967POPC   PO411688   4.296  12.899   9.150
 3967POPC   GL111689   4.348  12.873   8.850
 3967POPC   GL211690   4.378  12.747   8.850
 3967POPC   C1A11691   4.362  12.830   8.550
 3967POPC   D2A11692   4.350  12.876   8.250
 3967POPC   C3A11693   4.345  12.847   7.950
 3967POPC   C4A11694   4.341  12.873   7.650
 3967POPC   C1B11695   4.431  12.628   8.550
 3967POPC   C2B11696   4.443  12.586   8.250
 3967POPC   C3B11697   4.428  12.645   7.950
 3967POPC   C4B11698   4.390  12.590   7.650
 3968POPC   NC311699  32.995   2.760   9.450
 3968POPC   PO411700  33.065   2.764   9.150
 3968POPC   GL111701  33.063   2.763   8.850
 3968POPC   GL211702  33.062   2.633   8.850
 3968POPC   C1A11703  33.063   2.752   8.550
 3968POPC   D2A11704  33.064   2.795   8.250
 3968POPC   C3A11705  33.054   2.731   7.950
 3968POPC   C4A11706  33.045   2.725   7.650
 3968POPC   C1B11707  33.188   2.562   8.550
 3968POPC   C2B11708  33.112   2.562   8.250
 3968POPC   C3B11709  33.112   2.597   7.950
 3968POPC   C4B11710  33.201   2.564   7.650
 3969POPC   NC311711  44.661   1.235   9.450
 3969POPC   PO411712  44.656   1.197   9.150
 3969POPC   GL111713  44.637   1.173   8.850
 3969POPC   GL211714  44.548   1.248   8.850
 3969POPC   C1A11715  44.704   1.176   8.550
 3969POPC   D2A11716  44.624   1.199   8.250
 3969POPC   C3A11717  44.695   1.182   7.950
 3969POPC   C4A11718  44.693   1.186   7.650
 3969POPC   C1B11719  44.506   1.396   8.550
 3969POPC   C2B11720  44.442   1.373   8.250
 3969POPC   C3B11721  44.488   1.325   7.950
 3969POPC   C4B11722  44.410   1.371   7.650
 3970POPC   NC311723  40.764   7.437   9.450
 3970POPC   PO411724  40.815   7.433   9.150
 3970POPC   GL111725  40.798   7.427   8.850
 3970POPC   GL211726  40.812   7.568   8.850
 3970POPC   C1A11727  40.774   7.468   8.550
 3970POPC   D2A11728  40.810   7.454   8.250
 3970POPC   C3A11729  40.800   7.456   7.950
 3970POPC   C4A11730  40.786   7.387   7.650
 3970POPC   C1B11731  40.949   7.670   8.550
 3970POPC   C2B11732  40.873   7.611   8.250
 3970POPC   C3B11733  40.889   7.660   7.950
 3970POPC   C4B11734  40.955   7.599   7.650
 3971POPC   NC311735  11.250  33.055   9.450
 3971POPC   PO411736  11.280  33.003   9.150
 3971POPC   GL111737  11.310  32.974   8.850
 3971POPC   GL211738  11.184  32.921   8.850
 3971POPC   C1A11739  11.265  33.059   8.550
 3971POPC   D2A11740  11.343  33.069   8.250
 3971POPC   C3A11741  11.313  33.004   7.950
 3971POPC   C4A11742  11.323  33.044   7.650
 3971POPC   C1B11743  11.076  32.908   8.550
 3971POPC   C2B11744  11.071  32.818   8.250
 3971POPC   C3B11745  11.067  32.879   7.950
 3971POPC   C4B11746  11.141  32.843   7.650
 3972POPC   NC311747  19.009  36.110   9.450
 3972POPC   PO411748  19.086  36.110   9.150
 3972POPC   GL111749  19.095  36.165   8.850
 3972POPC   GL211750  19.101  36.215   8.850
 3972POPC   C1A11751  19.037  36.114   8.550
 3972POPC   D2A11752  19.054  36.088   8.250
 3972POPC   C3A11753  19.054  36.133   7.950
 3972POPC   C4A11754  19.103  36.095   7.650
 3972POPC   C1B11755  19.113  36.321   8.550
 3972POPC   C2B11756  19.088  36.323   8.250
 3972POPC   C3B11757  19.074  36.376   7.950
 3972POPC   C4B11758  19.154  36.335   7.650
 3973POPC   NC311759  36.094  19.033   9.450
 3973POPC   PO411760  36.137  19.020   9.150
 3973POPC   GL111761  36.099  19.014   8.850
 3973POPC   GL211762  36.165  19.145   8.850
 3973POPC   C1A11763  36.173  19.062   8.550
 3973POPC   D2A11764  36.114  19.033   8.250
 3973POPC   C3A11765  36.160  19.035   7.950
 3973POPC   C4A11766  36.153  19.060   7.650
 3973POPC   C1B11767  36.212  19.286   8.550
 3973POPC   C2B11768  36.243  19.290   8.250
 3973POPC   C3B11769  36.214  19.322   7.950
 3973POPC   C4B11770  36.169  19.313   7.650
 3974POPC   NC311771  32.237  37.714   9.450
 3974POPC   PO411772  32.202  37.692   9.150
 3974POPC   GL111773  32.204  37.664   8.850
 3974POPC   GL211774  32.224  37.850   8.850
 3974POPC   C1A11775  32.293  37.653   8.550
 3974POPC   D2A11776  32.290  37.663   8.250
 3974POPC   C3A11777  32.240  37.633   7.950
 3974POPC   C4A11778  32.217  37.717   7.650
 3974POPC   C1B11779  32.177  37.880   8.550
 3974POPC   C2B11780  32.171  37.895   8.250
 3974POPC   C3B11781  32.153  37.913   7.950
 3974POPC   C4B11782  32.187  37.944   7.650
 3975POPC   NC311783  36.950  37.676   9.450
 3975POPC   PO411784  36.920  37.658   9.150
 3975POPC   GL111785  36.889  37.648   8.850
 3975POPC   GL211786  37.002  37.568   8.850
 3975POPC   C1A11787  36.934  37.661   8.550
 3975POPC   D2A11788  36.887  37.707   8.250
 3975POPC   C3A11789  36.889  37.643   7.950
 3975POPC   C4A11790  36.909  37.660   7.650
 3975POPC   C1B11791  37.049  37.452   8.550
 3975POPC   C2B11792  37.023  37.434   8.250
 3975POPC   C3B11793  37.043  37.453   7.950
 3975POPC   C4B11794  37.052  37.415   7.650
 3976POPC   NC311795  41.577  19.851   9.450
 3976POPC   PO411796  41.565  19.855   9.150
 3976POPC   GL111797  41.530  19.828   8.850
 3976POPC   GL211798  41.633  19.779   8.850
 3976POPC   C1A11799  41.588  19.876   8.550
 3976POPC   D2A11800  41.533  19.871   8.250
 3976POPC   C3A11801  41.584  19.866   7.950
 3976POPC   C4A11802  41.551  19.820   7.650
 3976POPC   C1B11803  41.717  19.590   8.550
 3976POPC   C2B11804  41.727  19.623   8.250
 3976POPC   C3B11805  41.737  19.663   7.950
 3976POPC   C4B11806  41.712  19.655   7.650
 3977POPC   NC311807  44.673  33.024   9.450
 3977POPC   PO411808  44.663  33.038   9.150
 3977POPC   GL111809  44.648  33.043   8.850
 3977POPC   GL211810  44.765  32.908   8.850
 3977POPC   C1A11811  44.676  32.977   8.550
 3977POPC   D2A11812  44.640  32.994   8.250
 3977POPC   C3A11813  44.612  33.009   7.950
 3977POPC   C4A11814  44.702  33.062   7.650
 3977POPC   C1B11815  44.791  32.776   8.550
 3977POPC   C2B11816  44.856  32.796   8.250
 3977POPC   C3B11817  44.860  32.801   7.950
 3977POPC   C4B11818  44.858  32.873   7.650
 3978POPC   NC311819  42.366   5.854   9.450
 3978POPC   PO411820  42.384   5.900   9.150
 3978POPC   GL111821  42.356   5.874   8.850
 3978POPC   GL211822  42.389   5.708   8.850
 3978POPC   C1A11823  42.320   5.847   8.550
 3978POPC   D2A11824  42.294   5.900   8.250
 3978POPC   C3A11825  42.344   5.832   7.950
 3978POPC   C4A11826  42.339   5.875   7.650
 3978POPC   C1B11827  42.432   5.602   8.550
 3978POPC   C2B11828  42.407   5.661   8.250
 3978POPC   C3B11829  42.402   5.644   7.950
 3978POPC   C4B11830  42.490   5.676   7.650
 3979POPC   NC311831  22.176  13.635   9.450
 3979POPC   PO411832  22.176  13.647   9.150
 3979POPC   GL111833  22.116  13.622   8.850
 3979POPC   GL211834  22.025  13.609   8.850
 3979POPC   C1A11835  22.173  13.596   8.550
 3979POPC   D2A11836  22.158  13.610   8.250
 3979POPC   C3A11837  22.123  13.649   7.950
 3979POPC   C4A11838  22.134  13.594   7.650
 3979POPC   C1B11839  21.962  13.605   8.550
 3979POPC   C2B11840  21.946  13.629   8.250
 3979POPC   C3B11841  21.943  13.603   7.950
 3979POPC   C4B11842  21.949  13.686   7.650
 3980POPC   NC311843  30.724  22.157   9.450
 3980POPC   PO411844  30.740  22.212   9.150
 3980POPC   GL111845  30.680  22.192   8.850
 3980POPC   GL211846  30.619  22.081   8.850
 3980POPC   C1A11847  30.654  22.126   8.550
 3980POPC   D2A11848  30.671  22.152   8.250
 3980POPC   C3A11849  30.742  22.153   7.950
 3980POPC   C4A11850  30.687  22.195   7.650
 3980POPC   C1B11851  30.487  22.012   8.550
 3980POPC   C2B11852  30.506  22.011   8.250
 3980POPC   C3B11853  30.467  21.981   7.950
 3980POPC   C4B11854  30.460  22.027   7.650
 3981POPC   NC311855  16.725   7.391   9.450
 3981POPC   PO411856  16.699   7.424   9.150
 3981POPC   GL111857  16.753   7.442   8.850
 3981POPC   GL211858  16.738   7.574   8.850
 3981POPC   C1A11859  16.697   7.400   8.550
 3981POPC   D2A11860  16.768   7.426   8.250
 3981POPC   C3A11861  16.714   7.385   7.950
 3981POPC   C4A11862  16.735   7.433   7.650
 3981POPC   C1B11863  16.690   7.705   8.550
 3981POPC   C2B11864  16.665   7.646   8.250
 3981POPC   C3B11865  16.667   7.649   7.950
 3981POPC   C4B11866  16.731   7.698   7.650
 3982POPC   NC311867  19.840   2.808   9.450
 3982POPC   PO411868  19.805   2.751   9.150
 3982POPC   GL111869  19.827   2.802   8.850
 3982POPC   GL211870  19.797   2.628   8.850
 3982POPC   C1A11871  19.849   2.784   8.550
 3982POPC   D2A11872  19.802   2.733   8.250
 3982POPC   C3A11873  19.795   2.730   7.950
 3982POPC   C4A11874  19.834   2.756   7.650
 3982POPC   C1B11875  19.670   2.552   8.550
 3982POPC   C2B11876  19.688   2.598   8.250
 3982POPC   C3B11877  19.628   2.618   7.950
 3982POPC   C4B11878  19.692   2.538   7.650
 3983POPC   NC311879  38.461   7.440   9.450
 3983POPC   PO411880  38.425   7.417   9.150
 3983POPC   GL111881  38.405   7.378   8.850
 3983POPC   GL211882  38.594   7.362   8.850
 3983POPC   C1A11883  38.419   7.435   8.550
 3983POPC   D2A11884  38.483   7.409   8.250
 3983POPC   C3A11885  38.490   7.463   7.950
 3983POPC   C4A11886  38.434   7.417   7.650
 3983POPC   C1B11887  38.705   7.342   8.550
 3983POPC   C2B11888  38.725   7.279   8.250
 3983POPC   C3B11889  38.678   7.342   7.950
 3983POPC   C4B11890  38.646   7.266   7.650
 3984POPC   NC311891  40.825  32.251   9.450
 3984POPC   PO411892  40.738  32.209   9.150
 3984POPC   GL111893  40.804  32.290   8.850
 3984POPC   GL211894  40.869  32.150   8.850
 3984POPC   C1A11895  40.770  32.274   8.550
 3984POPC   D2A11896  40.755  32.250   8.250
 3984POPC   C3A11897  40.798  32.267   7.950
 3984POPC   C4A11898  40.744  32.244   7.650
 3984POPC   C1B11899  40.923  32.081   8.550
 3984POPC   C2B11900  40.946  32.077   8.250
 3984POPC   C3B11901  40.994  32.054   7.950
 3984POPC   C4B11902  40.931  32.064   7.650
 3985POPC   NC311903  24.472  32.235   9.450
 3985POPC   PO411904  24.471  32.278   9.150
 3985POPC   GL111905  24.464  32.240   8.850
 3985POPC   GL211906  24.354  32.238   8.850
 3985POPC   C1A11907  24.488  32.278   8.550
 3985POPC   D2A11908  24.440  32.243   8.250
 3985POPC   C3A11909  24.483  32.206   7.950
 3985POPC   C4A11910  24.458  32.206   7.650
 3985POPC   C1B11911  24.229  32.219   8.550
 3985POPC   C2B11912  24.283  32.223   8.250
 3985POPC   C3B11913  24.267  32.239   7.950
 3985POPC   C4B11914  24.201  32.191   7.650
 3986POPC   NC311915  33.060  35.378   9.450
 3986POPC   PO411916  32.983  35.370   9.150
 3986POPC   GL111917  33.036  35.394   8.850
 3986POPC   GL211918  33.040  35.516   8.850
 3986POPC   C1A11919  33.051  35.390   8.550
 3986POPC   D2A11920  33.004  35.318   8.250
 3986POPC   C3A11921  33.055  35.394   7.950
 3986POPC   C4A11922  33.001  35.385   7.650
 3986POPC   C1B11923  33.050  35.572   8.550
 3986POPC   C2B11924  33.106  35.590   8.250
 3986POPC   C3B11925  33.029  35.582   7.950
 3986POPC   C4B11926  33.083  35.636   7.650
 3987POPC   NC311927   8.155  40.735   9.450
 3987POPC   PO411928   8.205  40.765   9.150
 3987POPC   GL111929   8.165  40.737   8.850
 3987POPC   GL211930   8.220  40.679   8.850
 3987POPC   C1A11931   8.227  40.807   8.550
 3987POPC   D2A11932   8.224  40.816   8.250
 3987POPC   C3A11933   8.172  40.780   7.950
 3987POPC   C4A11934   8.196  40.780   7.650
 3987POPC   C1B11935   8.111  40.492   8.550
 3987POPC   C2B11936   8.154  40.581   8.250
 3987POPC   C3B11937   8.155  40.559   7.950
 3987POPC   C4B11938   8.146  40.561   7.650
 3988POPC   NC311939  18.322  39.985   9.450
 3988POPC   PO411940  18.287  39.964   9.150
 3988POPC   GL111941  18.240  39.977   8.850
 3988POPC   GL211942  18.410  40.021   8.850
 3988POPC   C1A11943  18.250  40.040   8.550
 3988POPC   D2A11944  18.280  40.043   8.250
 3988POPC   C3A11945  18.237  40.036   7.950
 3988POPC   C4A11946  18.306  40.003   7.650
 3988POPC   C1B11947  18.541  39.999   8.550
 3988POPC   C2B11948  18.571  40.019   8.250
 3988POPC   C3B11949  18.573  40.040   7.950
 3988POPC   C4B11950  18.528  40.004   7.650
 3989POPC   NC311951  41.598  39.256   9.450
 3989POPC   PO411952  41.511  39.231   9.150
 3989POPC   GL111953  41.601  39.265   8.850
 3989POPC   GL211954  41.577  39.370   8.850
 3989POPC   C1A11955  41.608  39.237   8.550
 3989POPC   D2A11956  41.569  39.209   8.250
 3989POPC   C3A11957  41.571  39.275   7.950
 3989POPC   C4A11958  41.551  39.264   7.650
 3989POPC   C1B11959  41.501  39.476   8.550
 3989POPC   C2B11960  41.556  39.507   8.250
 3989POPC   C3B11961  41.534  39.489   7.950
 3989POPC   C4B11962  41.495  39.504   7.650
 3990POPC   NC311963  41.510  43.158   9.450
 3990POPC   PO411964  41.586  43.109   9.150
 3990POPC   GL111965  41.602  43.089   8.850
 3990POPC   GL211966  41.478  43.177   8.850
 3990POPC   C1A11967  41.534  43.158   8.550
 3990POPC   D2A11968  41.545  43.080   8.250
 3990POPC   C3A11969  41.542  43.090   7.950
 3990POPC   C4A11970  41.582  43.136   7.650
 3990POPC   C1B11971  41.400  43.316   8.550
 3990POPC   C2B11972  41.473  43.371   8.250
 3990POPC   C3B11973  41.431  43.325   7.950
 3990POPC   C4B11974  41.416  43.372   7.650
 3991POPC   NC311975  24.499   9.786   9.450
 3991POPC   PO411976  24.484   9.726   9.150
 3991POPC   GL111977  24.468   9.790   8.850
 3991POPC   GL211978  24.371   9.815   8.850
 3991POPC   C1A11979  24.467   9.739   8.550
 3991POPC   D2A11980  24.532   9.704   8.250
 3991POPC   C3A11981  24.516   9.732   7.950
 3991POPC   C4A11982  24.510   9.720   7.650
 3991POPC   C1B11983  24.280   9.784   8.550
 3991POPC   C2B11984  24.266   9.804   8.250
 3991POPC   C3B11985  24.216   9.804   7.950
 3991POPC   C4B11986  24.252   9.761   7.650
 3992POPC   NC311987   5.104  41.593   9.450
 3992POPC   PO411988   5.045  41.580   9.150
 3992POPC   GL111989   5.062  41.566   8.850
 3992POPC   GL211990   5.203  41.628   8.850
 3992POPC   C1A11991   5.076  41.589   8.550
 3992POPC   D2A11992   5.092  41.584   8.250
 3992POPC   C3A11993   5.103  41.547   7.950
 3992POPC   C4A11994   5.117  41.554   7.650
 3992POPC   C1B11995   5.281  41.696   8.550
 3992POPC   C2B11996   5.361  41.647   8.250
 3992POPC   C3B11997   5.315  41.692   7.950
 3992POPC   C4B11998   5.276  41.673   7.650
 3993POPC   NC311999  22.171  39.262   9.450
 3993POPC   PO412000  22.122  39.255   9.150
 3993POPC   GL112001  22.141  39.215   8.850
 3993POPC   GL212002  22.171  39.120   8.850
 3993POPC   C1A12003  22.120  39.236   8.550
 3993POPC   D2A12004  22.163  39.214   8.250
 3993POPC   C3A12005  22.177  39.183   7.950
 3993POPC   C4A12006  22.200  39.226   7.650
 3993POPC   C1B12007  22.075  39.034   8.550
 3993POPC   C2B12008  22.091  39.005   8.250
 3993POPC   C3B12009  22.134  38.968   7.950
 3993POPC   C4B12010  22.150  39.022   7.650
 3994POPC   NC312011  37.643   1.176   9.450
 3994POPC   PO412012  37.674   1.197   9.150
 3994POPC   GL112013  37.643   1.237   8.850
 3994POPC   GL212014  37.748   1.121   8.850
 3994POPC   C1A12015  37.708   1.242   8.550
 3994POPC   D2A12016  37.644   1.247   8.250
 3994POPC   C3A12017  37.655   1.217   7.950
 3994POPC   C4A12018  37.650   1.217   7.650
 3994POPC   C1B12019  37.784   1.038   8.550
 3994POPC   C2B12020  37.827   0.992   8.250
 3994POPC   C3B12021  37.764   1.011   7.950
 3994POPC   C4B12022  37.793   1.016   7.650
 3995POPC   NC312023  23.743  37.677   9.450
 3995POPC   PO412024  23.733  37.693   9.150
 3995POPC   GL112025  23.757  37.640   8.850
 3995POPC   GL212026  23.813  37.631   8.850
 3995POPC   C1A12027  23.676  37.648   8.550
 3995POPC   D2A12028  23.746  37.704   8.250
 3995POPC   C3A12029  23.716  37.659   7.950
 3995POPC   C4A12030  23.728  37.676   7.650
 3995POPC   C1B12031  23.978  37.632   8.550
 3995POPC   C2B12032  23.926  37.556   8.250
 3995POPC   C3B12033  23.926  37.560   7.950
 3995POPC   C4B12034  23.909  37.568   7.650
 3996POPC   NC312035  43.841  26.051   9.450
 3996POPC   PO412036  43.884  26.084   9.150
 3996POPC   GL112037  43.840  26.027   8.850
 3996POPC   GL212038  43.960  25.883   8.850
 3996POPC   C1A12039  43.848  26.021   8.550
 3996POPC   D2A12040  43.848  26.022   8.250
 3996POPC   C3A12041  43.925  26.007   7.950
 3996POPC   C4A12042  43.858  26.057   7.650
 3996POPC   C1B12043  43.916  25.791   8.550
 3996POPC   C2B12044  43.919  25.838   8.250
 3996POPC   C3B12045  43.919  25.795   7.950
 3996POPC   C4B12046  43.951  25.783   7.650
 3997POPC   NC312047  29.883  25.267   9.450
 3997POPC   PO412048  29.927  25.299   9.150
 3997POPC   GL112049  29.877  25.275   8.850
 3997POPC   GL212050  30.005  25.210   8.850
 3997POPC   C1A12051  29.941  25.314   8.550
 3997POPC   D2A12052  29.918  25.312   8.250
 3997POPC   C3A12053  29.960  25.261   7.950
 3997POPC   C4A12054  29.942  25.252   7.650
 3997POPC   C1B12055  30.060  25.059   8.550
 3997POPC   C2B12056  30.119  25.082   8.250
 3997POPC   C3B12057  30.056  25.065   7.950
 3997POPC   C4B12058  30.098  25.057   7.650
 3998POPC   NC312059   9.016  21.426   9.450
 3998POPC   PO412060   8.993  21.419   9.150
 3998POPC   GL112061   8.971  21.356   8.850
 3998POPC   GL212062   8.877  21.450   8.850
 3998POPC   C1A12063   8.926  21.348   8.550
 3998POPC   D2A12064   8.954  21.381   8.250
 3998POPC   C3A12065   8.960  21.416   7.950
 3998POPC   C4A12066   8.941  21.351   7.650
 3998POPC   C1B12067   8.736  21.520   8.550
 3998POPC   C2B12068   8.779  21.444   8.250
 3998POPC   C3B12069   8.791  21.448   7.950
 3998POPC   C4B12070   8.719  21.454   7.650
 3999POPC   NC312071  10.566   1.167   9.450
 3999POPC   PO412072  10.526   1.172   9.150
 3999POPC   GL112073  10.569   1.197   8.850
 3999POPC   GL212074  10.532   1.064   8.850
 3999POPC   C1A12075  10.558   1.192   8.550
 3999POPC   D2A12076  10.566   1.183   8.250
 3999POPC   C3A12077  10.565   1.246   7.950
 3999POPC   C4A12078  10.481   1.167   7.650
 3999POPC   C1B12079  10.620   0.927   8.550
 3999POPC   C2B12080  10.594   0.969   8.250
 3999POPC   C3B12081  10.582   0.938   7.950
 3999POPC   C4B12082  10.622   0.932   7.650
 4000POPC   NC312083  11.336  29.950   9.450
 4000POPC   PO412084  11.321  29.932   9.150
 4000POPC   GL112085  11.277  29.940   8.850
 4000POPC   GL212086  11.299  29.804   8.850
 4000POPC   C1A12087  11.348  29.881   8.550
 4000POPC   D2A12088  11.250  29.901   8.250
 4000POPC   C3A12089  11.255  29.932   7.950
 4000POPC   C4A12090  11.290  29.877   7.650
 4000POPC   C1B12091  11.282  29.673   8.550
 4000POPC   C2B12092  11.293  29.661   8.250
 4000POPC   C3B12093  11.328  29.651   7.950
 4000POPC   C4B12094  11.327  29.629   7.650
 4001POPC   NC312095   7.425  33.029   9.450
 4001POPC   PO412096   7.440  33.030   9.150
 4001POPC   GL112097   7.387  32.989   8.850
 4001POPC   GL212098   7.328  33.015   8.850
 4001POPC   C1A12099   7.440  33.059   8.550
 4001POPC   D2A12100   7.462  33.064   8.250
 4001POPC   C3A12101   7.464  33.065   7.950
 4001POPC   C4A12102   7.374  33.026   7.650
 4001POPC   C1B12103   7.130  33.046   8.550
 4001POPC   C2B12104   7.211  33.097   8.250
 4001POPC   C3B12105   7.130  33.123   7.950
 4001POPC   C4B12106   7.211  33.066   7.650
 4002POPC   NC312107   1.261   8.950   9.450
 4002POPC   PO412108   1.264   8.945   9.150
 4002POPC   GL112109   1.222   8.959   8.850
 4002POPC   GL212110   1.379   8.959   8.850
 4002POPC   C1A12111   1.179   9.018   8.550
 4002POPC   D2A12112   1.224   8.931   8.250
 4002POPC   C3A12113   1.175   9.004   7.950
 4002POPC   C4A12114   1.236   8.982   7.650
 4002POPC   C1B12115   1.436   8.973   8.550
 4002POPC   C2B12116   1.457   8.976   8.250
 4002POPC   C3B12117   1.483   8.986   7.950
 4002POPC   C4B12118   1.416   8.970   7.650
 4003POPC   NC312119   8.999  11.300   9.450
 4003POPC   PO412120   8.938  11.322   9.150
 4003POPC   GL112121   8.943  11.302   8.850
 4003POPC   GL212122   9.043  11.165   8.850
 4003POPC   C1A12123   8.930  11.300   8.550
 4003POPC   D2A12124   8.965  11.305   8.250
 4003POPC   C3A12125   8.933  11.296   7.950
 4003POPC   C4A12126   8.932  11.313   7.650
 4003POPC   C1B12127   9.085  11.053   8.550
 4003POPC   C2B12128   9.091  11.080   8.250
 4003POPC   C3B12129   9.096  11.079   7.950
 4003POPC   C4B12130   9.085  11.051   7.650
 4004POPC   NC312131  31.483  12.048   9.450
 4004POPC   PO412132  31.470  12.050   9.150
 4004POPC   GL112133  31.428  12.106   8.850
 4004POPC   GL212134  31.565  12.142   8.850
 4004POPC   C1A12135  31.489  12.057   8.550
 4004POPC   D2A12136  31.461  12.029   8.250
 4004POPC   C3A12137  31.519  12.096   7.950
 4004POPC   C4A12138  31.433  12.085   7.650
 4004POPC   C1B12139  31.649  12.317   8.550
 4004POPC   C2B12140  31.591  12.298   8.250
 4004POPC   C3B12141  31.637  12.303   7.950
 4004POPC   C4B12142  31.589  12.323   7.650
 4005POPC   NC312143   0.397  27.641   9.450
 4005POPC   PO412144   0.404  27.625   9.150
 4005POPC   GL112145   0.478  27.589   8.850
 4005POPC   GL212146   0.345  27.519   8.850
 4005POPC   C1A12147   0.473  27.642   8.550
 4005POPC   D2A12148   0.424  27.638   8.250
 4005POPC   C3A12149   0.472  27.558   7.950
 4005POPC   C4A12150   0.398  27.596   7.650
 4005POPC   C1B12151   0.249  27.440   8.550
 4005POPC   C2B12152   0.255  27.442   8.250
 4005POPC   C3B12153   0.313  27.391   7.950
 4005POPC   C4B12154   0.306  27.424   7.650
 4006POPC   NC312155  10.525  12.863   9.450
 4006POPC   PO412156  10.487  12.816   9.150
 4006POPC   GL112157  10.574  12.814   8.850
 4006POPC   GL212158  10.540  12.704   8.850
 4006POPC   C1A12159  10.504  12.805   8.550
 4006POPC   D2A12160  10.474  12.886   8.250
 4006POPC   C3A12161  10.551  12.816   7.950
 4006POPC   C4A12162  10.516  12.900   7.650
 4006POPC   C1B12163  10.616  12.566   8.550
 4006POPC   C2B12164  10.542  12.631   8.250
 4006POPC   C3B12165  10.597  12.650   7.950
 4006POPC   C4B12166  10.609  12.610   7.650
 4007POPC   NC312167  19.815  43.159   9.450
 4007POPC   PO412168  19.858  43.062   9.150
 4007POPC   GL112169  19.876  43.076   8.850
 4007POPC   GL212170  19.735  43.186   8.850
 4007POPC   C1A12171  19.875  43.079   8.550
 4007POPC   D2A12172  19.870  43.152   8.250
 4007POPC   C3A12173  19.800  43.121   7.950
 4007POPC   C4A12174  19.841  43.120   7.650
 4007POPC   C1B12175  19.589  43.220   8.550
 4007POPC   C2B12176  19.629  43.194   8.250
 4007POPC   C3B12177  19.662  43.215   7.950
 4007POPC   C4B12178  19.579  43.274   7.650
 4008POPC   NC312179  28.407  26.028   9.450
 4008POPC   PO412180  28.325  26.078   9.150
 4008POPC   GL112181  28.362  26.012   8.850
 4008POPC   GL212182  28.392  25.870   8.850
 4008POPC   C1A12183  28.377  26.031   8.550
 4008POPC   D2A12184  28.388  26.085   8.250
 4008POPC   C3A12185  28.417  26.009   7.950
 4008POPC   C4A12186  28.408  26.044   7.650
 4008POPC   C1B12187  28.342  25.822   8.550
 4008POPC   C2B12188  28.314  25.780   8.250
 4008POPC   C3B12189  28.342  25.750   7.950
 4008POPC   C4B12190  28.367  25.824   7.650
 4009POPC   NC312191  25.241  37.721   9.450
 4009POPC   PO412192  25.312  37.657   9.150
 4009POPC   GL112193  25.269  37.675   8.850
 4009POPC   GL212194  25.343  37.701   8.850
 4009POPC   C1A12195  25.311  37.684   8.550
 4009POPC   D2A12196  25.225  37.700   8.250
 4009POPC   C3A12197  25.266  37.674   7.950
 4009POPC   C4A12198  25.233  37.672   7.650
 4009POPC   C1B12199  25.536  37.645   8.550
 4009POPC   C2B12200  25.474  37.639   8.250
 4009POPC   C3B12201  25.499  37.583   7.950
 4009POPC   C4B12202  25.483  37.646   7.650
 4010POPC   NC312203  15.917  28.323   9.450
 4010POPC   PO412204  15.926  28.412   9.150
 4010POPC   GL112205  15.945  28.377   8.850
 4010POPC   GL212206  15.843  28.354   8.850
 4010POPC   C1A12207  15.933  28.325   8.550
 4010POPC   D2A12208  15.964  28.387   8.250
 4010POPC   C3A12209  16.000  28.381   7.950
 4010POPC   C4A12210  15.964  28.331   7.650
 4010POPC   C1B12211  15.666  28.418   8.550
 4010POPC   C2B12212  15.735  28.356   8.250
 4010POPC   C3B12213  15.677  28.370   7.950
 4010POPC   C4B12214  15.754  28.419   7.650
 4011POPC   NC312215  30.705  42.315   9.450
 4011POPC   PO412216  30.712  42.379   9.150
 4011POPC   GL112217  30.677  42.305   8.850
 4011POPC   GL212218  30.828  42.196   8.850
 4011POPC   C1A12219  30.743  42.287   8.550
 4011POPC   D2A12220  30.733  42.368   8.250
 4011POPC   C3A12221  30.746  42.370   7.950
 4011POPC   C4A12222  30.649  42.373   7.650
 4011POPC   C1B12223  30.891  42.145   8.550
 4011POPC   C2B12224  30.859  42.154   8.250
 4011POPC   C3B12225  30.829  42.135   7.950
 4011POPC   C4B12226  30.819  42.173   7.650
 4012POPC   NC312227   0.402  21.414   9.450
 4012POPC   PO412228   0.476  21.396   9.150
 4012POPC   GL112229   0.439  21.393   8.850
 4012POPC   GL212230   0.477  21.305   8.850
 4012POPC   C1A12231   0.450  21.422   8.550
 4012POPC   D2A12232   0.394  21.341   8.250
 4012POPC   C3A12233   0.484  21.431   7.950
 4012POPC   C4A12234   0.456  21.353   7.650
 4012POPC   C1B12235   0.558  21.111   8.550
 4012POPC   C2B12236   0.494  21.166   8.250
 4012POPC   C3B12237   0.582  21.173   7.950
 4012POPC   C4B12238   0.499  21.147   7.650
 4013POPC   NC312239  39.990   8.930   9.450
 4013POPC   PO412240  40.010   9.015   9.150
 4013POPC   GL112241  40.035   9.012   8.850
 4013POPC   GL212242  39.961   8.858   8.850
 4013POPC   C1A12243  40.052   9.009   8.550
 4013POPC   D2A12244  40.016   8.940   8.250
 4013POPC   C3A12245  39.971   9.021   7.950
 4013POPC   C4A12246  40.022   8.971   7.650
 4013POPC   C1B12247  39.957   8.726   8.550
 4013POPC   C2B12248  39.906   8.689   8.250
 4013POPC   C3B12249  39.905   8.694   7.950
 4013POPC   C4B12250  39.960   8.749   7.650
 4014POPC   NC312251  31.495  21.356   9.450
 4014POPC   PO412252  31.466  21.349   9.150
 4014POPC   GL112253  31.500  21.351   8.850
 4014POPC   GL212254  31.436  21.501   8.850
 4014POPC   C1A12255  31.480  21.359   8.550
 4014POPC   D2A12256  31.447  21.362   8.250
 4014POPC   C3A12257  31.474  21.364   7.950
 4014POPC   C4A12258  31.453  21.359   7.650
 4014POPC   C1B12259  31.303  21.580   8.550
 4014POPC   C2B12260  31.327  21.607   8.250
 4014POPC   C3B12261  31.338  21.554   7.950
 4014POPC   C4B12262  31.340  21.584   7.650
 4015POPC   NC312263   9.745   2.023   9.450
 4015POPC   PO412264   9.788   2.029   9.150
 4015POPC   GL112265   9.750   1.997   8.850
 4015POPC   GL212266   9.897   1.876   8.850
 4015POPC   C1A12267   9.757   1.953   8.550
 4015POPC   D2A12268   9.797   1.990   8.250
 4015POPC   C3A12269   9.752   1.957   7.950
 4015POPC   C4A12270   9.786   1.969   7.650
 4015POPC   C1B12271   9.926   1.874   8.550
 4015POPC   C2B12272   9.941   1.861   8.250
 4015POPC   C3B12273   9.942   1.839   7.950
 4015POPC   C4B12274   9.969   1.889   7.650
 4016POPC   NC312275  39.990  34.622   9.450
 4016POPC   PO412276  39.974  34.569   9.150
 4016POPC   GL112277  40.010  34.545   8.850
 4016POPC   GL212278  40.140  34.546   8.850
 4016POPC   C1A12279  39.990  34.586   8.550
 4016POPC   D2A12280  40.025  34.605   8.250
 4016POPC   C3A12281  39.990  34.566   7.950
 4016POPC   C4A12282  39.990  34.574   7.650
 4016POPC   C1B12283  40.248  34.555   8.550
 4016POPC   C2B12284  40.244  34.541   8.250
 4016POPC   C3B12285  40.232  34.503   7.950
 4016POPC   C4B12286  40.297  34.555   7.650
 4017POPC   NC312287  21.362   2.004   9.450
 4017POPC   PO412288  21.416   1.963   9.150
 4017POPC   GL112289  21.387   1.988   8.850
 4017POPC   GL212290  21.514   1.986   8.850
 4017POPC   C1A12291  21.372   1.981   8.550
 4017POPC   D2A12292  21.406   1.982   8.250
 4017POPC   C3A12293  21.420   1.972   7.950
 4017POPC   C4A12294  21.362   2.028   7.650
 4017POPC   C1B12295  21.581   2.071   8.550
 4017POPC   C2B12296  21.646   2.029   8.250
 4017POPC   C3B12297  21.594   2.081   7.950
 4017POPC   C4B12298  21.630   2.048   7.650
 4018POPC   NC312299  18.316   4.358   9.450
 4018POPC   PO412300  18.249   4.335   9.150
 4018POPC   GL112301  18.257   4.336   8.850
 4018POPC   GL212302  18.280   4.440   8.850
 4018POPC   C1A12303  18.266   4.332   8.550
 4018POPC   D2A12304  18.272   4.300   8.250
 4018POPC   C3A12305  18.262   4.296   7.950
 4018POPC   C4A12306  18.242   4.293   7.650
 4018POPC   C1B12307  18.234   4.521   8.550
 4018POPC   C2B12308  18.190   4.564   8.250
 4018POPC   C3B12309  18.158   4.503   7.950
 4018POPC   C4B12310  18.163   4.514   7.650
 4019POPC   NC312311  44.649   8.963   9.450
 4019POPC   PO412312  44.618   8.966   9.150
 4019POPC   GL112313  44.688   8.969   8.850
 4019POPC   GL212314  44.815   9.013   8.850
 4019POPC   C1A12315  44.653   8.930   8.550
 4019POPC   D2A12316  44.653   8.969   8.250
 4019POPC   C3A12317  44.668   8.926   7.950
 4019POPC   C4A12318  44.672   8.942   7.650
 4019POPC   C1B12319  44.847   9.051   8.550
 4019POPC   C2B12320  44.886   9.074   8.250
 4019POPC   C3B12321  44.922   9.116   7.950
 4019POPC   C4B12322  44.905   9.114   7.650
 4020POPC   NC312323   8.193  34.532   9.450
 4020POPC   PO412324   8.165  34.531   9.150
 4020POPC   GL112325   8.174  34.603   8.850
 4020POPC   GL212326   8.252  34.483   8.850
 4020POPC   C1A12327   8.228  34.575   8.550
 4020POPC   D2A12328   8.160  34.530   8.250
 4020POPC   C3A12329   8.153  34.580   7.950
 4020POPC   C4A12330   8.233  34.568   7.650
 4020POPC   C1B12331   8.358  34.372   8.550
 4020POPC   C2B12332   8.399  34.398   8.250
 4020POPC   C3B12333   8.384  34.366   7.950
 4020POPC   C4B12334   8.347  34.355   7.650
 4021POPC   NC312335  43.086  32.237   9.450
 4021POPC   PO412336  43.065  32.254   9.150
 4021POPC   GL112337  43.155  32.245   8.850
 4021POPC   GL212338  43.138  32.187   8.850
 4021POPC   C1A12339  43.148  32.245   8.550
 4021POPC   D2A12340  43.114  32.276   8.250
 4021POPC   C3A12341  43.098  32.221   7.950
 4021POPC   C4A12342  43.095  32.247   7.650
 4021POPC   C1B12343  43.260  31.994   8.550
 4021POPC   C2B12344  43.273  32.055   8.250
 4021POPC   C3B12345  43.204  32.077   7.950
 4021POPC   C4B12346  43.228  32.077   7.650
 4022POPC   NC312347  19.049  15.197   9.450
 4022POPC   PO412348  19.009  15.176   9.150
 4022POPC   GL112349  19.042  15.206   8.850
 4022POPC   GL212350  18.962  15.195   8.850
 4022POPC   C1A12351  19.033  15.228   8.550
 4022POPC   D2A12352  19.049  15.189   8.250
 4022POPC   C3A12353  19.095  15.161   7.950
 4022POPC   C4A12354  19.106  15.204   7.650
 4022POPC   C1B12355  18.791  15.179   8.550
 4022POPC   C2B12356  18.777  15.217   8.250
 4022POPC   C3B12357  18.805  15.174   7.950
 4022POPC   C4B12358  18.846  15.177   7.650
 4023POPC   NC312359  40.050  27.636   9.450
 4023POPC   PO412360  39.984  27.564   9.150
 4023POPC   GL112361  39.973  27.548   8.850
 4023POPC   GL212362  40.012  27.451   8.850
 4023POPC   C1A12363  40.016  27.628   8.550
 4023POPC   D2A12364  40.011  27.593   8.250
 4023POPC   C3A12365  40.053  27.566   7.950
 4023POPC   C4A12366  39.959  27.551   7.650
 4023POPC   C1B12367  39.973  27.383   8.550
 4023POPC   C2B12368  39.944  27.368   8.250
 4023POPC   C3B12369  40.012  27.297   7.950
 4023POPC   C4B12370  39.977  27.349   7.650
 4024POPC   NC312371  11.323   8.231   9.450
 4024POPC   PO412372  11.327   8.164   9.150
 4024POPC   GL112373  11.321   8.204   8.850
 4024POPC   GL212374  11.370   8.167   8.850
 4024POPC   C1A12375  11.275   8.162   8.550
 4024POPC   D2A12376  11.264   8.243   8.250
 4024POPC   C3A12377  11.334   8.214   7.950
 4024POPC   C4A12378  11.269   8.203   7.650
 4024POPC   C1B12379  11.533   8.055   8.550
 4024POPC   C2B12380  11.497   8.142   8.250
 4024POPC   C3B12381  11.500   8.075   7.950
 4024POPC   C4B12382  11.555   8.134   7.650
 4025POPC   NC312383  38.424  17.518   9.450
 4025POPC   PO412384  38.502  17.508   9.150
 4025POPC   GL112385  38.439  17.552   8.850
 4025POPC   GL212386  38.504  17.412   8.850
 4025POPC   C1A12387  38.438  17.551   8.550
 4025POPC   D2A12388  38.432  17.504   8.250
 4025POPC   C3A12389  38.467  17.520   7.950
 4025POPC   C4A12390  38.461  17.518   7.650
 4025POPC   C1B12391  38.655  17.368   8.550
 4025POPC   C2B12392  38.586  17.340   8.250
 4025POPC   C3B12393  38.655  17.329   7.950
 4025POPC   C4B12394  38.623  17.293   7.650
 4026POPC   NC312395  25.253   4.337   9.450
 4026POPC   PO412396  25.287   4.305   9.150
 4026POPC   GL112397  25.229   4.280   8.850
 4026POPC   GL212398  25.402   4.319   8.850
 4026POPC   C1A12399  25.291   4.328   8.550
 4026POPC   D2A12400  25.254   4.300   8.250
 4026POPC   C3A12401  25.233   4.326   7.950
 4026POPC   C4A12402  25.255   4.280   7.650
 4026POPC   C1B12403  25.457   4.367   8.550
 4026POPC   C2B12404  25.540   4.375   8.250
 4026POPC   C3B12405  25.520   4.335   7.950
 4026POPC   C4B12406  25.470   4.356   7.650
 4027POPC   NC312407  34.622   6.612   9.450
 4027POPC   PO412408  34.614   6.599   9.150
 4027POPC   GL112409  34.535   6.693   8.850
 4027POPC   GL212410  34.494   6.546   8.850
 4027POPC   C1A12411  34.606   6.641   8.550
 4027POPC   D2A12412  34.531   6.651   8.250
 4027POPC   C3A12413  34.614   6.682   7.950
 4027POPC   C4A12414  34.598   6.639   7.650
 4027POPC   C1B12415  34.360   6.449   8.550
 4027POPC   C2B12416  34.407   6.446   8.250
 4027POPC   C3B12417  34.360   6.442   7.950
 4027POPC   C4B12418  34.364   6.501   7.650
 4028POPC   NC312419  25.315  32.288   9.450
 4028POPC   PO412420  25.300  32.226   9.150
 4028POPC   GL112421  25.287  32.271   8.850
 4028POPC   GL212422  25.333  32.167   8.850
 4028POPC   C1A12423  25.249  32.222   8.550
 4028POPC   D2A12424  25.221  32.202   8.250
 4028POPC   C3A12425  25.273  32.223   7.950
 4028POPC   C4A12426  25.299  32.273   7.650
 4028POPC   C1B12427  25.411  32.074   8.550
 4028POPC   C2B12428  25.491  32.062   8.250
 4028POPC   C3B12429  25.468  32.091   7.950
 4028POPC   C4B12430  25.457  32.113   7.650
 4029POPC   NC312431  36.167  13.630   9.450
 4029POPC   PO412432  36.157  13.632   9.150
 4029POPC   GL112433  36.142  13.615   8.850
 4029POPC   GL212434  36.178  13.471   8.850
 4029POPC   C1A12435  36.079  13.657   8.550
 4029POPC   D2A12436  36.101  13.629   8.250
 4029POPC   C3A12437  36.170  13.652   7.950
 4029POPC   C4A12438  36.114  13.655   7.650
 4029POPC   C1B12439  36.185  13.441   8.550
 4029POPC   C2B12440  36.261  13.426   8.250
 4029POPC   C3B12441  36.212  13.441   7.950
 4029POPC   C4B12442  36.200  13.426   7.650
 4030POPC   NC312443  44.707  29.108   9.450
 4030POPC   PO412444  44.648  29.190   9.150
 4030POPC   GL112445  44.646  29.186   8.850
 4030POPC   GL212446  44.758  29.218   8.850
 4030POPC   C1A12447  44.670  29.169   8.550
 4030POPC   D2A12448  44.708  29.134   8.250
 4030POPC   C3A12449  44.691  29.164   7.950
 4030POPC   C4A12450  44.662  29.136   7.650
 4030POPC   C1B12451  44.809  29.276   8.550
 4030POPC   C2B12452  44.835  29.309   8.250
 4030POPC   C3B12453  44.875  29.280   7.950
 4030POPC   C4B12454  44.837  29.351   7.650
 4031POPC   NC312455  36.924  19.031   9.450
 4031POPC   PO412456  36.899  19.038   9.150
 4031POPC   GL112457  36.942  19.090   8.850
 4031POPC   GL212458  36.949  19.227   8.850
 4031POPC   C1A12459  36.891  19.052   8.550
 4031POPC   D2A12460  36.890  19.026   8.250
 4031POPC   C3A12461  36.931  19.035   7.950
 4031POPC   C4A12462  36.901  19.063   7.650
 4031POPC   C1B12463  36.916  19.328   8.550
 4031POPC   C2B12464  36.922  19.315   8.250
 4031POPC   C3B12465  36.884  19.263   7.950
 4031POPC   C4B12466  36.934  19.335   7.650
 4032POPC   NC312467  18.247  33.818   9.450
 4032POPC   PO412468  18.267  33.785   9.150
 4032POPC   GL112469  18.252  33.823   8.850
 4032POPC   GL212470  18.426  33.778   8.850
 4032POPC   C1A12471  18.260  33.846   8.550
 4032POPC   D2A12472  18.266  33.811   8.250
 4032POPC   C3A12473  18.297  33.812   7.950
 4032POPC   C4A12474  18.321  33.844   7.650
 4032POPC   C1B12475  18.555  33.645   8.550
 4032POPC   C2B12476  18.499  33.694   8.250
 4032POPC   C3B12477  18.500  33.648   7.950
 4032POPC   C4B12478  18.531  33.656   7.650
 4033POPC   NC312479  22.210  15.193   9.450
 4033POPC   PO412480  22.170  15.163   9.150
 4033POPC   GL112481  22.188  15.219   8.850
 4033POPC   GL212482  22.014  15.120   8.850
 4033POPC   C1A12483  22.117  15.202   8.550
 4033POPC   D2A12484  22.153  15.221   8.250
 4033POPC   C3A12485  22.141  15.169   7.950
 4033POPC   C4A12486  22.121  15.195   7.650
 4033POPC   C1B12487  21.956  15.143   8.550
 4033POPC   C2B12488  21.872  15.152   8.250
 4033POPC   C3B12489  21.892  15.071   7.950
 4033POPC   C4B12490  21.900  15.157   7.650
 4034POPC   NC312491  23.686   8.955   9.450
 4034POPC   PO412492  23.667   9.004   9.150
 4034POPC   GL112493  23.667   8.960   8.850
 4034POPC   GL212494  23.556   9.060   8.850
 4034POPC   C1A12495  23.687   9.006   8.550
 4034POPC   D2A12496  23.691   8.931   8.250
 4034POPC   C3A12497  23.723   8.977   7.950
 4034POPC   C4A12498  23.722   8.960   7.650
 4034POPC   C1B12499  23.483   9.082   8.550
 4034POPC   C2B12500  23.473   9.087   8.250
 4034POPC   C3B12501  23.443   9.090   7.950
 4034POPC   C4B12502  23.464   9.028   7.650
 4035POPC   NC312503   2.798   5.138   9.450
 4035POPC   PO412504   2.720   5.142   9.150
 4035POPC   GL112505   2.803   5.139   8.850
 4035POPC   GL212506   2.686   5.110   8.850
 4035POPC   C1A12507   2.812   5.125   8.550
 4035POPC   D2A12508   2.803   5.126   8.250
 4035POPC   C3A12509   2.759   5.068   7.950
 4035POPC   C4A12510   2.814   5.083   7.650
 4035POPC   C1B12511   2.557   5.041   8.550
 4035POPC   C2B12512   2.550   5.088   8.250
 4035POPC   C3B12513   2.507   5.030   7.950
 4035POPC   C4B12514   2.569   4.999   7.650
 4036POPC   NC312515  28.374  31.442   9.450
 4036POPC   PO412516  28.334  31.496   9.150
 4036POPC   GL112517  28.352  31.482   8.850
 4036POPC   GL212518  28.447  31.371   8.850
 4036POPC   C1A12519  28.344  31.433   8.550
 4036POPC   D2A12520  28.346  31.514   8.250
 4036POPC   C3A12521  28.418  31.484   7.950
 4036POPC   C4A12522  28.406  31.444   7.650
 4036POPC   C1B12523  28.553  31.306   8.550
 4036POPC   C2B12524  28.559  31.283   8.250
 4036POPC   C3B12525  28.612  31.294   7.950
 4036POPC   C4B12526  28.555  31.335   7.650
 4037POPC   NC312527   2.779  28.405   9.450
 4037POPC   PO412528   2.756  28.412   9.150
 4037POPC   GL112529   2.805  28.373   8.850
 4037POPC   GL212530   2.715  28.514   8.850
 4037POPC   C1A12531   2.764  28.369   8.550
 4037POPC   D2A12532   2.762  28.361   8.250
 4037POPC   C3A12533   2.718  28.404   7.950
 4037POPC   C4A12534   2.797  28.394   7.650
 4037POPC   C1B12535   2.661  28.640   8.550
 4037POPC   C2B12536   2.665  28.593   8.250
 4037POPC   C3B12537   2.647  28.578   7.950
 4037POPC   C4B12538   2.701  28.564   7.650
 4038POPC   NC312539  13.585  41.577   9.450
 4038POPC   PO412540  13.657  41.521   9.150
 4038POPC   GL112541  13.630  41.521   8.850
 4038POPC   GL212542  13.525  41.514   8.850
 4038POPC   C1A12543  13.660  41.607   8.550
 4038POPC   D2A12544  13.588  41.555   8.250
 4038POPC   C3A12545  13.632  41.603   7.950
 4038POPC   C4A12546  13.615  41.548   7.650
 4038POPC   C1B12547  13.343  41.534   8.550
 4038POPC   C2B12548  13.396  41.534   8.250
 4038POPC   C3B12549  13.369  41.483   7.950
 4038POPC   C4B12550  13.386  41.474   7.650
 4039POPC   NC312551  26.087  29.954   9.450
 4039POPC   PO412552  26.009  29.886   9.150
 4039POPC   GL112553  25.997  29.901   8.850
 4039POPC   GL212554  26.087  30.046   8.850
 4039POPC   C1A12555  26.001  29.937   8.550
 4039POPC   D2A12556  26.017  29.952   8.250
 4039POPC   C3A12557  26.011  29.965   7.950
 4039POPC   C4A12558  26.036  29.948   7.650
 4039POPC   C1B12559  26.242  30.078   8.550
 4039POPC   C2B12560  26.223  30.051   8.250
 4039POPC   C3B12561  26.187  30.075   7.950
 4039POPC   C4B12562  26.204  30.058   7.650
 4040POPC   NC312563  19.071  12.096   9.450
 4040POPC   PO412564  19.024  12.027   9.150
 4040POPC   GL112565  19.082  12.043   8.850
 4040POPC   GL212566  18.996  12.163   8.850
 4040POPC   C1A12567  19.066  12.032   8.550
 4040POPC   D2A12568  19.069  12.050   8.250
 4040POPC   C3A12569  19.086  12.108   7.950
 4040POPC   C4A12570  19.086  12.092   7.650
 4040POPC   C1B12571  18.994  12.311   8.550
 4040POPC   C2B12572  18.976  12.305   8.250
 4040POPC   C3B12573  19.042  12.278   7.950
 4040POPC   C4B12574  18.966  12.361   7.650
 4041POPC   NC312575   5.113  32.292   9.450
 4041POPC   PO412576   5.136  32.201   9.150
 4041POPC   GL112577   5.124  32.234   8.850
 4041POPC   GL212578   5.117  32.383   8.850
 4041POPC   C1A12579   5.143  32.256   8.550
 4041POPC   D2A12580   5.044  32.200   8.250
 4041POPC   C3A12581   5.067  32.211   7.950
 4041POPC   C4A12582   5.076  32.211   7.650
 4041POPC   C1B12583   5.206  32.524   8.550
 4041POPC   C2B12584   5.210  32.441   8.250
 4041POPC   C3B12585   5.176  32.476   7.950
 4041POPC   C4B12586   5.164  32.508   7.650
 4042POPC   NC312587  39.218  43.879   9.450
 4042POPC   PO412588  39.280  43.914   9.150
 4042POPC   GL112589  39.229  43.924   8.850
 4042POPC   GL212590  39.103  43.887   8.850
 4042POPC   C1A12591  39.192  43.871   8.550
 4042POPC   D2A12592  39.250  43.929   8.250
 4042POPC   C3A12593  39.279  43.908   7.950
 4042POPC   C4A12594  39.253  43.862   7.650
 4042POPC   C1B12595  39.036  44.018   8.550
 4042POPC   C2B12596  39.008  43.931   8.250
 4042POPC   C3B12597  38.976  43.980   7.950
 4042POPC   C4B12598  39.031  43.994   7.650
 4043POPC   NC312599  26.793   8.993   9.450
 4043POPC   PO412600  26.772   9.016   9.150
 4043POPC   GL112601  26.840   9.016   8.850
 4043POPC   GL212602  26.801   9.035   8.850
 4043POPC   C1A12603  26.829   8.998   8.550
 4043POPC   D2A12604  26.862   8.929   8.250
 4043POPC   C3A12605  26.799   8.956   7.950
 4043POPC   C4A12606  26.806   8.963   7.650
 4043POPC   C1B12607  26.687   9.206   8.550
 4043POPC   C2B12608  26.702   9.220   8.250
 4043POPC   C3B12609  26.732   9.140   7.950
 4043POPC   C4B12610  26.716   9.155   7.650
 4044POPC   NC312611   3.499   1.971   9.450
 4044POPC   PO412612   3.552   1.981   9.150
 4044POPC   GL112613   3.539   1.983   8.850
 4044POPC   GL212614   3.669   1.987   8.850
 4044POPC   C1A12615   3.543   1.980   8.550
 4044POPC   D2A12616   3.564   1.950   8.250
 4044POPC   C3A12617   3.536   2.002   7.950
 4044POPC   C4A12618   3.549   2.020   7.650
 4044POPC   C1B12619   3.778   1.966   8.550
 4044POPC   C2B12620   3.824   1.946   8.250
 4044POPC   C3B12621   3.780   1.999   7.950
 4044POPC   C4B12622   3.775   1.946   7.650
 4045POPC   NC312623  38.465  26.000   9.450
 4045POPC   PO412624  38.484  26.044   9.150
 4045POPC   GL112625  38.489  26.036   8.850
 4045POPC   GL212626  38.489  26.114   8.850
 4045POPC   C1A12627  38.470  26.062   8.550
 4045POPC   D2A12628  38.439  26.037   8.250
 4045POPC   C3A12629  38.478  26.047   7.950
 4045POPC   C4A12630  38.501  26.020   7.650
 4045POPC   C1B12631  38.577  26.279   8.550
 4045POPC   C2B12632  38.604  26.291   8.250
 4045POPC   C3B12633  38.624  26.222   7.950
 4045POPC   C4B12634  38.593  26.306   7.650
 4046POPC   NC312635  10.515   4.352   9.450
 4046POPC   PO412636  10.501   4.298   9.150
 4046POPC   GL112637  10.562   4.363   8.850
 4046POPC   GL212638  10.460   4.277   8.850
 4046POPC   C1A12639  10.571   4.329   8.550
 4046POPC   D2A12640  10.491   4.326   8.250
 4046POPC   C3A12641  10.563   4.280   7.950
 4046POPC   C4A12642  10.509   4.335   7.650
 4046POPC   C1B12643  10.257   4.250   8.550
 4046POPC   C2B12644  10.314   4.245   8.250
 4046POPC   C3B12645  10.314   4.246   7.950
 4046POPC   C4B12646  10.316   4.197   7.650
 4047POPC   NC312647  33.012  24.479   9.450
 4047POPC   PO412648  33.070  24.510   9.150
 4047POPC   GL112649  33.028  24.443   8.850
 4047POPC   GL212650  33.029  24.400   8.850
 4047POPC   C1A12651  33.043  24.503   8.550
 4047POPC   D2A12652  33.047  24.518   8.250
 4047POPC   C3A12653  33.023  24.456   7.950
 4047POPC   C4A12654  33.015  24.526   7.650
 4047POPC   C1B12655  33.006  24.282   8.550
 4047POPC   C2B12656  33.039  24.241   8.250
 4047POPC   C3B12657  33.030  24.208   7.950
 4047POPC   C4B12658  33.026  24.237   7.650
 4048POPC   NC312659   5.086  10.502   9.450
 4048POPC   PO412660   5.140  10.483   9.150
 4048POPC   GL112661   5.055  10.555   8.850
 4048POPC   GL212662   4.963  10.514   8.850
 4048POPC   C1A12663   5.052  10.529   8.550
 4048POPC   D2A12664   5.053  10.554   8.250
 4048POPC   C3A12665   5.058  10.558   7.950
 4048POPC   C4A12666   5.132  10.566   7.650
 4048POPC   C1B12667   4.896  10.411   8.550
 4048POPC   C2B12668   4.812  10.450   8.250
 4048POPC   C3B12669   4.904  10.395   7.950
 4048POPC   C4B12670   4.883  10.399   7.650
 4049POPC   NC312671  26.022  12.084   9.450
 4049POPC   PO412672  26.047  12.081   9.150
 4049POPC   GL112673  26.031  12.050   8.850
 4049POPC   GL212674  25.912  12.055   8.850
 4049POPC   C1A12675  26.049  12.076   8.550
 4049POPC   D2A12676  26.014  12.052   8.250
 4049POPC   C3A12677  26.036  12.106   7.950
 4049POPC   C4A12678  26.051  12.043   7.650
 4049POPC   C1B12679  25.821  12.008   8.550
 4049POPC   C2B12680  25.830  11.976   8.250
 4049POPC   C3B12681  25.828  12.007   7.950
 4049POPC   C4B12682  25.778  12.035   7.650
 4050POPC   NC312683  33.060  39.990   9.450
 4050POPC   PO412684  32.984  39.960   9.150
 4050POPC   GL112685  33.007  40.052   8.850
 4050POPC   GL212686  33.123  39.977   8.850
 4050POPC   C1A12687  33.033  40.038   8.550
 4050POPC   D2A12688  33.037  40.022   8.250
 4050POPC   C3A12689  32.978  40.022   7.950
 4050POPC   C4A12690  33.024  39.957   7.650
 4050POPC   C1B12691  33.297  40.000   8.550
 4050POPC   C2B12692  33.244  39.961   8.250
 4050POPC   C3B12693  33.231  39.992   7.950
 4050POPC   C4B12694  33.257  40.023   7.650
 4051POPC   NC312695  36.166  16.005   9.450
 4051POPC   PO412696  36.107  15.970   9.150
 4051POPC   GL112697  36.138  15.941   8.850
 4051POPC   GL212698  36.073  15.894   8.850
 4051POPC   C1A12699  36.164  15.972   8.550
 4051POPC   D2A12700  36.154  15.926   8.250
 4051POPC   C3A12701  36.088  15.953   7.950
 4051POPC   C4A12702  36.160  15.946   7.650
 4051POPC   C1B12703  36.027  15.693   8.550
 4051POPC   C2B12704  35.976  15.703   8.250
 4051POPC   C3B12705  36.018  15.748   7.950
 4051POPC   C4B12706  35.974  15.751   7.650
 4052POPC   NC312707  27.613  12.030   9.450
 4052POPC   PO412708  27.606  12.107   9.150
 4052POPC   GL112709  27.623  12.050   8.850
 4052POPC   GL212710  27.554  11.978   8.850
 4052POPC   C1A12711  27.629  12.042   8.550
 4052POPC   D2A12712  27.583  12.111   8.250
 4052POPC   C3A12713  27.576  12.034   7.950
 4052POPC   C4A12714  27.588  12.073   7.650
 4052POPC   C1B12715  27.543  11.816   8.550
 4052POPC   C2B12716  27.531  11.824   8.250
 4052POPC   C3B12717  27.555  11.880   7.950
 4052POPC   C4B12718  27.536  11.878   7.650
 4053POPC   NC312719  36.118  14.403   9.450
 4053POPC   PO412720  36.100  14.380   9.150
 4053POPC   GL112721  36.125  14.394   8.850
 4053POPC   GL212722  36.267  14.511   8.850
 4053POPC   C1A12723  36.173  14.387   8.550
 4053POPC   D2A12724  36.172  14.398   8.250
 4053POPC   C3A12725  36.137  14.410   7.950
 4053POPC   C4A12726  36.134  14.402   7.650
 4053POPC   C1B12727  36.289  14.535   8.550
 4053POPC   C2B12728  36.306  14.535   8.250
 4053POPC   C3B12729  36.300  14.600   7.950
 4053POPC   C4B12730  36.368  14.525   7.650
 4054POPC   NC312731  29.103  19.071   9.450
 4054POPC   PO412732  29.147  19.067   9.150
 4054POPC   GL112733  29.162  19.061   8.850
 4054POPC   GL212734  28.997  19.134   8.850
 4054POPC   C1A12735  29.138  19.079   8.550
 4054POPC   D2A12736  29.193  19.050   8.250
 4054POPC   C3A12737  29.183  19.105   7.950
 4054POPC   C4A12738  29.168  19.030   7.650
 4054POPC   C1B12739  28.972  19.220   8.550
 4054POPC   C2B12740  28.969  19.245   8.250
 4054POPC   C3B12741  28.981  19.165   7.950
 4054POPC   C4B12742  28.903  19.221   7.650
 4055POPC   NC312743  43.857   5.877   9.450
 4055POPC   PO412744  43.905   5.849   9.150
 4055POPC   GL112745  43.925   5.885   8.850
 4055POPC   GL212746  43.848   5.995   8.850
 4055POPC   C1A12747  43.896   5.842   8.550
 4055POPC   D2A12748  43.855   5.844   8.250
 4055POPC   C3A12749  43.840   5.878   7.950
 4055POPC   C4A12750  43.840   5.856   7.650
 4055POPC   C1B12751  43.878   6.137   8.550
 4055POPC   C2B12752  43.825   6.082   8.250
 4055POPC   C3B12753  43.839   6.128   7.950
 4055POPC   C4B12754  43.813   6.149   7.650
 4056POPC   NC312755  20.604   2.015   9.450
 4056POPC   PO412756  20.613   2.038   9.150
 4056POPC   GL112757  20.585   2.010   8.850
 4056POPC   GL212758  20.762   2.066   8.850
 4056POPC   C1A12759  20.637   1.975   8.550
 4056POPC   D2A12760  20.601   1.986   8.250
 4056POPC   C3A12761  20.636   1.967   7.950
 4056POPC   C4A12762  20.605   1.947   7.650
 4056POPC   C1B12763  20.860   2.023   8.550
 4056POPC   C2B12764  20.818   2.082   8.250
 4056POPC   C3B12765  20.859   2.003   7.950
 4056POPC   C4B12766  20.887   2.049   7.650
 4057POPC   NC312767  19.020  15.973   9.450
 4057POPC   PO412768  19.010  15.934   9.150
 4057POPC   GL112769  19.095  15.957   8.850
 4057POPC   GL212770  19.065  15.865   8.850
 4057POPC   C1A12771  19.083  15.982   8.550
 4057POPC   D2A12772  19.096  15.936   8.250
 4057POPC   C3A12773  19.089  15.949   7.950
 4057POPC   C4A12774  19.019  15.934   7.650
 4057POPC   C1B12775  19.142  15.715   8.550
 4057POPC   C2B12776  19.078  15.734   8.250
 4057POPC   C3B12777  19.099  15.745   7.950
 4057POPC   C4B12778  19.090  15.681   7.650
 4058POPC   NC312779  41.558  22.134   9.450
 4058POPC   PO412780  41.528  22.135   9.150
 4058POPC   GL112781  41.533  22.202   8.850
 4058POPC   GL212782  41.600  22.226   8.850
 4058POPC   C1A12783  41.532  22.204   8.550
 4058POPC   D2A12784  41.572  22.115   8.250
 4058POPC   C3A12785  41.606  22.145   7.950
 4058POPC   C4A12786  41.515  22.172   7.650
 4058POPC   C1B12787  41.734  22.343   8.550
 4058POPC   C2B12788  41.748  22.323   8.250
 4058POPC   C3B12789  41.747  22.320   7.950
 4058POPC   C4B12790  41.732  22.327   7.650
 4059POPC   NC312791  35.339   4.275   9.450
 4059POPC   PO412792  35.313   4.328   9.150
 4059POPC   GL112793  35.310   4.289   8.850
 4059POPC   GL212794  35.430   4.426   8.850
 4059POPC   C1A12795  35.306   4.297   8.550
 4059POPC   D2A12796  35.367   4.347   8.250
 4059POPC   C3A12797  35.369   4.304   7.950
 4059POPC   C4A12798  35.370   4.358   7.650
 4059POPC   C1B12799  35.403   4.537   8.550
 4059POPC   C2B12800  35.395   4.520   8.250
 4059POPC   C3B12801  35.485   4.588   7.950
 4059POPC   C4B12802  35.444   4.558   7.650
 4060POPC   NC312803   5.908   3.510   9.450
 4060POPC   PO412804   5.855   3.572   9.150
 4060POPC   GL112805   5.876   3.545   8.850
 4060POPC   GL212806   5.906   3.695   8.850
 4060POPC   C1A12807   5.819   3.498   8.550
 4060POPC   D2A12808   5.903   3.493   8.250
 4060POPC   C3A12809   5.883   3.545   7.950
 4060POPC   C4A12810   5.840   3.536   7.650
 4060POPC   C1B12811   5.847   3.796   8.550
 4060POPC   C2B12812   5.908   3.779   8.250
 4060POPC   C3B12813   5.881   3.805   7.950
 4060POPC   C4B12814   5.869   3.764   7.650
 4061POPC   NC312815  19.069  16.761   9.450
 4061POPC   PO412816  19.085  16.776   9.150
 4061POPC   GL112817  19.094  16.755   8.850
 4061POPC   GL212818  19.189  16.779   8.850
 4061POPC   C1A12819  19.019  16.709   8.550
 4061POPC   D2A12820  19.039  16.707   8.250
 4061POPC   C3A12821  19.078  16.777   7.950
 4061POPC   C4A12822  19.044  16.769   7.650
 4061POPC   C1B12823  19.248  16.791   8.550
 4061POPC   C2B12824  19.332  16.849   8.250
 4061POPC   C3B12825  19.268  16.805   7.950
 4061POPC   C4B12826  19.243  16.853   7.650
 4062POPC   NC312827   5.067  30.712   9.450
 4062POPC   PO412828   5.065  30.745   9.150
 4062POPC   GL112829   5.091  30.683   8.850
 4062POPC   GL212830   5.240  30.709   8.850
 4062POPC   C1A12831   5.079  30.710   8.550
 4062POPC   D2A12832   5.047  30.695   8.250
 4062POPC   C3A12833   5.110  30.724   7.950
 4062POPC   C4A12834   5.081  30.661   7.650
 4062POPC   C1B12835   5.302  30.784   8.550
 4062POPC   C2B12836   5.291  30.848   8.250
 4062POPC   C3B12837   5.319  30.839   7.950
 4062POPC   C4B12838   5.292  30.840   7.650
 4063POPC   NC312839  24.448   8.236   9.450
 4063POPC   PO412840  24.525   8.227   9.150
 4063POPC   GL112841  24.472   8.221   8.850
 4063POPC   GL212842  24.350   8.270   8.850
 4063POPC   C1A12843  24.509   8.243   8.550
 4063POPC   D2A12844  24.488   8.209   8.250
 4063POPC   C3A12845  24.514   8.234   7.950
 4063POPC   C4A12846  24.457   8.197   7.650
 4063POPC   C1B12847  24.240   8.346   8.550
 4063POPC   C2B12848  24.254   8.343   8.250
 4063POPC   C3B12849  24.333   8.331   7.950
 4063POPC   C4B12850  24.251   8.334   7.650
 4064POPC   NC312851  25.232  36.905   9.450
 4064POPC   PO412852  25.313  36.897   9.150
 4064POPC   GL112853  25.229  36.876   8.850
 4064POPC   GL212854  25.259  36.734   8.850
 4064POPC   C1A12855  25.314  36.950   8.550
 4064POPC   D2A12856  25.277  36.909   8.250
 4064POPC   C3A12857  25.275  36.858   7.950
 4064POPC   C4A12858  25.296  36.934   7.650
 4064POPC   C1B12859  25.284  36.696   8.550
 4064POPC   C2B12860  25.307  36.622   8.250
 4064POPC   C3B12861  25.253  36.639   7.950
 4064POPC   C4B12862  25.275  36.688   7.650
 4065POPC   NC312863  31.521  11.331   9.450
 4065POPC   PO412864  31.435  11.285   9.150
 4065POPC   GL112865  31.477  11.301   8.850
 4065POPC   GL212866  31.441  11.185   8.850
 4065POPC   C1A12867  31.522  11.293   8.550
 4065POPC   D2A12868  31.513  11.292   8.250
 4065POPC   C3A12869  31.463  11.287   7.950
 4065POPC   C4A12870  31.472  11.251   7.650
 4065POPC   C1B12871  31.415  11.079   8.550
 4065POPC   C2B12872  31.383  11.027   8.250
 4065POPC   C3B12873  31.385  11.055   7.950
 4065POPC   C4B12874  31.420  11.051   7.650
 4066POPC   NC312875   7.395  15.909   9.450
 4066POPC   PO412876   7.376  15.948   9.150
 4066POPC   GL112877   7.412  15.911   8.850
 4066POPC   GL212878   7.505  15.957   8.850
 4066POPC   C1A12879   7.446  15.955   8.550
 4066POPC   D2A12880   7.381  15.962   8.250
 4066POPC   C3A12881   7.427  15.938   7.950
 4066POPC   C4A12882   7.379  15.992   7.650
 4066POPC   C1B12883   7.697  15.940   8.550
 4066POPC   C2B12884   7.688  15.856   8.250
 4066POPC   C3B12885   7.707  15.900   7.950
 4066POPC   C4B12886   7.627  15.871   7.650
 4067POPC   NC312887  36.857   8.168   9.450
 4067POPC   PO412888  36.895   8.219   9.150
 4067POPC   GL112889  36.863   8.231   8.850
 4067POPC   GL212890  36.827   8.253   8.850
 4067POPC   C1A12891  36.867   8.174   8.550
 4067POPC   D2A12892  36.859   8.166   8.250
 4067POPC   C3A12893  36.934   8.245   7.950
 4067POPC   C4A12894  36.884   8.214   7.650
 4067POPC   C1B12895  36.660   8.244   8.550
 4067POPC   C2B12896  36.685   8.175   8.250
 4067POPC   C3B12897  36.700   8.244   7.950
 4067POPC   C4B12898  36.655   8.205   7.650
 4068POPC   NC312899   5.870  32.293   9.450
 4068POPC   PO412900   5.880  32.233   9.150
 4068POPC   GL112901   5.910  32.205   8.850
 4068POPC   GL212902   5.857  32.176   8.850
 4068POPC   C1A12903   5.887  32.295   8.550
 4068POPC   D2A12904   5.857  32.245   8.250
 4068POPC   C3A12905   5.872  32.241   7.950
 4068POPC   C4A12906   5.825  32.274   7.650
 4068POPC   C1B12907   5.955  32.055   8.550
 4068POPC   C2B12908   5.935  31.985   8.250
 4068POPC   C3B12909   5.887  31.981   7.950
 4068POPC   C4B12910   5.970  32.050   7.650
 4069POPC   NC312911  36.926  14.361   9.450
 4069POPC   PO412912  36.893  14.357   9.150
 4069POPC   GL112913  36.916  14.404   8.850
 4069POPC   GL212914  36.900  14.494   8.850
 4069POPC   C1A12915  36.893  14.379   8.550
 4069POPC   D2A12916  36.925  14.395   8.250
 4069POPC   C3A12917  36.855  14.384   7.950
 4069POPC   C4A12918  36.873  14.451   7.650
 4069POPC   C1B12919  36.896  14.695   8.550
 4069POPC   C2B12920  36.880  14.616   8.250
 4069POPC   C3B12921  36.846  14.637   7.950
 4069POPC   C4B12922  36.840  14.690   7.650
 4070POPC   NC312923  32.252  13.675   9.450
 4070POPC   PO412924  32.281  13.582   9.150
 4070POPC   GL112925  32.270  13.644   8.850
 4070POPC   GL212926  32.276  13.719   8.850
 4070POPC   C1A12927  32.288  13.589   8.550
 4070POPC   D2A12928  32.270  13.634   8.250
 4070POPC   C3A12929  32.239  13.638   7.950
 4070POPC   C4A12930  32.259  13.642   7.650
 4070POPC   C1B12931  32.278  13.854   8.550
 4070POPC   C2B12932  32.285  13.844   8.250
 4070POPC   C3B12933  32.355  13.898   7.950
 4070POPC   C4B12934  32.342  13.866   7.650
 4071POPC   NC312935  40.003  36.130   9.450
 4071POPC   PO412936  40.045  36.125   9.150
 4071POPC   GL112937  39.983  36.084   8.850
 4071POPC   GL212938  39.847  36.124   8.850
 4071POPC   C1A12939  40.014  36.104   8.550
 4071POPC   D2A12940  39.990  36.110   8.250
 4071POPC   C3A12941  40.033  36.152   7.950
 4071POPC   C4A12942  39.968  36.093   7.650
 4071POPC   C1B12943  39.725  36.070   8.550
 4071POPC   C2B12944  39.746  36.149   8.250
 4071POPC   C3B12945  39.794  36.110   7.950
 4071POPC   C4B12946  39.763  36.135   7.650
 4072POPC   NC312947  21.377  36.079   9.450
 4072POPC   PO412948  21.354  36.133   9.150
 4072POPC   GL112949  21.408  36.173   8.850
 4072POPC   GL212950  21.495  36.070   8.850
 4072POPC   C1A12951  21.366  36.102   8.550
 4072POPC   D2A12952  21.411  36.125   8.250
 4072POPC   C3A12953  21.401  36.121   7.950
 4072POPC   C4A12954  21.373  36.078   7.650
 4072POPC   C1B12955  21.589  36.046   8.550
 4072POPC   C2B12956  21.635  35.975   8.250
 4072POPC   C3B12957  21.641  36.013   7.950
 4072POPC   C4B12958  21.599  36.046   7.650
 4073POPC   NC312959  41.544  29.147   9.450
 4073POPC   PO412960  41.578  29.159   9.150
 4073POPC   GL112961  41.515  29.138   8.850
 4073POPC   GL212962  41.599  29.002   8.850
 4073POPC   C1A12963  41.560  29.177   8.550
 4073POPC   D2A12964  41.530  29.151   8.250
 4073POPC   C3A12965  41.578  29.102   7.950
 4073POPC   C4A12966  41.520  29.104   7.650
 4073POPC   C1B12967  41.548  28.858   8.550
 4073POPC   C2B12968  41.532  28.878   8.250
 4073POPC   C3B12969  41.538  28.887   7.950
 4073POPC   C4B12970  41.607  28.847   7.650
 4074POPC   NC312971  43.061   6.653   9.450
 4074POPC   PO412972  43.069   6.617   9.150
 4074POPC   GL112973  43.099   6.647   8.850
 4074POPC   GL212974  43.061   6.543   8.850
 4074POPC   C1A12975  43.061   6.637   8.550
 4074POPC   D2A12976  43.129   6.659   8.250
 4074POPC   C3A12977  43.141   6.621   7.950
 4074POPC   C4A12978  43.079   6.623   7.650
 4074POPC   C1B12979  42.979   6.446   8.550
 4074POPC   C2B12980  42.934   6.475   8.250
 4074POPC   C3B12981  42.936   6.455   7.950
 4074POPC   C4B12982  42.993   6.430   7.650
 4075POPC   NC312983   5.126  28.403   9.450
 4075POPC   PO412984   5.104  28.387   9.150
 4075POPC   GL112985   5.051  28.319   8.850
 4075POPC   GL212986   5.016  28.349   8.850
 4075POPC   C1A12987   5.104  28.323   8.550
 4075POPC   D2A12988   5.084  28.404   8.250
 4075POPC   C3A12989   5.092  28.380   7.950
 4075POPC   C4A12990   5.089  28.391   7.650
 4075POPC   C1B12991   4.815  28.297   8.550
 4075POPC   C2B12992   4.892  28.236   8.250
 4075POPC   C3B12993   4.890  28.296   7.950
 4075POPC   C4B12994   4.878  28.277   7.650
 4076POPC   NC312995  22.946  44.682   9.450
 4076POPC   PO412996  22.891  44.661   9.150
 4076POPC   GL112997  22.928  44.710   8.850
 4076POPC   GL212998  23.035  44.506   8.850
 4076POPC   C1A12999  22.966  44.700   8.550
 4076POPC   D2A13000  22.944  44.693   8.250
 4076POPC   C3A13001  22.938  44.705   7.950
 4076POPC   C4A13002  22.897  44.701   7.650
 4076POPC   C1B13003  23.067  44.397   8.550
 4076POPC   C2B13004  23.000  44.384   8.250
 4076POPC   C3B13005  23.069  44.403   7.950
 4076POPC   C4B13006  23.079  44.455   7.650
 4077POPC   NC313007   8.182  26.043   9.450
 4077POPC   PO413008   8.224  26.026   9.150
 4077POPC   GL113009   8.180  26.002   8.850
 4077POPC   GL213010   8.285  25.913   8.850
 4077POPC   C1A13011   8.222  26.056   8.550
 4077POPC   D2A13012   8.180  26.039   8.250
 4077POPC   C3A13013   8.225  26.049   7.950
 4077POPC   C4A13014   8.217  26.053   7.650
 4077POPC   C1B13015   8.333  25.834   8.550
 4077POPC   C2B13016   8.297  25.867   8.250
 4077POPC   C3B13017   8.267  25.830   7.950
 4077POPC   C4B13018   8.307  25.819   7.650
 4078POPC   NC313019  25.254  20.615   9.450
 4078POPC   PO413020  25.231  20.602   9.150
 4078POPC   GL113021  25.232  20.599   8.850
 4078POPC   GL213022  25.349  20.517   8.850
 4078POPC   C1A13023  25.225  20.635   8.550
 4078POPC   D2A13024  25.246  20.624   8.250
 4078POPC   C3A13025  25.231  20.566   7.950
 4078POPC   C4A13026  25.246  20.623   7.650
 4078POPC   C1B13027  25.307  20.415   8.550
 4078POPC   C2B13028  25.367  20.387   8.250
 4078POPC   C3B13029  25.377  20.358   7.950
 4078POPC   C4B13030  25.335  20.378   7.650
 4079POPC   NC313031  44.669  25.290   9.450
 4079POPC   PO413032  44.669  25.262   9.150
 4079POPC   GL113033  44.658  25.307   8.850
 4079POPC   GL213034  44.739  25.263   8.850
 4079POPC   C1A13035  44.651  25.253   8.550
 4079POPC   D2A13036  44.710  25.277   8.250
 4079POPC   C3A13037  44.663  25.258   7.950
 4079POPC   C4A13038  44.649  25.309   7.650
 4079POPC   C1B13039  44.885  25.273   8.550
 4079POPC   C2B13040  44.930  25.309   8.250
 4079POPC   C3B13041  44.916  25.297   7.950
 4079POPC   C4B13042  44.868  25.264   7.650
 4080POPC   NC313043   2.782  37.704   9.450
 4080POPC   PO413044   2.800  37.678   9.150
 4080POPC   GL113045   2.750  37.705   8.850
 4080POPC   GL213046   2.789  37.565   8.850
 4080POPC   C1A13047   2.789  37.641   8.550
 4080POPC   D2A13048   2.727  37.714   8.250
 4080POPC   C3A13049   2.786  37.690   7.950
 4080POPC   C4A13050   2.792  37.726   7.650
 4080POPC   C1B13051   2.814  37.406   8.550
 4080POPC   C2B13052   2.886  37.477   8.250
 4080POPC   C3B13053   2.911  37.463   7.950
 4080POPC   C4B13054   2.823  37.451   7.650
 4081POPC   NC313055  18.253  36.855   9.450
 4081POPC   PO413056  18.316  36.859   9.150
 4081POPC   GL113057  18.292  36.893   8.850
 4081POPC   GL213058  18.255  36.973   8.850
 4081POPC   C1A13059  18.278  36.884   8.550
 4081POPC   D2A13060  18.288  36.865   8.250
 4081POPC   C3A13061  18.256  36.863   7.950
 4081POPC   C4A13062  18.331  36.863   7.650
 4081POPC   C1B13063  18.138  37.088   8.550
 4081POPC   C2B13064  18.134  37.099   8.250
 4081POPC   C3B13065  18.161  37.100   7.950
 4081POPC   C4B13066  18.132  37.096   7.650
 4082POPC   NC313067   8.195  30.655   9.450
 4082POPC   PO413068   8.207  30.739   9.150
 4082POPC   GL113069   8.157  30.683   8.850
 4082POPC   GL213070   8.303  30.724   8.850
 4082POPC   C1A13071   8.189  30.678   8.550
 4082POPC   D2A13072   8.172  30.708   8.250
 4082POPC   C3A13073   8.192  30.667   7.950
 4082POPC   C4A13074   8.200  30.648   7.650
 4082POPC   C1B13075   8.456  30.693   8.550
 4082POPC   C2B13076   8.441  30.784   8.250
 4082POPC   C3B13077   8.406  30.789   7.950
 4082POPC   C4B13078   8.470  30.709   7.650
 4083POPC   NC313079   4.291  31.506   9.450
 4083POPC   PO413080   4.293  31.433   9.150
 4083POPC   GL113081   4.352  31.445   8.850
 4083POPC   GL213082   4.352  31.308   8.850
 4083POPC   C1A13083   4.277  31.444   8.550
 4083POPC   D2A13084   4.315  31.489   8.250
 4083POPC   C3A13085   4.320  31.423   7.950
 4083POPC   C4A13086   4.317  31.519   7.650
 4083POPC   C1B13087   4.399  31.282   8.550
 4083POPC   C2B13088   4.442  31.226   8.250
 4083POPC   C3B13089   4.373  31.274   7.950
 4083POPC   C4B13090   4.409  31.236   7.650
 4084POPC   NC313091  26.071  19.053   9.450
 4084POPC   PO413092  26.087  19.055   9.150
 4084POPC   GL113093  26.043  19.011   8.850
 4084POPC   GL213094  25.999  18.997   8.850
 4084POPC   C1A13095  26.073  19.094   8.550
 4084POPC   D2A13096  26.013  19.029   8.250
 4084POPC   C3A13097  26.079  19.039   7.950
 4084POPC   C4A13098  26.073  19.096   7.650
 4084POPC   C1B13099  25.840  18.896   8.550
 4084POPC   C2B13100  25.882  18.865   8.250
 4084POPC   C3B13101  25.907  18.833   7.950
 4084POPC   C4B13102  25.839  18.845   7.650
 4085POPC   NC313103  20.632   3.563   9.450
 4085POPC   PO413104  20.643   3.502   9.150
 4085POPC   GL113105  20.581   3.512   8.850
 4085POPC   GL213106  20.613   3.411   8.850
 4085POPC   C1A13107  20.617   3.528   8.550
 4085POPC   D2A13108  20.631   3.555   8.250
 4085POPC   C3A13109  20.634   3.566   7.950
 4085POPC   C4A13110  20.579   3.577   7.650
 4085POPC   C1B13111  20.591   3.245   8.550
 4085POPC   C2B13112  20.630   3.305   8.250
 4085POPC   C3B13113  20.616   3.320   7.950
 4085POPC   C4B13114  20.601   3.310   7.650
 4086POPC   NC313115  33.753   7.424   9.450
 4086POPC   PO413116  33.782   7.436   9.150
 4086POPC   GL113117  33.797   7.433   8.850
 4086POPC   GL213118  33.666   7.418   8.850
 4086POPC   C1A13119  33.781   7.384   8.550
 4086POPC   D2A13120  33.791   7.443   8.250
 4086POPC   C3A13121  33.840   7.411   7.950
 4086POPC   C4A13122  33.833   7.453   7.650
 4086POPC   C1B13123  33.556   7.451   8.550
 4086POPC   C2B13124  33.512   7.413   8.250
 4086POPC   C3B13125  33.542   7.492   7.950
 4086POPC   C4B13126  33.539   7.443   7.650
 4087POPC   NC313127  10.492  23.749   9.450
 4087POPC   PO413128  10.525  23.669   9.150
 4087POPC   GL113129  10.561  23.699   8.850
 4087POPC   GL213130  10.522  23.790   8.850
 4087POPC   C1A13131  10.568  23.756   8.550
 4087POPC   D2A13132  10.554  23.759   8.250
 4087POPC   C3A13133  10.543  23.668   7.950
 4087POPC   C4A13134  10.478  23.758   7.650
 4087POPC   C1B13135  10.498  23.932   8.550
 4087POPC   C2B13136  10.447  23.965   8.250
 4087POPC   C3B13137  10.482  23.984   7.950
 4087POPC   C4B13138  10.475  23.953   7.650
 4088POPC   NC313139  32.985  15.997   9.450
 4088POPC   PO413140  33.013  15.932   9.150
 4088POPC   GL113141  32.993  15.997   8.850
 4088POPC   GL213142  33.162  15.847   8.850
 4088POPC   C1A13143  33.056  15.963   8.550
 4088POPC   D2A13144  33.000  15.934   8.250
 4088POPC   C3A13145  32.992  15.941   7.950
 4088POPC   C4A13146  33.057  15.986   7.650
 4088POPC   C1B13147  33.252  15.738   8.550
 4088POPC   C2B13148  33.233  15.794   8.250
 4088POPC   C3B13149  33.221  15.737   7.950
 4088POPC   C4B13150  33.252  15.738   7.650
 4089POPC   NC313151  28.354  18.288   9.450
 4089POPC   PO413152  28.339  18.242   9.150
 4089POPC   GL113153  28.395  18.259   8.850
 4089POPC   GL213154  28.326  18.171   8.850
 4089POPC   C1A13155  28.383  18.233   8.550
 4089POPC   D2A13156  28.321  18.301   8.250
 4089POPC   C3A13157  28.400  18.289   7.950
 4089POPC   C4A13158  28.377  18.307   7.650
 4089POPC   C1B13159  28.340  18.048   8.550
 4089POPC   C2B13160  28.292  18.039   8.250
 4089POPC   C3B13161  28.343  18.049   7.950
 4089POPC   C4B13162  28.344  17.990   7.650
 4090POPC   NC313163   6.647   7.384   9.450
 4090POPC   PO413164   6.636   7.465   9.150
 4090POPC   GL113165   6.663   7.458   8.850
 4090POPC   GL213166   6.589   7.290   8.850
 4090POPC   C1A13167   6.676   7.424   8.550
 4090POPC   D2A13168   6.641   7.470   8.250
 4090POPC   C3A13169   6.668   7.379   7.950
 4090POPC   C4A13170   6.616   7.464   7.650
 4090POPC   C1B13171   6.443   7.201   8.550
 4090POPC   C2B13172   6.482   7.229   8.250
 4090POPC   C3B13173   6.481   7.276   7.950
 4090POPC   C4B13174   6.446   7.220   7.650
 4091POPC   NC313175   4.338  19.025   9.450
 4091POPC   PO413176   4.322  19.024   9.150
 4091POPC   GL113177   4.286  19.012   8.850
 4091POPC   GL213178   4.314  18.914   8.850
 4091POPC   C1A13179   4.320  19.031   8.550
 4091POPC   D2A13180   4.290  19.018   8.250
 4091POPC   C3A13181   4.315  19.071   7.950
 4091POPC   C4A13182   4.358  19.054   7.650
 4091POPC   C1B13183   4.373  18.799   8.550
 4091POPC   C2B13184   4.343  18.844   8.250
 4091POPC   C3B13185   4.310  18.848   7.950
 4091POPC   C4B13186   4.376  18.828   7.650
 4092POPC   NC313187  19.009  13.582   9.450
 4092POPC   PO413188  19.050  13.639   9.150
 4092POPC   GL113189  19.097  13.672   8.850
 4092POPC   GL213190  19.228  13.637   8.850
 4092POPC   C1A13191  19.050  13.676   8.550
 4092POPC   D2A13192  19.015  13.656   8.250
 4092POPC   C3A13193  19.043  13.616   7.950
 4092POPC   C4A13194  19.082  13.624   7.650
 4092POPC   C1B13195  19.310  13.666   8.550
 4092POPC   C2B13196  19.259  13.588   8.250
 4092POPC   C3B13197  19.333  13.626   7.950
 4092POPC   C4B13198  19.304  13.654   7.650
 4093POPC   NC313199   1.956   5.128   9.450
 4093POPC   PO413200   2.016   5.091   9.150
 4093POPC   GL113201   1.977   5.118   8.850
 4093POPC   GL213202   2.084   5.051   8.850
 4093POPC   C1A13203   1.958   5.116   8.550
 4093POPC   D2A13204   1.946   5.122   8.250
 4093POPC   C3A13205   2.033   5.073   7.950
 4093POPC   C4A13206   2.010   5.093   7.650
 4093POPC   C1B13207   2.222   5.059   8.550
 4093POPC   C2B13208   2.189   4.984   8.250
 4093POPC   C3B13209   2.182   4.995   7.950
 4093POPC   C4B13210   2.198   5.028   7.650
 4094POPC   NC313211  36.100   2.762   9.450
 4094POPC   PO413212  36.105   2.786   9.150
 4094POPC   GL113213  36.108   2.815   8.850
 4094POPC   GL213214  36.173   2.822   8.850
 4094POPC   C1A13215  36.132   2.784   8.550
 4094POPC   D2A13216  36.088   2.782   8.250
 4094POPC   C3A13217  36.079   2.800   7.950
 4094POPC   C4A13218  36.100   2.778   7.650
 4094POPC   C1B13219  36.357   2.956   8.550
 4094POPC   C2B13220  36.273   2.934   8.250
 4094POPC   C3B13221  36.284   2.933   7.950
 4094POPC   C4B13222  36.361   2.907   7.650
 4095POPC   NC313223  16.735  36.096   9.450
 4095POPC   PO413224  16.755  36.081   9.150
 4095POPC   GL113225  16.699  36.144   8.850
 4095POPC   GL213226  16.581  36.036   8.850
 4095POPC   C1A13227  16.719  36.148   8.550
 4095POPC   D2A13228  16.741  36.156   8.250
 4095POPC   C3A13229  16.754  36.091   7.950
 4095POPC   C4A13230  16.743  36.174   7.650
 4095POPC   C1B13231  16.461  36.043   8.550
 4095POPC   C2B13232  16.519  36.005   8.250
 4095POPC   C3B13233  16.452  36.033   7.950
 4095POPC   C4B13234  16.451  36.006   7.650
 4096POPC   NC313235  12.901  29.966   9.450
 4096POPC   PO413236  12.878  29.882   9.150
 4096POPC   GL113237  12.889  29.968   8.850
 4096POPC   GL213238  12.926  29.827   8.850
 4096POPC   C1A13239  12.900  29.968   8.550
 4096POPC   D2A13240  12.857  29.924   8.250
 4096POPC   C3A13241  12.811  29.960   7.950
 4096POPC   C4A13242  12.863  29.884   7.650
 4096POPC   C1B13243  13.015  29.791   8.550
 4096POPC   C2B13244  13.061  29.759   8.250
 4096POPC   C3B13245  13.035  29.751   7.950
 4096POPC   C4B13246  13.102  29.831   7.650
 4097POPC   NC313247   5.905  22.142   9.450
 4097POPC   PO413248   5.869  22.117   9.150
 4097POPC   GL113249   5.856  22.152   8.850
 4097POPC   GL213250   5.798  22.130   8.850
 4097POPC   C1A13251   5.866  22.138   8.550
 4097POPC   D2A13252   5.851  22.180   8.250
 4097POPC   C3A13253   5.835  22.188   7.950
 4097POPC   C4A13254   5.888  22.199   7.650
 4097POPC   C1B13255   5.684  22.069   8.550
 4097POPC   C2B13256   5.665  22.047   8.250
 4097POPC   C3B13257   5.661  22.114   7.950
 4097POPC   C4B13258   5.609  22.088   7.650
 4098POPC   NC313259  28.340   9.760   9.450
 4098POPC   PO413260  28.336   9.767   9.150
 4098POPC   GL113261  28.361   9.706   8.850
 4098POPC   GL213262  28.217   9.800   8.850
 4098POPC   C1A13263  28.365   9.721   8.550
 4098POPC   D2A13264  28.323   9.773   8.250
 4098POPC   C3A13265  28.348   9.797   7.950
 4098POPC   C4A13266  28.418   9.786   7.650
 4098POPC   C1B13267  28.074   9.754   8.550
 4098POPC   C2B13268  28.114   9.727   8.250
 4098POPC   C3B13269  28.075   9.716   7.950
 4098POPC   C4B13270  28.096   9.782   7.650
 4099POPC   NC313271  29.940  38.464   9.450
 4099POPC   PO413272  29.951  38.487   9.150
 4099POPC   GL113273  29.962  38.469   8.850
 4099POPC   GL213274  29.956  38.542   8.850
 4099POPC   C1A13275  29.887  38.443   8.550
 4099POPC   D2A13276  29.896  38.427   8.250
 4099POPC   C3A13277  29.900  38.446   7.950
 4099POPC   C4A13278  29.881  38.408   7.650
 4099POPC   C1B13279  30.044  38.647   8.550
 4099POPC   C2B13280  30.029  38.739   8.250
 4099POPC   C3B13281  29.970  38.648   7.950
 4099POPC   C4B13282  29.971  38.703   7.650
 4100POPC   NC313283  33.785   9.761   9.450
 4100POPC   PO413284  33.836   9.740   9.150
 4100POPC   GL113285  33.777   9.731   8.850
 4100POPC   GL213286  33.730   9.814   8.850
 4100POPC   C1A13287  33.794   9.754   8.550
 4100POPC   D2A13288  33.756   9.764   8.250
 4100POPC   C3A13289  33.833   9.779   7.950
 4100POPC   C4A13290  33.758   9.703   7.650
 4100POPC   C1B13291  33.521   9.837   8.550
 4100POPC   C2B13292  33.598   9.787   8.250
 4100POPC   C3B13293  33.537   9.825   7.950
 4100POPC   C4B13294  33.518   9.851   7.650
 4101POPC   NC313295  38.455  43.116   9.450
 4101POPC   PO413296  38.471  43.075   9.150
 4101POPC   GL113297  38.418  43.146   8.850
 4101POPC   GL213298  38.558  43.033   8.850
 4101POPC   C1A13299  38.451  43.080   8.550
 4101POPC   D2A13300  38.438  43.119   8.250
 4101POPC   C3A13301  38.499  43.106   7.950
 4101POPC   C4A13302  38.414  43.085   7.650
 4101POPC   C1B13303  38.646  42.978   8.550
 4101POPC   C2B13304  38.659  42.904   8.250
 4101POPC   C3B13305  38.636  42.971   7.950
 4101POPC   C4B13306  38.692  42.938   7.650
 4102POPC   NC313307  29.874  12.086   9.450
 4102POPC   PO413308  29.910  12.092   9.150
 4102POPC   GL113309  29.949  12.029   8.850
 4102POPC   GL213310  29.828  12.176   8.850
 4102POPC   C1A13311  29.925  12.069   8.550
 4102POPC   D2A13312  29.938  12.072   8.250
 4102POPC   C3A13313  29.882  12.042   7.950
 4102POPC   C4A13314  29.939  12.087   7.650
 4102POPC   C1B13315  29.704  12.175   8.550
 4102POPC   C2B13316  29.734  12.231   8.250
 4102POPC   C3B13317  29.667  12.226   7.950
 4102POPC   C4B13318  29.707  12.230   7.650
 4103POPC   NC313319  15.925  39.224   9.450
 4103POPC   PO413320  15.967  39.256   9.150
 4103POPC   GL113321  15.957  39.214   8.850
 4103POPC   GL213322  15.983  39.394   8.850
 4103POPC   C1A13323  15.974  39.245   8.550
 4103POPC   D2A13324  15.917  39.189   8.250
 4103POPC   C3A13325  15.985  39.281   7.950
 4103POPC   C4A13326  15.974  39.206   7.650
 4103POPC   C1B13327  16.034  39.437   8.550
 4103POPC   C2B13328  15.974  39.461   8.250
 4103POPC   C3B13329  15.992  39.445   7.950
 4103POPC   C4B13330  16.037  39.461   7.650
 4104POPC   NC313331   1.252  38.478   9.450
 4104POPC   PO413332   1.234  38.406   9.150
 4104POPC   GL113333   1.240  38.473   8.850
 4104POPC   GL213334   1.260  38.292   8.850
 4104POPC   C1A13335   1.231  38.493   8.550
 4104POPC   D2A13336   1.216  38.418   8.250
 4104POPC   C3A13337   1.255  38.468   7.950
 4104POPC   C4A13338   1.183  38.444   7.650
 4104POPC   C1B13339   1.224  38.249   8.550
 4104POPC   C2B13340   1.239  38.200   8.250
 4104POPC   C3B13341   1.261  38.205   7.950
 4104POPC   C4B13342   1.277  38.233   7.650
 4105POPC   NC313343  22.923   2.756   9.450
 4105POPC   PO413344  22.964   2.741   9.150
 4105POPC   GL113345  22.987   2.740   8.850
 4105POPC   GL213346  23.020   2.822   8.850
 4105POPC   C1A13347  22.892   2.784   8.550
 4105POPC   D2A13348  22.950   2.791   8.250
 4105POPC   C3A13349  22.922   2.736   7.950
 4105POPC   C4A13350  22.927   2.754   7.650
 4105POPC   C1B13351  23.113   2.995   8.550
 4105POPC   C2B13352  23.031   2.969   8.250
 4105POPC   C3B13353  23.118   2.967   7.950
 4105POPC   C4B13354  23.113   2.948   7.650
 4106POPC   NC313355  37.686   6.615   9.450
 4106POPC   PO413356  37.646   6.658   9.150
 4106POPC   GL113357  37.651   6.602   8.850
 4106POPC   GL213358  37.664   6.477   8.850
 4106POPC   C1A13359  37.711   6.664   8.550
 4106POPC   D2A13360  37.705   6.659   8.250
 4106POPC   C3A13361  37.703   6.624   7.950
 4106POPC   C4A13362  37.701   6.667   7.650
 4106POPC   C1B13363  37.673   6.389   8.550
 4106POPC   C2B13364  37.724   6.399   8.250
 4106POPC   C3B13365  37.728   6.440   7.950
 4106POPC   C4B13366  37.736   6.367   7.650
 4107POPC   NC313367  24.533  38.493   9.450
 4107POPC   PO413368  24.524  38.405   9.150
 4107POPC   GL113369  24.480  38.416   8.850
 4107POPC   GL213370  24.619  38.502   8.850
 4107POPC   C1A13371  24.520  38.408   8.550
 4107POPC   D2A13372  24.475  38.429   8.250
 4107POPC   C3A13373  24.524  38.495   7.950
 4107POPC   C4A13374  24.442  38.501   7.650
 4107POPC   C1B13375  24.757  38.500   8.550
 4107POPC   C2B13376  24.739  38.574   8.250
 4107POPC   C3B13377  24.754  38.567   7.950
 4107POPC   C4B13378  24.697  38.548   7.650
 4108POPC   NC313379  40.826  44.625   9.450
 4108POPC   PO413380  40.773  44.637   9.150
 4108POPC   GL113381  40.746  44.684   8.850
 4108POPC   GL213382  40.770  44.511   8.850
 4108POPC   C1A13383  40.808  44.673   8.550
 4108POPC   D2A13384  40.824  44.617   8.250
 4108POPC   C3A13385  40.781  44.629   7.950
 4108POPC   C4A13386  40.813  44.658   7.650
 4108POPC   C1B13387  40.768  44.421   8.550
 4108POPC   C2B13388  40.765  44.380   8.250
 4108POPC   C3B13389  40.698  44.439   7.950
 4108POPC   C4B13390  40.784  44.410   7.650
 4109POPC   NC313391  14.420   8.951   9.450
 4109POPC   PO413392  14.436   8.953   9.150
 4109POPC   GL113393  14.390   9.018   8.850
 4109POPC   GL213394  14.567   8.968   8.850
 4109POPC   C1A13395  14.361   8.941   8.550
 4109POPC   D2A13396  14.407   8.940   8.250
 4109POPC   C3A13397  14.378   9.005   7.950
 4109POPC   C4A13398  14.367   8.959   7.650
 4109POPC   C1B13399  14.622   8.996   8.550
 4109POPC   C2B13400  14.607   8.954   8.250
 4109POPC   C3B13401  14.657   9.009   7.950
 4109POPC   C4B13402  14.629   8.996   7.650
 4110POPC   NC313403  41.568  19.106   9.450
 4110POPC   PO413404  41.557  19.021   9.150
 4110POPC   GL113405  41.539  19.088   8.850
 4110POPC   GL213406  41.488  19.114   8.850
 4110POPC   C1A13407  41.541  19.088   8.550
 4110POPC   D2A13408  41.553  19.013   8.250
 4110POPC   C3A13409  41.530  19.036   7.950
 4110POPC   C4A13410  41.558  19.030   7.650
 4110POPC   C1B13411  41.405  19.236   8.550
 4110POPC   C2B13412  41.379  19.193   8.250
 4110POPC   C3B13413  41.339  19.223   7.950
 4110POPC   C4B13414  41.376  19.190   7.650
 4111POPC   NC313415   7.397   3.539   9.450
 4111POPC   PO413416   7.414   3.499   9.150
 4111POPC   GL113417   7.395   3.591   8.850
 4111POPC   GL213418   7.282   3.527   8.850
 4111POPC   C1A13419   7.452   3.522   8.550
 4111POPC   D2A13420   7.450   3.551   8.250
 4111POPC   C3A13421   7.389   3.565   7.950
 4111POPC   C4A13422   7.373   3.528   7.650
 4111POPC   C1B13423   7.124   3.561   8.550
 4111POPC   C2B13424   7.175   3.483   8.250
 4111POPC   C3B13425   7.192   3.523   7.950
 4111POPC   C4B13426   7.215   3.525   7.650
 4112POPC   NC313427  37.728   1.983   9.450
 4112POPC   PO413428  37.712   2.017   9.150
 4112POPC   GL113429  37.717   1.974   8.850
 4112POPC   GL213430  37.624   2.141   8.850
 4112POPC   C1A13431  37.655   1.957   8.550
 4112POPC   D2A13432  37.729   1.977   8.250
 4112POPC   C3A13433  37.677   1.962   7.950
 4112POPC   C4A13434  37.680   2.028   7.650
 4112POPC   C1B13435  37.650   2.203   8.550
 4112POPC   C2B13436  37.624   2.281   8.250
 4112POPC   C3B13437  37.646   2.210   7.950
 4112POPC   C4B13438  37.664   2.235   7.650
 4113POPC   NC313439  43.905  22.957   9.450
 4113POPC   PO413440  43.872  22.901   9.150
 4113POPC   GL113441  43.905  22.952   8.850
 4113POPC   GL213442  43.962  22.857   8.850
 4113POPC   C1A13443  43.894  22.958   8.550
 4113POPC   D2A13444  43.928  22.974   8.250
 4113POPC   C3A13445  43.926  22.972   7.950
 4113POPC   C4A13446  43.860  22.957   7.650
 4113POPC   C1B13447  43.924  22.666   8.550
 4113POPC   C2B13448  43.983  22.722   8.250
 4113POPC   C3B13449  43.935  22.662   7.950
 4113POPC   C4B13450  43.918  22.737   7.650
 4114POPC   NC313451   5.094  15.961   9.450
 4114POPC   PO413452   5.095  15.963   9.150
 4114POPC   GL113453   5.138  15.984   8.850
 4114POPC   GL213454   5.189  16.011   8.850
 4114POPC   C1A13455   5.055  15.961   8.550
 4114POPC   D2A13456   5.110  15.939   8.250
 4114POPC   C3A13457   5.102  15.996   7.950
 4114POPC   C4A13458   5.069  15.962   7.650
 4114POPC   C1B13459   5.263  16.127   8.550
 4114POPC   C2B13460   5.248  16.123   8.250
 4114POPC   C3B13461   5.305  16.143   7.950
 4114POPC   C4B13462   5.275  16.122   7.650
 4115POPC   NC313463  13.657  44.644   9.450
 4115POPC   PO413464  13.656  44.704   9.150
 4115POPC   GL113465  13.615  44.682   8.850
 4115POPC   GL213466  13.477  44.570   8.850
 4115POPC   C1A13467  13.667  44.657   8.550
 4115POPC   D2A13468  13.585  44.623   8.250
 4115POPC   C3A13469  13.656  44.616   7.950
 4115POPC   C4A13470  13.662  44.634   7.650
 4115POPC   C1B13471  13.456  44.533   8.550
 4115POPC   C2B13472  13.420  44.501   8.250
 4115POPC   C3B13473  13.455  44.549   7.950
 4115POPC   C4B13474  13.427  44.533   7.650
 4116POPC   NC313475  34.559  28.344   9.450
 4116POPC   PO413476  34.532  28.380   9.150
 4116POPC   GL113477  34.595  28.396   8.850
 4116POPC   GL213478  34.466  28.344   8.850
 4116POPC   C1A13479  34.572  28.328   8.550
 4116POPC   D2A13480  34.577  28.394   8.250
 4116POPC   C3A13481  34.554  28.393   7.950
 4116POPC   C4A13482  34.622  28.417   7.650
 4116POPC   C1B13483  34.358  28.395   8.550
 4116POPC   C2B13484  34.299  28.397   8.250
 4116POPC   C3B13485  34.279  28.332   7.950
 4116POPC   C4B13486  34.355  28.347   7.650
 4117POPC   NC313487  22.975   8.955   9.450
 4117POPC   PO413488  22.979   8.978   9.150
 4117POPC   GL113489  22.955   8.979   8.850
 4117POPC   GL213490  22.855   9.133   8.850
 4117POPC   C1A13491  22.961   8.984   8.550
 4117POPC   D2A13492  22.925   8.942   8.250
 4117POPC   C3A13493  22.907   8.927   7.950
 4117POPC   C4A13494  22.898   8.935   7.650
 4117POPC   C1B13495  22.868   9.163   8.550
 4117POPC   C2B13496  22.851   9.229   8.250
 4117POPC   C3B13497  22.897   9.231   7.950
 4117POPC   C4B13498  22.829   9.233   7.650
 4118POPC   NC313499   7.371  29.182   9.450
 4118POPC   PO413500   7.378  29.168   9.150
 4118POPC   GL113501   7.428  29.127   8.850
 4118POPC   GL213502   7.325  29.081   8.850
 4118POPC   C1A13503   7.464  29.186   8.550
 4118POPC   D2A13504   7.374  29.150   8.250
 4118POPC   C3A13505   7.452  29.134   7.950
 4118POPC   C4A13506   7.437  29.144   7.650
 4118POPC   C1B13507   7.308  28.947   8.550
 4118POPC   C2B13508   7.289  28.976   8.250
 4118POPC   C3B13509   7.254  28.909   7.950
 4118POPC   C4B13510   7.260  28.973   7.650
 4119POPC   NC313511   8.172  35.313   9.450
 4119POPC   PO413512   8.193  35.391   9.150
 4119POPC   GL113513   8.176  35.336   8.850
 4119POPC   GL213514   8.136  35.424   8.850
 4119POPC   C1A13515   8.223  35.397   8.550
 4119POPC   D2A13516   8.204  35.339   8.250
 4119POPC   C3A13517   8.244  35.370   7.950
 4119POPC   C4A13518   8.184  35.396   7.650
 4119POPC   C1B13519   8.021  35.555   8.550
 4119POPC   C2B13520   7.996  35.514   8.250
 4119POPC   C3B13521   7.966  35.557   7.950
 4119POPC   C4B13522   7.986  35.511   7.650
 4120POPC   NC313523  26.775   5.877   9.450
 4120POPC   PO413524  26.809   5.853   9.150
 4120POPC   GL113525  26.802   5.835   8.850
 4120POPC   GL213526  26.947   5.951   8.850
 4120POPC   C1A13527  26.833   5.864   8.550
 4120POPC   D2A13528  26.833   5.916   8.250
 4120POPC   C3A13529  26.827   5.835   7.950
 4120POPC   C4A13530  26.793   5.883   7.650
 4120POPC   C1B13531  27.088   5.900   8.550
 4120POPC   C2B13532  27.100   5.941   8.250
 4120POPC   C3B13533  27.074   5.932   7.950
 4120POPC   C4B13534  27.078   5.940   7.650
 4121POPC   NC313535  15.914  24.455   9.450
 4121POPC   PO413536  15.933  24.525   9.150
 4121POPC   GL113537  15.943  24.509   8.850
 4121POPC   GL213538  16.048  24.571   8.850
 4121POPC   C1A13539  15.954  24.461   8.550
 4121POPC   D2A13540  15.909  24.536   8.250
 4121POPC   C3A13541  15.911  24.443   7.950
 4121POPC   C4A13542  15.912  24.441   7.650
 4121POPC   C1B13543  16.173  24.656   8.550
 4121POPC   C2B13544  16.128  24.662   8.250
 4121POPC   C3B13545  16.102  24.646   7.950
 4121POPC   C4B13546  16.168  24.640   7.650
 4122POPC   NC313547  26.087  22.891   9.450
 4122POPC   PO413548  26.060  22.925   9.150
 4122POPC   GL113549  26.003  22.979   8.850
 4122POPC   GL213550  26.148  23.020   8.850
 4122POPC   C1A13551  26.045  22.964   8.550
 4122POPC   D2A13552  25.992  22.946   8.250
 4122POPC   C3A13553  26.005  22.963   7.950
 4122POPC   C4A13554  26.027  22.934   7.650
 4122POPC   C1B13555  26.161  23.126   8.550
 4122POPC   C2B13556  26.218  23.116   8.250
 4122POPC   C3B13557  26.220  23.117   7.950
 4122POPC   C4B13558  26.137  23.195   7.650
 4123POPC   NC313559  15.182   9.001   9.450
 4123POPC   PO413560  15.159   8.993   9.150
 4123POPC   GL113561  15.224   8.951   8.850
 4123POPC   GL213562  15.240   8.942   8.850
 4123POPC   C1A13563  15.144   8.985   8.550
 4123POPC   D2A13564  15.199   8.927   8.250
 4123POPC   C3A13565  15.130   8.971   7.950
 4123POPC   C4A13566  15.200   8.969   7.650
 4123POPC   C1B13567  15.419   8.868   8.550
 4123POPC   C2B13568  15.415   8.876   8.250
 4123POPC   C3B13569  15.405   8.839   7.950
 4123POPC   C4B13570  15.379   8.891   7.650
 4124POPC   NC313571  37.712  24.449   9.450
 4124POPC   PO413572  37.635  24.535   9.150
 4124POPC   GL113573  37.641  24.445   8.850
 4124POPC   GL213574  37.610  24.441   8.850
 4124POPC   C1A13575  37.722  24.538   8.550
 4124POPC   D2A13576  37.685  24.524   8.250
 4124POPC   C3A13577  37.714  24.452   7.950
 4124POPC   C4A13578  37.724  24.499   7.650
 4124POPC   C1B13579  37.495  24.320   8.550
 4124POPC   C2B13580  37.440  24.322   8.250
 4124POPC   C3B13581  37.440  24.366   7.950
 4124POPC   C4B13582  37.442  24.364   7.650
 4125POPC   NC313583  41.557  25.228   9.450
 4125POPC   PO413584  41.540  25.296   9.150
 4125POPC   GL113585  41.542  25.255   8.850
 4125POPC   GL213586  41.454  25.185   8.850
 4125POPC   C1A13587  41.599  25.269   8.550
 4125POPC   D2A13588  41.527  25.227   8.250
 4125POPC   C3A13589  41.591  25.236   7.950
 4125POPC   C4A13590  41.562  25.255   7.650
 4125POPC   C1B13591  41.306  25.121   8.550
 4125POPC   C2B13592  41.325  25.159   8.250
 4125POPC   C3B13593  41.377  25.169   7.950
 4125POPC   C4B13594  41.373  25.141   7.650
 4126POPC   NC313595  19.856  29.116   9.450
 4126POPC   PO413596  19.842  29.189   9.150
 4126POPC   GL113597  19.866  29.174   8.850
 4126POPC   GL213598  19.867  29.246   8.850
 4126POPC   C1A13599  19.868  29.172   8.550
 4126POPC   D2A13600  19.827  29.142   8.250
 4126POPC   C3A13601  19.851  29.189   7.950
 4126POPC   C4A13602  19.823  29.137   7.650
 4126POPC   C1B13603  19.842  29.370   8.550
 4126POPC   C2B13604  19.815  29.441   8.250
 4126POPC   C3B13605  19.833  29.417   7.950
 4126POPC   C4B13606  19.841  29.355   7.650
 4127POPC   NC313607  11.294  26.050   9.450
 4127POPC   PO413608  11.320  25.997   9.150
 4127POPC   GL113609  11.251  26.043   8.850
 4127POPC   GL213610  11.265  25.955   8.850
 4127POPC   C1A13611  11.345  26.086   8.550
 4127POPC   D2A13612  11.320  26.081   8.250
 4127POPC   C3A13613  11.259  26.014   7.950
 4127POPC   C4A13614  11.324  26.059   7.650
 4127POPC   C1B13615  11.232  25.822   8.550
 4127POPC   C2B13616  11.245  25.761   8.250
 4127POPC   C3B13617  11.169  25.787   7.950
 4127POPC   C4B13618  11.201  25.765   7.650
 4128POPC   NC313619  27.552   2.779   9.450
 4128POPC   PO413620  27.593   2.768   9.150
 4128POPC   GL113621  27.590   2.788   8.850
 4128POPC   GL213622  27.683   2.853   8.850
 4128POPC   C1A13623  27.604   2.780   8.550
 4128POPC   D2A13624  27.566   2.804   8.250
 4128POPC   C3A13625  27.596   2.756   7.950
 4128POPC   C4A13626  27.632   2.807   7.650
 4128POPC   C1B13627  27.755   2.918   8.550
 4128POPC   C2B13628  27.753   2.962   8.250
 4128POPC   C3B13629  27.759   2.942   7.950
 4128POPC   C4B13630  27.775   2.914   7.650
 4129POPC   NC313631  15.178  39.189   9.450
 4129POPC   PO413632  15.220  39.226   9.150
 4129POPC   GL113633  15.228  39.273   8.850
 4129POPC   GL213634  15.252  39.112   8.850
 4129POPC   C1A13635  15.162  39.216   8.550
 4129POPC   D2A13636  15.211  39.275   8.250
 4129POPC   C3A13637  15.165  39.260   7.950
 4129POPC   C4A13638  15.211  39.220   7.650
 4129POPC   C1B13639  15.334  39.091   8.550
 4129POPC   C2B13640  15.413  39.028   8.250
 4129POPC   C3B13641  15.391  39.079   7.950
 4129POPC   C4B13642  15.377  39.095   7.650
 4130POPC   NC313643  35.332   9.701   9.450
 4130POPC   PO413644  35.362   9.771   9.150
 4130POPC   GL113645  35.358   9.771   8.850
 4130POPC   GL213646  35.443   9.855   8.850
 4130POPC   C1A13647  35.385   9.776   8.550
 4130POPC   D2A13648  35.332   9.705   8.250
 4130POPC   C3A13649  35.386   9.725   7.950
 4130POPC   C4A13650  35.328   9.798   7.650
 4130POPC   C1B13651  35.506   9.951   8.550
 4130POPC   C2B13652  35.526   9.964   8.250
 4130POPC   C3B13653  35.507   9.940   7.950
 4130POPC   C4B13654  35.490   9.960   7.650
 4131POPC   NC313655   8.188  22.141   9.450
 4131POPC   PO413656   8.196  22.116   9.150
 4131POPC   GL113657   8.187  22.195   8.850
 4131POPC   GL213658   8.051  22.112   8.850
 4131POPC   C1A13659   8.213  22.145   8.550
 4131POPC   D2A13660   8.212  22.144   8.250
 4131POPC   C3A13661   8.239  22.118   7.950
 4131POPC   C4A13662   8.181  22.177   7.650
 4131POPC   C1B13663   7.987  22.013   8.550
 4131POPC   C2B13664   8.037  22.019   8.250
 4131POPC   C3B13665   8.009  21.994   7.950
 4131POPC   C4B13666   7.977  21.979   7.650
 4132POPC   NC313667  17.517  12.814   9.450
 4132POPC   PO413668  17.543  12.833   9.150
 4132POPC   GL113669  17.505  12.855   8.850
 4132POPC   GL213670  17.345  12.848   8.850
 4132POPC   C1A13671  17.487  12.863   8.550
 4132POPC   D2A13672  17.460  12.840   8.250
 4132POPC   C3A13673  17.524  12.885   7.950
 4132POPC   C4A13674  17.459  12.807   7.650
 4132POPC   C1B13675  17.307  12.907   8.550
 4132POPC   C2B13676  17.228  12.883   8.250
 4132POPC   C3B13677  17.268  12.874   7.950
 4132POPC   C4B13678  17.216  12.844   7.650
 4133POPC   NC313679  40.781  40.807   9.450
 4133POPC   PO413680  40.823  40.797   9.150
 4133POPC   GL113681  40.780  40.783   8.850
 4133POPC   GL213682  40.681  40.857   8.850
 4133POPC   C1A13683  40.807  40.753   8.550
 4133POPC   D2A13684  40.815  40.768   8.250
 4133POPC   C3A13685  40.802  40.767   7.950
 4133POPC   C4A13686  40.822  40.756   7.650
 4133POPC   C1B13687  40.498  40.782   8.550
 4133POPC   C2B13688  40.571  40.847   8.250
 4133POPC   C3B13689  40.498  40.847   7.950
 4133POPC   C4B13690  40.571  40.868   7.650
 4134POPC   NC313691  43.895  32.236   9.450
 4134POPC   PO413692  43.910  32.273   9.150
 4134POPC   GL113693  43.857  32.213   8.850
 4134POPC   GL213694  43.811  32.217   8.850
 4134POPC   C1A13695  43.870  32.247   8.550
 4134POPC   D2A13696  43.915  32.236   8.250
 4134POPC   C3A13697  43.844  32.209   7.950
 4134POPC   C4A13698  43.881  32.249   7.650
 4134POPC   C1B13699  43.631  32.152   8.550
 4134POPC   C2B13700  43.631  32.062   8.250
 4134POPC   C3B13701  43.665  32.134   7.950
 4134POPC   C4B13702  43.658  32.142   7.650
 4135POPC   NC313703  43.850  15.140   9.450
 4135POPC   PO413704  43.874  15.226   9.150
 4135POPC   GL113705  43.867  15.143   8.850
 4135POPC   GL213706  43.939  15.225   8.850
 4135POPC   C1A13707  43.888  15.225   8.550
 4135POPC   D2A13708  43.935  15.159   8.250
 4135POPC   C3A13709  43.920  15.211   7.950
 4135POPC   C4A13710  43.928  15.183   7.650
 4135POPC   C1B13711  44.048  15.310   8.550
 4135POPC   C2B13712  44.018  15.321   8.250
 4135POPC   C3B13713  44.116  15.390   7.950
 4135POPC   C4B13714  44.039  15.329   7.650
 4136POPC   NC313715   7.389  35.303   9.450
 4136POPC   PO413716   7.468  35.336   9.150
 4136POPC   GL113717   7.463  35.389   8.850
 4136POPC   GL213718   7.434  35.259   8.850
 4136POPC   C1A13719   7.376  35.372   8.550
 4136POPC   D2A13720   7.469  35.388   8.250
 4136POPC   C3A13721   7.381  35.317   7.950
 4136POPC   C4A13722   7.417  35.376   7.650
 4136POPC   C1B13723   7.479  35.104   8.550
 4136POPC   C2B13724   7.550  35.131   8.250
 4136POPC   C3B13725   7.511  35.130   7.950
 4136POPC   C4B13726   7.477  35.083   7.650
 4137POPC   NC313727  34.579  19.814   9.450
 4137POPC   PO413728  34.587  19.850   9.150
 4137POPC   GL113729  34.527  19.793   8.850
 4137POPC   GL213730  34.678  19.991   8.850
 4137POPC   C1A13731  34.531  19.871   8.550
 4137POPC   D2A13732  34.555  19.831   8.250
 4137POPC   C3A13733  34.598  19.874   7.950
 4137POPC   C4A13734  34.561  19.802   7.650
 4137POPC   C1B13735  34.681  20.089   8.550
 4137POPC   C2B13736  34.727  20.082   8.250
 4137POPC   C3B13737  34.682  20.019   7.950
 4137POPC   C4B13738  34.644  20.110   7.650
 4138POPC   NC313739   6.655  19.830   9.450
 4138POPC   PO413740   6.639  19.834   9.150
 4138POPC   GL113741   6.603  19.806   8.850
 4138POPC   GL213742   6.700  19.733   8.850
 4138POPC   C1A13743   6.663  19.824   8.550
 4138POPC   D2A13744   6.631  19.823   8.250
 4138POPC   C3A13745   6.681  19.827   7.950
 4138POPC   C4A13746   6.649  19.802   7.650
 4138POPC   C1B13747   6.716  19.609   8.550
 4138POPC   C2B13748   6.739  19.547   8.250
 4138POPC   C3B13749   6.677  19.575   7.950
 4138POPC   C4B13750   6.734  19.609   7.650
 4139POPC   NC313751   0.451  19.028   9.450
 4139POPC   PO413752   0.471  19.072   9.150
 4139POPC   GL113753   0.470  19.101   8.850
 4139POPC   GL213754   0.433  19.165   8.850
 4139POPC   C1A13755   0.442  19.053   8.550
 4139POPC   D2A13756   0.425  19.051   8.250
 4139POPC   C3A13757   0.461  19.063   7.950
 4139POPC   C4A13758   0.473  19.013   7.650
 4139POPC   C1B13759   0.431  19.348   8.550
 4139POPC   C2B13760   0.445  19.300   8.250
 4139POPC   C3B13761   0.472  19.261   7.950
 4139POPC   C4B13762   0.444  19.351   7.650
 4140POPC   NC313763   0.466   4.292   9.450
 4140POPC   PO413764   0.429   4.351   9.150
 4140POPC   GL113765   0.472   4.357   8.850
 4140POPC   GL213766   0.379   4.409   8.850
 4140POPC   C1A13767   0.454   4.366   8.550
 4140POPC   D2A13768   0.434   4.308   8.250
 4140POPC   C3A13769   0.424   4.302   7.950
 4140POPC   C4A13770   0.461   4.298   7.650
 4140POPC   C1B13771   0.265   4.472   8.550
 4140POPC   C2B13772   0.330   4.539   8.250
 4140POPC   C3B13773   0.275   4.482   7.950
 4140POPC   C4B13774   0.283   4.525   7.650
 4141POPC   NC313775  30.716  15.934   9.450
 4141POPC   PO413776  30.652  15.999   9.150
 4141POPC   GL113777  30.670  16.000   8.850
 4141POPC   GL213778  30.750  15.796   8.850
 4141POPC   C1A13779  30.720  15.986   8.550
 4141POPC   D2A13780  30.705  15.948   8.250
 4141POPC   C3A13781  30.688  15.986   7.950
 4141POPC   C4A13782  30.681  15.911   7.650
 4141POPC   C1B13783  30.810  15.697   8.550
 4141POPC   C2B13784  30.799  15.700   8.250
 4141POPC   C3B13785  30.821  15.736   7.950
 4141POPC   C4B13786  30.786  15.679   7.650
 4142POPC   NC313787  15.146  29.968   9.450
 4142POPC   PO413788  15.181  29.941   9.150
 4142POPC   GL113789  15.135  29.896   8.850
 4142POPC   GL213790  15.305  29.908   8.850
 4142POPC   C1A13791  15.202  29.951   8.550
 4142POPC   D2A13792  15.134  29.940   8.250
 4142POPC   C3A13793  15.211  29.961   7.950
 4142POPC   C4A13794  15.188  29.875   7.650
 4142POPC   C1B13795  15.392  29.824   8.550
 4142POPC   C2B13796  15.425  29.826   8.250
 4142POPC   C3B13797  15.466  29.882   7.950
 4142POPC   C4B13798  15.412  29.852   7.650
 4143POPC   NC313799  23.678  33.052   9.450
 4143POPC   PO413800  23.748  33.060   9.150
 4143POPC   GL113801  23.727  33.047   8.850
 4143POPC   GL213802  23.648  32.893   8.850
 4143POPC   C1A13803  23.757  33.050   8.550
 4143POPC   D2A13804  23.730  33.073   8.250
 4143POPC   C3A13805  23.699  33.031   7.950
 4143POPC   C4A13806  23.708  33.034   7.650
 4143POPC   C1B13807  23.652  32.817   8.550
 4143POPC   C2B13808  23.594  32.796   8.250
 4143POPC   C3B13809  23.670  32.778   7.950
 4143POPC   C4B13810  23.575  32.785   7.650
 4144POPC   NC313811  43.936  12.894   9.450
 4144POPC   PO413812  43.843  12.838   9.150
 4144POPC   GL113813  43.926  12.840   8.850
 4144POPC   GL213814  43.911  12.785   8.850
 4144POPC   C1A13815  43.850  12.874   8.550
 4144POPC   D2A13816  43.849  12.827   8.250
 4144POPC   C3A13817  43.933  12.882   7.950
 4144POPC   C4A13818  43.850  12.889   7.650
 4144POPC   C1B13819  43.968  12.631   8.550
 4144POPC   C2B13820  43.950  12.617   8.250
 4144POPC   C3B13821  43.947  12.592   7.950
 4144POPC   C4B13822  43.981  12.571   7.650
 4145POPC   NC313823  42.297  26.794   9.450
 4145POPC   PO413824  42.305  26.820   9.150
 4145POPC   GL113825  42.340  26.818   8.850
 4145POPC   GL213826  42.322  26.705   8.850
 4145POPC   C1A13827  42.318  26.847   8.550
 4145POPC   D2A13828  42.312  26.849   8.250
 4145POPC   C3A13829  42.374  26.803   7.950
 4145POPC   C4A13830  42.381  26.807   7.650
 4145POPC   C1B13831  42.367  26.549   8.550
 4145POPC   C2B13832  42.356  26.550   8.250
 4145POPC   C3B13833  42.340  26.599   7.950
 4145POPC   C4B13834  42.308  26.538   7.650
 4146POPC   NC313835  40.811  20.589   9.450
 4146POPC   PO413836  40.737  20.610   9.150
 4146POPC   GL113837  40.794  20.623   8.850
 4146POPC   GL213838  40.838  20.519   8.850
 4146POPC   C1A13839  40.778  20.628   8.550
 4146POPC   D2A13840  40.816  20.561   8.250
 4146POPC   C3A13841  40.774  20.598   7.950
 4146POPC   C4A13842  40.743  20.569   7.650
 4146POPC   C1B13843  40.901  20.402   8.550
 4146POPC   C2B13844  40.890  20.343   8.250
 4146POPC   C3B13845  40.866  20.356   7.950
 4146POPC   C4B13846  40.877  20.415   7.650
 4147POPC   NC313847  42.344  39.227   9.450
 4147POPC   PO413848  42.324  39.225   9.150
 4147POPC   GL113849  42.306  39.224   8.850
 4147POPC   GL213850  42.459  39.142   8.850
 4147POPC   C1A13851  42.294  39.218   8.550
 4147POPC   D2A13852  42.320  39.220   8.250
 4147POPC   C3A13853  42.358  39.182   7.950
 4147POPC   C4A13854  42.291  39.205   7.650
 4147POPC   C1B13855  42.538  39.169   8.550
 4147POPC   C2B13856  42.606  39.129   8.250
 4147POPC   C3B13857  42.555  39.133   7.950
 4147POPC   C4B13858  42.609  39.135   7.650
 4148POPC   NC313859   3.535  14.406   9.450
 4148POPC   PO413860   3.515  14.419   9.150
 4148POPC   GL113861   3.551  14.429   8.850
 4148POPC   GL213862   3.526  14.550   8.850
 4148POPC   C1A13863   3.572  14.438   8.550
 4148POPC   D2A13864   3.561  14.408   8.250
 4148POPC   C3A13865   3.522  14.451   7.950
 4148POPC   C4A13866   3.531  14.376   7.650
 4148POPC   C1B13867   3.524  14.652   8.550
 4148POPC   C2B13868   3.456  14.641   8.250
 4148POPC   C3B13869   3.484  14.652   7.950
 4148POPC   C4B13870   3.529  14.690   7.650
 4149POPC   NC313871  23.723  22.189   9.450
 4149POPC   PO413872  23.748  22.155   9.150
 4149POPC   GL113873  23.677  22.139   8.850
 4149POPC   GL213874  23.790  22.077   8.850
 4149POPC   C1A13875  23.750  22.115   8.550
 4149POPC   D2A13876  23.705  22.120   8.250
 4149POPC   C3A13877  23.724  22.177   7.950
 4149POPC   C4A13878  23.688  22.159   7.650
 4149POPC   C1B13879  23.894  21.968   8.550
 4149POPC   C2B13880  23.929  22.003   8.250
 4149POPC   C3B13881  23.918  21.992   7.950
 4149POPC   C4B13882  23.844  22.011   7.650
 4150POPC   NC313883  18.308  36.172   9.450
 4150POPC   PO413884  18.320  36.078   9.150
 4150POPC   GL113885  18.277  36.176   8.850
 4150POPC   GL213886  18.281  35.981   8.850
 4150POPC   C1A13887  18.273  36.152   8.550
 4150POPC   D2A13888  18.285  36.148   8.250
 4150POPC   C3A13889  18.248  36.112   7.950
 4150POPC   C4A13890  18.300  36.127   7.650
 4150POPC   C1B13891  18.297  35.895   8.550
 4150POPC   C2B13892  18.247  35.893   8.250
 4150POPC   C3B13893  18.241  35.855   7.950
 4150POPC   C4B13894  18.243  35.918   7.650
 4151POPC   NC313895  24.480   1.195   9.450
 4151POPC   PO413896  24.531   1.225   9.150
 4151POPC   GL113897  24.537   1.214   8.850
 4151POPC   GL213898  24.383   1.185   8.850
 4151POPC   C1A13899  24.512   1.164   8.550
 4151POPC   D2A13900  24.512   1.173   8.250
 4151POPC   C3A13901  24.519   1.187   7.950
 4151POPC   C4A13902  24.486   1.238   7.650
 4151POPC   C1B13903  24.246   1.084   8.550
 4151POPC   C2B13904  24.250   1.081   8.250
 4151POPC   C3B13905  24.289   1.036   7.950
 4151POPC   C4B13906  24.302   1.055   7.650
 4152POPC   NC313907  20.649  40.812   9.450
 4152POPC   PO413908  20.616  40.806   9.150
 4152POPC   GL113909  20.589  40.770   8.850
 4152POPC   GL213910  20.699  40.860   8.850
 4152POPC   C1A13911  20.583  40.742   8.550
 4152POPC   D2A13912  20.591  40.743   8.250
 4152POPC   C3A13913  20.633  40.805   7.950
 4152POPC   C4A13914  20.570  40.800   7.650
 4152POPC   C1B13915  20.873  40.857   8.550
 4152POPC   C2B13916  20.821  40.888   8.250
 4152POPC   C3B13917  20.866  40.823   7.950
 4152POPC   C4B13918  20.867  40.889   7.650
 4153POPC   NC313919  23.697  32.273   9.450
 4153POPC   PO413920  23.718  32.286   9.150
 4153POPC   GL113921  23.697  32.253   8.850
 4153POPC   GL213922  23.758  32.105   8.850
 4153POPC   C1A13923  23.763  32.297   8.550
 4153POPC   D2A13924  23.719  32.235   8.250
 4153POPC   C3A13925  23.734  32.296   7.950
 4153POPC   C4A13926  23.738  32.237   7.650
 4153POPC   C1B13927  23.895  32.036   8.550
 4153POPC   C2B13928  23.858  32.069   8.250
 4153POPC   C3B13929  23.903  32.068   7.950
 4153POPC   C4B13930  23.836  32.109   7.650
 4154POPC   NC313931  28.414  26.835   9.450
 4154POPC   PO413932  28.367  26.861   9.150
 4154POPC   GL113933  28.398  26.857   8.850
 4154POPC   GL213934  28.373  26.975   8.850
 4154POPC   C1A13935  28.373  26.832   8.550
 4154POPC   D2A13936  28.340  26.816   8.250
 4154POPC   C3A13937  28.359  26.859   7.950
 4154POPC   C4A13938  28.417  26.800   7.650
 4154POPC   C1B13939  28.349  27.110   8.550
 4154POPC   C2B13940  28.313  27.043   8.250
 4154POPC   C3B13941  28.334  27.065   7.950
 4154POPC   C4B13942  28.315  27.097   7.650
 4155POPC   NC313943  41.592  26.864   9.450
 4155POPC   PO413944  41.566  26.817   9.150
 4155POPC   GL113945  41.603  26.833   8.850
 4155POPC   GL213946  41.457  26.962   8.850
 4155POPC   C1A13947  41.586  26.857   8.550
 4155POPC   D2A13948  41.577  26.783   8.250
 4155POPC   C3A13949  41.564  26.851   7.950
 4155POPC   C4A13950  41.540  26.800   7.650
 4155POPC   C1B13951  41.400  27.057   8.550
 4155POPC   C2B13952  41.366  27.030   8.250
 4155POPC   C3B13953  41.418  26.984   7.950
 4155POPC   C4B13954  41.419  27.063   7.650
 4156POPC   NC313955   1.191  12.033   9.450
 4156POPC   PO413956   1.232  12.096   9.150
 4156POPC   GL113957   1.175  12.039   8.850
 4156POPC   GL213958   1.114  12.123   8.850
 4156POPC   C1A13959   1.171  12.084   8.550
 4156POPC   D2A13960   1.174  12.045   8.250
 4156POPC   C3A13961   1.227  12.061   7.950
 4156POPC   C4A13962   1.247  12.072   7.650
 4156POPC   C1B13963   1.000  12.106   8.550
 4156POPC   C2B13964   0.977  12.124   8.250
 4156POPC   C3B13965   1.001  12.128   7.950
 4156POPC   C4B13966   0.945  12.127   7.650
 4157POPC   NC313967  15.982   1.170   9.450
 4157POPC   PO413968  16.000   1.264   9.150
 4157POPC   GL113969  15.988   1.234   8.850
 4157POPC   GL213970  15.986   1.373   8.850
 4157POPC   C1A13971  15.939   1.223   8.550
 4157POPC   D2A13972  15.916   1.218   8.250
 4157POPC   C3A13973  15.940   1.190   7.950
 4157POPC   C4A13974  15.992   1.173   7.650
 4157POPC   C1B13975  15.962   1.413   8.550
 4157POPC   C2B13976  15.887   1.467   8.250
 4157POPC   C3B13977  15.945   1.507   7.950
 4157POPC   C4B13978  15.975   1.432   7.650
 4158POPC   NC313979  37.642  33.750   9.450
 4158POPC   PO413980  37.686  33.801   9.150
 4158POPC   GL113981  37.710  33.802   8.850
 4158POPC   GL213982  37.787  33.815   8.850
 4158POPC   C1A13983  37.652  33.816   8.550
 4158POPC   D2A13984  37.660  33.809   8.250
 4158POPC   C3A13985  37.656  33.815   7.950
 4158POPC   C4A13986  37.690  33.803   7.650
 4158POPC   C1B13987  37.868  33.848   8.550
 4158POPC   C2B13988  37.950  33.844   8.250
 4158POPC   C3B13989  37.900  33.887   7.950
 4158POPC   C4B13990  37.874  33.900   7.650
 4159POPC   NC313991  29.940  26.819   9.450
 4159POPC   PO413992  29.925  26.823   9.150
 4159POPC   GL113993  29.913  26.800   8.850
 4159POPC   GL213994  29.844  26.815   8.850
 4159POPC   C1A13995  29.878  26.848   8.550
 4159POPC   D2A13996  29.913  26.828   8.250
 4159POPC   C3A13997  29.883  26.773   7.950
 4159POPC   C4A13998  29.902  26.863   7.650
 4159POPC   C1B13999  29.679  26.704   8.550
 4159POPC   C2B14000  29.638  26.741   8.250
 4159POPC   C3B14001  29.717  26.710   7.950
 4159POPC   C4B14002  29.661  26.694   7.650
 4160POPC   NC314003  25.232  43.868   9.450
 4160POPC   PO414004  25.300  43.910   9.150
 4160POPC   GL114005  25.250  43.837   8.850
 4160POPC   GL214006  25.338  43.918   8.850
 4160POPC   C1A14007  25.314  43.908   8.550
 4160POPC   D2A14008  25.274  43.889   8.250
 4160POPC   C3A14009  25.232  43.909   7.950
 4160POPC   C4A14010  25.246  43.891   7.650
 4160POPC   C1B14011  25.520  44.031   8.550
 4160POPC   C2B14012  25.450  44.017   8.250
 4160POPC   C3B14013  25.482  43.977   7.950
 4160POPC   C4B14014  25.473  43.964   7.650
 4161POPC   NC314015   1.194  36.140   9.450
 4161POPC   PO414016   1.165  36.166   9.150
 4161POPC   GL114017   1.222  36.142   8.850
 4161POPC   GL214018   1.098  36.194   8.850
 4161POPC   C1A14019   1.234  36.166   8.550
 4161POPC   D2A14020   1.213  36.087   8.250
 4161POPC   C3A14021   1.165  36.113   7.950
 4161POPC   C4A14022   1.171  36.154   7.650
 4161POPC   C1B14023   1.078  36.343   8.550
 4161POPC   C2B14024   1.104  36.367   8.250
 4161POPC   C3B14025   1.071  36.330   7.950
 4161POPC   C4B14026   1.106  36.335   7.650
 4162POPC   NC314027  20.615  16.725   9.450
 4162POPC   PO414028  20.648  16.771   9.150
 4162POPC   GL114029  20.613  16.697   8.850
 4162POPC   GL214030  20.657  16.634   8.850
 4162POPC   C1A14031  20.597  16.682   8.550
 4162POPC   D2A14032  20.575  16.691   8.250
 4162POPC   C3A14033  20.561  16.756   7.950
 4162POPC   C4A14034  20.631  16.699   7.650
 4162POPC   C1B14035  20.775  16.477   8.550
 4162POPC   C2B14036  20.713  16.492   8.250
 4162POPC   C3B14037  20.712  16.539   7.950
 4162POPC   C4B14038  20.789  16.554   7.650
 4163POPC   NC314039  19.845  13.594   9.450
 4163POPC   PO414040  19.810  13.612   9.150
 4163POPC   GL114041  19.809  13.590   8.850
 4163POPC   GL214042  19.750  13.758   8.850
 4163POPC   C1A14043  19.864  13.607   8.550
 4163POPC   D2A14044  19.882  13.658   8.250
 4163POPC   C3A14045  19.804  13.672   7.950
 4163POPC   C4A14046  19.879  13.594   7.650
 4163POPC   C1B14047  19.692  13.889   8.550
 4163POPC   C2B14048  19.691  13.864   8.250
 4163POPC   C3B14049  19.736  13.886   7.950
 4163POPC   C4B14050  19.702  13.796   7.650
 4164POPC   NC314051  43.912  33.059   9.450
 4164POPC   PO414052  43.858  33.001   9.150
 4164POPC   GL114053  43.843  33.002   8.850
 4164POPC   GL214054  43.907  33.165   8.850
 4164POPC   C1A14055  43.861  33.002   8.550
 4164POPC   D2A14056  43.889  33.019   8.250
 4164POPC   C3A14057  43.896  33.037   7.950
 4164POPC   C4A14058  43.913  32.979   7.650
 4164POPC   C1B14059  44.056  33.255   8.550
 4164POPC   C2B14060  44.004  33.245   8.250
 4164POPC   C3B14061  43.997  33.195   7.950
 4164POPC   C4B14062  44.063  33.232   7.650
 4165POPC   NC314063  29.097  43.883   9.450
 4165POPC   PO414064  29.142  43.862   9.150
 4165POPC   GL114065  29.112  43.879   8.850
 4165POPC   GL214066  29.135  43.740   8.850
 4165POPC   C1A14067  29.191  43.870   8.550
 4165POPC   D2A14068  29.165  43.892   8.250
 4165POPC   C3A14069  29.158  43.887   7.950
 4165POPC   C4A14070  29.189  43.843   7.650
 4165POPC   C1B14071  29.086  43.668   8.550
 4165POPC   C2B14072  29.055  43.678   8.250
 4165POPC   C3B14073  29.040  43.655   7.950
 4165POPC   C4B14074  29.031  43.638   7.650
 4166POPC   NC314075  30.708  10.517   9.450
 4166POPC   PO414076  30.734  10.562   9.150
 4166POPC   GL114077  30.737  10.561   8.850
 4166POPC   GL214078  30.866  10.485   8.850
 4166POPC   C1A14079  30.724  10.574   8.550
 4166POPC   D2A14080  30.655  10.516   8.250
 4166POPC   C3A14081  30.691  10.484   7.950
 4166POPC   C4A14082  30.652  10.532   7.650
 4166POPC   C1B14083  30.916  10.565   8.550
 4166POPC   C2B14084  30.907  10.521   8.250
 4166POPC   C3B14085  30.976  10.543   7.950
 4166POPC   C4B14086  30.992  10.553   7.650
 4167POPC   NC314087  10.500  31.522   9.450
 4167POPC   PO414088  10.560  31.463   9.150
 4167POPC   GL114089  10.478  31.471   8.850
 4167POPC   GL214090  10.684  31.509   8.850
 4167POPC   C1A14091  10.550  31.465   8.550
 4167POPC   D2A14092  10.570  31.463   8.250
 4167POPC   C3A14093  10.504  31.470   7.950
 4167POPC   C4A14094  10.567  31.511   7.650
 4167POPC   C1B14095  10.775  31.506   8.550
 4167POPC   C2B14096  10.772  31.517   8.250
 4167POPC   C3B14097  10.727  31.495   7.950
 4167POPC   C4B14098  10.808  31.549   7.650
 4168POPC   NC314099  23.716  22.928   9.450
 4168POPC   PO414100  23.727  22.919   9.150
 4168POPC   GL114101  23.695  22.953   8.850
 4168POPC   GL214102  23.565  23.019   8.850
 4168POPC   C1A14103  23.751  22.904   8.550
 4168POPC   D2A14104  23.671  22.893   8.250
 4168POPC   C3A14105  23.761  22.970   7.950
 4168POPC   C4A14106  23.693  22.957   7.650
 4168POPC   C1B14107  23.469  23.022   8.550
 4168POPC   C2B14108  23.451  23.056   8.250
 4168POPC   C3B14109  23.515  23.089   7.950
 4168POPC   C4B14110  23.483  23.101   7.650
 4169POPC   NC314111  38.496   8.215   9.450
 4169POPC   PO414112  38.406   8.173   9.150
 4169POPC   GL114113  38.421   8.227   8.850
 4169POPC   GL214114  38.293   8.217   8.850
 4169POPC   C1A14115  38.449   8.180   8.550
 4169POPC   D2A14116  38.488   8.171   8.250
 4169POPC   C3A14117  38.425   8.154   7.950
 4169POPC   C4A14118  38.455   8.230   7.650
 4169POPC   C1B14119  38.190   8.279   8.550
 4169POPC   C2B14120  38.276   8.271   8.250
 4169POPC   C3B14121  38.265   8.337   7.950
 4169POPC   C4B14122  38.201   8.258   7.650
 4170POPC   NC314123  18.317  18.270   9.450
 4170POPC   PO414124  18.240  18.328   9.150
 4170POPC   GL114125  18.276  18.321   8.850
 4170POPC   GL214126  18.368  18.306   8.850
 4170POPC   C1A14127  18.312  18.294   8.550
 4170POPC   D2A14128  18.307  18.275   8.250
 4170POPC   C3A14129  18.328  18.274   7.950
 4170POPC   C4A14130  18.289  18.301   7.650
 4170POPC   C1B14131  18.573  18.221   8.550
 4170POPC   C2B14132  18.516  18.229   8.250
 4170POPC   C3B14133  18.568  18.202   7.950
 4170POPC   C4B14134  18.489  18.231   7.650
 4171POPC   NC314135  40.819   5.865   9.450
 4171POPC   PO414136  40.770   5.905   9.150
 4171POPC   GL114137  40.762   5.858   8.850
 4171POPC   GL214138  40.779   6.025   8.850
 4171POPC   C1A14139  40.782   5.841   8.550
 4171POPC   D2A14140  40.825   5.859   8.250
 4171POPC   C3A14141  40.753   5.852   7.950
 4171POPC   C4A14142  40.779   5.825   7.650
 4171POPC   C1B14143  40.909   6.094   8.550
 4171POPC   C2B14144  40.900   6.117   8.250
 4171POPC   C3B14145  40.867   6.116   7.950
 4171POPC   C4B14146  40.850   6.071   7.650
 4172POPC   NC314147   9.705  24.448   9.450
 4172POPC   PO414148   9.703  24.440   9.150
 4172POPC   GL114149   9.789  24.496   8.850
 4172POPC   GL214150   9.623  24.552   8.850
 4172POPC   C1A14151   9.770  24.513   8.550
 4172POPC   D2A14152   9.708  24.495   8.250
 4172POPC   C3A14153   9.774  24.479   7.950
 4172POPC   C4A14154   9.756  24.489   7.650
 4172POPC   C1B14155   9.509  24.574   8.550
 4172POPC   C2B14156   9.551  24.561   8.250
 4172POPC   C3B14157   9.508  24.589   7.950
 4172POPC   C4B14158   9.531  24.571   7.650
 4173POPC   NC314159  44.689  27.603   9.450
 4173POPC   PO414160  44.710  27.602   9.150
 4173POPC   GL114161  44.669  27.581   8.850
 4173POPC   GL214162  44.528  27.721   8.850
 4173POPC   C1A14163  44.691  27.616   8.550
 4173POPC   D2A14164  44.645  27.607   8.250
 4173POPC   C3A14165  44.649  27.573   7.950
 4173POPC   C4A14166  44.648  27.552   7.650
 4173POPC   C1B14167  44.473  27.770   8.550
 4173POPC   C2B14168  44.511  27.745   8.250
 4173POPC   C3B14169  44.508  27.765   7.950
 4173POPC   C4B14170  44.520  27.803   7.650
 4174POPC   NC314171  35.382  39.206   9.450
 4174POPC   PO414172  35.329  39.262   9.150
 4174POPC   GL114173  35.395  39.248   8.850
 4174POPC   GL214174  35.181  39.203   8.850
 4174POPC   C1A14175  35.308  39.260   8.550
 4174POPC   D2A14176  35.309  39.264   8.250
 4174POPC   C3A14177  35.393  39.228   7.950
 4174POPC   C4A14178  35.379  39.223   7.650
 4174POPC   C1B14179  35.057  39.159   8.550
 4174POPC   C2B14180  35.059  39.160   8.250
 4174POPC   C3B14181  35.123  39.171   7.950
 4174POPC   C4B14182  35.113  39.160   7.650
 4175POPC   NC314183   3.564  15.189   9.450
 4175POPC   PO414184   3.544  15.151   9.150
 4175POPC   GL114185   3.556  15.158   8.850
 4175POPC   GL214186   3.629  15.261   8.850
 4175POPC   C1A14187   3.504  15.214   8.550
 4175POPC   D2A14188   3.534  15.213   8.250
 4175POPC   C3A14189   3.583  15.177   7.950
 4175POPC   C4A14190   3.557  15.221   7.650
 4175POPC   C1B14191   3.776  15.214   8.550
 4175POPC   C2B14192   3.783  15.232   8.250
 4175POPC   C3B14193   3.821  15.213   7.950
 4175POPC   C4B14194   3.742  15.220   7.650
 4176POPC   NC314195  14.409  41.608   9.450
 4176POPC   PO414196  14.440  41.549   9.150
 4176POPC   GL114197  14.355  41.579   8.850
 4176POPC   GL214198  14.538  41.653   8.850
 4176POPC   C1A14199  14.366  41.511   8.550
 4176POPC   D2A14200  14.394  41.575   8.250
 4176POPC   C3A14201  14.382  41.580   7.950
 4176POPC   C4A14202  14.357  41.598   7.650
 4176POPC   C1B14203  14.588  41.698   8.550
 4176POPC   C2B14204  14.607  41.762   8.250
 4176POPC   C3B14205  14.615  41.697   7.950
 4176POPC   C4B14206  14.547  41.710   7.650
 4177POPC   NC314207  12.046   2.725   9.450
 4177POPC   PO414208  12.098   2.794   9.150
 4177POPC   GL114209  12.046   2.747   8.850
 4177POPC   GL214210  11.949   2.874   8.850
 4177POPC   C1A14211  12.051   2.790   8.550
 4177POPC   D2A14212  12.106   2.742   8.250
 4177POPC   C3A14213  12.031   2.785   7.950
 4177POPC   C4A14214  12.053   2.789   7.650
 4177POPC   C1B14215  11.923   2.929   8.550
 4177POPC   C2B14216  11.922   2.947   8.250
 4177POPC   C3B14217  11.836   2.930   7.950
 4177POPC   C4B14218  11.874   2.902   7.650
 4178POPC   NC314219  43.061  13.648   9.450
 4178POPC   PO414220  43.106  13.623   9.150
 4178POPC   GL114221  43.066  13.597   8.850
 4178POPC   GL214222  42.969  13.691   8.850
 4178POPC   C1A14223  43.149  13.655   8.550
 4178POPC   D2A14224  43.160  13.620   8.250
 4178POPC   C3A14225  43.103  13.638   7.950
 4178POPC   C4A14226  43.139  13.614   7.650
 4178POPC   C1B14227  42.856  13.759   8.550
 4178POPC   C2B14228  42.900  13.763   8.250
 4178POPC   C3B14229  42.872  13.752   7.950
 4178POPC   C4B14230  42.914  13.739   7.650
 4179POPC   NC314231   8.222   8.169   9.450
 4179POPC   PO414232   8.236   8.222   9.150
 4179POPC   GL114233   8.222   8.216   8.850
 4179POPC   GL214234   8.134   8.294   8.850
 4179POPC   C1A14235   8.202   8.243   8.550
 4179POPC   D2A14236   8.168   8.219   8.250
 4179POPC   C3A14237   8.158   8.148   7.950
 4179POPC   C4A14238   8.221   8.226   7.650
 4179POPC   C1B14239   8.014   8.343   8.550
 4179POPC   C2B14240   8.044   8.382   8.250
 4179POPC   C3B14241   8.017   8.376   7.950
 4179POPC   C4B14242   8.014   8.358   7.650
 4180POPC   NC314243  42.370   3.554   9.450
 4180POPC   PO414244  42.359   3.552   9.150
 4180POPC   GL114245  42.326   3.570   8.850
 4180POPC   GL214246  42.276   3.466   8.850
 4180POPC   C1A14247  42.323   3.547   8.550
 4180POPC   D2A14248  42.353   3.526   8.250
 4180POPC   C3A14249  42.324   3.503   7.950
 4180POPC   C4A14250  42.321   3.570   7.650
 4180POPC   C1B14251  42.275   3.296   8.550
 4180POPC   C2B14252  42.301   3.247   8.250
 4180POPC   C3B14253  42.255   3.312   7.950
 4180POPC   C4B14254  42.346   3.278   7.650
 4181POPC   NC314255  40.047   0.397   9.450
 4181POPC   PO414256  39.968   0.391   9.150
 4181POPC   GL114257  40.040   0.453   8.850
 4181POPC   GL214258  39.994   0.347   8.850
 4181POPC   C1A14259  40.027   0.467   8.550
 4181POPC   D2A14260  40.043   0.404   8.250
 4181POPC   C3A14261  40.004   0.412   7.950
 4181POPC   C4A14262  39.981   0.481   7.650
 4181POPC   C1B14263  40.010   0.237   8.550
 4181POPC   C2B14264  39.980   0.193   8.250
 4181POPC   C3B14265  39.955   0.213   7.950
 4181POPC   C4B14266  40.046   0.209   7.650
 4182POPC   NC314267  22.902  20.587   9.450
 4182POPC   PO414268  22.955  20.648   9.150
 4182POPC   GL114269  22.972  20.605   8.850
 4182POPC   GL214270  22.835  20.657   8.850
 4182POPC   C1A14271  22.944  20.605   8.550
 4182POPC   D2A14272  22.905  20.601   8.250
 4182POPC   C3A14273  22.896  20.595   7.950
 4182POPC   C4A14274  22.902  20.590   7.650
 4182POPC   C1B14275  22.759  20.692   8.550
 4182POPC   C2B14276  22.750  20.750   8.250
 4182POPC   C3B14277  22.681  20.732   7.950
 4182POPC   C4B14278  22.752  20.712   7.650
 4183POPC   NC314279   2.011  12.090   9.450
 4183POPC   PO414280   2.034  12.036   9.150
 4183POPC   GL114281   2.021  12.098   8.850
 4183POPC   GL214282   1.936  12.179   8.850
 4183POPC   C1A14283   2.009  12.075   8.550
 4183POPC   D2A14284   1.996  12.111   8.250
 4183POPC   C3A14285   1.978  12.070   7.950
 4183POPC   C4A14286   2.032  12.037   7.650
 4183POPC   C1B14287   2.001  12.276   8.550
 4183POPC   C2B14288   1.956  12.327   8.250
 4183POPC   C3B14289   1.930  12.345   7.950
 4183POPC   C4B14290   1.987  12.303   7.650
 4184POPC   NC314291   4.269   6.686   9.450
 4184POPC   PO414292   4.302   6.605   9.150
 4184POPC   GL114293   4.286   6.674   8.850
 4184POPC   GL214294   4.208   6.715   8.850
 4184POPC   C1A14295   4.273   6.652   8.550
 4184POPC   D2A14296   4.346   6.659   8.250
 4184POPC   C3A14297   4.305   6.673   7.950
 4184POPC   C4A14298   4.335   6.692   7.650
 4184POPC   C1B14299   4.098   6.847   8.550
 4184POPC   C2B14300   4.082   6.822   8.250
 4184POPC   C3B14301   4.102   6.764   7.950
 4184POPC   C4B14302   4.083   6.850   7.650
 4185POPC   NC314303  19.794  38.408   9.450
 4185POPC   PO414304  19.787  38.448   9.150
 4185POPC   GL114305  19.805  38.459   8.850
 4185POPC   GL214306  19.724  38.425   8.850
 4185POPC   C1A14307  19.785  38.414   8.550
 4185POPC   D2A14308  19.874  38.499   8.250
 4185POPC   C3A14309  19.884  38.487   7.950
 4185POPC   C4A14310  19.809  38.481   7.650
 4185POPC   C1B14311  19.615  38.309   8.550
 4185POPC   C2B14312  19.601  38.322   8.250
 4185POPC   C3B14313  19.608  38.336   7.950
 4185POPC   C4B14314  19.584  38.304   7.650
 4186POPC   NC314315  27.593   3.545   9.450
 4186POPC   PO414316  27.551   3.506   9.150
 4186POPC   GL114317  27.582   3.560   8.850
 4186POPC   GL214318  27.495   3.643   8.850
 4186POPC   C1A14319  27.583   3.505   8.550
 4186POPC   D2A14320  27.608   3.525   8.250
 4186POPC   C3A14321  27.560   3.544   7.950
 4186POPC   C4A14322  27.560   3.562   7.650
 4186POPC   C1B14323  27.432   3.731   8.550
 4186POPC   C2B14324  27.429   3.760   8.250
 4186POPC   C3B14325  27.477   3.763   7.950
 4186POPC   C4B14326  27.457   3.710   7.650
 4187POPC   NC314327  38.466  38.483   9.450
 4187POPC   PO414328  38.501  38.418   9.150
 4187POPC   GL114329  38.499  38.490   8.850
 4187POPC   GL214330  38.385  38.565   8.850
 4187POPC   C1A14331  38.436  38.423   8.550
 4187POPC   D2A14332  38.493  38.415   8.250
 4187POPC   C3A14333  38.425  38.453   7.950
 4187POPC   C4A14334  38.419  38.441   7.650
 4187POPC   C1B14335  38.346  38.660   8.550
 4187POPC   C2B14336  38.279  38.700   8.250
 4187POPC   C3B14337  38.347  38.703   7.950
 4187POPC   C4B14338  38.319  38.623   7.650
 4188POPC   NC314339  19.884  17.503   9.450
 4188POPC   PO414340  19.861  17.505   9.150
 4188POPC   GL114341  19.844  17.538   8.850
 4188POPC   GL214342  19.790  17.393   8.850
 4188POPC   C1A14343  19.878  17.479   8.550
 4188POPC   D2A14344  19.789  17.534   8.250
 4188POPC   C3A14345  19.840  17.463   7.950
 4188POPC   C4A14346  19.806  17.484   7.650
 4188POPC   C1B14347  19.844  17.273   8.550
 4188POPC   C2B14348  19.824  17.290   8.250
 4188POPC   C3B14349  19.810  17.273   7.950
 4188POPC   C4B14350  19.833  17.272   7.650
 4189POPC   NC314351   5.911  43.896   9.450
 4189POPC   PO414352   5.901  43.851   9.150
 4189POPC   GL114353   5.837  43.904   8.850
 4189POPC   GL214354   5.835  44.033   8.850
 4189POPC   C1A14355   5.911  43.878   8.550
 4189POPC   D2A14356   5.836  43.912   8.250
 4189POPC   C3A14357   5.860  43.917   7.950
 4189POPC   C4A14358   5.902  43.836   7.650
 4189POPC   C1B14359   5.884  44.111   8.550
 4189POPC   C2B14360   5.840  44.148   8.250
 4189POPC   C3B14361   5.877  44.121   7.950
 4189POPC   C4B14362   5.849  44.150   7.650
 4190POPC   NC314363  26.003  19.825   9.450
 4190POPC   PO414364  25.995  19.837   9.150
 4190POPC   GL114365  26.085  19.833   8.850
 4190POPC   GL214366  25.926  19.800   8.850
 4190POPC   C1A14367  25.992  19.804   8.550
 4190POPC   D2A14368  26.023  19.811   8.250
 4190POPC   C3A14369  26.004  19.881   7.950
 4190POPC   C4A14370  26.015  19.878   7.650
 4190POPC   C1B14371  25.785  19.737   8.550
 4190POPC   C2B14372  25.842  19.811   8.250
 4190POPC   C3B14373  25.825  19.780   7.950
 4190POPC   C4B14374  25.849  19.798   7.650
 4191POPC   NC314375  19.792  30.732   9.450
 4191POPC   PO414376  19.794  30.654   9.150
 4191POPC   GL114377  19.797  30.701   8.850
 4191POPC   GL214378  19.819  30.614   8.850
 4191POPC   C1A14379  19.873  30.653   8.550
 4191POPC   D2A14380  19.807  30.654   8.250
 4191POPC   C3A14381  19.796  30.692   7.950
 4191POPC   C4A14382  19.813  30.737   7.650
 4191POPC   C1B14383  19.841  30.484   8.550
 4191POPC   C2B14384  19.839  30.408   8.250
 4191POPC   C3B14385  19.896  30.492   7.950
 4191POPC   C4B14386  19.904  30.445   7.650
 4192POPC   NC314387  34.607  10.475   9.450
 4192POPC   PO414388  34.623  10.504   9.150
 4192POPC   GL114389  34.539  10.563   8.850
 4192POPC   GL214390  34.656  10.536   8.850
 4192POPC   C1A14391  34.541  10.548   8.550
 4192POPC   D2A14392  34.566  10.529   8.250
 4192POPC   C3A14393  34.563  10.560   7.950
 4192POPC   C4A14394  34.551  10.563   7.650
 4192POPC   C1B14395  34.796  10.635   8.550
 4192POPC   C2B14396  34.830  10.616   8.250
 4192POPC   C3B14397  34.788  10.678   7.950
 4192POPC   C4B14398  34.800  10.676   7.650
 4193POPC   NC314399  34.603  32.979   9.450
 4193POPC   PO414400  34.594  33.021   9.150
 4193POPC   GL114401  34.572  33.073   8.850
 4193POPC   GL214402  34.417  33.001   8.850
 4193POPC   C1A14403  34.600  33.059   8.550
 4193POPC   D2A14404  34.586  32.986   8.250
 4193POPC   C3A14405  34.617  33.049   7.950
 4193POPC   C4A14406  34.595  33.025   7.650
 4193POPC   C1B14407  34.298  33.024   8.550
 4193POPC   C2B14408  34.280  33.027   8.250
 4193POPC   C3B14409  34.282  33.023   7.950
 4193POPC   C4B14410  34.327  33.012   7.650
 4194POPC   NC314411  24.530  42.285   9.450
 4194POPC   PO414412  24.443  42.308   9.150
 4194POPC   GL114413  24.520  42.335   8.850
 4194POPC   GL214414  24.376  42.403   8.850
 4194POPC   C1A14415  24.523  42.310   8.550
 4194POPC   D2A14416  24.505  42.307   8.250
 4194POPC   C3A14417  24.448  42.380   7.950
 4194POPC   C4A14418  24.498  42.285   7.650
 4194POPC   C1B14419  24.318  42.481   8.550
 4194POPC   C2B14420  24.304  42.467   8.250
 4194POPC   C3B14421  24.302  42.517   7.950
 4194POPC   C4B14422  24.318  42.541   7.650
 4195POPC   NC314423  17.532   2.751   9.450
 4195POPC   PO414424  17.533   2.752   9.150
 4195POPC   GL114425  17.515   2.739   8.850
 4195POPC   GL214426  17.638   2.819   8.850
 4195POPC   C1A14427  17.505   2.728   8.550
 4195POPC   D2A14428  17.500   2.745   8.250
 4195POPC   C3A14429  17.497   2.771   7.950
 4195POPC   C4A14430  17.480   2.721   7.650
 4195POPC   C1B14431  17.782   2.829   8.550
 4195POPC   C2B14432  17.722   2.853   8.250
 4195POPC   C3B14433  17.761   2.863   7.950
 4195POPC   C4B14434  17.760   2.900   7.650
 4196POPC   NC314435   2.775  19.091   9.450
 4196POPC   PO414436   2.717  19.087   9.150
 4196POPC   GL114437   2.748  19.061   8.850
 4196POPC   GL214438   2.868  19.060   8.850
 4196POPC   C1A14439   2.793  19.033   8.550
 4196POPC   D2A14440   2.736  19.032   8.250
 4196POPC   C3A14441   2.810  19.104   7.950
 4196POPC   C4A14442   2.752  19.025   7.650
 4196POPC   C1B14443   2.997  19.159   8.550
 4196POPC   C2B14444   3.039  19.176   8.250
 4196POPC   C3B14445   3.032  19.155   7.950
 4196POPC   C4B14446   3.011  19.140   7.650
 4197POPC   NC314447  39.961  38.474   9.450
 4197POPC   PO414448  40.044  38.464   9.150
 4197POPC   GL114449  39.964  38.418   8.850
 4197POPC   GL214450  39.970  38.597   8.850
 4197POPC   C1A14451  40.033  38.498   8.550
 4197POPC   D2A14452  40.003  38.424   8.250
 4197POPC   C3A14453  39.977  38.415   7.950
 4197POPC   C4A14454  40.014  38.453   7.650
 4197POPC   C1B14455  39.920  38.656   8.550
 4197POPC   C2B14456  39.885  38.694   8.250
 4197POPC   C3B14457  39.960  38.736   7.950
 4197POPC   C4B14458  39.875  38.696   7.650
 4198POPC   NC314459   7.375  26.854   9.450
 4198POPC   PO414460   7.387  26.795   9.150
 4198POPC   GL114461   7.416  26.861   8.850
 4198POPC   GL214462   7.299  26.931   8.850
 4198POPC   C1A14463   7.470  26.817   8.550
 4198POPC   D2A14464   7.469  26.795   8.250
 4198POPC   C3A14465   7.424  26.782   7.950
 4198POPC   C4A14466   7.441  26.842   7.650
 4198POPC   C1B14467   7.301  27.046   8.550
 4198POPC   C2B14468   7.228  27.057   8.250
 4198POPC   C3B14469   7.239  27.028   7.950
 4198POPC   C4B14470   7.240  26.976   7.650
 4199POPC   NC314471  41.590   9.719   9.450
 4199POPC   PO414472  41.559   9.794   9.150
 4199POPC   GL114473  41.562   9.712   8.850
 4199POPC   GL214474  41.568   9.595   8.850
 4199POPC   C1A14475  41.554   9.747   8.550
 4199POPC   D2A14476  41.591   9.712   8.250
 4199POPC   C3A14477  41.581   9.721   7.950
 4199POPC   C4A14478  41.569   9.765   7.650
 4199POPC   C1B14479  41.704   9.575   8.550
 4199POPC   C2B14480  41.656   9.543   8.250
 4199POPC   C3B14481  41.628   9.532   7.950
 4199POPC   C4B14482  41.626   9.555   7.650
 4200POPC   NC314483   2.784   5.861   9.450
 4200POPC   PO414484   2.767   5.869   9.150
 4200POPC   GL114485   2.727   5.910   8.850
 4200POPC   GL214486   2.696   5.714   8.850
 4200POPC   C1A14487   2.722   5.911   8.550
 4200POPC   D2A14488   2.733   5.840   8.250
 4200POPC   C3A14489   2.718   5.907   7.950
 4200POPC   C4A14490   2.780   5.856   7.650
 4200POPC   C1B14491   2.724   5.623   8.550
 4200POPC   C2B14492   2.743   5.602   8.250
 4200POPC   C3B14493   2.691   5.641   7.950
 4200POPC   C4B14494   2.682   5.670   7.650
 4201POPC   NC314495  14.448  30.679   9.450
 4201POPC   PO414496  14.388  30.715   9.150
 4201POPC   GL114497  14.412  30.686   8.850
 4201POPC   GL214498  14.550  30.702   8.850
 4201POPC   C1A14499  14.409  30.721   8.550
 4201POPC   D2A14500  14.357  30.673   8.250
 4201POPC   C3A14501  14.424  30.660   7.950
 4201POPC   C4A14502  14.386  30.721   7.650
 4201POPC   C1B14503  14.630  30.692   8.550
 4201POPC   C2B14504  14.674  30.707   8.250
 4201POPC   C3B14505  14.663  30.612   7.950
 4201POPC   C4B14506  14.684  30.659   7.650
 4202POPC   NC314507  42.347  28.337   9.450
 4202POPC   PO414508  42.335  28.388   9.150
 4202POPC   GL114509  42.369  28.390   8.850
 4202POPC   GL214510  42.255  28.248   8.850
 4202POPC   C1A14511  42.296  28.339   8.550
 4202POPC   D2A14512  42.297  28.363   8.250
 4202POPC   C3A14513  42.372  28.322   7.950
 4202POPC   C4A14514  42.293  28.332   7.650
 4202POPC   C1B14515  42.111  28.205   8.550
 4202POPC   C2B14516  42.109  28.221   8.250
 4202POPC   C3B14517  42.123  28.210   7.950
 4202POPC   C4B14518  42.098  28.259   7.650
 4203POPC   NC314519  31.486  34.610   9.450
 4203POPC   PO414520  31.477  34.544   9.150
 4203POPC   GL114521  31.431  34.546   8.850
 4203POPC   GL214522  31.565  34.629   8.850
 4203POPC   C1A14523  31.478  34.575   8.550
 4203POPC   D2A14524  31.479  34.534   8.250
 4203POPC   C3A14525  31.521  34.594   7.950
 4203POPC   C4A14526  31.485  34.541   7.650
 4203POPC   C1B14527  31.728  34.581   8.550
 4203POPC   C2B14528  31.678  34.591   8.250
 4203POPC   C3B14529  31.701  34.662   7.950
 4203POPC   C4B14530  31.710  34.595   7.650
 4204POPC   NC314531  44.705   9.706   9.450
 4204POPC   PO414532  44.623   9.740   9.150
 4204POPC   GL114533  44.688   9.761   8.850
 4204POPC   GL214534  44.759   9.824   8.850
 4204POPC   C1A14535  44.677   9.727   8.550
 4204POPC   D2A14536  44.627   9.761   8.250
 4204POPC   C3A14537  44.667   9.699   7.950
 4204POPC   C4A14538  44.688   9.771   7.650
 4204POPC   C1B14539  44.848   9.891   8.550
 4204POPC   C2B14540  44.838   9.839   8.250
 4204POPC   C3B14541  44.835   9.847   7.950
 4204POPC   C4B14542  44.886   9.891   7.650
 4205POPC   NC314543   8.963  44.614   9.450
 4205POPC   PO414544   8.977  44.651   9.150
 4205POPC   GL114545   8.930  44.710   8.850
 4205POPC   GL214546   9.004  44.752   8.850
 4205POPC   C1A14547   8.927  44.632   8.550
 4205POPC   D2A14548   8.939  44.617   8.250
 4205POPC   C3A14549   9.013  44.660   7.950
 4205POPC   C4A14550   8.950  44.710   7.650
 4205POPC   C1B14551   8.998  44.955   8.550
 4205POPC   C2B14552   8.960  44.863   8.250
 4205POPC   C3B14553   9.000  44.935   7.950
 4205POPC   C4B14554   8.982  44.923   7.650
 4206POPC   NC314555  40.742  22.916   9.450
 4206POPC   PO414556  40.802  22.986   9.150
 4206POPC   GL114557  40.767  22.922   8.850
 4206POPC   GL214558  40.640  23.022   8.850
 4206POPC   C1A14559  40.744  22.901   8.550
 4206POPC   D2A14560  40.770  22.971   8.250
 4206POPC   C3A14561  40.814  22.889   7.950
 4206POPC   C4A14562  40.776  22.916   7.650
 4206POPC   C1B14563  40.610  23.036   8.550
 4206POPC   C2B14564  40.594  23.126   8.250
 4206POPC   C3B14565  40.541  23.063   7.950
 4206POPC   C4B14566  40.593  23.074   7.650
 4207POPC   NC314567  39.996  17.483   9.450
 4207POPC   PO414568  40.013  17.468   9.150
 4207POPC   GL114569  40.031  17.490   8.850
 4207POPC   GL214570  39.854  17.489   8.850
 4207POPC   C1A14571  40.004  17.521   8.550
 4207POPC   D2A14572  40.016  17.486   8.250
 4207POPC   C3A14573  40.035  17.495   7.950
 4207POPC   C4A14574  40.052  17.464   7.650
 4207POPC   C1B14575  39.794  17.417   8.550
 4207POPC   C2B14576  39.730  17.427   8.250
 4207POPC   C3B14577  39.797  17.428   7.950
 4207POPC   C4B14578  39.783  17.439   7.650
 4208POPC   NC314579  11.297  29.191   9.450
 4208POPC   PO414580  11.304  29.192   9.150
 4208POPC   GL114581  11.332  29.190   8.850
 4208POPC   GL214582  11.194  29.134   8.850
 4208POPC   C1A14583  11.331  29.121   8.550
 4208POPC   D2A14584  11.288  29.112   8.250
 4208POPC   C3A14585  11.299  29.167   7.950
 4208POPC   C4A14586  11.279  29.175   7.650
 4208POPC   C1B14587  11.089  29.217   8.550
 4208POPC   C2B14588  11.094  29.229   8.250
 4208POPC   C3B14589  11.097  29.237   7.950
 4208POPC   C4B14590  11.033  29.190   7.650
 4209POPC   NC314591  19.047  19.068   9.450
 4209POPC   PO414592  19.056  19.016   9.150
 4209POPC   GL114593  19.075  19.087   8.850
 4209POPC   GL214594  19.180  19.081   8.850
 4209POPC   C1A14595  19.022  19.080   8.550
 4209POPC   D2A14596  19.024  19.077   8.250
 4209POPC   C3A14597  19.084  19.058   7.950
 4209POPC   C4A14598  19.094  19.056   7.650
 4209POPC   C1B14599  19.294  19.057   8.550
 4209POPC   C2B14600  19.302  19.078   8.250
 4209POPC   C3B14601  19.264  18.988   7.950
 4209POPC   C4B14602  19.304  18.999   7.650
 4210POPC   NC314603  26.013  26.056   9.450
 4210POPC   PO414604  26.031  26.057   9.150
 4210POPC   GL114605  26.074  26.024   8.850
 4210POPC   GL214606  25.996  25.874   8.850
 4210POPC   C1A14607  26.074  26.023   8.550
 4210POPC   D2A14608  26.029  26.010   8.250
 4210POPC   C3A14609  26.033  26.028   7.950
 4210POPC   C4A14610  26.007  26.027   7.650
 4210POPC   C1B14611  26.017  25.824   8.550
 4210POPC   C2B14612  26.054  25.826   8.250
 4210POPC   C3B14613  25.961  25.786   7.950
 4210POPC   C4B14614  25.998  25.781   7.650
 4211POPC   NC314615   6.650  31.495   9.450
 4211POPC   PO414616   6.626  31.438   9.150
 4211POPC   GL114617   6.602  31.451   8.850
 4211POPC   GL214618   6.774  31.434   8.850
 4211POPC   C1A14619   6.639  31.463   8.550
 4211POPC   D2A14620   6.691  31.441   8.250
 4211POPC   C3A14621   6.640  31.457   7.950
 4211POPC   C4A14622   6.609  31.495   7.650
 4211POPC   C1B14623   6.906  31.378   8.550
 4211POPC   C2B14624   6.858  31.404   8.250
 4211POPC   C3B14625   6.852  31.325   7.950
 4211POPC   C4B14626   6.871  31.343   7.650
 4212POPC   NC314627  24.469  22.171   9.450
 4212POPC   PO414628  24.448  22.170   9.150
 4212POPC   GL114629  24.464  22.156   8.850
 4212POPC   GL214630  24.409  22.221   8.850
 4212POPC   C1A14631  24.538  22.212   8.550
 4212POPC   D2A14632  24.527  22.142   8.250
 4212POPC   C3A14633  24.526  22.192   7.950
 4212POPC   C4A14634  24.487  22.174   7.650
 4212POPC   C1B14635  24.230  22.308   8.550
 4212POPC   C2B14636  24.266  22.271   8.250
 4212POPC   C3B14637  24.248  22.313   7.950
 4212POPC   C4B14638  24.314  22.304   7.650
 4213POPC   NC314639  21.428   8.179   9.450
 4213POPC   PO414640  21.399   8.157   9.150
 4213POPC   GL114641  21.358   8.218   8.850
 4213POPC   GL214642  21.318   8.289   8.850
 4213POPC   C1A14643  21.337   8.165   8.550
 4213POPC   D2A14644  21.352   8.156   8.250
 4213POPC   C3A14645  21.352   8.182   7.950
 4213POPC   C4A14646  21.369   8.151   7.650
 4213POPC   C1B14647  21.316   8.392   8.550
 4213POPC   C2B14648  21.301   8.423   8.250
 4213POPC   C3B14649  21.340   8.478   7.950
 4213POPC   C4B14650  21.310   8.411   7.650
 4214POPC   NC314651  27.546   5.099   9.450
 4214POPC   PO414652  27.564   5.135   9.150
 4214POPC   GL114653  27.619   5.119   8.850
 4214POPC   GL214654  27.445   5.045   8.850
 4214POPC   C1A14655  27.639   5.062   8.550
 4214POPC   D2A14656  27.628   5.068   8.250
 4214POPC   C3A14657  27.643   5.127   7.950
 4214POPC   C4A14658  27.621   5.139   7.650
 4214POPC   C1B14659  27.374   5.082   8.550
 4214POPC   C2B14660  27.355   5.124   8.250
 4214POPC   C3B14661  27.308   5.065   7.950
 4214POPC   C4B14662  27.368   5.058   7.650
 4215POPC   NC314663   4.338  33.845   9.450
 4215POPC   PO414664   4.334  33.801   9.150
 4215POPC   GL114665   4.286  33.785   8.850
 4215POPC   GL214666   4.412  33.895   8.850
 4215POPC   C1A14667   4.269  33.840   8.550
 4215POPC   D2A14668   4.330  33.754   8.250
 4215POPC   C3A14669   4.268  33.774   7.950
 4215POPC   C4A14670   4.361  33.834   7.650
 4215POPC   C1B14671   4.508  33.957   8.550
 4215POPC   C2B14672   4.560  33.872   8.250
 4215POPC   C3B14673   4.582  33.963   7.950
 4215POPC   C4B14674   4.570  33.944   7.650
 4216POPC   NC314675   3.506  41.564   9.450
 4216POPC   PO414676   3.551  41.520   9.150
 4216POPC   GL114677   3.547  41.542   8.850
 4216POPC   GL214678   3.470  41.468   8.850
 4216POPC   C1A14679   3.565  41.581   8.550
 4216POPC   D2A14680   3.502  41.572   8.250
 4216POPC   C3A14681   3.520  41.538   7.950
 4216POPC   C4A14682   3.560  41.590   7.650
 4216POPC   C1B14683   3.350  41.374   8.550
 4216POPC   C2B14684   3.302  41.466   8.250
 4216POPC   C3B14685   3.327  41.422   7.950
 4216POPC   C4B14686   3.357  41.386   7.650
 4217POPC   NC314687  33.010  12.102   9.450
 4217POPC   PO414688  33.050  12.051   9.150
 4217POPC   GL114689  32.982  12.081   8.850
 4217POPC   GL214690  32.974  11.915   8.850
 4217POPC   C1A14691  33.010  12.056   8.550
 4217POPC   D2A14692  32.976  12.037   8.250
 4217POPC   C3A14693  33.052  12.048   7.950
 4217POPC   C4A14694  32.992  12.034   7.650
 4217POPC   C1B14695  32.902  11.863   8.550
 4217POPC   C2B14696  32.943  11.815   8.250
 4217POPC   C3B14697  32.923  11.860   7.950
 4217POPC   C4B14698  32.874  11.829   7.650
 4218POPC   NC314699   1.979  35.354   9.450
 4218POPC   PO414700   2.029  35.333   9.150
 4218POPC   GL114701   2.005  35.362   8.850
 4218POPC   GL214702   1.850  35.461   8.850
 4218POPC   C1A14703   1.982  35.336   8.550
 4218POPC   D2A14704   2.004  35.384   8.250
 4218POPC   C3A14705   1.996  35.306   7.950
 4218POPC   C4A14706   1.960  35.320   7.650
 4218POPC   C1B14707   1.763  35.446   8.550
 4218POPC   C2B14708   1.793  35.518   8.250
 4218POPC   C3B14709   1.725  35.523   7.950
 4218POPC   C4B14710   1.808  35.462   7.650
 4219POPC   NC314711  23.759  35.393   9.450
 4219POPC   PO414712  23.739  35.320   9.150
 4219POPC   GL114713  23.721  35.311   8.850
 4219POPC   GL214714  23.681  35.217   8.850
 4219POPC   C1A14715  23.687  35.347   8.550
 4219POPC   D2A14716  23.667  35.354   8.250
 4219POPC   C3A14717  23.664  35.327   7.950
 4219POPC   C4A14718  23.704  35.336   7.650
 4219POPC   C1B14719  23.602  35.172   8.550
 4219POPC   C2B14720  23.537  35.130   8.250
 4219POPC   C3B14721  23.584  35.178   7.950
 4219POPC   C4B14722  23.581  35.157   7.650
 4220POPC   NC314723  35.340  24.520   9.450
 4220POPC   PO414724  35.380  24.500   9.150
 4220POPC   GL114725  35.319  24.534   8.850
 4220POPC   GL214726  35.288  24.393   8.850
 4220POPC   C1A14727  35.334  24.471   8.550
 4220POPC   D2A14728  35.360  24.479   8.250
 4220POPC   C3A14729  35.339  24.490   7.950
 4220POPC   C4A14730  35.370  24.478   7.650
 4220POPC   C1B14731  35.318  24.266   8.550
 4220POPC   C2B14732  35.297  24.297   8.250
 4220POPC   C3B14733  35.246  24.222   7.950
 4220POPC   C4B14734  35.297  24.203   7.650
 4221POPC   NC314735  10.564  39.254   9.450
 4221POPC   PO414736  10.482  39.213   9.150
 4221POPC   GL114737  10.514  39.203   8.850
 4221POPC   GL214738  10.493  39.128   8.850
 4221POPC   C1A14739  10.483  39.186   8.550
 4221POPC   D2A14740  10.496  39.210   8.250
 4221POPC   C3A14741  10.556  39.236   7.950
 4221POPC   C4A14742  10.524  39.257   7.650
 4221POPC   C1B14743  10.353  39.007   8.550
 4221POPC   C2B14744  10.402  39.050   8.250
 4221POPC   C3B14745  10.397  39.000   7.950
 4221POPC   C4B14746  10.370  39.054   7.650
 4222POPC   NC314747  44.684  15.987   9.450
 4222POPC   PO414748  44.632  15.935   9.150
 4222POPC   GL114749  44.666  15.977   8.850
 4222POPC   GL214750  44.755  15.797   8.850
 4222POPC   C1A14751  44.639  15.945   8.550
 4222POPC   D2A14752  44.681  15.934   8.250
 4222POPC   C3A14753  44.702  15.922   7.950
 4222POPC   C4A14754  44.697  15.991   7.650
 4222POPC   C1B14755  44.715  15.772   8.550
 4222POPC   C2B14756  44.748  15.742   8.250
 4222POPC   C3B14757  44.808  15.700   7.950
 4222POPC   C4B14758  44.776  15.718   7.650
 4223POPC   NC314759  28.404  33.837   9.450
 4223POPC   PO414760  28.386  33.759   9.150
 4223POPC   GL114761  28.384  33.824   8.850
 4223POPC   GL214762  28.541  33.811   8.850
 4223POPC   C1A14763  28.398  33.781   8.550
 4223POPC   D2A14764  28.322  33.828   8.250
 4223POPC   C3A14765  28.378  33.802   7.950
 4223POPC   C4A14766  28.388  33.761   7.650
 4223POPC   C1B14767  28.572  33.770   8.550
 4223POPC   C2B14768  28.646  33.775   8.250
 4223POPC   C3B14769  28.633  33.757   7.950
 4223POPC   C4B14770  28.653  33.824   7.650
 4224POPC   NC314771  16.740   8.221   9.450
 4224POPC   PO414772  16.711   8.246   9.150
 4224POPC   GL114773  16.713   8.183   8.850
 4224POPC   GL214774  16.817   8.301   8.850
 4224POPC   C1A14775  16.754   8.150   8.550
 4224POPC   D2A14776  16.763   8.182   8.250
 4224POPC   C3A14777  16.720   8.185   7.950
 4224POPC   C4A14778  16.716   8.168   7.650
 4224POPC   C1B14779  16.919   8.282   8.550
 4224POPC   C2B14780  16.948   8.304   8.250
 4224POPC   C3B14781  16.986   8.316   7.950
 4224POPC   C4B14782  16.929   8.292   7.650
 4225POPC   NC314783  35.336  35.346   9.450
 4225POPC   PO414784  35.389  35.307   9.150
 4225POPC   GL114785  35.363  35.397   8.850
 4225POPC   GL214786  35.261  35.369   8.850
 4225POPC   C1A14787  35.370  35.359   8.550
 4225POPC   D2A14788  35.343  35.392   8.250
 4225POPC   C3A14789  35.349  35.400   7.950
 4225POPC   C4A14790  35.364  35.311   7.650
 4225POPC   C1B14791  35.116  35.377   8.550
 4225POPC   C2B14792  35.133  35.315   8.250
 4225POPC   C3B14793  35.052  35.360   7.950
 4225POPC   C4B14794  35.085  35.319   7.650
 4226POPC   NC314795  29.903   3.495   9.450
 4226POPC   PO414796  29.889   3.575   9.150
 4226POPC   GL114797  29.920   3.517   8.850
 4226POPC   GL214798  29.954   3.642   8.850
 4226POPC   C1A14799  29.961   3.517   8.550
 4226POPC   D2A14800  29.905   3.503   8.250
 4226POPC   C3A14801  29.952   3.573   7.950
 4226POPC   C4A14802  29.970   3.591   7.650
 4226POPC   C1B14803  30.020   3.813   8.550
 4226POPC   C2B14804  30.010   3.731   8.250
 4226POPC   C3B14805  30.028   3.818   7.950
 4226POPC   C4B14806  29.965   3.814   7.650
 4227POPC   NC314807  36.136  37.671   9.450
 4227POPC   PO414808  36.082  37.677   9.150
 4227POPC   GL114809  36.172  37.653   8.850
 4227POPC   GL214810  36.183  37.790   8.850
 4227POPC   C1A14811  36.169  37.629   8.550
 4227POPC   D2A14812  36.144  37.661   8.250
 4227POPC   C3A14813  36.164  37.645   7.950
 4227POPC   C4A14814  36.114  37.681   7.650
 4227POPC   C1B14815  36.235  37.904   8.550
 4227POPC   C2B14816  36.231  37.932   8.250
 4227POPC   C3B14817  36.204  37.919   7.950
 4227POPC   C4B14818  36.290  37.904   7.650
 4228POPC   NC314819  36.859  15.962   9.450
 4228POPC   PO414820  36.862  15.927   9.150
 4228POPC   GL114821  36.912  15.997   8.850
 4228POPC   GL214822  36.747  15.908   8.850
 4228POPC   C1A14823  36.869  15.970   8.550
 4228POPC   D2A14824  36.906  15.920   8.250
 4228POPC   C3A14825  36.899  15.969   7.950
 4228POPC   C4A14826  36.945  15.951   7.650
 4228POPC   C1B14827  36.699  15.953   8.550
 4228POPC   C2B14828  36.649  15.970   8.250
 4228POPC   C3B14829  36.635  15.944   7.950
 4228POPC   C4B14830  36.644  15.902   7.650
 4229POPC   NC314831   4.309  39.271   9.450
 4229POPC   PO414832   4.274  39.268   9.150
 4229POPC   GL114833   4.308  39.205   8.850
 4229POPC   GL214834   4.188  39.239   8.850
 4229POPC   C1A14835   4.322  39.212   8.550
 4229POPC   D2A14836   4.313  39.266   8.250
 4229POPC   C3A14837   4.361  39.264   7.950
 4229POPC   C4A14838   4.339  39.248   7.650
 4229POPC   C1B14839   4.040  39.237   8.550
 4229POPC   C2B14840   4.098  39.224   8.250
 4229POPC   C3B14841   4.031  39.233   7.950
 4229POPC   C4B14842   4.054  39.228   7.650
 4230POPC   NC314843  30.679  16.731   9.450
 4230POPC   PO414844  30.687  16.775   9.150
 4230POPC   GL114845  30.692  16.724   8.850
 4230POPC   GL214846  30.563  16.783   8.850
 4230POPC   C1A14847  30.658  16.728   8.550
 4230POPC   D2A14848  30.650  16.692   8.250
 4230POPC   C3A14849  30.699  16.704   7.950
 4230POPC   C4A14850  30.720  16.739   7.650
 4230POPC   C1B14851  30.495  16.806   8.550
 4230POPC   C2B14852  30.502  16.843   8.250
 4230POPC   C3B14853  30.422  16.840   7.950
 4230POPC   C4B14854  30.442  16.782   7.650
 4231POPC   NC314855  15.151  25.310   9.450
 4231POPC   PO414856  15.175  25.245   9.150
 4231POPC   GL114857  15.170  25.290   8.850
 4231POPC   GL214858  15.058  25.168   8.850
 4231POPC   C1A14859  15.129  25.225   8.550
 4231POPC   D2A14860  15.161  25.274   8.250
 4231POPC   C3A14861  15.182  25.301   7.950
 4231POPC   C4A14862  15.191  25.232   7.650
 4231POPC   C1B14863  14.976  25.178   8.550
 4231POPC   C2B14864  14.912  25.195   8.250
 4231POPC   C3B14865  14.984  25.129   7.950
 4231POPC   C4B14866  14.930  25.115   7.650
 4232POPC   NC314867  35.366   1.952   9.450
 4232POPC   PO414868  35.391   1.970   9.150
 4232POPC   GL114869  35.380   2.012   8.850
 4232POPC   GL214870  35.204   1.884   8.850
 4232POPC   C1A14871  35.321   2.007   8.550
 4232POPC   D2A14872  35.339   1.976   8.250
 4232POPC   C3A14873  35.386   1.975   7.950
 4232POPC   C4A14874  35.374   1.988   7.650
 4232POPC   C1B14875  35.145   1.806   8.550
 4232POPC   C2B14876  35.106   1.867   8.250
 4232POPC   C3B14877  35.162   1.796   7.950
 4232POPC   C4B14878  35.168   1.809   7.650
 4233POPC   NC314879  18.238  14.411   9.450
 4233POPC   PO414880  18.251  14.386   9.150
 4233POPC   GL114881  18.293  14.377   8.850
 4233POPC   GL214882  18.124  14.332   8.850
 4233POPC   C1A14883  18.284  14.438   8.550
 4233POPC   D2A14884  18.296  14.443   8.250
 4233POPC   C3A14885  18.233  14.425   7.950
 4233POPC   C4A14886  18.307  14.396   7.650
 4233POPC   C1B14887  18.005  14.314   8.550
 4233POPC   C2B14888  18.017  14.307   8.250
 4233POPC   C3B14889  18.065  14.370   7.950
 4233POPC   C4B14890  17.992  14.386   7.650
 4234POPC   NC314891  40.763  26.844   9.450
 4234POPC   PO414892  40.817  26.783   9.150
 4234POPC   GL114893  40.769  26.826   8.850
 4234POPC   GL214894  40.832  26.691   8.850
 4234POPC   C1A14895  40.782  26.865   8.550
 4234POPC   D2A14896  40.797  26.774   8.250
 4234POPC   C3A14897  40.811  26.849   7.950
 4234POPC   C4A14898  40.749  26.861   7.650
 4234POPC   C1B14899  40.760  26.535   8.550
 4234POPC   C2B14900  40.764  26.580   8.250
 4234POPC   C3B14901  40.816  26.575   7.950
 4234POPC   C4B14902  40.829  26.518   7.650
 4235POPC   NC314903  19.820   1.943   9.450
 4235POPC   PO414904  19.808   2.012   9.150
 4235POPC   GL114905  19.830   2.000   8.850
 4235POPC   GL214906  19.909   1.998   8.850
 4235POPC   C1A14907  19.872   2.020   8.550
 4235POPC   D2A14908  19.844   2.003   8.250
 4235POPC   C3A14909  19.813   2.034   7.950
 4235POPC   C4A14910  19.853   2.016   7.650
 4235POPC   C1B14911  20.099   1.984   8.550
 4235POPC   C2B14912  20.097   1.954   8.250
 4235POPC   C3B14913  20.091   1.945   7.950
 4235POPC   C4B14914  20.048   1.959   7.650
 4236POPC   NC314915  26.072   4.322   9.450
 4236POPC   PO414916  26.028   4.300   9.150
 4236POPC   GL114917  26.051   4.358   8.850
 4236POPC   GL214918  26.145   4.421   8.850
 4236POPC   C1A14919  26.031   4.364   8.550
 4236POPC   D2A14920  26.036   4.300   8.250
 4236POPC   C3A14921  26.016   4.342   7.950
 4236POPC   C4A14922  26.023   4.285   7.650
 4236POPC   C1B14923  26.229   4.467   8.550
 4236POPC   C2B14924  26.280   4.405   8.250
 4236POPC   C3B14925  26.223   4.445   7.950
 4236POPC   C4B14926  26.264   4.481   7.650
 4237POPC   NC314927  13.602   8.924   9.450
 4237POPC   PO414928  13.667   8.999   9.150
 4237POPC   GL114929  13.664   9.010   8.850
 4237POPC   GL214930  13.565   8.857   8.850
 4237POPC   C1A14931  13.616   8.952   8.550
 4237POPC   D2A14932  13.582   8.949   8.250
 4237POPC   C3A14933  13.592   8.932   7.950
 4237POPC   C4A14934  13.633   8.953   7.650
 4237POPC   C1B14935  13.612   8.715   8.550
 4237POPC   C2B14936  13.603   8.687   8.250
 4237POPC   C3B14937  13.577   8.756   7.950
 4237POPC   C4B14938  13.582   8.716   7.650
 4238POPC   NC314939   4.286  37.695   9.450
 4238POPC   PO414940   4.325  37.666   9.150
 4238POPC   GL114941   4.302  37.630   8.850
 4238POPC   GL214942   4.293  37.803   8.850
 4238POPC   C1A14943   4.349  37.697   8.550
 4238POPC   D2A14944   4.319  37.687   8.250
 4238POPC   C3A14945   4.286  37.678   7.950
 4238POPC   C4A14946   4.329  37.715   7.650
 4238POPC   C1B14947   4.341  37.935   8.550
 4238POPC   C2B14948   4.404  37.913   8.250
 4238POPC   C3B14949   4.412  37.973   7.950
 4238POPC   C4B14950   4.329  37.898   7.650
 4239POPC   NC314951  32.267  17.484   9.450
 4239POPC   PO414952  32.295  17.484   9.150
 4239POPC   GL114953  32.281  17.480   8.850
 4239POPC   GL214954  32.217  17.663   8.850
 4239POPC   C1A14955  32.283  17.538   8.550
 4239POPC   D2A14956  32.283  17.526   8.250
 4239POPC   C3A14957  32.254  17.526   7.950
 4239POPC   C4A14958  32.235  17.513   7.650
 4239POPC   C1B14959  32.181  17.748   8.550
 4239POPC   C2B14960  32.245  17.776   8.250
 4239POPC   C3B14961  32.267  17.749   7.950
 4239POPC   C4B14962  32.228  17.770   7.650
 4240POPC   NC314963  30.682  15.175   9.450
 4240POPC   PO414964  30.656  15.139   9.150
 4240POPC   GL114965  30.664  15.166   8.850
 4240POPC   GL214966  30.755  15.074   8.850
 4240POPC   C1A14967  30.732  15.144   8.550
 4240POPC   D2A14968  30.680  15.208   8.250
 4240POPC   C3A14969  30.733  15.202   7.950
 4240POPC   C4A14970  30.663  15.202   7.650
 4240POPC   C1B14971  30.918  14.978   8.550
 4240POPC   C2B14972  30.889  15.036   8.250
 4240POPC   C3B14973  30.900  15.024   7.950
 4240POPC   C4B14974  30.859  15.037   7.650
 4241POPC   NC314975  42.318  29.175   9.450
 4241POPC   PO414976  42.381  29.168   9.150
 4241POPC   GL114977  42.292  29.122   8.850
 4241POPC   GL214978  42.245  29.019   8.850
 4241POPC   C1A14979  42.302  29.098   8.550
 4241POPC   D2A14980  42.312  29.176   8.250
 4241POPC   C3A14981  42.376  29.189   7.950
 4241POPC   C4A14982  42.300  29.121   7.650
 4241POPC   C1B14983  42.223  28.897   8.550
 4241POPC   C2B14984  42.199  28.984   8.250
 4241POPC   C3B14985  42.207  28.923   7.950
 4241POPC   C4B14986  42.225  28.948   7.650
 4242POPC   NC314987  11.288   2.793   9.450
 4242POPC   PO414988  11.259   2.767   9.150
 4242POPC   GL114989  11.320   2.798   8.850
 4242POPC   GL214990  11.287   2.649   8.850
 4242POPC   C1A14991  11.332   2.786   8.550
 4242POPC   D2A14992  11.272   2.727   8.250
 4242POPC   C3A14993  11.279   2.788   7.950
 4242POPC   C4A14994  11.337   2.748   7.650
 4242POPC   C1B14995  11.269   2.480   8.550
 4242POPC   C2B14996  11.276   2.523   8.250
 4242POPC   C3B14997  11.356   2.551   7.950
 4242POPC   C4B14998  11.354   2.504   7.650
 4243POPC   NC314999  26.020  41.567   9.450
 4243POPC   PO415000  25.996  41.528   9.150
 4243POPC   GL115001  26.021  41.593   8.850
 4243POPC   GL215002  26.163  41.596   8.850
 4243POPC   C1A15003  25.995  41.543   8.550
 4243POPC   D2A15004  26.063  41.541   8.250
 4243POPC   C3A15005  26.041  41.545   7.950
 4243POPC   C4A15006  26.091  41.536   7.650
 4243POPC   C1B15007  26.195  41.690   8.550
 4243POPC   C2B15008  26.219  41.734   8.250
 4243POPC   C3B15009  26.258  41.727   7.950
 4243POPC   C4B15010  26.267  41.720   7.650
 4244POPC   NC315011   4.335  26.778   9.450
 4244POPC   PO415012   4.273  26.851   9.150
 4244POPC   GL115013   4.306  26.841   8.850
 4244POPC   GL215014   4.218  26.774   8.850
 4244POPC   C1A15015   4.330  26.789   8.550
 4244POPC   D2A15016   4.341  26.771   8.250
 4244POPC   C3A15017   4.332  26.796   7.950
 4244POPC   C4A15018   4.316  26.866   7.650
 4244POPC   C1B15019   4.127  26.604   8.550
 4244POPC   C2B15020   4.175  26.669   8.250
 4244POPC   C3B15021   4.099  26.693   7.950
 4244POPC   C4B15022   4.173  26.693   7.650
 4245POPC   NC315023  27.556  42.290   9.450
 4245POPC   PO415024  27.596  42.365   9.150
 4245POPC   GL115025  27.628  42.377   8.850
 4245POPC   GL215026  27.525  42.419   8.850
 4245POPC   C1A15027  27.605  42.314   8.550
 4245POPC   D2A15028  27.563  42.286   8.250
 4245POPC   C3A15029  27.608  42.326   7.950
 4245POPC   C4A15030  27.580  42.329   7.650
 4245POPC   C1B15031  27.390  42.560   8.550
 4245POPC   C2B15032  27.467  42.540   8.250
 4245POPC   C3B15033  27.418  42.556   7.950
 4245POPC   C4B15034  27.459  42.509   7.650
 4246POPC   NC315035  12.062  18.242   9.450
 4246POPC   PO415036  12.047  18.323   9.150
 4246POPC   GL115037  12.110  18.237   8.850
 4246POPC   GL215038  12.168  18.244   8.850
 4246POPC   C1A15039  12.060  18.262   8.550
 4246POPC   D2A15040  12.112  18.265   8.250
 4246POPC   C3A15041  12.050  18.314   7.950
 4246POPC   C4A15042  12.052  18.302   7.650
 4246POPC   C1B15043  12.266  18.181   8.550
 4246POPC   C2B15044  12.273  18.165   8.250
 4246POPC   C3B15045  12.280  18.162   7.950
 4246POPC   C4B15046  12.314  18.172   7.650
 4247POPC   NC315047   2.744  20.578   9.450
 4247POPC   PO415048   2.740  20.630   9.150
 4247POPC   GL115049   2.781  20.584   8.850
 4247POPC   GL215050   2.692  20.610   8.850
 4247POPC   C1A15051   2.758  20.597   8.550
 4247POPC   D2A15052   2.748  20.577   8.250
 4247POPC   C3A15053   2.808  20.567   7.950
 4247POPC   C4A15054   2.741  20.605   7.650
 4247POPC   C1B15055   2.488  20.649   8.550
 4247POPC   C2B15056   2.494  20.712   8.250
 4247POPC   C3B15057   2.552  20.705   7.950
 4247POPC   C4B15058   2.530  20.732   7.650
 4248POPC   NC315059  29.158   9.016   9.450
 4248POPC   PO415060  29.162   9.008   9.150
 4248POPC   GL115061  29.175   8.951   8.850
 4248POPC   GL215062  29.189   8.882   8.850
 4248POPC   C1A15063  29.130   8.993   8.550
 4248POPC   D2A15064  29.165   9.008   8.250
 4248POPC   C3A15065  29.103   8.976   7.950
 4248POPC   C4A15066  29.161   8.939   7.650
 4248POPC   C1B15067  29.229   8.771   8.550
 4248POPC   C2B15068  29.166   8.766   8.250
 4248POPC   C3B15069  29.163   8.703   7.950
 4248POPC   C4B15070  29.182   8.715   7.650
 4249POPC   NC315071  21.436  12.043   9.450
 4249POPC   PO415072  21.345  12.073   9.150
 4249POPC   GL115073  21.360  12.103   8.850
 4249POPC   GL215074  21.384  12.231   8.850
 4249POPC   C1A15075  21.367  12.113   8.550
 4249POPC   D2A15076  21.381  12.089   8.250
 4249POPC   C3A15077  21.415  12.045   7.950
 4249POPC   C4A15078  21.381  12.095   7.650
 4249POPC   C1B15079  21.297  12.280   8.550
 4249POPC   C2B15080  21.365  12.355   8.250
 4249POPC   C3B15081  21.301  12.289   7.950
 4249POPC   C4B15082  21.360  12.366   7.650
 4250POPC   NC315083  22.960  43.917   9.450
 4250POPC   PO415084  22.970  43.855   9.150
 4250POPC   GL115085  22.913  43.907   8.850
 4250POPC   GL215086  22.804  43.909   8.850
 4250POPC   C1A15087  22.940  43.883   8.550
 4250POPC   D2A15088  22.925  43.894   8.250
 4250POPC   C3A15089  22.912  43.900   7.950
 4250POPC   C4A15090  22.929  43.850   7.650
 4250POPC   C1B15091  22.700  43.874   8.550
 4250POPC   C2B15092  22.669  43.854   8.250
 4250POPC   C3B15093  22.656  43.838   7.950
 4250POPC   C4B15094  22.680  43.854   7.650
 4251POPC   NC315095  31.470  25.287   9.450
 4251POPC   PO415096  31.487  25.286   9.150
 4251POPC   GL115097  31.427  25.225   8.850
 4251POPC   GL215098  31.550  25.341   8.850
 4251POPC   C1A15099  31.514  25.283   8.550
 4251POPC   D2A15100  31.433  25.264   8.250
 4251POPC   C3A15101  31.518  25.301   7.950
 4251POPC   C4A15102  31.509  25.224   7.650
 4251POPC   C1B15103  31.641  25.432   8.550
 4251POPC   C2B15104  31.630  25.473   8.250
 4251POPC   C3B15105  31.648  25.455   7.950
 4251POPC   C4B15106  31.687  25.463   7.650
 4252POPC   NC315107  40.787  39.216   9.450
 4252POPC   PO415108  40.816  39.186   9.150
 4252POPC   GL115109  40.765  39.259   8.850
 4252POPC   GL215110  40.872  39.148   8.850
 4252POPC   C1A15111  40.764  39.248   8.550
 4252POPC   D2A15112  40.791  39.234   8.250
 4252POPC   C3A15113  40.795  39.271   7.950
 4252POPC   C4A15114  40.759  39.259   7.650
 4252POPC   C1B15115  40.957  39.027   8.550
 4252POPC   C2B15116  40.899  38.979   8.250
 4252POPC   C3B15117  40.941  38.991   7.950
 4252POPC   C4B15118  40.958  39.051   7.650
 4253POPC   NC315119  10.551  16.724   9.450
 4253POPC   PO415120  10.573  16.691   9.150
 4253POPC   GL115121  10.511  16.761   8.850
 4253POPC   GL215122  10.615  16.583   8.850
 4253POPC   C1A15123  10.475  16.699   8.550
 4253POPC   D2A15124  10.475  16.728   8.250
 4253POPC   C3A15125  10.481  16.771   7.950
 4253POPC   C4A15126  10.551  16.747   7.650
 4253POPC   C1B15127  10.592  16.466   8.550
 4253POPC   C2B15128  10.680  16.500   8.250
 4253POPC   C3B15129  10.615  16.474   7.950
 4253POPC   C4B15130  10.665  16.555   7.650
 4254POPC   NC315131   2.003  12.843   9.450
 4254POPC   PO415132   2.025  12.899   9.150
 4254POPC   GL115133   1.970  12.819   8.850
 4254POPC   GL215134   1.867  12.859   8.850
 4254POPC   C1A15135   2.039  12.822   8.550
 4254POPC   D2A15136   1.972  12.878   8.250
 4254POPC   C3A15137   2.000  12.885   7.950
 4254POPC   C4A15138   1.978  12.851   7.650
 4254POPC   C1B15139   1.706  12.905   8.550
 4254POPC   C2B15140   1.695  12.909   8.250
 4254POPC   C3B15141   1.772  12.867   7.950
 4254POPC   C4B15142   1.730  12.878   7.650
 4255POPC   NC315143  36.114  33.779   9.450
 4255POPC   PO415144  36.080  33.777   9.150
 4255POPC   GL115145  36.170  33.817   8.850
 4255POPC   GL215146  36.236  33.763   8.850
 4255POPC   C1A15147  36.134  33.841   8.550
 4255POPC   D2A15148  36.175  33.826   8.250
 4255POPC   C3A15149  36.092  33.752   7.950
 4255POPC   C4A15150  36.145  33.810   7.650
 4255POPC   C1B15151  36.330  33.705   8.550
 4255POPC   C2B15152  36.374  33.652   8.250
 4255POPC   C3B15153  36.296  33.669   7.950
 4255POPC   C4B15154  36.336  33.662   7.650
 4256POPC   NC315155  40.739   0.442   9.450
 4256POPC   PO415156  40.742   0.414   9.150
 4256POPC   GL115157  40.778   0.459   8.850
 4256POPC   GL215158  40.783   0.347   8.850
 4256POPC   C1A15159  40.740   0.452   8.550
 4256POPC   D2A15160  40.756   0.397   8.250
 4256POPC   C3A15161  40.741   0.401   7.950
 4256POPC   C4A15162  40.773   0.438   7.650
 4256POPC   C1B15163  40.793   0.237   8.550
 4256POPC   C2B15164  40.778   0.182   8.250
 4256POPC   C3B15165  40.822   0.210   7.950
 4256POPC   C4B15166  40.862   0.206   7.650
 4257POPC   NC315167   0.461   0.414   9.450
 4257POPC   PO415168   0.411   0.435   9.150
 4257POPC   GL115169   0.468   0.445   8.850
 4257POPC   GL215170   0.419   0.331   8.850
 4257POPC   C1A15171   0.458   0.466   8.550
 4257POPC   D2A15172   0.442   0.426   8.250
 4257POPC   C3A15173   0.463   0.438   7.950
 4257POPC   C4A15174   0.470   0.433   7.650
 4257POPC   C1B15175   0.502   0.164   8.550
 4257POPC   C2B15176   0.505   0.179   8.250
 4257POPC   C3B15177   0.517   0.144   7.950
 4257POPC   C4B15178   0.490   0.207   7.650
 4258POPC   NC315179  23.736  18.328   9.450
 4258POPC   PO415180  23.712  18.292   9.150
 4258POPC   GL115181  23.738  18.326   8.850
 4258POPC   GL215182  23.665  18.385   8.850
 4258POPC   C1A15183  23.664  18.268   8.550
 4258POPC   D2A15184  23.683  18.262   8.250
 4258POPC   C3A15185  23.682  18.310   7.950
 4258POPC   C4A15186  23.703  18.318   7.650
 4258POPC   C1B15187  23.493  18.415   8.550
 4258POPC   C2B15188  23.523  18.443   8.250
 4258POPC   C3B15189  23.516  18.426   7.950
 4258POPC   C4B15190  23.539  18.411   7.650
 4259POPC   NC315191  12.050  33.798   9.450
 4259POPC   PO415192  12.028  33.770   9.150
 4259POPC   GL115193  12.048  33.768   8.850
 4259POPC   GL215194  12.220  33.822   8.850
 4259POPC   C1A15195  12.103  33.793   8.550
 4259POPC   D2A15196  12.062  33.751   8.250
 4259POPC   C3A15197  12.059  33.836   7.950
 4259POPC   C4A15198  12.066  33.770   7.650
 4259POPC   C1B15199  12.358  33.830   8.550
 4259POPC   C2B15200  12.320  33.791   8.250
 4259POPC   C3B15201  12.299  33.749   7.950
 4259POPC   C4B15202  12.360  33.817   7.650
 4260POPC   NC315203  40.782  41.519   9.450
 4260POPC   PO415204  40.815  41.518   9.150
 4260POPC   GL115205  40.757  41.544   8.850
 4260POPC   GL215206  40.862  41.661   8.850
 4260POPC   C1A15207  40.801  41.559   8.550
 4260POPC   D2A15208  40.745  41.549   8.250
 4260POPC   C3A15209  40.757  41.527   7.950
 4260POPC   C4A15210  40.784  41.533   7.650
 4260POPC   C1B15211  40.847  41.829   8.550
 4260POPC   C2B15212  40.866  41.782   8.250
 4260POPC   C3B15213  40.846  41.799   7.950
 4260POPC   C4B15214  40.827  41.835   7.650
 4261POPC   NC315215  13.592  36.871   9.450
 4261POPC   PO415216  13.655  36.886   9.150
 4261POPC   GL115217  13.614  36.912   8.850
 4261POPC   GL215218  13.467  36.894   8.850
 4261POPC   C1A15219  13.638  36.935   8.550
 4261POPC   D2A15220  13.670  36.894   8.250
 4261POPC   C3A15221  13.652  36.872   7.950
 4261POPC   C4A15222  13.608  36.921   7.650
 4261POPC   C1B15223  13.395  36.925   8.550
 4261POPC   C2B15224  13.385  36.914   8.250
 4261POPC   C3B15225  13.354  36.929   7.950
 4261POPC   C4B15226  13.405  36.963   7.650
 4262POPC   NC315227  13.648  19.070   9.450
 4262POPC   PO415228  13.635  19.098   9.150
 4262POPC   GL115229  13.615  19.052   8.850
 4262POPC   GL215230  13.493  19.031   8.850
 4262POPC   C1A15231  13.649  19.036   8.550
 4262POPC   D2A15232  13.672  19.090   8.250
 4262POPC   C3A15233  13.607  19.066   7.950
 4262POPC   C4A15234  13.617  19.096   7.650
 4262POPC   C1B15235  13.425  19.070   8.550
 4262POPC   C2B15236  13.376  19.064   8.250
 4262POPC   C3B15237  13.422  19.003   7.950
 4262POPC   C4B15238  13.337  19.003   7.650
 4263POPC   NC315239  16.755  24.465   9.450
 4263POPC   PO415240  16.775  24.531   9.150
 4263POPC   GL115241  16.758  24.443   8.850
 4263POPC   GL215242  16.742  24.404   8.850
 4263POPC   C1A15243  16.745  24.460   8.550
 4263POPC   D2A15244  16.720  24.481   8.250
 4263POPC   C3A15245  16.713  24.503   7.950
 4263POPC   C4A15246  16.694  24.477   7.650
 4263POPC   C1B15247  16.701  24.273   8.550
 4263POPC   C2B15248  16.743  24.234   8.250
 4263POPC   C3B15249  16.694  24.223   7.950
 4263POPC   C4B15250  16.737  24.253   7.650
 4264POPC   NC315251  20.611  22.199   9.450
 4264POPC   PO415252  20.624  22.143   9.150
 4264POPC   GL115253  20.601  22.156   8.850
 4264POPC   GL215254  20.723  22.114   8.850
 4264POPC   C1A15255  20.638  22.124   8.550
 4264POPC   D2A15256  20.562  22.187   8.250
 4264POPC   C3A15257  20.602  22.176   7.950
 4264POPC   C4A15258  20.643  22.189   7.650
 4264POPC   C1B15259  20.859  22.144   8.550
 4264POPC   C2B15260  20.883  22.187   8.250
 4264POPC   C3B15261  20.905  22.193   7.950
 4264POPC   C4B15262  20.869  22.149   7.650
 4265POPC   NC315263  35.317   2.734   9.450
 4265POPC   PO415264  35.330   2.749   9.150
 4265POPC   GL115265  35.333   2.741   8.850
 4265POPC   GL215266  35.425   2.718   8.850
 4265POPC   C1A15267  35.343   2.725   8.550
 4265POPC   D2A15268  35.357   2.796   8.250
 4265POPC   C3A15269  35.365   2.725   7.950
 4265POPC   C4A15270  35.401   2.718   7.650
 4265POPC   C1B15271  35.597   2.617   8.550
 4265POPC   C2B15272  35.606   2.666   8.250
 4265POPC   C3B15273  35.560   2.690   7.950
 4265POPC   C4B15274  35.539   2.664   7.650
 4266POPC   NC315275   5.869  23.665   9.450
 4266POPC   PO415276   5.901  23.681   9.150
 4266POPC   GL115277   5.889  23.734   8.850
 4266POPC   GL215278   5.813  23.592   8.850
 4266POPC   C1A15279   5.873  23.723   8.550
 4266POPC   D2A15280   5.824  23.682   8.250
 4266POPC   C3A15281   5.904  23.729   7.950
 4266POPC   C4A15282   5.915  23.692   7.650
 4266POPC   C1B15283   5.805  23.441   8.550
 4266POPC   C2B15284   5.790  23.515   8.250
 4266POPC   C3B15285   5.778  23.510   7.950
 4266POPC   C4B15286   5.815  23.474   7.650
 4267POPC   NC315287   1.262  39.235   9.450
 4267POPC   PO415288   1.206  39.197   9.150
 4267POPC   GL115289   1.182  39.233   8.850
 4267POPC   GL215290   1.350  39.260   8.850
 4267POPC   C1A15291   1.166  39.192   8.550
 4267POPC   D2A15292   1.181  39.256   8.250
 4267POPC   C3A15293   1.242  39.260   7.950
 4267POPC   C4A15294   1.251  39.226   7.650
 4267POPC   C1B15295   1.480  39.361   8.550
 4267POPC   C2B15296   1.490  39.336   8.250
 4267POPC   C3B15297   1.419  39.287   7.950
 4267POPC   C4B15298   1.433  39.343   7.650
 4268POPC   NC315299   8.942   7.451   9.450
 4268POPC   PO415300   8.966   7.389   9.150
 4268POPC   GL115301   9.009   7.469   8.850
 4268POPC   GL215302   8.883   7.468   8.850
 4268POPC   C1A15303   8.959   7.455   8.550
 4268POPC   D2A15304   8.969   7.441   8.250
 4268POPC   C3A15305   8.946   7.380   7.950
 4268POPC   C4A15306   8.951   7.375   7.650
 4268POPC   C1B15307   8.761   7.433   8.550
 4268POPC   C2B15308   8.739   7.451   8.250
 4268POPC   C3B15309   8.751   7.434   7.950
 4268POPC   C4B15310   8.693   7.491   7.650
 4269POPC   NC315311  14.428  23.749   9.450
 4269POPC   PO415312  14.412  23.737   9.150
 4269POPC   GL115313  14.442  23.679   8.850
 4269POPC   GL215314  14.285  23.723   8.850
 4269POPC   C1A15315  14.420  23.697   8.550
 4269POPC   D2A15316  14.395  23.681   8.250
 4269POPC   C3A15317  14.448  23.735   7.950
 4269POPC   C4A15318  14.410  23.698   7.650
 4269POPC   C1B15319  14.186  23.660   8.550
 4269POPC   C2B15320  14.179  23.704   8.250
 4269POPC   C3B15321  14.145  23.703   7.950
 4269POPC   C4B15322  14.172  23.718   7.650
 4270POPC   NC315323  33.044  26.091   9.450
 4270POPC   PO415324  33.045  26.089   9.150
 4270POPC   GL115325  33.018  26.040   8.850
 4270POPC   GL215326  32.967  25.882   8.850
 4270POPC   C1A15327  33.036  26.000   8.550
 4270POPC   D2A15328  33.024  26.046   8.250
 4270POPC   C3A15329  33.056  26.066   7.950
 4270POPC   C4A15330  32.980  26.004   7.650
 4270POPC   C1B15331  32.973  25.773   8.550
 4270POPC   C2B15332  32.921  25.847   8.250
 4270POPC   C3B15333  32.955  25.831   7.950
 4270POPC   C4B15334  32.937  25.827   7.650
 4271POPC   NC315335   8.971  40.774   9.450
 4271POPC   PO415336   8.961  40.757   9.150
 4271POPC   GL115337   9.016  40.821   8.850
 4271POPC   GL215338   8.916  40.660   8.850
 4271POPC   C1A15339   8.968  40.785   8.550
 4271POPC   D2A15340   8.955  40.802   8.250
 4271POPC   C3A15341   8.979  40.820   7.950
 4271POPC   C4A15342   8.952  40.811   7.650
 4271POPC   C1B15343   8.830  40.554   8.550
 4271POPC   C2B15344   8.875  40.535   8.250
 4271POPC   C3B15345   8.848  40.541   7.950
 4271POPC   C4B15346   8.823  40.575   7.650
 4272POPC   NC315347  28.410  27.543   9.450
 4272POPC   PO415348  28.409  27.604   9.150
 4272POPC   GL115349  28.385  27.636   8.850
 4272POPC   GL215350  28.258  27.594   8.850
 4272POPC   C1A15351  28.322  27.619   8.550
 4272POPC   D2A15352  28.335  27.546   8.250
 4272POPC   C3A15353  28.384  27.562   7.950
 4272POPC   C4A15354  28.406  27.609   7.650
 4272POPC   C1B15355  28.085  27.716   8.550
 4272POPC   C2B15356  28.166  27.650   8.250
 4272POPC   C3B15357  28.093  27.693   7.950
 4272POPC   C4B15358  28.175  27.653   7.650
 4273POPC   NC315359  11.309  25.224   9.450
 4273POPC   PO415360  11.272  25.272   9.150
 4273POPC   GL115361  11.340  25.228   8.850
 4273POPC   GL215362  11.148  25.289   8.850
 4273POPC   C1A15363  11.285  25.305   8.550
 4273POPC   D2A15364  11.251  25.281   8.250
 4273POPC   C3A15365  11.342  25.242   7.950
 4273POPC   C4A15366  11.295  25.272   7.650
 4273POPC   C1B15367  11.070  25.268   8.550
 4273POPC   C2B15368  11.021  25.232   8.250
 4273POPC   C3B15369  11.042  25.281   7.950
 4273POPC   C4B15370  11.024  25.264   7.650
 4274POPC   NC315371  22.915   1.995   9.450
 4274POPC   PO415372  22.902   1.951   9.150
 4274POPC   GL115373  22.894   2.016   8.850
 4274POPC   GL215374  22.882   1.869   8.850
 4274POPC   C1A15375  22.950   2.001   8.550
 4274POPC   D2A15376  22.966   2.024   8.250
 4274POPC   C3A15377  22.958   1.949   7.950
 4274POPC   C4A15378  22.954   2.026   7.650
 4274POPC   C1B15379  22.761   1.838   8.550
 4274POPC   C2B15380  22.749   1.804   8.250
 4274POPC   C3B15381  22.757   1.786   7.950
 4274POPC   C4B15382  22.749   1.760   7.650
 4275POPC   NC315383   7.448   0.449   9.450
 4275POPC   PO415384   7.395   0.433   9.150
 4275POPC   GL115385   7.399   0.403   8.850
 4275POPC   GL215386   7.565   0.469   8.850
 4275POPC   C1A15387   7.388   0.418   8.550
 4275POPC   D2A15388   7.379   0.449   8.250
 4275POPC   C3A15389   7.432   0.414   7.950
 4275POPC   C4A15390   7.460   0.430   7.650
 4275POPC   C1B15391   7.651   0.566   8.550
 4275POPC   C2B15392   7.605   0.559   8.250
 4275POPC   C3B15393   7.650   0.549   7.950
 4275POPC   C4B15394   7.619   0.552   7.650
 4276POPC   NC315395   2.034   3.563   9.450
 4276POPC   PO415396   1.974   3.520   9.150
 4276POPC   GL115397   1.999   3.524   8.850
 4276POPC   GL215398   1.846   3.519   8.850
 4276POPC   C1A15399   1.975   3.494   8.550
 4276POPC   D2A15400   2.007   3.563   8.250
 4276POPC   C3A15401   1.946   3.534   7.950
 4276POPC   C4A15402   1.973   3.559   7.650
 4276POPC   C1B15403   1.751   3.415   8.550
 4276POPC   C2B15404   1.789   3.473   8.250
 4276POPC   C3B15405   1.715   3.498   7.950
 4276POPC   C4B15406   1.779   3.440   7.650
 4277POPC   NC315407   0.435   3.507   9.450
 4277POPC   PO415408   0.435   3.494   9.150
 4277POPC   GL115409   0.460   3.516   8.850
 4277POPC   GL215410   0.464   3.708   8.850
 4277POPC   C1A15411   0.458   3.496   8.550
 4277POPC   D2A15412   0.474   3.540   8.250
 4277POPC   C3A15413   0.401   3.507   7.950
 4277POPC   C4A15414   0.439   3.540   7.650
 4277POPC   C1B15415   0.455   3.823   8.550
 4277POPC   C2B15416   0.526   3.772   8.250
 4277POPC   C3B15417   0.477   3.743   7.950
 4277POPC   C4B15418   0.521   3.777   7.650
 4278POPC   NC315419  33.821  19.865   9.450
 4278POPC   PO415420  33.782  19.838   9.150
 4278POPC   GL115421  33.833  19.826   8.850
 4278POPC   GL215422  33.711  19.927   8.850
 4278POPC   C1A15423  33.848  19.815   8.550
 4278POPC   D2A15424  33.846  19.848   8.250
 4278POPC   C3A15425  33.762  19.877   7.950
 4278POPC   C4A15426  33.779  19.807   7.650
 4278POPC   C1B15427  33.744  20.047   8.550
 4278POPC   C2B15428  33.731  20.076   8.250
 4278POPC   C3B15429  33.666  20.108   7.950
 4278POPC   C4B15430  33.760  20.070   7.650
 4279POPC   NC315431  30.657  19.815   9.450
 4279POPC   PO415432  30.707  19.884   9.150
 4279POPC   GL115433  30.722  19.865   8.850
 4279POPC   GL215434  30.706  19.673   8.850
 4279POPC   C1A15435  30.687  19.809   8.550
 4279POPC   D2A15436  30.686  19.879   8.250
 4279POPC   C3A15437  30.683  19.847   7.950
 4279POPC   C4A15438  30.672  19.824   7.650
 4279POPC   C1B15439  30.614  19.560   8.550
 4279POPC   C2B15440  30.594  19.610   8.250
 4279POPC   C3B15441  30.579  19.549   7.950
 4279POPC   C4B15442  30.594  19.623   7.650
 4280POPC   NC315443  27.628  38.503   9.450
 4280POPC   PO415444  27.566  38.466   9.150
 4280POPC   GL115445  27.612  38.489   8.850
 4280POPC   GL215446  27.643  38.523   8.850
 4280POPC   C1A15447  27.627  38.415   8.550
 4280POPC   D2A15448  27.568  38.424   8.250
 4280POPC   C3A15449  27.563  38.482   7.950
 4280POPC   C4A15450  27.565  38.472   7.650
 4280POPC   C1B15451  27.740  38.595   8.550
 4280POPC   C2B15452  27.779  38.649   8.250
 4280POPC   C3B15453  27.819  38.592   7.950
 4280POPC   C4B15454  27.813  38.584   7.650
 4281POPC   NC315455  34.625  25.312   9.450
 4281POPC   PO415456  34.616  25.274   9.150
 4281POPC   GL115457  34.620  25.305   8.850
 4281POPC   GL215458  34.488  25.310   8.850
 4281POPC   C1A15459  34.616  25.234   8.550
 4281POPC   D2A15460  34.617  25.270   8.250
 4281POPC   C3A15461  34.530  25.314   7.950
 4281POPC   C4A15462  34.614  25.217   7.650
 4281POPC   C1B15463  34.330  25.249   8.550
 4281POPC   C2B15464  34.315  25.255   8.250
 4281POPC   C3B15465  34.290  25.268   7.950
 4281POPC   C4B15466  34.298  25.229   7.650
 4282POPC   NC315467   4.364  28.413   9.450
 4282POPC   PO415468   4.341  28.407   9.150
 4282POPC   GL115469   4.313  28.382   8.850
 4282POPC   GL215470   4.246  28.292   8.850
 4282POPC   C1A15471   4.338  28.392   8.550
 4282POPC   D2A15472   4.345  28.385   8.250
 4282POPC   C3A15473   4.357  28.381   7.950
 4282POPC   C4A15474   4.366  28.344   7.650
 4282POPC   C1B15475   4.203  28.113   8.550
 4282POPC   C2B15476   4.173  28.161   8.250
 4282POPC   C3B15477   4.206  28.137   7.950
 4282POPC   C4B15478   4.169  28.151   7.650
 4283POPC   NC315479  29.966   0.452   9.450
 4283POPC   PO415480  29.918   0.432   9.150
 4283POPC   GL115481  29.906   0.422   8.850
 4283POPC   GL215482  29.783   0.412   8.850
 4283POPC   C1A15483  29.904   0.391   8.550
 4283POPC   D2A15484  29.917   0.400   8.250
 4283POPC   C3A15485  29.946   0.409   7.950
 4283POPC   C4A15486  29.877   0.419   7.650
 4283POPC   C1B15487  29.719   0.351   8.550
 4283POPC   C2B15488  29.698   0.300   8.250
 4283POPC   C3B15489  29.695   0.340   7.950
 4283POPC   C4B15490  29.672   0.303   7.650
 4284POPC   NC315491  13.609  22.201   9.450
 4284POPC   PO415492  13.659  22.193   9.150
 4284POPC   GL115493  13.657  22.206   8.850
 4284POPC   GL215494  13.658  22.020   8.850
 4284POPC   C1A15495  13.628  22.198   8.550
 4284POPC   D2A15496  13.615  22.154   8.250
 4284POPC   C3A15497  13.647  22.144   7.950
 4284POPC   C4A15498  13.650  22.191   7.650
 4284POPC   C1B15499  13.793  21.992   8.550
 4284POPC   C2B15500  13.792  21.948   8.250
 4284POPC   C3B15501  13.733  21.978   7.950
 4284POPC   C4B15502  13.774  22.008   7.650
 4285POPC   NC315503   3.547  26.805   9.450
 4285POPC   PO415504   3.551  26.836   9.150
 4285POPC   GL115505   3.587  26.804   8.850
 4285POPC   GL215506   3.441  26.876   8.850
 4285POPC   C1A15507   3.494  26.841   8.550
 4285POPC   D2A15508   3.524  26.813   8.250
 4285POPC   C3A15509   3.508  26.773   7.950
 4285POPC   C4A15510   3.589  26.795   7.650
 4285POPC   C1B15511   3.393  26.947   8.550
 4285POPC   C2B15512   3.378  26.993   8.250
 4285POPC   C3B15513   3.366  27.014   7.950
 4285POPC   C4B15514   3.316  26.937   7.650
 4286POPC   NC315515  27.599  22.132   9.450
 4286POPC   PO415516  27.579  22.159   9.150
 4286POPC   GL115517  27.601  22.194   8.850
 4286POPC   GL215518  27.737  22.120   8.850
 4286POPC   C1A15519  27.610  22.185   8.550
 4286POPC   D2A15520  27.600  22.190   8.250
 4286POPC   C3A15521  27.565  22.182   7.950
 4286POPC   C4A15522  27.580  22.130   7.650
 4286POPC   C1B15523  27.862  22.077   8.550
 4286POPC   C2B15524  27.806  22.035   8.250
 4286POPC   C3B15525  27.785  22.041   7.950
 4286POPC   C4B15526  27.852  22.049   7.650
 4287POPC   NC315527   3.504  35.376   9.450
 4287POPC   PO415528   3.523  35.335   9.150
 4287POPC   GL115529   3.530  35.341   8.850
 4287POPC   GL215530   3.481  35.260   8.850
 4287POPC   C1A15531   3.540  35.308   8.550
 4287POPC   D2A15532   3.508  35.359   8.250
 4287POPC   C3A15533   3.525  35.356   7.950
 4287POPC   C4A15534   3.527  35.357   7.650
 4287POPC   C1B15535   3.363  35.229   8.550
 4287POPC   C2B15536   3.281  35.197   8.250
 4287POPC   C3B15537   3.362  35.193   7.950
 4287POPC   C4B15538   3.291  35.190   7.650
 4288POPC   NC315539  30.664   4.301   9.450
 4288POPC   PO415540  30.716   4.346   9.150
 4288POPC   GL115541  30.724   4.288   8.850
 4288POPC   GL215542  30.704   4.430   8.850
 4288POPC   C1A15543  30.651   4.308   8.550
 4288POPC   D2A15544  30.740   4.347   8.250
 4288POPC   C3A15545  30.694   4.276   7.950
 4288POPC   C4A15546  30.722   4.334   7.650
 4288POPC   C1B15547  30.605   4.546   8.550
 4288POPC   C2B15548  30.584   4.513   8.250
 4288POPC   C3B15549  30.652   4.569   7.950
 4288POPC   C4B15550  30.666   4.598   7.650
 4289POPC   NC315551   5.118  12.862   9.450
 4289POPC   PO415552   5.119  12.826   9.150
 4289POPC   GL115553   5.076  12.884   8.850
 4289POPC   GL215554   5.154  12.765   8.850
 4289POPC   C1A15555   5.086  12.852   8.550
 4289POPC   D2A15556   5.057  12.810   8.250
 4289POPC   C3A15557   5.046  12.875   7.950
 4289POPC   C4A15558   5.114  12.894   7.650
 4289POPC   C1B15559   5.161  12.578   8.550
 4289POPC   C2B15560   5.214  12.616   8.250
 4289POPC   C3B15561   5.196  12.606   7.950
 4289POPC   C4B15562   5.191  12.613   7.650
 4290POPC   NC315563  35.387  22.186   9.450
 4290POPC   PO415564  35.313  22.129   9.150
 4290POPC   GL115565  35.385  22.131   8.850
 4290POPC   GL215566  35.399  22.318   8.850
 4290POPC   C1A15567  35.367  22.207   8.550
 4290POPC   D2A15568  35.368  22.121   8.250
 4290POPC   C3A15569  35.348  22.145   7.950
 4290POPC   C4A15570  35.395  22.154   7.650
 4290POPC   C1B15571  35.476  22.387   8.550
 4290POPC   C2B15572  35.425  22.388   8.250
 4290POPC   C3B15573  35.388  22.382   7.950
 4290POPC   C4B15574  35.386  22.361   7.650
 4291POPC   NC315575  37.708  15.134   9.450
 4291POPC   PO415576  37.644  15.213   9.150
 4291POPC   GL115577  37.636  15.143   8.850
 4291POPC   GL215578  37.606  15.269   8.850
 4291POPC   C1A15579  37.688  15.140   8.550
 4291POPC   D2A15580  37.668  15.229   8.250
 4291POPC   C3A15581  37.639  15.188   7.950
 4291POPC   C4A15582  37.664  15.178   7.650
 4291POPC   C1B15583  37.634  15.461   8.550
 4291POPC   C2B15584  37.568  15.432   8.250
 4291POPC   C3B15585  37.617  15.395   7.950
 4291POPC   C4B15586  37.644  15.399   7.650
 4292POPC   NC315587  26.039  32.249   9.450
 4292POPC   PO415588  26.003  32.286   9.150
 4292POPC   GL115589  26.075  32.271   8.850
 4292POPC   GL215590  25.979  32.318   8.850
 4292POPC   C1A15591  26.022  32.214   8.550
 4292POPC   D2A15592  26.087  32.209   8.250
 4292POPC   C3A15593  26.090  32.239   7.950
 4292POPC   C4A15594  26.055  32.295   7.650
 4292POPC   C1B15595  25.873  32.384   8.550
 4292POPC   C2B15596  25.830  32.414   8.250
 4292POPC   C3B15597  25.799  32.414   7.950
 4292POPC   C4B15598  25.858  32.352   7.650
 4293POPC   NC315599  32.990  12.866   9.450
 4293POPC   PO415600  33.073  12.831   9.150
 4293POPC   GL115601  33.069  12.814   8.850
 4293POPC   GL215602  33.061  12.769   8.850
 4293POPC   C1A15603  33.002  12.807   8.550
 4293POPC   D2A15604  33.003  12.812   8.250
 4293POPC   C3A15605  33.027  12.888   7.950
 4293POPC   C4A15606  33.021  12.862   7.650
 4293POPC   C1B15607  33.101  12.617   8.550
 4293POPC   C2B15608  33.197  12.616   8.250
 4293POPC   C3B15609  33.129  12.586   7.950
 4293POPC   C4B15610  33.153  12.630   7.650
 4294POPC   NC315611  35.347  30.692   9.450
 4294POPC   PO415612  35.391  30.661   9.150
 4294POPC   GL115613  35.311  30.688   8.850
 4294POPC   GL215614  35.443  30.703   8.850
 4294POPC   C1A15615  35.385  30.742   8.550
 4294POPC   D2A15616  35.362  30.698   8.250
 4294POPC   C3A15617  35.339  30.683   7.950
 4294POPC   C4A15618  35.320  30.665   7.650
 4294POPC   C1B15619  35.627  30.601   8.550
 4294POPC   C2B15620  35.545  30.659   8.250
 4294POPC   C3B15621  35.589  30.636   7.950
 4294POPC   C4B15622  35.550  30.584   7.650
 4295POPC   NC315623  22.112  34.537   9.450
 4295POPC   PO415624  22.187  34.530   9.150
 4295POPC   GL115625  22.114  34.604   8.850
 4295POPC   GL215626  22.268  34.697   8.850
 4295POPC   C1A15627  22.179  34.540   8.550
 4295POPC   D2A15628  22.208  34.535   8.250
 4295POPC   C3A15629  22.175  34.601   7.950
 4295POPC   C4A15630  22.172  34.617   7.650
 4295POPC   C1B15631  22.371  34.720   8.550
 4295POPC   C2B15632  22.386  34.699   8.250
 4295POPC   C3B15633  22.314  34.744   7.950
 4295POPC   C4B15634  22.388  34.697   7.650
 4296POPC   NC315635  41.607  31.441   9.450
 4296POPC   PO415636  41.587  31.505   9.150
 4296POPC   GL115637  41.530  31.503   8.850
 4296POPC   GL215638  41.454  31.545   8.850
 4296POPC   C1A15639  41.514  31.494   8.550
 4296POPC   D2A15640  41.549  31.426   8.250
 4296POPC   C3A15641  41.563  31.433   7.950
 4296POPC   C4A15642  41.608  31.427   7.650
 4296POPC   C1B15643  41.432  31.651   8.550
 4296POPC   C2B15644  41.435  31.673   8.250
 4296POPC   C3B15645  41.377  31.673   7.950
 4296POPC   C4B15646  41.391  31.617   7.650
 4297POPC   NC315647  26.789  10.493   9.450
 4297POPC   PO415648  26.792  10.565   9.150
 4297POPC   GL115649  26.866  10.477   8.850
 4297POPC   GL215650  26.969  10.490   8.850
 4297POPC   C1A15651  26.812  10.558   8.550
 4297POPC   D2A15652  26.834  10.492   8.250
 4297POPC   C3A15653  26.805  10.556   7.950
 4297POPC   C4A15654  26.797  10.508   7.650
 4297POPC   C1B15655  27.066  10.546   8.550
 4297POPC   C2B15656  27.074  10.501   8.250
 4297POPC   C3B15657  27.091  10.560   7.950
 4297POPC   C4B15658  27.052  10.586   7.650
 4298POPC   NC315659  19.040  32.208   9.450
 4298POPC   PO415660  19.100  32.199   9.150
 4298POPC   GL115661  19.103  32.254   8.850
 4298POPC   GL215662  18.969  32.289   8.850
 4298POPC   C1A15663  19.108  32.252   8.550
 4298POPC   D2A15664  19.040  32.215   8.250
 4298POPC   C3A15665  19.036  32.264   7.950
 4298POPC   C4A15666  19.088  32.278   7.650
 4298POPC   C1B15667  18.800  32.397   8.550
 4298POPC   C2B15668  18.842  32.401   8.250
 4298POPC   C3B15669  18.844  32.417   7.950
 4298POPC   C4B15670  18.808  32.410   7.650
 4299POPC   NC315671  42.287   0.452   9.450
 4299POPC   PO415672  42.324   0.448   9.150
 4299POPC   GL115673  42.334   0.408   8.850
 4299POPC   GL215674  42.214   0.411   8.850
 4299POPC   C1A15675  42.333   0.397   8.550
 4299POPC   D2A15676  42.352   0.482   8.250
 4299POPC   C3A15677  42.348   0.442   7.950
 4299POPC   C4A15678  42.353   0.395   7.650
 4299POPC   C1B15679  42.135   0.426   8.550
 4299POPC   C2B15680  42.060   0.368   8.250
 4299POPC   C3B15681  42.060   0.346   7.950
 4299POPC   C4B15682  42.049   0.349   7.650
 4300POPC   NC315683  17.464  34.561   9.450
 4300POPC   PO415684  17.548  34.545   9.150
 4300POPC   GL115685  17.474  34.571   8.850
 4300POPC   GL215686  17.398  34.602   8.850
 4300POPC   C1A15687  17.488  34.612   8.550
 4300POPC   D2A15688  17.536  34.554   8.250
 4300POPC   C3A15689  17.495  34.551   7.950
 4300POPC   C4A15690  17.513  34.598   7.650
 4300POPC   C1B15691  17.303  34.616   8.550
 4300POPC   C2B15692  17.297  34.651   8.250
 4300POPC   C3B15693  17.274  34.589   7.950
 4300POPC   C4B15694  17.239  34.631   7.650
 4301POPC   NC315695   1.991  41.530   9.450
 4301POPC   PO415696   1.971  41.535   9.150
 4301POPC   GL115697   2.022  41.563   8.850
 4301POPC   GL215698   2.060  41.437   8.850
 4301POPC   C1A15699   1.983  41.530   8.550
 4301POPC   D2A15700   2.005  41.520   8.250
 4301POPC   C3A15701   2.020  41.568   7.950
 4301POPC   C4A15702   1.955  41.518   7.650
 4301POPC   C1B15703   2.152  41.406   8.550
 4301POPC   C2B15704   2.128  41.365   8.250
 4301POPC   C3B15705   2.149  41.430   7.950
 4301POPC   C4B15706   2.213  41.373   7.650
 4302POPC   NC315707  36.110  32.976   9.450
 4302POPC   PO415708  36.156  33.011   9.150
 4302POPC   GL115709  36.109  33.056   8.850
 4302POPC   GL215710  36.126  32.865   8.850
 4302POPC   C1A15711  36.106  33.015   8.550
 4302POPC   D2A15712  36.119  33.042   8.250
 4302POPC   C3A15713  36.136  33.065   7.950
 4302POPC   C4A15714  36.174  33.000   7.650
 4302POPC   C1B15715  36.083  32.776   8.550
 4302POPC   C2B15716  36.112  32.771   8.250
 4302POPC   C3B15717  36.055  32.755   7.950
 4302POPC   C4B15718  36.026  32.790   7.650
 4303POPC   NC315719  29.096  11.345   9.450
 4303POPC   PO415720  29.108  11.346   9.150
 4303POPC   GL115721  29.114  11.266   8.850
 4303POPC   GL215722  29.078  11.232   8.850
 4303POPC   C1A15723  29.193  11.281   8.550
 4303POPC   D2A15724  29.117  11.251   8.250
 4303POPC   C3A15725  29.189  11.258   7.950
 4303POPC   C4A15726  29.144  11.297   7.650
 4303POPC   C1B15727  28.931  11.153   8.550
 4303POPC   C2B15728  28.956  11.182   8.250
 4303POPC   C3B15729  28.987  11.120   7.950
 4303POPC   C4B15730  28.964  11.186   7.650
 4304POPC   NC315731  36.908   7.391   9.450
 4304POPC   PO415732  36.892   7.459   9.150
 4304POPC   GL115733  36.918   7.419   8.850
 4304POPC   GL215734  36.988   7.377   8.850
 4304POPC   C1A15735  36.928   7.374   8.550
 4304POPC   D2A15736  36.885   7.437   8.250
 4304POPC   C3A15737  36.945   7.420   7.950
 4304POPC   C4A15738  36.885   7.396   7.650
 4304POPC   C1B15739  37.088   7.233   8.550
 4304POPC   C2B15740  37.129   7.228   8.250
 4304POPC   C3B15741  37.139   7.260   7.950
 4304POPC   C4B15742  37.086   7.240   7.650
 4305POPC   NC315743   3.526  20.625   9.450
 4305POPC   PO415744   3.551  20.614   9.150
 4305POPC   GL115745   3.571  20.615   8.850
 4305POPC   GL215746   3.524  20.469   8.850
 4305POPC   C1A15747   3.527  20.629   8.550
 4305POPC   D2A15748   3.505  20.643   8.250
 4305POPC   C3A15749   3.546  20.564   7.950
 4305POPC   C4A15750   3.585  20.643   7.650
 4305POPC   C1B15751   3.572  20.345   8.550
 4305POPC   C2B15752   3.569  20.354   8.250
 4305POPC   C3B15753   3.563  20.341   7.950
 4305POPC   C4B15754   3.623  20.367   7.650
 4306POPC   NC315755  12.027   6.694   9.450
 4306POPC   PO415756  12.099   6.628   9.150
 4306POPC   GL115757  12.117   6.633   8.850
 4306POPC   GL215758  11.979   6.549   8.850
 4306POPC   C1A15759  12.070   6.604   8.550
 4306POPC   D2A15760  12.038   6.634   8.250
 4306POPC   C3A15761  12.030   6.680   7.950
 4306POPC   C4A15762  12.123   6.638   7.650
 4306POPC   C1B15763  11.900   6.535   8.550
 4306POPC   C2B15764  11.840   6.455   8.250
 4306POPC   C3B15765  11.873   6.528   7.950
 4306POPC   C4B15766  11.875   6.450   7.650
 4307POPC   NC315767  37.644  29.176   9.450
 4307POPC   PO415768  37.679  29.102   9.150
 4307POPC   GL115769  37.686  29.101   8.850
 4307POPC   GL215770  37.709  29.272   8.850
 4307POPC   C1A15771  37.684  29.161   8.550
 4307POPC   D2A15772  37.683  29.105   8.250
 4307POPC   C3A15773  37.698  29.154   7.950
 4307POPC   C4A15774  37.665  29.139   7.650
 4307POPC   C1B15775  37.735  29.388   8.550
 4307POPC   C2B15776  37.753  29.355   8.250
 4307POPC   C3B15777  37.754  29.366   7.950
 4307POPC   C4B15778  37.774  29.350   7.650
 4308POPC   NC315779  14.367  28.412   9.450
 4308POPC   PO415780  14.436  28.329   9.150
 4308POPC   GL115781  14.418  28.348   8.850
 4308POPC   GL215782  14.479  28.257   8.850
 4308POPC   C1A15783  14.408  28.374   8.550
 4308POPC   D2A15784  14.380  28.399   8.250
 4308POPC   C3A15785  14.449  28.373   7.950
 4308POPC   C4A15786  14.421  28.331   7.650
 4308POPC   C1B15787  14.611  28.224   8.550
 4308POPC   C2B15788  14.596  28.163   8.250
 4308POPC   C3B15789  14.624  28.194   7.950
 4308POPC   C4B15790  14.556  28.166   7.650
 4309POPC   NC315791  12.873  41.600   9.450
 4309POPC   PO415792  12.814  41.516   9.150
 4309POPC   GL115793  12.882  41.602   8.850
 4309POPC   GL215794  12.968  41.514   8.850
 4309POPC   C1A15795  12.839  41.571   8.550
 4309POPC   D2A15796  12.871  41.540   8.250
 4309POPC   C3A15797  12.823  41.549   7.950
 4309POPC   C4A15798  12.878  41.513   7.650
 4309POPC   C1B15799  13.107  41.469   8.550
 4309POPC   C2B15800  13.091  41.454   8.250
 4309POPC   C3B15801  13.057  41.462   7.950
 4309POPC   C4B15802  13.114  41.492   7.650
 4310POPC   NC315803  15.215  26.815   9.450
 4310POPC   PO415804  15.166  26.784   9.150
 4310POPC   GL115805  15.172  26.792   8.850
 4310POPC   GL215806  15.071  26.834   8.850
 4310POPC   C1A15807  15.188  26.810   8.550
 4310POPC   D2A15808  15.200  26.806   8.250
 4310POPC   C3A15809  15.137  26.769   7.950
 4310POPC   C4A15810  15.216  26.785   7.650
 4310POPC   C1B15811  14.972  26.834   8.550
 4310POPC   C2B15812  14.920  26.801   8.250
 4310POPC   C3B15813  14.937  26.816   7.950
 4310POPC   C4B15814  14.940  26.795   7.650
 4311POPC   NC315815  22.888  43.080   9.450
 4311POPC   PO415816  22.983  43.109   9.150
 4311POPC   GL115817  22.937  43.085   8.850
 4311POPC   GL215818  23.018  43.072   8.850
 4311POPC   C1A15819  22.947  43.080   8.550
 4311POPC   D2A15820  22.935  43.094   8.250
 4311POPC   C3A15821  22.985  43.096   7.950
 4311POPC   C4A15822  22.950  43.144   7.650
 4311POPC   C1B15823  23.144  42.969   8.550
 4311POPC   C2B15824  23.178  43.013   8.250
 4311POPC   C3B15825  23.197  42.970   7.950
 4311POPC   C4B15826  23.132  43.010   7.650
 4312POPC   NC315827  39.203  17.557   9.450
 4312POPC   PO415828  39.274  17.543   9.150
 4312POPC   GL115829  39.260  17.546   8.850
 4312POPC   GL215830  39.103  17.390   8.850
 4312POPC   C1A15831  39.218  17.476   8.550
 4312POPC   D2A15832  39.207  17.473   8.250
 4312POPC   C3A15833  39.270  17.556   7.950
 4312POPC   C4A15834  39.185  17.517   7.650
 4312POPC   C1B15835  39.022  17.394   8.550
 4312POPC   C2B15836  39.007  17.385   8.250
 4312POPC   C3B15837  39.030  17.314   7.950
 4312POPC   C4B15838  39.012  17.365   7.650
 4313POPC   NC315839   6.660  28.413   9.450
 4313POPC   PO415840   6.641  28.375   9.150
 4313POPC   GL115841   6.654  28.404   8.850
 4313POPC   GL215842   6.609  28.491   8.850
 4313POPC   C1A15843   6.648  28.335   8.550
 4313POPC   D2A15844   6.677  28.415   8.250
 4313POPC   C3A15845   6.597  28.388   7.950
 4313POPC   C4A15846   6.650  28.397   7.650
 4313POPC   C1B15847   6.557  28.638   8.550
 4313POPC   C2B15848   6.517  28.565   8.250
 4313POPC   C3B15849   6.579  28.561   7.950
 4313POPC   C4B15850   6.508  28.594   7.650
 4314POPC   NC315851   8.239  15.163   9.450
 4314POPC   PO415852   8.216  15.226   9.150
 4314POPC   GL115853   8.161  15.219   8.850
 4314POPC   GL215854   8.103  15.098   8.850
 4314POPC   C1A15855   8.178  15.223   8.550
 4314POPC   D2A15856   8.201  15.135   8.250
 4314POPC   C3A15857   8.180  15.148   7.950
 4314POPC   C4A15858   8.225  15.220   7.650
 4314POPC   C1B15859   8.025  14.974   8.550
 4314POPC   C2B15860   8.047  14.980   8.250
 4314POPC   C3B15861   8.016  14.990   7.950
 4314POPC   C4B15862   8.007  15.010   7.650
 4315POPC   NC315863  38.501  30.666   9.450
 4315POPC   PO415864  38.495  30.677   9.150
 4315POPC   GL115865  38.421  30.742   8.850
 4315POPC   GL215866  38.512  30.785   8.850
 4315POPC   C1A15867  38.437  30.703   8.550
 4315POPC   D2A15868  38.424  30.686   8.250
 4315POPC   C3A15869  38.471  30.737   7.950
 4315POPC   C4A15870  38.453  30.671   7.650
 4315POPC   C1B15871  38.534  30.941   8.550
 4315POPC   C2B15872  38.538  30.925   8.250
 4315POPC   C3B15873  38.533  30.904   7.950
 4315POPC   C4B15874  38.524  30.935   7.650
 4316POPC   NC315875  35.347   1.253   9.450
 4316POPC   PO415876  35.384   1.223   9.150
 4316POPC   GL115877  35.391   1.180   8.850
 4316POPC   GL215878  35.265   1.159   8.850
 4316POPC   C1A15879  35.315   1.223   8.550
 4316POPC   D2A15880  35.382   1.228   8.250
 4316POPC   C3A15881  35.388   1.169   7.950
 4316POPC   C4A15882  35.378   1.264   7.650
 4316POPC   C1B15883  35.136   1.171   8.550
 4316POPC   C2B15884  35.112   1.177   8.250
 4316POPC   C3B15885  35.087   1.183   7.950
 4316POPC   C4B15886  35.125   1.249   7.650
 4317POPC   NC315887  14.416  10.483   9.450
 4317POPC   PO415888  14.377  10.543   9.150
 4317POPC   GL115889  14.433  10.552   8.850
 4317POPC   GL215890  14.399  10.418   8.850
 4317POPC   C1A15891  14.406  10.494   8.550
 4317POPC   D2A15892  14.366  10.500   8.250
 4317POPC   C3A15893  14.447  10.486   7.950
 4317POPC   C4A15894  14.441  10.532   7.650
 4317POPC   C1B15895  14.521  10.285   8.550
 4317POPC   C2B15896  14.498  10.310   8.250
 4317POPC   C3B15897  14.447  10.335   7.950
 4317POPC   C4B15898  14.468  10.287   7.650
 4318POPC   NC315899  38.463  15.946   9.450
 4318POPC   PO415900  38.408  15.924   9.150
 4318POPC   GL115901  38.453  15.929   8.850
 4318POPC   GL215902  38.284  15.957   8.850
 4318POPC   C1A15903  38.497  16.001   8.550
 4318POPC   D2A15904  38.466  16.005   8.250
 4318POPC   C3A15905  38.496  15.998   7.950
 4318POPC   C4A15906  38.439  15.955   7.650
 4318POPC   C1B15907  38.235  15.967   8.550
 4318POPC   C2B15908  38.213  16.020   8.250
 4318POPC   C3B15909  38.220  15.965   7.950
 4318POPC   C4B15910  38.189  16.023   7.650
 4319POPC   NC315911   5.846  27.573   9.450
 4319POPC   PO415912   5.859  27.640   9.150
 4319POPC   GL115913   5.845  27.629   8.850
 4319POPC   GL215914   5.985  27.638   8.850
 4319POPC   C1A15915   5.886  27.642   8.550
 4319POPC   D2A15916   5.839  27.632   8.250
 4319POPC   C3A15917   5.873  27.578   7.950
 4319POPC   C4A15918   5.831  27.635   7.650
 4319POPC   C1B15919   6.119  27.597   8.550
 4319POPC   C2B15920   6.079  27.583   8.250
 4319POPC   C3B15921   6.096  27.588   7.950
 4319POPC   C4B15922   6.155  27.626   7.650
 4320POPC   NC315923  30.690  33.814   9.450
 4320POPC   PO415924  30.744  33.784   9.150
 4320POPC   GL115925  30.699  33.803   8.850
 4320POPC   GL215926  30.767  33.697   8.850
 4320POPC   C1A15927  30.728  33.830   8.550
 4320POPC   D2A15928  30.671  33.803   8.250
 4320POPC   C3A15929  30.680  33.845   7.950
 4320POPC   C4A15930  30.746  33.831   7.650
 4320POPC   C1B15931  30.867  33.553   8.550
 4320POPC   C2B15932  30.828  33.625   8.250
 4320POPC   C3B15933  30.849  33.555   7.950
 4320POPC   C4B15934  30.807  33.568   7.650
 4321POPC   NC315935  36.925  24.484   9.450
 4321POPC   PO415936  36.892  24.526   9.150
 4321POPC   GL115937  36.867  24.492   8.850
 4321POPC   GL215938  36.897  24.339   8.850
 4321POPC   C1A15939  36.928  24.540   8.550
 4321POPC   D2A15940  36.921  24.480   8.250
 4321POPC   C3A15941  36.854  24.452   7.950
 4321POPC   C4A15942  36.920  24.526   7.650
 4321POPC   C1B15943  36.845  24.297   8.550
 4321POPC   C2B15944  36.862  24.254   8.250
 4321POPC   C3B15945  36.795  24.263   7.950
 4321POPC   C4B15946  36.828  24.207   7.650
 4322POPC   NC315947  43.080   9.792   9.450
 4322POPC   PO415948  43.132   9.785   9.150
 4322POPC   GL115949  43.145   9.744   8.850
 4322POPC   GL215950  43.092   9.611   8.850
 4322POPC   C1A15951  43.126   9.752   8.550
 4322POPC   D2A15952  43.149   9.728   8.250
 4322POPC   C3A15953  43.154   9.763   7.950
 4322POPC   C4A15954  43.122   9.726   7.650
 4322POPC   C1B15955  42.974   9.546   8.550
 4322POPC   C2B15956  42.949   9.570   8.250
 4322POPC   C3B15957  42.974   9.525   7.950
 4322POPC   C4B15958  43.013   9.514   7.650
 4323POPC   NC315959   5.888  22.937   9.450
 4323POPC   PO415960   5.875  22.932   9.150
 4323POPC   GL115961   5.902  22.987   8.850
 4323POPC   GL215962   5.867  22.779   8.850
 4323POPC   C1A15963   5.867  22.971   8.550
 4323POPC   D2A15964   5.845  22.927   8.250
 4323POPC   C3A15965   5.820  22.923   7.950
 4323POPC   C4A15966   5.895  22.988   7.650
 4323POPC   C1B15967   5.925  22.734   8.550
 4323POPC   C2B15968   5.914  22.741   8.250
 4323POPC   C3B15969   5.892  22.695   7.950
 4323POPC   C4B15970   5.940  22.660   7.650
 4324POPC   NC315971   6.601  18.300   9.450
 4324POPC   PO415972   6.639  18.274   9.150
 4324POPC   GL115973   6.640  18.330   8.850
 4324POPC   GL215974   6.579  18.229   8.850
 4324POPC   C1A15975   6.631  18.320   8.550
 4324POPC   D2A15976   6.633  18.292   8.250
 4324POPC   C3A15977   6.636  18.270   7.950
 4324POPC   C4A15978   6.650  18.324   7.650
 4324POPC   C1B15979   6.424  18.192   8.550
 4324POPC   C2B15980   6.417  18.187   8.250
 4324POPC   C3B15981   6.415  18.171   7.950
 4324POPC   C4B15982   6.416  18.184   7.650
 4325POPC   NC315983  42.316  12.093   9.450
 4325POPC   PO415984  42.325  12.066   9.150
 4325POPC   GL115985  42.311  12.091   8.850
 4325POPC   GL215986  42.340  12.173   8.850
 4325POPC   C1A15987  42.333  12.121   8.550
 4325POPC   D2A15988  42.294  12.077   8.250
 4325POPC   C3A15989  42.308  12.032   7.950
 4325POPC   C4A15990  42.312  12.093   7.650
 4325POPC   C1B15991  42.284  12.370   8.550
 4325POPC   C2B15992  42.311  12.369   8.250
 4325POPC   C3B15993  42.355  12.307   7.950
 4325POPC   C4B15994  42.279  12.376   7.650
 4326POPC   NC315995  44.617  29.905   9.450
 4326POPC   PO415996  44.665  29.875   9.150
 4326POPC   GL115997  44.645  29.916   8.850
 4326POPC   GL215998  44.696  29.827   8.850
 4326POPC   C1A15999  44.647  29.901   8.550
 4326POPC   D2A16000  44.643  29.897   8.250
 4326POPC   C3A16001  44.634  29.920   7.950
 4326POPC   C4A16002  44.663  29.882   7.650
 4326POPC   C1B16003  44.703  29.655   8.550
 4326POPC   C2B16004  44.735  29.719   8.250
 4326POPC   C3B16005  44.736  29.655   7.950
 4326POPC   C4B16006  44.695  29.711   7.650
 4327POPC   NC316007  25.253  30.716   9.450
 4327POPC   PO416008  25.264  30.690   9.150
 4327POPC   GL116009  25.230  30.680   8.850
 4327POPC   GL216010  25.332  30.661   8.850
 4327POPC   C1A16011  25.273  30.690   8.550
 4327POPC   D2A16012  25.300  30.652   8.250
 4327POPC   C3A16013  25.261  30.733   7.950
 4327POPC   C4A16014  25.244  30.678   7.650
 4327POPC   C1B16015  25.425  30.530   8.550
 4327POPC   C2B16016  25.491  30.575   8.250
 4327POPC   C3B16017  25.403  30.545   7.950
 4327POPC   C4B16018  25.494  30.558   7.650
 4328POPC   NC316019  42.342  10.537   9.450
 4328POPC   PO416020  42.370  10.517   9.150
 4328POPC   GL116021  42.307  10.497   8.850
 4328POPC   GL216022  42.214  10.501   8.850
 4328POPC   C1A16023  42.318  10.547   8.550
 4328POPC   D2A16024  42.370  10.518   8.250
 4328POPC   C3A16025  42.285  10.540   7.950
 4328POPC   C4A16026  42.371  10.543   7.650
 4328POPC   C1B16027  42.087  10.453   8.550
 4328POPC   C2B16028  42.147  10.441   8.250
 4328POPC   C3B16029  42.100  10.489   7.950
 4328POPC   C4B16030  42.108  10.479   7.650
 4329POPC   NC316031  14.450  32.267   9.450
 4329POPC   PO416032  14.444  32.251   9.150
 4329POPC   GL116033  14.440  32.255   8.850
 4329POPC   GL216034  14.383  32.326   8.850
 4329POPC   C1A16035  14.429  32.293   8.550
 4329POPC   D2A16036  14.417  32.230   8.250
 4329POPC   C3A16037  14.385  32.210   7.950
 4329POPC   C4A16038  14.447  32.219   7.650
 4329POPC   C1B16039  14.380  32.442   8.550
 4329POPC   C2B16040  14.337  32.526   8.250
 4329POPC   C3B16041  14.313  32.467   7.950
 4329POPC   C4B16042  14.377  32.523   7.650
 4330POPC   NC316043  22.948  33.835   9.450
 4330POPC   PO416044  22.938  33.791   9.150
 4330POPC   GL116045  22.911  33.816   8.850
 4330POPC   GL216046  22.892  33.920   8.850
 4330POPC   C1A16047  22.921  33.760   8.550
 4330POPC   D2A16048  22.969  33.815   8.250
 4330POPC   C3A16049  22.940  33.783   7.950
 4330POPC   C4A16050  22.968  33.791   7.650
 4330POPC   C1B16051  22.881  34.065   8.550
 4330POPC   C2B16052  22.824  33.999   8.250
 4330POPC   C3B16053  22.818  34.053   7.950
 4330POPC   C4B16054  22.864  34.043   7.650
 4331POPC   NC316055   6.601  29.151   9.450
 4331POPC   PO416056   6.680  29.131   9.150
 4331POPC   GL116057   6.605  29.137   8.850
 4331POPC   GL216058   6.618  29.279   8.850
 4331POPC   C1A16059   6.596  29.126   8.550
 4331POPC   D2A16060   6.607  29.168   8.250
 4331POPC   C3A16061   6.657  29.122   7.950
 4331POPC   C4A16062   6.668  29.185   7.650
 4331POPC   C1B16063   6.657  29.430   8.550
 4331POPC   C2B16064   6.673  29.387   8.250
 4331POPC   C3B16065   6.665  29.351   7.950
 4331POPC   C4B16066   6.636  29.387   7.650
 4332POPC   NC316067   1.212   1.233   9.450
 4332POPC   PO416068   1.187   1.246   9.150
 4332POPC   GL116069   1.253   1.230   8.850
 4332POPC   GL216070   1.283   1.048   8.850
 4332POPC   C1A16071   1.251   1.178   8.550
 4332POPC   D2A16072   1.198   1.200   8.250
 4332POPC   C3A16073   1.181   1.202   7.950
 4332POPC   C4A16074   1.229   1.204   7.650
 4332POPC   C1B16075   1.253   0.925   8.550
 4332POPC   C2B16076   1.297   1.016   8.250
 4332POPC   C3B16077   1.275   0.927   7.950
 4332POPC   C4B16078   1.213   0.988   7.650
 4333POPC   NC316079  43.132  43.843   9.450
 4333POPC   PO416080  43.122  43.934   9.150
 4333POPC   GL116081  43.137  43.902   8.850
 4333POPC   GL216082  43.139  43.967   8.850
 4333POPC   C1A16083  43.082  43.888   8.550
 4333POPC   D2A16084  43.152  43.843   8.250
 4333POPC   C3A16085  43.157  43.887   7.950
 4333POPC   C4A16086  43.152  43.846   7.650
 4333POPC   C1B16087  43.091  44.090   8.550
 4333POPC   C2B16088  43.135  44.139   8.250
 4333POPC   C3B16089  43.131  44.090   7.950
 4333POPC   C4B16090  43.102  44.126   7.650
 4334POPC   NC316091  32.977  22.130   9.450
 4334POPC   PO416092  32.982  22.173   9.150
 4334POPC   GL116093  32.996  22.130   8.850
 4334POPC   GL216094  32.953  22.186   8.850
 4334POPC   C1A16095  32.979  22.171   8.550
 4334POPC   D2A16096  33.062  22.126   8.250
 4334POPC   C3A16097  33.011  22.167   7.950
 4334POPC   C4A16098  33.054  22.122   7.650
 4334POPC   C1B16099  32.770  22.213   8.550
 4334POPC   C2B16100  32.768  22.262   8.250
 4334POPC   C3B16101  32.746  22.211   7.950
 4334POPC   C4B16102  32.810  22.270   7.650
 4335POPC   NC316103  36.897   9.753   9.450
 4335POPC   PO416104  36.893   9.773   9.150
 4335POPC   GL116105  36.934   9.766   8.850
 4335POPC   GL216106  36.841   9.661   8.850
 4335POPC   C1A16107  36.885   9.702   8.550
 4335POPC   D2A16108  36.951   9.784   8.250
 4335POPC   C3A16109  36.950   9.746   7.950
 4335POPC   C4A16110  36.944   9.790   7.650
 4335POPC   C1B16111  36.875   9.545   8.550
 4335POPC   C2B16112  36.872   9.505   8.250
 4335POPC   C3B16113  36.820   9.511   7.950
 4335POPC   C4B16114  36.825   9.549   7.650
 4336POPC   NC316115  10.484  43.886   9.450
 4336POPC   PO416116  10.554  43.924   9.150
 4336POPC   GL116117  10.554  43.931   8.850
 4336POPC   GL216118  10.419  43.791   8.850
 4336POPC   C1A16119  10.549  43.880   8.550
 4336POPC   D2A16120  10.538  43.916   8.250
 4336POPC   C3A16121  10.572  43.843   7.950
 4336POPC   C4A16122  10.554  43.918   7.650
 4336POPC   C1B16123  10.322  43.741   8.550
 4336POPC   C2B16124  10.380  43.728   8.250
 4336POPC   C3B16125  10.296  43.774   7.950
 4336POPC   C4B16126  10.291  43.751   7.650
 4337POPC   NC316127  12.054  35.365   9.450
 4337POPC   PO416128  12.057  35.312   9.150
 4337POPC   GL116129  12.087  35.398   8.850
 4337POPC   GL216130  12.165  35.358   8.850
 4337POPC   C1A16131  12.039  35.401   8.550
 4337POPC   D2A16132  12.080  35.387   8.250
 4337POPC   C3A16133  12.031  35.343   7.950
 4337POPC   C4A16134  12.093  35.328   7.650
 4337POPC   C1B16135  12.353  35.456   8.550
 4337POPC   C2B16136  12.335  35.378   8.250
 4337POPC   C3B16137  12.303  35.394   7.950
 4337POPC   C4B16138  12.360  35.394   7.650
 4338POPC   NC316139  15.141  40.767   9.450
 4338POPC   PO416140  15.224  40.782   9.150
 4338POPC   GL116141  15.197  40.831   8.850
 4338POPC   GL216142  15.105  40.822   8.850
 4338POPC   C1A16143  15.131  40.744   8.550
 4338POPC   D2A16144  15.187  40.803   8.250
 4338POPC   C3A16145  15.130  40.752   7.950
 4338POPC   C4A16146  15.212  40.750   7.650
 4338POPC   C1B16147  14.967  40.937   8.550
 4338POPC   C2B16148  15.006  40.926   8.250
 4338POPC   C3B16149  14.928  40.931   7.950
 4338POPC   C4B16150  14.931  40.945   7.650
 4339POPC   NC316151  24.482  43.934   9.450
 4339POPC   PO416152  24.492  43.853   9.150
 4339POPC   GL116153  24.469  43.854   8.850
 4339POPC   GL216154  24.491  43.719   8.850
 4339POPC   C1A16155  24.499  43.912   8.550
 4339POPC   D2A16156  24.447  43.884   8.250
 4339POPC   C3A16157  24.457  43.888   7.950
 4339POPC   C4A16158  24.521  43.847   7.650
 4339POPC   C1B16159  24.507  43.619   8.550
 4339POPC   C2B16160  24.423  43.640   8.250
 4339POPC   C3B16161  24.494  43.639   7.950
 4339POPC   C4B16162  24.419  43.599   7.650
 4340POPC   NC316163  23.747   5.075   9.450
 4340POPC   PO416164  23.712   5.125   9.150
 4340POPC   GL116165  23.757   5.112   8.850
 4340POPC   GL216166  23.773   4.976   8.850
 4340POPC   C1A16167  23.721   5.095   8.550
 4340POPC   D2A16168  23.721   5.122   8.250
 4340POPC   C3A16169  23.745   5.073   7.950
 4340POPC   C4A16170  23.730   5.064   7.650
 4340POPC   C1B16171  23.837   4.860   8.550
 4340POPC   C2B16172  23.774   4.905   8.250
 4340POPC   C3B16173  23.830   4.838   7.950
 4340POPC   C4B16174  23.771   4.898   7.650
 4341POPC   NC316175  37.686  40.819   9.450
 4341POPC   PO416176  37.650  40.753   9.150
 4341POPC   GL116177  37.659  40.812   8.850
 4341POPC   GL216178  37.651  40.701   8.850
 4341POPC   C1A16179  37.664  40.818   8.550
 4341POPC   D2A16180  37.729  40.785   8.250
 4341POPC   C3A16181  37.635  40.810   7.950
 4341POPC   C4A16182  37.700  40.741   7.650
 4341POPC   C1B16183  37.559  40.522   8.550
 4341POPC   C2B16184  37.543  40.544   8.250
 4341POPC   C3B16185  37.556  40.523   7.950
 4341POPC   C4B16186  37.519  40.598   7.650
 4342POPC   NC316187  43.088  26.858   9.450
 4342POPC   PO416188  43.076  26.830   9.150
 4342POPC   GL116189  43.144  26.774   8.850
 4342POPC   GL216190  43.219  26.783   8.850
 4342POPC   C1A16191  43.073  26.803   8.550
 4342POPC   D2A16192  43.119  26.783   8.250
 4342POPC   C3A16193  43.155  26.826   7.950
 4342POPC   C4A16194  43.136  26.838   7.650
 4342POPC   C1B16195  43.329  26.762   8.550
 4342POPC   C2B16196  43.401  26.703   8.250
 4342POPC   C3B16197  43.355  26.761   7.950
 4342POPC   C4B16198  43.340  26.774   7.650
 4343POPC   NC316199  15.906  43.118   9.450
 4343POPC   PO416200  15.920  43.064   9.150
 4343POPC   GL116201  15.978  43.117   8.850
 4343POPC   GL216202  15.946  43.239   8.850
 4343POPC   C1A16203  15.967  43.113   8.550
 4343POPC   D2A16204  16.004  43.142   8.250
 4343POPC   C3A16205  15.911  43.139   7.950
 4343POPC   C4A16206  15.992  43.118   7.650
 4343POPC   C1B16207  15.919  43.365   8.550
 4343POPC   C2B16208  15.947  43.390   8.250
 4343POPC   C3B16209  15.990  43.394   7.950
 4343POPC   C4B16210  15.955  43.338   7.650
 4344POPC   NC316211   9.010  38.464   9.450
 4344POPC   PO416212   8.975  38.452   9.150
 4344POPC   GL116213   8.937  38.439   8.850
 4344POPC   GL216214   8.988  38.389   8.850
 4344POPC   C1A16215   9.000  38.414   8.550
 4344POPC   D2A16216   8.936  38.496   8.250
 4344POPC   C3A16217   8.951  38.504   7.950
 4344POPC   C4A16218   9.014  38.435   7.650
 4344POPC   C1B16219   9.136  38.239   8.550
 4344POPC   C2B16220   9.055  38.264   8.250
 4344POPC   C3B16221   9.091  38.253   7.950
 4344POPC   C4B16222   9.070  38.201   7.650
 4345POPC   NC316223  26.771  11.294   9.450
 4345POPC   PO416224  26.813  11.333   9.150
 4345POPC   GL116225  26.866  11.321   8.850
 4345POPC   GL216226  26.923  11.389   8.850
 4345POPC   C1A16227  26.806  11.263   8.550
 4345POPC   D2A16228  26.799  11.290   8.250
 4345POPC   C3A16229  26.842  11.344   7.950
 4345POPC   C4A16230  26.849  11.341   7.650
 4345POPC   C1B16231  26.967  11.477   8.550
 4345POPC   C2B16232  26.934  11.493   8.250
 4345POPC   C3B16233  26.944  11.541   7.950
 4345POPC   C4B16234  27.007  11.537   7.650
 4346POPC   NC316235  38.477   1.992   9.450
 4346POPC   PO416236  38.487   2.022   9.150
 4346POPC   GL116237  38.474   1.980   8.850
 4346POPC   GL216238  38.372   1.998   8.850
 4346POPC   C1A16239  38.482   1.995   8.550
 4346POPC   D2A16240  38.466   2.003   8.250
 4346POPC   C3A16241  38.490   2.030   7.950
 4346POPC   C4A16242  38.489   1.981   7.650
 4346POPC   C1B16243  38.195   1.992   8.550
 4346POPC   C2B16244  38.166   1.953   8.250
 4346POPC   C3B16245  38.255   1.942   7.950
 4346POPC   C4B16246  38.185   1.950   7.650
 4347POPC   NC316247  38.478   4.317   9.450
 4347POPC   PO416248  38.503   4.280   9.150
 4347POPC   GL116249  38.468   4.287   8.850
 4347POPC   GL216250  38.397   4.398   8.850
 4347POPC   C1A16251  38.409   4.309   8.550
 4347POPC   D2A16252  38.466   4.295   8.250
 4347POPC   C3A16253  38.456   4.301   7.950
 4347POPC   C4A16254  38.468   4.358   7.650
 4347POPC   C1B16255  38.423   4.530   8.550
 4347POPC   C2B16256  38.377   4.518   8.250
 4347POPC   C3B16257  38.431   4.550   7.950
 4347POPC   C4B16258  38.358   4.600   7.650
 4348POPC   NC316259  42.346  25.238   9.450
 4348POPC   PO416260  42.323  25.293   9.150
 4348POPC   GL116261  42.309  25.287   8.850
 4348POPC   GL216262  42.484  25.310   8.850
 4348POPC   C1A16263  42.317  25.257   8.550
 4348POPC   D2A16264  42.375  25.221   8.250
 4348POPC   C3A16265  42.330  25.223   7.950
 4348POPC   C4A16266  42.358  25.263   7.650
 4348POPC   C1B16267  42.611  25.374   8.550
 4348POPC   C2B16268  42.563  25.329   8.250
 4348POPC   C3B16269  42.597  25.337   7.950
 4348POPC   C4B16270  42.578  25.313   7.650
 4349POPC   NC316271  23.731  11.274   9.450
 4349POPC   PO416272  23.718  11.302   9.150
 4349POPC   GL116273  23.707  11.279   8.850
 4349POPC   GL216274  23.638  11.338   8.850
 4349POPC   C1A16275  23.674  11.295   8.550
 4349POPC   D2A16276  23.759  11.254   8.250
 4349POPC   C3A16277  23.741  11.254   7.950
 4349POPC   C4A16278  23.720  11.271   7.650
 4349POPC   C1B16279  23.452  11.357   8.550
 4349POPC   C2B16280  23.456  11.275   8.250
 4349POPC   C3B16281  23.505  11.283   7.950
 4349POPC   C4B16282  23.485  11.357   7.650
 4350POPC   NC316283   8.177  24.461   9.450
 4350POPC   PO416284   8.170  24.470   9.150
 4350POPC   GL116285   8.235  24.515   8.850
 4350POPC   GL216286   8.099  24.479   8.850
 4350POPC   C1A16287   8.197  24.524   8.550
 4350POPC   D2A16288   8.190  24.479   8.250
 4350POPC   C3A16289   8.210  24.455   7.950
 4350POPC   C4A16290   8.216  24.462   7.650
 4350POPC   C1B16291   8.011  24.398   8.550
 4350POPC   C2B16292   7.925  24.348   8.250
 4350POPC   C3B16293   7.925  24.341   7.950
 4350POPC   C4B16294   7.991  24.421   7.650
 4351POPC   NC316295  29.140  15.983   9.450
 4351POPC   PO416296  29.109  15.957   9.150
 4351POPC   GL116297  29.146  15.933   8.850
 4351POPC   GL216298  29.180  16.048   8.850
 4351POPC   C1A16299  29.141  15.923   8.550
 4351POPC   D2A16300  29.151  15.909   8.250
 4351POPC   C3A16301  29.187  15.960   7.950
 4351POPC   C4A16302  29.106  15.958   7.650
 4351POPC   C1B16303  29.207  16.230   8.550
 4351POPC   C2B16304  29.211  16.231   8.250
 4351POPC   C3B16305  29.142  16.202   7.950
 4351POPC   C4B16306  29.139  16.171   7.650
 4352POPC   NC316307  26.859  32.278   9.450
 4352POPC   PO416308  26.780  32.204   9.150
 4352POPC   GL116309  26.776  32.239   8.850
 4352POPC   GL216310  26.893  32.197   8.850
 4352POPC   C1A16311  26.858  32.232   8.550
 4352POPC   D2A16312  26.819  32.214   8.250
 4352POPC   C3A16313  26.827  32.280   7.950
 4352POPC   C4A16314  26.772  32.241   7.650
 4352POPC   C1B16315  27.013  32.124   8.550
 4352POPC   C2B16316  27.074  32.119   8.250
 4352POPC   C3B16317  27.004  32.131   7.950
 4352POPC   C4B16318  27.096  32.184   7.650
 4353POPC   NC316319  29.171  18.268   9.450
 4353POPC   PO416320  29.110  18.267   9.150
 4353POPC   GL116321  29.151  18.260   8.850
 4353POPC   GL216322  29.052  18.208   8.850
 4353POPC   C1A16323  29.188  18.240   8.550
 4353POPC   D2A16324  29.133  18.262   8.250
 4353POPC   C3A16325  29.132  18.314   7.950
 4353POPC   C4A16326  29.164  18.316   7.650
 4353POPC   C1B16327  29.022  18.096   8.550
 4353POPC   C2B16328  29.031  18.106   8.250
 4353POPC   C3B16329  28.993  18.052   7.950
 4353POPC   C4B16330  29.038  18.050   7.650
 4354POPC   NC316331  34.589   5.915   9.450
 4354POPC   PO416332  34.596   5.890   9.150
 4354POPC   GL116333  34.576   5.848   8.850
 4354POPC   GL216334  34.453   5.831   8.850
 4354POPC   C1A16335  34.556   5.917   8.550
 4354POPC   D2A16336  34.608   5.855   8.250
 4354POPC   C3A16337  34.531   5.888   7.950
 4354POPC   C4A16338  34.595   5.826   7.650
 4354POPC   C1B16339  34.419   5.765   8.550
 4354POPC   C2B16340  34.338   5.750   8.250
 4354POPC   C3B16341  34.425   5.743   7.950
 4354POPC   C4B16342  34.361   5.689   7.650
 4355POPC   NC316343  30.745   5.131   9.450
 4355POPC   PO416344  30.738   5.101   9.150
 4355POPC   GL116345  30.665   5.056   8.850
 4355POPC   GL216346  30.788   5.127   8.850
 4355POPC   C1A16347  30.706   5.077   8.550
 4355POPC   D2A16348  30.662   5.046   8.250
 4355POPC   C3A16349  30.681   5.088   7.950
 4355POPC   C4A16350  30.653   5.056   7.650
 4355POPC   C1B16351  30.877   5.278   8.550
 4355POPC   C2B16352  30.896   5.223   8.250
 4355POPC   C3B16353  30.889   5.297   7.950
 4355POPC   C4B16354  30.928   5.251   7.650
 4356POPC   NC316355  34.594  22.165   9.450
 4356POPC   PO416356  34.562  22.194   9.150
 4356POPC   GL116357  34.565  22.154   8.850
 4356POPC   GL216358  34.594  22.242   8.850
 4356POPC   C1A16359  34.586  22.205   8.550
 4356POPC   D2A16360  34.588  22.179   8.250
 4356POPC   C3A16361  34.541  22.122   7.950
 4356POPC   C4A16362  34.538  22.128   7.650
 4356POPC   C1B16363  34.570  22.417   8.550
 4356POPC   C2B16364  34.622  22.379   8.250
 4356POPC   C3B16365  34.557  22.397   7.950
 4356POPC   C4B16366  34.627  22.407   7.650
 4357POPC   NC316367   9.719  26.046   9.450
 4357POPC   PO416368   9.785  26.062   9.150
 4357POPC   GL116369   9.702  26.004   8.850
 4357POPC   GL216370   9.700  26.135   8.850
 4357POPC   C1A16371   9.769  26.043   8.550
 4357POPC   D2A16372   9.712  26.054   8.250
 4357POPC   C3A16373   9.722  26.020   7.950
 4357POPC   C4A16374   9.767  25.992   7.650
 4357POPC   C1B16375   9.760  26.259   8.550
 4357POPC   C2B16376   9.708  26.305   8.250
 4357POPC   C3B16377   9.730  26.252   7.950
 4357POPC   C4B16378   9.708  26.262   7.650
 4358POPC   NC316379   3.589  21.414   9.450
 4358POPC   PO416380   3.495  21.426   9.150
 4358POPC   GL116381   3.578  21.404   8.850
 4358POPC   GL216382   3.651  21.474   8.850
 4358POPC   C1A16383   3.527  21.337   8.550
 4358POPC   D2A16384   3.564  21.371   8.250
 4358POPC   C3A16385   3.564  21.341   7.950
 4358POPC   C4A16386   3.522  21.423   7.650
 4358POPC   C1B16387   3.642  21.571   8.550
 4358POPC   C2B16388   3.653  21.578   8.250
 4358POPC   C3B16389   3.627  21.571   7.950
 4358POPC   C4B16390   3.680  21.631   7.650
 4359POPC   NC316391   5.883  33.067   9.450
 4359POPC   PO416392   5.897  33.000   9.150
 4359POPC   GL116393   5.857  33.010   8.850
 4359POPC   GL216394   5.757  33.086   8.850
 4359POPC   C1A16395   5.916  33.014   8.550
 4359POPC   D2A16396   5.914  33.007   8.250
 4359POPC   C3A16397   5.898  32.974   7.950
 4359POPC   C4A16398   5.845  33.009   7.650
 4359POPC   C1B16399   5.706  33.197   8.550
 4359POPC   C2B16400   5.641  33.195   8.250
 4359POPC   C3B16401   5.697  33.193   7.950
 4359POPC   C4B16402   5.716  33.231   7.650
 4360POPC   NC316403  34.607  15.154   9.450
 4360POPC   PO416404  34.586  15.166   9.150
 4360POPC   GL116405  34.576  15.152   8.850
 4360POPC   GL216406  34.658  15.038   8.850
 4360POPC   C1A16407  34.618  15.192   8.550
 4360POPC   D2A16408  34.550  15.133   8.250
 4360POPC   C3A16409  34.530  15.184   7.950
 4360POPC   C4A16410  34.625  15.191   7.650
 4360POPC   C1B16411  34.627  14.970   8.550
 4360POPC   C2B16412  34.672  14.933   8.250
 4360POPC   C3B16413  34.609  14.891   7.950
 4360POPC   C4B16414  34.661  14.951   7.650
 4361POPC   NC316415  12.085  12.818   9.450
 4361POPC   PO416416  12.048  12.843   9.150
 4361POPC   GL116417  12.109  12.862   8.850
 4361POPC   GL216418  11.933  12.876   8.850
 4361POPC   C1A16419  12.092  12.883   8.550
 4361POPC   D2A16420  12.077  12.826   8.250
 4361POPC   C3A16421  12.122  12.870   7.950
 4361POPC   C4A16422  12.105  12.894   7.650
 4361POPC   C1B16423  11.802  12.885   8.550
 4361POPC   C2B16424  11.817  12.870   8.250
 4361POPC   C3B16425  11.840  12.875   7.950
 4361POPC   C4B16426  11.849  12.925   7.650
 4362POPC   NC316427  27.547   5.870   9.450
 4362POPC   PO416428  27.620   5.914   9.150
 4362POPC   GL116429  27.583   5.849   8.850
 4362POPC   GL216430  27.522   5.969   8.850
 4362POPC   C1A16431  27.637   5.865   8.550
 4362POPC   D2A16432  27.606   5.857   8.250
 4362POPC   C3A16433  27.563   5.908   7.950
 4362POPC   C4A16434  27.597   5.824   7.650
 4362POPC   C1B16435  27.391   6.069   8.550
 4362POPC   C2B16436  27.454   6.065   8.250
 4362POPC   C3B16437  27.444   6.094   7.950
 4362POPC   C4B16438  27.395   6.026   7.650
 4363POPC   NC316439  37.693  36.122   9.450
 4363POPC   PO416440  37.692  36.169   9.150
 4363POPC   GL116441  37.717  36.162   8.850
 4363POPC   GL216442  37.800  36.174   8.850
 4363POPC   C1A16443  37.653  36.177   8.550
 4363POPC   D2A16444  37.678  36.117   8.250
 4363POPC   C3A16445  37.646  36.177   7.950
 4363POPC   C4A16446  37.652  36.142   7.650
 4363POPC   C1B16447  37.920  36.218   8.550
 4363POPC   C2B16448  37.964  36.163   8.250
 4363POPC   C3B16449  37.953  36.193   7.950
 4363POPC   C4B16450  37.879  36.203   7.650
 4364POPC   NC316451   3.564   7.446   9.450
 4364POPC   PO416452   3.589   7.402   9.150
 4364POPC   GL116453   3.557   7.469   8.850
 4364POPC   GL216454   3.439   7.359   8.850
 4364POPC   C1A16455   3.536   7.398   8.550
 4364POPC   D2A16456   3.558   7.446   8.250
 4364POPC   C3A16457   3.546   7.452   7.950
 4364POPC   C4A16458   3.504   7.454   7.650
 4364POPC   C1B16459   3.323   7.283   8.550
 4364POPC   C2B16460   3.401   7.279   8.250
 4364POPC   C3B16461   3.381   7.240   7.950
 4364POPC   C4B16462   3.324   7.235   7.650
 4365POPC   NC316463  10.522   9.782   9.450
 4365POPC   PO416464  10.491   9.740   9.150
 4365POPC   GL116465  10.546   9.770   8.850
 4365POPC   GL216466  10.448   9.614   8.850
 4365POPC   C1A16467  10.495   9.767   8.550
 4365POPC   D2A16468  10.550   9.716   8.250
 4365POPC   C3A16469  10.528   9.727   7.950
 4365POPC   C4A16470  10.531   9.728   7.650
 4365POPC   C1B16471  10.348   9.572   8.550
 4365POPC   C2B16472  10.378   9.533   8.250
 4365POPC   C3B16473  10.330   9.531   7.950
 4365POPC   C4B16474  10.413   9.549   7.650
 4366POPC   NC316475   7.401   8.196   9.450
 4366POPC   PO416476   7.424   8.170   9.150
 4366POPC   GL116477   7.468   8.167   8.850
 4366POPC   GL216478   7.554   8.082   8.850
 4366POPC   C1A16479   7.451   8.218   8.550
 4366POPC   D2A16480   7.415   8.222   8.250
 4366POPC   C3A16481   7.423   8.243   7.950
 4366POPC   C4A16482   7.384   8.198   7.650
 4366POPC   C1B16483   7.622   8.087   8.550
 4366POPC   C2B16484   7.595   8.035   8.250
 4366POPC   C3B16485   7.635   8.031   7.950
 4366POPC   C4B16486   7.644   7.997   7.650
 4367POPC   NC316487  42.378   5.122   9.450
 4367POPC   PO416488  42.325   5.088   9.150
 4367POPC   GL116489  42.285   5.064   8.850
 4367POPC   GL216490  42.305   5.256   8.850
 4367POPC   C1A16491  42.356   5.072   8.550
 4367POPC   D2A16492  42.303   5.050   8.250
 4367POPC   C3A16493  42.316   5.090   7.950
 4367POPC   C4A16494  42.382   5.062   7.650
 4367POPC   C1B16495  42.316   5.323   8.550
 4367POPC   C2B16496  42.279   5.327   8.250
 4367POPC   C3B16497  42.353   5.379   7.950
 4367POPC   C4B16498  42.283   5.352   7.650
 4368POPC   NC316499  20.602   0.450   9.450
 4368POPC   PO416500  20.653   0.403   9.150
 4368POPC   GL116501  20.626   0.465   8.850
 4368POPC   GL216502  20.543   0.534   8.850
 4368POPC   C1A16503  20.658   0.392   8.550
 4368POPC   D2A16504  20.609   0.477   8.250
 4368POPC   C3A16505  20.583   0.401   7.950
 4368POPC   C4A16506  20.631   0.451   7.650
 4368POPC   C1B16507  20.529   0.702   8.550
 4368POPC   C2B16508  20.505   0.672   8.250
 4368POPC   C3B16509  20.544   0.720   7.950
 4368POPC   C4B16510  20.525   0.649   7.650
 4369POPC   NC316511  22.972  15.939   9.450
 4369POPC   PO416512  22.905  15.918   9.150
 4369POPC   GL116513  22.906  15.965   8.850
 4369POPC   GL216514  22.799  15.909   8.850
 4369POPC   C1A16515  22.928  16.005   8.550
 4369POPC   D2A16516  22.980  15.950   8.250
 4369POPC   C3A16517  22.893  15.978   7.950
 4369POPC   C4A16518  22.905  15.906   7.650
 4369POPC   C1B16519  22.726  15.794   8.550
 4369POPC   C2B16520  22.703  15.820   8.250
 4369POPC   C3B16521  22.786  15.840   7.950
 4369POPC   C4B16522  22.704  15.749   7.650
 4370POPC   NC316523  29.109   2.769   9.450
 4370POPC   PO416524  29.176   2.751   9.150
 4370POPC   GL116525  29.136   2.802   8.850
 4370POPC   GL216526  29.234   2.661   8.850
 4370POPC   C1A16527  29.118   2.810   8.550
 4370POPC   D2A16528  29.134   2.759   8.250
 4370POPC   C3A16529  29.192   2.761   7.950
 4370POPC   C4A16530  29.170   2.751   7.650
 4370POPC   C1B16531  29.303   2.618   8.550
 4370POPC   C2B16532  29.314   2.568   8.250
 4370POPC   C3B16533  29.282   2.558   7.950
 4370POPC   C4B16534  29.289   2.616   7.650
 4371POPC   NC316535   3.524  33.780   9.450
 4371POPC   PO416536   3.563  33.751   9.150
 4371POPC   GL116537   3.506  33.840   8.850
 4371POPC   GL216538   3.435  33.738   8.850
 4371POPC   C1A16539   3.498  33.756   8.550
 4371POPC   D2A16540   3.509  33.796   8.250
 4371POPC   C3A16541   3.536  33.816   7.950
 4371POPC   C4A16542   3.573  33.817   7.650
 4371POPC   C1B16543   3.321  33.625   8.550
 4371POPC   C2B16544   3.381  33.686   8.250
 4371POPC   C3B16545   3.346  33.614   7.950
 4371POPC   C4B16546   3.319  33.649   7.650
 4372POPC   NC316547   5.084  29.957   9.450
 4372POPC   PO416548   5.137  29.907   9.150
 4372POPC   GL116549   5.093  29.909   8.850
 4372POPC   GL216550   5.033  29.867   8.850
 4372POPC   C1A16551   5.071  29.902   8.550
 4372POPC   D2A16552   5.049  29.969   8.250
 4372POPC   C3A16553   5.048  29.876   7.950
 4372POPC   C4A16554   5.099  29.885   7.650
 4372POPC   C1B16555   4.954  29.709   8.550
 4372POPC   C2B16556   4.982  29.691   8.250
 4372POPC   C3B16557   4.919  29.729   7.950
 4372POPC   C4B16558   4.985  29.762   7.650
 4373POPC   NC316559  30.700  36.936   9.450
 4373POPC   PO416560  30.718  36.899   9.150
 4373POPC   GL116561  30.709  36.913   8.850
 4373POPC   GL216562  30.637  36.779   8.850
 4373POPC   C1A16563  30.742  36.867   8.550
 4373POPC   D2A16564  30.738  36.857   8.250
 4373POPC   C3A16565  30.740  36.880   7.950
 4373POPC   C4A16566  30.711  36.911   7.650
 4373POPC   C1B16567  30.496  36.754   8.550
 4373POPC   C2B16568  30.460  36.745   8.250
 4373POPC   C3B16569  30.541  36.735   7.950
 4373POPC   C4B16570  30.460  36.698   7.650
 4374POPC   NC316571   6.616  36.080   9.450
 4374POPC   PO416572   6.608  36.151   9.150
 4374POPC   GL116573   6.607  36.159   8.850
 4374POPC   GL216574   6.538  36.214   8.850
 4374POPC   C1A16575   6.661  36.164   8.550
 4374POPC   D2A16576   6.629  36.117   8.250
 4374POPC   C3A16577   6.688  36.141   7.950
 4374POPC   C4A16578   6.630  36.091   7.650
 4374POPC   C1B16579   6.455  36.349   8.550
 4374POPC   C2B16580   6.519  36.334   8.250
 4374POPC   C3B16581   6.456  36.281   7.950
 4374POPC   C4B16582   6.517  36.300   7.650
 4375POPC   NC316583  22.143  22.987   9.450
 4375POPC   PO416584  22.180  22.983   9.150
 4375POPC   GL116585  22.132  22.960   8.850
 4375POPC   GL216586  22.013  22.900   8.850
 4375POPC   C1A16587  22.150  22.899   8.550
 4375POPC   D2A16588  22.170  22.891   8.250
 4375POPC   C3A16589  22.124  22.969   7.950
 4375POPC   C4A16590  22.114  22.925   7.650
 4375POPC   C1B16591  21.908  22.817   8.550
 4375POPC   C2B16592  21.982  22.807   8.250
 4375POPC   C3B16593  21.976  22.829   7.950
 4375POPC   C4B16594  21.981  22.808   7.650
 4376POPC   NC316595  19.019  29.144   9.450
 4376POPC   PO416596  19.085  29.133   9.150
 4376POPC   GL116597  19.061  29.188   8.850
 4376POPC   GL216598  18.916  29.128   8.850
 4376POPC   C1A16599  19.026  29.130   8.550
 4376POPC   D2A16600  19.066  29.189   8.250
 4376POPC   C3A16601  19.101  29.119   7.950
 4376POPC   C4A16602  19.073  29.146   7.650
 4376POPC   C1B16603  18.843  29.113   8.550
 4376POPC   C2B16604  18.837  29.028   8.250
 4376POPC   C3B16605  18.796  29.048   7.950
 4376POPC   C4B16606  18.819  29.037   7.650
 4377POPC   NC316607  18.249  22.191   9.450
 4377POPC   PO416608  18.297  22.135   9.150
 4377POPC   GL116609  18.311  22.159   8.850
 4377POPC   GL216610  18.189  22.190   8.850
 4377POPC   C1A16611  18.296  22.113   8.550
 4377POPC   D2A16612  18.325  22.112   8.250
 4377POPC   C3A16613  18.268  22.184   7.950
 4377POPC   C4A16614  18.278  22.196   7.650
 4377POPC   C1B16615  18.063  22.215   8.550
 4377POPC   C2B16616  17.987  22.174   8.250
 4377POPC   C3B16617  18.040  22.171   7.950
 4377POPC   C4B16618  18.053  22.203   7.650
 4378POPC   NC316619  32.210  25.254   9.450
 4378POPC   PO416620  32.263  25.224   9.150
 4378POPC   GL116621  32.214  25.221   8.850
 4378POPC   GL216622  32.094  25.160   8.850
 4378POPC   C1A16623  32.267  25.308   8.550
 4378POPC   D2A16624  32.284  25.282   8.250
 4378POPC   C3A16625  32.227  25.236   7.950
 4378POPC   C4A16626  32.284  25.271   7.650
 4378POPC   C1B16627  32.038  25.101   8.550
 4378POPC   C2B16628  32.030  25.122   8.250
 4378POPC   C3B16629  32.015  25.119   7.950
 4378POPC   C4B16630  32.025  25.091   7.650
 4379POPC   NC316631   1.225  29.875   9.450
 4379POPC   PO416632   1.167  29.916   9.150
 4379POPC   GL116633   1.169  29.936   8.850
 4379POPC   GL216634   1.354  29.980   8.850
 4379POPC   C1A16635   1.236  29.920   8.550
 4379POPC   D2A16636   1.256  29.916   8.250
 4379POPC   C3A16637   1.193  29.897   7.950
 4379POPC   C4A16638   1.243  29.909   7.650
 4379POPC   C1B16639   1.397  30.017   8.550
 4379POPC   C2B16640   1.402  30.031   8.250
 4379POPC   C3B16641   1.422  30.048   7.950
 4379POPC   C4B16642   1.397  30.034   7.650
 4380POPC   NC316643  36.938  42.313   9.450
 4380POPC   PO416644  36.931  42.297   9.150
 4380POPC   GL116645  36.893  42.383   8.850
 4380POPC   GL216646  37.030  42.288   8.850
 4380POPC   C1A16647  36.932  42.347   8.550
 4380POPC   D2A16648  36.913  42.341   8.250
 4380POPC   C3A16649  36.945  42.304   7.950
 4380POPC   C4A16650  36.868  42.374   7.650
 4380POPC   C1B16651  37.132  42.208   8.550
 4380POPC   C2B16652  37.182  42.237   8.250
 4380POPC   C3B16653  37.098  42.291   7.950
 4380POPC   C4B16654  37.155  42.219   7.650
 4381POPC   NC316655  44.695  26.061   9.450
 4381POPC   PO416656  44.709  25.994   9.150
 4381POPC   GL116657  44.639  26.043   8.850
 4381POPC   GL216658  44.589  26.125   8.850
 4381POPC   C1A16659  44.697  26.091   8.550
 4381POPC   D2A16660  44.648  26.020   8.250
 4381POPC   C3A16661  44.619  25.997   7.950
 4381POPC   C4A16662  44.653  26.061   7.650
 4381POPC   C1B16663  44.466  26.248   8.550
 4381POPC   C2B16664  44.435  26.186   8.250
 4381POPC   C3B16665  44.452  26.199   7.950
 4381POPC   C4B16666  44.500  26.165   7.650
 4382POPC   NC316667   0.429  12.082   9.450
 4382POPC   PO416668   0.391  12.092   9.150
 4382POPC   GL116669   0.483  12.057   8.850
 4382POPC   GL216670   0.464  11.971   8.850
 4382POPC   C1A16671   0.469  12.057   8.550
 4382POPC   D2A16672   0.400  12.085   8.250
 4382POPC   C3A16673   0.470  12.041   7.950
 4382POPC   C4A16674   0.452  12.118   7.650
 4382POPC   C1B16675   0.423  11.778   8.550
 4382POPC   C2B16676   0.469  11.807   8.250
 4382POPC   C3B16677   0.510  11.807   7.950
 4382POPC   C4B16678   0.499  11.782   7.650
 4383POPC   NC316679  21.355  43.925   9.450
 4383POPC   PO416680  21.424  43.845   9.150
 4383POPC   GL116681  21.392  43.839   8.850
 4383POPC   GL216682  21.357  44.054   8.850
 4383POPC   C1A16683  21.354  43.890   8.550
 4383POPC   D2A16684  21.347  43.873   8.250
 4383POPC   C3A16685  21.396  43.895   7.950
 4383POPC   C4A16686  21.363  43.919   7.650
 4383POPC   C1B16687  21.381  44.111   8.550
 4383POPC   C2B16688  21.330  44.102   8.250
 4383POPC   C3B16689  21.412  44.100   7.950
 4383POPC   C4B16690  21.390  44.178   7.650
 4384POPC   NC316691   7.461  13.625   9.450
 4384POPC   PO416692   7.413  13.606   9.150
 4384POPC   GL116693   7.379  13.642   8.850
 4384POPC   GL216694   7.503  13.591   8.850
 4384POPC   C1A16695   7.441  13.667   8.550
 4384POPC   D2A16696   7.386  13.627   8.250
 4384POPC   C3A16697   7.391  13.645   7.950
 4384POPC   C4A16698   7.395  13.621   7.650
 4384POPC   C1B16699   7.615  13.512   8.550
 4384POPC   C2B16700   7.684  13.542   8.250
 4384POPC   C3B16701   7.630  13.501   7.950
 4384POPC   C4B16702   7.691  13.532   7.650
 4385POPC   NC316703  40.019   2.761   9.450
 4385POPC   PO416704  39.991   2.758   9.150
 4385POPC   GL116705  40.041   2.812   8.850
 4385POPC   GL216706  40.096   2.648   8.850
 4385POPC   C1A16707  40.003   2.803   8.550
 4385POPC   D2A16708  40.055   2.766   8.250
 4385POPC   C3A16709  40.026   2.752   7.950
 4385POPC   C4A16710  40.043   2.786   7.650
 4385POPC   C1B16711  40.144   2.585   8.550
 4385POPC   C2B16712  40.152   2.555   8.250
 4385POPC   C3B16713  40.103   2.578   7.950
 4385POPC   C4B16714  40.100   2.514   7.650
 4386POPC   NC316715  42.346  22.153   9.450
 4386POPC   PO416716  42.334  22.119   9.150
 4386POPC   GL116717  42.357  22.133   8.850
 4386POPC   GL216718  42.355  22.061   8.850
 4386POPC   C1A16719  42.384  22.142   8.550
 4386POPC   D2A16720  42.298  22.206   8.250
 4386POPC   C3A16721  42.304  22.165   7.950
 4386POPC   C4A16722  42.331  22.126   7.650
 4386POPC   C1B16723  42.346  21.961   8.550
 4386POPC   C2B16724  42.296  21.931   8.250
 4386POPC   C3B16725  42.328  21.930   7.950
 4386POPC   C4B16726  42.360  21.865   7.650
 4387POPC   NC316727  28.369  36.927   9.450
 4387POPC   PO416728  28.334  36.929   9.150
 4387POPC   GL116729  28.335  36.919   8.850
 4387POPC   GL216730  28.459  36.936   8.850
 4387POPC   C1A16731  28.375  36.903   8.550
 4387POPC   D2A16732  28.413  36.915   8.250
 4387POPC   C3A16733  28.402  36.859   7.950
 4387POPC   C4A16734  28.322  36.934   7.650
 4387POPC   C1B16735  28.627  36.974   8.550
 4387POPC   C2B16736  28.601  37.041   8.250
 4387POPC   C3B16737  28.603  36.993   7.950
 4387POPC   C4B16738  28.591  36.964   7.650
 4388POPC   NC316739   3.589  42.362   9.450
 4388POPC   PO416740   3.543  42.324   9.150
 4388POPC   GL116741   3.579  42.373   8.850
 4388POPC   GL216742   3.487  42.229   8.850
 4388POPC   C1A16743   3.561  42.307   8.550
 4388POPC   D2A16744   3.589  42.289   8.250
 4388POPC   C3A16745   3.590  42.338   7.950
 4388POPC   C4A16746   3.501  42.317   7.650
 4388POPC   C1B16747   3.523  42.042   8.550
 4388POPC   C2B16748   3.489  42.083   8.250
 4388POPC   C3B16749   3.481  42.077   7.950
 4388POPC   C4B16750   3.571  42.075   7.650
 4389POPC   NC316751  20.589   1.213   9.450
 4389POPC   PO416752  20.577   1.177   9.150
 4389POPC   GL116753  20.654   1.211   8.850
 4389POPC   GL216754  20.582   1.071   8.850
 4389POPC   C1A16755  20.641   1.261   8.550
 4389POPC   D2A16756  20.599   1.209   8.250
 4389POPC   C3A16757  20.642   1.205   7.950
 4389POPC   C4A16758  20.593   1.216   7.650
 4389POPC   C1B16759  20.487   1.028   8.550
 4389POPC   C2B16760  20.515   0.958   8.250
 4389POPC   C3B16761  20.459   1.024   7.950
 4389POPC   C4B16762  20.499   0.973   7.650
 4390POPC   NC316763  18.279   0.416   9.450
 4390POPC   PO416764  18.323   0.423   9.150
 4390POPC   GL116765  18.322   0.417   8.850
 4390POPC   GL216766  18.303   0.576   8.850
 4390POPC   C1A16767  18.314   0.471   8.550
 4390POPC   D2A16768  18.290   0.445   8.250
 4390POPC   C3A16769  18.294   0.479   7.950
 4390POPC   C4A16770  18.260   0.439   7.650
 4390POPC   C1B16771  18.455   0.694   8.550
 4390POPC   C2B16772  18.399   0.695   8.250
 4390POPC   C3B16773  18.413   0.676   7.950
 4390POPC   C4B16774  18.426   0.606   7.650
 4391POPC   NC316775  25.311   0.390   9.450
 4391POPC   PO416776  25.218   0.393   9.150
 4391POPC   GL116777  25.231   0.429   8.850
 4391POPC   GL216778  25.142   0.541   8.850
 4391POPC   C1A16779  25.268   0.402   8.550
 4391POPC   D2A16780  25.266   0.473   8.250
 4391POPC   C3A16781  25.244   0.471   7.950
 4391POPC   C4A16782  25.246   0.451   7.650
 4391POPC   C1B16783  25.086   0.576   8.550
 4391POPC   C2B16784  25.073   0.636   8.250
 4391POPC   C3B16785  25.111   0.606   7.950
 4391POPC   C4B16786  25.054   0.586   7.650
 4392POPC   NC316787  38.471  36.953   9.450
 4392POPC   PO416788  38.420  36.923   9.150
 4392POPC   GL116789  38.421  36.918   8.850
 4392POPC   GL216790  38.426  36.753   8.850
 4392POPC   C1A16791  38.427  36.948   8.550
 4392POPC   D2A16792  38.498  36.858   8.250
 4392POPC   C3A16793  38.426  36.952   7.950
 4392POPC   C4A16794  38.461  36.885   7.650
 4392POPC   C1B16795  38.442  36.661   8.550
 4392POPC   C2B16796  38.438  36.674   8.250
 4392POPC   C3B16797  38.485  36.646   7.950
 4392POPC   C4B16798  38.450  36.704   7.650
 4393POPC   NC316799  43.148  12.057   9.450
 4393POPC   PO416800  43.075  12.031   9.150
 4393POPC   GL116801  43.126  12.081   8.850
 4393POPC   GL216802  43.029  12.165   8.850
 4393POPC   C1A16803  43.088  12.102   8.550
 4393POPC   D2A16804  43.119  12.046   8.250
 4393POPC   C3A16805  43.123  12.059   7.950
 4393POPC   C4A16806  43.097  12.099   7.650
 4393POPC   C1B16807  42.885  12.275   8.550
 4393POPC   C2B16808  42.891  12.277   8.250
 4393POPC   C3B16809  42.919  12.264   7.950
 4393POPC   C4B16810  42.890  12.238   7.650
 4394POPC   NC316811   5.829   7.424   9.450
 4394POPC   PO416812   5.878   7.380   9.150
 4394POPC   GL116813   5.901   7.420   8.850
 4394POPC   GL216814   5.765   7.297   8.850
 4394POPC   C1A16815   5.861   7.392   8.550
 4394POPC   D2A16816   5.833   7.455   8.250
 4394POPC   C3A16817   5.915   7.430   7.950
 4394POPC   C4A16818   5.889   7.388   7.650
 4394POPC   C1B16819   5.700   7.274   8.550
 4394POPC   C2B16820   5.659   7.249   8.250
 4394POPC   C3B16821   5.706   7.192   7.950
 4394POPC   C4B16822   5.695   7.235   7.650
 4395POPC   NC316823  33.848  28.343   9.450
 4395POPC   PO416824  33.786  28.342   9.150
 4395POPC   GL116825  33.766  28.387   8.850
 4395POPC   GL216826  33.831  28.486   8.850
 4395POPC   C1A16827  33.845  28.350   8.550
 4395POPC   D2A16828  33.779  28.380   8.250
 4395POPC   C3A16829  33.764  28.359   7.950
 4395POPC   C4A16830  33.798  28.339   7.650
 4395POPC   C1B16831  33.910  28.618   8.550
 4395POPC   C2B16832  33.940  28.644   8.250
 4395POPC   C3B16833  33.845  28.558   7.950
 4395POPC   C4B16834  33.866  28.632   7.650
 4396POPC   NC316835  32.278  36.855   9.450
 4396POPC   PO416836  32.251  36.951   9.150
 4396POPC   GL116837  32.261  36.866   8.850
 4396POPC   GL216838  32.206  36.827   8.850
 4396POPC   C1A16839  32.295  36.942   8.550
 4396POPC   D2A16840  32.261  36.943   8.250
 4396POPC   C3A16841  32.244  36.915   7.950
 4396POPC   C4A16842  32.228  36.910   7.650
 4396POPC   C1B16843  32.201  36.690   8.550
 4396POPC   C2B16844  32.196  36.636   8.250
 4396POPC   C3B16845  32.130  36.708   7.950
 4396POPC   C4B16846  32.170  36.695   7.650
 4397POPC   NC316847   5.139  14.362   9.450
 4397POPC   PO416848   5.062  14.419   9.150
 4397POPC   GL116849   5.053  14.357   8.850
 4397POPC   GL216850   4.981  14.486   8.850
 4397POPC   C1A16851   5.080  14.413   8.550
 4397POPC   D2A16852   5.130  14.422   8.250
 4397POPC   C3A16853   5.060  14.432   7.950
 4397POPC   C4A16854   5.080  14.447   7.650
 4397POPC   C1B16855   4.907  14.625   8.550
 4397POPC   C2B16856   4.941  14.586   8.250
 4397POPC   C3B16857   4.963  14.594   7.950
 4397POPC   C4B16858   4.952  14.609   7.650
 4398POPC   NC316859  33.764   2.734   9.450
 4398POPC   PO416860  33.778   2.782   9.150
 4398POPC   GL116861  33.850   2.811   8.850
 4398POPC   GL216862  33.852   2.635   8.850
 4398POPC   C1A16863  33.816   2.782   8.550
 4398POPC   D2A16864  33.771   2.753   8.250
 4398POPC   C3A16865  33.756   2.760   7.950
 4398POPC   C4A16866  33.832   2.747   7.650
 4398POPC   C1B16867  33.996   2.601   8.550
 4398POPC   C2B16868  33.962   2.564   8.250
 4398POPC   C3B16869  33.972   2.607   7.950
 4398POPC   C4B16870  33.991   2.619   7.650
 4399POPC   NC316871  24.520  40.032   9.450
 4399POPC   PO416872  24.528  40.018   9.150
 4399POPC   GL116873  24.522  39.957   8.850
 4399POPC   GL216874  24.492  40.150   8.850
 4399POPC   C1A16875  24.507  39.994   8.550
 4399POPC   D2A16876  24.502  40.022   8.250
 4399POPC   C3A16877  24.444  40.033   7.950
 4399POPC   C4A16878  24.525  39.985   7.650
 4399POPC   C1B16879  24.530  40.247   8.550
 4399POPC   C2B16880  24.561  40.245   8.250
 4399POPC   C3B16881  24.528  40.249   7.950
 4399POPC   C4B16882  24.528  40.298   7.650
 4400POPC   NC316883  32.227  11.329   9.450
 4400POPC   PO416884  32.250  11.268   9.150
 4400POPC   GL116885  32.240  11.317   8.850
 4400POPC   GL216886  32.354  11.329   8.850
 4400POPC   C1A16887  32.253  11.318   8.550
 4400POPC   D2A16888  32.210  11.280   8.250
 4400POPC   C3A16889  32.225  11.308   7.950
 4400POPC   C4A16890  32.274  11.302   7.650
 4400POPC   C1B16891  32.524  11.311   8.550
 4400POPC   C2B16892  32.463  11.290   8.250
 4400POPC   C3B16893  32.532  11.252   7.950
 4400POPC   C4B16894  32.489  11.266   7.650
 4401POPC   NC316895  32.207  16.714   9.450
 4401POPC   PO416896  32.204  16.734   9.150
 4401POPC   GL116897  32.255  16.778   8.850
 4401POPC   GL216898  32.163  16.830   8.850
 4401POPC   C1A16899  32.220  16.690   8.550
 4401POPC   D2A16900  32.280  16.689   8.250
 4401POPC   C3A16901  32.258  16.764   7.950
 4401POPC   C4A16902  32.243  16.758   7.650
 4401POPC   C1B16903  32.070  16.941   8.550
 4401POPC   C2B16904  32.086  16.945   8.250
 4401POPC   C3B16905  32.046  16.889   7.950
 4401POPC   C4B16906  32.091  16.868   7.650
 4402POPC   NC316907  41.578   1.948   9.450
 4402POPC   PO416908  41.519   1.944   9.150
 4402POPC   GL116909  41.572   1.971   8.850
 4402POPC   GL216910  41.408   1.993   8.850
 4402POPC   C1A16911  41.536   1.977   8.550
 4402POPC   D2A16912  41.537   1.983   8.250
 4402POPC   C3A16913  41.551   2.012   7.950
 4402POPC   C4A16914  41.517   2.021   7.650
 4402POPC   C1B16915  41.280   2.019   8.550
 4402POPC   C2B16916  41.328   2.029   8.250
 4402POPC   C3B16917  41.356   2.027   7.950
 4402POPC   C4B16918  41.271   2.022   7.650
 4403POPC   NC316919  36.943  32.286   9.450
 4403POPC   PO416920  36.905  32.240   9.150
 4403POPC   GL116921  36.933  32.274   8.850
 4403POPC   GL216922  36.830  32.147   8.850
 4403POPC   C1A16923  36.900  32.244   8.550
 4403POPC   D2A16924  36.948  32.209   8.250
 4403POPC   C3A16925  36.902  32.255   7.950
 4403POPC   C4A16926  36.861  32.245   7.650
 4403POPC   C1B16927  36.705  32.060   8.550
 4403POPC   C2B16928  36.753  32.040   8.250
 4403POPC   C3B16929  36.769  32.116   7.950
 4403POPC   C4B16930  36.681  32.029   7.650
 4404POPC   NC316931  15.209  26.056   9.450
 4404POPC   PO416932  15.143  26.057   9.150
 4404POPC   GL116933  15.147  26.050   8.850
 4404POPC   GL216934  15.326  26.102   8.850
 4404POPC   C1A16935  15.149  26.046   8.550
 4404POPC   D2A16936  15.180  26.077   8.250
 4404POPC   C3A16937  15.146  26.020   7.950
 4404POPC   C4A16938  15.217  26.063   7.650
 4404POPC   C1B16939  15.439  26.096   8.550
 4404POPC   C2B16940  15.473  26.062   8.250
 4404POPC   C3B16941  15.418  26.100   7.950
 4404POPC   C4B16942  15.405  26.083   7.650
 4405POPC   NC316943   6.681  44.614   9.450
 4405POPC   PO416944   6.646  44.705   9.150
 4405POPC   GL116945   6.630  44.648   8.850
 4405POPC   GL216946   6.576  44.622   8.850
 4405POPC   C1A16947   6.689  44.636   8.550
 4405POPC   D2A16948   6.665  44.647   8.250
 4405POPC   C3A16949   6.636  44.707   7.950
 4405POPC   C4A16950   6.621  44.689   7.650
 4405POPC   C1B16951   6.405  44.468   8.550
 4405POPC   C2B16952   6.451  44.487   8.250
 4405POPC   C3B16953   6.489  44.534   7.950
 4405POPC   C4B16954   6.423  44.545   7.650
 4406POPC   NC316955  25.298   1.946   9.450
 4406POPC   PO416956  25.310   2.010   9.150
 4406POPC   GL116957  25.286   2.032   8.850
 4406POPC   GL216958  25.360   2.106   8.850
 4406POPC   C1A16959  25.296   1.967   8.550
 4406POPC   D2A16960  25.251   1.974   8.250
 4406POPC   C3A16961  25.251   1.986   7.950
 4406POPC   C4A16962  25.261   1.992   7.650
 4406POPC   C1B16963  25.473   2.182   8.550
 4406POPC   C2B16964  25.498   2.102   8.250
 4406POPC   C3B16965  25.507   2.140   7.950
 4406POPC   C4B16966  25.466   2.160   7.650
 4407POPC   NC316967  24.510  28.390   9.450
 4407POPC   PO416968  24.478  28.367   9.150
 4407POPC   GL116969  24.485  28.345   8.850
 4407POPC   GL216970  24.513  28.465   8.850
 4407POPC   C1A16971  24.494  28.357   8.550
 4407POPC   D2A16972  24.450  28.378   8.250
 4407POPC   C3A16973  24.467  28.331   7.950
 4407POPC   C4A16974  24.530  28.412   7.650
 4407POPC   C1B16975  24.425  28.583   8.550
 4407POPC   C2B16976  24.485  28.660   8.250
 4407POPC   C3B16977  24.454  28.609   7.950
 4407POPC   C4B16978  24.464  28.604   7.650
 4408POPC   NC316979  14.400  27.626   9.450
 4408POPC   PO416980  14.364  27.587   9.150
 4408POPC   GL116981  14.422  27.570   8.850
 4408POPC   GL216982  14.451  27.704   8.850
 4408POPC   C1A16983  14.397  27.584   8.550
 4408POPC   D2A16984  14.442  27.615   8.250
 4408POPC   C3A16985  14.404  27.594   7.950
 4408POPC   C4A16986  14.415  27.592   7.650
 4408POPC   C1B16987  14.513  27.806   8.550
 4408POPC   C2B16988  14.498  27.880   8.250
 4408POPC   C3B16989  14.522  27.836   7.950
 4408POPC   C4B16990  14.445  27.805   7.650
 4409POPC   NC316991  34.548  42.367   9.450
 4409POPC   PO416992  34.616  42.369   9.150
 4409POPC   GL116993  34.544  42.338   8.850
 4409POPC   GL216994  34.719  42.342   8.850
 4409POPC   C1A16995  34.618  42.350   8.550
 4409POPC   D2A16996  34.548  42.343   8.250
 4409POPC   C3A16997  34.540  42.338   7.950
 4409POPC   C4A16998  34.563  42.319   7.650
 4409POPC   C1B16999  34.855  42.336   8.550
 4409POPC   C2B17000  34.859  42.340   8.250
 4409POPC   C3B17001  34.828  42.368   7.950
 4409POPC   C4B17002  34.819  42.285   7.650
 4410POPC   NC317003   5.892  30.659   9.450
 4410POPC   PO417004   5.867  30.731   9.150
 4410POPC   GL117005   5.904  30.715   8.850
 4410POPC   GL217006   5.954  30.798   8.850
 4410POPC   C1A17007   5.840  30.659   8.550
 4410POPC   D2A17008   5.913  30.675   8.250
 4410POPC   C3A17009   5.880  30.662   7.950
 4410POPC   C4A17010   5.841  30.692   7.650
 4410POPC   C1B17011   5.979  30.934   8.550
 4410POPC   C2B17012   5.912  30.914   8.250
 4410POPC   C3B17013   5.910  30.945   7.950
 4410POPC   C4B17014   5.964  30.883   7.650
 4411POPC   NC317015  15.999  37.671   9.450
 4411POPC   PO417016  15.954  37.642   9.150
 4411POPC   GL117017  15.994  37.657   8.850
 4411POPC   GL217018  15.900  37.631   8.850
 4411POPC   C1A17019  15.954  37.716   8.550
 4411POPC   D2A17020  15.934  37.681   8.250
 4411POPC   C3A17021  15.922  37.688   7.950
 4411POPC   C4A17022  15.980  37.681   7.650
 4411POPC   C1B17023  15.792  37.475   8.550
 4411POPC   C2B17024  15.796  37.469   8.250
 4411POPC   C3B17025  15.820  37.532   7.950
 4411POPC   C4B17026  15.779  37.526   7.650
 4412POPC   NC317027  32.278  40.816   9.450
 4412POPC   PO417028  32.239  40.812   9.150
 4412POPC   GL117029  32.217  40.741   8.850
 4412POPC   GL217030  32.315  40.939   8.850
 4412POPC   C1A17031  32.252  40.768   8.550
 4412POPC   D2A17032  32.224  40.767   8.250
 4412POPC   C3A17033  32.209  40.745   7.950
 4412POPC   C4A17034  32.225  40.809   7.650
 4412POPC   C1B17035  32.273  40.990   8.550
 4412POPC   C2B17036  32.343  41.024   8.250
 4412POPC   C3B17037  32.336  41.001   7.950
 4412POPC   C4B17038  32.341  41.012   7.650
 4413POPC   NC317039  40.802  22.163   9.450
 4413POPC   PO417040  40.742  22.140   9.150
 4413POPC   GL117041  40.757  22.119   8.850
 4413POPC   GL217042  40.847  22.139   8.850
 4413POPC   C1A17043  40.779  22.144   8.550
 4413POPC   D2A17044  40.769  22.187   8.250
 4413POPC   C3A17045  40.824  22.192   7.950
 4413POPC   C4A17046  40.815  22.180   7.650
 4413POPC   C1B17047  40.975  21.992   8.550
 4413POPC   C2B17048  41.018  22.073   8.250
 4413POPC   C3B17049  41.014  22.066   7.950
 4413POPC   C4B17050  40.954  22.059   7.650
 4414POPC   NC317051  30.649  12.882   9.450
 4414POPC   PO417052  30.673  12.825   9.150
 4414POPC   GL117053  30.647  12.881   8.850
 4414POPC   GL217054  30.807  12.922   8.850
 4414POPC   C1A17055  30.653  12.902   8.550
 4414POPC   D2A17056  30.716  12.854   8.250
 4414POPC   C3A17057  30.716  12.884   7.950
 4414POPC   C4A17058  30.720  12.842   7.650
 4414POPC   C1B17059  30.947  12.959   8.550
 4414POPC   C2B17060  30.950  12.968   8.250
 4414POPC   C3B17061  30.899  12.966   7.950
 4414POPC   C4B17062  30.972  12.956   7.650
 4415POPC   NC317063  15.975   8.998   9.450
 4415POPC   PO417064  16.001   8.940   9.150
 4415POPC   GL117065  15.944   8.924   8.850
 4415POPC   GL217066  15.796   8.961   8.850
 4415POPC   C1A17067  15.939   8.981   8.550
 4415POPC   D2A17068  15.989   8.935   8.250
 4415POPC   C3A17069  15.907   9.004   7.950
 4415POPC   C4A17070  15.926   9.020   7.650
 4415POPC   C1B17071  15.688   8.931   8.550
 4415POPC   C2B17072  15.683   8.970   8.250
 4415POPC   C3B17073  15.722   8.906   7.950
 4415POPC   C4B17074  15.708   8.905   7.650
 4416POPC   NC317075  22.116  31.457   9.450
 4416POPC   PO417076  22.117  31.521   9.150
 4416POPC   GL117077  22.184  31.482   8.850
 4416POPC   GL217078  22.097  31.609   8.850
 4416POPC   C1A17079  22.206  31.427   8.550
 4416POPC   D2A17080  22.150  31.464   8.250
 4416POPC   C3A17081  22.113  31.477   7.950
 4416POPC   C4A17082  22.121  31.479   7.650
 4416POPC   C1B17083  22.131  31.734   8.550
 4416POPC   C2B17084  22.136  31.673   8.250
 4416POPC   C3B17085  22.133  31.757   7.950
 4416POPC   C4B17086  22.084  31.759   7.650
 4417POPC   NC317087  12.075  39.999   9.450
 4417POPC   PO417088  12.068  39.988   9.150
 4417POPC   GL117089  12.091  39.981   8.850
 4417POPC   GL217090  12.114  40.107   8.850
 4417POPC   C1A17091  12.103  39.981   8.550
 4417POPC   D2A17092  12.092  39.961   8.250
 4417POPC   C3A17093  12.109  39.980   7.950
 4417POPC   C4A17094  12.077  39.970   7.650
 4417POPC   C1B17095  12.097  40.216   8.550
 4417POPC   C2B17096  12.105  40.221   8.250
 4417POPC   C3B17097  12.085  40.210   7.950
 4417POPC   C4B17098  12.059  40.223   7.650
 4418POPC   NC317099  21.362  32.275   9.450
 4418POPC   PO417100  21.414  32.208   9.150
 4418POPC   GL117101  21.408  32.291   8.850
 4418POPC   GL217102  21.511  32.387   8.850
 4418POPC   C1A17103  21.344  32.295   8.550
 4418POPC   D2A17104  21.366  32.206   8.250
 4418POPC   C3A17105  21.418  32.294   7.950
 4418POPC   C4A17106  21.368  32.249   7.650
 4418POPC   C1B17107  21.578  32.479   8.550
 4418POPC   C2B17108  21.523  32.453   8.250
 4418POPC   C3B17109  21.554  32.437   7.950
 4418POPC   C4B17110  21.497  32.452   7.650
 4419POPC   NC317111  32.990  37.680   9.450
 4419POPC   PO417112  33.034  37.639   9.150
 4419POPC   GL117113  33.017  37.718   8.850
 4419POPC   GL217114  32.947  37.619   8.850
 4419POPC   C1A17115  33.063  37.710   8.550
 4419POPC   D2A17116  33.049  37.683   8.250
 4419POPC   C3A17117  33.037  37.678   7.950
 4419POPC   C4A17118  33.017  37.633   7.650
 4419POPC   C1B17119  32.796  37.566   8.550
 4419POPC   C2B17120  32.834  37.621   8.250
 4419POPC   C3B17121  32.753  37.579   7.950
 4419POPC   C4B17122  32.786  37.595   7.650
 4420POPC   NC317123  16.697   9.770   9.450
 4420POPC   PO417124  16.752   9.717   9.150
 4420POPC   GL117125  16.715   9.796   8.850
 4420POPC   GL217126  16.784   9.840   8.850
 4420POPC   C1A17127  16.750   9.705   8.550
 4420POPC   D2A17128  16.762   9.779   8.250
 4420POPC   C3A17129  16.776   9.794   7.950
 4420POPC   C4A17130  16.774   9.732   7.650
 4420POPC   C1B17131  16.957   9.880   8.550
 4420POPC   C2B17132  16.913   9.905   8.250
 4420POPC   C3B17133  16.919   9.852   7.950
 4420POPC   C4B17134  16.922   9.871   7.650
 4421POPC   NC317135  32.980  33.813   9.450
 4421POPC   PO417136  33.017  33.834   9.150
 4421POPC   GL117137  33.031  33.832   8.850
 4421POPC   GL217138  32.876  33.771   8.850
 4421POPC   C1A17139  32.985  33.793   8.550
 4421POPC   D2A17140  33.070  33.753   8.250
 4421POPC   C3A17141  33.025  33.783   7.950
 4421POPC   C4A17142  33.036  33.822   7.650
 4421POPC   C1B17143  32.849  33.716   8.550
 4421POPC   C2B17144  32.790  33.662   8.250
 4421POPC   C3B17145  32.794  33.631   7.950
 4421POPC   C4B17146  32.839  33.651   7.650
 4422POPC   NC317147  17.520  40.829   9.450
 4422POPC   PO417148  17.497  40.804   9.150
 4422POPC   GL117149  17.493  40.780   8.850
 4422POPC   GL217150  17.583  40.779   8.850
 4422POPC   C1A17151  17.535  40.789   8.550
 4422POPC   D2A17152  17.527  40.775   8.250
 4422POPC   C3A17153  17.521  40.735   7.950
 4422POPC   C4A17154  17.485  40.761   7.650
 4422POPC   C1B17155  17.757  40.753   8.550
 4422POPC   C2B17156  17.720  40.701   8.250
 4422POPC   C3B17157  17.782  40.714   7.950
 4422POPC   C4B17158  17.752  40.706   7.650
 4423POPC   NC317159  24.441  33.798   9.450
 4423POPC   PO417160  24.478  33.786   9.150
 4423POPC   GL117161  24.465  33.754   8.850
 4423POPC   GL217162  24.464  33.910   8.850
 4423POPC   C1A17163  24.512  33.788   8.550
 4423POPC   D2A17164  24.517  33.800   8.250
 4423POPC   C3A17165  24.487  33.841   7.950
 4423POPC   C4A17166  24.516  33.788   7.650
 4423POPC   C1B17167  24.393  33.982   8.550
 4423POPC   C2B17168  24.427  34.041   8.250
 4423POPC   C3B17169  24.385  34.059   7.950
 4423POPC   C4B17170  24.385  34.072   7.650
 4424POPC   NC317171  42.297  34.602   9.450
 4424POPC   PO417172  42.380  34.583   9.150
 4424POPC   GL117173  42.320  34.568   8.850
 4424POPC   GL217174  42.268  34.481   8.850
 4424POPC   C1A17175  42.343  34.595   8.550
 4424POPC   D2A17176  42.340  34.586   8.250
 4424POPC   C3A17177  42.340  34.612   7.950
 4424POPC   C4A17178  42.308  34.624   7.650
 4424POPC   C1B17179  42.141  34.416   8.550
 4424POPC   C2B17180  42.105  34.407   8.250
 4424POPC   C3B17181  42.079  34.469   7.950
 4424POPC   C4B17182  42.141  34.471   7.650
 4425POPC   NC317183   3.500  19.810   9.450
 4425POPC   PO417184   3.583  19.825   9.150
 4425POPC   GL117185   3.584  19.819   8.850
 4425POPC   GL217186   3.433  19.942   8.850
 4425POPC   C1A17187   3.543  19.875   8.550
 4425POPC   D2A17188   3.527  19.845   8.250
 4425POPC   C3A17189   3.572  19.839   7.950
 4425POPC   C4A17190   3.534  19.874   7.650
 4425POPC   C1B17191   3.386  20.007   8.550
 4425POPC   C2B17192   3.305  19.956   8.250
 4425POPC   C3B17193   3.306  20.003   7.950
 4425POPC   C4B17194   3.348  19.967   7.650
 4426POPC   NC317195  29.121   7.433   9.450
 4426POPC   PO417196  29.137   7.432   9.150
 4426POPC   GL117197  29.183   7.395   8.850
 4426POPC   GL217198  29.150   7.317   8.850
 4426POPC   C1A17199  29.096   7.451   8.550
 4426POPC   D2A17200  29.193   7.470   8.250
 4426POPC   C3A17201  29.106   7.448   7.950
 4426POPC   C4A17202  29.131   7.464   7.650
 4426POPC   C1B17203  29.052   7.131   8.550
 4426POPC   C2B17204  29.079   7.222   8.250
 4426POPC   C3B17205  29.130   7.187   7.950
 4426POPC   C4B17206  29.103   7.138   7.650
 4427POPC   NC317207  11.336  27.592   9.450
 4427POPC   PO417208  11.327  27.569   9.150
 4427POPC   GL117209  11.331  27.621   8.850
 4427POPC   GL217210  11.394  27.598   8.850
 4427POPC   C1A17211  11.266  27.601   8.550
 4427POPC   D2A17212  11.308  27.617   8.250
 4427POPC   C3A17213  11.272  27.642   7.950
 4427POPC   C4A17214  11.308  27.597   7.650
 4427POPC   C1B17215  11.509  27.613   8.550
 4427POPC   C2B17216  11.503  27.639   8.250
 4427POPC   C3B17217  11.573  27.652   7.950
 4427POPC   C4B17218  11.564  27.657   7.650
 4428POPC   NC317219  44.660  31.499   9.450
 4428POPC   PO417220  44.702  31.504   9.150
 4428POPC   GL117221  44.644  31.465   8.850
 4428POPC   GL217222  44.715  31.614   8.850
 4428POPC   C1A17223  44.671  31.493   8.550
 4428POPC   D2A17224  44.702  31.424   8.250
 4428POPC   C3A17225  44.655  31.471   7.950
 4428POPC   C4A17226  44.636  31.467   7.650
 4428POPC   C1B17227  44.816  31.662   8.550
 4428POPC   C2B17228  44.778  31.709   8.250
 4428POPC   C3B17229  44.798  31.641   7.950
 4428POPC   C4B17230  44.798  31.621   7.650
 4429POPC   NC317231  22.934  18.317   9.450
 4429POPC   PO417232  22.889  18.291   9.150
 4429POPC   GL117233  22.917  18.329   8.850
 4429POPC   GL217234  23.027  18.340   8.850
 4429POPC   C1A17235  22.891  18.316   8.550
 4429POPC   D2A17236  22.971  18.246   8.250
 4429POPC   C3A17237  22.937  18.250   7.950
 4429POPC   C4A17238  22.934  18.271   7.650
 4429POPC   C1B17239  23.061  18.439   8.550
 4429POPC   C2B17240  23.058  18.452   8.250
 4429POPC   C3B17241  23.121  18.504   7.950
 4429POPC   C4B17242  23.086  18.511   7.650
 4430POPC   NC317243  28.418  33.016   9.450
 4430POPC   PO417244  28.397  33.012   9.150
 4430POPC   GL117245  28.373  33.062   8.850
 4430POPC   GL217246  28.433  33.157   8.850
 4430POPC   C1A17247  28.363  33.029   8.550
 4430POPC   D2A17248  28.336  33.029   8.250
 4430POPC   C3A17249  28.335  32.985   7.950
 4430POPC   C4A17250  28.350  32.980   7.650
 4430POPC   C1B17251  28.538  33.211   8.550
 4430POPC   C2B17252  28.503  33.236   8.250
 4430POPC   C3B17253  28.515  33.234   7.950
 4430POPC   C4B17254  28.590  33.164   7.650
 4431POPC   NC317255  15.919   1.960   9.450
 4431POPC   PO417256  15.958   2.038   9.150
 4431POPC   GL117257  15.982   1.958   8.850
 4431POPC   GL217258  16.055   2.014   8.850
 4431POPC   C1A17259  15.911   1.961   8.550
 4431POPC   D2A17260  15.983   2.010   8.250
 4431POPC   C3A17261  16.002   1.949   7.950
 4431POPC   C4A17262  15.993   1.975   7.650
 4431POPC   C1B17263  16.154   2.131   8.550
 4431POPC   C2B17264  16.231   2.072   8.250
 4431POPC   C3B17265  16.139   2.044   7.950
 4431POPC   C4B17266  16.159   2.102   7.650
 4432POPC   NC317267  33.044  21.432   9.450
 4432POPC   PO417268  33.045  21.356   9.150
 4432POPC   GL117269  32.998  21.421   8.850
 4432POPC   GL217270  32.892  21.309   8.850
 4432POPC   C1A17271  33.047  21.380   8.550
 4432POPC   D2A17272  33.057  21.434   8.250
 4432POPC   C3A17273  33.066  21.372   7.950
 4432POPC   C4A17274  33.052  21.388   7.650
 4432POPC   C1B17275  32.767  21.237   8.550
 4432POPC   C2B17276  32.822  21.246   8.250
 4432POPC   C3B17277  32.859  21.228   7.950
 4432POPC   C4B17278  32.765  21.207   7.650
 4433POPC   NC317279   9.750  36.910   9.450
 4433POPC   PO417280   9.732  36.936   9.150
 4433POPC   GL117281   9.762  36.910   8.850
 4433POPC   GL217282   9.818  36.763   8.850
 4433POPC   C1A17283   9.765  36.863   8.550
 4433POPC   D2A17284   9.774  36.875   8.250
 4433POPC   C3A17285   9.781  36.893   7.950
 4433POPC   C4A17286   9.721  36.952   7.650
 4433POPC   C1B17287   9.862  36.695   8.550
 4433POPC   C2B17288   9.889  36.694   8.250
 4433POPC   C3B17289   9.858  36.749   7.950
 4433POPC   C4B17290   9.861  36.744   7.650
 4434POPC   NC317291  12.887  43.112   9.450
 4434POPC   PO417292  12.873  43.154   9.150
 4434POPC   GL117293  12.878  43.073   8.850
 4434POPC   GL217294  13.004  43.164   8.850
 4434POPC   C1A17295  12.846  43.084   8.550
 4434POPC   D2A17296  12.894  43.062   8.250
 4434POPC   C3A17297  12.858  43.079   7.950
 4434POPC   C4A17298  12.806  43.119   7.650
 4434POPC   C1B17299  13.032  43.273   8.550
 4434POPC   C2B17300  13.075  43.212   8.250
 4434POPC   C3B17301  13.101  43.242   7.950
 4434POPC   C4B17302  13.108  43.251   7.650
 4435POPC   NC317303  12.050  43.925   9.450
 4435POPC   PO417304  12.071  43.859   9.150
 4435POPC   GL117305  12.036  43.854   8.850
 4435POPC   GL217306  12.042  43.957   8.850
 4435POPC   C1A17307  12.108  43.860   8.550
 4435POPC   D2A17308  12.108  43.935   8.250
 4435POPC   C3A17309  12.117  43.927   7.950
 4435POPC   C4A17310  12.036  43.860   7.650
 4435POPC   C1B17311  11.919  44.065   8.550
 4435POPC   C2B17312  11.961  44.130   8.250
 4435POPC   C3B17313  11.913  44.143   7.950
 4435POPC   C4B17314  11.905  44.135   7.650
 4436POPC   NC317315  21.429  33.073   9.450
 4436POPC   PO417316  21.386  33.021   9.150
 4436POPC   GL117317  21.354  33.039   8.850
 4436POPC   GL217318  21.228  33.009   8.850
 4436POPC   C1A17319  21.366  33.025   8.550
 4436POPC   D2A17320  21.360  33.042   8.250
 4436POPC   C3A17321  21.420  33.070   7.950
 4436POPC   C4A17322  21.346  33.026   7.650
 4436POPC   C1B17323  21.180  33.003   8.550
 4436POPC   C2B17324  21.106  32.986   8.250
 4436POPC   C3B17325  21.151  33.041   7.950
 4436POPC   C4B17326  21.122  33.041   7.650
 4437POPC   NC317327  33.849  36.120   9.450
 4437POPC   PO417328  33.773  36.153   9.150
 4437POPC   GL117329  33.766  36.170   8.850
 4437POPC   GL217330  33.935  36.002   8.850
 4437POPC   C1A17331  33.758  36.137   8.550
 4437POPC   D2A17332  33.804  36.136   8.250
 4437POPC   C3A17333  33.770  36.158   7.950
 4437POPC   C4A17334  33.766  36.115   7.650
 4437POPC   C1B17335  33.983  35.915   8.550
 4437POPC   C2B17336  33.980  35.949   8.250
 4437POPC   C3B17337  34.016  35.900   7.950
 4437POPC   C4B17338  34.017  35.998   7.650
 4438POPC   NC317339   8.195  43.897   9.450
 4438POPC   PO417340   8.196  43.878   9.150
 4438POPC   GL117341   8.180  43.931   8.850
 4438POPC   GL217342   8.248  43.790   8.850
 4438POPC   C1A17343   8.159  43.933   8.550
 4438POPC   D2A17344   8.233  43.850   8.250
 4438POPC   C3A17345   8.196  43.837   7.950
 4438POPC   C4A17346   8.237  43.935   7.650
 4438POPC   C1B17347   8.330  43.711   8.550
 4438POPC   C2B17348   8.319  43.642   8.250
 4438POPC   C3B17349   8.341  43.702   7.950
 4438POPC   C4B17350   8.389  43.715   7.650
 4439POPC   NC317351  15.976  35.401   9.450
 4439POPC   PO417352  15.952  35.356   9.150
 4439POPC   GL117353  15.979  35.312   8.850
 4439POPC   GL217354  16.010  35.285   8.850
 4439POPC   C1A17355  15.927  35.328   8.550
 4439POPC   D2A17356  15.952  35.321   8.250
 4439POPC   C3A17357  15.913  35.302   7.950
 4439POPC   C4A17358  15.972  35.366   7.650
 4439POPC   C1B17359  16.060  35.119   8.550
 4439POPC   C2B17360  16.067  35.170   8.250
 4439POPC   C3B17361  16.013  35.082   7.950
 4439POPC   C4B17362  16.099  35.161   7.650
 4440POPC   NC317363  41.601   8.183   9.450
 4440POPC   PO417364  41.514   8.197   9.150
 4440POPC   GL117365  41.593   8.187   8.850
 4440POPC   GL217366  41.463   8.132   8.850
 4440POPC   C1A17367  41.560   8.187   8.550
 4440POPC   D2A17368  41.509   8.202   8.250
 4440POPC   C3A17369  41.517   8.172   7.950
 4440POPC   C4A17370  41.570   8.152   7.650
 4440POPC   C1B17371  41.368   8.053   8.550
 4440POPC   C2B17372  41.433   8.036   8.250
 4440POPC   C3B17373  41.412   7.993   7.950
 4440POPC   C4B17374  41.353   7.984   7.650
 4441POPC   NC317375  12.811   8.209   9.450
 4441POPC   PO417376  12.879   8.202   9.150
 4441POPC   GL117377  12.803   8.204   8.850
 4441POPC   GL217378  12.725   8.067   8.850
 4441POPC   C1A17379  12.853   8.218   8.550
 4441POPC   D2A17380  12.840   8.158   8.250
 4441POPC   C3A17381  12.899   8.167   7.950
 4441POPC   C4A17382  12.883   8.152   7.650
 4441POPC   C1B17383  12.687   8.051   8.550
 4441POPC   C2B17384  12.649   7.994   8.250
 4441POPC   C3B17385  12.669   7.987   7.950
 4441POPC   C4B17386  12.672   8.068   7.650
 4442POPC   NC317387  31.429  36.128   9.450
 4442POPC   PO417388  31.505  36.104   9.150
 4442POPC   GL117389  31.438  36.165   8.850
 4442POPC   GL217390  31.382  35.965   8.850
 4442POPC   C1A17391  31.512  36.172   8.550
 4442POPC   D2A17392  31.443  36.118   8.250
 4442POPC   C3A17393  31.520  36.177   7.950
 4442POPC   C4A17394  31.522  36.134   7.650
 4442POPC   C1B17395  31.360  35.845   8.550
 4442POPC   C2B17396  31.346  35.891   8.250
 4442POPC   C3B17397  31.410  35.933   7.950
 4442POPC   C4B17398  31.421  35.890   7.650
 4443POPC   NC317399  22.904   9.775   9.450
 4443POPC   PO417400  22.915   9.769   9.150
 4443POPC   GL117401  22.956   9.765   8.850
 4443POPC   GL217402  22.912   9.625   8.850
 4443POPC   C1A17403  22.915   9.732   8.550
 4443POPC   D2A17404  22.888   9.758   8.250
 4443POPC   C3A17405  22.926   9.787   7.950
 4443POPC   C4A17406  22.941   9.791   7.650
 4443POPC   C1B17407  22.858   9.479   8.550
 4443POPC   C2B17408  22.843   9.498   8.250
 4443POPC   C3B17409  22.840   9.463   7.950
 4443POPC   C4B17410  22.834   9.461   7.650
 4444POPC   NC317411  23.673   2.798   9.450
 4444POPC   PO417412  23.703   2.741   9.150
 4444POPC   GL117413  23.750   2.721   8.850
 4444POPC   GL217414  23.774   2.644   8.850
 4444POPC   C1A17415  23.730   2.795   8.550
 4444POPC   D2A17416  23.678   2.802   8.250
 4444POPC   C3A17417  23.762   2.809   7.950
 4444POPC   C4A17418  23.681   2.780   7.650
 4444POPC   C1B17419  23.838   2.592   8.550
 4444POPC   C2B17420  23.865   2.550   8.250
 4444POPC   C3B17421  23.880   2.540   7.950
 4444POPC   C4B17422  23.813   2.496   7.650
 4445POPC   NC317423   1.190  15.907   9.450
 4445POPC   PO417424   1.212  15.974   9.150
 4445POPC   GL117425   1.209  15.961   8.850
 4445POPC   GL217426   1.140  15.827   8.850
 4445POPC   C1A17427   1.169  15.939   8.550
 4445POPC   D2A17428   1.197  15.983   8.250
 4445POPC   C3A17429   1.200  15.935   7.950
 4445POPC   C4A17430   1.257  15.967   7.650
 4445POPC   C1B17431   1.086  15.750   8.550
 4445POPC   C2B17432   1.092  15.783   8.250
 4445POPC   C3B17433   1.055  15.737   7.950
 4445POPC   C4B17434   0.999  15.732   7.650
 4446POPC   NC317435  21.433  22.890   9.450
 4446POPC   PO417436  21.362  22.903   9.150
 4446POPC   GL117437  21.353  22.921   8.850
 4446POPC   GL217438  21.487  22.993   8.850
 4446POPC   C1A17439  21.431  22.946   8.550
 4446POPC   D2A17440  21.388  22.931   8.250
 4446POPC   C3A17441  21.423  22.933   7.950
 4446POPC   C4A17442  21.390  22.918   7.650
 4446POPC   C1B17443  21.653  23.028   8.550
 4446POPC   C2B17444  21.666  23.037   8.250
 4446POPC   C3B17445  21.665  23.047   7.950
 4446POPC   C4B17446  21.617  23.019   7.650
 4447POPC   NC317447  31.441   9.710   9.450
 4447POPC   PO417448  31.492   9.790   9.150
 4447POPC   GL117449  31.470   9.785   8.850
 4447POPC   GL217450  31.498   9.892   8.850
 4447POPC   C1A17451  31.442   9.793   8.550
 4447POPC   D2A17452  31.458   9.782   8.250
 4447POPC   C3A17453  31.482   9.703   7.950
 4447POPC   C4A17454  31.435   9.744   7.650
 4447POPC   C1B17455  31.554   9.966   8.550
 4447POPC   C2B17456  31.582   9.948   8.250
 4447POPC   C3B17457  31.620   9.991   7.950
 4447POPC   C4B17458  31.568  10.004   7.650
 4448POPC   NC317459  24.531   1.982   9.450
 4448POPC   PO417460  24.465   1.994   9.150
 4448POPC   GL117461  24.506   1.967   8.850
 4448POPC   GL217462  24.356   1.895   8.850
 4448POPC   C1A17463  24.539   2.031   8.550
 4448POPC   D2A17464  24.455   1.948   8.250
 4448POPC   C3A17465  24.443   1.998   7.950
 4448POPC   C4A17466  24.474   1.984   7.650
 4448POPC   C1B17467  24.351   1.849   8.550
 4448POPC   C2B17468  24.315   1.775   8.250
 4448POPC   C3B17469  24.346   1.816   7.950
 4448POPC   C4B17470  24.346   1.780   7.650
 4449POPC   NC317471  38.456  21.377   9.450
 4449POPC   PO417472  38.433  21.383   9.150
 4449POPC   GL117473  38.482  21.401   8.850
 4449POPC   GL217474  38.408  21.280   8.850
 4449POPC   C1A17475  38.505  21.420   8.550
 4449POPC   D2A17476  38.453  21.397   8.250
 4449POPC   C3A17477  38.439  21.422   7.950
 4449POPC   C4A17478  38.469  21.364   7.650
 4449POPC   C1B17479  38.365  21.191   8.550
 4449POPC   C2B17480  38.385  21.208   8.250
 4449POPC   C3B17481  38.355  21.117   7.950
 4449POPC   C4B17482  38.347  21.197   7.650
 4450POPC   NC317483  27.595  19.097   9.450
 4450POPC   PO417484  27.596  19.053   9.150
 4450POPC   GL117485  27.544  19.037   8.850
 4450POPC   GL217486  27.448  19.040   8.850
 4450POPC   C1A17487  27.585  19.012   8.550
 4450POPC   D2A17488  27.617  19.067   8.250
 4450POPC   C3A17489  27.549  19.086   7.950
 4450POPC   C4A17490  27.576  19.034   7.650
 4450POPC   C1B17491  27.357  18.961   8.550
 4450POPC   C2B17492  27.358  19.017   8.250
 4450POPC   C3B17493  27.375  18.935   7.950
 4450POPC   C4B17494  27.315  18.949   7.650
 4451POPC   NC317495  39.236  39.957   9.450
 4451POPC   PO417496  39.235  40.028   9.150
 4451POPC   GL117497  39.199  39.962   8.850
 4451POPC   GL217498  39.331  39.941   8.850
 4451POPC   C1A17499  39.223  39.968   8.550
 4451POPC   D2A17500  39.195  39.977   8.250
 4451POPC   C3A17501  39.276  40.034   7.950
 4451POPC   C4A17502  39.188  39.982   7.650
 4451POPC   C1B17503  39.484  39.912   8.550
 4451POPC   C2B17504  39.507  39.922   8.250
 4451POPC   C3B17505  39.452  39.952   7.950
 4451POPC   C4B17506  39.441  39.945   7.650
 4452POPC   NC317507  13.676  39.253   9.450
 4452POPC   PO417508  13.613  39.225   9.150
 4452POPC   GL117509  13.642  39.249   8.850
 4452POPC   GL217510  13.624  39.062   8.850
 4452POPC   C1A17511  13.644  39.245   8.550
 4452POPC   D2A17512  13.628  39.200   8.250
 4452POPC   C3A17513  13.582  39.266   7.950
 4452POPC   C4A17514  13.580  39.218   7.650
 4452POPC   C1B17515  13.561  38.955   8.550
 4452POPC   C2B17516  13.541  39.007   8.250
 4452POPC   C3B17517  13.505  38.988   7.950
 4452POPC   C4B17518  13.563  39.034   7.650
 4453POPC   NC317519  41.609  14.415   9.450
 4453POPC   PO417520  41.555  14.422   9.150
 4453POPC   GL117521  41.558  14.357   8.850
 4453POPC   GL217522  41.488  14.463   8.850
 4453POPC   C1A17523  41.543  14.365   8.550
 4453POPC   D2A17524  41.512  14.393   8.250
 4453POPC   C3A17525  41.557  14.391   7.950
 4453POPC   C4A17526  41.523  14.404   7.650
 4453POPC   C1B17527  41.360  14.608   8.550
 4453POPC   C2B17528  41.390  14.569   8.250
 4453POPC   C3B17529  41.414  14.611   7.950
 4453POPC   C4B17530  41.408  14.621   7.650
 4454POPC   NC317531  25.273  26.849   9.450
 4454POPC   PO417532  25.277  26.854   9.150
 4454POPC   GL117533  25.231  26.804   8.850
 4454POPC   GL217534  25.189  26.900   8.850
 4454POPC   C1A17535  25.225  26.851   8.550
 4454POPC   D2A17536  25.255  26.798   8.250
 4454POPC   C3A17537  25.303  26.829   7.950
 4454POPC   C4A17538  25.296  26.826   7.650
 4454POPC   C1B17539  25.150  26.987   8.550
 4454POPC   C2B17540  25.120  27.013   8.250
 4454POPC   C3B17541  25.122  27.046   7.950
 4454POPC   C4B17542  25.145  26.993   7.650
 4455POPC   NC317543  12.082  21.419   9.450
 4455POPC   PO417544  12.110  21.373   9.150
 4455POPC   GL117545  12.040  21.385   8.850
 4455POPC   GL217546  11.968  21.444   8.850
 4455POPC   C1A17547  12.030  21.361   8.550
 4455POPC   D2A17548  12.078  21.340   8.250
 4455POPC   C3A17549  12.038  21.430   7.950
 4455POPC   C4A17550  12.098  21.370   7.650
 4455POPC   C1B17551  11.914  21.535   8.550
 4455POPC   C2B17552  11.860  21.519   8.250
 4455POPC   C3B17553  11.928  21.512   7.950
 4455POPC   C4B17554  11.845  21.534   7.650
 4456POPC   NC317555   8.939  12.100   9.450
 4456POPC   PO417556   8.962  12.113   9.150
 4456POPC   GL117557   8.968  12.125   8.850
 4456POPC   GL217558   8.852  12.023   8.850
 4456POPC   C1A17559   8.965  12.036   8.550
 4456POPC   D2A17560   8.978  12.057   8.250
 4456POPC   C3A17561   9.009  12.075   7.950
 4456POPC   C4A17562   8.990  12.092   7.650
 4456POPC   C1B17563   8.810  11.912   8.550
 4456POPC   C2B17564   8.792  11.908   8.250
 4456POPC   C3B17565   8.733  11.967   7.950
 4456POPC   C4B17566   8.767  11.973   7.650
 4457POPC   NC317567  16.780  37.674   9.450
 4457POPC   PO417568  16.748  37.705   9.150
 4457POPC   GL117569  16.697  37.668   8.850
 4457POPC   GL217570  16.689  37.569   8.850
 4457POPC   C1A17571  16.749  37.651   8.550
 4457POPC   D2A17572  16.699  37.658   8.250
 4457POPC   C3A17573  16.691  37.660   7.950
 4457POPC   C4A17574  16.739  37.686   7.650
 4457POPC   C1B17575  16.709  37.401   8.550
 4457POPC   C2B17576  16.685  37.435   8.250
 4457POPC   C3B17577  16.745  37.399   7.950
 4457POPC   C4B17578  16.767  37.423   7.650
 4458POPC   NC317579  41.528  10.475   9.450
 4458POPC   PO417580  41.537  10.542   9.150
 4458POPC   GL117581  41.561  10.482   8.850
 4458POPC   GL217582  41.713  10.521   8.850
 4458POPC   C1A17583  41.607  10.539   8.550
 4458POPC   D2A17584  41.602  10.542   8.250
 4458POPC   C3A17585  41.546  10.479   7.950
 4458POPC   C4A17586  41.598  10.555   7.650
 4458POPC   C1B17587  41.763  10.557   8.550
 4458POPC   C2B17588  41.791  10.548   8.250
 4458POPC   C3B17589  41.809  10.538   7.950
 4458POPC   C4B17590  41.830  10.547   7.650
 4459POPC   NC317591   7.387   1.172   9.450
 4459POPC   PO417592   7.390   1.193   9.150
 4459POPC   GL117593   7.411   1.253   8.850
 4459POPC   GL217594   7.359   1.079   8.850
 4459POPC   C1A17595   7.404   1.166   8.550
 4459POPC   D2A17596   7.446   1.200   8.250
 4459POPC   C3A17597   7.461   1.206   7.950
 4459POPC   C4A17598   7.390   1.235   7.650
 4459POPC   C1B17599   7.246   1.001   8.550
 4459POPC   C2B17600   7.232   1.067   8.250
 4459POPC   C3B17601   7.278   1.042   7.950
 4459POPC   C4B17602   7.264   1.026   7.650
 4460POPC   NC317603  10.505   6.669   9.450
 4460POPC   PO417604  10.490   6.632   9.150
 4460POPC   GL117605  10.530   6.607   8.850
 4460POPC   GL217606  10.665   6.591   8.850
 4460POPC   C1A17607  10.560   6.656   8.550
 4460POPC   D2A17608  10.546   6.682   8.250
 4460POPC   C3A17609  10.546   6.681   7.950
 4460POPC   C4A17610  10.482   6.621   7.650
 4460POPC   C1B17611  10.790   6.560   8.550
 4460POPC   C2B17612  10.705   6.570   8.250
 4460POPC   C3B17613  10.783   6.562   7.950
 4460POPC   C4B17614  10.700   6.552   7.650
 4461POPC   NC317615   9.744   4.326   9.450
 4461POPC   PO417616   9.773   4.270   9.150
 4461POPC   GL117617   9.739   4.334   8.850
 4461POPC   GL217618   9.879   4.282   8.850
 4461POPC   C1A17619   9.741   4.327   8.550
 4461POPC   D2A17620   9.728   4.309   8.250
 4461POPC   C3A17621   9.749   4.346   7.950
 4461POPC   C4A17622   9.733   4.286   7.650
 4461POPC   C1B17623   9.956   4.251   8.550
 4461POPC   C2B17624  10.018   4.313   8.250
 4461POPC   C3B17625   9.991   4.271   7.950
 4461POPC   C4B17626  10.046   4.296   7.650
 4462POPC   NC317627  40.830  17.509   9.450
 4462POPC   PO417628  40.755  17.481   9.150
 4462POPC   GL117629  40.796  17.482   8.850
 4462POPC   GL217630  40.797  17.380   8.850
 4462POPC   C1A17631  40.784  17.518   8.550
 4462POPC   D2A17632  40.746  17.459   8.250
 4462POPC   C3A17633  40.797  17.469   7.950
 4462POPC   C4A17634  40.790  17.549   7.650
 4462POPC   C1B17635  40.759  17.290   8.550
 4462POPC   C2B17636  40.757  17.238   8.250
 4462POPC   C3B17637  40.765  17.240   7.950
 4462POPC   C4B17638  40.711  17.226   7.650
 4463POPC   NC317639  15.975  29.889   9.450
 4463POPC   PO417640  15.935  29.918   9.150
 4463POPC   GL117641  15.924  29.880   8.850
 4463POPC   GL217642  16.057  29.864   8.850
 4463POPC   C1A17643  15.926  29.924   8.550
 4463POPC   D2A17644  15.927  29.884   8.250
 4463POPC   C3A17645  15.906  29.952   7.950
 4463POPC   C4A17646  15.921  29.877   7.650
 4463POPC   C1B17647  16.076  29.703   8.550
 4463POPC   C2B17648  16.127  29.747   8.250
 4463POPC   C3B17649  16.157  29.729   7.950
 4463POPC   C4B17650  16.081  29.679   7.650
 4464POPC   NC317651  25.267  21.339   9.450
 4464POPC   PO417652  25.219  21.410   9.150
 4464POPC   GL117653  25.315  21.352   8.850
 4464POPC   GL217654  25.420  21.310   8.850
 4464POPC   C1A17655  25.247  21.342   8.550
 4464POPC   D2A17656  25.262  21.403   8.250
 4464POPC   C3A17657  25.301  21.380   7.950
 4464POPC   C4A17658  25.284  21.353   7.650
 4464POPC   C1B17659  25.502  21.279   8.550
 4464POPC   C2B17660  25.505  21.246   8.250
 4464POPC   C3B17661  25.438  21.242   7.950
 4464POPC   C4B17662  25.529  21.236   7.650
 4465POPC   NC317663  36.110   5.128   9.450
 4465POPC   PO417664  36.147   5.112   9.150
 4465POPC   GL117665  36.121   5.052   8.850
 4465POPC   GL217666  36.219   5.124   8.850
 4465POPC   C1A17667  36.122   5.107   8.550
 4465POPC   D2A17668  36.093   5.103   8.250
 4465POPC   C3A17669  36.101   5.046   7.950
 4465POPC   C4A17670  36.134   5.059   7.650
 4465POPC   C1B17671  36.413   5.133   8.550
 4465POPC   C2B17672  36.418   5.066   8.250
 4465POPC   C3B17673  36.338   5.106   7.950
 4465POPC   C4B17674  36.351   5.095   7.650
 4466POPC   NC317675  38.483   6.598   9.450
 4466POPC   PO417676  38.430   6.651   9.150
 4466POPC   GL117677  38.434   6.608   8.850
 4466POPC   GL217678  38.521   6.668   8.850
 4466POPC   C1A17679  38.495   6.627   8.550
 4466POPC   D2A17680  38.473   6.628   8.250
 4466POPC   C3A17681  38.412   6.650   7.950
 4466POPC   C4A17682  38.500   6.686   7.650
 4466POPC   C1B17683  38.705   6.720   8.550
 4466POPC   C2B17684  38.726   6.701   8.250
 4466POPC   C3B17685  38.695   6.747   7.950
 4466POPC   C4B17686  38.664   6.766   7.650
 4467POPC   NC317687  12.042  19.041   9.450
 4467POPC   PO417688  12.073  19.057   9.150
 4467POPC   GL117689  12.029  19.088   8.850
 4467POPC   GL217690  12.168  19.186   8.850
 4467POPC   C1A17691  12.050  19.033   8.550
 4467POPC   D2A17692  12.112  19.042   8.250
 4467POPC   C3A17693  12.110  19.014   7.950
 4467POPC   C4A17694  12.041  19.047   7.650
 4467POPC   C1B17695  12.220  19.211   8.550
 4467POPC   C2B17696  12.242  19.224   8.250
 4467POPC   C3B17697  12.233  19.296   7.950
 4467POPC   C4B17698  12.277  19.214   7.650
 4468POPC   NC317699  17.521   6.684   9.450
 4468POPC   PO417700  17.499   6.665   9.150
 4468POPC   GL117701  17.471   6.688   8.850
 4468POPC   GL217702  17.418   6.724   8.850
 4468POPC   C1A17703  17.490   6.608   8.550
 4468POPC   D2A17704  17.489   6.668   8.250
 4468POPC   C3A17705  17.461   6.650   7.950
 4468POPC   C4A17706  17.497   6.694   7.650
 4468POPC   C1B17707  17.276   6.731   8.550
 4468POPC   C2B17708  17.328   6.801   8.250
 4468POPC   C3B17709  17.306   6.798   7.950
 4468POPC   C4B17710  17.325   6.722   7.650
 4469POPC   NC317711  21.343  20.576   9.450
 4469POPC   PO417712  21.371  20.615   9.150
 4469POPC   GL117713  21.414  20.588   8.850
 4469POPC   GL217714  21.498  20.487   8.850
 4469POPC   C1A17715  21.436  20.617   8.550
 4469POPC   D2A17716  21.394  20.594   8.250
 4469POPC   C3A17717  21.409  20.589   7.950
 4469POPC   C4A17718  21.393  20.632   7.650
 4469POPC   C1B17719  21.574  20.454   8.550
 4469POPC   C2B17720  21.490  20.440   8.250
 4469POPC   C3B17721  21.513  20.361   7.950
 4469POPC   C4B17722  21.526  20.365   7.650
 4470POPC   NC317723  16.752  30.665   9.450
 4470POPC   PO417724  16.765  30.738   9.150
 4470POPC   GL117725  16.702  30.683   8.850
 4470POPC   GL217726  16.864  30.764   8.850
 4470POPC   C1A17727  16.694  30.669   8.550
 4470POPC   D2A17728  16.717  30.672   8.250
 4470POPC   C3A17729  16.749  30.742   7.950
 4470POPC   C4A17730  16.739  30.704   7.650
 4470POPC   C1B17731  16.930  30.821   8.550
 4470POPC   C2B17732  16.938  30.820   8.250
 4470POPC   C3B17733  16.970  30.805   7.950
 4470POPC   C4B17734  16.913  30.835   7.650
 4471POPC   NC317735  32.270   5.851   9.450
 4471POPC   PO417736  32.247   5.834   9.150
 4471POPC   GL117737  32.208   5.842   8.850
 4471POPC   GL217738  32.102   5.827   8.850
 4471POPC   C1A17739  32.239   5.901   8.550
 4471POPC   D2A17740  32.288   5.833   8.250
 4471POPC   C3A17741  32.247   5.858   7.950
 4471POPC   C4A17742  32.293   5.831   7.650
 4471POPC   C1B17743  31.974   5.819   8.550
 4471POPC   C2B17744  32.009   5.852   8.250
 4471POPC   C3B17745  32.001   5.835   7.950
 4471POPC   C4B17746  31.955   5.883   7.650
 4472POPC   NC317747  16.683  36.905   9.450
 4472POPC   PO417748  16.716  36.891   9.150
 4472POPC   GL117749  16.766  36.914   8.850
 4472POPC   GL217750  16.648  36.989   8.850
 4472POPC   C1A17751  16.768  36.921   8.550
 4472POPC   D2A17752  16.693  36.858   8.250
 4472POPC   C3A17753  16.708  36.864   7.950
 4472POPC   C4A17754  16.724  36.880   7.650
 4472POPC   C1B17755  16.641  37.101   8.550
 4472POPC   C2B17756  16.582  37.089   8.250
 4472POPC   C3B17757  16.632  37.121   7.950
 4472POPC   C4B17758  16.584  37.096   7.650
 4473POPC   NC317759  21.372  22.187   9.450
 4473POPC   PO417760  21.349  22.139   9.150
 4473POPC   GL117761  21.385  22.128   8.850
 4473POPC   GL217762  21.476  22.212   8.850
 4473POPC   C1A17763  21.343  22.191   8.550
 4473POPC   D2A17764  21.371  22.117   8.250
 4473POPC   C3A17765  21.359  22.202   7.950
 4473POPC   C4A17766  21.414  22.192   7.650
 4473POPC   C1B17767  21.640  22.206   8.550
 4473POPC   C2B17768  21.624  22.190   8.250
 4473POPC   C3B17769  21.650  22.131   7.950
 4473POPC   C4B17770  21.591  22.135   7.650
 4474POPC   NC317771  15.169  41.549   9.450
 4474POPC   PO417772  15.150  41.554   9.150
 4474POPC   GL117773  15.174  41.532   8.850
 4474POPC   GL217774  15.293  41.674   8.850
 4474POPC   C1A17775  15.185  41.575   8.550
 4474POPC   D2A17776  15.201  41.581   8.250
 4474POPC   C3A17777  15.139  41.541   7.950
 4474POPC   C4A17778  15.160  41.531   7.650
 4474POPC   C1B17779  15.363  41.720   8.550
 4474POPC   C2B17780  15.334  41.779   8.250
 4474POPC   C3B17781  15.334  41.723   7.950
 4474POPC   C4B17782  15.313  41.714   7.650
 4475POPC   NC317783  30.653   3.543   9.450
 4475POPC   PO417784  30.690   3.562   9.150
 4475POPC   GL117785  30.721   3.557   8.850
 4475POPC   GL217786  30.764   3.669   8.850
 4475POPC   C1A17787  30.650   3.527   8.550
 4475POPC   D2A17788  30.671   3.540   8.250
 4475POPC   C3A17789  30.686   3.576   7.950
 4475POPC   C4A17790  30.713   3.571   7.650
 4475POPC   C1B17791  30.844   3.741   8.550
 4475POPC   C2B17792  30.917   3.687   8.250
 4475POPC   C3B17793  30.905   3.761   7.950
 4475POPC   C4B17794  30.846   3.754   7.650
 4476POPC   NC317795  30.718  14.376   9.450
 4476POPC   PO417796  30.685  14.419   9.150
 4476POPC   GL117797  30.667  14.431   8.850
 4476POPC   GL217798  30.716  14.564   8.850
 4476POPC   C1A17799  30.703  14.399   8.550
 4476POPC   D2A17800  30.708  14.423   8.250
 4476POPC   C3A17801  30.697  14.440   7.950
 4476POPC   C4A17802  30.682  14.405   7.650
 4476POPC   C1B17803  30.693  14.657   8.550
 4476POPC   C2B17804  30.654  14.653   8.250
 4476POPC   C3B17805  30.695  14.622   7.950
 4476POPC   C4B17806  30.626  14.634   7.650
 4477POPC   NC317807  18.310  31.459   9.450
 4477POPC   PO417808  18.256  31.431   9.150
 4477POPC   GL117809  18.259  31.520   8.850
 4477POPC   GL217810  18.326  31.598   8.850
 4477POPC   C1A17811  18.296  31.464   8.550
 4477POPC   D2A17812  18.295  31.496   8.250
 4477POPC   C3A17813  18.291  31.453   7.950
 4477POPC   C4A17814  18.312  31.450   7.650
 4477POPC   C1B17815  18.388  31.709   8.550
 4477POPC   C2B17816  18.386  31.695   8.250
 4477POPC   C3B17817  18.435  31.649   7.950
 4477POPC   C4B17818  18.436  31.747   7.650
 4478POPC   NC317819  37.661   8.227   9.450
 4478POPC   PO417820  37.677   8.199   9.150
 4478POPC   GL117821  37.639   8.214   8.850
 4478POPC   GL217822  37.533   8.190   8.850
 4478POPC   C1A17823  37.666   8.230   8.550
 4478POPC   D2A17824  37.669   8.212   8.250
 4478POPC   C3A17825  37.662   8.174   7.950
 4478POPC   C4A17826  37.665   8.184   7.650
 4478POPC   C1B17827  37.421   8.152   8.550
 4478POPC   C2B17828  37.452   8.185   8.250
 4478POPC   C3B17829  37.435   8.173   7.950
 4478POPC   C4B17830  37.440   8.159   7.650
 4479POPC   NC317831   7.459  20.584   9.450
 4479POPC   PO417832   7.391  20.597   9.150
 4479POPC   GL117833   7.431  20.614   8.850
 4479POPC   GL217834   7.481  20.568   8.850
 4479POPC   C1A17835   7.414  20.627   8.550
 4479POPC   D2A17836   7.456  20.594   8.250
 4479POPC   C3A17837   7.436  20.585   7.950
 4479POPC   C4A17838   7.399  20.659   7.650
 4479POPC   C1B17839   7.648  20.487   8.550
 4479POPC   C2B17840   7.596  20.459   8.250
 4479POPC   C3B17841   7.630  20.435   7.950
 4479POPC   C4B17842   7.658  20.445   7.650
 4480POPC   NC317843  18.324  16.739   9.450
 4480POPC   PO417844  18.307  16.744   9.150
 4480POPC   GL117845  18.265  16.762   8.850
 4480POPC   GL217846  18.392  16.709   8.850
 4480POPC   C1A17847  18.300  16.736   8.550
 4480POPC   D2A17848  18.251  16.744   8.250
 4480POPC   C3A17849  18.250  16.759   7.950
 4480POPC   C4A17850  18.234  16.682   7.650
 4480POPC   C1B17851  18.531  16.729   8.550
 4480POPC   C2B17852  18.579  16.724   8.250
 4480POPC   C3B17853  18.547  16.722   7.950
 4480POPC   C4B17854  18.570  16.795   7.650
 4481POPC   NC317855   3.498  10.509   9.450
 4481POPC   PO417856   3.550  10.500   9.150
 4481POPC   GL117857   3.557  10.488   8.850
 4481POPC   GL217858   3.419  10.553   8.850
 4481POPC   C1A17859   3.567  10.572   8.550
 4481POPC   D2A17860   3.581  10.512   8.250
 4481POPC   C3A17861   3.563  10.559   7.950
 4481POPC   C4A17862   3.498  10.511   7.650
 4481POPC   C1B17863   3.326  10.626   8.550
 4481POPC   C2B17864   3.330  10.692   8.250
 4481POPC   C3B17865   3.304  10.692   7.950
 4481POPC   C4B17866   3.308  10.643   7.650
 4482POPC   NC317867   0.406  24.530   9.450
 4482POPC   PO417868   0.474  24.510   9.150
 4482POPC   GL117869   0.471  24.450   8.850
 4482POPC   GL217870   0.352  24.580   8.850
 4482POPC   C1A17871   0.407  24.449   8.550
 4482POPC   D2A17872   0.457  24.456   8.250
 4482POPC   C3A17873   0.454  24.469   7.950
 4482POPC   C4A17874   0.480  24.513   7.650
 4482POPC   C1B17875   0.231  24.658   8.550
 4482POPC   C2B17876   0.211  24.600   8.250
 4482POPC   C3B17877   0.254  24.583   7.950
 4482POPC   C4B17878   0.201  24.586   7.650
 4483POPC   NC317879  21.432  36.907   9.450
 4483POPC   PO417880  21.424  36.886   9.150
 4483POPC   GL117881  21.419  36.878   8.850
 4483POPC   GL217882  21.259  36.937   8.850
 4483POPC   C1A17883  21.371  36.910   8.550
 4483POPC   D2A17884  21.419  36.895   8.250
 4483POPC   C3A17885  21.366  36.942   7.950
 4483POPC   C4A17886  21.431  36.939   7.650
 4483POPC   C1B17887  21.123  36.990   8.550
 4483POPC   C2B17888  21.130  36.999   8.250
 4483POPC   C3B17889  21.118  37.031   7.950
 4483POPC   C4B17890  21.144  36.951   7.650
 4484POPC   NC317891  12.809  17.545   9.450
 4484POPC   PO417892  12.831  17.549   9.150
 4484POPC   GL117893  12.804  17.505   8.850
 4484POPC   GL217894  12.935  17.649   8.850
 4484POPC   C1A17895  12.867  17.476   8.550
 4484POPC   D2A17896  12.802  17.507   8.250
 4484POPC   C3A17897  12.871  17.537   7.950
 4484POPC   C4A17898  12.813  17.533   7.650
 4484POPC   C1B17899  12.964  17.720   8.550
 4484POPC   C2B17900  12.963  17.688   8.250
 4484POPC   C3B17901  12.990  17.668   7.950
 4484POPC   C4B17902  13.009  17.682   7.650
 4485POPC   NC317903  38.503  41.562   9.450
 4485POPC   PO417904  38.492  41.548   9.150
 4485POPC   GL117905  38.436  41.592   8.850
 4485POPC   GL217906  38.543  41.468   8.850
 4485POPC   C1A17907  38.467  41.540   8.550
 4485POPC   D2A17908  38.410  41.585   8.250
 4485POPC   C3A17909  38.438  41.579   7.950
 4485POPC   C4A17910  38.453  41.554   7.650
 4485POPC   C1B17911  38.725  41.466   8.550
 4485POPC   C2B17912  38.644  41.432   8.250
 4485POPC   C3B17913  38.660  41.486   7.950
 4485POPC   C4B17914  38.718  41.464   7.650
 4486POPC   NC317915  18.291  19.817   9.450
 4486POPC   PO417916  18.316  19.876   9.150
 4486POPC   GL117917  18.248  19.785   8.850
 4486POPC   GL217918  18.198  19.859   8.850
 4486POPC   C1A17919  18.256  19.877   8.550
 4486POPC   D2A17920  18.297  19.831   8.250
 4486POPC   C3A17921  18.285  19.817   7.950
 4486POPC   C4A17922  18.291  19.826   7.650
 4486POPC   C1B17923  18.073  19.735   8.550
 4486POPC   C2B17924  18.050  19.769   8.250
 4486POPC   C3B17925  18.009  19.773   7.950
 4486POPC   C4B17926  18.069  19.809   7.650
 4487POPC   NC317927  12.035  14.371   9.450
 4487POPC   PO417928  12.112  14.376   9.150
 4487POPC   GL117929  12.083  14.388   8.850
 4487POPC   GL217930  12.071  14.530   8.850
 4487POPC   C1A17931  12.090  14.400   8.550
 4487POPC   D2A17932  12.068  14.451   8.250
 4487POPC   C3A17933  12.112  14.415   7.950
 4487POPC   C4A17934  12.087  14.437   7.650
 4487POPC   C1B17935  12.169  14.677   8.550
 4487POPC   C2B17936  12.161  14.607   8.250
 4487POPC   C3B17937  12.202  14.623   7.950
 4487POPC   C4B17938  12.183  14.595   7.650
 4488POPC   NC317939  39.218  15.179   9.450
 4488POPC   PO417940  39.249  15.228   9.150
 4488POPC   GL117941  39.203  15.194   8.850
 4488POPC   GL217942  39.153  15.239   8.850
 4488POPC   C1A17943  39.196  15.161   8.550
 4488POPC   D2A17944  39.275  15.141   8.250
 4488POPC   C3A17945  39.208  15.228   7.950
 4488POPC   C4A17946  39.230  15.188   7.650
 4488POPC   C1B17947  39.007  15.368   8.550
 4488POPC   C2B17948  39.000  15.323   8.250
 4488POPC   C3B17949  39.070  15.382   7.950
 4488POPC   C4B17950  39.093  15.301   7.650
 4489POPC   NC317951  43.100  20.590   9.450
 4489POPC   PO417952  43.077  20.654   9.150
 4489POPC   GL117953  43.104  20.580   8.850
 4489POPC   GL217954  42.943  20.546   8.850
 4489POPC   C1A17955  43.117  20.608   8.550
 4489POPC   D2A17956  43.088  20.579   8.250
 4489POPC   C3A17957  43.131  20.660   7.950
 4489POPC   C4A17958  43.089  20.623   7.650
 4489POPC   C1B17959  42.887  20.536   8.550
 4489POPC   C2B17960  42.910  20.553   8.250
 4489POPC   C3B17961  42.817  20.588   7.950
 4489POPC   C4B17962  42.831  20.607   7.650
 4490POPC   NC317963   0.401  40.017   9.450
 4490POPC   PO417964   0.418  39.992   9.150
 4490POPC   GL117965   0.431  40.057   8.850
 4490POPC   GL217966   0.375  40.055   8.850
 4490POPC   C1A17967   0.406  39.991   8.550
 4490POPC   D2A17968   0.457  40.005   8.250
 4490POPC   C3A17969   0.472  39.993   7.950
 4490POPC   C4A17970   0.428  40.035   7.650
 4490POPC   C1B17971   0.203  40.137   8.550
 4490POPC   C2B17972   0.277  40.135   8.250
 4490POPC   C3B17973   0.261  40.191   7.950
 4490POPC   C4B17974   0.243  40.186   7.650
 4491POPC   NC317975  25.241  41.520   9.450
 4491POPC   PO417976  25.291  41.526   9.150
 4491POPC   GL117977  25.233  41.566   8.850
 4491POPC   GL217978  25.339  41.622   8.850
 4491POPC   C1A17979  25.304  41.576   8.550
 4491POPC   D2A17980  25.310  41.602   8.250
 4491POPC   C3A17981  25.312  41.607   7.950
 4491POPC   C4A17982  25.265  41.516   7.650
 4491POPC   C1B17983  25.504  41.676   8.550
 4491POPC   C2B17984  25.443  41.669   8.250
 4491POPC   C3B17985  25.480  41.669   7.950
 4491POPC   C4B17986  25.411  41.710   7.650
 4492POPC   NC317987  43.134  43.136   9.450
 4492POPC   PO417988  43.129  43.151   9.150
 4492POPC   GL117989  43.132  43.158   8.850
 4492POPC   GL217990  43.032  42.998   8.850
 4492POPC   C1A17991  43.136  43.119   8.550
 4492POPC   D2A17992  43.094  43.156   8.250
 4492POPC   C3A17993  43.074  43.061   7.950
 4492POPC   C4A17994  43.106  43.098   7.650
 4492POPC   C1B17995  43.042  42.843   8.550
 4492POPC   C2B17996  42.987  42.908   8.250
 4492POPC   C3B17997  43.023  42.913   7.950
 4492POPC   C4B17998  43.062  42.835   7.650
 4493POPC   NC317999   1.230  17.532   9.450
 4493POPC   PO418000   1.225  17.495   9.150
 4493POPC   GL118001   1.255  17.541   8.850
 4493POPC   GL218002   1.142  17.630   8.850
 4493POPC   C1A18003   1.186  17.463   8.550
 4493POPC   D2A18004   1.184  17.496   8.250
 4493POPC   C3A18005   1.210  17.465   7.950
 4493POPC   C4A18006   1.197  17.531   7.650
 4493POPC   C1B18007   1.021  17.694   8.550
 4493POPC   C2B18008   0.997  17.656   8.250
 4493POPC   C3B18009   1.070  17.656   7.950
 4493POPC   C4B18010   1.009  17.666   7.650
 4494POPC   NC318011  37.675   5.908   9.450
 4494POPC   PO418012  37.663   5.884   9.150
 4494POPC   GL118013  37.643   5.832   8.850
 4494POPC   GL218014  37.530   5.872   8.850
 4494POPC   C1A18015  37.661   5.878   8.550
 4494POPC   D2A18016  37.716   5.856   8.250
 4494POPC   C3A18017  37.698   5.844   7.950
 4494POPC   C4A18018  37.725   5.919   7.650
 4494POPC   C1B18019  37.438   5.914   8.550
 4494POPC   C2B18020  37.422   5.943   8.250
 4494POPC   C3B18021  37.395   5.880   7.950
 4494POPC   C4B18022  37.411   5.949   7.650
 4495POPC   NC318023  44.691  28.340   9.450
 4495POPC   PO418024  44.648  28.405   9.150
 4495POPC   GL118025  44.632  28.410   8.850
 4495POPC   GL218026  44.750  28.334   8.850
 4495POPC   C1A18027  44.697  28.392   8.550
 4495POPC   D2A18028  44.712  28.418   8.250
 4495POPC   C3A18029  44.664  28.381   7.950
 4495POPC   C4A18030  44.652  28.414   7.650
 4495POPC   C1B18031  44.905  28.217   8.550
 4495POPC   C2B18032  44.909  28.253   8.250
 4495POPC   C3B18033  44.877  28.175   7.950
 4495POPC   C4B18034  44.894  28.173   7.650
 4496POPC   NC318035  12.817  12.825   9.450
 4496POPC   PO418036  12.874  12.815   9.150
 4496POPC   GL118037  12.811  12.867   8.850
 4496POPC   GL218038  12.774  12.888   8.850
 4496POPC   C1A18039  12.870  12.874   8.550
 4496POPC   D2A18040  12.863  12.819   8.250
 4496POPC   C3A18041  12.809  12.821   7.950
 4496POPC   C4A18042  12.842  12.848   7.650
 4496POPC   C1B18043  12.599  12.909   8.550
 4496POPC   C2B18044  12.657  12.965   8.250
 4496POPC   C3B18045  12.651  12.913   7.950
 4496POPC   C4B18046  12.629  12.985   7.650
 4497POPC   NC318047  32.990  39.248   9.450
 4497POPC   PO418048  33.010  39.232   9.150
 4497POPC   GL118049  32.987  39.280   8.850
 4497POPC   GL218050  33.170  39.281   8.850
 4497POPC   C1A18051  33.023  39.241   8.550
 4497POPC   D2A18052  33.056  39.231   8.250
 4497POPC   C3A18053  33.060  39.210   7.950
 4497POPC   C4A18054  32.990  39.201   7.650
 4497POPC   C1B18055  33.313  39.249   8.550
 4497POPC   C2B18056  33.269  39.260   8.250
 4497POPC   C3B18057  33.249  39.312   7.950
 4497POPC   C4B18058  33.288  39.243   7.650
 4498POPC   NC318059  26.071  12.898   9.450
 4498POPC   PO418060  26.043  12.884   9.150
 4498POPC   GL118061  26.004  12.854   8.850
 4498POPC   GL218062  26.151  12.767   8.850
 4498POPC   C1A18063  26.076  12.875   8.550
 4498POPC   D2A18064  26.048  12.893   8.250
 4498POPC   C3A18065  26.027  12.859   7.950
 4498POPC   C4A18066  26.006  12.900   7.650
 4498POPC   C1B18067  26.243  12.626   8.550
 4498POPC   C2B18068  26.215  12.650   8.250
 4498POPC   C3B18069  26.161  12.631   7.950
 4498POPC   C4B18070  26.249  12.673   7.650
 4499POPC   NC318071  10.531  33.791   9.450
 4499POPC   PO418072  10.493  33.807   9.150
 4499POPC   GL118073  10.542  33.820   8.850
 4499POPC   GL218074  10.587  33.682   8.850
 4499POPC   C1A18075  10.560  33.814   8.550
 4499POPC   D2A18076  10.550  33.816   8.250
 4499POPC   C3A18077  10.498  33.849   7.950
 4499POPC   C4A18078  10.505  33.784   7.650
 4499POPC   C1B18079  10.650  33.593   8.550
 4499POPC   C2B18080  10.637  33.536   8.250
 4499POPC   C3B18081  10.655  33.547   7.950
 4499POPC   C4B18082  10.656  33.567   7.650
 4500POPC   NC318083  39.275   6.646   9.450
 4500POPC   PO418084  39.228   6.678   9.150
 4500POPC   GL118085  39.259   6.680   8.850
 4500POPC   GL218086  39.276   6.743   8.850
 4500POPC   C1A18087  39.266   6.641   8.550
 4500POPC   D2A18088  39.203   6.674   8.250
 4500POPC   C3A18089  39.225   6.608   7.950
 4500POPC   C4A18090  39.271   6.688   7.650
 4500POPC   C1B18091  39.301   6.897   8.550
 4500POPC   C2B18092  39.329   6.856   8.250
 4500POPC   C3B18093  39.341   6.910   7.950
 4500POPC   C4B18094  39.365   6.849   7.650
 4501POPC   NC318095   0.411   1.965   9.450
 4501POPC   PO418096   0.466   2.030   9.150
 4501POPC   GL118097   0.460   1.969   8.850
 4501POPC   GL218098   0.493   2.082   8.850
 4501POPC   C1A18099   0.471   1.955   8.550
 4501POPC   D2A18100   0.437   1.968   8.250
 4501POPC   C3A18101   0.398   1.992   7.950
 4501POPC   C4A18102   0.419   1.957   7.650
 4501POPC   C1B18103   0.659   2.173   8.550
 4501POPC   C2B18104   0.622   2.136   8.250
 4501POPC   C3B18105   0.657   2.138   7.950
 4501POPC   C4B18106   0.657   2.127   7.650
 4502POPC   NC318107  30.658   7.431   9.450
 4502POPC   PO418108  30.719   7.392   9.150
 4502POPC   GL118109  30.697   7.389   8.850
 4502POPC   GL218110  30.725   7.310   8.850
 4502POPC   C1A18111  30.716   7.386   8.550
 4502POPC   D2A18112  30.707   7.408   8.250
 4502POPC   C3A18113  30.743   7.465   7.950
 4502POPC   C4A18114  30.689   7.424   7.650
 4502POPC   C1B18115  30.719   7.142   8.550
 4502POPC   C2B18116  30.634   7.130   8.250
 4502POPC   C3B18117  30.660   7.134   7.950
 4502POPC   C4B18118  30.715   7.154   7.650
 4503POPC   NC318119  36.921  33.046   9.450
 4503POPC   PO418120  36.910  33.016   9.150
 4503POPC   GL118121  36.913  33.031   8.850
 4503POPC   GL218122  36.856  33.174   8.850
 4503POPC   C1A18123  36.887  33.030   8.550
 4503POPC   D2A18124  36.923  33.049   8.250
 4503POPC   C3A18125  36.869  32.991   7.950
 4503POPC   C4A18126  36.896  32.992   7.650
 4503POPC   C1B18127  36.878  33.236   8.550
 4503POPC   C2B18128  36.925  33.303   8.250
 4503POPC   C3B18129  36.927  33.253   7.950
 4503POPC   C4B18130  36.899  33.260   7.650
 4504POPC   NC318131   0.413  22.120   9.450
 4504POPC   PO418132   0.423  22.206   9.150
 4504POPC   GL118133   0.409  22.122   8.850
 4504POPC   GL218134   0.297  22.214   8.850
 4504POPC   C1A18135   0.458  22.190   8.550
 4504POPC   D2A18136   0.427  22.194   8.250
 4504POPC   C3A18137   0.464  22.192   7.950
 4504POPC   C4A18138   0.448  22.189   7.650
 4504POPC   C1B18139   0.250  22.277   8.550
 4504POPC   C2B18140   0.248  22.291   8.250
 4504POPC   C3B18141   0.219  22.335   7.950
 4504POPC   C4B18142   0.236  22.326   7.650
 4505POPC   NC318143  19.095  18.258   9.450
 4505POPC   PO418144  19.105  18.288   9.150
 4505POPC   GL118145  19.087  18.247   8.850
 4505POPC   GL218146  19.109  18.130   8.850
 4505POPC   C1A18147  19.096  18.305   8.550
 4505POPC   D2A18148  19.041  18.261   8.250
 4505POPC   C3A18149  19.092  18.242   7.950
 4505POPC   C4A18150  19.013  18.283   7.650
 4505POPC   C1B18151  19.097  17.984   8.550
 4505POPC   C2B18152  19.096  17.988   8.250
 4505POPC   C3B18153  19.051  17.999   7.950
 4505POPC   C4B18154  19.032  18.062   7.650
 4506POPC   NC318155  32.254   9.790   9.450
 4506POPC   PO418156  32.285   9.757   9.150
 4506POPC   GL118157  32.280   9.795   8.850
 4506POPC   GL218158  32.131   9.689   8.850
 4506POPC   C1A18159  32.215   9.782   8.550
 4506POPC   D2A18160  32.225   9.719   8.250
 4506POPC   C3A18161  32.281   9.714   7.950
 4506POPC   C4A18162  32.242   9.704   7.650
 4506POPC   C1B18163  31.995   9.662   8.550
 4506POPC   C2B18164  32.036   9.671   8.250
 4506POPC   C3B18165  32.044   9.681   7.950
 4506POPC   C4B18166  32.023   9.726   7.650
 4507POPC   NC318167  41.548  44.702   9.450
 4507POPC   PO418168  41.575  44.711   9.150
 4507POPC   GL118169  41.587  44.634   8.850
 4507POPC   GL218170  41.524  44.598   8.850
 4507POPC   C1A18171  41.516  44.695   8.550
 4507POPC   D2A18172  41.553  44.639   8.250
 4507POPC   C3A18173  41.587  44.648   7.950
 4507POPC   C4A18174  41.587  44.641   7.650
 4507POPC   C1B18175  41.426  44.426   8.550
 4507POPC   C2B18176  41.408  44.407   8.250
 4507POPC   C3B18177  41.470  44.483   7.950
 4507POPC   C4B18178  41.420  44.477   7.650
 4508POPC   NC318179   6.685  15.142   9.450
 4508POPC   PO418180   6.673  15.157   9.150
 4508POPC   GL118181   6.683  15.168   8.850
 4508POPC   GL218182   6.614  15.298   8.850
 4508POPC   C1A18183   6.628  15.153   8.550
 4508POPC   D2A18184   6.686  15.132   8.250
 4508POPC   C3A18185   6.687  15.157   7.950
 4508POPC   C4A18186   6.670  15.196   7.650
 4508POPC   C1B18187   6.449  15.328   8.550
 4508POPC   C2B18188   6.452  15.415   8.250
 4508POPC   C3B18189   6.459  15.328   7.950
 4508POPC   C4B18190   6.474  15.329   7.650
 4509POPC   NC318191  17.523   0.391   9.450
 4509POPC   PO418192  17.520   0.448   9.150
 4509POPC   GL118193  17.543   0.442   8.850
 4509POPC   GL218194  17.421   0.453   8.850
 4509POPC   C1A18195  17.507   0.479   8.550
 4509POPC   D2A18196  17.474   0.439   8.250
 4509POPC   C3A18197  17.464   0.456   7.950
 4509POPC   C4A18198  17.548   0.478   7.650
 4509POPC   C1B18199  17.245   0.454   8.550
 4509POPC   C2B18200  17.257   0.382   8.250
 4509POPC   C3B18201  17.307   0.401   7.950
 4509POPC   C4B18202  17.293   0.435   7.650
 4510POPC   NC318203  16.701   5.914   9.450
 4510POPC   PO418204  16.722   5.900   9.150
 4510POPC   GL118205  16.729   5.888   8.850
 4510POPC   GL218206  16.612   5.756   8.850
 4510POPC   C1A18207  16.729   5.875   8.550
 4510POPC   D2A18208  16.764   5.907   8.250
 4510POPC   C3A18209  16.773   5.832   7.950
 4510POPC   C4A18210  16.715   5.900   7.650
 4510POPC   C1B18211  16.532   5.642   8.550
 4510POPC   C2B18212  16.543   5.678   8.250
 4510POPC   C3B18213  16.560   5.681   7.950
 4510POPC   C4B18214  16.526   5.653   7.650
 4511POPC   NC318215   4.328  15.917   9.450
 4511POPC   PO418216   4.274  15.919   9.150
 4511POPC   GL118217   4.334  15.967   8.850
 4511POPC   GL218218   4.149  15.955   8.850
 4511POPC   C1A18219   4.303  15.978   8.550
 4511POPC   D2A18220   4.344  15.910   8.250
 4511POPC   C3A18221   4.359  15.931   7.950
 4511POPC   C4A18222   4.360  15.973   7.650
 4511POPC   C1B18223   4.080  15.864   8.550
 4511POPC   C2B18224   4.088  15.862   8.250
 4511POPC   C3B18225   4.121  15.901   7.950
 4511POPC   C4B18226   4.056  15.886   7.650
 4512POPC   NC318227   5.091  43.071   9.450
 4512POPC   PO418228   5.050  43.062   9.150
 4512POPC   GL118229   5.137  43.089   8.850
 4512POPC   GL218230   4.977  43.235   8.850
 4512POPC   C1A18231   5.086  43.068   8.550
 4512POPC   D2A18232   5.079  43.154   8.250
 4512POPC   C3A18233   5.076  43.098   7.950
 4512POPC   C4A18234   5.068  43.097   7.650
 4512POPC   C1B18235   4.921  43.320   8.550
 4512POPC   C2B18236   4.857  43.264   8.250
 4512POPC   C3B18237   4.872  43.307   7.950
 4512POPC   C4B18238   4.868  43.257   7.650
 4513POPC   NC318239   4.367   7.412   9.450
 4513POPC   PO418240   4.349   7.420   9.150
 4513POPC   GL118241   4.326   7.429   8.850
 4513POPC   GL218242   4.386   7.459   8.850
 4513POPC   C1A18243   4.312   7.431   8.550
 4513POPC   D2A18244   4.365   7.377   8.250
 4513POPC   C3A18245   4.294   7.394   7.950
 4513POPC   C4A18246   4.304   7.380   7.650
 4513POPC   C1B18247   4.556   7.536   8.550
 4513POPC   C2B18248   4.502   7.507   8.250
 4513POPC   C3B18249   4.532   7.513   7.950
 4513POPC   C4B18250   4.594   7.476   7.650
 4514POPC   NC318251  39.192  33.040   9.450
 4514POPC   PO418252  39.266  33.028   9.150
 4514POPC   GL118253  39.229  33.053   8.850
 4514POPC   GL218254  39.327  32.971   8.850
 4514POPC   C1A18255  39.208  33.053   8.550
 4514POPC   D2A18256  39.239  33.050   8.250
 4514POPC   C3A18257  39.263  32.984   7.950
 4514POPC   C4A18258  39.188  33.002   7.650
 4514POPC   C1B18259  39.402  32.831   8.550
 4514POPC   C2B18260  39.432  32.913   8.250
 4514POPC   C3B18261  39.445  32.861   7.950
 4514POPC   C4B18262  39.427  32.888   7.650
 4515POPC   NC318263   1.959   2.024   9.450
 4515POPC   PO418264   1.977   2.000   9.150
 4515POPC   GL118265   1.993   2.040   8.850
 4515POPC   GL218266   1.896   2.037   8.850
 4515POPC   C1A18267   2.038   1.962   8.550
 4515POPC   D2A18268   1.971   1.944   8.250
 4515POPC   C3A18269   2.003   2.011   7.950
 4515POPC   C4A18270   1.961   1.997   7.650
 4515POPC   C1B18271   1.844   2.214   8.550
 4515POPC   C2B18272   1.835   2.168   8.250
 4515POPC   C3B18273   1.801   2.139   7.950
 4515POPC   C4B18274   1.845   2.212   7.650
 4516POPC   NC318275  15.201  28.405   9.450
 4516POPC   PO418276  15.171  28.329   9.150
 4516POPC   GL118277  15.214  28.338   8.850
 4516POPC   GL218278  15.076  28.323   8.850
 4516POPC   C1A18279  15.155  28.404   8.550
 4516POPC   D2A18280  15.162  28.385   8.250
 4516POPC   C3A18281  15.135  28.385   7.950
 4516POPC   C4A18282  15.220  28.360   7.650
 4516POPC   C1B18283  14.904  28.222   8.550
 4516POPC   C2B18284  14.975  28.299   8.250
 4516POPC   C3B18285  14.987  28.258   7.950
 4516POPC   C4B18286  14.952  28.272   7.650
 4517POPC   NC318287  34.546  39.257   9.450
 4517POPC   PO418288  34.603  39.279   9.150
 4517POPC   GL118289  34.589  39.261   8.850
 4517POPC   GL218290  34.435  39.311   8.850
 4517POPC   C1A18291  34.574  39.205   8.550
 4517POPC   D2A18292  34.543  39.274   8.250
 4517POPC   C3A18293  34.536  39.184   7.950
 4517POPC   C4A18294  34.564  39.194   7.650
 4517POPC   C1B18295  34.406  39.397   8.550
 4517POPC   C2B18296  34.426  39.410   8.250
 4517POPC   C3B18297  34.406  39.442   7.950
 4517POPC   C4B18298  34.384  39.393   7.650
 4518POPC   NC318299  19.030  34.577   9.450
 4518POPC   PO418300  19.104  34.529   9.150
 4518POPC   GL118301  19.042  34.598   8.850
 4518POPC   GL218302  19.165  34.519   8.850
 4518POPC   C1A18303  19.027  34.615   8.550
 4518POPC   D2A18304  19.098  34.564   8.250
 4518POPC   C3A18305  19.053  34.580   7.950
 4518POPC   C4A18306  19.045  34.597   7.650
 4518POPC   C1B18307  19.248  34.434   8.550
 4518POPC   C2B18308  19.180  34.432   8.250
 4518POPC   C3B18309  19.253  34.437   7.950
 4518POPC   C4B18310  19.216  34.363   7.650
 4519POPC   NC318311   5.822  28.401   9.450
 4519POPC   PO418312   5.858  28.418   9.150
 4519POPC   GL118313   5.854  28.410   8.850
 4519POPC   GL218314   5.960  28.346   8.850
 4519POPC   C1A18315   5.901  28.338   8.550
 4519POPC   D2A18316   5.824  28.385   8.250
 4519POPC   C3A18317   5.917  28.376   7.950
 4519POPC   C4A18318   5.830  28.359   7.650
 4519POPC   C1B18319   6.120  28.261   8.550
 4519POPC   C2B18320   6.131  28.236   8.250
 4519POPC   C3B18321   6.116  28.309   7.950
 4519POPC   C4B18322   6.064  28.326   7.650
 4520POPC   NC318323  36.165  29.107   9.450
 4520POPC   PO418324  36.128  29.142   9.150
 4520POPC   GL118325  36.142  29.132   8.850
 4520POPC   GL218326  36.030  29.044   8.850
 4520POPC   C1A18327  36.109  29.122   8.550
 4520POPC   D2A18328  36.135  29.134   8.250
 4520POPC   C3A18329  36.113  29.121   7.950
 4520POPC   C4A18330  36.133  29.126   7.650
 4520POPC   C1B18331  35.906  29.049   8.550
 4520POPC   C2B18332  35.915  29.029   8.250
 4520POPC   C3B18333  35.955  28.985   7.950
 4520POPC   C4B18334  35.926  29.003   7.650
 4521POPC   NC318335  37.698  29.946   9.450
 4521POPC   PO418336  37.709  29.876   9.150
 4521POPC   GL118337  37.660  29.899   8.850
 4521POPC   GL218338  37.713  29.831   8.850
 4521POPC   C1A18339  37.657  29.956   8.550
 4521POPC   D2A18340  37.698  29.942   8.250
 4521POPC   C3A18341  37.696  29.941   7.950
 4521POPC   C4A18342  37.682  29.938   7.650
 4521POPC   C1B18343  37.809  29.702   8.550
 4521POPC   C2B18344  37.840  29.686   8.250
 4521POPC   C3B18345  37.804  29.665   7.950
 4521POPC   C4B18346  37.772  29.678   7.650
 4522POPC   NC318347  40.756  34.555   9.450
 4522POPC   PO418348  40.774  34.543   9.150
 4522POPC   GL118349  40.777  34.544   8.850
 4522POPC   GL218350  40.911  34.609   8.850
 4522POPC   C1A18351  40.787  34.608   8.550
 4522POPC   D2A18352  40.753  34.579   8.250
 4522POPC   C3A18353  40.800  34.599   7.950
 4522POPC   C4A18354  40.814  34.526   7.650
 4522POPC   C1B18355  40.997  34.587   8.550
 4522POPC   C2B18356  41.060  34.563   8.250
 4522POPC   C3B18357  41.073  34.596   7.950
 4522POPC   C4B18358  40.995  34.521   7.650
 4523POPC   NC318359  41.597  27.546   9.450
 4523POPC   PO418360  41.528  27.599   9.150
 4523POPC   GL118361  41.526  27.564   8.850
 4523POPC   GL218362  41.475  27.546   8.850
 4523POPC   C1A18363  41.593  27.577   8.550
 4523POPC   D2A18364  41.535  27.577   8.250
 4523POPC   C3A18365  41.562  27.627   7.950
 4523POPC   C4A18366  41.566  27.616   7.650
 4523POPC   C1B18367  41.345  27.522   8.550
 4523POPC   C2B18368  41.356  27.583   8.250
 4523POPC   C3B18369  41.297  27.565   7.950
 4523POPC   C4B18370  41.321  27.553   7.650
 4524POPC   NC318371   1.961  39.256   9.450
 4524POPC   PO418372   1.960  39.240   9.150
 4524POPC   GL118373   1.969  39.266   8.850
 4524POPC   GL218374   2.074  39.117   8.850
 4524POPC   C1A18375   1.998  39.250   8.550
 4524POPC   D2A18376   2.031  39.204   8.250
 4524POPC   C3A18377   2.015  39.229   7.950
 4524POPC   C4A18378   1.975  39.256   7.650
 4524POPC   C1B18379   2.117  38.969   8.550
 4524POPC   C2B18380   2.131  39.024   8.250
 4524POPC   C3B18381   2.142  39.033   7.950
 4524POPC   C4B18382   2.084  39.009   7.650
 4525POPC   NC318383  10.566  36.100   9.450
 4525POPC   PO418384  10.520  36.170   9.150
 4525POPC   GL118385  10.479  36.170   8.850
 4525POPC   GL218386  10.660  36.103   8.850
 4525POPC   C1A18387  10.554  36.124   8.550
 4525POPC   D2A18388  10.552  36.092   8.250
 4525POPC   C3A18389  10.492  36.098   7.950
 4525POPC   C4A18390  10.546  36.090   7.650
 4525POPC   C1B18391  10.727  36.092   8.550
 4525POPC   C2B18392  10.759  36.132   8.250
 4525POPC   C3B18393  10.781  36.087   7.950
 4525POPC   C4B18394  10.800  36.077   7.650
 4526POPC   NC318395  26.019   1.971   9.450
 4526POPC   PO418396  26.009   1.994   9.150
 4526POPC   GL118397  26.085   2.002   8.850
 4526POPC   GL218398  26.149   2.043   8.850
 4526POPC   C1A18399  26.021   2.004   8.550
 4526POPC   D2A18400  26.080   1.986   8.250
 4526POPC   C3A18401  26.076   1.973   7.950
 4526POPC   C4A18402  26.035   2.020   7.650
 4526POPC   C1B18403  26.335   2.042   8.550
 4526POPC   C2B18404  26.272   2.007   8.250
 4526POPC   C3B18405  26.313   2.087   7.950
 4526POPC   C4B18406  26.309   2.063   7.650
 4527POPC   NC318407  12.864  33.841   9.450
 4527POPC   PO418408  12.851  33.796   9.150
 4527POPC   GL118409  12.821  33.761   8.850
 4527POPC   GL218410  12.818  33.712   8.850
 4527POPC   C1A18411  12.889  33.751   8.550
 4527POPC   D2A18412  12.807  33.830   8.250
 4527POPC   C3A18413  12.802  33.824   7.950
 4527POPC   C4A18414  12.815  33.781   7.650
 4527POPC   C1B18415  12.844  33.573   8.550
 4527POPC   C2B18416  12.809  33.602   8.250
 4527POPC   C3B18417  12.772  33.549   7.950
 4527POPC   C4B18418  12.830  33.586   7.650
 4528POPC   NC318419  40.047  31.444   9.450
 4528POPC   PO418420  39.990  31.495   9.150
 4528POPC   GL118421  40.031  31.521   8.850
 4528POPC   GL218422  40.120  31.454   8.850
 4528POPC   C1A18423  40.017  31.426   8.550
 4528POPC   D2A18424  40.054  31.497   8.250
 4528POPC   C3A18425  40.052  31.469   7.950
 4528POPC   C4A18426  40.018  31.484   7.650
 4528POPC   C1B18427  40.248  31.440   8.550
 4528POPC   C2B18428  40.274  31.499   8.250
 4528POPC   C3B18429  40.210  31.440   7.950
 4528POPC   C4B18430  40.257  31.477   7.650
 4529POPC   NC318431  38.410   5.064   9.450
 4529POPC   PO418432  38.465   5.102   9.150
 4529POPC   GL118433  38.451   5.096   8.850
 4529POPC   GL218434  38.343   4.999   8.850
 4529POPC   C1A18435  38.494   5.076   8.550
 4529POPC   D2A18436  38.453   5.078   8.250
 4529POPC   C3A18437  38.483   5.053   7.950
 4529POPC   C4A18438  38.443   5.132   7.650
 4529POPC   C1B18439  38.225   4.999   8.550
 4529POPC   C2B18440  38.261   4.985   8.250
 4529POPC   C3B18441  38.217   4.978   7.950
 4529POPC   C4B18442  38.231   4.953   7.650
 4530POPC   NC318443  12.813   0.440   9.450
 4530POPC   PO418444  12.900   0.413   9.150
 4530POPC   GL118445  12.835   0.459   8.850
 4530POPC   GL218446  12.908   0.536   8.850
 4530POPC   C1A18447  12.901   0.401   8.550
 4530POPC   D2A18448  12.887   0.402   8.250
 4530POPC   C3A18449  12.894   0.391   7.950
 4530POPC   C4A18450  12.829   0.449   7.650
 4530POPC   C1B18451  12.937   0.715   8.550
 4530POPC   C2B18452  12.929   0.733   8.250
 4530POPC   C3B18453  12.938   0.703   7.950
 4530POPC   C4B18454  12.898   0.649   7.650
 4531POPC   NC318455  42.324  17.541   9.450
 4531POPC   PO418456  42.328  17.461   9.150
 4531POPC   GL118457  42.322  17.519   8.850
 4531POPC   GL218458  42.178  17.544   8.850
 4531POPC   C1A18459  42.349  17.476   8.550
 4531POPC   D2A18460  42.303  17.511   8.250
 4531POPC   C3A18461  42.329  17.457   7.950
 4531POPC   C4A18462  42.328  17.551   7.650
 4531POPC   C1B18463  42.072  17.557   8.550
 4531POPC   C2B18464  42.071  17.580   8.250
 4531POPC   C3B18465  42.106  17.590   7.950
 4531POPC   C4B18466  42.086  17.605   7.650
 4532POPC   NC318467  38.413   0.433   9.450
 4532POPC   PO418468  38.419   0.445   9.150
 4532POPC   GL118469  38.494   0.408   8.850
 4532POPC   GL218470  38.371   0.297   8.850
 4532POPC   C1A18471  38.413   0.405   8.550
 4532POPC   D2A18472  38.435   0.415   8.250
 4532POPC   C3A18473  38.439   0.417   7.950
 4532POPC   C4A18474  38.501   0.432   7.650
 4532POPC   C1B18475  38.337   0.280   8.550
 4532POPC   C2B18476  38.324   0.246   8.250
 4532POPC   C3B18477  38.311   0.280   7.950
 4532POPC   C4B18478  38.271   0.204   7.650
 4533POPC   NC318479  39.230   3.498   9.450
 4533POPC   PO418480  39.260   3.585   9.150
 4533POPC   GL118481  39.253   3.536   8.850
 4533POPC   GL218482  39.228   3.427   8.850
 4533POPC   C1A18483  39.217   3.574   8.550
 4533POPC   D2A18484  39.181   3.516   8.250
 4533POPC   C3A18485  39.250   3.559   7.950
 4533POPC   C4A18486  39.192   3.590   7.650
 4533POPC   C1B18487  39.207   3.343   8.550
 4533POPC   C2B18488  39.129   3.295   8.250
 4533POPC   C3B18489  39.144   3.333   7.950
 4533POPC   C4B18490  39.207   3.292   7.650
 4534POPC   NC318491  15.980  40.047   9.450
 4534POPC   PO418492  15.945  39.968   9.150
 4534POPC   GL118493  15.980  39.972   8.850
 4534POPC   GL218494  16.043  40.072   8.850
 4534POPC   C1A18495  15.959  40.034   8.550
 4534POPC   D2A18496  15.988  40.003   8.250
 4534POPC   C3A18497  15.996  40.037   7.950
 4534POPC   C4A18498  15.995  40.025   7.650
 4534POPC   C1B18499  16.249  40.024   8.550
 4534POPC   C2B18500  16.189  40.029   8.250
 4534POPC   C3B18501  16.225  40.079   7.950
 4534POPC   C4B18502  16.251  40.078   7.650
 4535POPC   NC318503  16.758  22.958   9.450
 4535POPC   PO418504  16.697  22.975   9.150
 4535POPC   GL118505  16.683  22.969   8.850
 4535POPC   GL218506  16.813  22.998   8.850
 4535POPC   C1A18507  16.700  22.896   8.550
 4535POPC   D2A18508  16.752  22.924   8.250
 4535POPC   C3A18509  16.728  22.950   7.950
 4535POPC   C4A18510  16.703  22.971   7.650
 4535POPC   C1B18511  16.982  23.087   8.550
 4535POPC   C2B18512  16.965  23.095   8.250
 4535POPC   C3B18513  16.995  23.013   7.950
 4535POPC   C4B18514  16.927  23.032   7.650
 4536POPC   NC318515  37.720   8.923   9.450
 4536POPC   PO418516  37.705   8.990   9.150
 4536POPC   GL118517  37.653   8.949   8.850
 4536POPC   GL218518  37.753   9.030   8.850
 4536POPC   C1A18519  37.666   9.014   8.550
 4536POPC   D2A18520  37.704   8.923   8.250
 4536POPC   C3A18521  37.674   9.002   7.950
 4536POPC   C4A18522  37.702   9.022   7.650
 4536POPC   C1B18523  37.866   9.132   8.550
 4536POPC   C2B18524  37.891   9.159   8.250
 4536POPC   C3B18525  37.893   9.121   7.950
 4536POPC   C4B18526  37.910   9.193   7.650
 4537POPC   NC318527  22.892  15.211   9.450
 4537POPC   PO418528  22.934  15.160   9.150
 4537POPC   GL118529  22.896  15.155   8.850
 4537POPC   GL218530  22.881  15.229   8.850
 4537POPC   C1A18531  22.979  15.225   8.550
 4537POPC   D2A18532  22.908  15.174   8.250
 4537POPC   C3A18533  22.888  15.172   7.950
 4537POPC   C4A18534  22.892  15.188   7.650
 4537POPC   C1B18535  22.762  15.286   8.550
 4537POPC   C2B18536  22.689  15.274   8.250
 4537POPC   C3B18537  22.720  15.319   7.950
 4537POPC   C4B18538  22.754  15.307   7.650
 4538POPC   NC318539  31.519  14.405   9.450
 4538POPC   PO418540  31.479  14.429   9.150
 4538POPC   GL118541  31.447  14.366   8.850
 4538POPC   GL218542  31.469  14.568   8.850
 4538POPC   C1A18543  31.432  14.360   8.550
 4538POPC   D2A18544  31.486  14.432   8.250
 4538POPC   C3A18545  31.522  14.396   7.950
 4538POPC   C4A18546  31.499  14.452   7.650
 4538POPC   C1B18547  31.484  14.654   8.550
 4538POPC   C2B18548  31.465  14.696   8.250
 4538POPC   C3B18549  31.485  14.685   7.950
 4538POPC   C4B18550  31.517  14.616   7.650
 4539POPC   NC318551   7.390  37.694   9.450
 4539POPC   PO418552   7.451  37.632   9.150
 4539POPC   GL118553   7.434  37.645   8.850
 4539POPC   GL218554   7.439  37.589   8.850
 4539POPC   C1A18555   7.456  37.710   8.550
 4539POPC   D2A18556   7.395  37.661   8.250
 4539POPC   C3A18557   7.444  37.637   7.950
 4539POPC   C4A18558   7.440  37.667   7.650
 4539POPC   C1B18559   7.354  37.393   8.550
 4539POPC   C2B18560   7.337  37.433   8.250
 4539POPC   C3B18561   7.357  37.469   7.950
 4539POPC   C4B18562   7.363  37.455   7.650
 4540POPC   NC318563  37.652  34.614   9.450
 4540POPC   PO418564  37.638  34.548   9.150
 4540POPC   GL118565  37.630  34.580   8.850
 4540POPC   GL218566  37.779  34.604   8.850
 4540POPC   C1A18567  37.641  34.568   8.550
 4540POPC   D2A18568  37.680  34.536   8.250
 4540POPC   C3A18569  37.700  34.567   7.950
 4540POPC   C4A18570  37.655  34.589   7.650
 4540POPC   C1B18571  37.940  34.564   8.550
 4540POPC   C2B18572  37.961  34.562   8.250
 4540POPC   C3B18573  37.955  34.629   7.950
 4540POPC   C4B18574  37.917  34.551   7.650
 4541POPC   NC318575  25.224  22.912   9.450
 4541POPC   PO418576  25.245  22.988   9.150
 4541POPC   GL118577  25.288  22.981   8.850
 4541POPC   GL218578  25.211  23.048   8.850
 4541POPC   C1A18579  25.252  22.978   8.550
 4541POPC   D2A18580  25.293  22.900   8.250
 4541POPC   C3A18581  25.223  22.941   7.950
 4541POPC   C4A18582  25.281  22.935   7.650
 4541POPC   C1B18583  25.115  23.207   8.550
 4541POPC   C2B18584  25.142  23.122   8.250
 4541POPC   C3B18585  25.190  23.173   7.950
 4541POPC   C4B18586  25.140  23.144   7.650
 4542POPC   NC318587   8.941  17.488   9.450
 4542POPC   PO418588   8.953  17.524   9.150
 4542POPC   GL118589   9.002  17.494   8.850
 4542POPC   GL218590   8.854  17.467   8.850
 4542POPC   C1A18591   8.959  17.517   8.550
 4542POPC   D2A18592   8.936  17.511   8.250
 4542POPC   C3A18593   8.936  17.531   7.950
 4542POPC   C4A18594   8.959  17.529   7.650
 4542POPC   C1B18595   8.712  17.458   8.550
 4542POPC   C2B18596   8.767  17.500   8.250
 4542POPC   C3B18597   8.759  17.459   7.950
 4542POPC   C4B18598   8.714  17.501   7.650
 4543POPC   NC318599   8.239  22.906   9.450
 4543POPC   PO418600   8.232  22.905   9.150
 4543POPC   GL118601   8.246  22.973   8.850
 4543POPC   GL218602   8.368  23.014   8.850
 4543POPC   C1A18603   8.150  22.922   8.550
 4543POPC   D2A18604   8.206  22.962   8.250
 4543POPC   C3A18605   8.168  22.926   7.950
 4543POPC   C4A18606   8.184  22.939   7.650
 4543POPC   C1B18607   8.449  22.999   8.550
 4543POPC   C2B18608   8.414  22.981   8.250
 4543POPC   C3B18609   8.407  23.035   7.950
 4543POPC   C4B18610   8.401  22.967   7.650
 4544POPC   NC318611   9.734  13.621   9.450
 4544POPC   PO418612   9.764  13.601   9.150
 4544POPC   GL118613   9.761  13.601   8.850
 4544POPC   GL218614   9.874  13.752   8.850
 4544POPC   C1A18615   9.769  13.589   8.550
 4544POPC   D2A18616   9.735  13.657   8.250
 4544POPC   C3A18617   9.733  13.598   7.950
 4544POPC   C4A18618   9.728  13.642   7.650
 4544POPC   C1B18619   9.906  13.803   8.550
 4544POPC   C2B18620   9.900  13.828   8.250
 4544POPC   C3B18621   9.934  13.798   7.950
 4544POPC   C4B18622   9.914  13.777   7.650
 4545POPC   NC318623  11.323  17.534   9.450
 4545POPC   PO418624  11.281  17.557   9.150
 4545POPC   GL118625  11.311  17.516   8.850
 4545POPC   GL218626  11.385  17.510   8.850
 4545POPC   C1A18627  11.257  17.533   8.550
 4545POPC   D2A18628  11.332  17.520   8.250
 4545POPC   C3A18629  11.287  17.544   7.950
 4545POPC   C4A18630  11.338  17.500   7.650
 4545POPC   C1B18631  11.564  17.526   8.550
 4545POPC   C2B18632  11.547  17.505   8.250
 4545POPC   C3B18633  11.578  17.516   7.950
 4545POPC   C4B18634  11.581  17.499   7.650
 4546POPC   NC318635   8.215  33.034   9.450
 4546POPC   PO418636   8.152  33.032   9.150
 4546POPC   GL118637   8.205  33.013   8.850
 4546POPC   GL218638   8.091  32.956   8.850
 4546POPC   C1A18639   8.195  32.996   8.550
 4546POPC   D2A18640   8.170  32.989   8.250
 4546POPC   C3A18641   8.161  32.987   7.950
 4546POPC   C4A18642   8.209  32.979   7.650
 4546POPC   C1B18643   8.061  32.803   8.550
 4546POPC   C2B18644   8.040  32.797   8.250
 4546POPC   C3B18645   8.104  32.777   7.950
 4546POPC   C4B18646   8.038  32.863   7.650
 4547POPC   NC318647  43.122  15.958   9.450
 4547POPC   PO418648  43.113  15.933   9.150
 4547POPC   GL118649  43.144  15.934   8.850
 4547POPC   GL218650  43.030  15.866   8.850
 4547POPC   C1A18651  43.121  15.995   8.550
 4547POPC   D2A18652  43.077  15.918   8.250
 4547POPC   C3A18653  43.112  15.963   7.950
 4547POPC   C4A18654  43.159  15.931   7.650
 4547POPC   C1B18655  42.987  15.731   8.550
 4547POPC   C2B18656  43.012  15.721   8.250
 4547POPC   C3B18657  42.957  15.759   7.950
 4547POPC   C4B18658  42.967  15.704   7.650
 4548POPC   NC318659  17.486   7.442   9.450
 4548POPC   PO418660  17.538   7.431   9.150
 4548POPC   GL118661  17.498   7.410   8.850
 4548POPC   GL218662  17.380   7.461   8.850
 4548POPC   C1A18663  17.555   7.393   8.550
 4548POPC   D2A18664  17.486   7.373   8.250
 4548POPC   C3A18665  17.500   7.389   7.950
 4548POPC   C4A18666  17.540   7.381   7.650
 4548POPC   C1B18667  17.249   7.540   8.550
 4548POPC   C2B18668  17.338   7.524   8.250
 4548POPC   C3B18669  17.275   7.554   7.950
 4548POPC   C4B18670  17.275   7.559   7.650
 4549POPC   NC318671  32.227  12.095   9.450
 4549POPC   PO418672  32.228  12.086   9.150
 4549POPC   GL118673  32.249  12.081   8.850
 4549POPC   GL218674  32.232  11.908   8.850
 4549POPC   C1A18675  32.211  12.026   8.550
 4549POPC   D2A18676  32.204  12.090   8.250
 4549POPC   C3A18677  32.265  12.096   7.950
 4549POPC   C4A18678  32.241  12.121   7.650
 4549POPC   C1B18679  32.249  11.791   8.550
 4549POPC   C2B18680  32.254  11.852   8.250
 4549POPC   C3B18681  32.286  11.856   7.950
 4549POPC   C4B18682  32.249  11.828   7.650
 4550POPC   NC318683  22.943   6.619   9.450
 4550POPC   PO418684  22.890   6.620   9.150
 4550POPC   GL118685  22.966   6.651   8.850
 4550POPC   GL218686  22.822   6.541   8.850
 4550POPC   C1A18687  22.954   6.653   8.550
 4550POPC   D2A18688  22.958   6.657   8.250
 4550POPC   C3A18689  22.908   6.688   7.950
 4550POPC   C4A18690  22.944   6.658   7.650
 4550POPC   C1B18691  22.717   6.485   8.550
 4550POPC   C2B18692  22.747   6.553   8.250
 4550POPC   C3B18693  22.707   6.521   7.950
 4550POPC   C4B18694  22.684   6.492   7.650
 4551POPC   NC318695  39.190   9.013   9.450
 4551POPC   PO418696  39.262   9.004   9.150
 4551POPC   GL118697  39.231   8.945   8.850
 4551POPC   GL218698  39.141   9.025   8.850
 4551POPC   C1A18699  39.218   9.000   8.550
 4551POPC   D2A18700  39.231   8.925   8.250
 4551POPC   C3A18701  39.262   8.940   7.950
 4551POPC   C4A18702  39.223   8.991   7.650
 4551POPC   C1B18703  39.050   9.138   8.550
 4551POPC   C2B18704  38.990   9.112   8.250
 4551POPC   C3B18705  39.011   9.104   7.950
 4551POPC   C4B18706  38.997   9.115   7.650
 4552POPC   NC318707   9.778  14.395   9.450
 4552POPC   PO418708   9.773  14.429   9.150
 4552POPC   GL118709   9.790  14.434   8.850
 4552POPC   GL218710   9.811  14.271   8.850
 4552POPC   C1A18711   9.744  14.430   8.550
 4552POPC   D2A18712   9.711  14.451   8.250
 4552POPC   C3A18713   9.780  14.406   7.950
 4552POPC   C4A18714   9.724  14.425   7.650
 4552POPC   C1B18715   9.885  14.205   8.550
 4552POPC   C2B18716   9.899  14.233   8.250
 4552POPC   C3B18717   9.945  14.260   7.950
 4552POPC   C4B18718   9.973  14.249   7.650
 4553POPC   NC318719  27.597  43.121   9.450
 4553POPC   PO418720  27.575  43.124   9.150
 4553POPC   GL118721  27.546  43.142   8.850
 4553POPC   GL218722  27.473  43.119   8.850
 4553POPC   C1A18723  27.565  43.147   8.550
 4553POPC   D2A18724  27.557  43.117   8.250
 4553POPC   C3A18725  27.559  43.100   7.950
 4553POPC   C4A18726  27.630  43.077   7.650
 4553POPC   C1B18727  27.322  43.181   8.550
 4553POPC   C2B18728  27.351  43.163   8.250
 4553POPC   C3B18729  27.403  43.170   7.950
 4553POPC   C4B18730  27.317  43.195   7.650
 4554POPC   NC318731   6.633  38.419   9.450
 4554POPC   PO418732   6.599  38.441   9.150
 4554POPC   GL118733   6.690  38.440   8.850
 4554POPC   GL218734   6.741  38.531   8.850
 4554POPC   C1A18735   6.656  38.482   8.550
 4554POPC   D2A18736   6.669  38.494   8.250
 4554POPC   C3A18737   6.624  38.489   7.950
 4554POPC   C4A18738   6.609  38.473   7.650
 4554POPC   C1B18739   6.699  38.726   8.550
 4554POPC   C2B18740   6.750  38.675   8.250
 4554POPC   C3B18741   6.724  38.652   7.950
 4554POPC   C4B18742   6.708  38.703   7.650
 4555POPC   NC318743  13.596  40.734   9.450
 4555POPC   PO418744  13.633  40.756   9.150
 4555POPC   GL118745  13.622  40.765   8.850
 4555POPC   GL218746  13.677  40.687   8.850
 4555POPC   C1A18747  13.666  40.827   8.550
 4555POPC   D2A18748  13.671  40.826   8.250
 4555POPC   C3A18749  13.653  40.736   7.950
 4555POPC   C4A18750  13.675  40.816   7.650
 4555POPC   C1B18751  13.648  40.542   8.550
 4555POPC   C2B18752  13.734  40.582   8.250
 4555POPC   C3B18753  13.701  40.532   7.950
 4555POPC   C4B18754  13.663  40.547   7.650
 4556POPC   NC318755  39.266  18.329   9.450
 4556POPC   PO418756  39.229  18.305   9.150
 4556POPC   GL118757  39.210  18.323   8.850
 4556POPC   GL218758  39.219  18.161   8.850
 4556POPC   C1A18759  39.210  18.290   8.550
 4556POPC   D2A18760  39.271  18.243   8.250
 4556POPC   C3A18761  39.215  18.319   7.950
 4556POPC   C4A18762  39.240  18.263   7.650
 4556POPC   C1B18763  39.225  18.045   8.550
 4556POPC   C2B18764  39.166  18.035   8.250
 4556POPC   C3B18765  39.209  18.081   7.950
 4556POPC   C4B18766  39.128  18.063   7.650
 4557POPC   NC318767   4.355  29.185   9.450
 4557POPC   PO418768   4.367  29.129   9.150
 4557POPC   GL118769   4.303  29.125   8.850
 4557POPC   GL218770   4.199  29.119   8.850
 4557POPC   C1A18771   4.352  29.153   8.550
 4557POPC   D2A18772   4.360  29.138   8.250
 4557POPC   C3A18773   4.348  29.188   7.950
 4557POPC   C4A18774   4.276  29.172   7.650
 4557POPC   C1B18775   4.092  29.126   8.550
 4557POPC   C2B18776   4.045  29.133   8.250
 4557POPC   C3B18777   4.089  29.154   7.950
 4557POPC   C4B18778   4.102  29.199   7.650
 4558POPC   NC318779  25.297   8.941   9.450
 4558POPC   PO418780  25.310   8.939   9.150
 4558POPC   GL118781  25.274   8.992   8.850
 4558POPC   GL218782  25.223   8.844   8.850
 4558POPC   C1A18783  25.288   8.930   8.550
 4558POPC   D2A18784  25.243   8.928   8.250
 4558POPC   C3A18785  25.289   8.935   7.950
 4558POPC   C4A18786  25.257   8.948   7.650
 4558POPC   C1B18787  25.278   8.679   8.550
 4558POPC   C2B18788  25.209   8.731   8.250
 4558POPC   C3B18789  25.238   8.711   7.950
 4558POPC   C4B18790  25.212   8.737   7.650
 4559POPC   NC318791  25.246   2.775   9.450
 4559POPC   PO418792  25.296   2.807   9.150
 4559POPC   GL118793  25.308   2.718   8.850
 4559POPC   GL218794  25.136   2.839   8.850
 4559POPC   C1A18795  25.225   2.785   8.550
 4559POPC   D2A18796  25.245   2.745   8.250
 4559POPC   C3A18797  25.278   2.735   7.950
 4559POPC   C4A18798  25.281   2.793   7.650
 4559POPC   C1B18799  25.037   2.797   8.550
 4559POPC   C2B18800  25.050   2.807   8.250
 4559POPC   C3B18801  25.063   2.837   7.950
 4559POPC   C4B18802  24.985   2.806   7.650
 4560POPC   NC318803   1.234  27.570   9.450
 4560POPC   PO418804   1.188  27.592   9.150
 4560POPC   GL118805   1.169  27.585   8.850
 4560POPC   GL218806   1.069  27.597   8.850
 4560POPC   C1A18807   1.174  27.553   8.550
 4560POPC   D2A18808   1.200  27.578   8.250
 4560POPC   C3A18809   1.250  27.618   7.950
 4560POPC   C4A18810   1.227  27.599   7.650
 4560POPC   C1B18811   0.975  27.498   8.550
 4560POPC   C2B18812   0.934  27.550   8.250
 4560POPC   C3B18813   0.929  27.514   7.950
 4560POPC   C4B18814   0.971  27.523   7.650
 4561POPC   NC318815  44.666  43.894   9.450
 4561POPC   PO418816  44.633  43.882   9.150
 4561POPC   GL118817  44.622  43.898   8.850
 4561POPC   GL218818  44.576  44.024   8.850
 4561POPC   C1A18819  44.711  43.858   8.550
 4561POPC   D2A18820  44.666  43.892   8.250
 4561POPC   C3A18821  44.673  43.844   7.950
 4561POPC   C4A18822  44.693  43.886   7.650
 4561POPC   C1B18823  44.560  44.133   8.550
 4561POPC   C2B18824  44.534  44.103   8.250
 4561POPC   C3B18825  44.593  44.130   7.950
 4561POPC   C4B18826  44.557  44.115   7.650
 4562POPC   NC318827  16.780   3.493   9.450
 4562POPC   PO418828  16.756   3.562   9.150
 4562POPC   GL118829  16.753   3.507   8.850
 4562POPC   GL218830  16.683   3.486   8.850
 4562POPC   C1A18831  16.745   3.535   8.550
 4562POPC   D2A18832  16.757   3.514   8.250
 4562POPC   C3A18833  16.738   3.572   7.950
 4562POPC   C4A18834  16.752   3.532   7.650
 4562POPC   C1B18835  16.614   3.349   8.550
 4562POPC   C2B18836  16.554   3.399   8.250
 4562POPC   C3B18837  16.587   3.351   7.950
 4562POPC   C4B18838  16.593   3.307   7.650
 4563POPC   NC318839  29.177  35.316   9.450
 4563POPC   PO418840  29.183  35.318   9.150
 4563POPC   GL118841  29.186  35.328   8.850
 4563POPC   GL218842  29.045  35.316   8.850
 4563POPC   C1A18843  29.125  35.330   8.550
 4563POPC   D2A18844  29.106  35.333   8.250
 4563POPC   C3A18845  29.164  35.386   7.950
 4563POPC   C4A18846  29.147  35.374   7.650
 4563POPC   C1B18847  28.965  35.188   8.550
 4563POPC   C2B18848  28.921  35.206   8.250
 4563POPC   C3B18849  28.944  35.183   7.950
 4563POPC   C4B18850  28.954  35.198   7.650
 4564POPC   NC318851  27.550   7.380   9.450
 4564POPC   PO418852  27.587   7.379   9.150
 4564POPC   GL118853  27.624   7.430   8.850
 4564POPC   GL218854  27.426   7.432   8.850
 4564POPC   C1A18855  27.628   7.372   8.550
 4564POPC   D2A18856  27.616   7.457   8.250
 4564POPC   C3A18857  27.580   7.401   7.950
 4564POPC   C4A18858  27.556   7.408   7.650
 4564POPC   C1B18859  27.379   7.380   8.550
 4564POPC   C2B18860  27.318   7.332   8.250
 4564POPC   C3B18861  27.366   7.389   7.950
 4564POPC   C4B18862  27.338   7.363   7.650
 4565POPC   NC318863  33.001  13.662   9.450
 4565POPC   PO418864  33.012  13.665   9.150
 4565POPC   GL118865  33.062  13.659   8.850
 4565POPC   GL218866  32.948  13.567   8.850
 4565POPC   C1A18867  33.004  13.599   8.550
 4565POPC   D2A18868  33.034  13.630   8.250
 4565POPC   C3A18869  33.027  13.645   7.950
 4565POPC   C4A18870  33.037  13.600   7.650
 4565POPC   C1B18871  32.801  13.420   8.550
 4565POPC   C2B18872  32.845  13.456   8.250
 4565POPC   C3B18873  32.847  13.464   7.950
 4565POPC   C4B18874  32.877  13.433   7.650
 4566POPC   NC318875  13.650  32.225   9.450
 4566POPC   PO418876  13.623  32.209   9.150
 4566POPC   GL118877  13.610  32.280   8.850
 4566POPC   GL218878  13.799  32.244   8.850
 4566POPC   C1A18879  13.628  32.214   8.550
 4566POPC   D2A18880  13.614  32.287   8.250
 4566POPC   C3A18881  13.639  32.287   7.950
 4566POPC   C4A18882  13.614  32.247   7.650
 4566POPC   C1B18883  13.924  32.270   8.550
 4566POPC   C2B18884  13.915  32.265   8.250
 4566POPC   C3B18885  13.862  32.266   7.950
 4566POPC   C4B18886  13.874  32.229   7.650
 4567POPC   NC318887  26.085  10.500   9.450
 4567POPC   PO418888  26.038  10.506   9.150
 4567POPC   GL118889  26.012  10.554   8.850
 4567POPC   GL218890  25.909  10.444   8.850
 4567POPC   C1A18891  26.033  10.496   8.550
 4567POPC   D2A18892  26.059  10.525   8.250
 4567POPC   C3A18893  26.039  10.494   7.950
 4567POPC   C4A18894  26.002  10.498   7.650
 4567POPC   C1B18895  25.853  10.359   8.550
 4567POPC   C2B18896  25.829  10.315   8.250
 4567POPC   C3B18897  25.859  10.407   7.950
 4567POPC   C4B18898  25.887  10.403   7.650
 4568POPC   NC318899  35.314  10.560   9.450
 4568POPC   PO418900  35.358  10.534   9.150
 4568POPC   GL118901  35.318  10.523   8.850
 4568POPC   GL218902  35.414  10.438   8.850
 4568POPC   C1A18903  35.332  10.527   8.550
 4568POPC   D2A18904  35.396  10.533   8.250
 4568POPC   C3A18905  35.401  10.544   7.950
 4568POPC   C4A18906  35.367  10.503   7.650
 4568POPC   C1B18907  35.431  10.300   8.550
 4568POPC   C2B18908  35.487  10.305   8.250
 4568POPC   C3B18909  35.452  10.265   7.950
 4568POPC   C4B18910  35.481  10.254   7.650
 4569POPC   NC318911  33.768   4.332   9.450
 4569POPC   PO418912  33.797   4.338   9.150
 4569POPC   GL118913  33.774   4.304   8.850
 4569POPC   GL218914  33.866   4.288   8.850
 4569POPC   C1A18915  33.804   4.272   8.550
 4569POPC   D2A18916  33.800   4.349   8.250
 4569POPC   C3A18917  33.846   4.289   7.950
 4569POPC   C4A18918  33.818   4.292   7.650
 4569POPC   C1B18919  34.044   4.199   8.550
 4569POPC   C2B18920  33.991   4.168   8.250
 4569POPC   C3B18921  33.997   4.146   7.950
 4569POPC   C4B18922  33.953   4.161   7.650
 4570POPC   NC318923  17.534  39.965   9.450
 4570POPC   PO418924  17.513  40.037   9.150
 4570POPC   GL118925  17.548  39.980   8.850
 4570POPC   GL218926  17.448  40.084   8.850
 4570POPC   C1A18927  17.477  40.007   8.550
 4570POPC   D2A18928  17.484  40.009   8.250
 4570POPC   C3A18929  17.513  40.036   7.950
 4570POPC   C4A18930  17.513  40.014   7.650
 4570POPC   C1B18931  17.380  40.267   8.550
 4570POPC   C2B18932  17.374  40.270   8.250
 4570POPC   C3B18933  17.379  40.239   7.950
 4570POPC   C4B18934  17.397  40.216   7.650
 4571POPC   NC318935  30.686  26.088   9.450
 4571POPC   PO418936  30.694  26.031   9.150
 4571POPC   GL118937  30.657  26.006   8.850
 4571POPC   GL218938  30.657  26.141   8.850
 4571POPC   C1A18939  30.658  26.009   8.550
 4571POPC   D2A18940  30.724  26.056   8.250
 4571POPC   C3A18941  30.742  25.995   7.950
 4571POPC   C4A18942  30.696  26.080   7.650
 4571POPC   C1B18943  30.571  26.313   8.550
 4571POPC   C2B18944  30.565  26.300   8.250
 4571POPC   C3B18945  30.647  26.282   7.950
 4571POPC   C4B18946  30.579  26.284   7.650
 4572POPC   NC318947  19.823  32.235   9.450
 4572POPC   PO418948  19.862  32.272   9.150
 4572POPC   GL118949  19.843  32.208   8.850
 4572POPC   GL218950  19.682  32.243   8.850
 4572POPC   C1A18951  19.790  32.297   8.550
 4572POPC   D2A18952  19.790  32.219   8.250
 4572POPC   C3A18953  19.817  32.267   7.950
 4572POPC   C4A18954  19.839  32.292   7.650
 4572POPC   C1B18955  19.585  32.313   8.550
 4572POPC   C2B18956  19.630  32.379   8.250
 4572POPC   C3B18957  19.589  32.360   7.950
 4572POPC   C4B18958  19.561  32.370   7.650
 4573POPC   NC318959  36.172  25.220   9.450
 4573POPC   PO418960  36.162  25.274   9.150
 4573POPC   GL118961  36.148  25.310   8.850
 4573POPC   GL218962  36.263  25.178   8.850
 4573POPC   C1A18963  36.113  25.265   8.550
 4573POPC   D2A18964  36.151  25.256   8.250
 4573POPC   C3A18965  36.145  25.304   7.950
 4573POPC   C4A18966  36.111  25.236   7.650
 4573POPC   C1B18967  36.330  25.162   8.550
 4573POPC   C2B18968  36.349  25.120   8.250
 4573POPC   C3B18969  36.396  25.175   7.950
 4573POPC   C4B18970  36.373  25.127   7.650
 4574POPC   NC318971   7.466  33.774   9.450
 4574POPC   PO418972   7.470  33.800   9.150
 4574POPC   GL118973   7.467  33.791   8.850
 4574POPC   GL218974   7.442  33.882   8.850
 4574POPC   C1A18975   7.442  33.783   8.550
 4574POPC   D2A18976   7.422  33.795   8.250
 4574POPC   C3A18977   7.465  33.762   7.950
 4574POPC   C4A18978   7.461  33.837   7.650
 4574POPC   C1B18979   7.531  33.990   8.550
 4574POPC   C2B18980   7.513  34.004   8.250
 4574POPC   C3B18981   7.474  34.016   7.950
 4574POPC   C4B18982   7.511  34.037   7.650
 4575POPC   NC318983  30.671  17.491   9.450
 4575POPC   PO418984  30.727  17.490   9.150
 4575POPC   GL118985  30.692  17.494   8.850
 4575POPC   GL218986  30.554  17.549   8.850
 4575POPC   C1A18987  30.697  17.520   8.550
 4575POPC   D2A18988  30.741  17.476   8.250
 4575POPC   C3A18989  30.708  17.546   7.950
 4575POPC   C4A18990  30.660  17.493   7.650
 4575POPC   C1B18991  30.437  17.589   8.550
 4575POPC   C2B18992  30.478  17.584   8.250
 4575POPC   C3B18993  30.432  17.608   7.950
 4575POPC   C4B18994  30.454  17.609   7.650
 4576POPC   NC318995   3.582   3.561   9.450
 4576POPC   PO418996   3.497   3.584   9.150
 4576POPC   GL118997   3.548   3.520   8.850
 4576POPC   GL218998   3.582   3.420   8.850
 4576POPC   C1A18999   3.562   3.530   8.550
 4576POPC   D2A19000   3.494   3.579   8.250
 4576POPC   C3A19001   3.526   3.545   7.950
 4576POPC   C4A19002   3.527   3.509   7.650
 4576POPC   C1B19003   3.727   3.352   8.550
 4576POPC   C2B19004   3.657   3.301   8.250
 4576POPC   C3B19005   3.654   3.357   7.950
 4576POPC   C4B19006   3.642   3.336   7.650
 4577POPC   NC319007  21.392  18.314   9.450
 4577POPC   PO419008  21.353  18.270   9.150
 4577POPC   GL119009  21.381  18.282   8.850
 4577POPC   GL219010  21.380  18.348   8.850
 4577POPC   C1A19011  21.356  18.324   8.550
 4577POPC   D2A19012  21.382  18.309   8.250
 4577POPC   C3A19013  21.403  18.252   7.950
 4577POPC   C4A19014  21.374  18.287   7.650
 4577POPC   C1B19015  21.326  18.483   8.550
 4577POPC   C2B19016  21.324  18.485   8.250
 4577POPC   C3B19017  21.334  18.469   7.950
 4577POPC   C4B19018  21.288  18.512   7.650
 4578POPC   NC319019  41.513  30.726   9.450
 4578POPC   PO419020  41.551  30.699   9.150
 4578POPC   GL119021  41.555  30.683   8.850
 4578POPC   GL219022  41.466  30.629   8.850
 4578POPC   C1A19023  41.560  30.705   8.550
 4578POPC   D2A19024  41.565  30.686   8.250
 4578POPC   C3A19025  41.524  30.657   7.950
 4578POPC   C4A19026  41.544  30.676   7.650
 4578POPC   C1B19027  41.390  30.513   8.550
 4578POPC   C2B19028  41.442  30.462   8.250
 4578POPC   C3B19029  41.400  30.473   7.950
 4578POPC   C4B19030  41.396  30.503   7.650
 4579POPC   NC319031  15.942   2.807   9.450
 4579POPC   PO419032  15.992   2.745   9.150
 4579POPC   GL119033  15.985   2.776   8.850
 4579POPC   GL219034  16.047   2.727   8.850
 4579POPC   C1A19035  15.939   2.788   8.550
 4579POPC   D2A19036  15.954   2.788   8.250
 4579POPC   C3A19037  15.918   2.756   7.950
 4579POPC   C4A19038  15.920   2.728   7.650
 4579POPC   C1B19039  16.226   2.612   8.550
 4579POPC   C2B19040  16.164   2.655   8.250
 4579POPC   C3B19041  16.172   2.611   7.950
 4579POPC   C4B19042  16.144   2.690   7.650
 4580POPC   NC319043  39.253  28.324   9.450
 4580POPC   PO419044  39.190  28.386   9.150
 4580POPC   GL119045  39.267  28.333   8.850
 4580POPC   GL219046  39.315  28.481   8.850
 4580POPC   C1A19047  39.280  28.396   8.550
 4580POPC   D2A19048  39.258  28.413   8.250
 4580POPC   C3A19049  39.183  28.392   7.950
 4580POPC   C4A19050  39.185  28.412   7.650
 4580POPC   C1B19051  39.445  28.526   8.550
 4580POPC   C2B19052  39.395  28.549   8.250
 4580POPC   C3B19053  39.459  28.533   7.950
 4580POPC   C4B19054  39.422  28.499   7.650
 4581POPC   NC319055  36.939   6.617   9.450
 4581POPC   PO419056  36.861   6.661   9.150
 4581POPC   GL119057  36.946   6.606   8.850
 4581POPC   GL219058  36.837   6.739   8.850
 4581POPC   C1A19059  36.876   6.636   8.550
 4581POPC   D2A19060  36.933   6.606   8.250
 4581POPC   C3A19061  36.867   6.662   7.950
 4581POPC   C4A19062  36.870   6.617   7.650
 4581POPC   C1B19063  36.686   6.795   8.550
 4581POPC   C2B19064  36.735   6.821   8.250
 4581POPC   C3B19065  36.709   6.813   7.950
 4581POPC   C4B19066  36.727   6.792   7.650
 4582POPC   NC319067  31.493  32.287   9.450
 4582POPC   PO419068  31.469  32.281   9.150
 4582POPC   GL119069  31.450  32.231   8.850
 4582POPC   GL219070  31.522  32.183   8.850
 4582POPC   C1A19071  31.434  32.235   8.550
 4582POPC   D2A19072  31.438  32.272   8.250
 4582POPC   C3A19073  31.452  32.217   7.950
 4582POPC   C4A19074  31.443  32.287   7.650
 4582POPC   C1B19075  31.597  32.060   8.550
 4582POPC   C2B19076  31.632  32.017   8.250
 4582POPC   C3B19077  31.602  32.013   7.950
 4582POPC   C4B19078  31.572  32.059   7.650
 4583POPC   NC319079   2.761  36.108   9.450
 4583POPC   PO419080   2.780  36.143   9.150
 4583POPC   GL119081   2.725  36.130   8.850
 4583POPC   GL219082   2.621  36.117   8.850
 4583POPC   C1A19083   2.754  36.097   8.550
 4583POPC   D2A19084   2.736  36.146   8.250
 4583POPC   C3A19085   2.739  36.122   7.950
 4583POPC   C4A19086   2.754  36.145   7.650
 4583POPC   C1B19087   2.542  36.174   8.550
 4583POPC   C2B19088   2.542  36.177   8.250
 4583POPC   C3B19089   2.476  36.190   7.950
 4583POPC   C4B19090   2.488  36.129   7.650
 4584POPC   NC319091   6.684  22.135   9.450
 4584POPC   PO419092   6.657  22.212   9.150
 4584POPC   GL119093   6.640  22.126   8.850
 4584POPC   GL219094   6.611  22.083   8.850
 4584POPC   C1A19095   6.625  22.146   8.550
 4584POPC   D2A19096   6.623  22.172   8.250
 4584POPC   C3A19097   6.666  22.130   7.950
 4584POPC   C4A19098   6.599  22.207   7.650
 4584POPC   C1B19099   6.490  21.914   8.550
 4584POPC   C2B19100   6.466  21.911   8.250
 4584POPC   C3B19101   6.545  21.958   7.950
 4584POPC   C4B19102   6.554  21.960   7.650
 4585POPC   NC319103   5.101  19.853   9.450
 4585POPC   PO419104   5.115  19.844   9.150
 4585POPC   GL119105   5.060  19.798   8.850
 4585POPC   GL219106   5.201  19.898   8.850
 4585POPC   C1A19107   5.073  19.829   8.550
 4585POPC   D2A19108   5.068  19.866   8.250
 4585POPC   C3A19109   5.124  19.864   7.950
 4585POPC   C4A19110   5.106  19.878   7.650
 4585POPC   C1B19111   5.331  19.942   8.550
 4585POPC   C2B19112   5.250  19.964   8.250
 4585POPC   C3B19113   5.265  19.978   7.950
 4585POPC   C4B19114   5.309  20.021   7.650
 4586POPC   NC319115  18.324  15.927   9.450
 4586POPC   PO419116  18.331  15.998   9.150
 4586POPC   GL119117  18.306  15.952   8.850
 4586POPC   GL219118  18.352  15.888   8.850
 4586POPC   C1A19119  18.319  15.998   8.550
 4586POPC   D2A19120  18.308  15.937   8.250
 4586POPC   C3A19121  18.258  15.983   7.950
 4586POPC   C4A19122  18.250  15.946   7.650
 4586POPC   C1B19123  18.425  15.728   8.550
 4586POPC   C2B19124  18.431  15.792   8.250
 4586POPC   C3B19125  18.463  15.803   7.950
 4586POPC   C4B19126  18.457  15.771   7.650
 4587POPC   NC319127   1.230   4.326   9.450
 4587POPC   PO419128   1.206   4.333   9.150
 4587POPC   GL119129   1.227   4.362   8.850
 4587POPC   GL219130   1.209   4.462   8.850
 4587POPC   C1A19131   1.200   4.355   8.550
 4587POPC   D2A19132   1.194   4.329   8.250
 4587POPC   C3A19133   1.212   4.352   7.950
 4587POPC   C4A19134   1.241   4.309   7.650
 4587POPC   C1B19135   1.161   4.527   8.550
 4587POPC   C2B19136   1.134   4.539   8.250
 4587POPC   C3B19137   1.114   4.591   7.950
 4587POPC   C4B19138   1.152   4.544   7.650
 4588POPC   NC319139  13.638   7.381   9.450
 4588POPC   PO419140  13.582   7.413   9.150
 4588POPC   GL119141  13.637   7.422   8.850
 4588POPC   GL219142  13.512   7.384   8.850
 4588POPC   C1A19143  13.613   7.405   8.550
 4588POPC   D2A19144  13.626   7.426   8.250
 4588POPC   C3A19145  13.617   7.383   7.950
 4588POPC   C4A19146  13.636   7.469   7.650
 4588POPC   C1B19147  13.376   7.364   8.550
 4588POPC   C2B19148  13.347   7.307   8.250
 4588POPC   C3B19149  13.410   7.345   7.950
 4588POPC   C4B19150  13.365   7.346   7.650
 4589POPC   NC319151  27.601  36.162   9.450
 4589POPC   PO419152  27.548  36.097   9.150
 4589POPC   GL119153  27.594  36.099   8.850
 4589POPC   GL219154  27.489  36.030   8.850
 4589POPC   C1A19155  27.595  36.152   8.550
 4589POPC   D2A19156  27.599  36.159   8.250
 4589POPC   C3A19157  27.564  36.093   7.950
 4589POPC   C4A19158  27.609  36.113   7.650
 4589POPC   C1B19159  27.351  35.968   8.550
 4589POPC   C2B19160  27.432  35.934   8.250
 4589POPC   C3B19161  27.362  35.982   7.950
 4589POPC   C4B19162  27.366  35.983   7.650
 4590POPC   NC319163  36.176  27.622   9.450
 4590POPC   PO419164  36.097  27.631   9.150
 4590POPC   GL119165  36.098  27.575   8.850
 4590POPC   GL219166  36.172  27.675   8.850
 4590POPC   C1A19167  36.175  27.606   8.550
 4590POPC   D2A19168  36.140  27.615   8.250
 4590POPC   C3A19169  36.132  27.603   7.950
 4590POPC   C4A19170  36.139  27.640   7.650
 4590POPC   C1B19171  36.248  27.865   8.550
 4590POPC   C2B19172  36.197  27.810   8.250
 4590POPC   C3B19173  36.193  27.853   7.950
 4590POPC   C4B19174  36.205  27.852   7.650
 4591POPC   NC319175  31.494  24.527   9.450
 4591POPC   PO419176  31.470  24.483   9.150
 4591POPC   GL119177  31.473  24.522   8.850
 4591POPC   GL219178  31.413  24.589   8.850
 4591POPC   C1A19179  31.437  24.451   8.550
 4591POPC   D2A19180  31.477  24.478   8.250
 4591POPC   C3A19181  31.442  24.478   7.950
 4591POPC   C4A19182  31.504  24.490   7.650
 4591POPC   C1B19183  31.299  24.664   8.550
 4591POPC   C2B19184  31.374  24.695   8.250
 4591POPC   C3B19185  31.285  24.724   7.950
 4591POPC   C4B19186  31.355  24.703   7.650
 4592POPC   NC319187  44.656  13.603   9.450
 4592POPC   PO419188  44.637  13.673   9.150
 4592POPC   GL119189  44.707  13.591   8.850
 4592POPC   GL219190  44.578  13.602   8.850
 4592POPC   C1A19191  44.695  13.580   8.550
 4592POPC   D2A19192  44.627  13.578   8.250
 4592POPC   C3A19193  44.690  13.651   7.950
 4592POPC   C4A19194  44.652  13.655   7.650
 4592POPC   C1B19195  44.410  13.535   8.550
 4592POPC   C2B19196  44.466  13.500   8.250
 4592POPC   C3B19197  44.433  13.509   7.950
 4592POPC   C4B19198  44.425  13.572   7.650
 4593POPC   NC319199  42.365  19.048   9.450
 4593POPC   PO419200  42.324  19.061   9.150
 4593POPC   GL119201  42.300  19.104   8.850
 4593POPC   GL219202  42.409  18.925   8.850
 4593POPC   C1A19203  42.316  19.053   8.550
 4593POPC   D2A19204  42.366  19.020   8.250
 4593POPC   C3A19205  42.321  19.028   7.950
 4593POPC   C4A19206  42.320  19.071   7.650
 4593POPC   C1B19207  42.388  18.862   8.550
 4593POPC   C2B19208  42.408  18.823   8.250
 4593POPC   C3B19209  42.433  18.815   7.950
 4593POPC   C4B19210  42.394  18.789   7.650
 4594POPC   NC319211  20.570  43.860   9.450
 4594POPC   PO419212  20.648  43.890   9.150
 4594POPC   GL119213  20.588  43.909   8.850
 4594POPC   GL219214  20.497  43.997   8.850
 4594POPC   C1A19215  20.567  43.926   8.550
 4594POPC   D2A19216  20.647  43.931   8.250
 4594POPC   C3A19217  20.604  43.867   7.950
 4594POPC   C4A19218  20.566  43.869   7.650
 4594POPC   C1B19219  20.486  44.109   8.550
 4594POPC   C2B19220  20.421  44.089   8.250
 4594POPC   C3B19221  20.399  44.025   7.950
 4594POPC   C4B19222  20.487  44.105   7.650
 4595POPC   NC319223  12.083  15.146   9.450
 4595POPC   PO419224  12.059  15.135   9.150
 4595POPC   GL119225  12.076  15.173   8.850
 4595POPC   GL219226  12.082  15.333   8.850
 4595POPC   C1A19227  12.059  15.170   8.550
 4595POPC   D2A19228  12.095  15.173   8.250
 4595POPC   C3A19229  12.097  15.208   7.950
 4595POPC   C4A19230  12.096  15.154   7.650
 4595POPC   C1B19231  12.058  15.388   8.550
 4595POPC   C2B19232  12.020  15.387   8.250
 4595POPC   C3B19233  12.007  15.450   7.950
 4595POPC   C4B19234  12.008  15.468   7.650
 4596POPC   NC319235  29.108  40.761   9.450
 4596POPC   PO419236  29.104  40.747   9.150
 4596POPC   GL119237  29.098  40.776   8.850
 4596POPC   GL219238  29.010  40.783   8.850
 4596POPC   C1A19239  29.108  40.788   8.550
 4596POPC   D2A19240  29.156  40.817   8.250
 4596POPC   C3A19241  29.100  40.733   7.950
 4596POPC   C4A19242  29.135  40.803   7.650
 4596POPC   C1B19243  28.875  40.838   8.550
 4596POPC   C2B19244  28.887  40.837   8.250
 4596POPC   C3B19245  28.871  40.828   7.950
 4596POPC   C4B19246  28.888  40.857   7.650
 4597POPC   NC319247  20.620   5.114   9.450
 4597POPC   PO419248  20.636   5.136   9.150
 4597POPC   GL119249  20.589   5.076   8.850
 4597POPC   GL219250  20.637   5.182   8.850
 4597POPC   C1A19251  20.623   5.096   8.550
 4597POPC   D2A19252  20.561   5.113   8.250
 4597POPC   C3A19253  20.586   5.143   7.950
 4597POPC   C4A19254  20.626   5.138   7.650
 4597POPC   C1B19255  20.738   5.326   8.550
 4597POPC   C2B19256  20.768   5.279   8.250
 4597POPC   C3B19257  20.756   5.328   7.950
 4597POPC   C4B19258  20.738   5.330   7.650
 4598POPC   NC319259  43.849  26.858   9.450
 4598POPC   PO419260  43.879  26.852   9.150
 4598POPC   GL119261  43.891  26.819   8.850
 4598POPC   GL219262  43.743  26.779   8.850
 4598POPC   C1A19263  43.892  26.809   8.550
 4598POPC   D2A19264  43.842  26.853   8.250
 4598POPC   C3A19265  43.903  26.830   7.950
 4598POPC   C4A19266  43.899  26.800   7.650
 4598POPC   C1B19267  43.650  26.749   8.550
 4598POPC   C2B19268  43.651  26.752   8.250
 4598POPC   C3B19269  43.684  26.779   7.950
 4598POPC   C4B19270  43.637  26.729   7.650
 4599POPC   NC319271  27.593  43.848   9.450
 4599POPC   PO419272  27.572  43.885   9.150
 4599POPC   GL119273  27.588  43.858   8.850
 4599POPC   GL219274  27.448  43.854   8.850
 4599POPC   C1A19275  27.552  43.910   8.550
 4599POPC   D2A19276  27.609  43.936   8.250
 4599POPC   C3A19277  27.602  43.926   7.950
 4599POPC   C4A19278  27.606  43.927   7.650
 4599POPC   C1B19279  27.320  43.782   8.550
 4599POPC   C2B19280  27.404  43.763   8.250
 4599POPC   C3B19281  27.394  43.781   7.950
 4599POPC   C4B19282  27.383  43.751   7.650
 4600POPC   NC319283   7.412   2.021   9.450
 4600POPC   PO419284   7.460   2.037   9.150
 4600POPC   GL119285   7.391   2.025   8.850
 4600POPC   GL219286   7.376   2.114   8.850
 4600POPC   C1A19287   7.458   2.015   8.550
 4600POPC   D2A19288   7.379   2.020   8.250
 4600POPC   C3A19289   7.464   2.012   7.950
 4600POPC   C4A19290   7.457   1.995   7.650
 4600POPC   C1B19291   7.254   2.148   8.550
 4600POPC   C2B19292   7.203   2.177   8.250
 4600POPC   C3B19293   7.246   2.144   7.950
 4600POPC   C4B19294   7.215   2.211   7.650
 4601POPC   NC319295  37.653  37.657   9.450
 4601POPC   PO419296  37.690  37.647   9.150
 4601POPC   GL119297  37.720  37.639   8.850
 4601POPC   GL219298  37.581  37.556   8.850
 4601POPC   C1A19299  37.706  37.660   8.550
 4601POPC   D2A19300  37.710  37.659   8.250
 4601POPC   C3A19301  37.724  37.658   7.950
 4601POPC   C4A19302  37.670  37.653   7.650
 4601POPC   C1B19303  37.522  37.537   8.550
 4601POPC   C2B19304  37.541  37.504   8.250
 4601POPC   C3B19305  37.485  37.529   7.950
 4601POPC   C4B19306  37.516  37.492   7.650
 4602POPC   NC319307  22.181  20.657   9.450
 4602POPC   PO419308  22.121  20.604   9.150
 4602POPC   GL119309  22.142  20.580   8.850
 4602POPC   GL219310  22.233  20.635   8.850
 4602POPC   C1A19311  22.146  20.638   8.550
 4602POPC   D2A19312  22.157  20.647   8.250
 4602POPC   C3A19313  22.163  20.651   7.950
 4602POPC   C4A19314  22.197  20.578   7.650
 4602POPC   C1B19315  22.403  20.707   8.550
 4602POPC   C2B19316  22.408  20.731   8.250
 4602POPC   C3B19317  22.424  20.688   7.950
 4602POPC   C4B19318  22.349  20.658   7.650
 4603POPC   NC319319  29.157  23.669   9.450
 4603POPC   PO419320  29.145  23.707   9.150
 4603POPC   GL119321  29.153  23.734   8.850
 4603POPC   GL219322  28.976  23.724   8.850
 4603POPC   C1A19323  29.104  23.666   8.550
 4603POPC   D2A19324  29.188  23.760   8.250
 4603POPC   C3A19325  29.179  23.709   7.950
 4603POPC   C4A19326  29.099  23.719   7.650
 4603POPC   C1B19327  28.889  23.640   8.550
 4603POPC   C2B19328  28.922  23.620   8.250
 4603POPC   C3B19329  28.884  23.663   7.950
 4603POPC   C4B19330  28.888  23.671   7.650
 4604POPC   NC319331  18.247  39.211   9.450
 4604POPC   PO419332  18.318  39.235   9.150
 4604POPC   GL119333  18.326  39.236   8.850
 4604POPC   GL219334  18.402  39.311   8.850
 4604POPC   C1A19335  18.304  39.269   8.550
 4604POPC   D2A19336  18.262  39.269   8.250
 4604POPC   C3A19337  18.245  39.238   7.950
 4604POPC   C4A19338  18.248  39.255   7.650
 4604POPC   C1B19339  18.458  39.352   8.550
 4604POPC   C2B19340  18.433  39.357   8.250
 4604POPC   C3B19341  18.461  39.419   7.950
 4604POPC   C4B19342  18.502  39.348   7.650
 4605POPC   NC319343   5.115  39.239   9.450
 4605POPC   PO419344   5.098  39.240   9.150
 4605POPC   GL119345   5.120  39.237   8.850
 4605POPC   GL219346   5.185  39.088   8.850
 4605POPC   C1A19347   5.091  39.227   8.550
 4605POPC   D2A19348   5.113  39.254   8.250
 4605POPC   C3A19349   5.054  39.236   7.950
 4605POPC   C4A19350   5.088  39.272   7.650
 4605POPC   C1B19351   5.249  39.040   8.550
 4605POPC   C2B19352   5.208  38.968   8.250
 4605POPC   C3B19353   5.270  39.033   7.950
 4605POPC   C4B19354   5.264  38.968   7.650
 4606POPC   NC319355  40.019  22.166   9.450
 4606POPC   PO419356  39.974  22.130   9.150
 4606POPC   GL119357  39.990  22.165   8.850
 4606POPC   GL219358  39.963  22.054   8.850
 4606POPC   C1A19359  40.036  22.191   8.550
 4606POPC   D2A19360  39.986  22.139   8.250
 4606POPC   C3A19361  40.025  22.182   7.950
 4606POPC   C4A19362  39.975  22.160   7.650
 4606POPC   C1B19363  39.894  21.887   8.550
 4606POPC   C2B19364  39.898  21.962   8.250
 4606POPC   C3B19365  39.949  21.920   7.950
 4606POPC   C4B19366  39.960  21.945   7.650
 4607POPC   NC319367  17.516  27.593   9.450
 4607POPC   PO419368  17.477  27.623   9.150
 4607POPC   GL119369  17.535  27.614   8.850
 4607POPC   GL219370  17.502  27.708   8.850
 4607POPC   C1A19371  17.494  27.556   8.550
 4607POPC   D2A19372  17.501  27.557   8.250
 4607POPC   C3A19373  17.504  27.610   7.950
 4607POPC   C4A19374  17.458  27.622   7.650
 4607POPC   C1B19375  17.493  27.834   8.550
 4607POPC   C2B19376  17.506  27.802   8.250
 4607POPC   C3B19377  17.463  27.801   7.950
 4607POPC   C4B19378  17.519  27.798   7.650
 4608POPC   NC319379  11.299  11.318   9.450
 4608POPC   PO419380  11.334  11.297   9.150
 4608POPC   GL119381  11.287  11.324   8.850
 4608POPC   GL219382  11.153  11.283   8.850
 4608POPC   C1A19383  11.307  11.314   8.550
 4608POPC   D2A19384  11.277  11.333   8.250
 4608POPC   C3A19385  11.261  11.298   7.950
 4608POPC   C4A19386  11.258  11.276   7.650
 4608POPC   C1B19387  11.116  11.175   8.550
 4608POPC   C2B19388  11.051  11.253   8.250
 4608POPC   C3B19389  11.046  11.176   7.950
 4608POPC   C4B19390  11.045  11.161   7.650
 4609POPC   NC319391  10.495  27.607   9.450
 4609POPC   PO419392  10.573  27.574   9.150
 4609POPC   GL119393  10.552  27.624   8.850
 4609POPC   GL219394  10.444  27.669   8.850
 4609POPC   C1A19395  10.502  27.588   8.550
 4609POPC   D2A19396  10.530  27.606   8.250
 4609POPC   C3A19397  10.492  27.622   7.950
 4609POPC   C4A19398  10.480  27.638   7.650
 4609POPC   C1B19399  10.333  27.695   8.550
 4609POPC   C2B19400  10.320  27.698   8.250
 4609POPC   C3B19401  10.294  27.704   7.950
 4609POPC   C4B19402  10.272  27.621   7.650
 4610POPC   NC319403  44.666  41.571   9.450
 4610POPC   PO419404  44.690  41.564   9.150
 4610POPC   GL119405  44.622  41.550   8.850
 4610POPC   GL219406  44.627  41.685   8.850
 4610POPC   C1A19407  44.672  41.524   8.550
 4610POPC   D2A19408  44.690  41.555   8.250
 4610POPC   C3A19409  44.642  41.536   7.950
 4610POPC   C4A19410  44.683  41.577   7.650
 4610POPC   C1B19411  44.518  41.769   8.550
 4610POPC   C2B19412  44.604  41.830   8.250
 4610POPC   C3B19413  44.582  41.824   7.950
 4610POPC   C4B19414  44.586  41.781   7.650
 4611POPC   NC319415  20.581  35.304   9.450
 4611POPC   PO419416  20.643  35.335   9.150
 4611POPC   GL119417  20.639  35.341   8.850
 4611POPC   GL219418  20.662  35.300   8.850
 4611POPC   C1A19419  20.604  35.313   8.550
 4611POPC   D2A19420  20.574  35.394   8.250
 4611POPC   C3A19421  20.567  35.352   7.950
 4611POPC   C4A19422  20.614  35.372   7.650
 4611POPC   C1B19423  20.733  35.184   8.550
 4611POPC   C2B19424  20.764  35.156   8.250
 4611POPC   C3B19425  20.753  35.192   7.950
 4611POPC   C4B19426  20.802  35.112   7.650
 4612POPC   NC319427  19.851  18.327   9.450
 4612POPC   PO419428  19.813  18.325   9.150
 4612POPC   GL119429  19.835  18.269   8.850
 4612POPC   GL219430  19.747  18.321   8.850
 4612POPC   C1A19431  19.789  18.246   8.550
 4612POPC   D2A19432  19.863  18.295   8.250
 4612POPC   C3A19433  19.851  18.324   7.950
 4612POPC   C4A19434  19.836  18.277   7.650
 4612POPC   C1B19435  19.566  18.378   8.550
 4612POPC   C2B19436  19.588  18.372   8.250
 4612POPC   C3B19437  19.651  18.378   7.950
 4612POPC   C4B19438  19.608  18.380   7.650
 4613POPC   NC319439  24.481  30.655   9.450
 4613POPC   PO419440  24.493  30.727   9.150
 4613POPC   GL119441  24.524  30.677   8.850
 4613POPC   GL219442  24.451  30.814   8.850
 4613POPC   C1A19443  24.505  30.665   8.550
 4613POPC   D2A19444  24.518  30.730   8.250
 4613POPC   C3A19445  24.460  30.722   7.950
 4613POPC   C4A19446  24.536  30.742   7.650
 4613POPC   C1B19447  24.448  30.962   8.550
 4613POPC   C2B19448  24.389  30.954   8.250
 4613POPC   C3B19449  24.377  30.932   7.950
 4613POPC   C4B19450  24.380  30.976   7.650
 4614POPC   NC319451  31.477  13.586   9.450
 4614POPC   PO419452  31.445  13.587   9.150
 4614POPC   GL119453  31.492  13.643   8.850
 4614POPC   GL219454  31.583  13.633   8.850
 4614POPC   C1A19455  31.501  13.640   8.550
 4614POPC   D2A19456  31.454  13.582   8.250
 4614POPC   C3A19457  31.426  13.649   7.950
 4614POPC   C4A19458  31.512  13.664   7.650
 4614POPC   C1B19459  31.764  13.531   8.550
 4614POPC   C2B19460  31.674  13.606   8.250
 4614POPC   C3B19461  31.756  13.619   7.950
 4614POPC   C4B19462  31.736  13.603   7.650
 4615POPC   NC319463   1.981  15.191   9.450
 4615POPC   PO419464   2.035  15.161   9.150
 4615POPC   GL119465   2.010  15.178   8.850
 4615POPC   GL219466   1.973  15.050   8.850
 4615POPC   C1A19467   1.949  15.147   8.550
 4615POPC   D2A19468   2.027  15.205   8.250
 4615POPC   C3A19469   1.959  15.131   7.950
 4615POPC   C4A19470   2.022  15.208   7.650
 4615POPC   C1B19471   1.931  14.898   8.550
 4615POPC   C2B19472   1.932  14.913   8.250
 4615POPC   C3B19473   1.896  14.908   7.950
 4615POPC   C4B19474   1.971  14.941   7.650
 4616POPC   NC319475   5.099  22.977   9.450
 4616POPC   PO419476   5.089  22.976   9.150
 4616POPC   GL119477   5.053  22.931   8.850
 4616POPC   GL219478   5.122  22.814   8.850
 4616POPC   C1A19479   5.124  22.897   8.550
 4616POPC   D2A19480   5.072  22.923   8.250
 4616POPC   C3A19481   5.092  22.943   7.950
 4616POPC   C4A19482   5.068  22.938   7.650
 4616POPC   C1B19483   5.147  22.667   8.550
 4616POPC   C2B19484   5.168  22.680   8.250
 4616POPC   C3B19485   5.158  22.664   7.950
 4616POPC   C4B19486   5.155  22.680   7.650
 4617POPC   NC319487   2.793   3.501   9.450
 4617POPC   PO419488   2.774   3.535   9.150
 4617POPC   GL119489   2.777   3.538   8.850
 4617POPC   GL219490   2.852   3.663   8.850
 4617POPC   C1A19491   2.773   3.503   8.550
 4617POPC   D2A19492   2.758   3.501   8.250
 4617POPC   C3A19493   2.786   3.582   7.950
 4617POPC   C4A19494   2.773   3.566   7.650
 4617POPC   C1B19495   2.855   3.752   8.550
 4617POPC   C2B19496   2.913   3.763   8.250
 4617POPC   C3B19497   2.929   3.787   7.950
 4617POPC   C4B19498   2.891   3.801   7.650
 4618POPC   NC319499  33.019  19.063   9.450
 4618POPC   PO419500  33.073  19.040   9.150
 4618POPC   GL119501  32.976  19.081   8.850
 4618POPC   GL219502  33.002  19.223   8.850
 4618POPC   C1A19503  33.074  19.040   8.550
 4618POPC   D2A19504  33.021  19.024   8.250
 4618POPC   C3A19505  32.979  19.019   7.950
 4618POPC   C4A19506  32.974  19.031   7.650
 4618POPC   C1B19507  32.995  19.272   8.550
 4618POPC   C2B19508  32.991  19.287   8.250
 4618POPC   C3B19509  32.940  19.295   7.950
 4618POPC   C4B19510  32.985  19.294   7.650
 4619POPC   NC319511  39.214  33.763   9.450
 4619POPC   PO419512  39.267  33.809   9.150
 4619POPC   GL119513  39.280  33.844   8.850
 4619POPC   GL219514  39.365  33.853   8.850
 4619POPC   C1A19515  39.206  33.814   8.550
 4619POPC   D2A19516  39.192  33.764   8.250
 4619POPC   C3A19517  39.194  33.845   7.950
 4619POPC   C4A19518  39.204  33.751   7.650
 4619POPC   C1B19519  39.511  33.849   8.550
 4619POPC   C2B19520  39.455  33.848   8.250
 4619POPC   C3B19521  39.521  33.811   7.950
 4619POPC   C4B19522  39.448  33.805   7.650
 4620POPC   NC319523  30.650  32.259   9.450
 4620POPC   PO419524  30.717  32.241   9.150
 4620POPC   GL119525  30.711  32.281   8.850
 4620POPC   GL219526  30.792  32.168   8.850
 4620POPC   C1A19527  30.667  32.238   8.550
 4620POPC   D2A19528  30.672  32.263   8.250
 4620POPC   C3A19529  30.682  32.222   7.950
 4620POPC   C4A19530  30.679  32.295   7.650
 4620POPC   C1B19531  30.907  32.086   8.550
 4620POPC   C2B19532  30.928  32.081   8.250
 4620POPC   C3B19533  30.896  32.095   7.950
 4620POPC   C4B19534  30.935  32.166   7.650
 4621POPC   NC319535  35.342   9.011   9.450
 4621POPC   PO419536  35.364   8.923   9.150
 4621POPC   GL119537  35.337   8.991   8.850
 4621POPC   GL219538  35.250   8.960   8.850
 4621POPC   C1A19539  35.360   9.006   8.550
 4621POPC   D2A19540  35.366   8.968   8.250
 4621POPC   C3A19541  35.401   8.998   7.950
 4621POPC   C4A19542  35.312   8.963   7.650
 4621POPC   C1B19543  35.139   9.061   8.550
 4621POPC   C2B19544  35.074   9.031   8.250
 4621POPC   C3B19545  35.060   9.007   7.950
 4621POPC   C4B19546  35.133   9.042   7.650
 4622POPC   NC319547  35.394   3.497   9.450
 4622POPC   PO419548  35.380   3.546   9.150
 4622POPC   GL119549  35.381   3.578   8.850
 4622POPC   GL219550  35.219   3.604   8.850
 4622POPC   C1A19551  35.357   3.512   8.550
 4622POPC   D2A19552  35.388   3.591   8.250
 4622POPC   C3A19553  35.355   3.496   7.950
 4622POPC   C4A19554  35.358   3.535   7.650
 4622POPC   C1B19555  35.115   3.560   8.550
 4622POPC   C2B19556  35.152   3.589   8.250
 4622POPC   C3B19557  35.118   3.589   7.950
 4622POPC   C4B19558  35.079   3.550   7.650
 4623POPC   NC319559  35.380   7.396   9.450
 4623POPC   PO419560  35.364   7.420   9.150
 4623POPC   GL119561  35.340   7.385   8.850
 4623POPC   GL219562  35.285   7.508   8.850
 4623POPC   C1A19563  35.341   7.465   8.550
 4623POPC   D2A19564  35.302   7.433   8.250
 4623POPC   C3A19565  35.307   7.463   7.950
 4623POPC   C4A19566  35.363   7.436   7.650
 4623POPC   C1B19567  35.175   7.528   8.550
 4623POPC   C2B19568  35.159   7.557   8.250
 4623POPC   C3B19569  35.133   7.559   7.950
 4623POPC   C4B19570  35.196   7.583   7.650
 4624POPC   NC319571  26.034  30.660   9.450
 4624POPC   PO419572  26.044  30.741   9.150
 4624POPC   GL119573  26.040  30.743   8.850
 4624POPC   GL219574  26.019  30.578   8.850
 4624POPC   C1A19575  26.023  30.672   8.550
 4624POPC   D2A19576  26.091  30.743   8.250
 4624POPC   C3A19577  26.041  30.697   7.950
 4624POPC   C4A19578  25.998  30.657   7.650
 4624POPC   C1B19579  26.023  30.478   8.550
 4624POPC   C2B19580  25.945  30.469   8.250
 4624POPC   C3B19581  25.998  30.457   7.950
 4624POPC   C4B19582  25.992  30.484   7.650
 4625POPC   NC319583  14.447  34.573   9.450
 4625POPC   PO419584  14.441  34.605   9.150
 4625POPC   GL119585  14.392  34.604   8.850
 4625POPC   GL219586  14.536  34.631   8.850
 4625POPC   C1A19587  14.389  34.603   8.550
 4625POPC   D2A19588  14.441  34.586   8.250
 4625POPC   C3A19589  14.436  34.605   7.950
 4625POPC   C4A19590  14.428  34.582   7.650
 4625POPC   C1B19591  14.632  34.622   8.550
 4625POPC   C2B19592  14.621  34.583   8.250
 4625POPC   C3B19593  14.662  34.570   7.950
 4625POPC   C4B19594  14.664  34.596   7.650
 4626POPC   NC319595  39.977   3.548   9.450
 4626POPC   PO419596  40.000   3.568   9.150
 4626POPC   GL119597  40.009   3.569   8.850
 4626POPC   GL219598  40.049   3.649   8.850
 4626POPC   C1A19599  40.057   3.563   8.550
 4626POPC   D2A19600  39.982   3.526   8.250
 4626POPC   C3A19601  39.999   3.512   7.950
 4626POPC   C4A19602  40.007   3.492   7.650
 4626POPC   C1B19603  40.212   3.724   8.550
 4626POPC   C2B19604  40.115   3.730   8.250
 4626POPC   C3B19605  40.211   3.750   7.950
 4626POPC   C4B19606  40.200   3.733   7.650
 4627POPC   NC319607  15.169  36.928   9.450
 4627POPC   PO419608  15.156  36.941   9.150
 4627POPC   GL119609  15.184  36.937   8.850
 4627POPC   GL219610  15.198  36.826   8.850
 4627POPC   C1A19611  15.135  36.908   8.550
 4627POPC   D2A19612  15.224  36.930   8.250
 4627POPC   C3A19613  15.227  36.859   7.950
 4627POPC   C4A19614  15.199  36.858   7.650
 4627POPC   C1B19615  15.209  36.671   8.550
 4627POPC   C2B19616  15.170  36.687   8.250
 4627POPC   C3B19617  15.172  36.639   7.950
 4627POPC   C4B19618  15.133  36.659   7.650
 4628POPC   NC319619  15.193  40.050   9.450
 4628POPC   PO419620  15.218  39.958   9.150
 4628POPC   GL119621  15.164  39.975   8.850
 4628POPC   GL219622  15.323  39.986   8.850
 4628POPC   C1A19623  15.168  40.009   8.550
 4628POPC   D2A19624  15.209  39.999   8.250
 4628POPC   C3A19625  15.141  40.038   7.950
 4628POPC   C4A19626  15.157  40.001   7.650
 4628POPC   C1B19627  15.449  39.977   8.550
 4628POPC   C2B19628  15.449  39.974   8.250
 4628POPC   C3B19629  15.451  40.011   7.950
 4628POPC   C4B19630  15.401  39.972   7.650
 4629POPC   NC319631   5.080  19.060   9.450
 4629POPC   PO419632   5.118  19.072   9.150
 4629POPC   GL119633   5.052  19.056   8.850
 4629POPC   GL219634   5.175  18.945   8.850
 4629POPC   C1A19635   5.141  19.036   8.550
 4629POPC   D2A19636   5.120  19.015   8.250
 4629POPC   C3A19637   5.074  19.051   7.950
 4629POPC   C4A19638   5.115  19.073   7.650
 4629POPC   C1B19639   5.263  18.829   8.550
 4629POPC   C2B19640   5.288  18.824   8.250
 4629POPC   C3B19641   5.246  18.858   7.950
 4629POPC   C4B19642   5.225  18.851   7.650
 4630POPC   NC319643   4.294   5.066   9.450
 4630POPC   PO419644   4.274   5.118   9.150
 4630POPC   GL119645   4.314   5.063   8.850
 4630POPC   GL219646   4.411   5.150   8.850
 4630POPC   C1A19647   4.272   5.057   8.550
 4630POPC   D2A19648   4.360   5.081   8.250
 4630POPC   C3A19649   4.278   5.052   7.950
 4630POPC   C4A19650   4.315   5.128   7.650
 4630POPC   C1B19651   4.554   5.097   8.550
 4630POPC   C2B19652   4.615   5.102   8.250
 4630POPC   C3B19653   4.591   5.087   7.950
 4630POPC   C4B19654   4.605   5.070   7.650
 4631POPC   NC319655  15.171  33.832   9.450
 4631POPC   PO419656  15.222  33.803   9.150
 4631POPC   GL119657  15.207  33.821   8.850
 4631POPC   GL219658  15.241  33.638   8.850
 4631POPC   C1A19659  15.136  33.828   8.550
 4631POPC   D2A19660  15.225  33.805   8.250
 4631POPC   C3A19661  15.192  33.769   7.950
 4631POPC   C4A19662  15.145  33.806   7.650
 4631POPC   C1B19663  15.231  33.516   8.550
 4631POPC   C2B19664  15.172  33.507   8.250
 4631POPC   C3B19665  15.197  33.583   7.950
 4631POPC   C4B19666  15.170  33.584   7.650
 4632POPC   NC319667  16.727  15.149   9.450
 4632POPC   PO419668  16.702  15.182   9.150
 4632POPC   GL119669  16.691  15.150   8.850
 4632POPC   GL219670  16.627  15.177   8.850
 4632POPC   C1A19671  16.756  15.169   8.550
 4632POPC   D2A19672  16.738  15.135   8.250
 4632POPC   C3A19673  16.695  15.201   7.950
 4632POPC   C4A19674  16.732  15.159   7.650
 4632POPC   C1B19675  16.531  15.242   8.550
 4632POPC   C2B19676  16.535  15.285   8.250
 4632POPC   C3B19677  16.517  15.270   7.950
 4632POPC   C4B19678  16.485  15.243   7.650
 4633POPC   NC319679  18.289  12.095   9.450
 4633POPC   PO419680  18.296  12.063   9.150
 4633POPC   GL119681  18.324  12.113   8.850
 4633POPC   GL219682  18.368  11.963   8.850
 4633POPC   C1A19683  18.239  12.117   8.550
 4633POPC   D2A19684  18.300  12.107   8.250
 4633POPC   C3A19685  18.243  12.040   7.950
 4633POPC   C4A19686  18.238  12.100   7.650
 4633POPC   C1B19687  18.427  11.942   8.550
 4633POPC   C2B19688  18.457  11.890   8.250
 4633POPC   C3B19689  18.426  11.906   7.950
 4633POPC   C4B19690  18.508  11.933   7.650
 4634POPC   NC319691  40.752  33.776   9.450
 4634POPC   PO419692  40.804  33.775   9.150
 4634POPC   GL119693  40.790  33.780   8.850
 4634POPC   GL219694  40.629  33.793   8.850
 4634POPC   C1A19695  40.761  33.771   8.550
 4634POPC   D2A19696  40.823  33.752   8.250
 4634POPC   C3A19697  40.790  33.814   7.950
 4634POPC   C4A19698  40.825  33.825   7.650
 4634POPC   C1B19699  40.520  33.667   8.550
 4634POPC   C2B19700  40.593  33.738   8.250
 4634POPC   C3B19701  40.540  33.756   7.950
 4634POPC   C4B19702  40.553  33.666   7.650
 4635POPC   NC319703  11.257  14.432   9.450
 4635POPC   PO419704  11.264  14.422   9.150
 4635POPC   GL119705  11.261  14.453   8.850
 4635POPC   GL219706  11.352  14.296   8.850
 4635POPC   C1A19707  11.296  14.357   8.550
 4635POPC   D2A19708  11.300  14.388   8.250
 4635POPC   C3A19709  11.327  14.380   7.950
 4635POPC   C4A19710  11.274  14.366   7.650
 4635POPC   C1B19711  11.372  14.154   8.550
 4635POPC   C2B19712  11.342  14.140   8.250
 4635POPC   C3B19713  11.295  14.148   7.950
 4635POPC   C4B19714  11.301  14.148   7.650
 4636POPC   NC319715  12.892   7.465   9.450
 4636POPC   PO419716  12.874   7.376   9.150
 4636POPC   GL119717  12.881   7.397   8.850
 4636POPC   GL219718  12.913   7.511   8.850
 4636POPC   C1A19719  12.817   7.376   8.550
 4636POPC   D2A19720  12.863   7.372   8.250
 4636POPC   C3A19721  12.868   7.450   7.950
 4636POPC   C4A19722  12.880   7.436   7.650
 4636POPC   C1B19723  12.953   7.603   8.550
 4636POPC   C2B19724  13.006   7.658   8.250
 4636POPC   C3B19725  12.958   7.647   7.950
 4636POPC   C4B19726  12.976   7.589   7.650
 4637POPC   NC319727  27.636  27.619   9.450
 4637POPC   PO419728  27.614  27.560   9.150
 4637POPC   GL119729  27.557  27.564   8.850
 4637POPC   GL219730  27.703  27.483   8.850
 4637POPC   C1A19731  27.579  27.602   8.550
 4637POPC   D2A19732  27.623  27.621   8.250
 4637POPC   C3A19733  27.592  27.578   7.950
 4637POPC   C4A19734  27.612  27.615   7.650
 4637POPC   C1B19735  27.733  27.465   8.550
 4637POPC   C2B19736  27.727  27.466   8.250
 4637POPC   C3B19737  27.736  27.421   7.950
 4637POPC   C4B19738  27.739  27.394   7.650
 4638POPC   NC319739  41.563   8.974   9.450
 4638POPC   PO419740  41.570   8.942   9.150
 4638POPC   GL119741  41.597   8.959   8.850
 4638POPC   GL219742  41.692   8.871   8.850
 4638POPC   C1A19743  41.516   8.963   8.550
 4638POPC   D2A19744  41.578   9.019   8.250
 4638POPC   C3A19745  41.526   8.936   7.950
 4638POPC   C4A19746  41.547   8.977   7.650
 4638POPC   C1B19747  41.758   8.879   8.550
 4638POPC   C2B19748  41.776   8.831   8.250
 4638POPC   C3B19749  41.808   8.863   7.950
 4638POPC   C4B19750  41.755   8.860   7.650
 4639POPC   NC319751   0.470  20.606   9.450
 4639POPC   PO419752   0.435  20.624   9.150
 4639POPC   GL119753   0.435  20.579   8.850
 4639POPC   GL219754   0.488  20.443   8.850
 4639POPC   C1A19755   0.401  20.631   8.550
 4639POPC   D2A19756   0.455  20.606   8.250
 4639POPC   C3A19757   0.427  20.648   7.950
 4639POPC   C4A19758   0.476  20.631   7.650
 4639POPC   C1B19759   0.494  20.401   8.550
 4639POPC   C2B19760   0.485  20.326   8.250
 4639POPC   C3B19761   0.441  20.408   7.950
 4639POPC   C4B19762   0.477  20.396   7.650
 4640POPC   NC319763  41.571   5.831   9.450
 4640POPC   PO419764  41.515   5.821   9.150
 4640POPC   GL119765  41.518   5.869   8.850
 4640POPC   GL219766  41.486   5.773   8.850
 4640POPC   C1A19767  41.541   5.824   8.550
 4640POPC   D2A19768  41.595   5.907   8.250
 4640POPC   C3A19769  41.582   5.859   7.950
 4640POPC   C4A19770  41.518   5.858   7.650
 4640POPC   C1B19771  41.366   5.709   8.550
 4640POPC   C2B19772  41.394   5.707   8.250
 4640POPC   C3B19773  41.402   5.760   7.950
 4640POPC   C4B19774  41.370   5.708   7.650
 4641POPC   NC319775  29.107  26.017   9.450
 4641POPC   PO419776  29.132  26.029   9.150
 4641POPC   GL119777  29.097  26.007   8.850
 4641POPC   GL219778  29.068  26.013   8.850
 4641POPC   C1A19779  29.123  26.000   8.550
 4641POPC   D2A19780  29.190  26.089   8.250
 4641POPC   C3A19781  29.121  26.025   7.950
 4641POPC   C4A19782  29.181  26.046   7.650
 4641POPC   C1B19783  28.881  26.041   8.550
 4641POPC   C2B19784  28.861  26.067   8.250
 4641POPC   C3B19785  28.935  26.017   7.950
 4641POPC   C4B19786  28.944  26.041   7.650
 4642POPC   NC319787  23.698   5.864   9.450
 4642POPC   PO419788  23.739   5.877   9.150
 4642POPC   GL119789  23.756   5.904   8.850
 4642POPC   GL219790  23.676   5.794   8.850
 4642POPC   C1A19791  23.666   5.881   8.550
 4642POPC   D2A19792  23.761   5.886   8.250
 4642POPC   C3A19793  23.742   5.858   7.950
 4642POPC   C4A19794  23.752   5.855   7.650
 4642POPC   C1B19795  23.728   5.669   8.550
 4642POPC   C2B19796  23.691   5.658   8.250
 4642POPC   C3B19797  23.729   5.627   7.950
 4642POPC   C4B19798  23.766   5.577   7.650
 4643POPC   NC319799  20.595  15.170   9.450
 4643POPC   PO419800  20.652  15.198   9.150
 4643POPC   GL119801  20.564  15.206   8.850
 4643POPC   GL219802  20.623  15.273   8.850
 4643POPC   C1A19803  20.593  15.212   8.550
 4643POPC   D2A19804  20.595  15.145   8.250
 4643POPC   C3A19805  20.629  15.202   7.950
 4643POPC   C4A19806  20.584  15.155   7.650
 4643POPC   C1B19807  20.620  15.472   8.550
 4643POPC   C2B19808  20.549  15.473   8.250
 4643POPC   C3B19809  20.572  15.397   7.950
 4643POPC   C4B19810  20.632  15.465   7.650
 4644POPC   NC319811  10.567  12.122   9.450
 4644POPC   PO419812  10.491  12.057   9.150
 4644POPC   GL119813  10.555  12.108   8.850
 4644POPC   GL219814  10.505  12.197   8.850
 4644POPC   C1A19815  10.514  12.032   8.550
 4644POPC   D2A19816  10.571  12.079   8.250
 4644POPC   C3A19817  10.563  12.116   7.950
 4644POPC   C4A19818  10.510  12.079   7.650
 4644POPC   C1B19819  10.457  12.292   8.550
 4644POPC   C2B19820  10.502  12.351   8.250
 4644POPC   C3B19821  10.456  12.329   7.950
 4644POPC   C4B19822  10.441  12.306   7.650
 4645POPC   NC319823  43.848  14.364   9.450
 4645POPC   PO419824  43.887  14.369   9.150
 4645POPC   GL119825  43.863  14.393   8.850
 4645POPC   GL219826  43.759  14.392   8.850
 4645POPC   C1A19827  43.905  14.385   8.550
 4645POPC   D2A19828  43.919  14.428   8.250
 4645POPC   C3A19829  43.839  14.371   7.950
 4645POPC   C4A19830  43.915  14.445   7.650
 4645POPC   C1B19831  43.663  14.294   8.550
 4645POPC   C2B19832  43.619  14.276   8.250
 4645POPC   C3B19833  43.644  14.299   7.950
 4645POPC   C4B19834  43.660  14.324   7.650
 4646POPC   NC319835   5.917  13.592   9.450
 4646POPC   PO419836   5.841  13.606   9.150
 4646POPC   GL119837   5.885  13.587   8.850
 4646POPC   GL219838   5.813  13.762   8.850
 4646POPC   C1A19839   5.832  13.601   8.550
 4646POPC   D2A19840   5.887  13.661   8.250
 4646POPC   C3A19841   5.913  13.602   7.950
 4646POPC   C4A19842   5.829  13.644   7.650
 4646POPC   C1B19843   5.756  13.807   8.550
 4646POPC   C2B19844   5.715  13.806   8.250
 4646POPC   C3B19845   5.720  13.810   7.950
 4646POPC   C4B19846   5.776  13.807   7.650
 4647POPC   NC319847  28.332  29.916   9.450
 4647POPC   PO419848  28.369  29.933   9.150
 4647POPC   GL119849  28.401  29.891   8.850
 4647POPC   GL219850  28.344  30.028   8.850
 4647POPC   C1A19851  28.340  29.921   8.550
 4647POPC   D2A19852  28.381  29.955   8.250
 4647POPC   C3A19853  28.409  29.942   7.950
 4647POPC   C4A19854  28.359  29.904   7.650
 4647POPC   C1B19855  28.230  30.160   8.550
 4647POPC   C2B19856  28.183  30.124   8.250
 4647POPC   C3B19857  28.227  30.097   7.950
 4647POPC   C4B19858  28.208  30.149   7.650
 4648POPC   NC319859  35.395   6.627   9.450
 4648POPC   PO419860  35.331   6.650   9.150
 4648POPC   GL119861  35.349   6.614   8.850
 4648POPC   GL219862  35.234   6.585   8.850
 4648POPC   C1A19863  35.317   6.636   8.550
 4648POPC   D2A19864  35.371   6.615   8.250
 4648POPC   C3A19865  35.360   6.640   7.950
 4648POPC   C4A19866  35.311   6.629   7.650
 4648POPC   C1B19867  35.177   6.485   8.550
 4648POPC   C2B19868  35.131   6.497   8.250
 4648POPC   C3B19869  35.178   6.538   7.950
 4648POPC   C4B19870  35.135   6.496   7.650
 4649POPC   NC319871  41.552  26.013   9.450
 4649POPC   PO419872  41.540  26.061   9.150
 4649POPC   GL119873  41.554  26.076   8.850
 4649POPC   GL219874  41.718  26.034   8.850
 4649POPC   C1A19875  41.590  26.063   8.550
 4649POPC   D2A19876  41.599  26.085   8.250
 4649POPC   C3A19877  41.533  25.995   7.950
 4649POPC   C4A19878  41.515  26.039   7.650
 4649POPC   C1B19879  41.773  26.097   8.550
 4649POPC   C2B19880  41.771  26.065   8.250
 4649POPC   C3B19881  41.804  26.112   7.950
 4649POPC   C4B19882  41.813  26.069   7.650
 4650POPC   NC319883  36.120  32.292   9.450
 4650POPC   PO419884  36.153  32.257   9.150
 4650POPC   GL119885  36.120  32.212   8.850
 4650POPC   GL219886  36.056  32.088   8.850
 4650POPC   C1A19887  36.142  32.211   8.550
 4650POPC   D2A19888  36.147  32.295   8.250
 4650POPC   C3A19889  36.129  32.270   7.950
 4650POPC   C4A19890  36.153  32.211   7.650
 4650POPC   C1B19891  36.100  32.047   8.550
 4650POPC   C2B19892  36.110  31.967   8.250
 4650POPC   C3B19893  36.097  32.013   7.950
 4650POPC   C4B19894  36.028  32.039   7.650
 4651POPC   NC319895  34.582  36.863   9.450
 4651POPC   PO419896  34.623  36.864   9.150
 4651POPC   GL119897  34.606  36.938   8.850
 4651POPC   GL219898  34.581  37.016   8.850
 4651POPC   C1A19899  34.573  36.897   8.550
 4651POPC   D2A19900  34.546  36.856   8.250
 4651POPC   C3A19901  34.541  36.891   7.950
 4651POPC   C4A19902  34.537  36.903   7.650
 4651POPC   C1B19903  34.529  37.169   8.550
 4651POPC   C2B19904  34.473  37.137   8.250
 4651POPC   C3B19905  34.491  37.168   7.950
 4651POPC   C4B19906  34.530  37.109   7.650
 4652POPC   NC319907  30.719  23.755   9.450
 4652POPC   PO419908  30.672  23.667   9.150
 4652POPC   GL119909  30.731  23.686   8.850
 4652POPC   GL219910  30.783  23.725   8.850
 4652POPC   C1A19911  30.677  23.694   8.550
 4652POPC   D2A19912  30.694  23.746   8.250
 4652POPC   C3A19913  30.717  23.719   7.950
 4652POPC   C4A19914  30.730  23.756   7.650
 4652POPC   C1B19915  30.958  23.818   8.550
 4652POPC   C2B19916  30.895  23.813   8.250
 4652POPC   C3B19917  30.924  23.738   7.950
 4652POPC   C4B19918  30.889  23.797   7.650
 4653POPC   NC319919  13.632  19.881   9.450
 4653POPC   PO419920  13.623  19.816   9.150
 4653POPC   GL119921  13.657  19.788   8.850
 4653POPC   GL219922  13.565  19.755   8.850
 4653POPC   C1A19923  13.595  19.860   8.550
 4653POPC   D2A19924  13.580  19.882   8.250
 4653POPC   C3A19925  13.657  19.834   7.950
 4653POPC   C4A19926  13.594  19.876   7.650
 4653POPC   C1B19927  13.406  19.685   8.550
 4653POPC   C2B19928  13.421  19.709   8.250
 4653POPC   C3B19929  13.444  19.653   7.950
 4653POPC   C4B19930  13.406  19.654   7.650
 4654POPC   NC319931  31.461  42.315   9.450
 4654POPC   PO419932  31.424  42.294   9.150
 4654POPC   GL119933  31.430  42.382   8.850
 4654POPC   GL219934  31.393  42.287   8.850
 4654POPC   C1A19935  31.510  42.309   8.550
 4654POPC   D2A19936  31.473  42.381   8.250
 4654POPC   C3A19937  31.460  42.367   7.950
 4654POPC   C4A19938  31.522  42.384   7.650
 4654POPC   C1B19939  31.238  42.344   8.550
 4654POPC   C2B19940  31.264  42.351   8.250
 4654POPC   C3B19941  31.223  42.328   7.950
 4654POPC   C4B19942  31.202  42.278   7.650
 4655POPC   NC319943   2.016  29.172   9.450
 4655POPC   PO419944   2.037  29.112   9.150
 4655POPC   GL119945   1.945  29.155   8.850
 4655POPC   GL219946   2.055  29.272   8.850
 4655POPC   C1A19947   2.001  29.141   8.550
 4655POPC   D2A19948   1.956  29.149   8.250
 4655POPC   C3A19949   1.992  29.162   7.950
 4655POPC   C4A19950   1.944  29.100   7.650
 4655POPC   C1B19951   2.046  29.363   8.550
 4655POPC   C2B19952   2.044  29.342   8.250
 4655POPC   C3B19953   2.026  29.377   7.950
 4655POPC   C4B19954   2.084  29.416   7.650
 4656POPC   NC319955   2.752  29.949   9.450
 4656POPC   PO419956   2.775  29.899   9.150
 4656POPC   GL119957   2.752  29.929   8.850
 4656POPC   GL219958   2.667  30.006   8.850
 4656POPC   C1A19959   2.790  29.966   8.550
 4656POPC   D2A19960   2.746  29.889   8.250
 4656POPC   C3A19961   2.813  29.879   7.950
 4656POPC   C4A19962   2.815  29.936   7.650
 4656POPC   C1B19963   2.589  30.125   8.550
 4656POPC   C2B19964   2.583  30.072   8.250
 4656POPC   C3B19965   2.642  30.072   7.950
 4656POPC   C4B19966   2.555  30.101   7.650
 4657POPC   NC319967  15.193  42.322   9.450
 4657POPC   PO419968  15.174  42.369   9.150
 4657POPC   GL119969  15.196  42.314   8.850
 4657POPC   GL219970  15.262  42.326   8.850
 4657POPC   C1A19971  15.196  42.305   8.550
 4657POPC   D2A19972  15.213  42.299   8.250
 4657POPC   C3A19973  15.198  42.348   7.950
 4657POPC   C4A19974  15.151  42.285   7.650
 4657POPC   C1B19975  15.362  42.255   8.550
 4657POPC   C2B19976  15.453  42.241   8.250
 4657POPC   C3B19977  15.441  42.248   7.950
 4657POPC   C4B19978  15.416  42.187   7.650
 4658POPC   NC319979  38.438  27.601   9.450
 4658POPC   PO419980  38.408  27.549   9.150
 4658POPC   GL119981  38.497  27.572   8.850
 4658POPC   GL219982  38.499  27.483   8.850
 4658POPC   C1A19983  38.472  27.560   8.550
 4658POPC   D2A19984  38.418  27.609   8.250
 4658POPC   C3A19985  38.413  27.612   7.950
 4658POPC   C4A19986  38.503  27.636   7.650
 4658POPC   C1B19987  38.559  27.403   8.550
 4658POPC   C2B19988  38.530  27.333   8.250
 4658POPC   C3B19989  38.511  27.391   7.950
 4658POPC   C4B19990  38.559  27.371   7.650
 4659POPC   NC319991  20.597  27.607   9.450
 4659POPC   PO419992  20.654  27.558   9.150
 4659POPC   GL119993  20.580  27.601   8.850
 4659POPC   GL219994  20.738  27.594   8.850
 4659POPC   C1A19995  20.629  27.550   8.550
 4659POPC   D2A19996  20.594  27.639   8.250
 4659POPC   C3A19997  20.571  27.564   7.950
 4659POPC   C4A19998  20.657  27.632   7.650
 4659POPC   C1B19999  20.889  27.551   8.550
 4659POPC   C2B20000  20.840  27.514   8.250
 4659POPC   C3B20001  20.889  27.539   7.950
 4659POPC   C4B20002  20.799  27.516   7.650
 4660POPC   NC320003  44.666  18.244   9.450
 4660POPC   PO420004  44.700  18.239   9.150
 4660POPC   GL120005  44.685  18.304   8.850
 4660POPC   GL220006  44.636  18.402   8.850
 4660POPC   C1A20007  44.697  18.234   8.550
 4660POPC   D2A20008  44.626  18.303   8.250
 4660POPC   C3A20009  44.631  18.274   7.950
 4660POPC   C4A20010  44.628  18.271   7.650
 4660POPC   C1B20011  44.516  18.464   8.550
 4660POPC   C2B20012  44.517  18.538   8.250
 4660POPC   C3B20013  44.507  18.502   7.950
 4660POPC   C4B20014  44.554  18.479   7.650
 4661POPC   NC320015   8.165  29.913   9.450
 4661POPC   PO420016   8.168  29.874   9.150
 4661POPC   GL120017   8.216  29.964   8.850
 4661POPC   GL220018   8.032  29.983   8.850
 4661POPC   C1A20019   8.153  29.878   8.550
 4661POPC   D2A20020   8.156  29.919   8.250
 4661POPC   C3A20021   8.243  29.961   7.950
 4661POPC   C4A20022   8.165  29.873   7.650
 4661POPC   C1B20023   7.954  29.992   8.550
 4661POPC   C2B20024   7.989  29.961   8.250
 4661POPC   C3B20025   7.970  29.966   7.950
 4661POPC   C4B20026   7.906  29.916   7.650
 4662POPC   NC320027  25.286  28.358   9.450
 4662POPC   PO420028  25.287  28.387   9.150
 4662POPC   GL120029  25.304  28.337   8.850
 4662POPC   GL220030  25.354  28.356   8.850
 4662POPC   C1A20031  25.230  28.359   8.550
 4662POPC   D2A20032  25.243  28.363   8.250
 4662POPC   C3A20033  25.253  28.335   7.950
 4662POPC   C4A20034  25.225  28.391   7.650
 4662POPC   C1B20035  25.481  28.220   8.550
 4662POPC   C2B20036  25.471  28.220   8.250
 4662POPC   C3B20037  25.474  28.293   7.950
 4662POPC   C4B20038  25.453  28.255   7.650
 4663POPC   NC320039  15.198  34.543   9.450
 4663POPC   PO420040  15.174  34.588   9.150
 4663POPC   GL120041  15.226  34.582   8.850
 4663POPC   GL220042  15.125  34.732   8.850
 4663POPC   C1A20043  15.195  34.610   8.550
 4663POPC   D2A20044  15.189  34.578   8.250
 4663POPC   C3A20045  15.209  34.528   7.950
 4663POPC   C4A20046  15.157  34.584   7.650
 4663POPC   C1B20047  15.099  34.812   8.550
 4663POPC   C2B20048  15.096  34.785   8.250
 4663POPC   C3B20049  15.134  34.864   7.950
 4663POPC   C4B20050  15.135  34.798   7.650
 4664POPC   NC320051  15.987  27.609   9.450
 4664POPC   PO420052  15.913  27.628   9.150
 4664POPC   GL120053  16.003  27.617   8.850
 4664POPC   GL220054  15.820  27.625   8.850
 4664POPC   C1A20055  15.930  27.564   8.550
 4664POPC   D2A20056  15.953  27.605   8.250
 4664POPC   C3A20057  15.941  27.609   7.950
 4664POPC   C4A20058  15.920  27.567   7.650
 4664POPC   C1B20059  15.691  27.577   8.550
 4664POPC   C2B20060  15.683  27.561   8.250
 4664POPC   C3B20061  15.678  27.525   7.950
 4664POPC   C4B20062  15.749  27.587   7.650
 4665POPC   NC320063  43.094  26.041   9.450
 4665POPC   PO420064  43.159  25.997   9.150
 4665POPC   GL120065  43.108  26.024   8.850
 4665POPC   GL220066  43.093  26.125   8.850
 4665POPC   C1A20067  43.146  26.083   8.550
 4665POPC   D2A20068  43.138  25.996   8.250
 4665POPC   C3A20069  43.068  26.039   7.950
 4665POPC   C4A20070  43.129  26.082   7.650
 4665POPC   C1B20071  42.931  26.286   8.550
 4665POPC   C2B20072  43.017  26.227   8.250
 4665POPC   C3B20073  42.983  26.231   7.950
 4665POPC   C4B20074  42.941  26.269   7.650
 4666POPC   NC320075  36.141  39.222   9.450
 4666POPC   PO420076  36.078  39.189   9.150
 4666POPC   GL120077  36.106  39.227   8.850
 4666POPC   GL220078  36.119  39.063   8.850
 4666POPC   C1A20079  36.084  39.197   8.550
 4666POPC   D2A20080  36.144  39.191   8.250
 4666POPC   C3A20081  36.090  39.275   7.950
 4666POPC   C4A20082  36.144  39.206   7.650
 4666POPC   C1B20083  36.093  38.944   8.550
 4666POPC   C2B20084  36.108  39.015   8.250
 4666POPC   C3B20085  36.112  38.981   7.950
 4666POPC   C4B20086  36.073  38.962   7.650
 4667POPC   NC320087  41.583  33.793   9.450
 4667POPC   PO420088  41.598  33.841   9.150
 4667POPC   GL120089  41.572  33.823   8.850
 4667POPC   GL220090  41.536  33.653   8.850
 4667POPC   C1A20091  41.565  33.777   8.550
 4667POPC   D2A20092  41.586  33.762   8.250
 4667POPC   C3A20093  41.588  33.836   7.950
 4667POPC   C4A20094  41.533  33.784   7.650
 4667POPC   C1B20095  41.489  33.553   8.550
 4667POPC   C2B20096  41.508  33.598   8.250
 4667POPC   C3B20097  41.517  33.521   7.950
 4667POPC   C4B20098  41.508  33.536   7.650
 4668POPC   NC320099  41.530   0.438   9.450
 4668POPC   PO420100  41.603   0.436   9.150
 4668POPC   GL120101  41.518   0.486   8.850
 4668POPC   GL220102  41.560   0.345   8.850
 4668POPC   C1A20103  41.556   0.469   8.550
 4668POPC   D2A20104  41.552   0.439   8.250
 4668POPC   C3A20105  41.554   0.461   7.950
 4668POPC   C4A20106  41.606   0.428   7.650
 4668POPC   C1B20107  41.588   0.161   8.550
 4668POPC   C2B20108  41.536   0.174   8.250
 4668POPC   C3B20109  41.599   0.148   7.950
 4668POPC   C4B20110  41.547   0.238   7.650
 4669POPC   NC320111  30.699  41.591   9.450
 4669POPC   PO420112  30.694  41.577   9.150
 4669POPC   GL120113  30.724  41.530   8.850
 4669POPC   GL220114  30.538  41.556   8.850
 4669POPC   C1A20115  30.656  41.568   8.550
 4669POPC   D2A20116  30.741  41.571   8.250
 4669POPC   C3A20117  30.727  41.540   7.950
 4669POPC   C4A20118  30.699  41.528   7.650
 4669POPC   C1B20119  30.462  41.599   8.550
 4669POPC   C2B20120  30.472  41.647   8.250
 4669POPC   C3B20121  30.439  41.617   7.950
 4669POPC   C4B20122  30.472  41.614   7.650
 4670POPC   NC320123  30.681  36.135   9.450
 4670POPC   PO420124  30.654  36.148   9.150
 4670POPC   GL120125  30.741  36.087   8.850
 4670POPC   GL220126  30.650  36.215   8.850
 4670POPC   C1A20127  30.684  36.096   8.550
 4670POPC   D2A20128  30.651  36.115   8.250
 4670POPC   C3A20129  30.725  36.173   7.950
 4670POPC   C4A20130  30.729  36.097   7.650
 4670POPC   C1B20131  30.731  36.421   8.550
 4670POPC   C2B20132  30.697  36.376   8.250
 4670POPC   C3B20133  30.734  36.379   7.950
 4670POPC   C4B20134  30.700  36.427   7.650
 4671POPC   NC320135   8.179  28.374   9.450
 4671POPC   PO420136   8.230  28.348   9.150
 4671POPC   GL120137   8.242  28.379   8.850
 4671POPC   GL220138   8.110  28.264   8.850
 4671POPC   C1A20139   8.196  28.381   8.550
 4671POPC   D2A20140   8.204  28.344   8.250
 4671POPC   C3A20141   8.201  28.329   7.950
 4671POPC   C4A20142   8.244  28.346   7.650
 4671POPC   C1B20143   8.055  28.214   8.550
 4671POPC   C2B20144   8.007  28.232   8.250
 4671POPC   C3B20145   7.983  28.168   7.950
 4671POPC   C4B20146   8.009  28.193   7.650
 4672POPC   NC320147  24.463  39.264   9.450
 4672POPC   PO420148  24.522  39.265   9.150
 4672POPC   GL120149  24.519  39.198   8.850
 4672POPC   GL220150  24.565  39.202   8.850
 4672POPC   C1A20151  24.518  39.202   8.550
 4672POPC   D2A20152  24.474  39.261   8.250
 4672POPC   C3A20153  24.531  39.203   7.950
 4672POPC   C4A20154  24.500  39.265   7.650
 4672POPC   C1B20155  24.774  39.142   8.550
 4672POPC   C2B20156  24.734  39.145   8.250
 4672POPC   C3B20157  24.779  39.116   7.950
 4672POPC   C4B20158  24.756  39.125   7.650
 4673POPC   NC320159  33.778  32.241   9.450
 4673POPC   PO420160  33.783  32.261   9.150
 4673POPC   GL120161  33.835  32.205   8.850
 4673POPC   GL220162  33.745  32.411   8.850
 4673POPC   C1A20163  33.824  32.211   8.550
 4673POPC   D2A20164  33.797  32.237   8.250
 4673POPC   C3A20165  33.759  32.259   7.950
 4673POPC   C4A20166  33.782  32.285   7.650
 4673POPC   C1B20167  33.809  32.460   8.550
 4673POPC   C2B20168  33.789  32.534   8.250
 4673POPC   C3B20169  33.767  32.498   7.950
 4673POPC   C4B20170  33.796  32.491   7.650
 4674POPC   NC320171  44.645  33.804   9.450
 4674POPC   PO420172  44.677  33.845   9.150
 4674POPC   GL120173  44.635  33.803   8.850
 4674POPC   GL220174  44.830  33.815   8.850
 4674POPC   C1A20175  44.694  33.836   8.550
 4674POPC   D2A20176  44.617  33.797   8.250
 4674POPC   C3A20177  44.688  33.794   7.950
 4674POPC   C4A20178  44.639  33.826   7.650
 4674POPC   C1B20179  44.946  33.854   8.550
 4674POPC   C2B20180  44.910  33.828   8.250
 4674POPC   C3B20181  44.939  33.869   7.950
 4674POPC   C4B20182  44.882  33.867   7.650
 4675POPC   NC320183  12.847  19.807   9.450
 4675POPC   PO420184  12.806  19.812   9.150
 4675POPC   GL120185  12.852  19.820   8.850
 4675POPC   GL220186  12.691  19.888   8.850
 4675POPC   C1A20187  12.831  19.866   8.550
 4675POPC   D2A20188  12.842  19.841   8.250
 4675POPC   C3A20189  12.893  19.869   7.950
 4675POPC   C4A20190  12.868  19.880   7.650
 4675POPC   C1B20191  12.603  19.849   8.550
 4675POPC   C2B20192  12.566  19.809   8.250
 4675POPC   C3B20193  12.643  19.859   7.950
 4675POPC   C4B20194  12.600  19.820   7.650
 4676POPC   NC320195  16.716  13.652   9.450
 4676POPC   PO420196  16.716  13.599   9.150
 4676POPC   GL120197  16.731  13.589   8.850
 4676POPC   GL220198  16.723  13.496   8.850
 4676POPC   C1A20199  16.750  13.615   8.550
 4676POPC   D2A20200  16.698  13.582   8.250
 4676POPC   C3A20201  16.704  13.594   7.950
 4676POPC   C4A20202  16.711  13.658   7.650
 4676POPC   C1B20203  16.639  13.383   8.550
 4676POPC   C2B20204  16.655  13.424   8.250
 4676POPC   C3B20205  16.665  13.371   7.950
 4676POPC   C4B20206  16.664  13.363   7.650
 4677POPC   NC320207  23.733  40.771   9.450
 4677POPC   PO420208  23.745  40.803   9.150
 4677POPC   GL120209  23.739  40.826   8.850
 4677POPC   GL220210  23.580  40.757   8.850
 4677POPC   C1A20211  23.734  40.785   8.550
 4677POPC   D2A20212  23.739  40.743   8.250
 4677POPC   C3A20213  23.717  40.830   7.950
 4677POPC   C4A20214  23.758  40.755   7.650
 4677POPC   C1B20215  23.464  40.643   8.550
 4677POPC   C2B20216  23.452  40.660   8.250
 4677POPC   C3B20217  23.504  40.679   7.950
 4677POPC   C4B20218  23.442  40.690   7.650
 4678POPC   NC320219  31.454  23.742   9.450
 4678POPC   PO420220  31.462  23.688   9.150
 4678POPC   GL120221  31.441  23.739   8.850
 4678POPC   GL220222  31.383  23.673   8.850
 4678POPC   C1A20223  31.508  23.746   8.550
 4678POPC   D2A20224  31.452  23.667   8.250
 4678POPC   C3A20225  31.518  23.716   7.950
 4678POPC   C4A20226  31.513  23.695   7.650
 4678POPC   C1B20227  31.273  23.624   8.550
 4678POPC   C2B20228  31.256  23.666   8.250
 4678POPC   C3B20229  31.239  23.649   7.950
 4678POPC   C4B20230  31.209  23.655   7.650
 4679POPC   NC320231   5.892  40.798   9.450
 4679POPC   PO420232   5.889  40.817   9.150
 4679POPC   GL120233   5.838  40.798   8.850
 4679POPC   GL220234   6.028  40.793   8.850
 4679POPC   C1A20235   5.898  40.737   8.550
 4679POPC   D2A20236   5.828  40.778   8.250
 4679POPC   C3A20237   5.835  40.737   7.950
 4679POPC   C4A20238   5.880  40.824   7.650
 4679POPC   C1B20239   6.096  40.757   8.550
 4679POPC   C2B20240   6.161  40.808   8.250
 4679POPC   C3B20241   6.151  40.784   7.950
 4679POPC   C4B20242   6.123  40.822   7.650
 4680POPC   NC320243   1.166   5.907   9.450
 4680POPC   PO420244   1.222   5.873   9.150
 4680POPC   GL120245   1.218   5.830   8.850
 4680POPC   GL220246   1.338   5.824   8.850
 4680POPC   C1A20247   1.247   5.848   8.550
 4680POPC   D2A20248   1.229   5.896   8.250
 4680POPC   C3A20249   1.172   5.864   7.950
 4680POPC   C4A20250   1.175   5.843   7.650
 4680POPC   C1B20251   1.415   5.824   8.550
 4680POPC   C2B20252   1.417   5.850   8.250
 4680POPC   C3B20253   1.422   5.905   7.950
 4680POPC   C4B20254   1.507   5.844   7.650
 4681POPC   NC320255   9.728  10.484   9.450
 4681POPC   PO420256   9.737  10.480   9.150
 4681POPC   GL120257   9.755  10.497   8.850
 4681POPC   GL220258   9.872  10.514   8.850
 4681POPC   C1A20259   9.712  10.529   8.550
 4681POPC   D2A20260   9.761  10.517   8.250
 4681POPC   C3A20261   9.741  10.556   7.950
 4681POPC   C4A20262   9.758  10.504   7.650
 4681POPC   C1B20263   9.991  10.439   8.550
 4681POPC   C2B20264   9.979  10.481   8.250
 4681POPC   C3B20265   9.951  10.417   7.950
 4681POPC   C4B20266   9.989  10.483   7.650
 4682POPC   NC320267   8.192   6.623   9.450
 4682POPC   PO420268   8.228   6.694   9.150
 4682POPC   GL120269   8.197   6.681   8.850
 4682POPC   GL220270   8.184   6.753   8.850
 4682POPC   C1A20271   8.176   6.642   8.550
 4682POPC   D2A20272   8.167   6.638   8.250
 4682POPC   C3A20273   8.161   6.630   7.950
 4682POPC   C4A20274   8.226   6.595   7.650
 4682POPC   C1B20275   8.249   6.874   8.550
 4682POPC   C2B20276   8.242   6.864   8.250
 4682POPC   C3B20277   8.196   6.884   7.950
 4682POPC   C4B20278   8.173   6.890   7.650
 4683POPC   NC320279  22.139  12.816   9.450
 4683POPC   PO420280  22.208  12.880   9.150
 4683POPC   GL120281  22.123  12.831   8.850
 4683POPC   GL220282  22.087  12.941   8.850
 4683POPC   C1A20283  22.150  12.872   8.550
 4683POPC   D2A20284  22.113  12.880   8.250
 4683POPC   C3A20285  22.132  12.835   7.950
 4683POPC   C4A20286  22.166  12.886   7.650
 4683POPC   C1B20287  21.962  12.910   8.550
 4683POPC   C2B20288  21.925  12.958   8.250
 4683POPC   C3B20289  21.945  12.983   7.950
 4683POPC   C4B20290  21.926  12.916   7.650
 4684POPC   NC320291  19.092  33.813   9.450
 4684POPC   PO420292  19.086  33.760   9.150
 4684POPC   GL120293  19.067  33.768   8.850
 4684POPC   GL220294  19.175  33.858   8.850
 4684POPC   C1A20295  19.083  33.778   8.550
 4684POPC   D2A20296  19.014  33.823   8.250
 4684POPC   C3A20297  19.064  33.773   7.950
 4684POPC   C4A20298  19.058  33.777   7.650
 4684POPC   C1B20299  19.284  33.819   8.550
 4684POPC   C2B20300  19.349  33.835   8.250
 4684POPC   C3B20301  19.323  33.835   7.950
 4684POPC   C4B20302  19.267  33.805   7.650
 4685POPC   NC320303   5.137  11.283   9.450
 4685POPC   PO420304   5.044  11.322   9.150
 4685POPC   GL120305   5.050  11.268   8.850
 4685POPC   GL220306   5.018  11.378   8.850
 4685POPC   C1A20307   5.044  11.333   8.550
 4685POPC   D2A20308   5.093  11.308   8.250
 4685POPC   C3A20309   5.100  11.312   7.950
 4685POPC   C4A20310   5.099  11.261   7.650
 4685POPC   C1B20311   4.957  11.538   8.550
 4685POPC   C2B20312   5.009  11.567   8.250
 4685POPC   C3B20313   4.986  11.498   7.950
 4685POPC   C4B20314   4.962  11.525   7.650
 4686POPC   NC320315  15.195   1.259   9.450
 4686POPC   PO420316  15.209   1.256   9.150
 4686POPC   GL120317  15.193   1.224   8.850
 4686POPC   GL220318  15.210   1.323   8.850
 4686POPC   C1A20319  15.183   1.230   8.550
 4686POPC   D2A20320  15.160   1.203   8.250
 4686POPC   C3A20321  15.186   1.170   7.950
 4686POPC   C4A20322  15.149   1.258   7.650
 4686POPC   C1B20323  15.197   1.491   8.550
 4686POPC   C2B20324  15.196   1.475   8.250
 4686POPC   C3B20325  15.232   1.478   7.950
 4686POPC   C4B20326  15.277   1.483   7.650
 4687POPC   NC320327  42.346   7.412   9.450
 4687POPC   PO420328  42.375   7.398   9.150
 4687POPC   GL120329  42.292   7.387   8.850
 4687POPC   GL220330  42.351   7.545   8.850
 4687POPC   C1A20331  42.313   7.373   8.550
 4687POPC   D2A20332  42.340   7.381   8.250
 4687POPC   C3A20333  42.300   7.398   7.950
 4687POPC   C4A20334  42.363   7.468   7.650
 4687POPC   C1B20335  42.416   7.645   8.550
 4687POPC   C2B20336  42.404   7.699   8.250
 4687POPC   C3B20337  42.456   7.607   7.950
 4687POPC   C4B20338  42.410   7.614   7.650
 4688POPC   NC320339  33.828  27.640   9.450
 4688POPC   PO420340  33.770  27.630   9.150
 4688POPC   GL120341  33.837  27.623   8.850
 4688POPC   GL220342  33.919  27.649   8.850
 4688POPC   C1A20343  33.847  27.635   8.550
 4688POPC   D2A20344  33.756  27.630   8.250
 4688POPC   C3A20345  33.823  27.600   7.950
 4688POPC   C4A20346  33.823  27.639   7.650
 4688POPC   C1B20347  34.011  27.629   8.550
 4688POPC   C2B20348  34.073  27.564   8.250
 4688POPC   C3B20349  34.063  27.629   7.950
 4688POPC   C4B20350  34.022  27.644   7.650
 4689POPC   NC320351   9.767  43.853   9.450
 4689POPC   PO420352   9.748  43.922   9.150
 4689POPC   GL120353   9.710  43.936   8.850
 4689POPC   GL220354   9.728  44.034   8.850
 4689POPC   C1A20355   9.741  43.910   8.550
 4689POPC   D2A20356   9.738  43.909   8.250
 4689POPC   C3A20357   9.750  43.855   7.950
 4689POPC   C4A20358   9.791  43.879   7.650
 4689POPC   C1B20359   9.678  44.093   8.550
 4689POPC   C2B20360   9.665  44.142   8.250
 4689POPC   C3B20361   9.665  44.068   7.950
 4689POPC   C4B20362   9.614  44.141   7.650
 4690POPC   NC320363  44.623   5.906   9.450
 4690POPC   PO420364  44.646   5.904   9.150
 4690POPC   GL120365  44.613   5.913   8.850
 4690POPC   GL220366  44.799   5.842   8.850
 4690POPC   C1A20367  44.692   5.874   8.550
 4690POPC   D2A20368  44.618   5.892   8.250
 4690POPC   C3A20369  44.700   5.885   7.950
 4690POPC   C4A20370  44.701   5.914   7.650
 4690POPC   C1B20371  44.895   5.928   8.550
 4690POPC   C2B20372  44.882   5.956   8.250
 4690POPC   C3B20373  44.873   5.869   7.950
 4690POPC   C4B20374  44.917   5.931   7.650
 4691POPC   NC320375  32.232  26.072   9.450
 4691POPC   PO420376  32.272  26.037   9.150
 4691POPC   GL120377  32.259  26.013   8.850
 4691POPC   GL220378  32.338  26.016   8.850
 4691POPC   C1A20379  32.254  26.006   8.550
 4691POPC   D2A20380  32.228  26.014   8.250
 4691POPC   C3A20381  32.281  26.006   7.950
 4691POPC   C4A20382  32.284  26.012   7.650
 4691POPC   C1B20383  32.532  25.944   8.550
 4691POPC   C2B20384  32.525  26.005   8.250
 4691POPC   C3B20385  32.440  25.976   7.950
 4691POPC   C4B20386  32.444  26.006   7.650
 4692POPC   NC320387   2.026  20.580   9.450
 4692POPC   PO420388   2.000  20.655   9.150
 4692POPC   GL120389   2.022  20.587   8.850
 4692POPC   GL220390   1.867  20.704   8.850
 4692POPC   C1A20391   1.967  20.610   8.550
 4692POPC   D2A20392   1.979  20.564   8.250
 4692POPC   C3A20393   2.006  20.621   7.950
 4692POPC   C4A20394   1.943  20.615   7.650
 4692POPC   C1B20395   1.780  20.763   8.550
 4692POPC   C2B20396   1.818  20.774   8.250
 4692POPC   C3B20397   1.743  20.805   7.950
 4692POPC   C4B20398   1.800  20.779   7.650
 4693POPC   NC320399  12.044  12.102   9.450
 4693POPC   PO420400  12.119  12.037   9.150
 4693POPC   GL120401  12.064  12.079   8.850
 4693POPC   GL220402  12.004  12.001   8.850
 4693POPC   C1A20403  12.075  12.033   8.550
 4693POPC   D2A20404  12.038  12.089   8.250
 4693POPC   C3A20405  12.089  12.034   7.950
 4693POPC   C4A20406  12.041  12.096   7.650
 4693POPC   C1B20407  11.894  11.931   8.550
 4693POPC   C2B20408  11.826  11.979   8.250
 4693POPC   C3B20409  11.888  11.885   7.950
 4693POPC   C4B20410  11.900  11.900   7.650
 4694POPC   NC320411  43.102  41.528   9.450
 4694POPC   PO420412  43.110  41.528   9.150
 4694POPC   GL120413  43.146  41.554   8.850
 4694POPC   GL220414  43.251  41.569   8.850
 4694POPC   C1A20415  43.135  41.585   8.550
 4694POPC   D2A20416  43.100  41.561   8.250
 4694POPC   C3A20417  43.140  41.529   7.950
 4694POPC   C4A20418  43.139  41.566   7.650
 4694POPC   C1B20419  43.393  41.559   8.550
 4694POPC   C2B20420  43.334  41.606   8.250
 4694POPC   C3B20421  43.393  41.567   7.950
 4694POPC   C4B20422  43.370  41.539   7.650
 4695POPC   NC320423   1.955  32.216   9.450
 4695POPC   PO420424   1.967  32.251   9.150
 4695POPC   GL120425   2.032  32.267   8.850
 4695POPC   GL220426   1.889  32.157   8.850
 4695POPC   C1A20427   1.941  32.293   8.550
 4695POPC   D2A20428   1.959  32.216   8.250
 4695POPC   C3A20429   1.954  32.247   7.950
 4695POPC   C4A20430   1.996  32.254   7.650
 4695POPC   C1B20431   1.762  32.106   8.550
 4695POPC   C2B20432   1.749  32.090   8.250
 4695POPC   C3B20433   1.758  32.084   7.950
 4695POPC   C4B20434   1.723  32.146   7.650
 4696POPC   NC320435  26.790   5.114   9.450
 4696POPC   PO420436  26.819   5.053   9.150
 4696POPC   GL120437  26.794   5.060   8.850
 4696POPC   GL220438  26.767   5.192   8.850
 4696POPC   C1A20439  26.769   5.076   8.550
 4696POPC   D2A20440  26.780   5.126   8.250
 4696POPC   C3A20441  26.855   5.109   7.950
 4696POPC   C4A20442  26.866   5.070   7.650
 4696POPC   C1B20443  26.763   5.353   8.550
 4696POPC   C2B20444  26.776   5.320   8.250
 4696POPC   C3B20445  26.703   5.348   7.950
 4696POPC   C4B20446  26.757   5.338   7.650
 4697POPC   NC320447  31.497  17.489   9.450
 4697POPC   PO420448  31.430  17.500   9.150
 4697POPC   GL120449  31.471  17.494   8.850
 4697POPC   GL220450  31.435  17.603   8.850
 4697POPC   C1A20451  31.435  17.526   8.550
 4697POPC   D2A20452  31.503  17.511   8.250
 4697POPC   C3A20453  31.490  17.535   7.950
 4697POPC   C4A20454  31.521  17.520   7.650
 4697POPC   C1B20455  31.500  17.760   8.550
 4697POPC   C2B20456  31.457  17.719   8.250
 4697POPC   C3B20457  31.431  17.779   7.950
 4697POPC   C4B20458  31.434  17.797   7.650
 4698POPC   NC320459  33.021  20.610   9.450
 4698POPC   PO420460  33.015  20.572   9.150
 4698POPC   GL120461  32.980  20.562   8.850
 4698POPC   GL220462  32.903  20.511   8.850
 4698POPC   C1A20463  32.976  20.607   8.550
 4698POPC   D2A20464  33.062  20.633   8.250
 4698POPC   C3A20465  33.017  20.561   7.950
 4698POPC   C4A20466  33.020  20.640   7.650
 4698POPC   C1B20467  32.843  20.470   8.550
 4698POPC   C2B20468  32.856  20.441   8.250
 4698POPC   C3B20469  32.826  20.465   7.950
 4698POPC   C4B20470  32.849  20.466   7.650
 4699POPC   NC320471  36.126  24.484   9.450
 4699POPC   PO420472  36.141  24.478   9.150
 4699POPC   GL120473  36.157  24.472   8.850
 4699POPC   GL220474  36.011  24.547   8.850
 4699POPC   C1A20475  36.142  24.540   8.550
 4699POPC   D2A20476  36.095  24.508   8.250
 4699POPC   C3A20477  36.144  24.510   7.950
 4699POPC   C4A20478  36.084  24.449   7.650
 4699POPC   C1B20479  35.901  24.548   8.550
 4699POPC   C2B20480  35.930  24.592   8.250
 4699POPC   C3B20481  35.925  24.631   7.950
 4699POPC   C4B20482  35.896  24.630   7.650
 4700POPC   NC320483  40.041  37.646   9.450
 4700POPC   PO420484  40.013  37.660   9.150
 4700POPC   GL120485  40.036  37.690   8.850
 4700POPC   GL220486  40.009  37.524   8.850
 4700POPC   C1A20487  40.024  37.657   8.550
 4700POPC   D2A20488  40.001  37.653   8.250
 4700POPC   C3A20489  39.963  37.662   7.950
 4700POPC   C4A20490  39.995  37.680   7.650
 4700POPC   C1B20491  39.984  37.444   8.550
 4700POPC   C2B20492  40.064  37.395   8.250
 4700POPC   C3B20493  40.070  37.388   7.950
 4700POPC   C4B20494  40.010  37.404   7.650
 4701POPC   NC320495  40.753   2.811   9.450
 4701POPC   PO420496  40.797   2.786   9.150
 4701POPC   GL120497  40.802   2.733   8.850
 4701POPC   GL220498  40.782   2.594   8.850
 4701POPC   C1A20499  40.796   2.718   8.550
 4701POPC   D2A20500  40.831   2.729   8.250
 4701POPC   C3A20501  40.770   2.814   7.950
 4701POPC   C4A20502  40.749   2.759   7.650
 4701POPC   C1B20503  40.727   2.554   8.550
 4701POPC   C2B20504  40.756   2.543   8.250
 4701POPC   C3B20505  40.777   2.539   7.950
 4701POPC   C4B20506  40.744   2.506   7.650
 4702POPC   NC320507   5.853  34.546   9.450
 4702POPC   PO420508   5.862  34.600   9.150
 4702POPC   GL120509   5.893  34.539   8.850
 4702POPC   GL220510   5.784  34.741   8.850
 4702POPC   C1A20511   5.880  34.531   8.550
 4702POPC   D2A20512   5.826  34.580   8.250
 4702POPC   C3A20513   5.842  34.596   7.950
 4702POPC   C4A20514   5.852  34.594   7.650
 4702POPC   C1B20515   5.817  34.781   8.550
 4702POPC   C2B20516   5.831  34.790   8.250
 4702POPC   C3B20517   5.767  34.771   7.950
 4702POPC   C4B20518   5.824  34.838   7.650
 4703POPC   NC320519   1.173  26.861   9.450
 4703POPC   PO420520   1.203  26.768   9.150
 4703POPC   GL120521   1.217  26.846   8.850
 4703POPC   GL220522   1.240  26.703   8.850
 4703POPC   C1A20523   1.255  26.795   8.550
 4703POPC   D2A20524   1.240  26.832   8.250
 4703POPC   C3A20525   1.198  26.836   7.950
 4703POPC   C4A20526   1.201  26.840   7.650
 4703POPC   C1B20527   1.170  26.538   8.550
 4703POPC   C2B20528   1.216  26.599   8.250
 4703POPC   C3B20529   1.228  26.533   7.950
 4703POPC   C4B20530   1.183  26.524   7.650
 4704POPC   NC320531   0.484  13.603   9.450
 4704POPC   PO420532   0.393  13.670   9.150
 4704POPC   GL120533   0.434  13.660   8.850
 4704POPC   GL220534   0.444  13.534   8.850
 4704POPC   C1A20535   0.445  13.671   8.550
 4704POPC   D2A20536   0.415  13.613   8.250
 4704POPC   C3A20537   0.424  13.629   7.950
 4704POPC   C4A20538   0.389  13.594   7.650
 4704POPC   C1B20539   0.439  13.347   8.550
 4704POPC   C2B20540   0.389  13.392   8.250
 4704POPC   C3B20541   0.434  13.371   7.950
 4704POPC   C4B20542   0.364  13.374   7.650
 4705POPC   NC320543  14.400  44.670   9.450
 4705POPC   PO420544  14.430  44.636   9.150
 4705POPC   GL120545  14.379  44.698   8.850
 4705POPC   GL220546  14.301  44.746   8.850
 4705POPC   C1A20547  14.362  44.631   8.550
 4705POPC   D2A20548  14.437  44.678   8.250
 4705POPC   C3A20549  14.443  44.629   7.950
 4705POPC   C4A20550  14.435  44.654   7.650
 4705POPC   C1B20551  14.333  44.872   8.550
 4705POPC   C2B20552  14.333  44.878   8.250
 4705POPC   C3B20553  14.323  44.872   7.950
 4705POPC   C4B20554  14.302  44.861   7.650
 4706POPC   NC320555  10.497  20.596   9.450
 4706POPC   PO420556  10.539  20.624   9.150
 4706POPC   GL120557  10.562  20.647   8.850
 4706POPC   GL220558  10.611  20.652   8.850
 4706POPC   C1A20559  10.563  20.574   8.550
 4706POPC   D2A20560  10.518  20.608   8.250
 4706POPC   C3A20561  10.492  20.563   7.950
 4706POPC   C4A20562  10.496  20.622   7.650
 4706POPC   C1B20563  10.752  20.639   8.550
 4706POPC   C2B20564  10.749  20.686   8.250
 4706POPC   C3B20565  10.811  20.617   7.950
 4706POPC   C4B20566  10.751  20.633   7.650
 4707POPC   NC320567  27.619  41.513   9.450
 4707POPC   PO420568  27.590  41.550   9.150
 4707POPC   GL120569  27.641  41.529   8.850
 4707POPC   GL220570  27.505  41.540   8.850
 4707POPC   C1A20571  27.640  41.575   8.550
 4707POPC   D2A20572  27.611  41.530   8.250
 4707POPC   C3A20573  27.631  41.575   7.950
 4707POPC   C4A20574  27.638  41.559   7.650
 4707POPC   C1B20575  27.359  41.496   8.550
 4707POPC   C2B20576  27.363  41.533   8.250
 4707POPC   C3B20577  27.353  41.509   7.950
 4707POPC   C4B20578  27.359  41.503   7.650
 4708POPC   NC320579  37.635  44.694   9.450
 4708POPC   PO420580  37.632  44.617   9.150
 4708POPC   GL120581  37.645  44.701   8.850
 4708POPC   GL220582  37.625  44.571   8.850
 4708POPC   C1A20583  37.714  44.689   8.550
 4708POPC   D2A20584  37.683  44.684   8.250
 4708POPC   C3A20585  37.649  44.633   7.950
 4708POPC   C4A20586  37.685  44.625   7.650
 4708POPC   C1B20587  37.483  44.530   8.550
 4708POPC   C2B20588  37.424  44.487   8.250
 4708POPC   C3B20589  37.501  44.511   7.950
 4708POPC   C4B20590  37.492  44.561   7.650
 4709POPC   NC320591  18.318  23.747   9.450
 4709POPC   PO420592  18.262  23.713   9.150
 4709POPC   GL120593  18.269  23.708   8.850
 4709POPC   GL220594  18.391  23.825   8.850
 4709POPC   C1A20595  18.278  23.735   8.550
 4709POPC   D2A20596  18.236  23.716   8.250
 4709POPC   C3A20597  18.275  23.733   7.950
 4709POPC   C4A20598  18.276  23.677   7.650
 4709POPC   C1B20599  18.406  23.881   8.550
 4709POPC   C2B20600  18.393  23.923   8.250
 4709POPC   C3B20601  18.428  23.903   7.950
 4709POPC   C4B20602  18.426  23.943   7.650
 4710POPC   NC320603  43.061   8.217   9.450
 4710POPC   PO420604  43.145   8.201   9.150
 4710POPC   GL120605  43.142   8.219   8.850
 4710POPC   GL220606  43.139   8.114   8.850
 4710POPC   C1A20607  43.146   8.219   8.550
 4710POPC   D2A20608  43.142   8.221   8.250
 4710POPC   C3A20609  43.137   8.221   7.950
 4710POPC   C4A20610  43.085   8.211   7.650
 4710POPC   C1B20611  43.178   7.965   8.550
 4710POPC   C2B20612  43.222   8.008   8.250
 4710POPC   C3B20613  43.194   8.013   7.950
 4710POPC   C4B20614  43.235   7.996   7.650
 4711POPC   NC320615   1.171  32.203   9.450
 4711POPC   PO420616   1.241  32.261   9.150
 4711POPC   GL120617   1.176  32.247   8.850
 4711POPC   GL220618   1.270  32.414   8.850
 4711POPC   C1A20619   1.238  32.205   8.550
 4711POPC   D2A20620   1.217  32.215   8.250
 4711POPC   C3A20621   1.222  32.250   7.950
 4711POPC   C4A20622   1.190  32.242   7.650
 4711POPC   C1B20623   1.317  32.470   8.550
 4711POPC   C2B20624   1.283  32.448   8.250
 4711POPC   C3B20625   1.328  32.483   7.950
 4711POPC   C4B20626   1.283  32.444   7.650
 4712POPC   NC320627   5.898  35.397   9.450
 4712POPC   PO420628   5.855  35.386   9.150
 4712POPC   GL120629   5.874  35.351   8.850
 4712POPC   GL220630   5.958  35.226   8.850
 4712POPC   C1A20631   5.835  35.310   8.550
 4712POPC   D2A20632   5.918  35.357   8.250
 4712POPC   C3A20633   5.896  35.382   7.950
 4712POPC   C4A20634   5.874  35.402   7.650
 4712POPC   C1B20635   5.938  35.163   8.550
 4712POPC   C2B20636   5.963  35.159   8.250
 4712POPC   C3B20637   5.983  35.115   7.950
 4712POPC   C4B20638   5.952  35.141   7.650
 4713POPC   NC320639  25.307  27.613   9.450
 4713POPC   PO420640  25.260  27.614   9.150
 4713POPC   GL120641  25.243  27.565   8.850
 4713POPC   GL220642  25.238  27.708   8.850
 4713POPC   C1A20643  25.279  27.556   8.550
 4713POPC   D2A20644  25.314  27.572   8.250
 4713POPC   C3A20645  25.255  27.566   7.950
 4713POPC   C4A20646  25.272  27.610   7.650
 4713POPC   C1B20647  25.152  27.788   8.550
 4713POPC   C2B20648  25.185  27.805   8.250
 4713POPC   C3B20649  25.165  27.764   7.950
 4713POPC   C4B20650  25.159  27.791   7.650
 4714POPC   NC320651  16.716  23.726   9.450
 4714POPC   PO420652  16.757  23.731   9.150
 4714POPC   GL120653  16.720  23.672   8.850
 4714POPC   GL220654  16.894  23.717   8.850
 4714POPC   C1A20655  16.714  23.717   8.550
 4714POPC   D2A20656  16.705  23.696   8.250
 4714POPC   C3A20657  16.759  23.693   7.950
 4714POPC   C4A20658  16.698  23.671   7.650
 4714POPC   C1B20659  16.984  23.665   8.550
 4714POPC   C2B20660  17.010  23.681   8.250
 4714POPC   C3B20661  16.987  23.683   7.950
 4714POPC   C4B20662  16.970  23.684   7.650
 4715POPC   NC320663  29.193  31.451   9.450
 4715POPC   PO420664  29.167  31.440   9.150
 4715POPC   GL120665  29.112  31.484   8.850
 4715POPC   GL220666  29.275  31.486   8.850
 4715POPC   C1A20667  29.126  31.458   8.550
 4715POPC   D2A20668  29.103  31.458   8.250
 4715POPC   C3A20669  29.103  31.441   7.950
 4715POPC   C4A20670  29.187  31.463   7.650
 4715POPC   C1B20671  29.380  31.437   8.550
 4715POPC   C2B20672  29.396  31.412   8.250
 4715POPC   C3B20673  29.403  31.395   7.950
 4715POPC   C4B20674  29.375  31.452   7.650
 4716POPC   NC320675  23.760  19.787   9.450
 4716POPC   PO420676  23.737  19.870   9.150
 4716POPC   GL120677  23.691  19.807   8.850
 4716POPC   GL220678  23.813  19.704   8.850
 4716POPC   C1A20679  23.750  19.873   8.550
 4716POPC   D2A20680  23.729  19.852   8.250
 4716POPC   C3A20681  23.706  19.831   7.950
 4716POPC   C4A20682  23.702  19.825   7.650
 4716POPC   C1B20683  23.882  19.651   8.550
 4716POPC   C2B20684  23.874  19.631   8.250
 4716POPC   C3B20685  23.890  19.677   7.950
 4716POPC   C4B20686  23.854  19.641   7.650
 4717POPC   NC320687  15.146  43.130   9.450
 4717POPC   PO420688  15.144  43.089   9.150
 4717POPC   GL120689  15.165  43.128   8.850
 4717POPC   GL220690  15.031  43.072   8.850
 4717POPC   C1A20691  15.162  43.140   8.550
 4717POPC   D2A20692  15.212  43.141   8.250
 4717POPC   C3A20693  15.144  43.130   7.950
 4717POPC   C4A20694  15.174  43.082   7.650
 4717POPC   C1B20695  14.957  43.018   8.550
 4717POPC   C2B20696  14.924  42.982   8.250
 4717POPC   C3B20697  14.951  43.028   7.950
 4717POPC   C4B20698  14.947  43.010   7.650
 4718POPC   NC320699  14.358  13.610   9.450
 4718POPC   PO420700  14.389  13.646   9.150
 4718POPC   GL120701  14.440  13.606   8.850
 4718POPC   GL220702  14.470  13.616   8.850
 4718POPC   C1A20703  14.435  13.608   8.550
 4718POPC   D2A20704  14.445  13.632   8.250
 4718POPC   C3A20705  14.372  13.646   7.950
 4718POPC   C4A20706  14.449  13.586   7.650
 4718POPC   C1B20707  14.606  13.491   8.550
 4718POPC   C2B20708  14.621  13.521   8.250
 4718POPC   C3B20709  14.628  13.509   7.950
 4718POPC   C4B20710  14.644  13.523   7.650
 4719POPC   NC320711  22.957  37.713   9.450
 4719POPC   PO420712  22.931  37.670   9.150
 4719POPC   GL120713  22.944  37.641   8.850
 4719POPC   GL220714  22.985  37.806   8.850
 4719POPC   C1A20715  22.955  37.651   8.550
 4719POPC   D2A20716  22.917  37.641   8.250
 4719POPC   C3A20717  22.971  37.696   7.950
 4719POPC   C4A20718  22.972  37.692   7.650
 4719POPC   C1B20719  22.992  37.878   8.550
 4719POPC   C2B20720  23.001  37.907   8.250
 4719POPC   C3B20721  22.920  37.923   7.950
 4719POPC   C4B20722  22.983  37.964   7.650
 4720POPC   NC320723  15.159  44.683   9.450
 4720POPC   PO420724  15.159  44.709   9.150
 4720POPC   GL120725  15.224  44.700   8.850
 4720POPC   GL220726  15.174  44.569   8.850
 4720POPC   C1A20727  15.173  44.631   8.550
 4720POPC   D2A20728  15.217  44.637   8.250
 4720POPC   C3A20729  15.204  44.642   7.950
 4720POPC   C4A20730  15.180  44.620   7.650
 4720POPC   C1B20731  15.236  44.409   8.550
 4720POPC   C2B20732  15.298  44.403   8.250
 4720POPC   C3B20733  15.294  44.379   7.950
 4720POPC   C4B20734  15.237  44.431   7.650
 4721POPC   NC320735   3.524   5.855   9.450
 4721POPC   PO420736   3.553   5.895   9.150
 4721POPC   GL120737   3.532   5.839   8.850
 4721POPC   GL220738   3.455   5.798   8.850
 4721POPC   C1A20739   3.517   5.827   8.550
 4721POPC   D2A20740   3.537   5.849   8.250
 4721POPC   C3A20741   3.501   5.902   7.950
 4721POPC   C4A20742   3.507   5.846   7.650
 4721POPC   C1B20743   3.284   5.843   8.550
 4721POPC   C2B20744   3.292   5.847   8.250
 4721POPC   C3B20745   3.265   5.794   7.950
 4721POPC   C4B20746   3.263   5.838   7.650
 4722POPC   NC320747  43.913  12.114   9.450
 4722POPC   PO420748  43.837  12.063   9.150
 4722POPC   GL120749  43.880  12.074   8.850
 4722POPC   GL220750  44.041  12.083   8.850
 4722POPC   C1A20751  43.838  12.044   8.550
 4722POPC   D2A20752  43.901  12.093   8.250
 4722POPC   C3A20753  43.913  12.103   7.950
 4722POPC   C4A20754  43.924  12.113   7.650
 4722POPC   C1B20755  44.111  12.099   8.550
 4722POPC   C2B20756  44.140  12.098   8.250
 4722POPC   C3B20757  44.102  12.151   7.950
 4722POPC   C4B20758  44.136  12.102   7.650
 4723POPC   NC320759  16.691  34.624   9.450
 4723POPC   PO420760  16.716  34.555   9.150
 4723POPC   GL120761  16.741  34.595   8.850
 4723POPC   GL220762  16.731  34.678   8.850
 4723POPC   C1A20763  16.695  34.560   8.550
 4723POPC   D2A20764  16.729  34.552   8.250
 4723POPC   C3A20765  16.733  34.615   7.950
 4723POPC   C4A20766  16.731  34.533   7.650
 4723POPC   C1B20767  16.758  34.791   8.550
 4723POPC   C2B20768  16.735  34.780   8.250
 4723POPC   C3B20769  16.773  34.809   7.950
 4723POPC   C4B20770  16.725  34.844   7.650
 4724POPC   NC320771  36.888  36.078   9.450
 4724POPC   PO420772  36.892  36.137   9.150
 4724POPC   GL120773  36.899  36.111   8.850
 4724POPC   GL220774  37.016  36.105   8.850
 4724POPC   C1A20775  36.905  36.149   8.550
 4724POPC   D2A20776  36.903  36.101   8.250
 4724POPC   C3A20777  36.871  36.168   7.950
 4724POPC   C4A20778  36.866  36.104   7.650
 4724POPC   C1B20779  37.127  36.055   8.550
 4724POPC   C2B20780  37.139  36.033   8.250
 4724POPC   C3B20781  37.104  35.996   7.950
 4724POPC   C4B20782  37.172  35.989   7.650
 4725POPC   NC320783  16.741  26.792   9.450
 4725POPC   PO420784  16.725  26.776   9.150
 4725POPC   GL120785  16.692  26.848   8.850
 4725POPC   GL220786  16.731  26.932   8.850
 4725POPC   C1A20787  16.767  26.828   8.550
 4725POPC   D2A20788  16.731  26.793   8.250
 4725POPC   C3A20789  16.725  26.801   7.950
 4725POPC   C4A20790  16.726  26.866   7.650
 4725POPC   C1B20791  16.705  27.070   8.550
 4725POPC   C2B20792  16.704  27.078   8.250
 4725POPC   C3B20793  16.680  27.030   7.950
 4725POPC   C4B20794  16.697  27.077   7.650
 4726POPC   NC320795  21.388  19.855   9.450
 4726POPC   PO420796  21.400  19.822   9.150
 4726POPC   GL120797  21.417  19.818   8.850
 4726POPC   GL220798  21.323  19.970   8.850
 4726POPC   C1A20799  21.369  19.882   8.550
 4726POPC   D2A20800  21.429  19.822   8.250
 4726POPC   C3A20801  21.351  19.789   7.950
 4726POPC   C4A20802  21.409  19.856   7.650
 4726POPC   C1B20803  21.343  20.078   8.550
 4726POPC   C2B20804  21.308  20.050   8.250
 4726POPC   C3B20805  21.293  20.117   7.950
 4726POPC   C4B20806  21.373  20.063   7.650
 4727POPC   NC320807  12.840  23.698   9.450
 4727POPC   PO420808  12.802  23.755   9.150
 4727POPC   GL120809  12.891  23.763   8.850
 4727POPC   GL220810  12.838  23.819   8.850
 4727POPC   C1A20811  12.850  23.712   8.550
 4727POPC   D2A20812  12.863  23.667   8.250
 4727POPC   C3A20813  12.805  23.667   7.950
 4727POPC   C4A20814  12.842  23.748   7.650
 4727POPC   C1B20815  12.769  23.935   8.550
 4727POPC   C2B20816  12.773  23.956   8.250
 4727POPC   C3B20817  12.746  23.923   7.950
 4727POPC   C4B20818  12.762  23.971   7.650
 4728POPC   NC320819  33.762  39.972   9.450
 4728POPC   PO420820  33.837  40.050   9.150
 4728POPC   GL120821  33.761  40.024   8.850
 4728POPC   GL220822  33.723  39.857   8.850
 4728POPC   C1A20823  33.798  39.978   8.550
 4728POPC   D2A20824  33.778  39.973   8.250
 4728POPC   C3A20825  33.778  39.959   7.950
 4728POPC   C4A20826  33.754  40.046   7.650
 4728POPC   C1B20827  33.725  39.754   8.550
 4728POPC   C2B20828  33.682  39.806   8.250
 4728POPC   C3B20829  33.711  39.787   7.950
 4728POPC   C4B20830  33.695  39.740   7.650
 4729POPC   NC320831  34.591  22.968   9.450
 4729POPC   PO420832  34.617  22.966   9.150
 4729POPC   GL120833  34.607  22.986   8.850
 4729POPC   GL220834  34.535  22.786   8.850
 4729POPC   C1A20835  34.611  22.910   8.550
 4729POPC   D2A20836  34.530  22.913   8.250
 4729POPC   C3A20837  34.595  22.893   7.950
 4729POPC   C4A20838  34.579  22.951   7.650
 4729POPC   C1B20839  34.518  22.750   8.550
 4729POPC   C2B20840  34.475  22.676   8.250
 4729POPC   C3B20841  34.519  22.683   7.950
 4729POPC   C4B20842  34.520  22.739   7.650
 4730POPC   NC320843  42.297  40.818   9.450
 4730POPC   PO420844  42.371  40.733   9.150
 4730POPC   GL120845  42.358  40.738   8.850
 4730POPC   GL220846  42.322  40.857   8.850
 4730POPC   C1A20847  42.320  40.831   8.550
 4730POPC   D2A20848  42.347  40.814   8.250
 4730POPC   C3A20849  42.332  40.737   7.950
 4730POPC   C4A20850  42.333  40.768   7.650
 4730POPC   C1B20851  42.346  41.051   8.550
 4730POPC   C2B20852  42.401  40.984   8.250
 4730POPC   C3B20853  42.421  40.980   7.950
 4730POPC   C4B20854  42.389  41.015   7.650
 4731POPC   NC320855  12.877  43.892   9.450
 4731POPC   PO420856  12.871  43.931   9.150
 4731POPC   GL120857  12.872  43.859   8.850
 4731POPC   GL220858  12.912  43.785   8.850
 4731POPC   C1A20859  12.863  43.925   8.550
 4731POPC   D2A20860  12.804  43.902   8.250
 4731POPC   C3A20861  12.848  43.861   7.950
 4731POPC   C4A20862  12.869  43.839   7.650
 4731POPC   C1B20863  12.890  43.652   8.550
 4731POPC   C2B20864  12.874  43.624   8.250
 4731POPC   C3B20865  12.854  43.680   7.950
 4731POPC   C4B20866  12.880  43.676   7.650
 4732POPC   NC320867  19.017  26.080   9.450
 4732POPC   PO420868  19.063  25.992   9.150
 4732POPC   GL120869  19.024  26.032   8.850
 4732POPC   GL220870  18.926  25.950   8.850
 4732POPC   C1A20871  19.040  26.053   8.550
 4732POPC   D2A20872  19.041  26.009   8.250
 4732POPC   C3A20873  19.022  26.071   7.950
 4732POPC   C4A20874  19.042  26.062   7.650
 4732POPC   C1B20875  18.877  25.864   8.550
 4732POPC   C2B20876  18.838  25.857   8.250
 4732POPC   C3B20877  18.890  25.891   7.950
 4732POPC   C4B20878  18.879  25.883   7.650
 4733POPC   NC320879  22.897  25.271   9.450
 4733POPC   PO420880  22.970  25.232   9.150
 4733POPC   GL120881  22.953  25.222   8.850
 4733POPC   GL220882  22.985  25.347   8.850
 4733POPC   C1A20883  22.988  25.229   8.550
 4733POPC   D2A20884  22.982  25.247   8.250
 4733POPC   C3A20885  22.929  25.232   7.950
 4733POPC   C4A20886  22.919  25.276   7.650
 4733POPC   C1B20887  22.923  25.496   8.550
 4733POPC   C2B20888  22.986  25.519   8.250
 4733POPC   C3B20889  22.914  25.497   7.950
 4733POPC   C4B20890  22.952  25.491   7.650
 4734POPC   NC320891  32.255   2.732   9.450
 4734POPC   PO420892  32.253   2.798   9.150
 4734POPC   GL120893  32.277   2.793   8.850
 4734POPC   GL220894  32.254   2.884   8.850
 4734POPC   C1A20895  32.294   2.765   8.550
 4734POPC   D2A20896  32.204   2.729   8.250
 4734POPC   C3A20897  32.223   2.725   7.950
 4734POPC   C4A20898  32.265   2.737   7.650
 4734POPC   C1B20899  32.307   3.050   8.550
 4734POPC   C2B20900  32.303   3.039   8.250
 4734POPC   C3B20901  32.294   2.968   7.950
 4734POPC   C4B20902  32.317   2.962   7.650
 4735POPC   NC320903  20.645   6.652   9.450
 4735POPC   PO420904  20.564   6.613   9.150
 4735POPC   GL120905  20.582   6.596   8.850
 4735POPC   GL220906  20.555   6.692   8.850
 4735POPC   C1A20907  20.596   6.685   8.550
 4735POPC   D2A20908  20.620   6.626   8.250
 4735POPC   C3A20909  20.638   6.634   7.950
 4735POPC   C4A20910  20.567   6.680   7.650
 4735POPC   C1B20911  20.433   6.778   8.550
 4735POPC   C2B20912  20.378   6.853   8.250
 4735POPC   C3B20913  20.458   6.816   7.950
 4735POPC   C4B20914  20.424   6.825   7.650
 4736POPC   NC320915   2.020  16.003   9.450
 4736POPC   PO420916   2.021  15.906   9.150
 4736POPC   GL120917   2.007  15.986   8.850
 4736POPC   GL220918   1.850  16.017   8.850
 4736POPC   C1A20919   1.951  15.913   8.550
 4736POPC   D2A20920   2.014  15.949   8.250
 4736POPC   C3A20921   2.009  15.906   7.950
 4736POPC   C4A20922   2.020  15.956   7.650
 4736POPC   C1B20923   1.759  16.043   8.550
 4736POPC   C2B20924   1.748  16.053   8.250
 4736POPC   C3B20925   1.788  16.031   7.950
 4736POPC   C4B20926   1.753  16.053   7.650
 4737POPC   NC320927   1.242  30.656   9.450
 4737POPC   PO420928   1.178  30.670   9.150
 4737POPC   GL120929   1.164  30.713   8.850
 4737POPC   GL220930   1.302  30.614   8.850
 4737POPC   C1A20931   1.259  30.659   8.550
 4737POPC   D2A20932   1.169  30.727   8.250
 4737POPC   C3A20933   1.193  30.649   7.950
 4737POPC   C4A20934   1.188  30.739   7.650
 4737POPC   C1B20935   1.454  30.554   8.550
 4737POPC   C2B20936   1.445  30.494   8.250
 4737POPC   C3B20937   1.407  30.548   7.950
 4737POPC   C4B20938   1.415  30.500   7.650
 4738POPC   NC320939  25.224   9.756   9.450
 4738POPC   PO420940  25.298   9.788   9.150
 4738POPC   GL120941  25.278   9.701   8.850
 4738POPC   GL220942  25.184   9.832   8.850
 4738POPC   C1A20943  25.300   9.712   8.550
 4738POPC   D2A20944  25.260   9.742   8.250
 4738POPC   C3A20945  25.301   9.782   7.950
 4738POPC   C4A20946  25.218   9.728   7.650
 4738POPC   C1B20947  25.041   9.824   8.550
 4738POPC   C2B20948  25.038   9.862   8.250
 4738POPC   C3B20949  24.976   9.853   7.950
 4738POPC   C4B20950  25.011   9.849   7.650
 4739POPC   NC320951  39.962   5.052   9.450
 4739POPC   PO420952  40.019   5.050   9.150
 4739POPC   GL120953  40.026   5.092   8.850
 4739POPC   GL220954  40.101   5.061   8.850
 4739POPC   C1A20955  40.013   5.139   8.550
 4739POPC   D2A20956  40.022   5.132   8.250
 4739POPC   C3A20957  39.980   5.098   7.950
 4739POPC   C4A20958  39.992   5.088   7.650
 4739POPC   C1B20959  40.224   5.066   8.550
 4739POPC   C2B20960  40.300   5.153   8.250
 4739POPC   C3B20961  40.257   5.162   7.950
 4739POPC   C4B20962  40.290   5.156   7.650
 4740POPC   NC320963  22.133  19.077   9.450
 4740POPC   PO420964  22.148  19.036   9.150
 4740POPC   GL120965  22.142  19.102   8.850
 4740POPC   GL220966  22.159  18.983   8.850
 4740POPC   C1A20967  22.151  19.059   8.550
 4740POPC   D2A20968  22.153  19.091   8.250
 4740POPC   C3A20969  22.186  19.082   7.950
 4740POPC   C4A20970  22.180  19.029   7.650
 4740POPC   C1B20971  22.060  18.850   8.550
 4740POPC   C2B20972  22.103  18.787   8.250
 4740POPC   C3B20973  22.062  18.810   7.950
 4740POPC   C4B20974  22.113  18.808   7.650
 4741POPC   NC320975   8.163   7.402   9.450
 4741POPC   PO420976   8.238   7.464   9.150
 4741POPC   GL120977   8.209   7.409   8.850
 4741POPC   GL220978   8.094   7.379   8.850
 4741POPC   C1A20979   8.171   7.417   8.550
 4741POPC   D2A20980   8.237   7.389   8.250
 4741POPC   C3A20981   8.165   7.470   7.950
 4741POPC   C4A20982   8.194   7.412   7.650
 4741POPC   C1B20983   7.928   7.398   8.550
 4741POPC   C2B20984   7.924   7.333   8.250
 4741POPC   C3B20985   7.927   7.376   7.950
 4741POPC   C4B20986   7.946   7.397   7.650
 4742POPC   NC320987  39.989  18.330   9.450
 4742POPC   PO420988  40.006  18.243   9.150
 4742POPC   GL120989  39.981  18.287   8.850
 4742POPC   GL220990  39.870  18.239   8.850
 4742POPC   C1A20991  40.032  18.311   8.550
 4742POPC   D2A20992  40.018  18.307   8.250
 4742POPC   C3A20993  39.979  18.245   7.950
 4742POPC   C4A20994  40.004  18.315   7.650
 4742POPC   C1B20995  39.710  18.234   8.550
 4742POPC   C2B20996  39.733  18.253   8.250
 4742POPC   C3B20997  39.808  18.296   7.950
 4742POPC   C4B20998  39.764  18.251   7.650
 4743POPC   NC320999  16.774   0.450   9.450
 4743POPC   PO421000  16.719   0.448   9.150
 4743POPC   GL121001  16.731   0.456   8.850
 4743POPC   GL221002  16.622   0.480   8.850
 4743POPC   C1A21003  16.750   0.475   8.550
 4743POPC   D2A21004  16.774   0.463   8.250
 4743POPC   C3A21005  16.763   0.397   7.950
 4743POPC   C4A21006  16.777   0.409   7.650
 4743POPC   C1B21007  16.492   0.555   8.550
 4743POPC   C2B21008  16.545   0.497   8.250
 4743POPC   C3B21009  16.491   0.515   7.950
 4743POPC   C4B21010  16.458   0.523   7.650
 4744POPC   NC321011  33.822  34.615   9.450
 4744POPC   PO421012  33.782  34.614   9.150
 4744POPC   GL121013  33.781  34.609   8.850
 4744POPC   GL221014  33.925  34.652   8.850
 4744POPC   C1A21015  33.786  34.598   8.550
 4744POPC   D2A21016  33.807  34.549   8.250
 4744POPC   C3A21017  33.800  34.624   7.950
 4744POPC   C4A21018  33.763  34.599   7.650
 4744POPC   C1B21019  34.045  34.668   8.550
 4744POPC   C2B21020  34.030  34.620   8.250
 4744POPC   C3B21021  34.069  34.674   7.950
 4744POPC   C4B21022  34.007  34.613   7.650
 4745POPC   NC321023  25.263  34.581   9.450
 4745POPC   PO421024  25.288  34.529   9.150
 4745POPC   GL121025  25.278  34.551   8.850
 4745POPC   GL221026  25.100  34.576   8.850
 4745POPC   C1A21027  25.268  34.565   8.550
 4745POPC   D2A21028  25.261  34.577   8.250
 4745POPC   C3A21029  25.290  34.563   7.950
 4745POPC   C4A21030  25.293  34.533   7.650
 4745POPC   C1B21031  25.033  34.562   8.550
 4745POPC   C2B21032  24.991  34.606   8.250
 4745POPC   C3B21033  25.063  34.547   7.950
 4745POPC   C4B21034  25.009  34.592   7.650
 4746POPC   NC321035  12.849  32.238   9.450
 4746POPC   PO421036  12.894  32.263   9.150
 4746POPC   GL121037  12.889  32.199   8.850
 4746POPC   GL221038  12.932  32.242   8.850
 4746POPC   C1A21039  12.886  32.264   8.550
 4746POPC   D2A21040  12.834  32.247   8.250
 4746POPC   C3A21041  12.844  32.207   7.950
 4746POPC   C4A21042  12.829  32.292   7.650
 4746POPC   C1B21043  13.074  32.184   8.550
 4746POPC   C2B21044  13.059  32.218   8.250
 4746POPC   C3B21045  13.090  32.173   7.950
 4746POPC   C4B21046  13.102  32.231   7.650
 4747POPC   NC321047  37.663  21.392   9.450
 4747POPC   PO421048  37.710  21.394   9.150
 4747POPC   GL121049  37.648  21.376   8.850
 4747POPC   GL221050  37.721  21.280   8.850
 4747POPC   C1A21051  37.659  21.375   8.550
 4747POPC   D2A21052  37.631  21.385   8.250
 4747POPC   C3A21053  37.679  21.395   7.950
 4747POPC   C4A21054  37.647  21.409   7.650
 4747POPC   C1B21055  37.736  21.137   8.550
 4747POPC   C2B21056  37.804  21.130   8.250
 4747POPC   C3B21057  37.748  21.131   7.950
 4747POPC   C4B21058  37.772  21.157   7.650
 4748POPC   NC321059   4.304  29.954   9.450
 4748POPC   PO421060   4.289  29.937   9.150
 4748POPC   GL121061   4.300  29.937   8.850
 4748POPC   GL221062   4.391  29.810   8.850
 4748POPC   C1A21063   4.323  29.894   8.550
 4748POPC   D2A21064   4.361  29.875   8.250
 4748POPC   C3A21065   4.314  29.871   7.950
 4748POPC   C4A21066   4.277  29.951   7.650
 4748POPC   C1B21067   4.395  29.699   8.550
 4748POPC   C2B21068   4.442  29.715   8.250
 4748POPC   C3B21069   4.473  29.666   7.950
 4748POPC   C4B21070   4.407  29.731   7.650
 4749POPC   NC321071  20.619  19.083   9.450
 4749POPC   PO421072  20.625  19.013   9.150
 4749POPC   GL121073  20.642  19.072   8.850
 4749POPC   GL221074  20.648  18.903   8.850
 4749POPC   C1A21075  20.651  19.096   8.550
 4749POPC   D2A21076  20.633  19.066   8.250
 4749POPC   C3A21077  20.604  19.069   7.950
 4749POPC   C4A21078  20.576  19.056   7.650
 4749POPC   C1B21079  20.709  18.877   8.550
 4749POPC   C2B21080  20.689  18.823   8.250
 4749POPC   C3B21081  20.775  18.791   7.950
 4749POPC   C4B21082  20.713  18.832   7.650
 4750POPC   NC321083  20.586  38.478   9.450
 4750POPC   PO421084  20.647  38.475   9.150
 4750POPC   GL121085  20.579  38.445   8.850
 4750POPC   GL221086  20.536  38.521   8.850
 4750POPC   C1A21087  20.618  38.488   8.550
 4750POPC   D2A21088  20.605  38.469   8.250
 4750POPC   C3A21089  20.606  38.480   7.950
 4750POPC   C4A21090  20.592  38.414   7.650
 4750POPC   C1B21091  20.381  38.609   8.550
 4750POPC   C2B21092  20.409  38.613   8.250
 4750POPC   C3B21093  20.342  38.574   7.950
 4750POPC   C4B21094  20.438  38.554   7.650
 4751POPC   NC321095  15.936   5.138   9.450
 4751POPC   PO421096  15.933   5.126   9.150
 4751POPC   GL121097  15.961   5.141   8.850
 4751POPC   GL221098  15.849   5.094   8.850
 4751POPC   C1A21099  15.910   5.098   8.550
 4751POPC   D2A21100  15.956   5.064   8.250
 4751POPC   C3A21101  15.919   5.070   7.950
 4751POPC   C4A21102  15.947   5.075   7.650
 4751POPC   C1B21103  15.715   5.078   8.550
 4751POPC   C2B21104  15.689   4.988   8.250
 4751POPC   C3B21105  15.757   5.014   7.950
 4751POPC   C4B21106  15.759   5.041   7.650
 4752POPC   NC321107  27.559  23.736   9.450
 4752POPC   PO421108  27.575  23.723   9.150
 4752POPC   GL121109  27.612  23.679   8.850
 4752POPC   GL221110  27.639  23.831   8.850
 4752POPC   C1A21111  27.574  23.707   8.550
 4752POPC   D2A21112  27.600  23.681   8.250
 4752POPC   C3A21113  27.574  23.761   7.950
 4752POPC   C4A21114  27.561  23.717   7.650
 4752POPC   C1B21115  27.689  23.930   8.550
 4752POPC   C2B21116  27.740  23.909   8.250
 4752POPC   C3B21117  27.710  23.929   7.950
 4752POPC   C4B21118  27.786  23.941   7.650
 4753POPC   NC321119  39.195   4.298   9.450
 4753POPC   PO421120  39.218   4.343   9.150
 4753POPC   GL121121  39.224   4.327   8.850
 4753POPC   GL221122  39.132   4.339   8.850
 4753POPC   C1A21123  39.238   4.345   8.550
 4753POPC   D2A21124  39.189   4.362   8.250
 4753POPC   C3A21125  39.268   4.299   7.950
 4753POPC   C4A21126  39.228   4.308   7.650
 4753POPC   C1B21127  38.983   4.483   8.550
 4753POPC   C2B21128  38.990   4.448   8.250
 4753POPC   C3B21129  38.993   4.418   7.950
 4753POPC   C4B21130  39.024   4.457   7.650
 4754POPC   NC321131  22.183   8.227   9.450
 4754POPC   PO421132  22.211   8.150   9.150
 4754POPC   GL121133  22.203   8.221   8.850
 4754POPC   GL221134  22.222   8.299   8.850
 4754POPC   C1A21135  22.120   8.246   8.550
 4754POPC   D2A21136  22.140   8.243   8.250
 4754POPC   C3A21137  22.178   8.225   7.950
 4754POPC   C4A21138  22.187   8.177   7.650
 4754POPC   C1B21139  22.235   8.400   8.550
 4754POPC   C2B21140  22.267   8.484   8.250
 4754POPC   C3B21141  22.236   8.425   7.950
 4754POPC   C4B21142  22.197   8.406   7.650
 4755POPC   NC321143  41.562  15.923   9.450
 4755POPC   PO421144  41.598  15.910   9.150
 4755POPC   GL121145  41.532  15.925   8.850
 4755POPC   GL221146  41.488  16.027   8.850
 4755POPC   C1A21147  41.554  15.931   8.550
 4755POPC   D2A21148  41.570  15.988   8.250
 4755POPC   C3A21149  41.558  15.915   7.950
 4755POPC   C4A21150  41.571  15.980   7.650
 4755POPC   C1B21151  41.316  16.092   8.550
 4755POPC   C2B21152  41.333  16.087   8.250
 4755POPC   C3B21153  41.353  16.050   7.950
 4755POPC   C4B21154  41.314  16.033   7.650
 4756POPC   NC321155  22.933  14.439   9.450
 4756POPC   PO421156  22.944  14.421   9.150
 4756POPC   GL121157  22.925  14.422   8.850
 4756POPC   GL221158  23.053  14.403   8.850
 4756POPC   C1A21159  22.972  14.369   8.550
 4756POPC   D2A21160  22.901  14.405   8.250
 4756POPC   C3A21161  22.922  14.373   7.950
 4756POPC   C4A21162  22.890  14.396   7.650
 4756POPC   C1B21163  23.183  14.395   8.550
 4756POPC   C2B21164  23.166  14.357   8.250
 4756POPC   C3B21165  23.147  14.371   7.950
 4756POPC   C4B21166  23.228  14.333   7.650
 4757POPC   NC321167  26.867  26.775   9.450
 4757POPC   PO421168  26.837  26.847   9.150
 4757POPC   GL121169  26.771  26.854   8.850
 4757POPC   GL221170  26.919  26.764   8.850
 4757POPC   C1A21171  26.855  26.822   8.550
 4757POPC   D2A21172  26.832  26.847   8.250
 4757POPC   C3A21173  26.807  26.849   7.950
 4757POPC   C4A21174  26.807  26.849   7.650
 4757POPC   C1B21175  26.988  26.604   8.550
 4757POPC   C2B21176  26.966  26.664   8.250
 4757POPC   C3B21177  27.040  26.651   7.950
 4757POPC   C4B21178  27.040  26.685   7.650
 4758POPC   NC321179  27.643   6.632   9.450
 4758POPC   PO421180  27.557   6.685   9.150
 4758POPC   GL121181  27.574   6.664   8.850
 4758POPC   GL221182  27.524   6.761   8.850
 4758POPC   C1A21183  27.622   6.680   8.550
 4758POPC   D2A21184  27.637   6.652   8.250
 4758POPC   C3A21185  27.626   6.676   7.950
 4758POPC   C4A21186  27.612   6.605   7.650
 4758POPC   C1B21187  27.469   6.822   8.550
 4758POPC   C2B21188  27.471   6.914   8.250
 4758POPC   C3B21189  27.455   6.906   7.950
 4758POPC   C4B21190  27.435   6.905   7.650
 4759POPC   NC321191  35.347  40.810   9.450
 4759POPC   PO421192  35.313  40.831   9.150
 4759POPC   GL121193  35.376  40.780   8.850
 4759POPC   GL221194  35.438  40.638   8.850
 4759POPC   C1A21195  35.311  40.795   8.550
 4759POPC   D2A21196  35.341  40.745   8.250
 4759POPC   C3A21197  35.323  40.816   7.950
 4759POPC   C4A21198  35.398  40.740   7.650
 4759POPC   C1B21199  35.437  40.601   8.550
 4759POPC   C2B21200  35.511  40.599   8.250
 4759POPC   C3B21201  35.501  40.605   7.950
 4759POPC   C4B21202  35.444  40.599   7.650
 4760POPC   NC321203   5.096   6.694   9.450
 4760POPC   PO421204   5.117   6.647   9.150
 4760POPC   GL121205   5.063   6.651   8.850
 4760POPC   GL221206   5.103   6.808   8.850
 4760POPC   C1A21207   5.051   6.684   8.550
 4760POPC   D2A21208   5.072   6.684   8.250
 4760POPC   C3A21209   5.114   6.694   7.950
 4760POPC   C4A21210   5.127   6.649   7.650
 4760POPC   C1B21211   5.075   6.883   8.550
 4760POPC   C2B21212   5.073   6.887   8.250
 4760POPC   C3B21213   5.013   6.857   7.950
 4760POPC   C4B21214   5.090   6.907   7.650
 4761POPC   NC321215  39.264  36.139   9.450
 4761POPC   PO421216  39.233  36.141   9.150
 4761POPC   GL121217  39.262  36.078   8.850
 4761POPC   GL221218  39.318  36.008   8.850
 4761POPC   C1A21219  39.260  36.107   8.550
 4761POPC   D2A21220  39.209  36.096   8.250
 4761POPC   C3A21221  39.271  36.177   7.950
 4761POPC   C4A21222  39.273  36.139   7.650
 4761POPC   C1B21223  39.322  35.918   8.550
 4761POPC   C2B21224  39.349  35.957   8.250
 4761POPC   C3B21225  39.358  35.926   7.950
 4761POPC   C4B21226  39.338  35.895   7.650
 4762POPC   NC321227  22.144  26.003   9.450
 4762POPC   PO421228  22.118  26.000   9.150
 4762POPC   GL121229  22.193  26.065   8.850
 4762POPC   GL221230  22.070  26.039   8.850
 4762POPC   C1A21231  22.182  26.015   8.550
 4762POPC   D2A21232  22.152  26.068   8.250
 4762POPC   C3A21233  22.166  26.058   7.950
 4762POPC   C4A21234  22.145  26.051   7.650
 4762POPC   C1B21235  21.925  26.081   8.550
 4762POPC   C2B21236  21.958  26.033   8.250
 4762POPC   C3B21237  21.917  26.127   7.950
 4762POPC   C4B21238  21.922  26.090   7.650
 4763POPC   NC321239   2.038  40.005   9.450
 4763POPC   PO421240   1.996  40.055   9.150
 4763POPC   GL121241   2.004  40.012   8.850
 4763POPC   GL221242   1.979  40.121   8.850
 4763POPC   C1A21243   2.001  40.039   8.550
 4763POPC   D2A21244   1.964  40.007   8.250
 4763POPC   C3A21245   2.004  39.961   7.950
 4763POPC   C4A21246   1.943  40.012   7.650
 4763POPC   C1B21247   1.951  40.252   8.550
 4763POPC   C2B21248   2.027  40.246   8.250
 4763POPC   C3B21249   1.972  40.253   7.950
 4763POPC   C4B21250   2.002  40.238   7.650
 4764POPC   NC321251  41.522   7.419   9.450
 4764POPC   PO421252  41.607   7.382   9.150
 4764POPC   GL121253  41.592   7.412   8.850
 4764POPC   GL221254  41.690   7.504   8.850
 4764POPC   C1A21255  41.584   7.425   8.550
 4764POPC   D2A21256  41.516   7.412   8.250
 4764POPC   C3A21257  41.536   7.464   7.950
 4764POPC   C4A21258  41.525   7.421   7.650
 4764POPC   C1B21259  41.734   7.507   8.550
 4764POPC   C2B21260  41.757   7.532   8.250
 4764POPC   C3B21261  41.771   7.588   7.950
 4764POPC   C4B21262  41.789   7.600   7.650
 4765POPC   NC321263  26.079  28.392   9.450
 4765POPC   PO421264  26.001  28.365   9.150
 4765POPC   GL121265  26.058  28.333   8.850
 4765POPC   GL221266  26.108  28.458   8.850
 4765POPC   C1A21267  26.000  28.376   8.550
 4765POPC   D2A21268  26.017  28.345   8.250
 4765POPC   C3A21269  26.062  28.371   7.950
 4765POPC   C4A21270  26.070  28.321   7.650
 4765POPC   C1B21271  26.221  28.550   8.550
 4765POPC   C2B21272  26.187  28.550   8.250
 4765POPC   C3B21273  26.174  28.570   7.950
 4765POPC   C4B21274  26.205  28.590   7.650
 4766POPC   NC321275   0.483   1.212   9.450
 4766POPC   PO421276   0.476   1.164   9.150
 4766POPC   GL121277   0.452   1.208   8.850
 4766POPC   GL221278   0.431   1.315   8.850
 4766POPC   C1A21279   0.435   1.224   8.550
 4766POPC   D2A21280   0.447   1.168   8.250
 4766POPC   C3A21281   0.487   1.247   7.950
 4766POPC   C4A21282   0.416   1.216   7.650
 4766POPC   C1B21283   0.476   1.426   8.550
 4766POPC   C2B21284   0.450   1.497   8.250
 4766POPC   C3B21285   0.503   1.452   7.950
 4766POPC   C4B21286   0.530   1.461   7.650
 4767POPC   NC321287  21.360  26.804   9.450
 4767POPC   PO421288  21.347  26.810   9.150
 4767POPC   GL121289  21.410  26.772   8.850
 4767POPC   GL221290  21.330  26.757   8.850
 4767POPC   C1A21291  21.435  26.772   8.550
 4767POPC   D2A21292  21.411  26.776   8.250
 4767POPC   C3A21293  21.349  26.808   7.950
 4767POPC   C4A21294  21.339  26.853   7.650
 4767POPC   C1B21295  21.207  26.659   8.550
 4767POPC   C2B21296  21.249  26.663   8.250
 4767POPC   C3B21297  21.241  26.603   7.950
 4767POPC   C4B21298  21.215  26.615   7.650
 4768POPC   NC321299  44.660  34.595   9.450
 4768POPC   PO421300  44.643  34.598   9.150
 4768POPC   GL121301  44.658  34.605   8.850
 4768POPC   GL221302  44.736  34.710   8.850
 4768POPC   C1A21303  44.645  34.605   8.550
 4768POPC   D2A21304  44.661  34.621   8.250
 4768POPC   C3A21305  44.685  34.540   7.950
 4768POPC   C4A21306  44.641  34.570   7.650
 4768POPC   C1B21307  44.730  34.865   8.550
 4768POPC   C2B21308  44.707  34.834   8.250
 4768POPC   C3B21309  44.705  34.803   7.950
 4768POPC   C4B21310  44.751  34.797   7.650
 4769POPC   NC321311  40.740  31.441   9.450
 4769POPC   PO421312  40.790  31.451   9.150
 4769POPC   GL121313  40.775  31.458   8.850
 4769POPC   GL221314  40.685  31.419   8.850
 4769POPC   C1A21315  40.736  31.424   8.550
 4769POPC   D2A21316  40.758  31.489   8.250
 4769POPC   C3A21317  40.825  31.454   7.950
 4769POPC   C4A21318  40.822  31.442   7.650
 4769POPC   C1B21319  40.587  31.391   8.550
 4769POPC   C2B21320  40.543  31.376   8.250
 4769POPC   C3B21321  40.520  31.325   7.950
 4769POPC   C4B21322  40.550  31.344   7.650
 4770POPC   NC321323  38.434  25.255   9.450
 4770POPC   PO421324  38.465  25.258   9.150
 4770POPC   GL121325  38.458  25.271   8.850
 4770POPC   GL221326  38.530  25.133   8.850
 4770POPC   C1A21327  38.455  25.216   8.550
 4770POPC   D2A21328  38.490  25.286   8.250
 4770POPC   C3A21329  38.485  25.290   7.950
 4770POPC   C4A21330  38.452  25.270   7.650
 4770POPC   C1B21331  38.563  25.085   8.550
 4770POPC   C2B21332  38.549  25.077   8.250
 4770POPC   C3B21333  38.638  25.037   7.950
 4770POPC   C4B21334  38.590  25.086   7.650
 4771POPC   NC321335  39.998  14.424   9.450
 4771POPC   PO421336  40.051  14.377   9.150
 4771POPC   GL121337  40.000  14.363   8.850
 4771POPC   GL221338  39.942  14.298   8.850
 4771POPC   C1A21339  39.983  14.414   8.550
 4771POPC   D2A21340  40.048  14.407   8.250
 4771POPC   C3A21341  39.988  14.356   7.950
 4771POPC   C4A21342  40.040  14.381   7.650
 4771POPC   C1B21343  39.810  14.293   8.550
 4771POPC   C2B21344  39.842  14.220   8.250
 4771POPC   C3B21345  39.809  14.252   7.950
 4771POPC   C4B21346  39.840  14.278   7.650
 4772POPC   NC321347  40.019  19.011   9.450
 4772POPC   PO421348  40.011  19.074   9.150
 4772POPC   GL121349  40.042  19.094   8.850
 4772POPC   GL221350  40.141  19.178   8.850
 4772POPC   C1A21351  40.054  19.059   8.550
 4772POPC   D2A21352  40.057  19.069   8.250
 4772POPC   C3A21353  40.017  19.075   7.950
 4772POPC   C4A21354  40.057  19.040   7.650
 4772POPC   C1B21355  40.221  19.236   8.550
 4772POPC   C2B21356  40.239  19.230   8.250
 4772POPC   C3B21357  40.147  19.207   7.950
 4772POPC   C4B21358  40.158  19.267   7.650
 4773POPC   NC321359   1.197   2.744   9.450
 4773POPC   PO421360   1.191   2.762   9.150
 4773POPC   GL121361   1.225   2.805   8.850
 4773POPC   GL221362   1.246   2.608   8.850
 4773POPC   C1A21363   1.165   2.798   8.550
 4773POPC   D2A21364   1.185   2.770   8.250
 4773POPC   C3A21365   1.236   2.744   7.950
 4773POPC   C4A21366   1.260   2.753   7.650
 4773POPC   C1B21367   1.258   2.537   8.550
 4773POPC   C2B21368   1.297   2.504   8.250
 4773POPC   C3B21369   1.297   2.544   7.950
 4773POPC   C4B21370   1.295   2.512   7.650
 4774POPC   NC321371  20.617  29.961   9.450
 4774POPC   PO421372  20.580  29.875   9.150
 4774POPC   GL121373  20.605  29.920   8.850
 4774POPC   GL221374  20.492  30.023   8.850
 4774POPC   C1A21375  20.569  29.883   8.550
 4774POPC   D2A21376  20.602  29.896   8.250
 4774POPC   C3A21377  20.623  29.903   7.950
 4774POPC   C4A21378  20.616  29.900   7.650
 4774POPC   C1B21379  20.345  30.003   8.550
 4774POPC   C2B21380  20.377  29.994   8.250
 4774POPC   C3B21381  20.339  30.039   7.950
 4774POPC   C4B21382  20.404  30.015   7.650
 4775POPC   NC321383  43.868  43.912   9.450
 4775POPC   PO421384  43.927  43.907   9.150
 4775POPC   GL121385  43.893  43.857   8.850
 4775POPC   GL221386  43.774  43.864   8.850
 4775POPC   C1A21387  43.896  43.848   8.550
 4775POPC   D2A21388  43.893  43.859   8.250
 4775POPC   C3A21389  43.852  43.867   7.950
 4775POPC   C4A21390  43.894  43.908   7.650
 4775POPC   C1B21391  43.669  43.871   8.550
 4775POPC   C2B21392  43.637  43.895   8.250
 4775POPC   C3B21393  43.661  43.844   7.950
 4775POPC   C4B21394  43.670  43.847   7.650
 4776POPC   NC321395  15.986  21.413   9.450
 4776POPC   PO421396  15.936  21.347   9.150
 4776POPC   GL121397  15.936  21.346   8.850
 4776POPC   GL221398  16.002  21.545   8.850
 4776POPC   C1A21399  15.964  21.387   8.550
 4776POPC   D2A21400  15.916  21.357   8.250
 4776POPC   C3A21401  15.984  21.411   7.950
 4776POPC   C4A21402  15.985  21.385   7.650
 4776POPC   C1B21403  15.981  21.610   8.550
 4776POPC   C2B21404  16.031  21.666   8.250
 4776POPC   C3B21405  16.009  21.669   7.950
 4776POPC   C4B21406  15.980  21.607   7.650
 4777POPC   NC321407  10.516  35.359   9.450
 4777POPC   PO421408  10.497  35.375   9.150
 4777POPC   GL121409  10.493  35.336   8.850
 4777POPC   GL221410  10.374  35.354   8.850
 4777POPC   C1A21411  10.570  35.394   8.550
 4777POPC   D2A21412  10.562  35.380   8.250
 4777POPC   C3A21413  10.565  35.383   7.950
 4777POPC   C4A21414  10.497  35.335   7.650
 4777POPC   C1B21415  10.326  35.302   8.550
 4777POPC   C2B21416  10.230  35.335   8.250
 4777POPC   C3B21417  10.297  35.336   7.950
 4777POPC   C4B21418  10.321  35.322   7.650
 4778POPC   NC321419  16.757  19.824   9.450
 4778POPC   PO421420  16.740  19.874   9.150
 4778POPC   GL121421  16.763  19.790   8.850
 4778POPC   GL221422  16.717  19.667   8.850
 4778POPC   C1A21423  16.730  19.808   8.550
 4778POPC   D2A21424  16.693  19.787   8.250
 4778POPC   C3A21425  16.694  19.843   7.950
 4778POPC   C4A21426  16.749  19.804   7.650
 4778POPC   C1B21427  16.746  19.589   8.550
 4778POPC   C2B21428  16.721  19.547   8.250
 4778POPC   C3B21429  16.721  19.616   7.950
 4778POPC   C4B21430  16.757  19.627   7.650
 4779POPC   NC321431  14.408  22.122   9.450
 4779POPC   PO421432  14.369  22.211   9.150
 4779POPC   GL121433  14.379  22.171   8.850
 4779POPC   GL221434  14.264  22.110   8.850
 4779POPC   C1A21435  14.395  22.175   8.550
 4779POPC   D2A21436  14.369  22.184   8.250
 4779POPC   C3A21437  14.439  22.134   7.950
 4779POPC   C4A21438  14.414  22.138   7.650
 4779POPC   C1B21439  14.169  22.116   8.550
 4779POPC   C2B21440  14.163  22.079   8.250
 4779POPC   C3B21441  14.193  22.025   7.950
 4779POPC   C4B21442  14.146  22.033   7.650
 4780POPC   NC321443  26.849  41.512   9.450
 4780POPC   PO421444  26.794  41.592   9.150
 4780POPC   GL121445  26.834  41.515   8.850
 4780POPC   GL221446  26.872  41.719   8.850
 4780POPC   C1A21447  26.854  41.525   8.550
 4780POPC   D2A21448  26.817  41.519   8.250
 4780POPC   C3A21449  26.854  41.562   7.950
 4780POPC   C4A21450  26.829  41.511   7.650
 4780POPC   C1B21451  26.949  41.769   8.550
 4780POPC   C2B21452  26.892  41.792   8.250
 4780POPC   C3B21453  26.866  41.840   7.950
 4780POPC   C4B21454  26.937  41.805   7.650
 4781POPC   NC321455  40.831  12.074   9.450
 4781POPC   PO421456  40.782  12.049   9.150
 4781POPC   GL121457  40.743  12.116   8.850
 4781POPC   GL221458  40.703  12.063   8.850
 4781POPC   C1A21459  40.817  12.028   8.550
 4781POPC   D2A21460  40.792  12.031   8.250
 4781POPC   C3A21461  40.757  12.055   7.950
 4781POPC   C4A21462  40.802  12.101   7.650
 4781POPC   C1B21463  40.576  12.171   8.550
 4781POPC   C2B21464  40.524  12.140   8.250
 4781POPC   C3B21465  40.521  12.091   7.950
 4781POPC   C4B21466  40.499  12.177   7.650
 4782POPC   NC321467  32.288  19.019   9.450
 4782POPC   PO421468  32.286  19.009   9.150
 4782POPC   GL121469  32.220  19.012   8.850
 4782POPC   GL221470  32.365  18.984   8.850
 4782POPC   C1A21471  32.199  19.079   8.550
 4782POPC   D2A21472  32.271  19.049   8.250
 4782POPC   C3A21473  32.227  19.011   7.950
 4782POPC   C4A21474  32.275  19.023   7.650
 4782POPC   C1B21475  32.441  18.980   8.550
 4782POPC   C2B21476  32.489  18.971   8.250
 4782POPC   C3B21477  32.526  18.972   7.950
 4782POPC   C4B21478  32.450  19.009   7.650
 4783POPC   NC321479   5.142   1.218   9.450
 4783POPC   PO421480   5.122   1.217   9.150
 4783POPC   GL121481   5.080   1.256   8.850
 4783POPC   GL221482   4.981   1.158   8.850
 4783POPC   C1A21483   5.069   1.195   8.550
 4783POPC   D2A21484   5.101   1.193   8.250
 4783POPC   C3A21485   5.074   1.236   7.950
 4783POPC   C4A21486   5.069   1.221   7.650
 4783POPC   C1B21487   4.899   1.031   8.550
 4783POPC   C2B21488   4.898   1.084   8.250
 4783POPC   C3B21489   4.867   1.026   7.950
 4783POPC   C4B21490   4.931   1.048   7.650
 4784POPC   NC321491   9.781  25.223   9.450
 4784POPC   PO421492   9.700  25.273   9.150
 4784POPC   GL121493   9.723  25.303   8.850
 4784POPC   GL221494   9.716  25.146   8.850
 4784POPC   C1A21495   9.718  25.255   8.550
 4784POPC   D2A21496   9.782  25.310   8.250
 4784POPC   C3A21497   9.784  25.294   7.950
 4784POPC   C4A21498   9.783  25.266   7.650
 4784POPC   C1B21499   9.626  25.033   8.550
 4784POPC   C2B21500   9.692  25.082   8.250
 4784POPC   C3B21501   9.677  25.010   7.950
 4784POPC   C4B21502   9.648  25.027   7.650
 4785POPC   NC321503  23.700   1.999   9.450
 4785POPC   PO421504  23.748   1.957   9.150
 4785POPC   GL121505  23.680   2.007   8.850
 4785POPC   GL221506  23.822   1.949   8.850
 4785POPC   C1A21507  23.713   1.997   8.550
 4785POPC   D2A21508  23.726   1.978   8.250
 4785POPC   C3A21509  23.727   2.017   7.950
 4785POPC   C4A21510  23.699   1.955   7.650
 4785POPC   C1B21511  23.966   1.862   8.550
 4785POPC   C2B21512  23.918   1.859   8.250
 4785POPC   C3B21513  23.908   1.904   7.950
 4785POPC   C4B21514  23.948   1.900   7.650
 4786POPC   NC321515  10.545  32.288   9.450
 4786POPC   PO421516  10.518  32.233   9.150
 4786POPC   GL121517  10.540  32.283   8.850
 4786POPC   GL221518  10.671  32.153   8.850
 4786POPC   C1A21519  10.519  32.209   8.550
 4786POPC   D2A21520  10.499  32.209   8.250
 4786POPC   C3A21521  10.562  32.226   7.950
 4786POPC   C4A21522  10.515  32.208   7.650
 4786POPC   C1B21523  10.736  32.091   8.550
 4786POPC   C2B21524  10.763  32.119   8.250
 4786POPC   C3B21525  10.794  32.155   7.950
 4786POPC   C4B21526  10.706  32.112   7.650
 4787POPC   NC321527  15.184  31.428   9.450
 4787POPC   PO421528  15.136  31.462   9.150
 4787POPC   GL121529  15.135  31.509   8.850
 4787POPC   GL221530  15.062  31.457   8.850
 4787POPC   C1A21531  15.145  31.444   8.550
 4787POPC   D2A21532  15.188  31.490   8.250
 4787POPC   C3A21533  15.162  31.509   7.950
 4787POPC   C4A21534  15.219  31.496   7.650
 4787POPC   C1B21535  14.883  31.447   8.550
 4787POPC   C2B21536  14.894  31.472   8.250
 4787POPC   C3B21537  14.977  31.465   7.950
 4787POPC   C4B21538  14.892  31.396   7.650
 4788POPC   NC321539   8.978   6.625   9.450
 4788POPC   PO421540   8.991   6.656   9.150
 4788POPC   GL121541   8.987   6.598   8.850
 4788POPC   GL221542   8.858   6.720   8.850
 4788POPC   C1A21543   9.000   6.635   8.550
 4788POPC   D2A21544   8.989   6.685   8.250
 4788POPC   C3A21545   8.955   6.692   7.950
 4788POPC   C4A21546   8.957   6.615   7.650
 4788POPC   C1B21547   8.794   6.866   8.550
 4788POPC   C2B21548   8.788   6.770   8.250
 4788POPC   C3B21549   8.760   6.863   7.950
 4788POPC   C4B21550   8.801   6.828   7.650
 4789POPC   NC321551  15.913  12.870   9.450
 4789POPC   PO421552  15.964  12.856   9.150
 4789POPC   GL121553  15.946  12.807   8.850
 4789POPC   GL221554  15.948  12.688   8.850
 4789POPC   C1A21555  15.996  12.898   8.550
 4789POPC   D2A21556  15.939  12.896   8.250
 4789POPC   C3A21557  15.945  12.833   7.950
 4789POPC   C4A21558  15.941  12.890   7.650
 4789POPC   C1B21559  15.890  12.636   8.550
 4789POPC   C2B21560  15.932  12.610   8.250
 4789POPC   C3B21561  15.852  12.607   7.950
 4789POPC   C4B21562  15.948  12.647   7.650
 4790POPC   NC321563  40.813  33.039   9.450
 4790POPC   PO421564  40.820  33.015   9.150
 4790POPC   GL121565  40.805  33.003   8.850
 4790POPC   GL221566  40.857  32.977   8.850
 4790POPC   C1A21567  40.735  33.067   8.550
 4790POPC   D2A21568  40.823  33.070   8.250
 4790POPC   C3A21569  40.735  33.011   7.950
 4790POPC   C4A21570  40.823  33.047   7.650
 4790POPC   C1B21571  40.961  32.873   8.550
 4790POPC   C2B21572  40.946  32.888   8.250
 4790POPC   C3B21573  40.977  32.819   7.950
 4790POPC   C4B21574  40.936  32.830   7.650
 4791POPC   NC321575  30.675  39.959   9.450
 4791POPC   PO421576  30.726  40.056   9.150
 4791POPC   GL121577  30.697  40.029   8.850
 4791POPC   GL221578  30.789  40.087   8.850
 4791POPC   C1A21579  30.668  40.007   8.550
 4791POPC   D2A21580  30.698  39.960   8.250
 4791POPC   C3A21581  30.650  39.976   7.950
 4791POPC   C4A21582  30.660  40.025   7.650
 4791POPC   C1B21583  30.917  40.107   8.550
 4791POPC   C2B21584  30.908  40.142   8.250
 4791POPC   C3B21585  30.931  40.115   7.950
 4791POPC   C4B21586  30.895  40.139   7.650
 4792POPC   NC321587  19.813  36.163   9.450
 4792POPC   PO421588  19.809  36.160   9.150
 4792POPC   GL121589  19.799  36.137   8.850
 4792POPC   GL221590  19.791  35.990   8.850
 4792POPC   C1A21591  19.789  36.104   8.550
 4792POPC   D2A21592  19.840  36.146   8.250
 4792POPC   C3A21593  19.792  36.162   7.950
 4792POPC   C4A21594  19.840  36.162   7.650
 4792POPC   C1B21595  19.761  35.937   8.550
 4792POPC   C2B21596  19.719  35.919   8.250
 4792POPC   C3B21597  19.696  35.854   7.950
 4792POPC   C4B21598  19.787  35.851   7.650
 4793POPC   NC321599   2.030   4.279   9.450
 4793POPC   PO421600   1.943   4.360   9.150
 4793POPC   GL121601   1.944   4.360   8.850
 4793POPC   GL221602   2.108   4.347   8.850
 4793POPC   C1A21603   1.944   4.281   8.550
 4793POPC   D2A21604   1.982   4.335   8.250
 4793POPC   C3A21605   1.951   4.274   7.950
 4793POPC   C4A21606   1.949   4.345   7.650
 4793POPC   C1B21607   2.185   4.405   8.550
 4793POPC   C2B21608   2.167   4.444   8.250
 4793POPC   C3B21609   2.169   4.463   7.950
 4793POPC   C4B21610   2.173   4.385   7.650
 4794POPC   NC321611   9.721   7.422   9.450
 4794POPC   PO421612   9.702   7.465   9.150
 4794POPC   GL121613   9.779   7.413   8.850
 4794POPC   GL221614   9.899   7.470   8.850
 4794POPC   C1A21615   9.741   7.378   8.550
 4794POPC   D2A21616   9.720   7.463   8.250
 4794POPC   C3A21617   9.718   7.427   7.950
 4794POPC   C4A21618   9.756   7.465   7.650
 4794POPC   C1B21619  10.012   7.405   8.550
 4794POPC   C2B21620   9.961   7.402   8.250
 4794POPC   C3B21621   9.957   7.401   7.950
 4794POPC   C4B21622   9.989   7.423   7.650
 4795POPC   NC321623   6.636   5.899   9.450
 4795POPC   PO421624   6.662   5.821   9.150
 4795POPC   GL121625   6.631   5.898   8.850
 4795POPC   GL221626   6.717   6.005   8.850
 4795POPC   C1A21627   6.638   5.893   8.550
 4795POPC   D2A21628   6.623   5.864   8.250
 4795POPC   C3A21629   6.666   5.832   7.950
 4795POPC   C4A21630   6.632   5.898   7.650
 4795POPC   C1B21631   6.824   6.080   8.550
 4795POPC   C2B21632   6.847   6.035   8.250
 4795POPC   C3B21633   6.758   6.013   7.950
 4795POPC   C4B21634   6.790   6.037   7.650
 4796POPC   NC321635  11.251  35.324   9.450
 4796POPC   PO421636  11.291  35.395   9.150
 4796POPC   GL121637  11.344  35.354   8.850
 4796POPC   GL221638  11.322  35.458   8.850
 4796POPC   C1A21639  11.305  35.381   8.550
 4796POPC   D2A21640  11.276  35.306   8.250
 4796POPC   C3A21641  11.303  35.336   7.950
 4796POPC   C4A21642  11.341  35.353   7.650
 4796POPC   C1B21643  11.247  35.625   8.550
 4796POPC   C2B21644  11.258  35.632   8.250
 4796POPC   C3B21645  11.296  35.590   7.950
 4796POPC   C4B21646  11.226  35.584   7.650
 4797POPC   NC321647  43.090  27.563   9.450
 4797POPC   PO421648  43.147  27.635   9.150
 4797POPC   GL121649  43.081  27.593   8.850
 4797POPC   GL221650  43.029  27.602   8.850
 4797POPC   C1A21651  43.101  27.581   8.550
 4797POPC   D2A21652  43.077  27.603   8.250
 4797POPC   C3A21653  43.083  27.627   7.950
 4797POPC   C4A21654  43.083  27.551   7.650
 4797POPC   C1B21655  42.904  27.508   8.550
 4797POPC   C2B21656  42.871  27.520   8.250
 4797POPC   C3B21657  42.889  27.501   7.950
 4797POPC   C4B21658  42.854  27.531   7.650
 4798POPC   NC321659   0.437  18.247   9.450
 4798POPC   PO421660   0.475  18.251   9.150
 4798POPC   GL121661   0.406  18.288   8.850
 4798POPC   GL221662   0.460  18.386   8.850
 4798POPC   C1A21663   0.484  18.331   8.550
 4798POPC   D2A21664   0.403  18.239   8.250
 4798POPC   C3A21665   0.483  18.304   7.950
 4798POPC   C4A21666   0.423  18.258   7.650
 4798POPC   C1B21667   0.417  18.573   8.550
 4798POPC   C2B21668   0.415  18.522   8.250
 4798POPC   C3B21669   0.450  18.523   7.950
 4798POPC   C4B21670   0.459  18.493   7.650
 4799POPC   NC321671   2.020  34.585   9.450
 4799POPC   PO421672   2.028  34.602   9.150
 4799POPC   GL121673   2.003  34.549   8.850
 4799POPC   GL221674   1.899  34.632   8.850
 4799POPC   C1A21675   2.034  34.535   8.550
 4799POPC   D2A21676   1.952  34.611   8.250
 4799POPC   C3A21677   2.033  34.544   7.950
 4799POPC   C4A21678   2.019  34.616   7.650
 4799POPC   C1B21679   1.732  34.683   8.550
 4799POPC   C2B21680   1.715  34.650   8.250
 4799POPC   C3B21681   1.773  34.685   7.950
 4799POPC   C4B21682   1.745  34.610   7.650
 4800POPC   NC321683  43.911   7.427   9.450
 4800POPC   PO421684  43.838   7.436   9.150
 4800POPC   GL121685  43.877   7.375   8.850
 4800POPC   GL221686  43.901   7.534   8.850
 4800POPC   C1A21687  43.905   7.396   8.550
 4800POPC   D2A21688  43.848   7.438   8.250
 4800POPC   C3A21689  43.845   7.459   7.950
 4800POPC   C4A21690  43.883   7.401   7.650
 4800POPC   C1B21691  43.945   7.689   8.550
 4800POPC   C2B21692  43.896   7.633   8.250
 4800POPC   C3B21693  43.853   7.682   7.950
 4800POPC   C4B21694  43.894   7.710   7.650
 4801POPC   NC321695  27.580  33.798   9.450
 4801POPC   PO421696  27.632  33.753   9.150
 4801POPC   GL121697  27.580  33.814   8.850
 4801POPC   GL221698  27.720  33.744   8.850
 4801POPC   C1A21699  27.563  33.842   8.550
 4801POPC   D2A21700  27.641  33.769   8.250
 4801POPC   C3A21701  27.562  33.797   7.950
 4801POPC   C4A21702  27.556  33.800   7.650
 4801POPC   C1B21703  27.822  33.708   8.550
 4801POPC   C2B21704  27.776  33.712   8.250
 4801POPC   C3B21705  27.798  33.664   7.950
 4801POPC   C4B21706  27.852  33.687   7.650
 4802POPC   NC321707   9.769  44.647   9.450
 4802POPC   PO421708   9.716  44.662   9.150
 4802POPC   GL121709   9.770  44.676   8.850
 4802POPC   GL221710   9.599  44.633   8.850
 4802POPC   C1A21711   9.753  44.642   8.550
 4802POPC   D2A21712   9.787  44.683   8.250
 4802POPC   C3A21713   9.768  44.633   7.950
 4802POPC   C4A21714   9.778  44.645   7.650
 4802POPC   C1B21715   9.492  44.664   8.550
 4802POPC   C2B21716   9.497  44.641   8.250
 4802POPC   C3B21717   9.474  44.626   7.950
 4802POPC   C4B21718   9.515  44.604   7.650
 4803POPC   NC321719  22.206  29.970   9.450
 4803POPC   PO421720  22.184  29.916   9.150
 4803POPC   GL121721  22.164  29.884   8.850
 4803POPC   GL221722  22.059  30.027   8.850
 4803POPC   C1A21723  22.126  29.963   8.550
 4803POPC   D2A21724  22.115  29.883   8.250
 4803POPC   C3A21725  22.160  29.940   7.950
 4803POPC   C4A21726  22.191  29.925   7.650
 4803POPC   C1B21727  21.926  30.116   8.550
 4803POPC   C2B21728  21.991  30.113   8.250
 4803POPC   C3B21729  21.939  30.093   7.950
 4803POPC   C4B21730  21.945  30.106   7.650
 4804POPC   NC321731  40.735  37.641   9.450
 4804POPC   PO421732  40.781  37.642   9.150
 4804POPC   GL121733  40.805  37.683   8.850
 4804POPC   GL221734  40.906  37.621   8.850
 4804POPC   C1A21735  40.793  37.657   8.550
 4804POPC   D2A21736  40.828  37.656   8.250
 4804POPC   C3A21737  40.761  37.706   7.950
 4804POPC   C4A21738  40.798  37.729   7.650
 4804POPC   C1B21739  41.048  37.696   8.550
 4804POPC   C2B21740  41.062  37.618   8.250
 4804POPC   C3B21741  41.023  37.689   7.950
 4804POPC   C4B21742  40.996  37.618   7.650
 4805POPC   NC321743   1.170  43.160   9.450
 4805POPC   PO421744   1.231  43.152   9.150
 4805POPC   GL121745   1.170  43.139   8.850
 4805POPC   GL221746   1.167  42.986   8.850
 4805POPC   C1A21747   1.214  43.149   8.550
 4805POPC   D2A21748   1.241  43.064   8.250
 4805POPC   C3A21749   1.235  43.144   7.950
 4805POPC   C4A21750   1.263  43.122   7.650
 4805POPC   C1B21751   1.169  42.845   8.550
 4805POPC   C2B21752   1.194  42.837   8.250
 4805POPC   C3B21753   1.154  42.910   7.950
 4805POPC   C4B21754   1.210  42.911   7.650
 4806POPC   NC321755  38.421  36.128   9.450
 4806POPC   PO421756  38.466  36.164   9.150
 4806POPC   GL121757  38.438  36.123   8.850
 4806POPC   GL221758  38.537  36.239   8.850
 4806POPC   C1A21759  38.461  36.091   8.550
 4806POPC   D2A21760  38.475  36.151   8.250
 4806POPC   C3A21761  38.503  36.124   7.950
 4806POPC   C4A21762  38.427  36.178   7.650
 4806POPC   C1B21763  38.516  36.371   8.550
 4806POPC   C2B21764  38.532  36.324   8.250
 4806POPC   C3B21765  38.585  36.356   7.950
 4806POPC   C4B21766  38.502  36.320   7.650
 4807POPC   NC321767  30.728  19.038   9.450
 4807POPC   PO421768  30.708  19.023   9.150
 4807POPC   GL121769  30.671  19.091   8.850
 4807POPC   GL221770  30.789  19.023   8.850
 4807POPC   C1A21771  30.668  19.022   8.550
 4807POPC   D2A21772  30.704  19.092   8.250
 4807POPC   C3A21773  30.670  19.047   7.950
 4807POPC   C4A21774  30.694  19.066   7.650
 4807POPC   C1B21775  30.912  18.958   8.550
 4807POPC   C2B21776  30.935  18.946   8.250
 4807POPC   C3B21777  30.918  18.936   7.950
 4807POPC   C4B21778  30.928  18.970   7.650
 4808POPC   NC321779  28.326  44.663   9.450
 4808POPC   PO421780  28.384  44.625   9.150
 4808POPC   GL121781  28.407  44.703   8.850
 4808POPC   GL221782  28.205  44.596   8.850
 4808POPC   C1A21783  28.375  44.640   8.550
 4808POPC   D2A21784  28.400  44.626   8.250
 4808POPC   C3A21785  28.388  44.711   7.950
 4808POPC   C4A21786  28.399  44.632   7.650
 4808POPC   C1B21787  28.111  44.609   8.550
 4808POPC   C2B21788  28.161  44.538   8.250
 4808POPC   C3B21789  28.131  44.581   7.950
 4808POPC   C4B21790  28.124  44.597   7.650
 4809POPC   NC321791  27.579  35.310   9.450
 4809POPC   PO421792  27.636  35.319   9.150
 4809POPC   GL121793  27.574  35.334   8.850
 4809POPC   GL221794  27.708  35.405   8.850
 4809POPC   C1A21795  27.548  35.367   8.550
 4809POPC   D2A21796  27.556  35.390   8.250
 4809POPC   C3A21797  27.588  35.306   7.950
 4809POPC   C4A21798  27.576  35.388   7.650
 4809POPC   C1B21799  27.836  35.543   8.550
 4809POPC   C2B21800  27.765  35.495   8.250
 4809POPC   C3B21801  27.748  35.465   7.950
 4809POPC   C4B21802  27.812  35.527   7.650
 4810POPC   NC321803   6.637  30.675   9.450
 4810POPC   PO421804   6.693  30.649   9.150
 4810POPC   GL121805   6.598  30.743   8.850
 4810POPC   GL221806   6.538  30.718   8.850
 4810POPC   C1A21807   6.632  30.686   8.550
 4810POPC   D2A21808   6.598  30.656   8.250
 4810POPC   C3A21809   6.624  30.729   7.950
 4810POPC   C4A21810   6.638  30.658   7.650
 4810POPC   C1B21811   6.364  30.711   8.550
 4810POPC   C2B21812   6.445  30.714   8.250
 4810POPC   C3B21813   6.403  30.755   7.950
 4810POPC   C4B21814   6.437  30.702   7.650
 4811POPC   NC321815  22.143   7.395   9.450
 4811POPC   PO421816  22.169   7.431   9.150
 4811POPC   GL121817  22.127   7.387   8.850
 4811POPC   GL221818  22.287   7.431   8.850
 4811POPC   C1A21819  22.156   7.401   8.550
 4811POPC   D2A21820  22.173   7.463   8.250
 4811POPC   C3A21821  22.144   7.425   7.950
 4811POPC   C4A21822  22.192   7.398   7.650
 4811POPC   C1B21823  22.395   7.397   8.550
 4811POPC   C2B21824  22.373   7.458   8.250
 4811POPC   C3B21825  22.403   7.396   7.950
 4811POPC   C4B21826  22.441   7.425   7.650
 4812POPC   NC321827  43.145  17.488   9.450
 4812POPC   PO421828  43.153  17.537   9.150
 4812POPC   GL121829  43.148  17.509   8.850
 4812POPC   GL221830  43.096  17.399   8.850
 4812POPC   C1A21831  43.082  17.499   8.550
 4812POPC   D2A21832  43.159  17.501   8.250
 4812POPC   C3A21833  43.076  17.474   7.950
 4812POPC   C4A21834  43.145  17.508   7.650
 4812POPC   C1B21835  43.051  17.234   8.550
 4812POPC   C2B21836  43.029  17.289   8.250
 4812POPC   C3B21837  43.067  17.294   7.950
 4812POPC   C4B21838  43.069  17.317   7.650
 4813POPC   NC321839   7.420  26.068   9.450
 4813POPC   PO421840   7.463  26.027   9.150
 4813POPC   GL121841   7.401  26.005   8.850
 4813POPC   GL221842   7.319  25.960   8.850
 4813POPC   C1A21843   7.440  26.027   8.550
 4813POPC   D2A21844   7.456  26.041   8.250
 4813POPC   C3A21845   7.382  26.011   7.950
 4813POPC   C4A21846   7.438  26.045   7.650
 4813POPC   C1B21847   7.199  25.895   8.550
 4813POPC   C2B21848   7.213  25.949   8.250
 4813POPC   C3B21849   7.187  25.864   7.950
 4813POPC   C4B21850   7.169  25.885   7.650
 4814POPC   NC321851  13.662   9.738   9.450
 4814POPC   PO421852  13.581   9.772   9.150
 4814POPC   GL121853  13.627   9.716   8.850
 4814POPC   GL221854  13.462   9.718   8.850
 4814POPC   C1A21855  13.667   9.774   8.550
 4814POPC   D2A21856  13.606   9.729   8.250
 4814POPC   C3A21857  13.590   9.705   7.950
 4814POPC   C4A21858  13.653   9.718   7.650
 4814POPC   C1B21859  13.387   9.791   8.550
 4814POPC   C2B21860  13.345   9.747   8.250
 4814POPC   C3B21861  13.376   9.803   7.950
 4814POPC   C4B21862  13.389   9.796   7.650
 4815POPC   NC321863  16.691  31.444   9.450
 4815POPC   PO421864  16.728  31.443   9.150
 4815POPC   GL121865  16.715  31.468   8.850
 4815POPC   GL221866  16.856  31.419   8.850
 4815POPC   C1A21867  16.690  31.500   8.550
 4815POPC   D2A21868  16.685  31.484   8.250
 4815POPC   C3A21869  16.714  31.498   7.950
 4815POPC   C4A21870  16.780  31.501   7.650
 4815POPC   C1B21871  16.914  31.308   8.550
 4815POPC   C2B21872  16.932  31.343   8.250
 4815POPC   C3B21873  16.911  31.285   7.950
 4815POPC   C4B21874  16.972  31.301   7.650
 4816POPC   NC321875  40.822  28.399   9.450
 4816POPC   PO421876  40.815  28.375   9.150
 4816POPC   GL121877  40.776  28.348   8.850
 4816POPC   GL221878  40.668  28.428   8.850
 4816POPC   C1A21879  40.775  28.411   8.550
 4816POPC   D2A21880  40.793  28.375   8.250
 4816POPC   C3A21881  40.829  28.385   7.950
 4816POPC   C4A21882  40.804  28.353   7.650
 4816POPC   C1B21883  40.695  28.531   8.550
 4816POPC   C2B21884  40.667  28.552   8.250
 4816POPC   C3B21885  40.648  28.608   7.950
 4816POPC   C4B21886  40.673  28.544   7.650
 4817POPC   NC321887  39.960  25.224   9.450
 4817POPC   PO421888  40.003  25.224   9.150
 4817POPC   GL121889  39.978  25.248   8.850
 4817POPC   GL221890  39.928  25.312   8.850
 4817POPC   C1A21891  40.056  25.244   8.550
 4817POPC   D2A21892  40.039  25.252   8.250
 4817POPC   C3A21893  40.005  25.280   7.950
 4817POPC   C4A21894  40.031  25.263   7.650
 4817POPC   C1B21895  39.798  25.456   8.550
 4817POPC   C2B21896  39.851  25.391   8.250
 4817POPC   C3B21897  39.873  25.437   7.950
 4817POPC   C4B21898  39.863  25.463   7.650
 4818POPC   NC321899  12.108  24.441   9.450
 4818POPC   PO421900  12.055  24.502   9.150
 4818POPC   GL121901  12.026  24.525   8.850
 4818POPC   GL221902  12.141  24.565   8.850
 4818POPC   C1A21903  12.064  24.457   8.550
 4818POPC   D2A21904  12.078  24.524   8.250
 4818POPC   C3A21905  12.119  24.452   7.950
 4818POPC   C4A21906  12.125  24.498   7.650
 4818POPC   C1B21907  12.291  24.661   8.550
 4818POPC   C2B21908  12.236  24.618   8.250
 4818POPC   C3B21909  12.221  24.683   7.950
 4818POPC   C4B21910  12.305  24.670   7.650
 4819POPC   NC321911  14.417  12.829   9.450
 4819POPC   PO421912  14.422  12.868   9.150
 4819POPC   GL121913  14.374  12.827   8.850
 4819POPC   GL221914  14.514  12.790   8.850
 4819POPC   C1A21915  14.394  12.873   8.550
 4819POPC   D2A21916  14.405  12.819   8.250
 4819POPC   C3A21917  14.453  12.830   7.950
 4819POPC   C4A21918  14.362  12.814   7.650
 4819POPC   C1B21919  14.618  12.766   8.550
 4819POPC   C2B21920  14.647  12.714   8.250
 4819POPC   C3B21921  14.604  12.726   7.950
 4819POPC   C4B21922  14.622  12.690   7.650
 4820POPC   NC321923  29.128  16.712   9.450
 4820POPC   PO421924  29.161  16.724   9.150
 4820POPC   GL121925  29.096  16.752   8.850
 4820POPC   GL221926  29.261  16.646   8.850
 4820POPC   C1A21927  29.169  16.752   8.550
 4820POPC   D2A21928  29.168  16.707   8.250
 4820POPC   C3A21929  29.151  16.711   7.950
 4820POPC   C4A21930  29.135  16.724   7.650
 4820POPC   C1B21931  29.398  16.587   8.550
 4820POPC   C2B21932  29.386  16.589   8.250
 4820POPC   C3B21933  29.357  16.583   7.950
 4820POPC   C4B21934  29.330  16.648   7.650
 4821POPC   NC321935  21.414  39.233   9.450
 4821POPC   PO421936  21.377  39.280   9.150
 4821POPC   GL121937  21.380  39.246   8.850
 4821POPC   GL221938  21.251  39.216   8.850
 4821POPC   C1A21939  21.365  39.195   8.550
 4821POPC   D2A21940  21.393  39.220   8.250
 4821POPC   C3A21941  21.349  39.198   7.950
 4821POPC   C4A21942  21.394  39.242   7.650
 4821POPC   C1B21943  21.096  39.270   8.550
 4821POPC   C2B21944  21.182  39.211   8.250
 4821POPC   C3B21945  21.143  39.281   7.950
 4821POPC   C4B21946  21.136  39.258   7.650
 4822POPC   NC321947   6.619   2.789   9.450
 4822POPC   PO421948   6.672   2.751   9.150
 4822POPC   GL121949   6.599   2.733   8.850
 4822POPC   GL221950   6.627   2.864   8.850
 4822POPC   C1A21951   6.618   2.750   8.550
 4822POPC   D2A21952   6.630   2.785   8.250
 4822POPC   C3A21953   6.616   2.720   7.950
 4822POPC   C4A21954   6.627   2.773   7.650
 4822POPC   C1B21955   6.528   3.009   8.550
 4822POPC   C2B21956   6.563   3.003   8.250
 4822POPC   C3B21957   6.561   2.994   7.950
 4822POPC   C4B21958   6.560   3.012   7.650
 4823POPC   NC321959  19.865  34.612   9.450
 4823POPC   PO421960  19.873  34.536   9.150
 4823POPC   GL121961  19.829  34.567   8.850
 4823POPC   GL221962  19.788  34.451   8.850
 4823POPC   C1A21963  19.789  34.572   8.550
 4823POPC   D2A21964  19.791  34.623   8.250
 4823POPC   C3A21965  19.800  34.582   7.950
 4823POPC   C4A21966  19.870  34.623   7.650
 4823POPC   C1B21967  19.758  34.295   8.550
 4823POPC   C2B21968  19.817  34.334   8.250
 4823POPC   C3B21969  19.774  34.373   7.950
 4823POPC   C4B21970  19.778  34.342   7.650
 4824POPC   NC321971  35.368   5.872   9.450
 4824POPC   PO421972  35.356   5.914   9.150
 4824POPC   GL121973  35.355   5.882   8.850
 4824POPC   GL221974  35.394   5.794   8.850
 4824POPC   C1A21975  35.382   5.846   8.550
 4824POPC   D2A21976  35.318   5.866   8.250
 4824POPC   C3A21977  35.379   5.862   7.950
 4824POPC   C4A21978  35.377   5.819   7.650
 4824POPC   C1B21979  35.513   5.628   8.550
 4824POPC   C2B21980  35.473   5.662   8.250
 4824POPC   C3B21981  35.510   5.672   7.950
 4824POPC   C4B21982  35.472   5.697   7.650
 4825POPC   NC321983   6.617  33.825   9.450
 4825POPC   PO421984   6.692  33.833   9.150
 4825POPC   GL121985   6.670  33.766   8.850
 4825POPC   GL221986   6.557  33.869   8.850
 4825POPC   C1A21987   6.633  33.775   8.550
 4825POPC   D2A21988   6.639  33.804   8.250
 4825POPC   C3A21989   6.610  33.780   7.950
 4825POPC   C4A21990   6.654  33.755   7.650
 4825POPC   C1B21991   6.431  34.034   8.550
 4825POPC   C2B21992   6.500  33.991   8.250
 4825POPC   C3B21993   6.490  33.973   7.950
 4825POPC   C4B21994   6.510  33.985   7.650
 4826POPC   NC321995  29.156  41.599   9.450
 4826POPC   PO421996  29.182  41.581   9.150
 4826POPC   GL121997  29.186  41.565   8.850
 4826POPC   GL221998  29.009  41.567   8.850
 4826POPC   C1A21999  29.119  41.608   8.550
 4826POPC   D2A22000  29.180  41.557   8.250
 4826POPC   C3A22001  29.167  41.515   7.950
 4826POPC   C4A22002  29.106  41.571   7.650
 4826POPC   C1B22003  28.919  41.529   8.550
 4826POPC   C2B22004  28.944  41.572   8.250
 4826POPC   C3B22005  28.850  41.546   7.950
 4826POPC   C4B22006  28.927  41.561   7.650
 4827POPC   NC322007  12.814  37.655   9.450
 4827POPC   PO422008  12.858  37.674   9.150
 4827POPC   GL122009  12.876  37.724   8.850
 4827POPC   GL222010  12.767  37.661   8.850
 4827POPC   C1A22011  12.897  37.711   8.550
 4827POPC   D2A22012  12.884  37.642   8.250
 4827POPC   C3A22013  12.862  37.692   7.950
 4827POPC   C4A22014  12.837  37.679   7.650
 4827POPC   C1B22015  12.574  37.755   8.550
 4827POPC   C2B22016  12.644  37.693   8.250
 4827POPC   C3B22017  12.632  37.700   7.950
 4827POPC   C4B22018  12.648  37.759   7.650
 4828POPC   NC322019  12.883  39.264   9.450
 4828POPC   PO422020  12.820  39.250   9.150
 4828POPC   GL122021  12.878  39.254   8.850
 4828POPC   GL222022  12.861  39.388   8.850
 4828POPC   C1A22023  12.847  39.244   8.550
 4828POPC   D2A22024  12.830  39.237   8.250
 4828POPC   C3A22025  12.822  39.208   7.950
 4828POPC   C4A22026  12.813  39.260   7.650
 4828POPC   C1B22027  12.941  39.441   8.550
 4828POPC   C2B22028  12.941  39.468   8.250
 4828POPC   C3B22029  12.898  39.448   7.950
 4828POPC   C4B22030  12.868  39.505   7.650
 4829POPC   NC322031  12.031  15.914   9.450
 4829POPC   PO422032  12.028  15.968   9.150
 4829POPC   GL122033  12.040  15.921   8.850
 4829POPC   GL222034  12.092  16.043   8.850
 4829POPC   C1A22035  12.110  15.935   8.550
 4829POPC   D2A22036  12.032  15.983   8.250
 4829POPC   C3A22037  12.120  15.923   7.950
 4829POPC   C4A22038  12.096  15.999   7.650
 4829POPC   C1B22039  12.212  16.199   8.550
 4829POPC   C2B22040  12.229  16.201   8.250
 4829POPC   C3B22041  12.158  16.148   7.950
 4829POPC   C4B22042  12.235  16.200   7.650
 4830POPC   NC322043   3.575  18.320   9.450
 4830POPC   PO422044   3.576  18.311   9.150
 4830POPC   GL122045   3.518  18.251   8.850
 4830POPC   GL222046   3.507  18.379   8.850
 4830POPC   C1A22047   3.564  18.272   8.550
 4830POPC   D2A22048   3.540  18.258   8.250
 4830POPC   C3A22049   3.555  18.252   7.950
 4830POPC   C4A22050   3.492  18.253   7.650
 4830POPC   C1B22051   3.386  18.470   8.550
 4830POPC   C2B22052   3.431  18.439   8.250
 4830POPC   C3B22053   3.357  18.462   7.950
 4830POPC   C4B22054   3.432  18.438   7.650
 4831POPC   NC322055  10.511  40.778   9.450
 4831POPC   PO422056  10.492  40.762   9.150
 4831POPC   GL122057  10.506  40.797   8.850
 4831POPC   GL222058  10.390  40.796   8.850
 4831POPC   C1A22059  10.554  40.784   8.550
 4831POPC   D2A22060  10.565  40.821   8.250
 4831POPC   C3A22061  10.550  40.821   7.950
 4831POPC   C4A22062  10.540  40.790   7.650
 4831POPC   C1B22063  10.268  40.851   8.550
 4831POPC   C2B22064  10.317  40.836   8.250
 4831POPC   C3B22065  10.284  40.835   7.950
 4831POPC   C4B22066  10.301  40.848   7.650
 4832POPC   NC322067  14.453  20.577   9.450
 4832POPC   PO422068  14.403  20.563   9.150
 4832POPC   GL122069  14.429  20.561   8.850
 4832POPC   GL222070  14.334  20.462   8.850
 4832POPC   C1A22071  14.381  20.571   8.550
 4832POPC   D2A22072  14.368  20.633   8.250
 4832POPC   C3A22073  14.420  20.594   7.950
 4832POPC   C4A22074  14.419  20.603   7.650
 4832POPC   C1B22075  14.221  20.408   8.550
 4832POPC   C2B22076  14.233  20.417   8.250
 4832POPC   C3B22077  14.257  20.437   7.950
 4832POPC   C4B22078  14.220  20.397   7.650
 4833POPC   NC322079  15.974  41.530   9.450
 4833POPC   PO422080  15.928  41.579   9.150
 4833POPC   GL122081  15.955  41.524   8.850
 4833POPC   GL222082  15.954  41.432   8.850
 4833POPC   C1A22083  15.942  41.523   8.550
 4833POPC   D2A22084  15.953  41.583   8.250
 4833POPC   C3A22085  15.963  41.523   7.950
 4833POPC   C4A22086  15.955  41.566   7.650
 4833POPC   C1B22087  16.060  41.331   8.550
 4833POPC   C2B22088  16.027  41.341   8.250
 4833POPC   C3B22089  16.035  41.290   7.950
 4833POPC   C4B22090  16.053  41.304   7.650
 4834POPC   NC322091   6.618   1.215   9.450
 4834POPC   PO422092   6.622   1.197   9.150
 4834POPC   GL122093   6.619   1.215   8.850
 4834POPC   GL222094   6.603   1.140   8.850
 4834POPC   C1A22095   6.655   1.249   8.550
 4834POPC   D2A22096   6.644   1.189   8.250
 4834POPC   C3A22097   6.676   1.206   7.950
 4834POPC   C4A22098   6.683   1.227   7.650
 4834POPC   C1B22099   6.607   0.962   8.550
 4834POPC   C2B22100   6.530   1.002   8.250
 4834POPC   C3B22101   6.555   0.993   7.950
 4834POPC   C4B22102   6.593   1.016   7.650
 4835POPC   NC322103  39.983   8.232   9.450
 4835POPC   PO422104  39.963   8.231   9.150
 4835POPC   GL122105  40.049   8.148   8.850
 4835POPC   GL222106  40.019   8.051   8.850
 4835POPC   C1A22107  40.050   8.202   8.550
 4835POPC   D2A22108  39.968   8.242   8.250
 4835POPC   C3A22109  39.986   8.213   7.950
 4835POPC   C4A22110  40.016   8.175   7.650
 4835POPC   C1B22111  40.128   7.988   8.550
 4835POPC   C2B22112  40.048   7.916   8.250
 4835POPC   C3B22113  40.145   7.915   7.950
 4835POPC   C4B22114  40.088   7.975   7.650
 4836POPC   NC322115  36.160  22.158   9.450
 4836POPC   PO422116  36.139  22.163   9.150
 4836POPC   GL122117  36.086  22.126   8.850
 4836POPC   GL222118  36.118  22.076   8.850
 4836POPC   C1A22119  36.081  22.134   8.550
 4836POPC   D2A22120  36.156  22.174   8.250
 4836POPC   C3A22121  36.107  22.172   7.950
 4836POPC   C4A22122  36.112  22.188   7.650
 4836POPC   C1B22123  36.235  21.891   8.550
 4836POPC   C2B22124  36.184  21.906   8.250
 4836POPC   C3B22125  36.182  21.880   7.950
 4836POPC   C4B22126  36.141  21.913   7.650
 4837POPC   NC322127  22.124  28.348   9.450
 4837POPC   PO422128  22.182  28.343   9.150
 4837POPC   GL122129  22.157  28.370   8.850
 4837POPC   GL222130  22.327  28.338   8.850
 4837POPC   C1A22131  22.119  28.391   8.550
 4837POPC   D2A22132  22.183  28.327   8.250
 4837POPC   C3A22133  22.211  28.407   7.950
 4837POPC   C4A22134  22.207  28.365   7.650
 4837POPC   C1B22135  22.440  28.409   8.550
 4837POPC   C2B22136  22.417  28.424   8.250
 4837POPC   C3B22137  22.417  28.361   7.950
 4837POPC   C4B22138  22.392  28.377   7.650
 4838POPC   NC322139   2.727  35.399   9.450
 4838POPC   PO422140   2.764  35.338   9.150
 4838POPC   GL122141   2.731  35.308   8.850
 4838POPC   GL222142   2.776  35.468   8.850
 4838POPC   C1A22143   2.749  35.308   8.550
 4838POPC   D2A22144   2.724  35.384   8.250
 4838POPC   C3A22145   2.784  35.389   7.950
 4838POPC   C4A22146   2.772  35.380   7.650
 4838POPC   C1B22147   2.755  35.614   8.550
 4838POPC   C2B22148   2.732  35.629   8.250
 4838POPC   C3B22149   2.702  35.627   7.950
 4838POPC   C4B22150   2.744  35.564   7.650
 4839POPC   NC322151  38.494  15.215   9.450
 4839POPC   PO422152  38.481  15.215   9.150
 4839POPC   GL122153  38.419  15.139   8.850
 4839POPC   GL222154  38.411  15.028   8.850
 4839POPC   C1A22155  38.414  15.132   8.550
 4839POPC   D2A22156  38.441  15.181   8.250
 4839POPC   C3A22157  38.444  15.164   7.950
 4839POPC   C4A22158  38.458  15.185   7.650
 4839POPC   C1B22159  38.352  14.931   8.550
 4839POPC   C2B22160  38.301  14.979   8.250
 4839POPC   C3B22161  38.318  14.952   7.950
 4839POPC   C4B22162  38.350  14.946   7.650
 4840POPC   NC322163  15.963  23.686   9.450
 4840POPC   PO422164  15.963  23.749   9.150
 4840POPC   GL122165  15.919  23.676   8.850
 4840POPC   GL222166  16.022  23.558   8.850
 4840POPC   C1A22167  15.967  23.674   8.550
 4840POPC   D2A22168  15.992  23.701   8.250
 4840POPC   C3A22169  15.988  23.738   7.950
 4840POPC   C4A22170  15.932  23.693   7.650
 4840POPC   C1B22171  16.033  23.529   8.550
 4840POPC   C2B22172  16.072  23.451   8.250
 4840POPC   C3B22173  16.025  23.468   7.950
 4840POPC   C4B22174  16.065  23.493   7.650
 4841POPC   NC322175   2.804  27.560   9.450
 4841POPC   PO422176   2.742  27.549   9.150
 4841POPC   GL122177   2.784  27.603   8.850
 4841POPC   GL222178   2.756  27.441   8.850
 4841POPC   C1A22179   2.793  27.585   8.550
 4841POPC   D2A22180   2.776  27.545   8.250
 4841POPC   C3A22181   2.722  27.612   7.950
 4841POPC   C4A22182   2.754  27.605   7.650
 4841POPC   C1B22183   2.878  27.312   8.550
 4841POPC   C2B22184   2.861  27.342   8.250
 4841POPC   C3B22185   2.793  27.400   7.950
 4841POPC   C4B22186   2.836  27.398   7.650
 4842POPC   NC322187  12.085  38.489   9.450
 4842POPC   PO422188  12.058  38.466   9.150
 4842POPC   GL122189  12.029  38.461   8.850
 4842POPC   GL222190  12.028  38.332   8.850
 4842POPC   C1A22191  12.044  38.443   8.550
 4842POPC   D2A22192  12.057  38.424   8.250
 4842POPC   C3A22193  12.093  38.477   7.950
 4842POPC   C4A22194  12.073  38.409   7.650
 4842POPC   C1B22195  11.903  38.238   8.550
 4842POPC   C2B22196  11.913  38.243   8.250
 4842POPC   C3B22197  11.966  38.245   7.950
 4842POPC   C4B22198  11.961  38.193   7.650
 4843POPC   NC322199  12.897  38.489   9.450
 4843POPC   PO422200  12.851  38.466   9.150
 4843POPC   GL122201  12.871  38.483   8.850
 4843POPC   GL222202  12.683  38.466   8.850
 4843POPC   C1A22203  12.862  38.410   8.550
 4843POPC   D2A22204  12.842  38.444   8.250
 4843POPC   C3A22205  12.874  38.496   7.950
 4843POPC   C4A22206  12.888  38.477   7.650
 4843POPC   C1B22207  12.643  38.547   8.550
 4843POPC   C2B22208  12.580  38.502   8.250
 4843POPC   C3B22209  12.572  38.495   7.950
 4843POPC   C4B22210  12.558  38.518   7.650
 4844POPC   NC322211   2.011  29.965   9.450
 4844POPC   PO422212   1.953  29.894   9.150
 4844POPC   GL122213   1.958  29.934   8.850
 4844POPC   GL222214   1.932  30.011   8.850
 4844POPC   C1A22215   1.965  29.957   8.550
 4844POPC   D2A22216   1.944  29.872   8.250
 4844POPC   C3A22217   2.034  29.872   7.950
 4844POPC   C4A22218   1.945  29.878   7.650
 4844POPC   C1B22219   1.859  30.157   8.550
 4844POPC   C2B22220   1.901  30.178   8.250
 4844POPC   C3B22221   1.809  30.173   7.950
 4844POPC   C4B22222   1.888  30.167   7.650
 4845POPC   NC322223  31.505   7.410   9.450
 4845POPC   PO422224  31.518   7.452   9.150
 4845POPC   GL122225  31.502   7.425   8.850
 4845POPC   GL222226  31.563   7.453   8.850
 4845POPC   C1A22227  31.509   7.451   8.550
 4845POPC   D2A22228  31.492   7.400   8.250
 4845POPC   C3A22229  31.477   7.425   7.950
 4845POPC   C4A22230  31.507   7.391   7.650
 4845POPC   C1B22231  31.725   7.433   8.550
 4845POPC   C2B22232  31.742   7.498   8.250
 4845POPC   C3B22233  31.683   7.512   7.950
 4845POPC   C4B22234  31.697   7.440   7.650
 4846POPC   NC322235   4.286  42.299   9.450
 4846POPC   PO422236   4.335  42.340   9.150
 4846POPC   GL122237   4.314  42.367   8.850
 4846POPC   GL222238   4.227  42.368   8.850
 4846POPC   C1A22239   4.339  42.344   8.550
 4846POPC   D2A22240   4.338  42.349   8.250
 4846POPC   C3A22241   4.366  42.373   7.950
 4846POPC   C4A22242   4.305  42.308   7.650
 4846POPC   C1B22243   4.080  42.327   8.550
 4846POPC   C2B22244   4.064  42.318   8.250
 4846POPC   C3B22245   4.038  42.332   7.950
 4846POPC   C4B22246   4.114  42.300   7.650
 4847POPC   NC322247   1.258  35.366   9.450
 4847POPC   PO422248   1.187  35.382   9.150
 4847POPC   GL122249   1.203  35.364   8.850
 4847POPC   GL222250   1.267  35.513   8.850
 4847POPC   C1A22251   1.247  35.377   8.550
 4847POPC   D2A22252   1.213  35.354   8.250
 4847POPC   C3A22253   1.189  35.367   7.950
 4847POPC   C4A22254   1.254  35.345   7.650
 4847POPC   C1B22255   1.306  35.546   8.550
 4847POPC   C2B22256   1.299  35.533   8.250
 4847POPC   C3B22257   1.281  35.596   7.950
 4847POPC   C4B22258   1.365  35.541   7.650
 4848POPC   NC322259  10.553   3.510   9.450
 4848POPC   PO422260  10.499   3.542   9.150
 4848POPC   GL122261  10.545   3.542   8.850
 4848POPC   GL222262  10.598   3.470   8.850
 4848POPC   C1A22263  10.492   3.552   8.550
 4848POPC   D2A22264  10.480   3.588   8.250
 4848POPC   C3A22265  10.501   3.544   7.950
 4848POPC   C4A22266  10.510   3.539   7.650
 4848POPC   C1B22267  10.662   3.311   8.550
 4848POPC   C2B22268  10.668   3.288   8.250
 4848POPC   C3B22269  10.623   3.282   7.950
 4848POPC   C4B22270  10.586   3.279   7.650
 4849POPC   NC322271  34.558  43.100   9.450
 4849POPC   PO422272  34.526  43.122   9.150
 4849POPC   GL122273  34.599  43.131   8.850
 4849POPC   GL222274  34.542  43.064   8.850
 4849POPC   C1A22275  34.537  43.077   8.550
 4849POPC   D2A22276  34.541  43.135   8.250
 4849POPC   C3A22277  34.577  43.138   7.950
 4849POPC   C4A22278  34.550  43.152   7.650
 4849POPC   C1B22279  34.361  42.925   8.550
 4849POPC   C2B22280  34.370  42.930   8.250
 4849POPC   C3B22281  34.386  42.885   7.950
 4849POPC   C4B22282  34.371  42.915   7.650
 4850POPC   NC322283   7.426  40.770   9.450
 4850POPC   PO422284   7.464  40.806   9.150
 4850POPC   GL122285   7.388  40.739   8.850
 4850POPC   GL222286   7.439  40.703   8.850
 4850POPC   C1A22287   7.414  40.748   8.550
 4850POPC   D2A22288   7.469  40.800   8.250
 4850POPC   C3A22289   7.443  40.752   7.950
 4850POPC   C4A22290   7.426  40.747   7.650
 4850POPC   C1B22291   7.419  40.568   8.550
 4850POPC   C2B22292   7.357  40.515   8.250
 4850POPC   C3B22293   7.426  40.509   7.950
 4850POPC   C4B22294   7.389  40.509   7.650
 4851POPC   NC322295   8.937  22.134   9.450
 4851POPC   PO422296   8.934  22.155   9.150
 4851POPC   GL122297   9.020  22.155   8.850
 4851POPC   GL222298   9.110  22.122   8.850
 4851POPC   C1A22299   8.994  22.121   8.550
 4851POPC   D2A22300   8.937  22.127   8.250
 4851POPC   C3A22301   8.998  22.113   7.950
 4851POPC   C4A22302   8.985  22.161   7.650
 4851POPC   C1B22303   9.210  22.055   8.550
 4851POPC   C2B22304   9.185  21.999   8.250
 4851POPC   C3B22305   9.219  22.018   7.950
 4851POPC   C4B22306   9.183  22.036   7.650
 4852POPC   NC322307  19.861   4.356   9.450
 4852POPC   PO422308  19.788   4.307   9.150
 4852POPC   GL122309  19.864   4.351   8.850
 4852POPC   GL222310  19.698   4.279   8.850
 4852POPC   C1A22311  19.834   4.317   8.550
 4852POPC   D2A22312  19.805   4.287   8.250
 4852POPC   C3A22313  19.785   4.315   7.950
 4852POPC   C4A22314  19.840   4.343   7.650
 4852POPC   C1B22315  19.627   4.297   8.550
 4852POPC   C2B22316  19.630   4.247   8.250
 4852POPC   C3B22317  19.578   4.290   7.950
 4852POPC   C4B22318  19.557   4.236   7.650
 4853POPC   NC322319   5.856  14.434   9.450
 4853POPC   PO422320   5.892  14.384   9.150
 4853POPC   GL122321   5.848  14.357   8.850
 4853POPC   GL222322   5.951  14.346   8.850
 4853POPC   C1A22323   5.830  14.376   8.550
 4853POPC   D2A22324   5.835  14.393   8.250
 4853POPC   C3A22325   5.913  14.388   7.950
 4853POPC   C4A22326   5.843  14.379   7.650
 4853POPC   C1B22327   6.086  14.265   8.550
 4853POPC   C2B22328   6.119  14.234   8.250
 4853POPC   C3B22329   6.100  14.263   7.950
 4853POPC   C4B22330   6.029  14.302   7.650
 4854POPC   NC322331  39.991  15.906   9.450
 4854POPC   PO422332  40.023  15.937   9.150
 4854POPC   GL122333  40.050  15.961   8.850
 4854POPC   GL222334  39.986  15.881   8.850
 4854POPC   C1A22335  39.958  15.919   8.550
 4854POPC   D2A22336  39.967  15.943   8.250
 4854POPC   C3A22337  40.023  15.972   7.950
 4854POPC   C4A22338  40.022  15.971   7.650
 4854POPC   C1B22339  39.943  15.767   8.550
 4854POPC   C2B22340  39.959  15.728   8.250
 4854POPC   C3B22341  39.886  15.680   7.950
 4854POPC   C4B22342  39.933  15.723   7.650
 4855POPC   NC322343  29.095  22.909   9.450
 4855POPC   PO422344  29.145  22.970   9.150
 4855POPC   GL122345  29.127  22.889   8.850
 4855POPC   GL222346  29.053  22.914   8.850
 4855POPC   C1A22347  29.149  22.929   8.550
 4855POPC   D2A22348  29.190  22.911   8.250
 4855POPC   C3A22349  29.139  22.963   7.950
 4855POPC   C4A22350  29.168  22.891   7.650
 4855POPC   C1B22351  28.900  22.900   8.550
 4855POPC   C2B22352  28.936  22.878   8.250
 4855POPC   C3B22353  28.942  22.937   7.950
 4855POPC   C4B22354  28.893  22.928   7.650
 4856POPC   NC322355  23.710  12.106   9.450
 4856POPC   PO422356  23.736  12.119   9.150
 4856POPC   GL122357  23.696  12.100   8.850
 4856POPC   GL222358  23.803  12.039   8.850
 4856POPC   C1A22359  23.706  12.091   8.550
 4856POPC   D2A22360  23.675  12.074   8.250
 4856POPC   C3A22361  23.668  12.070   7.950
 4856POPC   C4A22362  23.737  12.104   7.650
 4856POPC   C1B22363  23.957  12.070   8.550
 4856POPC   C2B22364  23.978  12.052   8.250
 4856POPC   C3B22365  24.013  12.083   7.950
 4856POPC   C4B22366  23.938  12.078   7.650
 4857POPC   NC322367  22.953  19.090   9.450
 4857POPC   PO422368  22.894  19.035   9.150
 4857POPC   GL122369  22.956  19.058   8.850
 4857POPC   GL222370  23.075  19.127   8.850
 4857POPC   C1A22371  22.931  19.029   8.550
 4857POPC   D2A22372  22.896  19.019   8.250
 4857POPC   C3A22373  22.909  19.091   7.950
 4857POPC   C4A22374  22.966  19.043   7.650
 4857POPC   C1B22375  23.196  19.071   8.550
 4857POPC   C2B22376  23.177  19.132   8.250
 4857POPC   C3B22377  23.142  19.090   7.950
 4857POPC   C4B22378  23.149  19.136   7.650
 4858POPC   NC322379  25.303   7.459   9.450
 4858POPC   PO422380  25.217   7.464   9.150
 4858POPC   GL122381  25.247   7.392   8.850
 4858POPC   GL222382  25.317   7.253   8.850
 4858POPC   C1A22383  25.252   7.427   8.550
 4858POPC   D2A22384  25.226   7.444   8.250
 4858POPC   C3A22385  25.280   7.425   7.950
 4858POPC   C4A22386  25.235   7.457   7.650
 4858POPC   C1B22387  25.288   7.196   8.550
 4858POPC   C2B22388  25.239   7.139   8.250
 4858POPC   C3B22389  25.292   7.180   7.950
 4858POPC   C4B22390  25.281   7.140   7.650
 4859POPC   NC322391  32.982  23.754   9.450
 4859POPC   PO422392  32.978  23.698   9.150
 4859POPC   GL122393  33.055  23.685   8.850
 4859POPC   GL222394  32.944  23.820   8.850
 4859POPC   C1A22395  33.052  23.679   8.550
 4859POPC   D2A22396  32.976  23.751   8.250
 4859POPC   C3A22397  32.995  23.746   7.950
 4859POPC   C4A22398  33.043  23.682   7.650
 4859POPC   C1B22399  32.909  23.924   8.550
 4859POPC   C2B22400  32.975  23.927   8.250
 4859POPC   C3B22401  32.978  23.907   7.950
 4859POPC   C4B22402  32.955  23.947   7.650
 4860POPC   NC322403  36.861  26.002   9.450
 4860POPC   PO422404  36.876  25.991   9.150
 4860POPC   GL122405  36.907  26.041   8.850
 4860POPC   GL222406  37.047  26.110   8.850
 4860POPC   C1A22407  36.864  26.082   8.550
 4860POPC   D2A22408  36.952  25.999   8.250
 4860POPC   C3A22409  36.914  26.051   7.950
 4860POPC   C4A22410  36.899  26.073   7.650
 4860POPC   C1B22411  37.179  26.095   8.550
 4860POPC   C2B22412  37.100  26.080   8.250
 4860POPC   C3B22413  37.165  26.085   7.950
 4860POPC   C4B22414  37.150  26.064   7.650
 4861POPC   NC322415  12.082  29.139   9.450
 4861POPC   PO422416  12.071  29.104   9.150
 4861POPC   GL122417  12.046  29.119   8.850
 4861POPC   GL222418  12.135  28.980   8.850
 4861POPC   C1A22419  12.060  29.139   8.550
 4861POPC   D2A22420  12.078  29.115   8.250
 4861POPC   C3A22421  12.066  29.163   7.950
 4861POPC   C4A22422  12.038  29.123   7.650
 4861POPC   C1B22423  12.112  28.880   8.550
 4861POPC   C2B22424  12.110  28.865   8.250
 4861POPC   C3B22425  12.117  28.854   7.950
 4861POPC   C4B22426  12.139  28.935   7.650
 4862POPC   NC322427  14.385  24.473   9.450
 4862POPC   PO422428  14.440  24.474   9.150
 4862POPC   GL122429  14.415  24.440   8.850
 4862POPC   GL222430  14.317  24.554   8.850
 4862POPC   C1A22431  14.383  24.499   8.550
 4862POPC   D2A22432  14.423  24.504   8.250
 4862POPC   C3A22433  14.429  24.532   7.950
 4862POPC   C4A22434  14.368  24.487   7.650
 4862POPC   C1B22435  14.143  24.588   8.550
 4862POPC   C2B22436  14.122  24.580   8.250
 4862POPC   C3B22437  14.132  24.586   7.950
 4862POPC   C4B22438  14.158  24.546   7.650
 4863POPC   NC322439  43.084  19.091   9.450
 4863POPC   PO422440  43.137  19.016   9.150
 4863POPC   GL122441  43.136  19.101   8.850
 4863POPC   GL222442  43.235  18.994   8.850
 4863POPC   C1A22443  43.118  19.094   8.550
 4863POPC   D2A22444  43.150  19.018   8.250
 4863POPC   C3A22445  43.132  19.064   7.950
 4863POPC   C4A22446  43.115  19.106   7.650
 4863POPC   C1B22447  43.274  18.906   8.550
 4863POPC   C2B22448  43.254  18.910   8.250
 4863POPC   C3B22449  43.294  18.927   7.950
 4863POPC   C4B22450  43.310  18.863   7.650
 4864POPC   NC322451  33.073  17.548   9.450
 4864POPC   PO422452  33.061  17.513   9.150
 4864POPC   GL122453  33.036  17.489   8.850
 4864POPC   GL222454  33.090  17.368   8.850
 4864POPC   C1A22455  32.979  17.501   8.550
 4864POPC   D2A22456  33.041  17.538   8.250
 4864POPC   C3A22457  32.990  17.539   7.950
 4864POPC   C4A22458  33.011  17.523   7.650
 4864POPC   C1B22459  33.109  17.278   8.550
 4864POPC   C2B22460  33.139  17.229   8.250
 4864POPC   C3B22461  33.099  17.259   7.950
 4864POPC   C4B22462  33.132  17.312   7.650
 4865POPC   NC322463  39.235  41.509   9.450
 4865POPC   PO422464  39.232  41.587   9.150
 4865POPC   GL122465  39.250  41.584   8.850
 4865POPC   GL222466  39.150  41.655   8.850
 4865POPC   C1A22467  39.234  41.525   8.550
 4865POPC   D2A22468  39.258  41.555   8.250
 4865POPC   C3A22469  39.217  41.524   7.950
 4865POPC   C4A22470  39.191  41.516   7.650
 4865POPC   C1B22471  39.097  41.752   8.550
 4865POPC   C2B22472  39.132  41.799   8.250
 4865POPC   C3B22473  39.050  41.732   7.950
 4865POPC   C4B22474  39.127  41.812   7.650
 4866POPC   NC322475  19.032   7.404   9.450
 4866POPC   PO422476  19.091   7.449   9.150
 4866POPC   GL122477  19.051   7.400   8.850
 4866POPC   GL222478  18.974   7.268   8.850
 4866POPC   C1A22479  19.077   7.393   8.550
 4866POPC   D2A22480  19.103   7.379   8.250
 4866POPC   C3A22481  19.073   7.426   7.950
 4866POPC   C4A22482  19.050   7.442   7.650
 4866POPC   C1B22483  18.963   7.225   8.550
 4866POPC   C2B22484  18.896   7.225   8.250
 4866POPC   C3B22485  18.967   7.185   7.950
 4866POPC   C4B22486  18.936   7.223   7.650
 4867POPC   NC322487  39.183  32.243   9.450
 4867POPC   PO422488  39.255  32.295   9.150
 4867POPC   GL122489  39.192  32.289   8.850
 4867POPC   GL222490  39.235  32.350   8.850
 4867POPC   C1A22491  39.255  32.242   8.550
 4867POPC   D2A22492  39.206  32.243   8.250
 4867POPC   C3A22493  39.268  32.206   7.950
 4867POPC   C4A22494  39.191  32.253   7.650
 4867POPC   C1B22495  39.313  32.504   8.550
 4867POPC   C2B22496  39.359  32.443   8.250
 4867POPC   C3B22497  39.302  32.473   7.950
 4867POPC   C4B22498  39.293  32.470   7.650
 4868POPC   NC322499   4.335   1.972   9.450
 4868POPC   PO422500   4.352   2.002   9.150
 4868POPC   GL122501   4.366   1.969   8.850
 4868POPC   GL222502   4.153   1.984   8.850
 4868POPC   C1A22503   4.324   2.001   8.550
 4868POPC   D2A22504   4.341   1.945   8.250
 4868POPC   C3A22505   4.277   2.015   7.950
 4868POPC   C4A22506   4.328   2.034   7.650
 4868POPC   C1B22507   4.057   2.025   8.550
 4868POPC   C2B22508   4.060   1.973   8.250
 4868POPC   C3B22509   4.035   1.951   7.950
 4868POPC   C4B22510   4.085   1.938   7.650
 4869POPC   NC322511  21.373  14.382   9.450
 4869POPC   PO422512  21.413  14.375   9.150
 4869POPC   GL122513  21.382  14.366   8.850
 4869POPC   GL222514  21.305  14.272   8.850
 4869POPC   C1A22515  21.352  14.365   8.550
 4869POPC   D2A22516  21.363  14.393   8.250
 4869POPC   C3A22517  21.353  14.410   7.950
 4869POPC   C4A22518  21.414  14.362   7.650
 4869POPC   C1B22519  21.232  14.184   8.550
 4869POPC   C2B22520  21.307  14.183   8.250
 4869POPC   C3B22521  21.263  14.175   7.950
 4869POPC   C4B22522  21.264  14.168   7.650
 4870POPC   NC322523  29.139   3.583   9.450
 4870POPC   PO422524  29.151   3.571   9.150
 4870POPC   GL122525  29.158   3.511   8.850
 4870POPC   GL222526  29.062   3.492   8.850
 4870POPC   C1A22527  29.144   3.517   8.550
 4870POPC   D2A22528  29.182   3.547   8.250
 4870POPC   C3A22529  29.099   3.543   7.950
 4870POPC   C4A22530  29.166   3.559   7.650
 4870POPC   C1B22531  28.949   3.479   8.550
 4870POPC   C2B22532  28.940   3.507   8.250
 4870POPC   C3B22533  28.926   3.499   7.950
 4870POPC   C4B22534  28.947   3.501   7.650
 4871POPC   NC322535  12.859  33.071   9.450
 4871POPC   PO422536  12.859  32.978   9.150
 4871POPC   GL122537  12.877  32.982   8.850
 4871POPC   GL222538  12.938  33.025   8.850
 4871POPC   C1A22539  12.893  33.058   8.550
 4871POPC   D2A22540  12.808  32.992   8.250
 4871POPC   C3A22541  12.860  33.064   7.950
 4871POPC   C4A22542  12.813  33.035   7.650
 4871POPC   C1B22543  13.094  32.982   8.550
 4871POPC   C2B22544  13.144  33.044   8.250
 4871POPC   C3B22545  13.068  33.069   7.950
 4871POPC   C4B22546  13.128  33.072   7.650
 4872POPC   NC322547  28.405  24.516   9.450
 4872POPC   PO422548  28.404  24.529   9.150
 4872POPC   GL122549  28.386  24.518   8.850
 4872POPC   GL222550  28.349  24.411   8.850
 4872POPC   C1A22551  28.356  24.453   8.550
 4872POPC   D2A22552  28.333  24.489   8.250
 4872POPC   C3A22553  28.383  24.449   7.950
 4872POPC   C4A22554  28.390  24.497   7.650
 4872POPC   C1B22555  28.440  24.201   8.550
 4872POPC   C2B22556  28.399  24.268   8.250
 4872POPC   C3B22557  28.411  24.198   7.950
 4872POPC   C4B22558  28.368  24.273   7.650
 4873POPC   NC322559  18.273   2.750   9.450
 4873POPC   PO422560  18.301   2.773   9.150
 4873POPC   GL122561  18.314   2.807   8.850
 4873POPC   GL222562  18.324   2.665   8.850
 4873POPC   C1A22563  18.270   2.790   8.550
 4873POPC   D2A22564  18.291   2.801   8.250
 4873POPC   C3A22565  18.294   2.723   7.950
 4873POPC   C4A22566  18.296   2.738   7.650
 4873POPC   C1B22567  18.371   2.558   8.550
 4873POPC   C2B22568  18.411   2.557   8.250
 4873POPC   C3B22569  18.402   2.528   7.950
 4873POPC   C4B22570  18.362   2.548   7.650
 4874POPC   NC322571  41.534  11.347   9.450
 4874POPC   PO422572  41.548  11.265   9.150
 4874POPC   GL122573  41.577  11.277   8.850
 4874POPC   GL222574  41.622  11.385   8.850
 4874POPC   C1A22575  41.597  11.256   8.550
 4874POPC   D2A22576  41.514  11.336   8.250
 4874POPC   C3A22577  41.579  11.335   7.950
 4874POPC   C4A22578  41.562  11.332   7.650
 4874POPC   C1B22579  41.686  11.566   8.550
 4874POPC   C2B22580  41.677  11.561   8.250
 4874POPC   C3B22581  41.726  11.565   7.950
 4874POPC   C4B22582  41.648  11.508   7.650
 4875POPC   NC322583  34.549  40.745   9.450
 4875POPC   PO422584  34.610  40.733   9.150
 4875POPC   GL122585  34.565  40.798   8.850
 4875POPC   GL222586  34.472  40.773   8.850
 4875POPC   C1A22587  34.605  40.738   8.550
 4875POPC   D2A22588  34.535  40.819   8.250
 4875POPC   C3A22589  34.549  40.738   7.950
 4875POPC   C4A22590  34.577  40.789   7.650
 4875POPC   C1B22591  34.378  40.872   8.550
 4875POPC   C2B22592  34.316  40.834   8.250
 4875POPC   C3B22593  34.342  40.856   7.950
 4875POPC   C4B22594  34.327  40.835   7.650
 4876POPC   NC322595  20.561  12.893   9.450
 4876POPC   PO422596  20.627  12.849   9.150
 4876POPC   GL122597  20.571  12.814   8.850
 4876POPC   GL222598  20.549  12.983   8.850
 4876POPC   C1A22599  20.627  12.832   8.550
 4876POPC   D2A22600  20.589  12.829   8.250
 4876POPC   C3A22601  20.619  12.816   7.950
 4876POPC   C4A22602  20.605  12.842   7.650
 4876POPC   C1B22603  20.421  13.025   8.550
 4876POPC   C2B22604  20.415  13.069   8.250
 4876POPC   C3B22605  20.472  13.031   7.950
 4876POPC   C4B22606  20.430  13.080   7.650
 4877POPC   NC322607   3.578  37.688   9.450
 4877POPC   PO422608   3.516  37.707   9.150
 4877POPC   GL122609   3.538  37.686   8.850
 4877POPC   GL222610   3.401  37.698   8.850
 4877POPC   C1A22611   3.527  37.690   8.550
 4877POPC   D2A22612   3.533  37.659   8.250
 4877POPC   C3A22613   3.500  37.718   7.950
 4877POPC   C4A22614   3.518  37.673   7.650
 4877POPC   C1B22615   3.255  37.673   8.550
 4877POPC   C2B22616   3.254  37.610   8.250
 4877POPC   C3B22617   3.279  37.613   7.950
 4877POPC   C4B22618   3.299  37.667   7.650
 4878POPC   NC322619  42.322   6.608   9.450
 4878POPC   PO422620  42.334   6.655   9.150
 4878POPC   GL122621  42.372   6.597   8.850
 4878POPC   GL222622  42.204   6.611   8.850
 4878POPC   C1A22623  42.305   6.662   8.550
 4878POPC   D2A22624  42.361   6.612   8.250
 4878POPC   C3A22625  42.369   6.667   7.950
 4878POPC   C4A22626  42.344   6.605   7.650
 4878POPC   C1B22627  42.125   6.537   8.550
 4878POPC   C2B22628  42.142   6.541   8.250
 4878POPC   C3B22629  42.093   6.536   7.950
 4878POPC   C4B22630  42.111   6.531   7.650
 4879POPC   NC322631  35.343  26.053   9.450
 4879POPC   PO422632  35.307  26.067   9.150
 4879POPC   GL122633  35.335  26.044   8.850
 4879POPC   GL222634  35.478  25.947   8.850
 4879POPC   C1A22635  35.316  26.052   8.550
 4879POPC   D2A22636  35.308  25.998   8.250
 4879POPC   C3A22637  35.351  26.059   7.950
 4879POPC   C4A22638  35.311  26.059   7.650
 4879POPC   C1B22639  35.585  25.842   8.550
 4879POPC   C2B22640  35.502  25.856   8.250
 4879POPC   C3B22641  35.573  25.923   7.950
 4879POPC   C4B22642  35.492  25.880   7.650
 4880POPC   NC322643  39.241  27.609   9.450
 4880POPC   PO422644  39.190  27.625   9.150
 4880POPC   GL122645  39.259  27.615   8.850
 4880POPC   GL222646  39.291  27.678   8.850
 4880POPC   C1A22647  39.206  27.604   8.550
 4880POPC   D2A22648  39.239  27.551   8.250
 4880POPC   C3A22649  39.249  27.642   7.950
 4880POPC   C4A22650  39.268  27.627   7.650
 4880POPC   C1B22651  39.361  27.788   8.550
 4880POPC   C2B22652  39.385  27.808   8.250
 4880POPC   C3B22653  39.359  27.811   7.950
 4880POPC   C4B22654  39.362  27.732   7.650
 4881POPC   NC322655  23.672  41.541   9.450
 4881POPC   PO422656  23.689  41.520   9.150
 4881POPC   GL122657  23.673  41.601   8.850
 4881POPC   GL222658  23.636  41.454   8.850
 4881POPC   C1A22659  23.694  41.583   8.550
 4881POPC   D2A22660  23.749  41.515   8.250
 4881POPC   C3A22661  23.687  41.544   7.950
 4881POPC   C4A22662  23.693  41.599   7.650
 4881POPC   C1B22663  23.479  41.402   8.550
 4881POPC   C2B22664  23.545  41.352   8.250
 4881POPC   C3B22665  23.571  41.440   7.950
 4881POPC   C4B22666  23.515  41.394   7.650
 4882POPC   NC322667   5.052  36.157   9.450
 4882POPC   PO422668   5.091  36.092   9.150
 4882POPC   GL122669   5.082  36.102   8.850
 4882POPC   GL222670   4.922  36.188   8.850
 4882POPC   C1A22671   5.058  36.089   8.550
 4882POPC   D2A22672   5.143  36.131   8.250
 4882POPC   C3A22673   5.056  36.142   7.950
 4882POPC   C4A22674   5.070  36.173   7.650
 4882POPC   C1B22675   4.878  36.199   8.550
 4882POPC   C2B22676   4.847  36.147   8.250
 4882POPC   C3B22677   4.881  36.129   7.950
 4882POPC   C4B22678   4.832  36.119   7.650
 4883POPC   NC322679   1.253  33.011   9.450
 4883POPC   PO422680   1.231  33.051   9.150
 4883POPC   GL122681   1.221  32.986   8.850
 4883POPC   GL222682   1.104  32.998   8.850
 4883POPC   C1A22683   1.239  33.017   8.550
 4883POPC   D2A22684   1.202  32.979   8.250
 4883POPC   C3A22685   1.205  33.055   7.950
 4883POPC   C4A22686   1.166  33.017   7.650
 4883POPC   C1B22687   0.928  32.958   8.550
 4883POPC   C2B22688   0.984  32.957   8.250
 4883POPC   C3B22689   0.941  32.947   7.950
 4883POPC   C4B22690   0.980  33.035   7.650
 4884POPC   NC322691  21.385  10.486   9.450
 4884POPC   PO422692  21.349  10.480   9.150
 4884POPC   GL122693  21.366  10.557   8.850
 4884POPC   GL222694  21.259  10.484   8.850
 4884POPC   C1A22695  21.368  10.566   8.550
 4884POPC   D2A22696  21.342  10.549   8.250
 4884POPC   C3A22697  21.408  10.509   7.950
 4884POPC   C4A22698  21.366  10.543   7.650
 4884POPC   C1B22699  21.145  10.471   8.550
 4884POPC   C2B22700  21.176  10.463   8.250
 4884POPC   C3B22701  21.135  10.496   7.950
 4884POPC   C4B22702  21.153  10.458   7.650
 4885POPC   NC322703  44.656   6.602   9.450
 4885POPC   PO422704  44.667   6.636   9.150
 4885POPC   GL122705  44.673   6.671   8.850
 4885POPC   GL222706  44.530   6.687   8.850
 4885POPC   C1A22707  44.688   6.599   8.550
 4885POPC   D2A22708  44.679   6.617   8.250
 4885POPC   C3A22709  44.669   6.618   7.950
 4885POPC   C4A22710  44.626   6.680   7.650
 4885POPC   C1B22711  44.453   6.640   8.550
 4885POPC   C2B22712  44.428   6.644   8.250
 4885POPC   C3B22713  44.445   6.660   7.950
 4885POPC   C4B22714  44.430   6.626   7.650
 4886POPC   NC322715  13.625  34.581   9.450
 4886POPC   PO422716  13.579  34.587   9.150
 4886POPC   GL122717  13.618  34.541   8.850
 4886POPC   GL222718  13.536  34.609   8.850
 4886POPC   C1A22719  13.650  34.526   8.550
 4886POPC   D2A22720  13.599  34.567   8.250
 4886POPC   C3A22721  13.596  34.566   7.950
 4886POPC   C4A22722  13.607  34.613   7.650
 4886POPC   C1B22723  13.340  34.572   8.550
 4886POPC   C2B22724  13.389  34.526   8.250
 4886POPC   C3B22725  13.364  34.511   7.950
 4886POPC   C4B22726  13.337  34.583   7.650
 4887POPC   NC322727  36.952  16.761   9.450
 4887POPC   PO422728  36.910  16.700   9.150
 4887POPC   GL122729  36.860  16.768   8.850
 4887POPC   GL222730  36.856  16.593   8.850
 4887POPC   C1A22731  36.856  16.692   8.550
 4887POPC   D2A22732  36.936  16.685   8.250
 4887POPC   C3A22733  36.861  16.718   7.950
 4887POPC   C4A22734  36.870  16.747   7.650
 4887POPC   C1B22735  36.819  16.527   8.550
 4887POPC   C2B22736  36.867  16.469   8.250
 4887POPC   C3B22737  36.864  16.520   7.950
 4887POPC   C4B22738  36.838  16.500   7.650
 4888POPC   NC322739  20.645  39.961   9.450
 4888POPC   PO422740  20.659  39.996   9.150
 4888POPC   GL122741  20.573  40.034   8.850
 4888POPC   GL222742  20.623  39.930   8.850
 4888POPC   C1A22743  20.643  40.051   8.550
 4888POPC   D2A22744  20.585  39.963   8.250
 4888POPC   C3A22745  20.578  40.037   7.950
 4888POPC   C4A22746  20.603  39.976   7.650
 4888POPC   C1B22747  20.643  39.721   8.550
 4888POPC   C2B22748  20.711  39.756   8.250
 4888POPC   C3B22749  20.686  39.780   7.950
 4888POPC   C4B22750  20.682  39.733   7.650
 4889POPC   NC322751  30.741  20.656   9.450
 4889POPC   PO422752  30.667  20.644   9.150
 4889POPC   GL122753  30.647  20.611   8.850
 4889POPC   GL222754  30.710  20.452   8.850
 4889POPC   C1A22755  30.716  20.632   8.550
 4889POPC   D2A22756  30.726  20.623   8.250
 4889POPC   C3A22757  30.703  20.649   7.950
 4889POPC   C4A22758  30.657  20.589   7.650
 4889POPC   C1B22759  30.627  20.399   8.550
 4889POPC   C2B22760  30.638  20.397   8.250
 4889POPC   C3B22761  30.675  20.317   7.950
 4889POPC   C4B22762  30.609  20.343   7.650
 4890POPC   NC322763   8.159  37.652   9.450
 4890POPC   PO422764   8.226  37.695   9.150
 4890POPC   GL122765   8.230  37.682   8.850
 4890POPC   GL222766   8.291  37.787   8.850
 4890POPC   C1A22767   8.208  37.694   8.550
 4890POPC   D2A22768   8.210  37.666   8.250
 4890POPC   C3A22769   8.164  37.704   7.950
 4890POPC   C4A22770   8.195  37.663   7.650
 4890POPC   C1B22771   8.337  37.866   8.550
 4890POPC   C2B22772   8.325  37.887   8.250
 4890POPC   C3B22773   8.383  37.880   7.950
 4890POPC   C4B22774   8.344  37.898   7.650
 4891POPC   NC322775  19.065  28.365   9.450
 4891POPC   PO422776  19.014  28.338   9.150
 4891POPC   GL122777  19.012  28.374   8.850
 4891POPC   GL222778  18.943  28.476   8.850
 4891POPC   C1A22779  19.062  28.330   8.550
 4891POPC   D2A22780  19.044  28.374   8.250
 4891POPC   C3A22781  19.038  28.381   7.950
 4891POPC   C4A22782  19.081  28.352   7.650
 4891POPC   C1B22783  18.827  28.577   8.550
 4891POPC   C2B22784  18.834  28.542   8.250
 4891POPC   C3B22785  18.834  28.511   7.950
 4891POPC   C4B22786  18.910  28.513   7.650
 4892POPC   NC322787  44.637   2.722   9.450
 4892POPC   PO422788  44.674   2.785   9.150
 4892POPC   GL122789  44.689   2.777   8.850
 4892POPC   GL222790  44.568   2.905   8.850
 4892POPC   C1A22791  44.626   2.726   8.550
 4892POPC   D2A22792  44.645   2.780   8.250
 4892POPC   C3A22793  44.627   2.732   7.950
 4892POPC   C4A22794  44.621   2.765   7.650
 4892POPC   C1B22795  44.508   2.984   8.550
 4892POPC   C2B22796  44.533   3.014   8.250
 4892POPC   C3B22797  44.564   2.968   7.950
 4892POPC   C4B22798  44.525   3.001   7.650
 4893POPC   NC322799  33.001  10.529   9.450
 4893POPC   PO422800  32.995  10.494   9.150
 4893POPC   GL122801  33.007  10.522   8.850
 4893POPC   GL222802  33.135  10.591   8.850
 4893POPC   C1A22803  33.033  10.509   8.550
 4893POPC   D2A22804  33.033  10.530   8.250
 4893POPC   C3A22805  33.058  10.512   7.950
 4893POPC   C4A22806  33.012  10.531   7.650
 4893POPC   C1B22807  33.143  10.723   8.550
 4893POPC   C2B22808  33.148  10.724   8.250
 4893POPC   C3B22809  33.188  10.692   7.950
 4893POPC   C4B22810  33.199  10.712   7.650
 4894POPC   NC322811   9.020  43.849   9.450
 4894POPC   PO422812   8.967  43.903   9.150
 4894POPC   GL122813   9.009  43.911   8.850
 4894POPC   GL222814   8.832  43.960   8.850
 4894POPC   C1A22815   8.975  43.930   8.550
 4894POPC   D2A22816   8.966  43.877   8.250
 4894POPC   C3A22817   8.932  43.852   7.950
 4894POPC   C4A22818   8.952  43.908   7.650
 4894POPC   C1B22819   8.731  43.947   8.550
 4894POPC   C2B22820   8.752  43.976   8.250
 4894POPC   C3B22821   8.720  43.902   7.950
 4894POPC   C4B22822   8.746  43.949   7.650
 4895POPC   NC322823  20.646  15.963   9.450
 4895POPC   PO422824  20.643  15.996   9.150
 4895POPC   GL122825  20.658  15.991   8.850
 4895POPC   GL222826  20.612  16.056   8.850
 4895POPC   C1A22827  20.643  15.930   8.550
 4895POPC   D2A22828  20.567  15.995   8.250
 4895POPC   C3A22829  20.660  16.002   7.950
 4895POPC   C4A22830  20.629  15.928   7.650
 4895POPC   C1B22831  20.553  16.227   8.550
 4895POPC   C2B22832  20.546  16.234   8.250
 4895POPC   C3B22833  20.571  16.247   7.950
 4895POPC   C4B22834  20.577  16.222   7.650
 4896POPC   NC322835  42.373  43.919   9.450
 4896POPC   PO422836  42.313  43.888   9.150
 4896POPC   GL122837  42.343  43.868   8.850
 4896POPC   GL222838  42.214  43.948   8.850
 4896POPC   C1A22839  42.384  43.846   8.550
 4896POPC   D2A22840  42.324  43.863   8.250
 4896POPC   C3A22841  42.309  43.838   7.950
 4896POPC   C4A22842  42.383  43.904   7.650
 4896POPC   C1B22843  42.074  43.951   8.550
 4896POPC   C2B22844  42.126  43.954   8.250
 4896POPC   C3B22845  42.077  43.938   7.950
 4896POPC   C4B22846  42.147  43.942   7.650
 4897POPC   NC322847  20.622   2.735   9.450
 4897POPC   PO422848  20.625   2.746   9.150
 4897POPC   GL122849  20.568   2.789   8.850
 4897POPC   GL222850  20.636   2.600   8.850
 4897POPC   C1A22851  20.587   2.805   8.550
 4897POPC   D2A22852  20.598   2.729   8.250
 4897POPC   C3A22853  20.580   2.724   7.950
 4897POPC   C4A22854  20.580   2.716   7.650
 4897POPC   C1B22855  20.616   2.515   8.550
 4897POPC   C2B22856  20.613   2.530   8.250
 4897POPC   C3B22857  20.549   2.472   7.950
 4897POPC   C4B22858  20.548   2.514   7.650
 4898POPC   NC322859  35.376  29.173   9.450
 4898POPC   PO422860  35.350  29.169   9.150
 4898POPC   GL122861  35.341  29.189   8.850
 4898POPC   GL222862  35.453  29.101   8.850
 4898POPC   C1A22863  35.394  29.168   8.550
 4898POPC   D2A22864  35.368  29.179   8.250
 4898POPC   C3A22865  35.327  29.171   7.950
 4898POPC   C4A22866  35.356  29.109   7.650
 4898POPC   C1B22867  35.623  29.073   8.550
 4898POPC   C2B22868  35.614  29.006   8.250
 4898POPC   C3B22869  35.580  29.069   7.950
 4898POPC   C4B22870  35.600  29.002   7.650
 4899POPC   NC322871  43.145  31.507   9.450
 4899POPC   PO422872  43.115  31.472   9.150
 4899POPC   GL122873  43.083  31.503   8.850
 4899POPC   GL222874  43.043  31.568   8.850
 4899POPC   C1A22875  43.145  31.442   8.550
 4899POPC   D2A22876  43.094  31.461   8.250
 4899POPC   C3A22877  43.065  31.514   7.950
 4899POPC   C4A22878  43.119  31.490   7.650
 4899POPC   C1B22879  42.979  31.649   8.550
 4899POPC   C2B22880  42.926  31.725   8.250
 4899POPC   C3B22881  43.014  31.642   7.950
 4899POPC   C4B22882  43.012  31.635   7.650
 4900POPC   NC322883  23.668  27.597   9.450
 4900POPC   PO422884  23.703  27.588   9.150
 4900POPC   GL122885  23.693  27.573   8.850
 4900POPC   GL222886  23.641  27.570   8.850
 4900POPC   C1A22887  23.720  27.603   8.550
 4900POPC   D2A22888  23.665  27.610   8.250
 4900POPC   C3A22889  23.694  27.548   7.950
 4900POPC   C4A22890  23.750  27.602   7.650
 4900POPC   C1B22891  23.482  27.509   8.550
 4900POPC   C2B22892  23.492  27.538   8.250
 4900POPC   C3B22893  23.460  27.461   7.950
 4900POPC   C4B22894  23.517  27.446   7.650
 4901POPC   NC322895  29.954   5.115   9.450
 4901POPC   PO422896  29.947   5.113   9.150
 4901POPC   GL122897  29.944   5.057   8.850
 4901POPC   GL222898  29.829   5.184   8.850
 4901POPC   C1A22899  29.946   5.086   8.550
 4901POPC   D2A22900  29.938   5.103   8.250
 4901POPC   C3A22901  29.876   5.106   7.950
 4901POPC   C4A22902  29.958   5.091   7.650
 4901POPC   C1B22903  29.812   5.354   8.550
 4901POPC   C2B22904  29.794   5.321   8.250
 4901POPC   C3B22905  29.823   5.294   7.950
 4901POPC   C4B22906  29.773   5.363   7.650
 4902POPC   NC322907   5.836  44.675   9.450
 4902POPC   PO422908   5.918  44.643   9.150
 4902POPC   GL122909   5.897  44.655   8.850
 4902POPC   GL222910   5.972  44.701   8.850
 4902POPC   C1A22911   5.826  44.657   8.550
 4902POPC   D2A22912   5.907  44.620   8.250
 4902POPC   C3A22913   5.907  44.649   7.950
 4902POPC   C4A22914   5.836  44.638   7.650
 4902POPC   C1B22915   6.117  44.665   8.550
 4902POPC   C2B22916   6.076  44.664   8.250
 4902POPC   C3B22917   6.075  44.639   7.950
 4902POPC   C4B22918   6.070  44.711   7.650
 4903POPC   NC322919   1.234  18.309   9.450
 4903POPC   PO422920   1.246  18.313   9.150
 4903POPC   GL122921   1.256  18.270   8.850
 4903POPC   GL222922   1.076  18.326   8.850
 4903POPC   C1A22923   1.211  18.295   8.550
 4903POPC   D2A22924   1.261  18.248   8.250
 4903POPC   C3A22925   1.212  18.307   7.950
 4903POPC   C4A22926   1.173  18.279   7.650
 4903POPC   C1B22927   0.927  18.307   8.550
 4903POPC   C2B22928   0.939  18.305   8.250
 4903POPC   C3B22929   0.920  18.300   7.950
 4903POPC   C4B22930   0.992  18.334   7.650
 4904POPC   NC322931  18.308  15.191   9.450
 4904POPC   PO422932  18.302  15.140   9.150
 4904POPC   GL122933  18.236  15.161   8.850
 4904POPC   GL222934  18.302  15.311   8.850
 4904POPC   C1A22935  18.298  15.138   8.550
 4904POPC   D2A22936  18.321  15.166   8.250
 4904POPC   C3A22937  18.306  15.189   7.950
 4904POPC   C4A22938  18.234  15.181   7.650
 4904POPC   C1B22939  18.338  15.422   8.550
 4904POPC   C2B22940  18.341  15.439   8.250
 4904POPC   C3B22941  18.349  15.381   7.950
 4904POPC   C4B22942  18.350  15.369   7.650
 4905POPC   NC322943   5.891  36.117   9.450
 4905POPC   PO422944   5.876  36.116   9.150
 4905POPC   GL122945   5.880  36.167   8.850
 4905POPC   GL222946   5.890  35.981   8.850
 4905POPC   C1A22947   5.863  36.090   8.550
 4905POPC   D2A22948   5.914  36.156   8.250
 4905POPC   C3A22949   5.889  36.135   7.950
 4905POPC   C4A22950   5.880  36.154   7.650
 4905POPC   C1B22951   5.804  35.838   8.550
 4905POPC   C2B22952   5.815  35.866   8.250
 4905POPC   C3B22953   5.802  35.894   7.950
 4905POPC   C4B22954   5.857  35.846   7.650
 4906POPC   NC322955  33.810   6.615   9.450
 4906POPC   PO422956  33.814   6.639   9.150
 4906POPC   GL122957  33.752   6.686   8.850
 4906POPC   GL222958  33.846   6.505   8.850
 4906POPC   C1A22959  33.803   6.617   8.550
 4906POPC   D2A22960  33.793   6.659   8.250
 4906POPC   C3A22961  33.760   6.664   7.950
 4906POPC   C4A22962  33.839   6.620   7.650
 4906POPC   C1B22963  33.775   6.414   8.550
 4906POPC   C2B22964  33.778   6.404   8.250
 4906POPC   C3B22965  33.848   6.428   7.950
 4906POPC   C4B22966  33.768   6.352   7.650
 4907POPC   NC322967  43.859  13.653   9.450
 4907POPC   PO422968  43.932  13.591   9.150
 4907POPC   GL122969  43.877  13.675   8.850
 4907POPC   GL222970  44.001  13.574   8.850
 4907POPC   C1A22971  43.847  13.663   8.550
 4907POPC   D2A22972  43.910  13.600   8.250
 4907POPC   C3A22973  43.926  13.597   7.950
 4907POPC   C4A22974  43.844  13.581   7.650
 4907POPC   C1B22975  44.127  13.577   8.550
 4907POPC   C2B22976  44.102  13.526   8.250
 4907POPC   C3B22977  44.147  13.531   7.950
 4907POPC   C4B22978  44.116  13.490   7.650
 4908POPC   NC322979   7.401   9.754   9.450
 4908POPC   PO422980   7.382   9.726   9.150
 4908POPC   GL122981   7.386   9.752   8.850
 4908POPC   GL222982   7.301   9.811   8.850
 4908POPC   C1A22983   7.389   9.704   8.550
 4908POPC   D2A22984   7.468   9.775   8.250
 4908POPC   C3A22985   7.392   9.738   7.950
 4908POPC   C4A22986   7.432   9.756   7.650
 4908POPC   C1B22987   7.249   9.966   8.550
 4908POPC   C2B22988   7.245   9.929   8.250
 4908POPC   C3B22989   7.204   9.871   7.950
 4908POPC   C4B22990   7.218   9.919   7.650
 4909POPC   NC322991  38.411  26.829   9.450
 4909POPC   PO422992  38.416  26.792   9.150
 4909POPC   GL122993  38.431  26.823   8.850
 4909POPC   GL222994  38.347  26.774   8.850
 4909POPC   C1A22995  38.433  26.769   8.550
 4909POPC   D2A22996  38.419  26.858   8.250
 4909POPC   C3A22997  38.478  26.840   7.950
 4909POPC   C4A22998  38.483  26.835   7.650
 4909POPC   C1B22999  38.202  26.760   8.550
 4909POPC   C2B23000  38.248  26.840   8.250
 4909POPC   C3B23001  38.161  26.840   7.950
 4909POPC   C4B23002  38.248  26.829   7.650
 4910POPC   NC323003  26.043  37.724   9.450
 4910POPC   PO423004  26.065  37.699   9.150
 4910POPC   GL123005  26.022  37.648   8.850
 4910POPC   GL223006  26.146  37.610   8.850
 4910POPC   C1A23007  26.046  37.699   8.550
 4910POPC   D2A23008  26.051  37.685   8.250
 4910POPC   C3A23009  26.033  37.672   7.950
 4910POPC   C4A23010  25.997  37.666   7.650
 4910POPC   C1B23011  26.291  37.652   8.550
 4910POPC   C2B23012  26.303  37.639   8.250
 4910POPC   C3B23013  26.291  37.623   7.950
 4910POPC   C4B23014  26.236  37.606   7.650
 4911POPC   NC323015  12.106  13.599   9.450
 4911POPC   PO423016  12.065  13.610   9.150
 4911POPC   GL123017  12.112  13.578   8.850
 4911POPC   GL223018  11.942  13.756   8.850
 4911POPC   C1A23019  12.053  13.587   8.550
 4911POPC   D2A23020  12.109  13.594   8.250
 4911POPC   C3A23021  12.032  13.647   7.950
 4911POPC   C4A23022  12.060  13.669   7.650
 4911POPC   C1B23023  11.920  13.806   8.550
 4911POPC   C2B23024  11.896  13.746   8.250
 4911POPC   C3B23025  11.889  13.806   7.950
 4911POPC   C4B23026  11.891  13.769   7.650
 4912POPC   NC323027  17.524  29.194   9.450
 4912POPC   PO423028  17.487  29.182   9.150
 4912POPC   GL123029  17.475  29.174   8.850
 4912POPC   GL223030  17.480  29.060   8.850
 4912POPC   C1A23031  17.476  29.192   8.550
 4912POPC   D2A23032  17.473  29.194   8.250
 4912POPC   C3A23033  17.512  29.146   7.950
 4912POPC   C4A23034  17.495  29.167   7.650
 4912POPC   C1B23035  17.403  28.929   8.550
 4912POPC   C2B23036  17.389  28.908   8.250
 4912POPC   C3B23037  17.438  28.877   7.950
 4912POPC   C4B23038  17.411  28.929   7.650
 4913POPC   NC323039  38.444  34.601   9.450
 4913POPC   PO423040  38.474  34.620   9.150
 4913POPC   GL123041  38.457  34.567   8.850
 4913POPC   GL223042  38.505  34.684   8.850
 4913POPC   C1A23043  38.504  34.556   8.550
 4913POPC   D2A23044  38.431  34.532   8.250
 4913POPC   C3A23045  38.449  34.613   7.950
 4913POPC   C4A23046  38.432  34.559   7.650
 4913POPC   C1B23047  38.556  34.821   8.550
 4913POPC   C2B23048  38.565  34.803   8.250
 4913POPC   C3B23049  38.571  34.779   7.950
 4913POPC   C4B23050  38.508  34.833   7.650
 4914POPC   NC323051  22.976   3.551   9.450
 4914POPC   PO423052  22.895   3.553   9.150
 4914POPC   GL123053  22.955   3.530   8.850
 4914POPC   GL223054  22.987   3.407   8.850
 4914POPC   C1A23055  22.898   3.552   8.550
 4914POPC   D2A23056  22.977   3.573   8.250
 4914POPC   C3A23057  22.889   3.530   7.950
 4914POPC   C4A23058  22.900   3.539   7.650
 4914POPC   C1B23059  23.050   3.341   8.550
 4914POPC   C2B23060  23.051   3.345   8.250
 4914POPC   C3B23061  23.037   3.271   7.950
 4914POPC   C4B23062  22.987   3.350   7.650
 4915POPC   NC323063  44.627  22.983   9.450
 4915POPC   PO423064  44.631  22.888   9.150
 4915POPC   GL123065  44.702  22.919   8.850
 4915POPC   GL223066  44.571  22.954   8.850
 4915POPC   C1A23067  44.707  22.934   8.550
 4915POPC   D2A23068  44.624  22.904   8.250
 4915POPC   C3A23069  44.698  22.906   7.950
 4915POPC   C4A23070  44.676  22.955   7.650
 4915POPC   C1B23071  44.477  23.061   8.550
 4915POPC   C2B23072  44.444  23.056   8.250
 4915POPC   C3B23073  44.484  23.072   7.950
 4915POPC   C4B23074  44.476  23.033   7.650
 4916POPC   NC323075  26.027   9.709   9.450
 4916POPC   PO423076  26.023   9.789   9.150
 4916POPC   GL123077  26.031   9.748   8.850
 4916POPC   GL223078  25.893   9.722   8.850
 4916POPC   C1A23079  26.037   9.757   8.550
 4916POPC   D2A23080  26.046   9.747   8.250
 4916POPC   C3A23081  26.045   9.755   7.950
 4916POPC   C4A23082  26.060   9.740   7.650
 4916POPC   C1B23083  25.880   9.611   8.550
 4916POPC   C2B23084  25.877   9.621   8.250
 4916POPC   C3B23085  25.847   9.588   7.950
 4916POPC   C4B23086  25.844   9.597   7.650
 4917POPC   NC323087   9.778  32.267   9.450
 4917POPC   PO423088   9.784  32.293   9.150
 4917POPC   GL123089   9.793  32.271   8.850
 4917POPC   GL223090   9.913  32.275   8.850
 4917POPC   C1A23091   9.716  32.263   8.550
 4917POPC   D2A23092   9.787  32.291   8.250
 4917POPC   C3A23093   9.771  32.246   7.950
 4917POPC   C4A23094   9.736  32.260   7.650
 4917POPC   C1B23095   9.930  32.350   8.550
 4917POPC   C2B23096  10.019  32.364   8.250
 4917POPC   C3B23097  10.006  32.369   7.950
 4917POPC   C4B23098   9.955  32.369   7.650
 4918POPC   NC323099   0.408   8.244   9.450
 4918POPC   PO423100   0.428   8.153   9.150
 4918POPC   GL123101   0.448   8.190   8.850
 4918POPC   GL223102   0.408   8.057   8.850
 4918POPC   C1A23103   0.478   8.218   8.550
 4918POPC   D2A23104   0.395   8.191   8.250
 4918POPC   C3A23105   0.463   8.158   7.950
 4918POPC   C4A23106   0.429   8.203   7.650
 4918POPC   C1B23107   0.380   7.972   8.550
 4918POPC   C2B23108   0.399   7.982   8.250
 4918POPC   C3B23109   0.436   7.996   7.950
 4918POPC   C4B23110   0.428   7.920   7.650
 4919POPC   NC323111  17.519  13.581   9.450
 4919POPC   PO423112  17.527  13.583   9.150
 4919POPC   GL123113  17.488  13.620   8.850
 4919POPC   GL223114  17.552  13.710   8.850
 4919POPC   C1A23115  17.495  13.580   8.550
 4919POPC   D2A23116  17.524  13.611   8.250
 4919POPC   C3A23117  17.556  13.597   7.950
 4919POPC   C4A23118  17.510  13.645   7.650
 4919POPC   C1B23119  17.458  13.842   8.550
 4919POPC   C2B23120  17.462  13.900   8.250
 4919POPC   C3B23121  17.490  13.898   7.950
 4919POPC   C4B23122  17.519  13.829   7.650
 4920POPC   NC323123  42.351  12.899   9.450
 4920POPC   PO423124  42.337  12.819   9.150
 4920POPC   GL123125  42.375  12.876   8.850
 4920POPC   GL223126  42.346  12.728   8.850
 4920POPC   C1A23127  42.347  12.882   8.550
 4920POPC   D2A23128  42.370  12.840   8.250
 4920POPC   C3A23129  42.339  12.815   7.950
 4920POPC   C4A23130  42.354  12.837   7.650
 4920POPC   C1B23131  42.345  12.592   8.550
 4920POPC   C2B23132  42.365  12.586   8.250
 4920POPC   C3B23133  42.368  12.615   7.950
 4920POPC   C4B23134  42.344  12.625   7.650
 4921POPC   NC323135   2.008  30.722   9.450
 4921POPC   PO423136   1.967  30.649   9.150
 4921POPC   GL123137   2.004  30.670   8.850
 4921POPC   GL223138   2.024  30.576   8.850
 4921POPC   C1A23139   1.952  30.733   8.550
 4921POPC   D2A23140   1.984  30.735   8.250
 4921POPC   C3A23141   1.961  30.681   7.950
 4921POPC   C4A23142   2.011  30.707   7.650
 4921POPC   C1B23143   2.006  30.487   8.550
 4921POPC   C2B23144   2.018  30.425   8.250
 4921POPC   C3B23145   2.024  30.444   7.950
 4921POPC   C4B23146   2.004  30.453   7.650
 4922POPC   NC323147  15.924  22.971   9.450
 4922POPC   PO423148  15.918  22.934   9.150
 4922POPC   GL123149  15.986  22.960   8.850
 4922POPC   GL223150  15.872  23.011   8.850
 4922POPC   C1A23151  15.965  22.979   8.550
 4922POPC   D2A23152  15.947  22.950   8.250
 4922POPC   C3A23153  15.996  22.949   7.950
 4922POPC   C4A23154  15.914  22.985   7.650
 4922POPC   C1B23155  15.856  23.159   8.550
 4922POPC   C2B23156  15.859  23.176   8.250
 4922POPC   C3B23157  15.924  23.212   7.950
 4922POPC   C4B23158  15.891  23.165   7.650
 4923POPC   NC323159  14.393  33.833   9.450
 4923POPC   PO423160  14.372  33.796   9.150
 4923POPC   GL123161  14.417  33.845   8.850
 4923POPC   GL223162  14.498  33.835   8.850
 4923POPC   C1A23163  14.452  33.806   8.550
 4923POPC   D2A23164  14.355  33.771   8.250
 4923POPC   C3A23165  14.453  33.812   7.950
 4923POPC   C4A23166  14.382  33.798   7.650
 4923POPC   C1B23167  14.622  33.937   8.550
 4923POPC   C2B23168  14.627  33.919   8.250
 4923POPC   C3B23169  14.619  33.859   7.950
 4923POPC   C4B23170  14.585  33.856   7.650
 4924POPC   NC323171  12.899  16.772   9.450
 4924POPC   PO423172  12.820  16.719   9.150
 4924POPC   GL123173  12.891  16.740   8.850
 4924POPC   GL223174  12.951  16.776   8.850
 4924POPC   C1A23175  12.872  16.766   8.550
 4924POPC   D2A23176  12.830  16.764   8.250
 4924POPC   C3A23177  12.819  16.756   7.950
 4924POPC   C4A23178  12.840  16.753   7.650
 4924POPC   C1B23179  13.075  16.896   8.550
 4924POPC   C2B23180  13.092  16.814   8.250
 4924POPC   C3B23181  13.082  16.826   7.950
 4924POPC   C4B23182  13.041  16.841   7.650
 4925POPC   NC323183  21.424  28.404   9.450
 4925POPC   PO423184  21.427  28.401   9.150
 4925POPC   GL123185  21.379  28.353   8.850
 4925POPC   GL223186  21.328  28.498   8.850
 4925POPC   C1A23187  21.384  28.357   8.550
 4925POPC   D2A23188  21.401  28.338   8.250
 4925POPC   C3A23189  21.400  28.343   7.950
 4925POPC   C4A23190  21.388  28.322   7.650
 4925POPC   C1B23191  21.249  28.591   8.550
 4925POPC   C2B23192  21.278  28.621   8.250
 4925POPC   C3B23193  21.266  28.552   7.950
 4925POPC   C4B23194  21.329  28.612   7.650
 4926POPC   NC323195  29.174  25.216   9.450
 4926POPC   PO423196  29.133  25.230   9.150
 4926POPC   GL123197  29.155  25.218   8.850
 4926POPC   GL223198  29.185  25.419   8.850
 4926POPC   C1A23199  29.190  25.231   8.550
 4926POPC   D2A23200  29.181  25.230   8.250
 4926POPC   C3A23201  29.126  25.280   7.950
 4926POPC   C4A23202  29.127  25.250   7.650
 4926POPC   C1B23203  29.208  25.484   8.550
 4926POPC   C2B23204  29.226  25.506   8.250
 4926POPC   C3B23205  29.193  25.555   7.950
 4926POPC   C4B23206  29.174  25.465   7.650
 4927POPC   NC323207  13.670  24.485   9.450
 4927POPC   PO423208  13.658  24.510   9.150
 4927POPC   GL123209  13.620  24.478   8.850
 4927POPC   GL223210  13.579  24.399   8.850
 4927POPC   C1A23211  13.677  24.522   8.550
 4927POPC   D2A23212  13.630  24.450   8.250
 4927POPC   C3A23213  13.582  24.498   7.950
 4927POPC   C4A23214  13.579  24.492   7.650
 4927POPC   C1B23215  13.448  24.347   8.550
 4927POPC   C2B23216  13.464  24.275   8.250
 4927POPC   C3B23217  13.499  24.302   7.950
 4927POPC   C4B23218  13.435  24.344   7.650
 4928POPC   NC323219  15.153  20.614   9.450
 4928POPC   PO423220  15.149  20.630   9.150
 4928POPC   GL123221  15.191  20.596   8.850
 4928POPC   GL223222  15.283  20.539   8.850
 4928POPC   C1A23223  15.163  20.614   8.550
 4928POPC   D2A23224  15.216  20.598   8.250
 4928POPC   C3A23225  15.142  20.614   7.950
 4928POPC   C4A23226  15.157  20.625   7.650
 4928POPC   C1B23227  15.462  20.516   8.550
 4928POPC   C2B23228  15.410  20.511   8.250
 4928POPC   C3B23229  15.390  20.527   7.950
 4928POPC   C4B23230  15.397  20.566   7.650
 4929POPC   NC323231  29.937  22.155   9.450
 4929POPC   PO423232  29.947  22.206   9.150
 4929POPC   GL123233  29.898  22.128   8.850
 4929POPC   GL223234  30.023  22.289   8.850
 4929POPC   C1A23235  29.898  22.178   8.550
 4929POPC   D2A23236  29.957  22.201   8.250
 4929POPC   C3A23237  29.922  22.157   7.950
 4929POPC   C4A23238  29.924  22.200   7.650
 4929POPC   C1B23239  30.029  22.318   8.550
 4929POPC   C2B23240  30.033  22.322   8.250
 4929POPC   C3B23241  30.104  22.381   7.950
 4929POPC   C4B23242  30.033  22.395   7.650
 4930POPC   NC323243  39.213   0.476   9.450
 4930POPC   PO423244  39.277   0.442   9.150
 4930POPC   GL123245  39.227   0.429   8.850
 4930POPC   GL223246  39.399   0.443   8.850
 4930POPC   C1A23247  39.237   0.458   8.550
 4930POPC   D2A23248  39.267   0.395   8.250
 4930POPC   C3A23249  39.261   0.418   7.950
 4930POPC   C4A23250  39.247   0.478   7.650
 4930POPC   C1B23251  39.498   0.446   8.550
 4930POPC   C2B23252  39.489   0.427   8.250
 4930POPC   C3B23253  39.447   0.493   7.950
 4930POPC   C4B23254  39.521   0.474   7.650
 4931POPC   NC323255  16.733  11.300   9.450
 4931POPC   PO423256  16.748  11.265   9.150
 4931POPC   GL123257  16.703  11.314   8.850
 4931POPC   GL223258  16.710  11.459   8.850
 4931POPC   C1A23259  16.748  11.275   8.550
 4931POPC   D2A23260  16.726  11.271   8.250
 4931POPC   C3A23261  16.760  11.281   7.950
 4931POPC   C4A23262  16.775  11.275   7.650
 4931POPC   C1B23263  16.592  11.509   8.550
 4931POPC   C2B23264  16.668  11.492   8.250
 4931POPC   C3B23265  16.599  11.486   7.950
 4931POPC   C4B23266  16.600  11.553   7.650
 4932POPC   NC323267  14.362  43.842   9.450
 4932POPC   PO423268  14.362  43.935   9.150
 4932POPC   GL123269  14.408  43.931   8.850
 4932POPC   GL223270  14.283  43.886   8.850
 4932POPC   C1A23271  14.365  43.900   8.550
 4932POPC   D2A23272  14.452  43.902   8.250
 4932POPC   C3A23273  14.405  43.869   7.950
 4932POPC   C4A23274  14.451  43.875   7.650
 4932POPC   C1B23275  14.124  43.834   8.550
 4932POPC   C2B23276  14.137  43.831   8.250
 4932POPC   C3B23277  14.160  43.879   7.950
 4932POPC   C4B23278  14.145  43.894   7.650
 4933POPC   NC323279  19.086   5.887   9.450
 4933POPC   PO423280  19.069   5.869   9.150
 4933POPC   GL123281  19.010   5.915   8.850
 4933POPC   GL223282  19.118   6.014   8.850
 4933POPC   C1A23283  19.083   5.835   8.550
 4933POPC   D2A23284  19.084   5.887   8.250
 4933POPC   C3A23285  19.047   5.898   7.950
 4933POPC   C4A23286  19.092   5.840   7.650
 4933POPC   C1B23287  19.148   6.099   8.550
 4933POPC   C2B23288  19.116   6.133   8.250
 4933POPC   C3B23289  19.121   6.079   7.950
 4933POPC   C4B23290  19.088   6.125   7.650
 4934POPC   NC323291  20.635  44.661   9.450
 4934POPC   PO423292  20.622  44.679   9.150
 4934POPC   GL123293  20.606  44.621   8.850
 4934POPC   GL223294  20.641  44.524   8.850
 4934POPC   C1A23295  20.647  44.681   8.550
 4934POPC   D2A23296  20.645  44.675   8.250
 4934POPC   C3A23297  20.581  44.639   7.950
 4934POPC   C4A23298  20.618  44.661   7.650
 4934POPC   C1B23299  20.588  44.452   8.550
 4934POPC   C2B23300  20.569  44.397   8.250
 4934POPC   C3B23301  20.615  44.420   7.950
 4934POPC   C4B23302  20.618  44.454   7.650
 4935POPC   NC323303  40.816  38.407   9.450
 4935POPC   PO423304  40.746  38.472   9.150
 4935POPC   GL123305  40.757  38.455   8.850
 4935POPC   GL223306  40.749  38.552   8.850
 4935POPC   C1A23307  40.736  38.470   8.550
 4935POPC   D2A23308  40.798  38.465   8.250
 4935POPC   C3A23309  40.798  38.439   7.950
 4935POPC   C4A23310  40.781  38.408   7.650
 4935POPC   C1B23311  40.780  38.688   8.550
 4935POPC   C2B23312  40.801  38.733   8.250
 4935POPC   C3B23313  40.788  38.698   7.950
 4935POPC   C4B23314  40.758  38.660   7.650
 4936POPC   NC323315  34.609  33.847   9.450
 4936POPC   PO423316  34.626  33.802   9.150
 4936POPC   GL123317  34.538  33.831   8.850
 4936POPC   GL223318  34.676  33.736   8.850
 4936POPC   C1A23319  34.594  33.769   8.550
 4936POPC   D2A23320  34.534  33.844   8.250
 4936POPC   C3A23321  34.621  33.762   7.950
 4936POPC   C4A23322  34.592  33.796   7.650
 4936POPC   C1B23323  34.831  33.652   8.550
 4936POPC   C2B23324  34.754  33.637   8.250
 4936POPC   C3B23325  34.749  33.704   7.950
 4936POPC   C4B23326  34.782  33.664   7.650
 4937POPC   NC323327  13.593  21.353   9.450
 4937POPC   PO423328  13.661  21.402   9.150
 4937POPC   GL123329  13.600  21.339   8.850
 4937POPC   GL223330  13.655  21.253   8.850
 4937POPC   C1A23331  13.582  21.337   8.550
 4937POPC   D2A23332  13.659  21.361   8.250
 4937POPC   C3A23333  13.635  21.411   7.950
 4937POPC   C4A23334  13.643  21.423   7.650
 4937POPC   C1B23335  13.684  21.131   8.550
 4937POPC   C2B23336  13.689  21.138   8.250
 4937POPC   C3B23337  13.671  21.141   7.950
 4937POPC   C4B23338  13.679  21.118   7.650
 4938POPC   NC323339  19.845  12.825   9.450
 4938POPC   PO423340  19.879  12.891   9.150
 4938POPC   GL123341  19.795  12.863   8.850
 4938POPC   GL223342  19.830  12.925   8.850
 4938POPC   C1A23343  19.838  12.857   8.550
 4938POPC   D2A23344  19.827  12.899   8.250
 4938POPC   C3A23345  19.818  12.830   7.950
 4938POPC   C4A23346  19.812  12.894   7.650
 4938POPC   C1B23347  19.827  13.093   8.550
 4938POPC   C2B23348  19.751  13.102   8.250
 4938POPC   C3B23349  19.767  13.060   7.950
 4938POPC   C4B23350  19.747  13.069   7.650
 4939POPC   NC323351   5.915  17.553   9.450
 4939POPC   PO423352   5.851  17.513   9.150
 4939POPC   GL123353   5.850  17.535   8.850
 4939POPC   GL223354   6.002  17.481   8.850
 4939POPC   C1A23355   5.898  17.527   8.550
 4939POPC   D2A23356   5.857  17.501   8.250
 4939POPC   C3A23357   5.853  17.495   7.950
 4939POPC   C4A23358   5.852  17.525   7.650
 4939POPC   C1B23359   6.165  17.468   8.550
 4939POPC   C2B23360   6.095  17.501   8.250
 4939POPC   C3B23361   6.084  17.503   7.950
 4939POPC   C4B23362   6.095  17.559   7.650
 4940POPC   NC323363  36.859  19.828   9.450
 4940POPC   PO423364  36.885  19.875   9.150
 4940POPC   GL123365  36.900  19.866   8.850
 4940POPC   GL223366  36.879  19.754   8.850
 4940POPC   C1A23367  36.903  19.795   8.550
 4940POPC   D2A23368  36.924  19.880   8.250
 4940POPC   C3A23369  36.872  19.810   7.950
 4940POPC   C4A23370  36.855  19.795   7.650
 4940POPC   C1B23371  37.000  19.568   8.550
 4940POPC   C2B23372  36.956  19.558   8.250
 4940POPC   C3B23373  36.994  19.639   7.950
 4940POPC   C4B23374  36.995  19.590   7.650
 4941POPC   NC323375  29.936  11.310   9.450
 4941POPC   PO423376  29.954  11.284   9.150
 4941POPC   GL123377  29.953  11.269   8.850
 4941POPC   GL223378  29.864  11.434   8.850
 4941POPC   C1A23379  29.920  11.345   8.550
 4941POPC   D2A23380  29.949  11.328   8.250
 4941POPC   C3A23381  29.885  11.270   7.950
 4941POPC   C4A23382  29.876  11.271   7.650
 4941POPC   C1B23383  29.765  11.463   8.550
 4941POPC   C2B23384  29.804  11.541   8.250
 4941POPC   C3B23385  29.734  11.483   7.950
 4941POPC   C4B23386  29.797  11.479   7.650
 4942POPC   NC323387  29.931   7.453   9.450
 4942POPC   PO423388  29.881   7.373   9.150
 4942POPC   GL123389  29.905   7.461   8.850
 4942POPC   GL223390  29.796   7.501   8.850
 4942POPC   C1A23391  29.901   7.428   8.550
 4942POPC   D2A23392  29.915   7.451   8.250
 4942POPC   C3A23393  29.943   7.374   7.950
 4942POPC   C4A23394  29.935   7.401   7.650
 4942POPC   C1B23395  29.695   7.528   8.550
 4942POPC   C2B23396  29.747   7.580   8.250
 4942POPC   C3B23397  29.757   7.531   7.950
 4942POPC   C4B23398  29.681   7.592   7.650
 4943POPC   NC323399  29.183  42.342   9.450
 4943POPC   PO423400  29.173  42.365   9.150
 4943POPC   GL123401  29.157  42.379   8.850
 4943POPC   GL223402  29.257  42.348   8.850
 4943POPC   C1A23403  29.123  42.377   8.550
 4943POPC   D2A23404  29.159  42.362   8.250
 4943POPC   C3A23405  29.145  42.315   7.950
 4943POPC   C4A23406  29.138  42.359   7.650
 4943POPC   C1B23407  29.443  42.318   8.550
 4943POPC   C2B23408  29.384  42.324   8.250
 4943POPC   C3B23409  29.432  42.298   7.950
 4943POPC   C4B23410  29.391  42.272   7.650
 4944POPC   NC323411  33.816   8.965   9.450
 4944POPC   PO423412  33.764   8.994   9.150
 4944POPC   GL123413  33.816   8.998   8.850
 4944POPC   GL223414  33.636   8.966   8.850
 4944POPC   C1A23415  33.843   8.994   8.550
 4944POPC   D2A23416  33.815   9.020   8.250
 4944POPC   C3A23417  33.792   8.975   7.950
 4944POPC   C4A23418  33.825   9.014   7.650
 4944POPC   C1B23419  33.513   9.049   8.550
 4944POPC   C2B23420  33.598   8.984   8.250
 4944POPC   C3B23421  33.605   8.976   7.950
 4944POPC   C4B23422  33.516   9.036   7.650
 4945POPC   NC323423   5.055  20.592   9.450
 4945POPC   PO423424   5.098  20.610   9.150
 4945POPC   GL123425   5.109  20.588   8.850
 4945POPC   GL223426   5.132  20.673   8.850
 4945POPC   C1A23427   5.121  20.601   8.550
 4945POPC   D2A23428   5.119  20.569   8.250
 4945POPC   C3A23429   5.094  20.635   7.950
 4945POPC   C4A23430   5.049  20.650   7.650
 4945POPC   C1B23431   5.243  20.790   8.550
 4945POPC   C2B23432   5.213  20.769   8.250
 4945POPC   C3B23433   5.275  20.769   7.950
 4945POPC   C4B23434   5.271  20.830   7.650
 4946POPC   NC323435  29.145  30.648   9.450
 4946POPC   PO423436  29.110  30.681   9.150
 4946POPC   GL123437  29.191  30.684   8.850
 4946POPC   GL223438  29.274  30.740   8.850
 4946POPC   C1A23439  29.112  30.662   8.550
 4946POPC   D2A23440  29.184  30.731   8.250
 4946POPC   C3A23441  29.191  30.677   7.950
 4946POPC   C4A23442  29.165  30.730   7.650
 4946POPC   C1B23443  29.346  30.849   8.550
 4946POPC   C2B23444  29.372  30.756   8.250
 4946POPC   C3B23445  29.362  30.771   7.950
 4946POPC   C4B23446  29.336  30.791   7.650
 4947POPC   NC323447   9.779  22.123   9.450
 4947POPC   PO423448   9.711  22.156   9.150
 4947POPC   GL123449   9.759  22.182   8.850
 4947POPC   GL223450   9.690  22.057   8.850
 4947POPC   C1A23451   9.791  22.166   8.550
 4947POPC   D2A23452   9.744  22.144   8.250
 4947POPC   C3A23453   9.786  22.150   7.950
 4947POPC   C4A23454   9.744  22.174   7.650
 4947POPC   C1B23455   9.512  22.034   8.550
 4947POPC   C2B23456   9.574  22.048   8.250
 4947POPC   C3B23457   9.506  22.043   7.950
 4947POPC   C4B23458   9.524  22.029   7.650
 4948POPC   NC323459   8.999  31.515   9.450
 4948POPC   PO423460   8.941  31.441   9.150
 4948POPC   GL123461   9.019  31.474   8.850
 4948POPC   GL223462   8.857  31.474   8.850
 4948POPC   C1A23463   8.941  31.436   8.550
 4948POPC   D2A23464   8.964  31.451   8.250
 4948POPC   C3A23465   8.949  31.432   7.950
 4948POPC   C4A23466   8.947  31.429   7.650
 4948POPC   C1B23467   8.713  31.496   8.550
 4948POPC   C2B23468   8.710  31.507   8.250
 4948POPC   C3B23469   8.703  31.545   7.950
 4948POPC   C4B23470   8.738  31.513   7.650
 4949POPC   NC323471  31.443  33.016   9.450
 4949POPC   PO423472  31.471  32.992   9.150
 4949POPC   GL123473  31.464  33.028   8.850
 4949POPC   GL223474  31.499  33.144   8.850
 4949POPC   C1A23475  31.495  33.064   8.550
 4949POPC   D2A23476  31.485  33.019   8.250
 4949POPC   C3A23477  31.502  32.997   7.950
 4949POPC   C4A23478  31.446  33.038   7.650
 4949POPC   C1B23479  31.485  33.282   8.550
 4949POPC   C2B23480  31.435  33.287   8.250
 4949POPC   C3B23481  31.436  33.300   7.950
 4949POPC   C4B23482  31.496  33.298   7.650
 4950POPC   NC323483  19.871  40.001   9.450
 4950POPC   PO423484  19.876  40.043   9.150
 4950POPC   GL123485  19.831  40.042   8.850
 4950POPC   GL223486  19.908  40.114   8.850
 4950POPC   C1A23487  19.815  39.962   8.550
 4950POPC   D2A23488  19.854  39.987   8.250
 4950POPC   C3A23489  19.827  40.009   7.950
 4950POPC   C4A23490  19.788  40.043   7.650
 4950POPC   C1B23491  19.932  40.256   8.550
 4950POPC   C2B23492  20.000  40.186   8.250
 4950POPC   C3B23493  20.006  40.248   7.950
 4950POPC   C4B23494  19.933  40.211   7.650
 4951POPC   NC323495  39.243  19.814   9.450
 4951POPC   PO423496  39.208  19.854   9.150
 4951POPC   GL123497  39.245  19.812   8.850
 4951POPC   GL223498  39.188  19.978   8.850
 4951POPC   C1A23499  39.263  19.791   8.550
 4951POPC   D2A23500  39.249  19.808   8.250
 4951POPC   C3A23501  39.195  19.832   7.950
 4951POPC   C4A23502  39.197  19.835   7.650
 4951POPC   C1B23503  39.231  20.069   8.550
 4951POPC   C2B23504  39.180  20.044   8.250
 4951POPC   C3B23505  39.195  20.105   7.950
 4951POPC   C4B23506  39.197  20.056   7.650
 4952POPC   NC323507  10.484   8.943   9.450
 4952POPC   PO423508  10.481   8.931   9.150
 4952POPC   GL123509  10.541   8.944   8.850
 4952POPC   GL223510  10.584   8.834   8.850
 4952POPC   C1A23511  10.567   8.980   8.550
 4952POPC   D2A23512  10.548   8.987   8.250
 4952POPC   C3A23513  10.532   8.997   7.950
 4952POPC   C4A23514  10.558   8.985   7.650
 4952POPC   C1B23515  10.619   8.779   8.550
 4952POPC   C2B23516  10.578   8.733   8.250
 4952POPC   C3B23517  10.632   8.778   7.950
 4952POPC   C4B23518  10.625   8.778   7.650
 4953POPC   NC323519  18.328  35.316   9.450
 4953POPC   PO423520  18.273  35.346   9.150
 4953POPC   GL123521  18.255  35.317   8.850
 4953POPC   GL223522  18.252  35.448   8.850
 4953POPC   C1A23523  18.321  35.305   8.550
 4953POPC   D2A23524  18.291  35.385   8.250
 4953POPC   C3A23525  18.303  35.368   7.950
 4953POPC   C4A23526  18.235  35.308   7.650
 4953POPC   C1B23527  18.100  35.530   8.550
 4953POPC   C2B23528  18.150  35.507   8.250
 4953POPC   C3B23529  18.167  35.589   7.950
 4953POPC   C4B23530  18.169  35.517   7.650
 4954POPC   NC323531  11.298  40.008   9.450
 4954POPC   PO423532  11.270  40.029   9.150
 4954POPC   GL123533  11.281  39.971   8.850
 4954POPC   GL223534  11.348  39.884   8.850
 4954POPC   C1A23535  11.328  39.972   8.550
 4954POPC   D2A23536  11.259  39.987   8.250
 4954POPC   C3A23537  11.348  39.973   7.950
 4954POPC   C4A23538  11.324  39.974   7.650
 4954POPC   C1B23539  11.494  39.832   8.550
 4954POPC   C2B23540  11.522  39.849   8.250
 4954POPC   C3B23541  11.498  39.831   7.950
 4954POPC   C4B23542  11.473  39.810   7.650
 4955POPC   NC323543  22.981   5.132   9.450
 4955POPC   PO423544  22.906   5.098   9.150
 4955POPC   GL123545  22.930   5.052   8.850
 4955POPC   GL223546  22.927   5.259   8.850
 4955POPC   C1A23547  22.986   5.107   8.550
 4955POPC   D2A23548  22.894   5.125   8.250
 4955POPC   C3A23549  22.978   5.077   7.950
 4955POPC   C4A23550  22.969   5.070   7.650
 4955POPC   C1B23551  22.976   5.310   8.550
 4955POPC   C2B23552  22.995   5.293   8.250
 4955POPC   C3B23553  22.964   5.306   7.950
 4955POPC   C4B23554  23.002   5.380   7.650
 4956POPC   NC323555  13.640  12.047   9.450
 4956POPC   PO423556  13.597  12.041   9.150
 4956POPC   GL123557  13.635  12.065   8.850
 4956POPC   GL223558  13.719  12.059   8.850
 4956POPC   C1A23559  13.601  12.058   8.550
 4956POPC   D2A23560  13.658  12.114   8.250
 4956POPC   C3A23561  13.669  12.067   7.950
 4956POPC   C4A23562  13.644  12.099   7.650
 4956POPC   C1B23563  13.895  12.124   8.550
 4956POPC   C2B23564  13.851  12.151   8.250
 4956POPC   C3B23565  13.835  12.167   7.950
 4956POPC   C4B23566  13.879  12.095   7.650
 4957POPC   NC323567  43.091   3.515   9.450
 4957POPC   PO423568  43.104   3.572   9.150
 4957POPC   GL123569  43.147   3.530   8.850
 4957POPC   GL223570  43.150   3.695   8.850
 4957POPC   C1A23571  43.085   3.537   8.550
 4957POPC   D2A23572  43.085   3.560   8.250
 4957POPC   C3A23573  43.084   3.519   7.950
 4957POPC   C4A23574  43.116   3.520   7.650
 4957POPC   C1B23575  43.089   3.758   8.550
 4957POPC   C2B23576  43.172   3.776   8.250
 4957POPC   C3B23577  43.132   3.839   7.950
 4957POPC   C4B23578  43.146   3.774   7.650
 4958POPC   NC323579  34.603  26.802   9.450
 4958POPC   PO423580  34.560  26.777   9.150
 4958POPC   GL123581  34.564  26.805   8.850
 4958POPC   GL223582  34.568  26.687   8.850
 4958POPC   C1A23583  34.550  26.842   8.550
 4958POPC   D2A23584  34.558  26.809   8.250
 4958POPC   C3A23585  34.533  26.775   7.950
 4958POPC   C4A23586  34.581  26.772   7.650
 4958POPC   C1B23587  34.596  26.575   8.550
 4958POPC   C2B23588  34.544  26.616   8.250
 4958POPC   C3B23589  34.542  26.545   7.950
 4958POPC   C4B23590  34.587  26.555   7.650
 4959POPC   NC323591  42.335  32.214   9.450
 4959POPC   PO423592  42.294  32.277   9.150
 4959POPC   GL123593  42.315  32.270   8.850
 4959POPC   GL223594  42.373  32.328   8.850
 4959POPC   C1A23595  42.310  32.222   8.550
 4959POPC   D2A23596  42.377  32.238   8.250
 4959POPC   C3A23597  42.380  32.259   7.950
 4959POPC   C4A23598  42.324  32.258   7.650
 4959POPC   C1B23599  42.317  32.544   8.550
 4959POPC   C2B23600  42.302  32.545   8.250
 4959POPC   C3B23601  42.304  32.471   7.950
 4959POPC   C4B23602  42.339  32.528   7.650
 4960POPC   NC323603  41.572  32.999   9.450
 4960POPC   PO423604  41.571  32.996   9.150
 4960POPC   GL123605  41.550  33.058   8.850
 4960POPC   GL223606  41.566  33.103   8.850
 4960POPC   C1A23607  41.525  33.074   8.550
 4960POPC   D2A23608  41.600  33.028   8.250
 4960POPC   C3A23609  41.530  32.995   7.950
 4960POPC   C4A23610  41.554  32.990   7.650
 4960POPC   C1B23611  41.613  33.316   8.550
 4960POPC   C2B23612  41.605  33.298   8.250
 4960POPC   C3B23613  41.522  33.254   7.950
 4960POPC   C4B23614  41.589  33.243   7.650
 4961POPC   NC323615  42.364   8.197   9.450
 4961POPC   PO423616  42.285   8.191   9.150
 4961POPC   GL123617  42.315   8.240   8.850
 4961POPC   GL223618  42.414   8.110   8.850
 4961POPC   C1A23619  42.367   8.218   8.550
 4961POPC   D2A23620  42.361   8.161   8.250
 4961POPC   C3A23621  42.384   8.165   7.950
 4961POPC   C4A23622  42.323   8.167   7.650
 4961POPC   C1B23623  42.506   8.003   8.550
 4961POPC   C2B23624  42.436   7.940   8.250
 4961POPC   C3B23625  42.500   7.982   7.950
 4961POPC   C4B23626  42.480   7.958   7.650
 4962POPC   NC323627  43.133  40.052   9.450
 4962POPC   PO423628  43.064  40.019   9.150
 4962POPC   GL123629  43.089  39.968   8.850
 4962POPC   GL223630  43.085  39.903   8.850
 4962POPC   C1A23631  43.144  39.985   8.550
 4962POPC   D2A23632  43.144  39.967   8.250
 4962POPC   C3A23633  43.078  40.051   7.950
 4962POPC   C4A23634  43.065  39.990   7.650
 4962POPC   C1B23635  43.069  39.799   8.550
 4962POPC   C2B23636  43.037  39.798   8.250
 4962POPC   C3B23637  43.028  39.758   7.950
 4962POPC   C4B23638  43.011  39.776   7.650
 4963POPC   NC323639   0.472  29.118   9.450
 4963POPC   PO423640   0.427  29.185   9.150
 4963POPC   GL123641   0.402  29.163   8.850
 4963POPC   GL223642   0.473  29.017   8.850
 4963POPC   C1A23643   0.390  29.186   8.550
 4963POPC   D2A23644   0.401  29.120   8.250
 4963POPC   C3A23645   0.485  29.167   7.950
 4963POPC   C4A23646   0.477  29.121   7.650
 4963POPC   C1B23647   0.529  28.948   8.550
 4963POPC   C2B23648   0.463  28.876   8.250
 4963POPC   C3B23649   0.519  28.899   7.950
 4963POPC   C4B23650   0.501  28.888   7.650
 4964POPC   NC323651  25.231  26.042   9.450
 4964POPC   PO423652  25.259  26.032   9.150
 4964POPC   GL123653  25.313  26.053   8.850
 4964POPC   GL223654  25.228  26.139   8.850
 4964POPC   C1A23655  25.242  26.023   8.550
 4964POPC   D2A23656  25.289  26.042   8.250
 4964POPC   C3A23657  25.218  26.027   7.950
 4964POPC   C4A23658  25.221  26.024   7.650
 4964POPC   C1B23659  25.178  26.316   8.550
 4964POPC   C2B23660  25.243  26.241   8.250
 4964POPC   C3B23661  25.217  26.253   7.950
 4964POPC   C4B23662  25.214  26.290   7.650
 4965POPC   NC323663   9.780  43.072   9.450
 4965POPC   PO423664   9.785  43.120   9.150
 4965POPC   GL123665   9.770  43.086   8.850
 4965POPC   GL223666   9.609  43.144   8.850
 4965POPC   C1A23667   9.751  43.117   8.550
 4965POPC   D2A23668   9.759  43.108   8.250
 4965POPC   C3A23669   9.727  43.141   7.950
 4965POPC   C4A23670   9.723  43.121   7.650
 4965POPC   C1B23671   9.486  43.169   8.550
 4965POPC   C2B23672   9.478  43.173   8.250
 4965POPC   C3B23673   9.521  43.195   7.950
 4965POPC   C4B23674   9.466  43.135   7.650
 4966POPC   NC323675   0.414  30.677   9.450
 4966POPC   PO423676   0.421  30.664   9.150
 4966POPC   GL123677   0.480  30.654   8.850
 4966POPC   GL223678   0.482  30.841   8.850
 4966POPC   C1A23679   0.458  30.677   8.550
 4966POPC   D2A23680   0.461  30.694   8.250
 4966POPC   C3A23681   0.409  30.723   7.950
 4966POPC   C4A23682   0.399  30.716   7.650
 4966POPC   C1B23683   0.398  30.900   8.550
 4966POPC   C2B23684   0.481  30.983   8.250
 4966POPC   C3B23685   0.468  30.918   7.950
 4966POPC   C4B23686   0.480  30.910   7.650
 4967POPC   NC323687  43.922  11.257   9.450
 4967POPC   PO423688  43.911  11.276   9.150
 4967POPC   GL123689  43.918  11.309   8.850
 4967POPC   GL223690  43.963  11.402   8.850
 4967POPC   C1A23691  43.885  11.252   8.550
 4967POPC   D2A23692  43.901  11.260   8.250
 4967POPC   C3A23693  43.883  11.336   7.950
 4967POPC   C4A23694  43.858  11.336   7.650
 4967POPC   C1B23695  44.117  11.468   8.550
 4967POPC   C2B23696  44.125  11.475   8.250
 4967POPC   C3B23697  44.061  11.442   7.950
 4967POPC   C4B23698  44.056  11.428   7.650
 4968POPC   NC323699  34.558   3.542   9.450
 4968POPC   PO423700  34.612   3.505   9.150
 4968POPC   GL123701  34.585   3.565   8.850
 4968POPC   GL223702  34.635   3.411   8.850
 4968POPC   C1A23703  34.573   3.497   8.550
 4968POPC   D2A23704  34.562   3.531   8.250
 4968POPC   C3A23705  34.571   3.551   7.950
 4968POPC   C4A23706  34.607   3.527   7.650
 4968POPC   C1B23707  34.679   3.319   8.550
 4968POPC   C2B23708  34.612   3.292   8.250
 4968POPC   C3B23709  34.665   3.306   7.950
 4968POPC   C4B23710  34.602   3.300   7.650
 4969POPC   NC323711  18.245   1.167   9.450
 4969POPC   PO423712  18.303   1.227   9.150
 4969POPC   GL123713  18.252   1.193   8.850
 4969POPC   GL223714  18.147   1.269   8.850
 4969POPC   C1A23715  18.247   1.175   8.550
 4969POPC   D2A23716  18.248   1.193   8.250
 4969POPC   C3A23717  18.247   1.233   7.950
 4969POPC   C4A23718  18.332   1.170   7.650
 4969POPC   C1B23719  18.063   1.372   8.550
 4969POPC   C2B23720  18.034   1.363   8.250
 4969POPC   C3B23721  18.098   1.390   7.950
 4969POPC   C4B23722  18.076   1.346   7.650
 4970POPC   NC323723  32.242  34.573   9.450
 4970POPC   PO423724  32.274  34.563   9.150
 4970POPC   GL123725  32.263  34.559   8.850
 4970POPC   GL223726  32.160  34.723   8.850
 4970POPC   C1A23727  32.202  34.575   8.550
 4970POPC   D2A23728  32.247  34.564   8.250
 4970POPC   C3A23729  32.277  34.557   7.950
 4970POPC   C4A23730  32.295  34.558   7.650
 4970POPC   C1B23731  32.122  34.813   8.550
 4970POPC   C2B23732  32.147  34.759   8.250
 4970POPC   C3B23733  32.118  34.774   7.950
 4970POPC   C4B23734  32.166  34.808   7.650
 4971POPC   NC323735  35.308  22.893   9.450
 4971POPC   PO423736  35.362  22.927   9.150
 4971POPC   GL123737  35.344  22.946   8.850
 4971POPC   GL223738  35.477  22.934   8.850
 4971POPC   C1A23739  35.334  22.959   8.550
 4971POPC   D2A23740  35.323  22.905   8.250
 4971POPC   C3A23741  35.380  22.987   7.950
 4971POPC   C4A23742  35.345  22.889   7.650
 4971POPC   C1B23743  35.631  22.978   8.550
 4971POPC   C2B23744  35.592  23.048   8.250
 4971POPC   C3B23745  35.591  23.065   7.950
 4971POPC   C4B23746  35.613  22.986   7.650
 4972POPC   NC323747  19.070  24.450   9.450
 4972POPC   PO423748  19.058  24.469   9.150
 4972POPC   GL123749  19.040  24.488   8.850
 4972POPC   GL223750  19.173  24.569   8.850
 4972POPC   C1A23751  19.015  24.510   8.550
 4972POPC   D2A23752  19.029  24.497   8.250
 4972POPC   C3A23753  19.079  24.503   7.950
 4972POPC   C4A23754  19.077  24.468   7.650
 4972POPC   C1B23755  19.312  24.582   8.550
 4972POPC   C2B23756  19.235  24.636   8.250
 4972POPC   C3B23757  19.270  24.628   7.950
 4972POPC   C4B23758  19.315  24.603   7.650
 4973POPC   NC323759   8.933  29.182   9.450
 4973POPC   PO423760   8.989  29.193   9.150
 4973POPC   GL123761   8.996  29.119   8.850
 4973POPC   GL223762   8.911  29.180   8.850
 4973POPC   C1A23763   9.008  29.095   8.550
 4973POPC   D2A23764   8.978  29.128   8.250
 4973POPC   C3A23765   8.925  29.136   7.950
 4973POPC   C4A23766   8.953  29.180   7.650
 4973POPC   C1B23767   8.727  29.296   8.550
 4973POPC   C2B23768   8.795  29.323   8.250
 4973POPC   C3B23769   8.807  29.298   7.950
 4973POPC   C4B23770   8.769  29.310   7.650
 4974POPC   NC323771  31.440  38.493   9.450
 4974POPC   PO423772  31.444  38.438   9.150
 4974POPC   GL123773  31.512  38.449   8.850
 4974POPC   GL223774  31.436  38.549   8.850
 4974POPC   C1A23775  31.508  38.458   8.550
 4974POPC   D2A23776  31.454  38.413   8.250
 4974POPC   C3A23777  31.488  38.431   7.950
 4974POPC   C4A23778  31.471  38.431   7.650
 4974POPC   C1B23779  31.313  38.641   8.550
 4974POPC   C2B23780  31.315  38.653   8.250
 4974POPC   C3B23781  31.335  38.686   7.950
 4974POPC   C4B23782  31.353  38.697   7.650
 4975POPC   NC323783  22.117  33.051   9.450
 4975POPC   PO423784  22.195  33.049   9.150
 4975POPC   GL123785  22.123  33.039   8.850
 4975POPC   GL223786  22.253  33.143   8.850
 4975POPC   C1A23787  22.168  32.989   8.550
 4975POPC   D2A23788  22.114  33.049   8.250
 4975POPC   C3A23789  22.174  33.030   7.950
 4975POPC   C4A23790  22.151  33.040   7.650
 4975POPC   C1B23791  22.311  33.257   8.550
 4975POPC   C2B23792  22.355  33.196   8.250
 4975POPC   C3B23793  22.345  33.237   7.950
 4975POPC   C4B23794  22.300  33.215   7.650
 4976POPC   NC323795   2.730   8.207   9.450
 4976POPC   PO423796   2.754   8.162   9.150
 4976POPC   GL123797   2.777   8.219   8.850
 4976POPC   GL223798   2.691   8.203   8.850
 4976POPC   C1A23799   2.719   8.201   8.550
 4976POPC   D2A23800   2.793   8.214   8.250
 4976POPC   C3A23801   2.800   8.211   7.950
 4976POPC   C4A23802   2.792   8.151   7.650
 4976POPC   C1B23803   2.548   8.220   8.550
 4976POPC   C2B23804   2.522   8.198   8.250
 4976POPC   C3B23805   2.509   8.130   7.950
 4976POPC   C4B23806   2.498   8.165   7.650
 4977POPC   NC323807  16.690  25.238   9.450
 4977POPC   PO423808  16.745  25.254   9.150
 4977POPC   GL123809  16.740  25.250   8.850
 4977POPC   GL223810  16.629  25.416   8.850
 4977POPC   C1A23811  16.714  25.222   8.550
 4977POPC   D2A23812  16.774  25.224   8.250
 4977POPC   C3A23813  16.762  25.221   7.950
 4977POPC   C4A23814  16.761  25.267   7.650
 4977POPC   C1B23815  16.601  25.527   8.550
 4977POPC   C2B23816  16.575  25.527   8.250
 4977POPC   C3B23817  16.610  25.490   7.950
 4977POPC   C4B23818  16.654  25.466   7.650
 4978POPC   NC323819  31.478   4.353   9.450
 4978POPC   PO423820  31.429   4.352   9.150
 4978POPC   GL123821  31.506   4.276   8.850
 4978POPC   GL223822  31.608   4.376   8.850
 4978POPC   C1A23823  31.520   4.347   8.550
 4978POPC   D2A23824  31.491   4.347   8.250
 4978POPC   C3A23825  31.460   4.300   7.950
 4978POPC   C4A23826  31.512   4.360   7.650
 4978POPC   C1B23827  31.649   4.437   8.550
 4978POPC   C2B23828  31.655   4.414   8.250
 4978POPC   C3B23829  31.646   4.473   7.950
 4978POPC   C4B23830  31.704   4.443   7.650
 4979POPC   NC323831   2.733  15.210   9.450
 4979POPC   PO423832   2.719  15.220   9.150
 4979POPC   GL123833   2.764  15.144   8.850
 4979POPC   GL223834   2.885  15.222   8.850
 4979POPC   C1A23835   2.768  15.166   8.550
 4979POPC   D2A23836   2.759  15.199   8.250
 4979POPC   C3A23837   2.722  15.147   7.950
 4979POPC   C4A23838   2.751  15.218   7.650
 4979POPC   C1B23839   3.046  15.163   8.550
 4979POPC   C2B23840   3.003  15.223   8.250
 4979POPC   C3B23841   3.064  15.151   7.950
 4979POPC   C4B23842   3.047  15.201   7.650
 4980POPC   NC323843  29.960  21.429   9.450
 4980POPC   PO423844  29.935  21.404   9.150
 4980POPC   GL123845  29.906  21.376   8.850
 4980POPC   GL223846  29.832  21.485   8.850
 4980POPC   C1A23847  29.968  21.386   8.550
 4980POPC   D2A23848  29.948  21.417   8.250
 4980POPC   C3A23849  29.960  21.350   7.950
 4980POPC   C4A23850  29.934  21.410   7.650
 4980POPC   C1B23851  29.710  21.535   8.550
 4980POPC   C2B23852  29.737  21.489   8.250
 4980POPC   C3B23853  29.725  21.525   7.950
 4980POPC   C4B23854  29.656  21.478   7.650
 4981POPC   NC323855   2.804  40.819   9.450
 4981POPC   PO423856   2.814  40.788   9.150
 4981POPC   GL123857   2.788  40.791   8.850
 4981POPC   GL223858   2.908  40.803   8.850
 4981POPC   C1A23859   2.738  40.781   8.550
 4981POPC   D2A23860   2.765  40.756   8.250
 4981POPC   C3A23861   2.749  40.764   7.950
 4981POPC   C4A23862   2.805  40.779   7.650
 4981POPC   C1B23863   3.002  40.924   8.550
 4981POPC   C2B23864   2.994  40.871   8.250
 4981POPC   C3B23865   3.021  40.886   7.950
 4981POPC   C4B23866   2.997  40.853   7.650
 4982POPC   NC323867  24.519  44.698   9.450
 4982POPC   PO423868  24.523  44.620   9.150
 4982POPC   GL123869  24.451  44.623   8.850
 4982POPC   GL223870  24.653  44.716   8.850
 4982POPC   C1A23871  24.474  44.651   8.550
 4982POPC   D2A23872  24.479  44.653   8.250
 4982POPC   C3A23873  24.504  44.665   7.950
 4982POPC   C4A23874  24.535  44.633   7.650
 4982POPC   C1B23875  24.781  44.669   8.550
 4982POPC   C2B23876  24.704  44.662   8.250
 4982POPC   C3B23877  24.706  44.687   7.950
 4982POPC   C4B23878  24.695  44.677   7.650
 4983POPC   NC323879  36.082  23.745   9.450
 4983POPC   PO423880  36.078  23.709   9.150
 4983POPC   GL123881  36.119  23.714   8.850
 4983POPC   GL223882  36.218  23.826   8.850
 4983POPC   C1A23883  36.133  23.683   8.550
 4983POPC   D2A23884  36.116  23.666   8.250
 4983POPC   C3A23885  36.133  23.745   7.950
 4983POPC   C4A23886  36.078  23.719   7.650
 4983POPC   C1B23887  36.284  23.905   8.550
 4983POPC   C2B23888  36.284  23.874   8.250
 4983POPC   C3B23889  36.253  23.916   7.950
 4983POPC   C4B23890  36.303  23.959   7.650
 4984POPC   NC323891  26.796  40.766   9.450
 4984POPC   PO423892  26.859  40.777   9.150
 4984POPC   GL123893  26.771  40.799   8.850
 4984POPC   GL223894  26.742  40.746   8.850
 4984POPC   C1A23895  26.822  40.742   8.550
 4984POPC   D2A23896  26.816  40.796   8.250
 4984POPC   C3A23897  26.783  40.815   7.950
 4984POPC   C4A23898  26.813  40.787   7.650
 4984POPC   C1B23899  26.616  40.593   8.550
 4984POPC   C2B23900  26.632  40.609   8.250
 4984POPC   C3B23901  26.654  40.670   7.950
 4984POPC   C4B23902  26.588  40.618   7.650
 4985POPC   NC323903  13.601  26.772   9.450
 4985POPC   PO423904  13.657  26.835   9.150
 4985POPC   GL123905  13.639  26.845   8.850
 4985POPC   GL223906  13.744  26.698   8.850
 4985POPC   C1A23907  13.677  26.836   8.550
 4985POPC   D2A23908  13.643  26.841   8.250
 4985POPC   C3A23909  13.675  26.806   7.950
 4985POPC   C4A23910  13.583  26.801   7.650
 4985POPC   C1B23911  13.813  26.621   8.550
 4985POPC   C2B23912  13.770  26.623   8.250
 4985POPC   C3B23913  13.842  26.608   7.950
 4985POPC   C4B23914  13.848  26.625   7.650
 4986POPC   NC323915  14.354  29.913   9.450
 4986POPC   PO423916  14.403  29.925   9.150
 4986POPC   GL123917  14.371  29.892   8.850
 4986POPC   GL223918  14.252  29.872   8.850
 4986POPC   C1A23919  14.392  29.892   8.550
 4986POPC   D2A23920  14.431  29.876   8.250
 4986POPC   C3A23921  14.450  29.919   7.950
 4986POPC   C4A23922  14.383  29.931   7.650
 4986POPC   C1B23923  14.210  29.855   8.550
 4986POPC   C2B23924  14.113  29.896   8.250
 4986POPC   C3B23925  14.175  29.892   7.950
 4986POPC   C4B23926  14.128  29.844   7.650
 4987POPC   NC323927  29.896  15.983   9.450
 4987POPC   PO423928  29.961  15.985   9.150
 4987POPC   GL123929  29.930  15.924   8.850
 4987POPC   GL223930  29.839  15.876   8.850
 4987POPC   C1A23931  29.952  15.990   8.550
 4987POPC   D2A23932  29.916  15.916   8.250
 4987POPC   C3A23933  29.908  15.910   7.950
 4987POPC   C4A23934  29.919  15.960   7.650
 4987POPC   C1B23935  29.742  15.859   8.550
 4987POPC   C2B23936  29.745  15.795   8.250
 4987POPC   C3B23937  29.697  15.808   7.950
 4987POPC   C4B23938  29.753  15.812   7.650
 4988POPC   NC323939   9.792  36.173   9.450
 4988POPC   PO423940   9.716  36.085   9.150
 4988POPC   GL123941   9.770  36.092   8.850
 4988POPC   GL223942   9.783  36.260   8.850
 4988POPC   C1A23943   9.757  36.141   8.550
 4988POPC   D2A23944   9.774  36.143   8.250
 4988POPC   C3A23945   9.792  36.115   7.950
 4988POPC   C4A23946   9.724  36.141   7.650
 4988POPC   C1B23947   9.932  36.358   8.550
 4988POPC   C2B23948   9.900  36.328   8.250
 4988POPC   C3B23949   9.932  36.322   7.950
 4988POPC   C4B23950   9.926  36.326   7.650
 4989POPC   NC323951  28.369  17.458   9.450
 4989POPC   PO423952  28.388  17.515   9.150
 4989POPC   GL123953  28.383  17.538   8.850
 4989POPC   GL223954  28.384  17.347   8.850
 4989POPC   C1A23955  28.349  17.538   8.550
 4989POPC   D2A23956  28.404  17.531   8.250
 4989POPC   C3A23957  28.322  17.499   7.950
 4989POPC   C4A23958  28.414  17.499   7.650
 4989POPC   C1B23959  28.402  17.305   8.550
 4989POPC   C2B23960  28.367  17.259   8.250
 4989POPC   C3B23961  28.394  17.309   7.950
 4989POPC   C4B23962  28.413  17.212   7.650
 4990POPC   NC323963  40.775  24.514   9.450
 4990POPC   PO423964  40.788  24.526   9.150
 4990POPC   GL123965  40.782  24.492   8.850
 4990POPC   GL223966  40.624  24.501   8.850
 4990POPC   C1A23967  40.751  24.528   8.550
 4990POPC   D2A23968  40.783  24.518   8.250
 4990POPC   C3A23969  40.751  24.536   7.950
 4990POPC   C4A23970  40.752  24.470   7.650
 4990POPC   C1B23971  40.521  24.431   8.550
 4990POPC   C2B23972  40.492  24.497   8.250
 4990POPC   C3B23973  40.521  24.448   7.950
 4990POPC   C4B23974  40.553  24.511   7.650
 4991POPC   NC323975  29.176  33.811   9.450
 4991POPC   PO423976  29.187  33.768   9.150
 4991POPC   GL123977  29.158  33.844   8.850
 4991POPC   GL223978  29.179  33.875   8.850
 4991POPC   C1A23979  29.189  33.770   8.550
 4991POPC   D2A23980  29.107  33.807   8.250
 4991POPC   C3A23981  29.141  33.796   7.950
 4991POPC   C4A23982  29.101  33.759   7.650
 4991POPC   C1B23983  29.152  34.010   8.550
 4991POPC   C2B23984  29.210  34.027   8.250
 4991POPC   C3B23985  29.156  34.048   7.950
 4991POPC   C4B23986  29.207  34.042   7.650
 4992POPC   NC323987   0.472  14.398   9.450
 4992POPC   PO423988   0.461  14.399   9.150
 4992POPC   GL123989   0.440  14.375   8.850
 4992POPC   GL223990   0.374  14.323   8.850
 4992POPC   C1A23991   0.412  14.404   8.550
 4992POPC   D2A23992   0.471  14.432   8.250
 4992POPC   C3A23993   0.444  14.450   7.950
 4992POPC   C4A23994   0.400  14.377   7.650
 4992POPC   C1B23995   0.268  14.175   8.550
 4992POPC   C2B23996   0.268  14.183   8.250
 4992POPC   C3B23997   0.296  14.203   7.950
 4992POPC   C4B23998   0.299  14.213   7.650
 4993POPC   NC323999  20.567  42.369   9.450
 4993POPC   PO424000  20.625  42.302   9.150
 4993POPC   GL124001  20.652  42.341   8.850
 4993POPC   GL224002  20.503  42.241   8.850
 4993POPC   C1A24003  20.622  42.311   8.550
 4993POPC   D2A24004  20.639  42.287   8.250
 4993POPC   C3A24005  20.640  42.341   7.950
 4993POPC   C4A24006  20.658  42.368   7.650
 4993POPC   C1B24007  20.477  42.103   8.550
 4993POPC   C2B24008  20.484  42.134   8.250
 4993POPC   C3B24009  20.483  42.128   7.950
 4993POPC   C4B24010  20.501  42.132   7.650
 4994POPC   NC324011  41.573  40.803   9.450
 4994POPC   PO424012  41.566  40.760   9.150
 4994POPC   GL124013  41.561  40.831   8.850
 4994POPC   GL224014  41.442  40.684   8.850
 4994POPC   C1A24015  41.512  40.734   8.550
 4994POPC   D2A24016  41.516  40.793   8.250
 4994POPC   C3A24017  41.512  40.829   7.950
 4994POPC   C4A24018  41.600  40.771   7.650
 4994POPC   C1B24019  41.429  40.572   8.550
 4994POPC   C2B24020  41.359  40.557   8.250
 4994POPC   C3B24021  41.380  40.618   7.950
 4994POPC   C4B24022  41.420  40.636   7.650
 4995POPC   NC324023   9.717  19.866   9.450
 4995POPC   PO424024   9.771  19.840   9.150
 4995POPC   GL124025   9.726  19.822   8.850
 4995POPC   GL224026   9.795  19.707   8.850
 4995POPC   C1A24027   9.724  19.832   8.550
 4995POPC   D2A24028   9.783  19.879   8.250
 4995POPC   C3A24029   9.744  19.867   7.950
 4995POPC   C4A24030   9.756  19.874   7.650
 4995POPC   C1B24031   9.914  19.673   8.550
 4995POPC   C2B24032   9.883  19.652   8.250
 4995POPC   C3B24033   9.889  19.674   7.950
 4995POPC   C4B24034   9.901  19.681   7.650
 4996POPC   NC324035  22.967  12.822   9.450
 4996POPC   PO424036  22.912  12.812   9.150
 4996POPC   GL124037  22.985  12.858   8.850
 4996POPC   GL224038  22.979  12.992   8.850
 4996POPC   C1A24039  22.979  12.845   8.550
 4996POPC   D2A24040  22.966  12.841   8.250
 4996POPC   C3A24041  22.892  12.841   7.950
 4996POPC   C4A24042  22.932  12.879   7.650
 4996POPC   C1B24043  22.938  13.080   8.550
 4996POPC   C2B24044  22.982  13.052   8.250
 4996POPC   C3B24045  22.950  13.088   7.950
 4996POPC   C4B24046  22.999  13.068   7.650
 4997POPC   NC324047  22.913  24.509   9.450
 4997POPC   PO424048  22.985  24.509   9.150
 4997POPC   GL124049  22.965  24.503   8.850
 4997POPC   GL224050  22.851  24.483   8.850
 4997POPC   C1A24051  22.980  24.448   8.550
 4997POPC   D2A24052  22.890  24.443   8.250
 4997POPC   C3A24053  22.961  24.483   7.950
 4997POPC   C4A24054  22.894  24.519   7.650
 4997POPC   C1B24055  22.672  24.398   8.550
 4997POPC   C2B24056  22.758  24.419   8.250
 4997POPC   C3B24057  22.747  24.359   7.950
 4997POPC   C4B24058  22.689  24.423   7.650
 4998POPC   NC324059   4.288  20.611   9.450
 4998POPC   PO424060   4.295  20.615   9.150
 4998POPC   GL124061   4.307  20.635   8.850
 4998POPC   GL224062   4.333  20.675   8.850
 4998POPC   C1A24063   4.343  20.633   8.550
 4998POPC   D2A24064   4.335  20.652   8.250
 4998POPC   C3A24065   4.268  20.601   7.950
 4998POPC   C4A24066   4.338  20.623   7.650
 4998POPC   C1B24067   4.473  20.877   8.550
 4998POPC   C2B24068   4.399  20.785   8.250
 4998POPC   C3B24069   4.487  20.804   7.950
 4998POPC   C4B24070   4.473  20.860   7.650
 4999POPC   NC324071   8.987  26.791   9.450
 4999POPC   PO424072   9.013  26.861   9.150
 4999POPC   GL124073   8.948  26.785   8.850
 4999POPC   GL224074   8.846  26.766   8.850
 4999POPC   C1A24075   8.936  26.790   8.550
 4999POPC   D2A24076   8.923  26.852   8.250
 4999POPC   C3A24077   9.019  26.788   7.950
 4999POPC   C4A24078   8.944  26.790   7.650
 4999POPC   C1B24079   8.763  26.670   8.550
 4999POPC   C2B24080   8.822  26.655   8.250
 4999POPC   C3B24081   8.806  26.644   7.950
 4999POPC   C4B24082   8.820  26.581   7.650
 5000POPC   NC324083  31.472  19.789   9.450
 5000POPC   PO424084  31.512  19.878   9.150
 5000POPC   GL124085  31.509  19.802   8.850
 5000POPC   GL224086  31.536  19.726   8.850
 5000POPC   C1A24087  31.474  19.832   8.550
 5000POPC   D2A24088  31.521  19.794   8.250
 5000POPC   C3A24089  31.483  19.833   7.950
 5000POPC   C4A24090  31.509  19.824   7.650
 5000POPC   C1B24091  31.649  19.664   8.550
 5000POPC   C2B24092  31.628  19.593   8.250
 5000POPC   C3B24093  31.607  19.586   7.950
 5000POPC   C4B24094  31.634  19.657   7.650
 5001POPC   NC324095  43.860  40.739   9.450
 5001POPC   PO424096  43.857  40.773   9.150
 5001POPC   GL124097  43.885  40.758   8.850
 5001POPC   GL224098  43.787  40.748   8.850
 5001POPC   C1A24099  43.892  40.742   8.550
 5001POPC   D2A24100  43.864  40.823   8.250
 5001POPC   C3A24101  43.914  40.747   7.950
 5001POPC   C4A24102  43.914  40.794   7.650
 5001POPC   C1B24103  43.679  40.624   8.550
 5001POPC   C2B24104  43.674  40.677   8.250
 5001POPC   C3B24105  43.686  40.639   7.950
 5001POPC   C4B24106  43.701  40.705   7.650
 5002POPC   NC324107  34.621  19.078   9.450
 5002POPC   PO424108  34.579  19.057   9.150
 5002POPC   GL124109  34.526  19.051   8.850
 5002POPC   GL224110  34.566  19.157   8.850
 5002POPC   C1A24111  34.585  19.015   8.550
 5002POPC   D2A24112  34.545  19.056   8.250
 5002POPC   C3A24113  34.543  19.037   7.950
 5002POPC   C4A24114  34.537  19.025   7.650
 5002POPC   C1B24115  34.532  19.291   8.550
 5002POPC   C2B24116  34.572  19.307   8.250
 5002POPC   C3B24117  34.587  19.291   7.950
 5002POPC   C4B24118  34.546  19.347   7.650
 5003POPC   NC324119  40.741  23.732   9.450
 5003POPC   PO424120  40.740  23.746   9.150
 5003POPC   GL124121  40.763  23.719   8.850
 5003POPC   GL224122  40.940  23.781   8.850
 5003POPC   C1A24123  40.757  23.712   8.550
 5003POPC   D2A24124  40.769  23.731   8.250
 5003POPC   C3A24125  40.743  23.735   7.950
 5003POPC   C4A24126  40.772  23.692   7.650
 5003POPC   C1B24127  41.042  23.749   8.550
 5003POPC   C2B24128  41.045  23.826   8.250
 5003POPC   C3B24129  41.071  23.782   7.950
 5003POPC   C4B24130  41.072  23.745   7.650
 5004POPC   NC324131  40.752  15.157   9.450
 5004POPC   PO424132  40.736  15.185   9.150
 5004POPC   GL124133  40.832  15.198   8.850
 5004POPC   GL224134  40.636  15.272   8.850
 5004POPC   C1A24135  40.737  15.225   8.550
 5004POPC   D2A24136  40.783  15.177   8.250
 5004POPC   C3A24137  40.752  15.198   7.950
 5004POPC   C4A24138  40.775  15.180   7.650
 5004POPC   C1B24139  40.604  15.316   8.550
 5004POPC   C2B24140  40.564  15.320   8.250
 5004POPC   C3B24141  40.536  15.294   7.950
 5004POPC   C4B24142  40.514  15.299   7.650
 5005POPC   NC324143   9.778  20.570   9.450
 5005POPC   PO424144   9.769  20.563   9.150
 5005POPC   GL124145   9.795  20.594   8.850
 5005POPC   GL224146   9.647  20.677   8.850
 5005POPC   C1A24147   9.797  20.589   8.550
 5005POPC   D2A24148   9.774  20.637   8.250
 5005POPC   C3A24149   9.752  20.657   7.950
 5005POPC   C4A24150   9.783  20.598   7.650
 5005POPC   C1B24151   9.523  20.696   8.550
 5005POPC   C2B24152   9.546  20.633   8.250
 5005POPC   C3B24153   9.528  20.618   7.950
 5005POPC   C4B24154   9.512  20.695   7.650
 5006POPC   NC324155  40.000  33.042   9.450
 5006POPC   PO424156  39.993  32.992   9.150
 5006POPC   GL124157  39.991  33.029   8.850
 5006POPC   GL224158  39.903  32.975   8.850
 5006POPC   C1A24159  39.963  33.037   8.550
 5006POPC   D2A24160  40.028  33.063   8.250
 5006POPC   C3A24161  40.052  33.010   7.950
 5006POPC   C4A24162  40.040  33.052   7.650
 5006POPC   C1B24163  39.876  32.811   8.550
 5006POPC   C2B24164  39.836  32.857   8.250
 5006POPC   C3B24165  39.859  32.855   7.950
 5006POPC   C4B24166  39.887  32.861   7.650
 5007POPC   NC324167  42.303  44.635   9.450
 5007POPC   PO424168  42.366  44.630   9.150
 5007POPC   GL124169  42.361  44.704   8.850
 5007POPC   GL224170  42.363  44.546   8.850
 5007POPC   C1A24171  42.291  44.710   8.550
 5007POPC   D2A24172  42.357  44.676   8.250
 5007POPC   C3A24173  42.324  44.694   7.950
 5007POPC   C4A24174  42.373  44.698   7.650
 5007POPC   C1B24175  42.362  44.459   8.550
 5007POPC   C2B24176  42.376  44.436   8.250
 5007POPC   C3B24177  42.386  44.389   7.950
 5007POPC   C4B24178  42.341  44.384   7.650
 5008POPC   NC324179   6.621   8.226   9.450
 5008POPC   PO424180   6.673   8.152   9.150
 5008POPC   GL124181   6.682   8.231   8.850
 5008POPC   GL224182   6.556   8.307   8.850
 5008POPC   C1A24183   6.604   8.161   8.550
 5008POPC   D2A24184   6.596   8.204   8.250
 5008POPC   C3A24185   6.611   8.197   7.950
 5008POPC   C4A24186   6.689   8.186   7.650
 5008POPC   C1B24187   6.504   8.376   8.550
 5008POPC   C2B24188   6.551   8.449   8.250
 5008POPC   C3B24189   6.505   8.452   7.950
 5008POPC   C4B24190   6.507   8.450   7.650
 5009POPC   NC324191  33.771  12.818   9.450
 5009POPC   PO424192  33.752  12.815   9.150
 5009POPC   GL124193  33.775  12.873   8.850
 5009POPC   GL224194  33.659  12.770   8.850
 5009POPC   C1A24195  33.788  12.845   8.550
 5009POPC   D2A24196  33.821  12.835   8.250
 5009POPC   C3A24197  33.756  12.897   7.950
 5009POPC   C4A24198  33.788  12.829   7.650
 5009POPC   C1B24199  33.625  12.742   8.550
 5009POPC   C2B24200  33.625  12.755   8.250
 5009POPC   C3B24201  33.632  12.736   7.950
 5009POPC   C4B24202  33.614  12.666   7.650
 5010POPC   NC324203  12.893  20.637   9.450
 5010POPC   PO424204  12.872  20.589   9.150
 5010POPC   GL124205  12.816  20.646   8.850
 5010POPC   GL224206  12.730  20.634   8.850
 5010POPC   C1A24207  12.847  20.657   8.550
 5010POPC   D2A24208  12.850  20.631   8.250
 5010POPC   C3A24209  12.887  20.561   7.950
 5010POPC   C4A24210  12.880  20.654   7.650
 5010POPC   C1B24211  12.576  20.619   8.550
 5010POPC   C2B24212  12.607  20.682   8.250
 5010POPC   C3B24213  12.605  20.604   7.950
 5010POPC   C4B24214  12.575  20.671   7.650
 5011POPC   NC324215  27.582  21.339   9.450
 5011POPC   PO424216  27.605  21.385   9.150
 5011POPC   GL124217  27.549  21.399   8.850
 5011POPC   GL224218  27.534  21.498   8.850
 5011POPC   C1A24219  27.640  21.379   8.550
 5011POPC   D2A24220  27.632  21.409   8.250
 5011POPC   C3A24221  27.547  21.421   7.950
 5011POPC   C4A24222  27.557  21.412   7.650
 5011POPC   C1B24223  27.561  21.584   8.550
 5011POPC   C2B24224  27.531  21.649   8.250
 5011POPC   C3B24225  27.565  21.663   7.950
 5011POPC   C4B24226  27.552  21.600   7.650
 5012POPC   NC324227  25.292   6.616   9.450
 5012POPC   PO424228  25.247   6.673   9.150
 5012POPC   GL124229  25.249   6.679   8.850
 5012POPC   GL224230  25.113   6.652   8.850
 5012POPC   C1A24231  25.262   6.648   8.550
 5012POPC   D2A24232  25.237   6.650   8.250
 5012POPC   C3A24233  25.262   6.677   7.950
 5012POPC   C4A24234  25.248   6.672   7.650
 5012POPC   C1B24235  25.017   6.652   8.550
 5012POPC   C2B24236  24.985   6.613   8.250
 5012POPC   C3B24237  25.033   6.699   7.950
 5012POPC   C4B24238  25.026   6.686   7.650
 5013POPC   NC324239  34.529  30.724   9.450
 5013POPC   PO424240  34.584  30.714   9.150
 5013POPC   GL124241  34.612  30.655   8.850
 5013POPC   GL224242  34.657  30.603   8.850
 5013POPC   C1A24243  34.608  30.653   8.550
 5013POPC   D2A24244  34.586  30.715   8.250
 5013POPC   C3A24245  34.526  30.676   7.950
 5013POPC   C4A24246  34.553  30.669   7.650
 5013POPC   C1B24247  34.837  30.583   8.550
 5013POPC   C2B24248  34.790  30.586   8.250
 5013POPC   C3B24249  34.788  30.587   7.950
 5013POPC   C4B24250  34.790  30.601   7.650
 5014POPC   NC324251  33.064   8.216   9.450
 5014POPC   PO424252  33.048   8.167   9.150
 5014POPC   GL124253  33.001   8.173   8.850
 5014POPC   GL224254  33.033   8.117   8.850
 5014POPC   C1A24255  33.029   8.201   8.550
 5014POPC   D2A24256  33.057   8.182   8.250
 5014POPC   C3A24257  33.039   8.201   7.950
 5014POPC   C4A24258  33.048   8.232   7.650
 5014POPC   C1B24259  33.140   8.008   8.550
 5014POPC   C2B24260  33.110   7.926   8.250
 5014POPC   C3B24261  33.075   7.988   7.950
 5014POPC   C4B24262  33.101   7.960   7.650
 5015POPC   NC324263  12.037  36.923   9.450
 5015POPC   PO424264  12.099  36.857   9.150
 5015POPC   GL124265  12.109  36.860   8.850
 5015POPC   GL224266  12.210  36.819   8.850
 5015POPC   C1A24267  12.123  36.873   8.550
 5015POPC   D2A24268  12.082  36.931   8.250
 5015POPC   C3A24269  12.054  36.885   7.950
 5015POPC   C4A24270  12.051  36.877   7.650
 5015POPC   C1B24271  12.255  36.733   8.550
 5015POPC   C2B24272  12.233  36.744   8.250
 5015POPC   C3B24273  12.302  36.732   7.950
 5015POPC   C4B24274  12.323  36.718   7.650
 5016POPC   NC324275   1.958  10.479   9.450
 5016POPC   PO424276   1.949  10.488   9.150
 5016POPC   GL124277   2.028  10.499   8.850
 5016POPC   GL224278   1.894  10.524   8.850
 5016POPC   C1A24279   1.953  10.553   8.550
 5016POPC   D2A24280   1.983  10.563   8.250
 5016POPC   C3A24281   1.973  10.567   7.950
 5016POPC   C4A24282   1.998  10.571   7.650
 5016POPC   C1B24283   1.741  10.468   8.550
 5016POPC   C2B24284   1.768  10.455   8.250
 5016POPC   C3B24285   1.722  10.469   7.950
 5016POPC   C4B24286   1.719  10.466   7.650
 5017POPC   NC324287  22.925  41.562   9.450
 5017POPC   PO424288  22.928  41.581   9.150
 5017POPC   GL124289  22.905  41.569   8.850
 5017POPC   GL224290  22.973  41.632   8.850
 5017POPC   C1A24291  22.987  41.523   8.550
 5017POPC   D2A24292  22.936  41.524   8.250
 5017POPC   C3A24293  22.897  41.531   7.950
 5017POPC   C4A24294  22.955  41.552   7.650
 5017POPC   C1B24295  23.099  41.748   8.550
 5017POPC   C2B24296  23.053  41.757   8.250
 5017POPC   C3B24297  23.063  41.751   7.950
 5017POPC   C4B24298  23.111  41.801   7.650
 5018POPC   NC324299  32.259  32.240   9.450
 5018POPC   PO424300  32.255  32.262   9.150
 5018POPC   GL124301  32.287  32.250   8.850
 5018POPC   GL224302  32.299  32.343   8.850
 5018POPC   C1A24303  32.290  32.225   8.550
 5018POPC   D2A24304  32.237  32.292   8.250
 5018POPC   C3A24305  32.230  32.240   7.950
 5018POPC   C4A24306  32.265  32.286   7.650
 5018POPC   C1B24307  32.399  32.392   8.550
 5018POPC   C2B24308  32.466  32.399   8.250
 5018POPC   C3B24309  32.450  32.381   7.950
 5018POPC   C4B24310  32.391  32.373   7.650
 5019POPC   NC324311  40.777   1.967   9.450
 5019POPC   PO424312  40.783   2.003   9.150
 5019POPC   GL124313  40.736   2.029   8.850
 5019POPC   GL224314  40.838   1.896   8.850
 5019POPC   C1A24315  40.782   1.996   8.550
 5019POPC   D2A24316  40.737   1.954   8.250
 5019POPC   C3A24317  40.755   2.029   7.950
 5019POPC   C4A24318  40.760   2.029   7.650
 5019POPC   C1B24319  40.909   1.763   8.550
 5019POPC   C2B24320  40.968   1.794   8.250
 5019POPC   C3B24321  40.942   1.792   7.950
 5019POPC   C4B24322  40.958   1.798   7.650
 5020POPC   NC324323  30.648  22.907   9.450
 5020POPC   PO424324  30.732  22.910   9.150
 5020POPC   GL124325  30.743  22.891   8.850
 5020POPC   GL224326  30.608  22.827   8.850
 5020POPC   C1A24327  30.678  22.945   8.550
 5020POPC   D2A24328  30.719  22.946   8.250
 5020POPC   C3A24329  30.685  22.963   7.950
 5020POPC   C4A24330  30.651  22.894   7.650
 5020POPC   C1B24331  30.576  22.699   8.550
 5020POPC   C2B24332  30.622  22.692   8.250
 5020POPC   C3B24333  30.555  22.684   7.950
 5020POPC   C4B24334  30.604  22.678   7.650
 5021POPC   NC324335  22.132  43.931   9.450
 5021POPC   PO424336  22.130  43.901   9.150
 5021POPC   GL124337  22.127  43.893   8.850
 5021POPC   GL224338  22.091  43.758   8.850
 5021POPC   C1A24339  22.180  43.844   8.550
 5021POPC   D2A24340  22.200  43.871   8.250
 5021POPC   C3A24341  22.186  43.886   7.950
 5021POPC   C4A24342  22.138  43.848   7.650
 5021POPC   C1B24343  22.059  43.646   8.550
 5021POPC   C2B24344  22.134  43.663   8.250
 5021POPC   C3B24345  22.113  43.632   7.950
 5021POPC   C4B24346  22.109  43.683   7.650
 5022POPC   NC324347  13.667  28.364   9.450
 5022POPC   PO424348  13.611  28.414   9.150
 5022POPC   GL124349  13.612  28.388   8.850
 5022POPC   GL224350  13.537  28.468   8.850
 5022POPC   C1A24351  13.657  28.391   8.550
 5022POPC   D2A24352  13.667  28.378   8.250
 5022POPC   C3A24353  13.610  28.399   7.950
 5022POPC   C4A24354  13.631  28.361   7.650
 5022POPC   C1B24355  13.473  28.483   8.550
 5022POPC   C2B24356  13.460  28.532   8.250
 5022POPC   C3B24357  13.478  28.553   7.950
 5022POPC   C4B24358  13.435  28.530   7.650
 5023POPC   NC324359  22.172  14.409   9.450
 5023POPC   PO424360  22.170  14.405   9.150
 5023POPC   GL124361  22.144  14.385   8.850
 5023POPC   GL224362  22.323  14.476   8.850
 5023POPC   C1A24363  22.149  14.373   8.550
 5023POPC   D2A24364  22.179  14.385   8.250
 5023POPC   C3A24365  22.120  14.412   7.950
 5023POPC   C4A24366  22.136  14.382   7.650
 5023POPC   C1B24367  22.382  14.510   8.550
 5023POPC   C2B24368  22.346  14.489   8.250
 5023POPC   C3B24369  22.417  14.471   7.950
 5023POPC   C4B24370  22.341  14.547   7.650
 5024POPC   NC324371   5.076  16.703   9.450
 5024POPC   PO424372   5.110  16.768   9.150
 5024POPC   GL124373   5.061  16.766   8.850
 5024POPC   GL224374   5.096  16.576   8.850
 5024POPC   C1A24375   5.129  16.777   8.550
 5024POPC   D2A24376   5.047  16.693   8.250
 5024POPC   C3A24377   5.083  16.740   7.950
 5024POPC   C4A24378   5.045  16.738   7.650
 5024POPC   C1B24379   5.006  16.506   8.550
 5024POPC   C2B24380   5.038  16.535   8.250
 5024POPC   C3B24381   5.042  16.526   7.950
 5024POPC   C4B24382   5.042  16.520   7.650
 5025POPC   NC324383  24.510  34.589   9.450
 5025POPC   PO424384  24.461  34.555   9.150
 5025POPC   GL124385  24.455  34.615   8.850
 5025POPC   GL224386  24.504  34.695   8.850
 5025POPC   C1A24387  24.499  34.597   8.550
 5025POPC   D2A24388  24.457  34.588   8.250
 5025POPC   C3A24389  24.462  34.549   7.950
 5025POPC   C4A24390  24.489  34.587   7.650
 5025POPC   C1B24391  24.431  34.807   8.550
 5025POPC   C2B24392  24.438  34.842   8.250
 5025POPC   C3B24393  24.487  34.868   7.950
 5025POPC   C4B24394  24.467  34.785   7.650
 5026POPC   NC324395  17.497  15.223   9.450
 5026POPC   PO424396  17.464  15.225   9.150
 5026POPC   GL124397  17.555  15.188   8.850
 5026POPC   GL224398  17.486  15.040   8.850
 5026POPC   C1A24399  17.537  15.206   8.550
 5026POPC   D2A24400  17.526  15.172   8.250
 5026POPC   C3A24401  17.506  15.192   7.950
 5026POPC   C4A24402  17.548  15.214   7.650
 5026POPC   C1B24403  17.537  14.926   8.550
 5026POPC   C2B24404  17.586  14.950   8.250
 5026POPC   C3B24405  17.543  14.945   7.950
 5026POPC   C4B24406  17.553  14.983   7.650
 5027POPC   NC324407  19.837   9.783   9.450
 5027POPC   PO424408  19.845   9.745   9.150
 5027POPC   GL124409  19.830   9.763   8.850
 5027POPC   GL224410  19.965   9.861   8.850
 5027POPC   C1A24411  19.828   9.763   8.550
 5027POPC   D2A24412  19.838   9.711   8.250
 5027POPC   C3A24413  19.874   9.783   7.950
 5027POPC   C4A24414  19.814   9.704   7.650
 5027POPC   C1B24415  20.042   9.924   8.550
 5027POPC   C2B24416  19.972   9.950   8.250
 5027POPC   C3B24417  20.057   9.918   7.950
 5027POPC   C4B24418  20.021   9.963   7.650
 5028POPC   NC324419   9.796  22.976   9.450
 5028POPC   PO424420   9.753  22.984   9.150
 5028POPC   GL124421   9.757  22.909   8.850
 5028POPC   GL224422   9.747  22.856   8.850
 5028POPC   C1A24423   9.701  22.910   8.550
 5028POPC   D2A24424   9.700  22.907   8.250
 5028POPC   C3A24425   9.767  22.928   7.950
 5028POPC   C4A24426   9.738  22.970   7.650
 5028POPC   C1B24427   9.819  22.667   8.550
 5028POPC   C2B24428   9.822  22.727   8.250
 5028POPC   C3B24429   9.799  22.719   7.950
 5028POPC   C4B24430   9.820  22.739   7.650
 5029POPC   NC324431  26.844  33.056   9.450
 5029POPC   PO424432  26.816  33.060   9.150
 5029POPC   GL124433  26.776  32.993   8.850
 5029POPC   GL224434  26.987  33.029   8.850
 5029POPC   C1A24435  26.810  33.048   8.550
 5029POPC   D2A24436  26.842  33.034   8.250
 5029POPC   C3A24437  26.809  32.985   7.950
 5029POPC   C4A24438  26.775  33.011   7.650
 5029POPC   C1B24439  27.049  33.016   8.550
 5029POPC   C2B24440  27.064  32.983   8.250
 5029POPC   C3B24441  27.050  32.985   7.950
 5029POPC   C4B24442  27.041  32.992   7.650
 5030POPC   NC324443   4.281  24.510   9.450
 5030POPC   PO424444   4.283  24.520   9.150
 5030POPC   GL124445   4.346  24.478   8.850
 5030POPC   GL224446   4.415  24.420   8.850
 5030POPC   C1A24447   4.277  24.495   8.550
 5030POPC   D2A24448   4.272  24.495   8.250
 5030POPC   C3A24449   4.321  24.483   7.950
 5030POPC   C4A24450   4.269  24.525   7.650
 5030POPC   C1B24451   4.557  24.443   8.550
 5030POPC   C2B24452   4.581  24.430   8.250
 5030POPC   C3B24453   4.560  24.399   7.950
 5030POPC   C4B24454   4.559  24.471   7.650
 5031POPC   NC324455  39.194  22.963   9.450
 5031POPC   PO424456  39.274  22.900   9.150
 5031POPC   GL124457  39.241  22.899   8.850
 5031POPC   GL224458  39.180  22.882   8.850
 5031POPC   C1A24459  39.237  22.964   8.550
 5031POPC   D2A24460  39.257  22.972   8.250
 5031POPC   C3A24461  39.271  22.965   7.950
 5031POPC   C4A24462  39.280  22.897   7.650
 5031POPC   C1B24463  39.058  22.762   8.550
 5031POPC   C2B24464  39.032  22.781   8.250
 5031POPC   C3B24465  38.988  22.789   7.950
 5031POPC   C4B24466  39.012  22.804   7.650
 5032POPC   NC324467  18.254  26.859   9.450
 5032POPC   PO424468  18.293  26.788   9.150
 5032POPC   GL124469  18.319  26.861   8.850
 5032POPC   GL224470  18.356  26.868   8.850
 5032POPC   C1A24471  18.320  26.844   8.550
 5032POPC   D2A24472  18.291  26.801   8.250
 5032POPC   C3A24473  18.262  26.797   7.950
 5032POPC   C4A24474  18.333  26.778   7.650
 5032POPC   C1B24475  18.494  26.954   8.550
 5032POPC   C2B24476  18.512  26.953   8.250
 5032POPC   C3B24477  18.468  26.997   7.950
 5032POPC   C4B24478  18.522  27.011   7.650
 5033POPC   NC324479   4.325   5.914   9.450
 5033POPC   PO424480   4.338   5.889   9.150
 5033POPC   GL124481   4.334   5.893   8.850
 5033POPC   GL224482   4.475   5.865   8.850
 5033POPC   C1A24483   4.335   5.869   8.550
 5033POPC   D2A24484   4.351   5.901   8.250
 5033POPC   C3A24485   4.292   5.879   7.950
 5033POPC   C4A24486   4.361   5.899   7.650
 5033POPC   C1B24487   4.556   5.951   8.550
 5033POPC   C2B24488   4.563   5.918   8.250
 5033POPC   C3B24489   4.584   5.965   7.950
 5033POPC   C4B24490   4.576   5.925   7.650
 5034POPC   NC324491   5.116   2.810   9.450
 5034POPC   PO424492   5.098   2.810   9.150
 5034POPC   GL124493   5.133   2.756   8.850
 5034POPC   GL224494   4.963   2.774   8.850
 5034POPC   C1A24495   5.123   2.772   8.550
 5034POPC   D2A24496   5.054   2.801   8.250
 5034POPC   C3A24497   5.052   2.790   7.950
 5034POPC   C4A24498   5.122   2.800   7.650
 5034POPC   C1B24499   4.836   2.792   8.550
 5034POPC   C2B24500   4.808   2.702   8.250
 5034POPC   C3B24501   4.894   2.788   7.950
 5034POPC   C4B24502   4.834   2.746   7.650
 5035POPC   NC324503  38.431  20.596   9.450
 5035POPC   PO424504  38.419  20.567   9.150
 5035POPC   GL124505  38.430  20.573   8.850
 5035POPC   GL224506  38.545  20.682   8.850
 5035POPC   C1A24507  38.418  20.621   8.550
 5035POPC   D2A24508  38.454  20.561   8.250
 5035POPC   C3A24509  38.490  20.658   7.950
 5035POPC   C4A24510  38.428  20.568   7.650
 5035POPC   C1B24511  38.708  20.718   8.550
 5035POPC   C2B24512  38.693  20.701   8.250
 5035POPC   C3B24513  38.655  20.744   7.950
 5035POPC   C4B24514  38.661  20.725   7.650
 5036POPC   NC324515  44.636   7.406   9.450
 5036POPC   PO424516  44.704   7.428   9.150
 5036POPC   GL124517  44.662   7.380   8.850
 5036POPC   GL224518  44.596   7.453   8.850
 5036POPC   C1A24519  44.662   7.464   8.550
 5036POPC   D2A24520  44.657   7.415   8.250
 5036POPC   C3A24521  44.698   7.433   7.950
 5036POPC   C4A24522  44.671   7.381   7.650
 5036POPC   C1B24523  44.433   7.576   8.550
 5036POPC   C2B24524  44.422   7.587   8.250
 5036POPC   C3B24525  44.451   7.609   7.950
 5036POPC   C4B24526  44.410   7.616   7.650
 5037POPC   NC324527  22.188   4.271   9.450
 5037POPC   PO424528  22.179   4.273   9.150
 5037POPC   GL124529  22.158   4.299   8.850
 5037POPC   GL224530  22.130   4.476   8.850
 5037POPC   C1A24531  22.169   4.360   8.550
 5037POPC   D2A24532  22.193   4.273   8.250
 5037POPC   C3A24533  22.155   4.319   7.950
 5037POPC   C4A24534  22.161   4.334   7.650
 5037POPC   C1B24535  22.065   4.540   8.550
 5037POPC   C2B24536  22.036   4.557   8.250
 5037POPC   C3B24537  22.132   4.553   7.950
 5037POPC   C4B24538  22.063   4.569   7.650
 5038POPC   NC324539  22.957  36.929   9.450
 5038POPC   PO424540  22.908  36.869   9.150
 5038POPC   GL124541  22.956  36.925   8.850
 5038POPC   GL224542  23.004  36.919   8.850
 5038POPC   C1A24543  22.959  36.892   8.550
 5038POPC   D2A24544  22.920  36.881   8.250
 5038POPC   C3A24545  22.938  36.924   7.950
 5038POPC   C4A24546  22.984  36.886   7.650
 5038POPC   C1B24547  23.148  36.988   8.550
 5038POPC   C2B24548  23.170  37.027   8.250
 5038POPC   C3B24549  23.192  37.004   7.950
 5038POPC   C4B24550  23.185  37.041   7.650
 5039POPC   NC324551  15.969  14.440   9.450
 5039POPC   PO424552  15.967  14.414   9.150
 5039POPC   GL124553  15.959  14.383   8.850
 5039POPC   GL224554  15.891  14.455   8.850
 5039POPC   C1A24555  15.932  14.442   8.550
 5039POPC   D2A24556  15.960  14.385   8.250
 5039POPC   C3A24557  15.916  14.448   7.950
 5039POPC   C4A24558  15.975  14.412   7.650
 5039POPC   C1B24559  15.786  14.575   8.550
 5039POPC   C2B24560  15.786  14.554   8.250
 5039POPC   C3B24561  15.760  14.647   7.950
 5039POPC   C4B24562  15.839  14.612   7.650
 5040POPC   NC324563   1.204   7.468   9.450
 5040POPC   PO424564   1.169   7.459   9.150
 5040POPC   GL124565   1.179   7.422   8.850
 5040POPC   GL224566   1.103   7.382   8.850
 5040POPC   C1A24567   1.213   7.466   8.550
 5040POPC   D2A24568   1.243   7.443   8.250
 5040POPC   C3A24569   1.197   7.469   7.950
 5040POPC   C4A24570   1.201   7.460   7.650
 5040POPC   C1B24571   0.989   7.471   8.550
 5040POPC   C2B24572   0.917   7.414   8.250
 5040POPC   C3B24573   0.966   7.473   7.950
 5040POPC   C4B24574   0.945   7.445   7.650
 5041POPC   NC324575  17.523  33.073   9.450
 5041POPC   PO424576  17.486  33.032   9.150
 5041POPC   GL124577  17.473  33.057   8.850
 5041POPC   GL224578  17.397  33.072   8.850
 5041POPC   C1A24579  17.548  33.030   8.550
 5041POPC   D2A24580  17.554  33.041   8.250
 5041POPC   C3A24581  17.496  33.008   7.950
 5041POPC   C4A24582  17.526  33.034   7.650
 5041POPC   C1B24583  17.320  33.222   8.550
 5041POPC   C2B24584  17.278  33.149   8.250
 5041POPC   C3B24585  17.359  33.152   7.950
 5041POPC   C4B24586  17.364  33.192   7.650
 5042POPC   NC324587  14.393   1.223   9.450
 5042POPC   PO424588  14.381   1.249   9.150
 5042POPC   GL124589  14.413   1.225   8.850
 5042POPC   GL224590  14.261   1.212   8.850
 5042POPC   C1A24591  14.420   1.206   8.550
 5042POPC   D2A24592  14.379   1.181   8.250
 5042POPC   C3A24593  14.410   1.200   7.950
 5042POPC   C4A24594  14.439   1.179   7.650
 5042POPC   C1B24595  14.162   1.237   8.550
 5042POPC   C2B24596  14.203   1.242   8.250
 5042POPC   C3B24597  14.147   1.160   7.950
 5042POPC   C4B24598  14.189   1.242   7.650
 5043POPC   NC324599   6.643  17.553   9.450
 5043POPC   PO424600   6.629  17.522   9.150
 5043POPC   GL124601   6.655  17.541   8.850
 5043POPC   GL224602   6.696  17.632   8.850
 5043POPC   C1A24603   6.627  17.535   8.550
 5043POPC   D2A24604   6.619  17.468   8.250
 5043POPC   C3A24605   6.618  17.492   7.950
 5043POPC   C4A24606   6.674  17.461   7.650
 5043POPC   C1B24607   6.776  17.703   8.550
 5043POPC   C2B24608   6.781  17.746   8.250
 5043POPC   C3B24609   6.787  17.689   7.950
 5043POPC   C4B24610   6.814  17.732   7.650
 5044POPC   NC324611  39.974   9.728   9.450
 5044POPC   PO424612  40.041   9.784   9.150
 5044POPC   GL124613  39.991   9.757   8.850
 5044POPC   GL224614  40.076   9.713   8.850
 5044POPC   C1A24615  40.024   9.771   8.550
 5044POPC   D2A24616  39.974   9.744   8.250
 5044POPC   C3A24617  40.014   9.781   7.950
 5044POPC   C4A24618  40.042   9.737   7.650
 5044POPC   C1B24619  40.159   9.616   8.550
 5044POPC   C2B24620  40.167   9.550   8.250
 5044POPC   C3B24621  40.171   9.566   7.950
 5044POPC   C4B24622  40.228   9.570   7.650
 5045POPC   NC324623  25.315  10.511   9.450
 5045POPC   PO424624  25.252  10.571   9.150
 5045POPC   GL124625  25.217  10.504   8.850
 5045POPC   GL224626  25.120  10.485   8.850
 5045POPC   C1A24627  25.252  10.490   8.550
 5045POPC   D2A24628  25.276  10.561   8.250
 5045POPC   C3A24629  25.220  10.531   7.950
 5045POPC   C4A24630  25.254  10.545   7.650
 5045POPC   C1B24631  24.992  10.543   8.550
 5045POPC   C2B24632  25.026  10.493   8.250
 5045POPC   C3B24633  25.060  10.527   7.950
 5045POPC   C4B24634  25.062  10.507   7.650
 5046POPC   NC324635  40.019  15.196   9.450
 5046POPC   PO424636  39.992  15.137   9.150
 5046POPC   GL124637  40.026  15.157   8.850
 5046POPC   GL224638  40.009  15.101   8.850
 5046POPC   C1A24639  39.990  15.189   8.550
 5046POPC   D2A24640  39.972  15.172   8.250
 5046POPC   C3A24641  40.038  15.176   7.950
 5046POPC   C4A24642  39.993  15.174   7.650
 5046POPC   C1B24643  39.981  14.973   8.550
 5046POPC   C2B24644  40.017  14.919   8.250
 5046POPC   C3B24645  39.973  14.962   7.950
 5046POPC   C4B24646  39.975  14.896   7.650
 5047POPC   NC324647  34.539  39.994   9.450
 5047POPC   PO424648  34.583  39.988   9.150
 5047POPC   GL124649  34.596  39.990   8.850
 5047POPC   GL224650  34.461  39.896   8.850
 5047POPC   C1A24651  34.609  39.973   8.550
 5047POPC   D2A24652  34.539  40.034   8.250
 5047POPC   C3A24653  34.579  40.004   7.950
 5047POPC   C4A24654  34.527  40.036   7.650
 5047POPC   C1B24655  34.358  39.826   8.550
 5047POPC   C2B24656  34.423  39.871   8.250
 5047POPC   C3B24657  34.354  39.806   7.950
 5047POPC   C4B24658  34.362  39.825   7.650
 5048POPC   NC324659  12.844  31.465   9.450
 5048POPC   PO424660  12.846  31.519   9.150
 5048POPC   GL124661  12.856  31.442   8.850
 5048POPC   GL224662  12.878  31.554   8.850
 5048POPC   C1A24663  12.848  31.450   8.550
 5048POPC   D2A24664  12.888  31.453   8.250
 5048POPC   C3A24665  12.813  31.505   7.950
 5048POPC   C4A24666  12.868  31.459   7.650
 5048POPC   C1B24667  12.897  31.741   8.550
 5048POPC   C2B24668  12.926  31.712   8.250
 5048POPC   C3B24669  12.927  31.689   7.950
 5048POPC   C4B24670  12.897  31.686   7.650
 5049POPC   NC324671  15.164  24.526   9.450
 5049POPC   PO424672  15.210  24.442   9.150
 5049POPC   GL124673  15.169  24.529   8.850
 5049POPC   GL224674  15.102  24.535   8.850
 5049POPC   C1A24675  15.154  24.511   8.550
 5049POPC   D2A24676  15.190  24.444   8.250
 5049POPC   C3A24677  15.221  24.468   7.950
 5049POPC   C4A24678  15.183  24.452   7.650
 5049POPC   C1B24679  15.045  24.663   8.550
 5049POPC   C2B24680  15.023  24.640   8.250
 5049POPC   C3B24681  15.008  24.689   7.950
 5049POPC   C4B24682  15.005  24.681   7.650
 5050POPC   NC324683  36.868   2.759   9.450
 5050POPC   PO424684  36.872   2.815   9.150
 5050POPC   GL124685  36.919   2.748   8.850
 5050POPC   GL224686  36.852   2.634   8.850
 5050POPC   C1A24687  36.933   2.807   8.550
 5050POPC   D2A24688  36.935   2.776   8.250
 5050POPC   C3A24689  36.855   2.721   7.950
 5050POPC   C4A24690  36.858   2.782   7.650
 5050POPC   C1B24691  36.783   2.482   8.550
 5050POPC   C2B24692  36.853   2.544   8.250
 5050POPC   C3B24693  36.833   2.486   7.950
 5050POPC   C4B24694  36.872   2.493   7.650
 5051POPC   NC324695  19.105  37.691   9.450
 5051POPC   PO424696  19.090  37.642   9.150
 5051POPC   GL124697  19.021  37.726   8.850
 5051POPC   GL224698  19.062  37.791   8.850
 5051POPC   C1A24699  19.061  37.713   8.550
 5051POPC   D2A24700  19.094  37.651   8.250
 5051POPC   C3A24701  19.071  37.633   7.950
 5051POPC   C4A24702  19.095  37.661   7.650
 5051POPC   C1B24703  19.014  37.948   8.550
 5051POPC   C2B24704  18.970  37.883   8.250
 5051POPC   C3B24705  18.997  37.866   7.950
 5051POPC   C4B24706  19.002  37.911   7.650
 5052POPC   NC324707   5.044  24.524   9.450
 5052POPC   PO424708   5.061  24.534   9.150
 5052POPC   GL124709   5.116  24.496   8.850
 5052POPC   GL224710   5.001  24.481   8.850
 5052POPC   C1A24711   5.120  24.512   8.550
 5052POPC   D2A24712   5.066  24.523   8.250
 5052POPC   C3A24713   5.052  24.479   7.950
 5052POPC   C4A24714   5.129  24.465   7.650
 5052POPC   C1B24715   4.852  24.557   8.550
 5052POPC   C2B24716   4.823  24.577   8.250
 5052POPC   C3B24717   4.904  24.610   7.950
 5052POPC   C4B24718   4.868  24.558   7.650
 5053POPC   NC324719  43.878  22.138   9.450
 5053POPC   PO424720  43.907  22.199   9.150
 5053POPC   GL124721  43.905  22.145   8.850
 5053POPC   GL224722  43.850  22.252   8.850
 5053POPC   C1A24723  43.928  22.182   8.550
 5053POPC   D2A24724  43.846  22.141   8.250
 5053POPC   C3A24725  43.931  22.196   7.950
 5053POPC   C4A24726  43.914  22.126   7.650
 5053POPC   C1B24727  43.856  22.404   8.550
 5053POPC   C2B24728  43.824  22.365   8.250
 5053POPC   C3B24729  43.883  22.385   7.950
 5053POPC   C4B24730  43.834  22.455   7.650
 5054POPC   NC324731  29.100  12.045   9.450
 5054POPC   PO424732  29.151  12.103   9.150
 5054POPC   GL124733  29.171  12.103   8.850
 5054POPC   GL224734  29.253  12.128   8.850
 5054POPC   C1A24735  29.160  12.097   8.550
 5054POPC   D2A24736  29.135  12.120   8.250
 5054POPC   C3A24737  29.150  12.062   7.950
 5054POPC   C4A24738  29.156  12.124   7.650
 5054POPC   C1B24739  29.343  12.224   8.550
 5054POPC   C2B24740  29.380  12.212   8.250
 5054POPC   C3B24741  29.349  12.226   7.950
 5054POPC   C4B24742  29.390  12.222   7.650
 5055POPC   NC324743   7.386   4.273   9.450
 5055POPC   PO424744   7.371   4.279   9.150
 5055POPC   GL124745   7.456   4.294   8.850
 5055POPC   GL224746   7.524   4.397   8.850
 5055POPC   C1A24747   7.460   4.282   8.550
 5055POPC   D2A24748   7.427   4.294   8.250
 5055POPC   C3A24749   7.447   4.307   7.950
 5055POPC   C4A24750   7.401   4.354   7.650
 5055POPC   C1B24751   7.533   4.579   8.550
 5055POPC   C2B24752   7.569   4.583   8.250
 5055POPC   C3B24753   7.553   4.559   7.950
 5055POPC   C4B24754   7.588   4.580   7.650
 5056POPC   NC324755  35.330  37.681   9.450
 5056POPC   PO424756  35.315  37.669   9.150
 5056POPC   GL124757  35.345  37.667   8.850
 5056POPC   GL224758  35.464  37.624   8.850
 5056POPC   C1A24759  35.352  37.657   8.550
 5056POPC   D2A24760  35.310  37.663   8.250
 5056POPC   C3A24761  35.340  37.720   7.950
 5056POPC   C4A24762  35.389  37.719   7.650
 5056POPC   C1B24763  35.555  37.624   8.550
 5056POPC   C2B24764  35.602  37.549   8.250
 5056POPC   C3B24765  35.537  37.539   7.950
 5056POPC   C4B24766  35.547  37.559   7.650
 5057POPC   NC324767  19.852   5.095   9.450
 5057POPC   PO424768  19.883   5.077   9.150
 5057POPC   GL124769  19.837   5.120   8.850
 5057POPC   GL224770  19.745   5.022   8.850
 5057POPC   C1A24771  19.877   5.113   8.550
 5057POPC   D2A24772  19.882   5.084   8.250
 5057POPC   C3A24773  19.862   5.074   7.950
 5057POPC   C4A24774  19.852   5.083   7.650
 5057POPC   C1B24775  19.628   5.060   8.550
 5057POPC   C2B24776  19.543   5.067   8.250
 5057POPC   C3B24777  19.549   5.065   7.950
 5057POPC   C4B24778  19.589   5.001   7.650
 5058POPC   NC324779  26.797   4.309   9.450
 5058POPC   PO424780  26.854   4.289   9.150
 5058POPC   GL124781  26.811   4.354   8.850
 5058POPC   GL224782  26.818   4.412   8.850
 5058POPC   C1A24783  26.812   4.309   8.550
 5058POPC   D2A24784  26.788   4.365   8.250
 5058POPC   C3A24785  26.859   4.279   7.950
 5058POPC   C4A24786  26.849   4.282   7.650
 5058POPC   C1B24787  26.892   4.565   8.550
 5058POPC   C2B24788  26.880   4.587   8.250
 5058POPC   C3B24789  26.925   4.533   7.950
 5058POPC   C4B24790  26.869   4.552   7.650
 5059POPC   NC324791  22.135   0.450   9.450
 5059POPC   PO424792  22.154   0.411   9.150
 5059POPC   GL124793  22.193   0.459   8.850
 5059POPC   GL224794  22.068   0.454   8.850
 5059POPC   C1A24795  22.209   0.398   8.550
 5059POPC   D2A24796  22.122   0.436   8.250
 5059POPC   C3A24797  22.199   0.477   7.950
 5059POPC   C4A24798  22.212   0.441   7.650
 5059POPC   C1B24799  21.945   0.484   8.550
 5059POPC   C2B24800  21.908   0.446   8.250
 5059POPC   C3B24801  21.884   0.489   7.950
 5059POPC   C4B24802  21.956   0.502   7.650
 5060POPC   NC324803  30.695  40.749   9.450
 5060POPC   PO424804  30.676  40.762   9.150
 5060POPC   GL124805  30.679  40.819   8.850
 5060POPC   GL224806  30.851  40.750   8.850
 5060POPC   C1A24807  30.656  40.736   8.550
 5060POPC   D2A24808  30.722  40.763   8.250
 5060POPC   C3A24809  30.745  40.764   7.950
 5060POPC   C4A24810  30.700  40.782   7.650
 5060POPC   C1B24811  30.915  40.774   8.550
 5060POPC   C2B24812  30.925  40.698   8.250
 5060POPC   C3B24813  30.933  40.680   7.950
 5060POPC   C4B24814  30.936  40.754   7.650
 5061POPC   NC324815  44.652   3.545   9.450
 5061POPC   PO424816  44.712   3.521   9.150
 5061POPC   GL124817  44.643   3.563   8.850
 5061POPC   GL224818  44.742   3.497   8.850
 5061POPC   C1A24819  44.642   3.587   8.550
 5061POPC   D2A24820  44.701   3.521   8.250
 5061POPC   C3A24821  44.637   3.548   7.950
 5061POPC   C4A24822  44.633   3.558   7.650
 5061POPC   C1B24823  44.904   3.475   8.550
 5061POPC   C2B24824  44.917   3.561   8.250
 5061POPC   C3B24825  44.887   3.534   7.950
 5061POPC   C4B24826  44.929   3.471   7.650
 5062POPC   NC324827  41.608  12.099   9.450
 5062POPC   PO424828  41.565  12.122   9.150
 5062POPC   GL124829  41.512  12.115   8.850
 5062POPC   GL224830  41.550  11.976   8.850
 5062POPC   C1A24831  41.519  12.030   8.550
 5062POPC   D2A24832  41.538  12.101   8.250
 5062POPC   C3A24833  41.594  12.047   7.950
 5062POPC   C4A24834  41.595  12.073   7.650
 5062POPC   C1B24835  41.642  11.785   8.550
 5062POPC   C2B24836  41.589  11.804   8.250
 5062POPC   C3B24837  41.656  11.788   7.950
 5062POPC   C4B24838  41.631  11.863   7.650
 5063POPC   NC324839   1.244   1.955   9.450
 5063POPC   PO424840   1.241   2.036   9.150
 5063POPC   GL124841   1.228   1.954   8.850
 5063POPC   GL224842   1.126   2.013   8.850
 5063POPC   C1A24843   1.200   1.969   8.550
 5063POPC   D2A24844   1.197   1.952   8.250
 5063POPC   C3A24845   1.262   2.016   7.950
 5063POPC   C4A24846   1.227   2.018   7.650
 5063POPC   C1B24847   1.009   2.084   8.550
 5063POPC   C2B24848   0.985   2.078   8.250
 5063POPC   C3B24849   0.955   2.170   7.950
 5063POPC   C4B24850   0.991   2.105   7.650
 5064POPC   NC324851  26.010  17.483   9.450
 5064POPC   PO424852  26.085  17.531   9.150
 5064POPC   GL124853  26.016  17.515   8.850
 5064POPC   GL224854  26.135  17.504   8.850
 5064POPC   C1A24855  26.050  17.528   8.550
 5064POPC   D2A24856  26.061  17.479   8.250
 5064POPC   C3A24857  26.089  17.501   7.950
 5064POPC   C4A24858  26.047  17.492   7.650
 5064POPC   C1B24859  26.306  17.551   8.550
 5064POPC   C2B24860  26.313  17.579   8.250
 5064POPC   C3B24861  26.243  17.553   7.950
 5064POPC   C4B24862  26.286  17.585   7.650
 5065POPC   NC324863  15.174  19.811   9.450
 5065POPC   PO424864  15.181  19.847   9.150
 5065POPC   GL124865  15.181  19.801   8.850
 5065POPC   GL224866  15.323  19.834   8.850
 5065POPC   C1A24867  15.142  19.871   8.550
 5065POPC   D2A24868  15.165  19.848   8.250
 5065POPC   C3A24869  15.224  19.871   7.950
 5065POPC   C4A24870  15.201  19.825   7.650
 5065POPC   C1B24871  15.476  19.842   8.550
 5065POPC   C2B24872  15.446  19.816   8.250
 5065POPC   C3B24873  15.409  19.821   7.950
 5065POPC   C4B24874  15.410  19.824   7.650
 5066POPC   NC324875  19.106  17.484   9.450
 5066POPC   PO424876  19.096  17.475   9.150
 5066POPC   GL124877  19.048  17.495   8.850
 5066POPC   GL224878  18.940  17.493   8.850
 5066POPC   C1A24879  19.092  17.534   8.550
 5066POPC   D2A24880  19.087  17.507   8.250
 5066POPC   C3A24881  19.013  17.555   7.950
 5066POPC   C4A24882  19.013  17.474   7.650
 5066POPC   C1B24883  18.761  17.522   8.550
 5066POPC   C2B24884  18.809  17.502   8.250
 5066POPC   C3B24885  18.804  17.563   7.950
 5066POPC   C4B24886  18.790  17.504   7.650
 5067POPC   NC324887  44.625   8.237   9.450
 5067POPC   PO424888  44.616   8.157   9.150
 5067POPC   GL124889  44.667   8.174   8.850
 5067POPC   GL224890  44.685   8.111   8.850
 5067POPC   C1A24891  44.647   8.173   8.550
 5067POPC   D2A24892  44.644   8.206   8.250
 5067POPC   C3A24893  44.650   8.222   7.950
 5067POPC   C4A24894  44.662   8.168   7.650
 5067POPC   C1B24895  44.676   7.991   8.550
 5067POPC   C2B24896  44.705   7.917   8.250
 5067POPC   C3B24897  44.711   7.915   7.950
 5067POPC   C4B24898  44.667   7.975   7.650
 5068POPC   NC324899   8.151  14.380   9.450
 5068POPC   PO424900   8.179  14.360   9.150
 5068POPC   GL124901   8.224  14.426   8.850
 5068POPC   GL224902   8.332  14.339   8.850
 5068POPC   C1A24903   8.239  14.436   8.550
 5068POPC   D2A24904   8.170  14.449   8.250
 5068POPC   C3A24905   8.212  14.434   7.950
 5068POPC   C4A24906   8.203  14.408   7.650
 5068POPC   C1B24907   8.452  14.380   8.550
 5068POPC   C2B24908   8.452  14.344   8.250
 5068POPC   C3B24909   8.442  14.305   7.950
 5068POPC   C4B24910   8.434  14.362   7.650
 5069POPC   NC324911  43.900  41.581   9.450
 5069POPC   PO424912  43.876  41.512   9.150
 5069POPC   GL124913  43.845  41.578   8.850
 5069POPC   GL224914  44.012  41.655   8.850
 5069POPC   C1A24915  43.930  41.513   8.550
 5069POPC   D2A24916  43.899  41.509   8.250
 5069POPC   C3A24917  43.907  41.597   7.950
 5069POPC   C4A24918  43.860  41.569   7.650
 5069POPC   C1B24919  44.099  41.711   8.550
 5069POPC   C2B24920  44.148  41.640   8.250
 5069POPC   C3B24921  44.073  41.637   7.950
 5069POPC   C4B24922  44.121  41.653   7.650
 5070POPC   NC324923  36.867  27.587   9.450
 5070POPC   PO424924  36.953  27.574   9.150
 5070POPC   GL124925  36.952  27.595   8.850
 5070POPC   GL224926  36.781  27.664   8.850
 5070POPC   C1A24927  36.875  27.577   8.550
 5070POPC   D2A24928  36.905  27.620   8.250
 5070POPC   C3A24929  36.939  27.592   7.950
 5070POPC   C4A24930  36.861  27.568   7.650
 5070POPC   C1B24931  36.715  27.742   8.550
 5070POPC   C2B24932  36.683  27.792   8.250
 5070POPC   C3B24933  36.759  27.776   7.950
 5070POPC   C4B24934  36.714  27.787   7.650
 5071POPC   NC324935  20.593  26.837   9.450
 5071POPC   PO424936  20.609  26.798   9.150
 5071POPC   GL124937  20.611  26.828   8.850
 5071POPC   GL224938  20.707  26.951   8.850
 5071POPC   C1A24939  20.583  26.797   8.550
 5071POPC   D2A24940  20.580  26.843   8.250
 5071POPC   C3A24941  20.583  26.834   7.950
 5071POPC   C4A24942  20.627  26.851   7.650
 5071POPC   C1B24943  20.749  26.992   8.550
 5071POPC   C2B24944  20.681  27.060   8.250
 5071POPC   C3B24945  20.747  27.048   7.950
 5071POPC   C4B24946  20.680  27.013   7.650
 5072POPC   NC324947  40.784   6.668   9.450
 5072POPC   PO424948  40.751   6.666   9.150
 5072POPC   GL124949  40.760   6.635   8.850
 5072POPC   GL224950  40.659   6.719   8.850
 5072POPC   C1A24951  40.757   6.671   8.550
 5072POPC   D2A24952  40.822   6.625   8.250
 5072POPC   C3A24953  40.821   6.676   7.950
 5072POPC   C4A24954  40.830   6.617   7.650
 5072POPC   C1B24955  40.599   6.773   8.550
 5072POPC   C2B24956  40.579   6.781   8.250
 5072POPC   C3B24957  40.603   6.790   7.950
 5072POPC   C4B24958  40.596   6.698   7.650
 5073POPC   NC324959  23.723  26.848   9.450
 5073POPC   PO424960  23.738  26.806   9.150
 5073POPC   GL124961  23.665  26.867   8.850
 5073POPC   GL224962  23.814  26.785   8.850
 5073POPC   C1A24963  23.738  26.859   8.550
 5073POPC   D2A24964  23.667  26.851   8.250
 5073POPC   C3A24965  23.755  26.788   7.950
 5073POPC   C4A24966  23.671  26.845   7.650
 5073POPC   C1B24967  23.973  26.848   8.550
 5073POPC   C2B24968  24.003  26.839   8.250
 5073POPC   C3B24969  23.964  26.832   7.950
 5073POPC   C4B24970  24.013  26.864   7.650
 5074POPC   NC324971   2.764  34.559   9.450
 5074POPC   PO424972   2.742  34.611   9.150
 5074POPC   GL124973   2.741  34.625   8.850
 5074POPC   GL224974   2.687  34.456   8.850
 5074POPC   C1A24975   2.724  34.615   8.550
 5074POPC   D2A24976   2.798  34.616   8.250
 5074POPC   C3A24977   2.721  34.600   7.950
 5074POPC   C4A24978   2.764  34.544   7.650
 5074POPC   C1B24979   2.572  34.340   8.550
 5074POPC   C2B24980   2.650  34.346   8.250
 5074POPC   C3B24981   2.639  34.376   7.950
 5074POPC   C4B24982   2.575  34.344   7.650
 5075POPC   NC324983   2.765  38.490   9.450
 5075POPC   PO424984   2.757  38.484   9.150
 5075POPC   GL124985   2.724  38.428   8.850
 5075POPC   GL224986   2.639  38.507   8.850
 5075POPC   C1A24987   2.803  38.419   8.550
 5075POPC   D2A24988   2.752  38.448   8.250
 5075POPC   C3A24989   2.738  38.485   7.950
 5075POPC   C4A24990   2.769  38.435   7.650
 5075POPC   C1B24991   2.613  38.601   8.550
 5075POPC   C2B24992   2.539  38.646   8.250
 5075POPC   C3B24993   2.634  38.599   7.950
 5075POPC   C4B24994   2.607  38.669   7.650
 5076POPC   NC324995  29.916   5.862   9.450
 5076POPC   PO424996  29.966   5.908   9.150
 5076POPC   GL124997  29.948   5.901   8.850
 5076POPC   GL224998  29.845   5.877   8.850
 5076POPC   C1A24999  29.871   5.874   8.550
 5076POPC   D2A25000  29.943   5.822   8.250
 5076POPC   C3A25001  29.941   5.902   7.950
 5076POPC   C4A25002  29.894   5.886   7.650
 5076POPC   C1B25003  29.696   5.947   8.550
 5076POPC   C2B25004  29.679   5.904   8.250
 5076POPC   C3B25005  29.708   5.971   7.950
 5076POPC   C4B25006  29.711   5.939   7.650
 5077POPC   NC325007  26.089   2.802   9.450
 5077POPC   PO425008  26.080   2.732   9.150
 5077POPC   GL125009  26.029   2.746   8.850
 5077POPC   GL225010  26.171   2.670   8.850
 5077POPC   C1A25011  26.072   2.792   8.550
 5077POPC   D2A25012  25.994   2.726   8.250
 5077POPC   C3A25013  26.062   2.737   7.950
 5077POPC   C4A25014  26.050   2.794   7.650
 5077POPC   C1B25015  26.216   2.678   8.550
 5077POPC   C2B25016  26.294   2.675   8.250
 5077POPC   C3B25017  26.236   2.655   7.950
 5077POPC   C4B25018  26.288   2.634   7.650
 5078POPC   NC325019  36.949  38.473   9.450
 5078POPC   PO425020  36.946  38.444   9.150
 5078POPC   GL125021  36.877  38.440   8.850
 5078POPC   GL225022  36.941  38.535   8.850
 5078POPC   C1A25023  36.891  38.465   8.550
 5078POPC   D2A25024  36.934  38.430   8.250
 5078POPC   C3A25025  36.889  38.493   7.950
 5078POPC   C4A25026  36.878  38.438   7.650
 5078POPC   C1B25027  36.867  38.681   8.550
 5078POPC   C2B25028  36.901  38.686   8.250
 5078POPC   C3B25029  36.891  38.660   7.950
 5078POPC   C4B25030  36.936  38.739   7.650
 5079POPC   NC325031  14.384  29.191   9.450
 5079POPC   PO425032  14.358  29.138   9.150
 5079POPC   GL125033  14.430  29.141   8.850
 5079POPC   GL225034  14.276  29.156   8.850
 5079POPC   C1A25035  14.355  29.142   8.550
 5079POPC   D2A25036  14.358  29.177   8.250
 5079POPC   C3A25037  14.435  29.124   7.950
 5079POPC   C4A25038  14.367  29.160   7.650
 5079POPC   C1B25039  14.165  29.302   8.550
 5079POPC   C2B25040  14.214  29.274   8.250
 5079POPC   C3B25041  14.203  29.296   7.950
 5079POPC   C4B25042  14.174  29.302   7.650
 5080POPC   NC325043  25.312  17.500   9.450
 5080POPC   PO425044  25.285  17.542   9.150
 5080POPC   GL125045  25.295  17.495   8.850
 5080POPC   GL225046  25.319  17.650   8.850
 5080POPC   C1A25047  25.241  17.497   8.550
 5080POPC   D2A25048  25.224  17.538   8.250
 5080POPC   C3A25049  25.222  17.486   7.950
 5080POPC   C4A25050  25.309  17.486   7.650
 5080POPC   C1B25051  25.413  17.673   8.550
 5080POPC   C2B25052  25.385  17.684   8.250
 5080POPC   C3B25053  25.443  17.753   7.950
 5080POPC   C4B25054  25.361  17.687   7.650
 5081POPC   NC325055  37.683  39.274   9.450
 5081POPC   PO425056  37.631  39.204   9.150
 5081POPC   GL125057  37.669  39.207   8.850
 5081POPC   GL225058  37.575  39.102   8.850
 5081POPC   C1A25059  37.697  39.227   8.550
 5081POPC   D2A25060  37.667  39.232   8.250
 5081POPC   C3A25061  37.666  39.183   7.950
 5081POPC   C4A25062  37.638  39.252   7.650
 5081POPC   C1B25063  37.457  39.019   8.550
 5081POPC   C2B25064  37.475  39.033   8.250
 5081POPC   C3B25065  37.517  39.010   7.950
 5081POPC   C4B25066  37.527  39.051   7.650
 5082POPC   NC325067  15.134  23.690   9.450
 5082POPC   PO425068  15.131  23.758   9.150
 5082POPC   GL125069  15.153  23.676   8.850
 5082POPC   GL225070  15.094  23.570   8.850
 5082POPC   C1A25071  15.201  23.719   8.550
 5082POPC   D2A25072  15.132  23.721   8.250
 5082POPC   C3A25073  15.210  23.726   7.950
 5082POPC   C4A25074  15.187  23.739   7.650
 5082POPC   C1B25075  15.117  23.483   8.550
 5082POPC   C2B25076  15.059  23.459   8.250
 5082POPC   C3B25077  15.105  23.485   7.950
 5082POPC   C4B25078  15.133  23.436   7.650
 5083POPC   NC325079  13.639  38.468   9.450
 5083POPC   PO425080  13.665  38.464   9.150
 5083POPC   GL125081  13.578  38.479   8.850
 5083POPC   GL225082  13.626  38.344   8.850
 5083POPC   C1A25083  13.648  38.463   8.550
 5083POPC   D2A25084  13.619  38.432   8.250
 5083POPC   C3A25085  13.668  38.468   7.950
 5083POPC   C4A25086  13.582  38.424   7.650
 5083POPC   C1B25087  13.538  38.183   8.550
 5083POPC   C2B25088  13.537  38.199   8.250
 5083POPC   C3B25089  13.526  38.172   7.950
 5083POPC   C4B25090  13.578  38.254   7.650
 5084POPC   NC325091  40.763  35.380   9.450
 5084POPC   PO425092  40.808  35.351   9.150
 5084POPC   GL125093  40.803  35.302   8.850
 5084POPC   GL225094  40.794  35.277   8.850
 5084POPC   C1A25095  40.753  35.356   8.550
 5084POPC   D2A25096  40.798  35.390   8.250
 5084POPC   C3A25097  40.740  35.343   7.950
 5084POPC   C4A25098  40.792  35.391   7.650
 5084POPC   C1B25099  40.796  35.115   8.550
 5084POPC   C2B25100  40.752  35.092   8.250
 5084POPC   C3B25101  40.774  35.095   7.950
 5084POPC   C4B25102  40.761  35.100   7.650
 5085POPC   NC325103  41.571  28.337   9.450
 5085POPC   PO425104  41.573  28.361   9.150
 5085POPC   GL125105  41.580  28.352   8.850
 5085POPC   GL225106  41.555  28.520   8.850
 5085POPC   C1A25107  41.509  28.357   8.550
 5085POPC   D2A25108  41.593  28.323   8.250
 5085POPC   C3A25109  41.566  28.361   7.950
 5085POPC   C4A25110  41.599  28.331   7.650
 5085POPC   C1B25111  41.652  28.651   8.550
 5085POPC   C2B25112  41.621  28.621   8.250
 5085POPC   C3B25113  41.602  28.634   7.950
 5085POPC   C4B25114  41.659  28.567   7.650
 5086POPC   NC325115  36.088  40.757   9.450
 5086POPC   PO425116  36.159  40.751   9.150
 5086POPC   GL125117  36.084  40.814   8.850
 5086POPC   GL225118  36.081  40.902   8.850
 5086POPC   C1A25119  36.149  40.768   8.550
 5086POPC   D2A25120  36.171  40.806   8.250
 5086POPC   C3A25121  36.086  40.800   7.950
 5086POPC   C4A25122  36.141  40.786   7.650
 5086POPC   C1B25123  35.996  41.000   8.550
 5086POPC   C2B25124  35.996  40.985   8.250
 5086POPC   C3B25125  35.931  40.943   7.950
 5086POPC   C4B25126  35.937  40.969   7.650
 5087POPC   NC325127  24.491  36.122   9.450
 5087POPC   PO425128  24.503  36.120   9.150
 5087POPC   GL125129  24.525  36.082   8.850
 5087POPC   GL225130  24.593  36.178   8.850
 5087POPC   C1A25131  24.508  36.136   8.550
 5087POPC   D2A25132  24.481  36.112   8.250
 5087POPC   C3A25133  24.520  36.084   7.950
 5087POPC   C4A25134  24.449  36.139   7.650
 5087POPC   C1B25135  24.756  36.168   8.550
 5087POPC   C2B25136  24.778  36.188   8.250
 5087POPC   C3B25137  24.708  36.144   7.950
 5087POPC   C4B25138  24.739  36.201   7.650
 5088POPC   NC325139   4.281  11.341   9.450
 5088POPC   PO425140   4.281  11.309   9.150
 5088POPC   GL125141   4.337  11.345   8.850
 5088POPC   GL225142   4.355  11.416   8.850
 5088POPC   C1A25143   4.356  11.314   8.550
 5088POPC   D2A25144   4.365  11.260   8.250
 5088POPC   C3A25145   4.292  11.280   7.950
 5088POPC   C4A25146   4.319  11.302   7.650
 5088POPC   C1B25147   4.510  11.455   8.550
 5088POPC   C2B25148   4.481  11.481   8.250
 5088POPC   C3B25149   4.490  11.488   7.950
 5088POPC   C4B25150   4.489  11.484   7.650
 5089POPC   NC325151   4.358  41.531   9.450
 5089POPC   PO425152   4.312  41.531   9.150
 5089POPC   GL125153   4.293  41.528   8.850
 5089POPC   GL225154   4.234  41.434   8.850
 5089POPC   C1A25155   4.317  41.548   8.550
 5089POPC   D2A25156   4.287  41.602   8.250
 5089POPC   C3A25157   4.293  41.580   7.950
 5089POPC   C4A25158   4.284  41.543   7.650
 5089POPC   C1B25159   4.182  41.310   8.550
 5089POPC   C2B25160   4.144  41.344   8.250
 5089POPC   C3B25161   4.128  41.395   7.950
 5089POPC   C4B25162   4.192  41.353   7.650
 5090POPC   NC325163  26.088  11.320   9.450
 5090POPC   PO425164  26.010  11.335   9.150
 5090POPC   GL125165  26.057  11.305   8.850
 5090POPC   GL225166  26.149  11.221   8.850
 5090POPC   C1A25167  26.075  11.327   8.550
 5090POPC   D2A25168  26.086  11.251   8.250
 5090POPC   C3A25169  26.064  11.340   7.950
 5090POPC   C4A25170  26.088  11.276   7.650
 5090POPC   C1B25171  26.290  11.206   8.550
 5090POPC   C2B25172  26.267  11.200   8.250
 5090POPC   C3B25173  26.225  11.199   7.950
 5090POPC   C4B25174  26.265  11.201   7.650
 5091POPC   NC325175   9.790   6.601   9.450
 5091POPC   PO425176   9.748   6.631   9.150
 5091POPC   GL125177   9.778   6.631   8.850
 5091POPC   GL225178   9.659   6.685   8.850
 5091POPC   C1A25179   9.740   6.657   8.550
 5091POPC   D2A25180   9.759   6.678   8.250
 5091POPC   C3A25181   9.765   6.603   7.950
 5091POPC   C4A25182   9.797   6.595   7.650
 5091POPC   C1B25183   9.516   6.818   8.550
 5091POPC   C2B25184   9.562   6.785   8.250
 5091POPC   C3B25185   9.505   6.780   7.950
 5091POPC   C4B25186   9.562   6.791   7.650
 5092POPC   NC325187  27.582  37.697   9.450
 5092POPC   PO425188  27.624  37.670   9.150
 5092POPC   GL125189  27.642  37.662   8.850
 5092POPC   GL225190  27.504  37.648   8.850
 5092POPC   C1A25191  27.549  37.659   8.550
 5092POPC   D2A25192  27.599  37.726   8.250
 5092POPC   C3A25193  27.641  37.660   7.950
 5092POPC   C4A25194  27.617  37.637   7.650
 5092POPC   C1B25195  27.381  37.607   8.550
 5092POPC   C2B25196  27.400  37.606   8.250
 5092POPC   C3B25197  27.414  37.557   7.950
 5092POPC   C4B25198  27.383  37.514   7.650
 5093POPC   NC325199  44.650  26.802   9.450
 5093POPC   PO425200  44.682  26.815   9.150
 5093POPC   GL125201  44.643  26.863   8.850
 5093POPC   GL225202  44.591  26.941   8.850
 5093POPC   C1A25203  44.689  26.807   8.550
 5093POPC   D2A25204  44.630  26.833   8.250
 5093POPC   C3A25205  44.701  26.774   7.950
 5093POPC   C4A25206  44.660  26.860   7.650
 5093POPC   C1B25207  44.471  27.005   8.550
 5093POPC   C2B25208  44.539  27.017   8.250
 5093POPC   C3B25209  44.548  26.996   7.950
 5093POPC   C4B25210  44.554  26.989   7.650
 5094POPC   NC325211  26.773  36.177   9.450
 5094POPC   PO425212  26.783  36.128   9.150
 5094POPC   GL125213  26.772  36.171   8.850
 5094POPC   GL225214  26.818  36.054   8.850
 5094POPC   C1A25215  26.828  36.107   8.550
 5094POPC   D2A25216  26.860  36.145   8.250
 5094POPC   C3A25217  26.853  36.117   7.950
 5094POPC   C4A25218  26.836  36.082   7.650
 5094POPC   C1B25219  26.771  35.919   8.550
 5094POPC   C2B25220  26.783  35.868   8.250
 5094POPC   C3B25221  26.737  35.916   7.950
 5094POPC   C4B25222  26.797  35.891   7.650
 5095POPC   NC325223  18.332  22.889   9.450
 5095POPC   PO425224  18.313  22.982   9.150
 5095POPC   GL125225  18.283  22.939   8.850
 5095POPC   GL225226  18.338  23.045   8.850
 5095POPC   C1A25227  18.264  22.928   8.550
 5095POPC   D2A25228  18.240  22.973   8.250
 5095POPC   C3A25229  18.299  22.935   7.950
 5095POPC   C4A25230  18.304  22.944   7.650
 5095POPC   C1B25231  18.450  23.086   8.550
 5095POPC   C2B25232  18.487  23.126   8.250
 5095POPC   C3B25233  18.449  23.102   7.950
 5095POPC   C4B25234  18.499  23.077   7.650
 5096POPC   NC325235  20.585  24.443   9.450
 5096POPC   PO425236  20.584  24.467   9.150
 5096POPC   GL125237  20.597  24.449   8.850
 5096POPC   GL225238  20.738  24.482   8.850
 5096POPC   C1A25239  20.655  24.513   8.550
 5096POPC   D2A25240  20.622  24.489   8.250
 5096POPC   C3A25241  20.587  24.451   7.950
 5096POPC   C4A25242  20.568  24.505   7.650
 5096POPC   C1B25243  20.850  24.481   8.550
 5096POPC   C2B25244  20.841  24.513   8.250
 5096POPC   C3B25245  20.864  24.520   7.950
 5096POPC   C4B25246  20.846  24.438   7.650
 5097POPC   NC325247  19.819  20.608   9.450
 5097POPC   PO425248  19.834  20.643   9.150
 5097POPC   GL125249  19.812  20.660   8.850
 5097POPC   GL225250  19.754  20.650   8.850
 5097POPC   C1A25251  19.880  20.653   8.550
 5097POPC   D2A25252  19.804  20.658   8.250
 5097POPC   C3A25253  19.877  20.623   7.950
 5097POPC   C4A25254  19.842  20.615   7.650
 5097POPC   C1B25255  19.615  20.591   8.550
 5097POPC   C2B25256  19.547  20.633   8.250
 5097POPC   C3B25257  19.620  20.600   7.950
 5097POPC   C4B25258  19.584  20.641   7.650
 5098POPC   NC325259  37.666  41.544   9.450
 5098POPC   PO425260  37.668  41.587   9.150
 5098POPC   GL125261  37.727  41.547   8.850
 5098POPC   GL225262  37.798  41.699   8.850
 5098POPC   C1A25263  37.651  41.591   8.550
 5098POPC   D2A25264  37.651  41.520   8.250
 5098POPC   C3A25265  37.717  41.558   7.950
 5098POPC   C4A25266  37.726  41.554   7.650
 5098POPC   C1B25267  37.823  41.723   8.550
 5098POPC   C2B25268  37.826  41.746   8.250
 5098POPC   C3B25269  37.849  41.694   7.950
 5098POPC   C4B25270  37.803  41.733   7.650
 5099POPC   NC325271  22.975  32.251   9.450
 5099POPC   PO425272  22.936  32.213   9.150
 5099POPC   GL125273  22.890  32.286   8.850
 5099POPC   GL225274  22.864  32.307   8.850
 5099POPC   C1A25275  22.890  32.272   8.550
 5099POPC   D2A25276  22.931  32.274   8.250
 5099POPC   C3A25277  22.967  32.272   7.950
 5099POPC   C4A25278  22.962  32.246   7.650
 5099POPC   C1B25279  22.735  32.390   8.550
 5099POPC   C2B25280  22.778  32.353   8.250
 5099POPC   C3B25281  22.697  32.426   7.950
 5099POPC   C4B25282  22.751  32.435   7.650
 5100POPC   NC325283   3.545  30.740   9.450
 5100POPC   PO425284   3.553  30.651   9.150
 5100POPC   GL125285   3.516  30.740   8.850
 5100POPC   GL225286   3.403  30.624   8.850
 5100POPC   C1A25287   3.568  30.657   8.550
 5100POPC   D2A25288   3.558  30.665   8.250
 5100POPC   C3A25289   3.500  30.653   7.950
 5100POPC   C4A25290   3.526  30.691   7.650
 5100POPC   C1B25291   3.263  30.637   8.550
 5100POPC   C2B25292   3.277  30.636   8.250
 5100POPC   C3B25293   3.298  30.613   7.950
 5100POPC   C4B25294   3.340  30.570   7.650
 5101POPC   NC325295  43.930  28.389   9.450
 5101POPC   PO425296  43.854  28.404   9.150
 5101POPC   GL125297  43.868  28.347   8.850
 5101POPC   GL225298  43.858  28.540   8.850
 5101POPC   C1A25299  43.896  28.336   8.550
 5101POPC   D2A25300  43.837  28.389   8.250
 5101POPC   C3A25301  43.918  28.390   7.950
 5101POPC   C4A25302  43.922  28.366   7.650
 5101POPC   C1B25303  43.850  28.571   8.550
 5101POPC   C2B25304  43.872  28.575   8.250
 5101POPC   C3B25305  43.919  28.658   7.950
 5101POPC   C4B25306  43.843  28.666   7.650
 5102POPC   NC325307   5.109  35.378   9.450
 5102POPC   PO425308   5.046  35.351   9.150
 5102POPC   GL125309   5.076  35.323   8.850
 5102POPC   GL225310   5.143  35.221   8.850
 5102POPC   C1A25311   5.110  35.379   8.550
 5102POPC   D2A25312   5.045  35.352   8.250
 5102POPC   C3A25313   5.065  35.307   7.950
 5102POPC   C4A25314   5.137  35.326   7.650
 5102POPC   C1B25315   5.065  35.142   8.550
 5102POPC   C2B25316   5.102  35.111   8.250
 5102POPC   C3B25317   5.130  35.055   7.950
 5102POPC   C4B25318   5.069  35.074   7.650
 5103POPC   NC325319   4.309  18.250   9.450
 5103POPC   PO425320   4.328  18.241   9.150
 5103POPC   GL125321   4.294  18.307   8.850
 5103POPC   GL225322   4.217  18.173   8.850
 5103POPC   C1A25323   4.338  18.310   8.550
 5103POPC   D2A25324   4.295  18.269   8.250
 5103POPC   C3A25325   4.330  18.324   7.950
 5103POPC   C4A25326   4.318  18.308   7.650
 5103POPC   C1B25327   4.076  18.171   8.550
 5103POPC   C2B25328   4.091  18.105   8.250
 5103POPC   C3B25329   4.161  18.120   7.950
 5103POPC   C4B25330   4.146  18.141   7.650
 5104POPC   NC325331  42.316  42.292   9.450
 5104POPC   PO425332  42.290  42.302   9.150
 5104POPC   GL125333  42.293  42.335   8.850
 5104POPC   GL225334  42.287  42.451   8.850
 5104POPC   C1A25335  42.362  42.333   8.550
 5104POPC   D2A25336  42.371  42.358   8.250
 5104POPC   C3A25337  42.369  42.350   7.950
 5104POPC   C4A25338  42.360  42.325   7.650
 5104POPC   C1B25339  42.293  42.585   8.550
 5104POPC   C2B25340  42.260  42.552   8.250
 5104POPC   C3B25341  42.239  42.525   7.950
 5104POPC   C4B25342  42.235  42.559   7.650
 5105POPC   NC325343  22.170  39.970   9.450
 5105POPC   PO425344  22.131  39.963   9.150
 5105POPC   GL125345  22.204  39.989   8.850
 5105POPC   GL225346  22.275  40.088   8.850
 5105POPC   C1A25347  22.180  39.997   8.550
 5105POPC   D2A25348  22.124  40.030   8.250
 5105POPC   C3A25349  22.156  39.984   7.950
 5105POPC   C4A25350  22.198  39.983   7.650
 5105POPC   C1B25351  22.357  40.175   8.550
 5105POPC   C2B25352  22.400  40.126   8.250
 5105POPC   C3B25353  22.348  40.124   7.950
 5105POPC   C4B25354  22.334  40.105   7.650
 5106POPC   NC325355  11.260   7.385   9.450
 5106POPC   PO425356  11.316   7.381   9.150
 5106POPC   GL125357  11.273   7.391   8.850
 5106POPC   GL225358  11.414   7.419   8.850
 5106POPC   C1A25359  11.265   7.372   8.550
 5106POPC   D2A25360  11.262   7.453   8.250
 5106POPC   C3A25361  11.320   7.384   7.950
 5106POPC   C4A25362  11.288   7.397   7.650
 5106POPC   C1B25363  11.537   7.465   8.550
 5106POPC   C2B25364  11.554   7.525   8.250
 5106POPC   C3B25365  11.503   7.503   7.950
 5106POPC   C4B25366  11.544   7.492   7.650
 5107POPC   NC325367  43.909   1.955   9.450
 5107POPC   PO425368  43.866   1.993   9.150
 5107POPC   GL125369  43.884   2.019   8.850
 5107POPC   GL225370  43.824   1.891   8.850
 5107POPC   C1A25371  43.880   1.992   8.550
 5107POPC   D2A25372  43.858   1.991   8.250
 5107POPC   C3A25373  43.914   2.020   7.950
 5107POPC   C4A25374  43.842   2.023   7.650
 5107POPC   C1B25375  43.681   1.872   8.550
 5107POPC   C2B25376  43.672   1.873   8.250
 5107POPC   C3B25377  43.653   1.854   7.950
 5107POPC   C4B25378  43.646   1.824   7.650
 5108POPC   NC325379   2.761  11.333   9.450
 5108POPC   PO425380   2.782  11.277   9.150
 5108POPC   GL125381   2.773  11.254   8.850
 5108POPC   GL225382   2.649  11.316   8.850
 5108POPC   C1A25383   2.771  11.334   8.550
 5108POPC   D2A25384   2.767  11.299   8.250
 5108POPC   C3A25385   2.771  11.325   7.950
 5108POPC   C4A25386   2.771  11.347   7.650
 5108POPC   C1B25387   2.484  11.286   8.550
 5108POPC   C2B25388   2.521  11.282   8.250
 5108POPC   C3B25389   2.523  11.300   7.950
 5108POPC   C4B25390   2.566  11.354   7.650
 5109POPC   NC325391   3.516  11.267   9.450
 5109POPC   PO425392   3.510  11.331   9.150
 5109POPC   GL125393   3.522  11.277   8.850
 5109POPC   GL225394   3.511  11.379   8.850
 5109POPC   C1A25395   3.551  11.307   8.550
 5109POPC   D2A25396   3.582  11.275   8.250
 5109POPC   C3A25397   3.494  11.296   7.950
 5109POPC   C4A25398   3.528  11.280   7.650
 5109POPC   C1B25399   3.516  11.591   8.550
 5109POPC   C2B25400   3.528  11.520   8.250
 5109POPC   C3B25401   3.486  11.502   7.950
 5109POPC   C4B25402   3.460  11.580   7.650
 5110POPC   NC325403  33.840  31.520   9.450
 5110POPC   PO425404  33.754  31.476   9.150
 5110POPC   GL125405  33.793  31.501   8.850
 5110POPC   GL225406  33.859  31.570   8.850
 5110POPC   C1A25407  33.829  31.488   8.550
 5110POPC   D2A25408  33.818  31.429   8.250
 5110POPC   C3A25409  33.796  31.431   7.950
 5110POPC   C4A25410  33.807  31.453   7.650
 5110POPC   C1B25411  33.916  31.696   8.550
 5110POPC   C2B25412  33.846  31.664   8.250
 5110POPC   C3B25413  33.852  31.725   7.950
 5110POPC   C4B25414  33.863  31.674   7.650
 5111POPC   NC325415   5.839   2.781   9.450
 5111POPC   PO425416   5.844   2.777   9.150
 5111POPC   GL125417   5.868   2.811   8.850
 5111POPC   GL225418   5.973   2.703   8.850
 5111POPC   C1A25419   5.868   2.734   8.550
 5111POPC   D2A25420   5.826   2.756   8.250
 5111POPC   C3A25421   5.861   2.744   7.950
 5111POPC   C4A25422   5.886   2.784   7.650
 5111POPC   C1B25423   6.018   2.577   8.550
 5111POPC   C2B25424   6.084   2.603   8.250
 5111POPC   C3B25425   5.993   2.586   7.950
 5111POPC   C4B25426   6.013   2.544   7.650
 5112POPC   NC325427  37.718  15.908   9.450
 5112POPC   PO425428  37.726  15.948   9.150
 5112POPC   GL125429  37.641  15.947   8.850
 5112POPC   GL225430  37.621  15.913   8.850
 5112POPC   C1A25431  37.713  15.927   8.550
 5112POPC   D2A25432  37.706  16.000   8.250
 5112POPC   C3A25433  37.725  15.927   7.950
 5112POPC   C4A25434  37.660  15.927   7.650
 5112POPC   C1B25435  37.466  15.754   8.550
 5112POPC   C2B25436  37.499  15.751   8.250
 5112POPC   C3B25437  37.480  15.801   7.950
 5112POPC   C4B25438  37.463  15.767   7.650
 5113POPC   NC325439  36.884  15.144   9.450
 5113POPC   PO425440  36.906  15.171   9.150
 5113POPC   GL125441  36.867  15.134   8.850
 5113POPC   GL225442  36.882  15.287   8.850
 5113POPC   C1A25443  36.953  15.177   8.550
 5113POPC   D2A25444  36.883  15.189   8.250
 5113POPC   C3A25445  36.877  15.210   7.950
 5113POPC   C4A25446  36.914  15.155   7.650
 5113POPC   C1B25447  36.886  15.448   8.550
 5113POPC   C2B25448  36.837  15.425   8.250
 5113POPC   C3B25449  36.920  15.455   7.950
 5113POPC   C4B25450  36.879  15.414   7.650
 5114POPC   NC325451   0.431  31.453   9.450
 5114POPC   PO425452   0.390  31.437   9.150
 5114POPC   GL125453   0.414  31.503   8.850
 5114POPC   GL225454   0.298  31.468   8.850
 5114POPC   C1A25455   0.395  31.497   8.550
 5114POPC   D2A25456   0.397  31.486   8.250
 5114POPC   C3A25457   0.433  31.509   7.950
 5114POPC   C4A25458   0.418  31.498   7.650
 5114POPC   C1B25459   0.199  31.434   8.550
 5114POPC   C2B25460   0.162  31.363   8.250
 5114POPC   C3B25461   0.166  31.356   7.950
 5114POPC   C4B25462   0.233  31.385   7.650
 5115POPC   NC325463  26.010  43.098   9.450
 5115POPC   PO425464  26.024  43.082   9.150
 5115POPC   GL125465  26.012  43.117   8.850
 5115POPC   GL225466  26.167  43.246   8.850
 5115POPC   C1A25467  26.019  43.129   8.550
 5115POPC   D2A25468  26.074  43.133   8.250
 5115POPC   C3A25469  26.088  43.132   7.950
 5115POPC   C4A25470  26.009  43.072   7.650
 5115POPC   C1B25471  26.222  43.280   8.550
 5115POPC   C2B25472  26.204  43.326   8.250
 5115POPC   C3B25473  26.225  43.254   7.950
 5115POPC   C4B25474  26.201  43.272   7.650
 5116POPC   NC325475  34.582   7.411   9.450
 5116POPC   PO425476  34.563   7.374   9.150
 5116POPC   GL125477  34.617   7.405   8.850
 5116POPC   GL225478  34.671   7.390   8.850
 5116POPC   C1A25479  34.598   7.446   8.550
 5116POPC   D2A25480  34.595   7.442   8.250
 5116POPC   C3A25481  34.551   7.388   7.950
 5116POPC   C4A25482  34.604   7.401   7.650
 5116POPC   C1B25483  34.799   7.294   8.550
 5116POPC   C2B25484  34.768   7.278   8.250
 5116POPC   C3B25485  34.820   7.287   7.950
 5116POPC   C4B25486  34.801   7.301   7.650
 5117POPC   NC325487  28.377  40.053   9.450
 5117POPC   PO425488  28.390  40.028   9.150
 5117POPC   GL125489  28.363  39.985   8.850
 5117POPC   GL225490  28.287  40.034   8.850
 5117POPC   C1A25491  28.345  40.022   8.550
 5117POPC   D2A25492  28.380  40.025   8.250
 5117POPC   C3A25493  28.367  39.964   7.950
 5117POPC   C4A25494  28.337  39.961   7.650
 5117POPC   C1B25495  28.140  40.083   8.550
 5117POPC   C2B25496  28.143  40.054   8.250
 5117POPC   C3B25497  28.157  40.062   7.950
 5117POPC   C4B25498  28.114  40.083   7.650
 5118POPC   NC325499  25.303  11.308   9.450
 5118POPC   PO425500  25.280  11.250   9.150
 5118POPC   GL125501  25.260  11.264   8.850
 5118POPC   GL225502  25.207  11.226   8.850
 5118POPC   C1A25503  25.220  11.347   8.550
 5118POPC   D2A25504  25.294  11.347   8.250
 5118POPC   C3A25505  25.230  11.280   7.950
 5118POPC   C4A25506  25.229  11.302   7.650
 5118POPC   C1B25507  25.056  11.169   8.550
 5118POPC   C2B25508  25.093  11.157   8.250
 5118POPC   C3B25509  25.074  11.186   7.950
 5118POPC   C4B25510  25.084  11.172   7.650
 5119POPC   NC325511  12.889   1.236   9.450
 5119POPC   PO425512  12.888   1.188   9.150
 5119POPC   GL125513  12.897   1.196   8.850
 5119POPC   GL225514  12.961   1.190   8.850
 5119POPC   C1A25515  12.870   1.242   8.550
 5119POPC   D2A25516  12.829   1.198   8.250
 5119POPC   C3A25517  12.848   1.198   7.950
 5119POPC   C4A25518  12.859   1.261   7.650
 5119POPC   C1B25519  13.052   1.242   8.550
 5119POPC   C2B25520  13.052   1.218   8.250
 5119POPC   C3B25521  13.085   1.205   7.950
 5119POPC   C4B25522  13.141   1.288   7.650
 5120POPC   NC325523  36.114  35.382   9.450
 5120POPC   PO425524  36.089  35.339   9.150
 5120POPC   GL125525  36.113  35.304   8.850
 5120POPC   GL225526  36.219  35.296   8.850
 5120POPC   C1A25527  36.085  35.371   8.550
 5120POPC   D2A25528  36.101  35.380   8.250
 5120POPC   C3A25529  36.149  35.332   7.950
 5120POPC   C4A25530  36.149  35.338   7.650
 5120POPC   C1B25531  36.312  35.273   8.550
 5120POPC   C2B25532  36.342  35.219   8.250
 5120POPC   C3B25533  36.371  35.286   7.950
 5120POPC   C4B25534  36.400  35.253   7.650
 5121POPC   NC325535   1.964  38.472   9.450
 5121POPC   PO425536   1.998  38.459   9.150
 5121POPC   GL125537   1.947  38.466   8.850
 5121POPC   GL225538   1.999  38.609   8.850
 5121POPC   C1A25539   2.038  38.417   8.550
 5121POPC   D2A25540   2.029  38.413   8.250
 5121POPC   C3A25541   1.998  38.500   7.950
 5121POPC   C4A25542   1.962  38.461   7.650
 5121POPC   C1B25543   2.073  38.728   8.550
 5121POPC   C2B25544   2.058  38.677   8.250
 5121POPC   C3B25545   2.115  38.736   7.950
 5121POPC   C4B25546   2.084  38.658   7.650
 5122POPC   NC325547  11.296   9.766   9.450
 5122POPC   PO425548  11.307   9.741   9.150
 5122POPC   GL125549  11.308   9.732   8.850
 5122POPC   GL225550  11.346   9.692   8.850
 5122POPC   C1A25551  11.254   9.753   8.550
 5122POPC   D2A25552  11.306   9.771   8.250
 5122POPC   C3A25553  11.279   9.717   7.950
 5122POPC   C4A25554  11.316   9.789   7.650
 5122POPC   C1B25555  11.488   9.607   8.550
 5122POPC   C2B25556  11.487   9.545   8.250
 5122POPC   C3B25557  11.476   9.571   7.950
 5122POPC   C4B25558  11.463   9.526   7.650
 5123POPC   NC325559  18.291   3.528   9.450
 5123POPC   PO425560  18.249   3.529   9.150
 5123POPC   GL125561  18.332   3.559   8.850
 5123POPC   GL225562  18.206   3.589   8.850
 5123POPC   C1A25563  18.266   3.581   8.550
 5123POPC   D2A25564  18.268   3.511   8.250
 5123POPC   C3A25565  18.282   3.538   7.950
 5123POPC   C4A25566  18.249   3.558   7.650
 5123POPC   C1B25567  18.034   3.586   8.550
 5123POPC   C2B25568  18.068   3.599   8.250
 5123POPC   C3B25569  18.026   3.595   7.950
 5123POPC   C4B25570  18.043   3.542   7.650
 5124POPC   NC325571  29.949  35.355   9.450
 5124POPC   PO425572  29.898  35.308   9.150
 5124POPC   GL125573  29.947  35.328   8.850
 5124POPC   GL225574  29.837  35.333   8.850
 5124POPC   C1A25575  29.910  35.302   8.550
 5124POPC   D2A25576  29.878  35.362   8.250
 5124POPC   C3A25577  29.920  35.325   7.950
 5124POPC   C4A25578  29.956  35.370   7.650
 5124POPC   C1B25579  29.644  35.396   8.550
 5124POPC   C2B25580  29.687  35.351   8.250
 5124POPC   C3B25581  29.664  35.358   7.950
 5124POPC   C4B25582  29.622  35.345   7.650
 5125POPC   NC325583  41.569  43.882   9.450
 5125POPC   PO425584  41.522  43.839   9.150
 5125POPC   GL125585  41.580  43.867   8.850
 5125POPC   GL225586  41.650  43.947   8.850
 5125POPC   C1A25587  41.530  43.906   8.550
 5125POPC   D2A25588  41.571  43.838   8.250
 5125POPC   C3A25589  41.540  43.908   7.950
 5125POPC   C4A25590  41.584  43.852   7.650
 5125POPC   C1B25591  41.758  44.098   8.550
 5125POPC   C2B25592  41.736  44.108   8.250
 5125POPC   C3B25593  41.664  44.054   7.950
 5125POPC   C4B25594  41.672  44.038   7.650
 5126POPC   NC325595  33.040  34.575   9.450
 5126POPC   PO425596  33.071  34.552   9.150
 5126POPC   GL125597  33.051  34.610   8.850
 5126POPC   GL225598  32.958  34.423   8.850
 5126POPC   C1A25599  32.979  34.575   8.550
 5126POPC   D2A25600  33.017  34.609   8.250
 5126POPC   C3A25601  33.049  34.563   7.950
 5126POPC   C4A25602  32.988  34.622   7.650
 5126POPC   C1B25603  32.880  34.301   8.550
 5126POPC   C2B25604  32.943  34.298   8.250
 5126POPC   C3B25605  32.901  34.367   7.950
 5126POPC   C4B25606  32.962  34.312   7.650
 5127POPC   NC325607  22.923  23.724   9.450
 5127POPC   PO425608  22.920  23.690   9.150
 5127POPC   GL125609  22.965  23.679   8.850
 5127POPC   GL225610  22.840  23.744   8.850
 5127POPC   C1A25611  22.925  23.707   8.550
 5127POPC   D2A25612  22.927  23.673   8.250
 5127POPC   C3A25613  22.946  23.715   7.950
 5127POPC   C4A25614  22.949  23.684   7.650
 5127POPC   C1B25615  22.781  23.840   8.550
 5127POPC   C2B25616  22.776  23.821   8.250
 5127POPC   C3B25617  22.702  23.897   7.950
 5127POPC   C4B25618  22.706  23.817   7.650
 5128POPC   NC325619   8.927  26.027   9.450
 5128POPC   PO425620   8.934  26.020   9.150
 5128POPC   GL125621   8.934  26.047   8.850
 5128POPC   GL225622   9.019  26.137   8.850
 5128POPC   C1A25623   8.945  26.061   8.550
 5128POPC   D2A25624   9.001  26.064   8.250
 5128POPC   C3A25625   8.933  26.073   7.950
 5128POPC   C4A25626   8.975  26.015   7.650
 5128POPC   C1B25627   8.996  26.328   8.550
 5128POPC   C2B25628   9.002  26.330   8.250
 5128POPC   C3B25629   8.990  26.274   7.950
 5128POPC   C4B25630   9.012  26.278   7.650
 5129POPC   NC325631   8.938  27.551   9.450
 5129POPC   PO425632   9.011  27.622   9.150
 5129POPC   GL125633   8.966  27.568   8.850
 5129POPC   GL225634   8.833  27.600   8.850
 5129POPC   C1A25635   8.942  27.607   8.550
 5129POPC   D2A25636   8.924  27.575   8.250
 5129POPC   C3A25637   8.962  27.545   7.950
 5129POPC   C4A25638   8.999  27.574   7.650
 5129POPC   C1B25639   8.751  27.667   8.550
 5129POPC   C2B25640   8.697  27.650   8.250
 5129POPC   C3B25641   8.706  27.649   7.950
 5129POPC   C4B25642   8.749  27.683   7.650
 5130POPC   NC325643   5.062   3.538   9.450
 5130POPC   PO425644   5.061   3.573   9.150
 5130POPC   GL125645   5.046   3.537   8.850
 5130POPC   GL225646   5.131   3.685   8.850
 5130POPC   C1A25647   5.069   3.493   8.550
 5130POPC   D2A25648   5.109   3.553   8.250
 5130POPC   C3A25649   5.120   3.493   7.950
 5130POPC   C4A25650   5.064   3.557   7.650
 5130POPC   C1B25651   5.089   3.808   8.550
 5130POPC   C2B25652   5.097   3.754   8.250
 5130POPC   C3B25653   5.147   3.792   7.950
 5130POPC   C4B25654   5.129   3.797   7.650
 5131POPC   NC325655  11.301  44.638   9.450
 5131POPC   PO425656  11.286  44.622   9.150
 5131POPC   GL125657  11.259  44.648   8.850
 5131POPC   GL225658  11.263  44.570   8.850
 5131POPC   C1A25659  11.288  44.666   8.550
 5131POPC   D2A25660  11.329  44.680   8.250
 5131POPC   C3A25661  11.278  44.654   7.950
 5131POPC   C4A25662  11.273  44.612   7.650
 5131POPC   C1B25663  11.144  44.463   8.550
 5131POPC   C2B25664  11.082  44.456   8.250
 5131POPC   C3B25665  11.128  44.487   7.950
 5131POPC   C4B25666  11.158  44.432   7.650
 5132POPC   NC325667  33.768  37.684   9.450
 5132POPC   PO425668  33.771  37.698   9.150
 5132POPC   GL125669  33.842  37.694   8.850
 5132POPC   GL225670  33.946  37.783   8.850
 5132POPC   C1A25671  33.802  37.721   8.550
 5132POPC   D2A25672  33.778  37.710   8.250
 5132POPC   C3A25673  33.798  37.653   7.950
 5132POPC   C4A25674  33.830  37.652   7.650
 5132POPC   C1B25675  33.998  37.861   8.550
 5132POPC   C2B25676  33.974  37.849   8.250
 5132POPC   C3B25677  33.987  37.878   7.950
 5132POPC   C4B25678  34.019  37.828   7.650
 5133POPC   NC325679  43.067   1.994   9.450
 5133POPC   PO425680  43.123   2.020   9.150
 5133POPC   GL125681  43.146   2.009   8.850
 5133POPC   GL225682  43.102   2.067   8.850
 5133POPC   C1A25683  43.124   2.019   8.550
 5133POPC   D2A25684  43.084   1.992   8.250
 5133POPC   C3A25685  43.086   1.993   7.950
 5133POPC   C4A25686  43.148   1.969   7.650
 5133POPC   C1B25687  42.987   2.182   8.550
 5133POPC   C2B25688  42.975   2.175   8.250
 5133POPC   C3B25689  42.983   2.185   7.950
 5133POPC   C4B25690  43.030   2.256   7.650
 5134POPC   NC325691  12.083   1.999   9.450
 5134POPC   PO425692  12.036   1.945   9.150
 5134POPC   GL125693  12.090   1.985   8.850
 5134POPC   GL225694  12.026   2.142   8.850
 5134POPC   C1A25695  12.091   2.024   8.550
 5134POPC   D2A25696  12.077   1.965   8.250
 5134POPC   C3A25697  12.068   1.950   7.950
 5134POPC   C4A25698  12.031   2.014   7.650
 5134POPC   C1B25699  11.972   2.191   8.550
 5134POPC   C2B25700  11.967   2.164   8.250
 5134POPC   C3B25701  11.971   2.213   7.950
 5134POPC   C4B25702  12.001   2.199   7.650
 5135POPC   NC325703  33.791  12.096   9.450
 5135POPC   PO425704  33.822  12.064   9.150
 5135POPC   GL125705  33.751  12.106   8.850
 5135POPC   GL225706  33.923  11.997   8.850
 5135POPC   C1A25707  33.847  12.088   8.550
 5135POPC   D2A25708  33.803  12.089   8.250
 5135POPC   C3A25709  33.812  12.099   7.950
 5135POPC   C4A25710  33.758  12.068   7.650
 5135POPC   C1B25711  34.036  11.969   8.550
 5135POPC   C2B25712  34.036  11.979   8.250
 5135POPC   C3B25713  33.980  11.932   7.950
 5135POPC   C4B25714  33.988  11.942   7.650
 5136POPC   NC325715   6.680   5.103   9.450
 5136POPC   PO425716   6.656   5.098   9.150
 5136POPC   GL125717   6.674   5.118   8.850
 5136POPC   GL225718   6.719   5.028   8.850
 5136POPC   C1A25719   6.672   5.097   8.550
 5136POPC   D2A25720   6.638   5.110   8.250
 5136POPC   C3A25721   6.638   5.120   7.950
 5136POPC   C4A25722   6.615   5.108   7.650
 5136POPC   C1B25723   6.779   4.910   8.550
 5136POPC   C2B25724   6.760   4.912   8.250
 5136POPC   C3B25725   6.765   4.923   7.950
 5136POPC   C4B25726   6.773   4.869   7.650
 5137POPC   NC325727  27.574  44.663   9.450
 5137POPC   PO425728  27.620  44.665   9.150
 5137POPC   GL125729  27.622  44.698   8.850
 5137POPC   GL225730  27.535  44.804   8.850
 5137POPC   C1A25731  27.590  44.682   8.550
 5137POPC   D2A25732  27.599  44.677   8.250
 5137POPC   C3A25733  27.547  44.657   7.950
 5137POPC   C4A25734  27.624  44.686   7.650
 5137POPC   C1B25735  27.510  44.858   8.550
 5137POPC   C2B25736  27.520  44.924   8.250
 5137POPC   C3B25737  27.490  44.890   7.950
 5137POPC   C4B25738  27.499  44.836   7.650
 5138POPC   NC325739   2.008  14.391   9.450
 5138POPC   PO425740   2.016  14.436   9.150
 5138POPC   GL125741   1.945  14.446   8.850
 5138POPC   GL225742   1.852  14.419   8.850
 5138POPC   C1A25743   1.950  14.374   8.550
 5138POPC   D2A25744   2.039  14.421   8.250
 5138POPC   C3A25745   1.992  14.402   7.950
 5138POPC   C4A25746   2.001  14.363   7.650
 5138POPC   C1B25747   1.769  14.500   8.550
 5138POPC   C2B25748   1.789  14.445   8.250
 5138POPC   C3B25749   1.698  14.481   7.950
 5138POPC   C4B25750   1.774  14.442   7.650
 5139POPC   NC325751   3.579  28.336   9.450
 5139POPC   PO425752   3.524  28.378   9.150
 5139POPC   GL125753   3.530  28.389   8.850
 5139POPC   GL225754   3.482  28.258   8.850
 5139POPC   C1A25755   3.563  28.408   8.550
 5139POPC   D2A25756   3.556  28.330   8.250
 5139POPC   C3A25757   3.549  28.376   7.950
 5139POPC   C4A25758   3.587  28.407   7.650
 5139POPC   C1B25759   3.391  28.100   8.550
 5139POPC   C2B25760   3.432  28.176   8.250
 5139POPC   C3B25761   3.399  28.097   7.950
 5139POPC   C4B25762   3.462  28.188   7.650
 5140POPC   NC325763   7.443  41.557   9.450
 5140POPC   PO425764   7.375  41.530   9.150
 5140POPC   GL125765   7.434  41.580   8.850
 5140POPC   GL225766   7.351  41.482   8.850
 5140POPC   C1A25767   7.421  41.548   8.550
 5140POPC   D2A25768   7.424  41.559   8.250
 5140POPC   C3A25769   7.455  41.528   7.950
 5140POPC   C4A25770   7.458  41.577   7.650
 5140POPC   C1B25771   7.171  41.483   8.550
 5140POPC   C2B25772   7.162  41.462   8.250
 5140POPC   C3B25773   7.225  41.423   7.950
 5140POPC   C4B25774   7.192  41.411   7.650
 5141POPC   NC325775  28.384  34.613   9.450
 5141POPC   PO425776  28.418  34.545   9.150
 5141POPC   GL125777  28.354  34.585   8.850
 5141POPC   GL225778  28.396  34.477   8.850
 5141POPC   C1A25779  28.406  34.536   8.550
 5141POPC   D2A25780  28.371  34.610   8.250
 5141POPC   C3A25781  28.346  34.573   7.950
 5141POPC   C4A25782  28.355  34.618   7.650
 5141POPC   C1B25783  28.342  34.333   8.550
 5141POPC   C2B25784  28.367  34.340   8.250
 5141POPC   C3B25785  28.366  34.295   7.950
 5141POPC   C4B25786  28.361  34.360   7.650
 5142POPC   NC325787  10.529  24.471   9.450
 5142POPC   PO425788  10.481  24.449   9.150
 5142POPC   GL125789  10.561  24.478   8.850
 5142POPC   GL225790  10.446  24.473   8.850
 5142POPC   C1A25791  10.522  24.468   8.550
 5142POPC   D2A25792  10.529  24.500   8.250
 5142POPC   C3A25793  10.482  24.527   7.950
 5142POPC   C4A25794  10.562  24.532   7.650
 5142POPC   C1B25795  10.328  24.582   8.550
 5142POPC   C2B25796  10.239  24.502   8.250
 5142POPC   C3B25797  10.308  24.524   7.950
 5142POPC   C4B25798  10.316  24.546   7.650
 5143POPC   NC325799   5.869   5.906   9.450
 5143POPC   PO425800   5.916   5.894   9.150
 5143POPC   GL125801   5.870   5.891   8.850
 5143POPC   GL225802   5.831   5.788   8.850
 5143POPC   C1A25803   5.916   5.915   8.550
 5143POPC   D2A25804   5.869   5.910   8.250
 5143POPC   C3A25805   5.911   5.906   7.950
 5143POPC   C4A25806   5.864   5.856   7.650
 5143POPC   C1B25807   5.920   5.629   8.550
 5143POPC   C2B25808   5.896   5.569   8.250
 5143POPC   C3B25809   5.850   5.637   7.950
 5143POPC   C4B25810   5.907   5.646   7.650
 5144POPC   NC325811   2.801  19.796   9.450
 5144POPC   PO425812   2.734  19.808   9.150
 5144POPC   GL125813   2.717  19.794   8.850
 5144POPC   GL225814   2.789  19.672   8.850
 5144POPC   C1A25815   2.719  19.881   8.550
 5144POPC   D2A25816   2.807  19.832   8.250
 5144POPC   C3A25817   2.747  19.867   7.950
 5144POPC   C4A25818   2.739  19.800   7.650
 5144POPC   C1B25819   2.721  19.619   8.550
 5144POPC   C2B25820   2.694  19.559   8.250
 5144POPC   C3B25821   2.681  19.600   7.950
 5144POPC   C4B25822   2.764  19.590   7.650
 5145POPC   NC325823  15.998   7.454   9.450
 5145POPC   PO425824  15.954   7.428   9.150
 5145POPC   GL125825  16.000   7.435   8.850
 5145POPC   GL225826  15.915   7.365   8.850
 5145POPC   C1A25827  15.983   7.417   8.550
 5145POPC   D2A25828  15.944   7.452   8.250
 5145POPC   C3A25829  15.930   7.375   7.950
 5145POPC   C4A25830  15.987   7.429   7.650
 5145POPC   C1B25831  15.841   7.180   8.550
 5145POPC   C2B25832  15.842   7.251   8.250
 5145POPC   C3B25833  15.826   7.172   7.950
 5145POPC   C4B25834  15.798   7.269   7.650
 5146POPC   NC325835  27.550   9.002   9.450
 5146POPC   PO425836  27.544   9.010   9.150
 5146POPC   GL125837  27.631   8.930   8.850
 5146POPC   GL225838  27.511   9.020   8.850
 5146POPC   C1A25839  27.567   8.964   8.550
 5146POPC   D2A25840  27.566   8.991   8.250
 5146POPC   C3A25841  27.621   8.973   7.950
 5146POPC   C4A25842  27.635   8.955   7.650
 5146POPC   C1B25843  27.312   8.995   8.550
 5146POPC   C2B25844  27.338   8.957   8.250
 5146POPC   C3B25845  27.349   9.040   7.950
 5146POPC   C4B25846  27.304   8.978   7.650
 5147POPC   NC325847  30.716   0.468   9.450
 5147POPC   PO425848  30.662   0.482   9.150
 5147POPC   GL125849  30.656   0.461   8.850
 5147POPC   GL225850  30.555   0.493   8.850
 5147POPC   C1A25851  30.710   0.444   8.550
 5147POPC   D2A25852  30.671   0.419   8.250
 5147POPC   C3A25853  30.695   0.471   7.950
 5147POPC   C4A25854  30.705   0.441   7.650
 5147POPC   C1B25855  30.501   0.501   8.550
 5147POPC   C2B25856  30.432   0.516   8.250
 5147POPC   C3B25857  30.488   0.572   7.950
 5147POPC   C4B25858  30.432   0.539   7.650
 5148POPC   NC325859  12.048  23.740   9.450
 5148POPC   PO425860  12.077  23.682   9.150
 5148POPC   GL125861  12.057  23.734   8.850
 5148POPC   GL225862  12.154  23.672   8.850
 5148POPC   C1A25863  12.036  23.680   8.550
 5148POPC   D2A25864  12.058  23.690   8.250
 5148POPC   C3A25865  12.037  23.714   7.950
 5148POPC   C4A25866  12.119  23.687   7.650
 5148POPC   C1B25867  12.248  23.600   8.550
 5148POPC   C2B25868  12.253  23.546   8.250
 5148POPC   C3B25869  12.241  23.538   7.950
 5148POPC   C4B25870  12.237  23.509   7.650
 5149POPC   NC325871  20.562   7.470   9.450
 5149POPC   PO425872  20.612   7.437   9.150
 5149POPC   GL125873  20.576   7.424   8.850
 5149POPC   GL225874  20.737   7.436   8.850
 5149POPC   C1A25875  20.643   7.382   8.550
 5149POPC   D2A25876  20.586   7.384   8.250
 5149POPC   C3A25877  20.649   7.455   7.950
 5149POPC   C4A25878  20.592   7.413   7.650
 5149POPC   C1B25879  20.830   7.581   8.550
 5149POPC   C2B25880  20.829   7.501   8.250
 5149POPC   C3B25881  20.876   7.522   7.950
 5149POPC   C4B25882  20.784   7.517   7.650
 5150POPC   NC325883   0.465  19.814   9.450
 5150POPC   PO425884   0.402  19.837   9.150
 5150POPC   GL125885   0.454  19.863   8.850
 5150POPC   GL225886   0.363  19.743   8.850
 5150POPC   C1A25887   0.410  19.828   8.550
 5150POPC   D2A25888   0.408  19.796   8.250
 5150POPC   C3A25889   0.484  19.843   7.950
 5150POPC   C4A25890   0.398  19.820   7.650
 5150POPC   C1B25891   0.366  19.617   8.550
 5150POPC   C2B25892   0.342  19.570   8.250
 5150POPC   C3B25893   0.284  19.620   7.950
 5150POPC   C4B25894   0.333  19.571   7.650
 5151POPC   NC325895   7.457  25.315   9.450
 5151POPC   PO425896   7.440  25.281   9.150
 5151POPC   GL125897   7.373  25.300   8.850
 5151POPC   GL225898   7.400  25.110   8.850
 5151POPC   C1A25899   7.440  25.242   8.550
 5151POPC   D2A25900   7.372  25.273   8.250
 5151POPC   C3A25901   7.419  25.251   7.950
 5151POPC   C4A25902   7.456  25.278   7.650
 5151POPC   C1B25903   7.424  25.004   8.550
 5151POPC   C2B25904   7.412  25.060   8.250
 5151POPC   C3B25905   7.443  24.987   7.950
 5151POPC   C4B25906   7.386  25.021   7.650
 5152POPC   NC325907  22.954   4.344   9.450
 5152POPC   PO425908  22.913   4.351   9.150
 5152POPC   GL125909  22.911   4.309   8.850
 5152POPC   GL225910  23.006   4.350   8.850
 5152POPC   C1A25911  22.939   4.362   8.550
 5152POPC   D2A25912  22.899   4.346   8.250
 5152POPC   C3A25913  22.891   4.303   7.950
 5152POPC   C4A25914  22.896   4.349   7.650
 5152POPC   C1B25915  23.121   4.416   8.550
 5152POPC   C2B25916  23.174   4.440   8.250
 5152POPC   C3B25917  23.195   4.386   7.950
 5152POPC   C4B25918  23.162   4.450   7.650
 5153POPC   NC325919  28.416   7.426   9.450
 5153POPC   PO425920  28.395   7.399   9.150
 5153POPC   GL125921  28.343   7.451   8.850
 5153POPC   GL225922  28.512   7.348   8.850
 5153POPC   C1A25923  28.353   7.431   8.550
 5153POPC   D2A25924  28.392   7.451   8.250
 5153POPC   C3A25925  28.372   7.371   7.950
 5153POPC   C4A25926  28.385   7.435   7.650
 5153POPC   C1B25927  28.605   7.326   8.550
 5153POPC   C2B25928  28.648   7.357   8.250
 5153POPC   C3B25929  28.579   7.371   7.950
 5153POPC   C4B25930  28.643   7.416   7.650
 5154POPC   NC325931  42.341  13.645   9.450
 5154POPC   PO425932  42.300  13.609   9.150
 5154POPC   GL125933  42.286  13.631   8.850
 5154POPC   GL225934  42.370  13.496   8.850
 5154POPC   C1A25935  42.327  13.607   8.550
 5154POPC   D2A25936  42.362  13.677   8.250
 5154POPC   C3A25937  42.291  13.581   7.950
 5154POPC   C4A25938  42.293  13.628   7.650
 5154POPC   C1B25939  42.276  13.373   8.550
 5154POPC   C2B25940  42.360  13.329   8.250
 5154POPC   C3B25941  42.310  13.375   7.950
 5154POPC   C4B25942  42.339  13.353   7.650
 5155POPC   NC325943  14.365   9.769   9.450
 5155POPC   PO425944  14.443   9.749   9.150
 5155POPC   GL125945  14.442   9.771   8.850
 5155POPC   GL225946  14.311   9.843   8.850
 5155POPC   C1A25947  14.365   9.758   8.550
 5155POPC   D2A25948  14.425   9.706   8.250
 5155POPC   C3A25949  14.401   9.739   7.950
 5155POPC   C4A25950  14.375   9.725   7.650
 5155POPC   C1B25951  14.225   9.812   8.550
 5155POPC   C2B25952  14.165   9.902   8.250
 5155POPC   C3B25953  14.157   9.808   7.950
 5155POPC   C4B25954  14.158   9.830   7.650
 5156POPC   NC325955  18.324   2.024   9.450
 5156POPC   PO425956  18.275   2.018   9.150
 5156POPC   GL125957  18.243   1.944   8.850
 5156POPC   GL225958  18.146   1.931   8.850
 5156POPC   C1A25959  18.263   2.026   8.550
 5156POPC   D2A25960  18.315   2.008   8.250
 5156POPC   C3A25961  18.323   1.945   7.950
 5156POPC   C4A25962  18.271   1.961   7.650
 5156POPC   C1B25963  18.048   1.995   8.550
 5156POPC   C2B25964  18.004   1.951   8.250
 5156POPC   C3B25965  18.008   1.968   7.950
 5156POPC   C4B25966  18.003   1.957   7.650
 5157POPC   NC325967   3.512  25.306   9.450
 5157POPC   PO425968   3.496  25.256   9.150
 5157POPC   GL125969   3.537  25.308   8.850
 5157POPC   GL225970   3.561  25.361   8.850
 5157POPC   C1A25971   3.584  25.228   8.550
 5157POPC   D2A25972   3.529  25.291   8.250
 5157POPC   C3A25973   3.536  25.276   7.950
 5157POPC   C4A25974   3.498  25.291   7.650
 5157POPC   C1B25975   3.564  25.544   8.550
 5157POPC   C2B25976   3.559  25.537   8.250
 5157POPC   C3B25977   3.571  25.484   7.950
 5157POPC   C4B25978   3.585  25.555   7.650
 5158POPC   NC325979  14.369  15.167   9.450
 5158POPC   PO425980  14.357  15.161   9.150
 5158POPC   GL125981  14.404  15.192   8.850
 5158POPC   GL225982  14.392  15.076   8.850
 5158POPC   C1A25983  14.428  15.161   8.550
 5158POPC   D2A25984  14.379  15.157   8.250
 5158POPC   C3A25985  14.436  15.229   7.950
 5158POPC   C4A25986  14.402  15.209   7.650
 5158POPC   C1B25987  14.347  14.913   8.550
 5158POPC   C2B25988  14.331  14.905   8.250
 5158POPC   C3B25989  14.351  14.902   7.950
 5158POPC   C4B25990  14.303  14.965   7.650
 5159POPC   NC325991   7.463  12.033   9.450
 5159POPC   PO425992   7.424  12.079   9.150
 5159POPC   GL125993   7.461  12.051   8.850
 5159POPC   GL225994   7.357  12.021   8.850
 5159POPC   C1A25995   7.396  12.092   8.550
 5159POPC   D2A25996   7.409  12.096   8.250
 5159POPC   C3A25997   7.390  12.092   7.950
 5159POPC   C4A25998   7.449  12.037   7.650
 5159POPC   C1B25999   7.279  11.863   8.550
 5159POPC   C2B26000   7.241  11.883   8.250
 5159POPC   C3B26001   7.258  11.851   7.950
 5159POPC   C4B26002   7.262  11.891   7.650
 5160POPC   NC326003  33.037  36.924   9.450
 5160POPC   PO426004  33.056  36.872   9.150
 5160POPC   GL126005  33.074  36.901   8.850
 5160POPC   GL226006  32.962  36.851   8.850
 5160POPC   C1A26007  33.020  36.902   8.550
 5160POPC   D2A26008  32.982  36.867   8.250
 5160POPC   C3A26009  32.980  36.890   7.950
 5160POPC   C4A26010  32.980  36.855   7.650
 5160POPC   C1B26011  32.816  36.735   8.550
 5160POPC   C2B26012  32.773  36.795   8.250
 5160POPC   C3B26013  32.793  36.743   7.950
 5160POPC   C4B26014  32.767  36.823   7.650
 5161POPC   NC326015  39.245  14.426   9.450
 5161POPC   PO426016  39.207  14.411   9.150
 5161POPC   GL126017  39.252  14.453   8.850
 5161POPC   GL226018  39.366  14.328   8.850
 5161POPC   C1A26019  39.195  14.422   8.550
 5161POPC   D2A26020  39.228  14.410   8.250
 5161POPC   C3A26021  39.224  14.422   7.950
 5161POPC   C4A26022  39.202  14.382   7.650
 5161POPC   C1B26023  39.499  14.367   8.550
 5161POPC   C2B26024  39.496  14.359   8.250
 5161POPC   C3B26025  39.474  14.360   7.950
 5161POPC   C4B26026  39.488  14.367   7.650
 5162POPC   NC326027  15.948  36.155   9.450
 5162POPC   PO426028  15.968  36.145   9.150
 5162POPC   GL126029  15.978  36.159   8.850
 5162POPC   GL226030  15.920  36.200   8.850
 5162POPC   C1A26031  15.918  36.099   8.550
 5162POPC   D2A26032  15.913  36.154   8.250
 5162POPC   C3A26033  15.929  36.089   7.950
 5162POPC   C4A26034  15.922  36.143   7.650
 5162POPC   C1B26035  15.892  36.353   8.550
 5162POPC   C2B26036  15.926  36.400   8.250
 5162POPC   C3B26037  15.915  36.360   7.950
 5162POPC   C4B26038  15.930  36.379   7.650
 5163POPC   NC326039  26.004  18.234   9.450
 5163POPC   PO426040  26.037  18.289   9.150
 5163POPC   GL126041  26.082  18.245   8.850
 5163POPC   GL226042  26.174  18.230   8.850
 5163POPC   C1A26043  26.045  18.303   8.550
 5163POPC   D2A26044  26.079  18.290   8.250
 5163POPC   C3A26045  25.999  18.294   7.950
 5163POPC   C4A26046  26.017  18.314   7.650
 5163POPC   C1B26047  26.237  18.117   8.550
 5163POPC   C2B26048  26.288  18.124   8.250
 5163POPC   C3B26049  26.259  18.084   7.950
 5163POPC   C4B26050  26.232  18.161   7.650
 5164POPC   NC326051  22.198   5.049   9.450
 5164POPC   PO426052  22.182   5.095   9.150
 5164POPC   GL126053  22.176   5.101   8.850
 5164POPC   GL226054  22.204   5.171   8.850
 5164POPC   C1A26055  22.115   5.142   8.550
 5164POPC   D2A26056  22.173   5.044   8.250
 5164POPC   C3A26057  22.119   5.088   7.950
 5164POPC   C4A26058  22.159   5.136   7.650
 5164POPC   C1B26059  22.348   5.272   8.550
 5164POPC   C2B26060  22.337   5.338   8.250
 5164POPC   C3B26061  22.348   5.270   7.950
 5164POPC   C4B26062  22.275   5.248   7.650
 5165POPC   NC326063  22.204  19.785   9.450
 5165POPC   PO426064  22.122  19.814   9.150
 5165POPC   GL126065  22.155  19.829   8.850
 5165POPC   GL226066  22.082  19.999   8.850
 5165POPC   C1A26067  22.183  19.792   8.550
 5165POPC   D2A26068  22.176  19.806   8.250
 5165POPC   C3A26069  22.125  19.871   7.950
 5165POPC   C4A26070  22.204  19.793   7.650
 5165POPC   C1B26071  22.122  20.112   8.550
 5165POPC   C2B26072  22.049  20.075   8.250
 5165POPC   C3B26073  22.140  20.063   7.950
 5165POPC   C4B26074  22.055  20.115   7.650
 5166POPC   NC326075   9.745  29.892   9.450
 5166POPC   PO426076   9.759  29.963   9.150
 5166POPC   GL126077   9.758  29.913   8.850
 5166POPC   GL226078   9.718  29.995   8.850
 5166POPC   C1A26079   9.699  29.874   8.550
 5166POPC   D2A26080   9.784  29.952   8.250
 5166POPC   C3A26081   9.759  29.925   7.950
 5166POPC   C4A26082   9.724  29.925   7.650
 5166POPC   C1B26083   9.679  30.185   8.550
 5166POPC   C2B26084   9.698  30.121   8.250
 5166POPC   C3B26085   9.617  30.177   7.950
 5166POPC   C4B26086   9.704  30.143   7.650
 5167POPC   NC326087  12.085  39.278   9.450
 5167POPC   PO426088  12.096  39.268   9.150
 5167POPC   GL126089  12.088  39.272   8.850
 5167POPC   GL226090  11.990  39.187   8.850
 5167POPC   C1A26091  12.092  39.276   8.550
 5167POPC   D2A26092  12.039  39.278   8.250
 5167POPC   C3A26093  12.050  39.207   7.950
 5167POPC   C4A26094  12.090  39.211   7.650
 5167POPC   C1B26095  11.888  39.138   8.550
 5167POPC   C2B26096  11.854  39.104   8.250
 5167POPC   C3B26097  11.807  39.134   7.950
 5167POPC   C4B26098  11.790  39.137   7.650
 5168POPC   NC326099   5.819   5.093   9.450
 5168POPC   PO426100   5.894   5.128   9.150
 5168POPC   GL126101   5.865   5.080   8.850
 5168POPC   GL226102   5.925   4.996   8.850
 5168POPC   C1A26103   5.907   5.088   8.550
 5168POPC   D2A26104   5.891   5.052   8.250
 5168POPC   C3A26105   5.874   5.141   7.950
 5168POPC   C4A26106   5.860   5.112   7.650
 5168POPC   C1B26107   6.004   4.901   8.550
 5168POPC   C2B26108   6.090   4.890   8.250
 5168POPC   C3B26109   6.057   4.945   7.950
 5168POPC   C4B26110   6.082   4.910   7.650
 5169POPC   NC326111  21.416  17.540   9.450
 5169POPC   PO426112  21.361  17.510   9.150
 5169POPC   GL126113  21.433  17.502   8.850
 5169POPC   GL226114  21.470  17.479   8.850
 5169POPC   C1A26115  21.353  17.518   8.550
 5169POPC   D2A26116  21.423  17.529   8.250
 5169POPC   C3A26117  21.392  17.552   7.950
 5169POPC   C4A26118  21.341  17.489   7.650
 5169POPC   C1B26119  21.584  17.433   8.550
 5169POPC   C2B26120  21.662  17.495   8.250
 5169POPC   C3B26121  21.586  17.406   7.950
 5169POPC   C4B26122  21.623  17.462   7.650
 5170POPC   NC326123   6.640   1.988   9.450
 5170POPC   PO426124   6.619   1.962   9.150
 5170POPC   GL126125   6.661   1.999   8.850
 5170POPC   GL226126   6.588   2.091   8.850
 5170POPC   C1A26127   6.603   1.990   8.550
 5170POPC   D2A26128   6.649   1.943   8.250
 5170POPC   C3A26129   6.679   2.028   7.950
 5170POPC   C4A26130   6.629   1.991   7.650
 5170POPC   C1B26131   6.467   2.112   8.550
 5170POPC   C2B26132   6.429   2.150   8.250
 5170POPC   C3B26133   6.439   2.112   7.950
 5170POPC   C4B26134   6.426   2.154   7.650
 5171POPC   NC326135  22.126  42.358   9.450
 5171POPC   PO426136  22.203  42.321   9.150
 5171POPC   GL126137  22.210  42.285   8.850
 5171POPC   GL226138  22.025  42.353   8.850
 5171POPC   C1A26139  22.170  42.376   8.550
 5171POPC   D2A26140  22.210  42.354   8.250
 5171POPC   C3A26141  22.199  42.322   7.950
 5171POPC   C4A26142  22.130  42.366   7.650
 5171POPC   C1B26143  21.933  42.380   8.550
 5171POPC   C2B26144  21.891  42.418   8.250
 5171POPC   C3B26145  21.926  42.362   7.950
 5171POPC   C4B26146  21.883  42.373   7.650
 5172POPC   NC326147   4.272  26.047   9.450
 5172POPC   PO426148   4.317  26.087   9.150
 5172POPC   GL126149   4.312  26.027   8.850
 5172POPC   GL226150   4.383  26.140   8.850
 5172POPC   C1A26151   4.347  26.007   8.550
 5172POPC   D2A26152   4.320  26.018   8.250
 5172POPC   C3A26153   4.316  26.048   7.950
 5172POPC   C4A26154   4.269  26.024   7.650
 5172POPC   C1B26155   4.368  26.233   8.550
 5172POPC   C2B26156   4.348  26.278   8.250
 5172POPC   C3B26157   4.380  26.286   7.950
 5172POPC   C4B26158   4.413  26.310   7.650
 5173POPC   NC326159  27.638  18.246   9.450
 5173POPC   PO426160  27.594  18.304   9.150
 5173POPC   GL126161  27.550  18.329   8.850
 5173POPC   GL226162  27.461  18.335   8.850
 5173POPC   C1A26163  27.613  18.307   8.550
 5173POPC   D2A26164  27.560  18.234   8.250
 5173POPC   C3A26165  27.622  18.266   7.950
 5173POPC   C4A26166  27.607  18.299   7.650
 5173POPC   C1B26167  27.359  18.453   8.550
 5173POPC   C2B26168  27.422  18.427   8.250
 5173POPC   C3B26169  27.360  18.398   7.950
 5173POPC   C4B26170  27.394  18.387   7.650
 5174POPC   NC326171  12.854   9.777   9.450
 5174POPC   PO426172  12.875   9.755   9.150
 5174POPC   GL126173  12.888   9.704   8.850
 5174POPC   GL226174  12.760   9.759   8.850
 5174POPC   C1A26175  12.852   9.766   8.550
 5174POPC   D2A26176  12.847   9.748   8.250
 5174POPC   C3A26177  12.853   9.735   7.950
 5174POPC   C4A26178  12.807   9.731   7.650
 5174POPC   C1B26179  12.644   9.701   8.550
 5174POPC   C2B26180  12.558   9.686   8.250
 5174POPC   C3B26181  12.602   9.738   7.950
 5174POPC   C4B26182  12.642   9.730   7.650
 5175POPC   NC326183  24.524  15.999   9.450
 5175POPC   PO426184  24.509  15.908   9.150
 5175POPC   GL126185  24.537  15.976   8.850
 5175POPC   GL226186  24.630  15.911   8.850
 5175POPC   C1A26187  24.445  15.959   8.550
 5175POPC   D2A26188  24.488  15.909   8.250
 5175POPC   C3A26189  24.475  15.960   7.950
 5175POPC   C4A26190  24.473  15.992   7.650
 5175POPC   C1B26191  24.781  15.991   8.550
 5175POPC   C2B26192  24.788  15.928   8.250
 5175POPC   C3B26193  24.751  15.920   7.950
 5175POPC   C4B26194  24.734  15.969   7.650
 5176POPC   NC326195   9.760   2.767   9.450
 5176POPC   PO426196   9.788   2.742   9.150
 5176POPC   GL126197   9.705   2.803   8.850
 5176POPC   GL226198   9.853   2.787   8.850
 5176POPC   C1A26199   9.757   2.740   8.550
 5176POPC   D2A26200   9.794   2.813   8.250
 5176POPC   C3A26201   9.734   2.800   7.950
 5176POPC   C4A26202   9.797   2.723   7.650
 5176POPC   C1B26203   9.976   2.897   8.550
 5176POPC   C2B26204   9.907   2.875   8.250
 5176POPC   C3B26205   9.935   2.944   7.950
 5176POPC   C4B26206   9.987   2.859   7.650
 5177POPC   NC326207  21.407  24.512   9.450
 5177POPC   PO426208  21.386  24.494   9.150
 5177POPC   GL126209  21.407  24.496   8.850
 5177POPC   GL226210  21.463  24.427   8.850
 5177POPC   C1A26211  21.422  24.450   8.550
 5177POPC   D2A26212  21.429  24.470   8.250
 5177POPC   C3A26213  21.416  24.483   7.950
 5177POPC   C4A26214  21.382  24.478   7.650
 5177POPC   C1B26215  21.524  24.281   8.550
 5177POPC   C2B26216  21.524  24.348   8.250
 5177POPC   C3B26217  21.554  24.318   7.950
 5177POPC   C4B26218  21.531  24.311   7.650
 5178POPC   NC326219  43.064  12.859   9.450
 5178POPC   PO426220  43.137  12.842   9.150
 5178POPC   GL126221  43.118  12.842   8.850
 5178POPC   GL226222  43.088  13.003   8.850
 5178POPC   C1A26223  43.073  12.817   8.550
 5178POPC   D2A26224  43.134  12.848   8.250
 5178POPC   C3A26225  43.098  12.887   7.950
 5178POPC   C4A26226  43.088  12.825   7.650
 5178POPC   C1B26227  43.132  13.047   8.550
 5178POPC   C2B26228  43.211  13.100   8.250
 5178POPC   C3B26229  43.114  13.097   7.950
 5178POPC   C4B26230  43.189  13.105   7.650
 5179POPC   NC326231   8.949  36.900   9.450
 5179POPC   PO426232   9.015  36.909   9.150
 5179POPC   GL126233   8.993  36.938   8.850
 5179POPC   GL226234   8.935  37.046   8.850
 5179POPC   C1A26235   8.930  36.875   8.550
 5179POPC   D2A26236   8.994  36.917   8.250
 5179POPC   C3A26237   8.972  36.864   7.950
 5179POPC   C4A26238   8.985  36.890   7.650
 5179POPC   C1B26239   8.828  37.082   8.550
 5179POPC   C2B26240   8.842  37.051   8.250
 5179POPC   C3B26241   8.830  37.112   7.950
 5179POPC   C4B26242   8.767  37.130   7.650
 5180POPC   NC326243  31.462  35.352   9.450
 5180POPC   PO426244  31.453  35.351   9.150
 5180POPC   GL126245  31.521  35.347   8.850
 5180POPC   GL226246  31.638  35.386   8.850
 5180POPC   C1A26247  31.495  35.356   8.550
 5180POPC   D2A26248  31.466  35.363   8.250
 5180POPC   C3A26249  31.431  35.387   7.950
 5180POPC   C4A26250  31.440  35.305   7.650
 5180POPC   C1B26251  31.678  35.358   8.550
 5180POPC   C2B26252  31.735  35.441   8.250
 5180POPC   C3B26253  31.748  35.361   7.950
 5180POPC   C4B26254  31.703  35.434   7.650
 5181POPC   NC326255  19.866  44.627   9.450
 5181POPC   PO426256  19.795  44.642   9.150
 5181POPC   GL126257  19.821  44.630   8.850
 5181POPC   GL226258  19.745  44.639   8.850
 5181POPC   C1A26259  19.841  44.657   8.550
 5181POPC   D2A26260  19.865  44.647   8.250
 5181POPC   C3A26261  19.837  44.707   7.950
 5181POPC   C4A26262  19.864  44.706   7.650
 5181POPC   C1B26263  19.591  44.610   8.550
 5181POPC   C2B26264  19.609  44.531   8.250
 5181POPC   C3B26265  19.555  44.519   7.950
 5181POPC   C4B26266  19.651  44.600   7.650
 5182POPC   NC326267   7.432  22.902   9.450
 5182POPC   PO426268   7.379  22.943   9.150
 5182POPC   GL126269   7.410  22.892   8.850
 5182POPC   GL226270   7.525  23.028   8.850
 5182POPC   C1A26271   7.389  22.942   8.550
 5182POPC   D2A26272   7.391  22.983   8.250
 5182POPC   C3A26273   7.416  22.924   7.950
 5182POPC   C4A26274   7.385  22.978   7.650
 5182POPC   C1B26275   7.632  23.082   8.550
 5182POPC   C2B26276   7.657  23.091   8.250
 5182POPC   C3B26277   7.646  23.020   7.950
 5182POPC   C4B26278   7.629  23.051   7.650
 5183POPC   NC326279  18.240  28.387   9.450
 5183POPC   PO426280  18.295  28.365   9.150
 5183POPC   GL126281  18.330  28.405   8.850
 5183POPC   GL226282  18.357  28.248   8.850
 5183POPC   C1A26283  18.319  28.338   8.550
 5183POPC   D2A26284  18.268  28.404   8.250
 5183POPC   C3A26285  18.330  28.381   7.950
 5183POPC   C4A26286  18.306  28.355   7.650
 5183POPC   C1B26287  18.376  28.195   8.550
 5183POPC   C2B26288  18.390  28.155   8.250
 5183POPC   C3B26289  18.419  28.149   7.950
 5183POPC   C4B26290  18.418  28.144   7.650
 5184POPC   NC326291  10.482  28.379   9.450
 5184POPC   PO426292  10.491  28.367   9.150
 5184POPC   GL126293  10.499  28.404   8.850
 5184POPC   GL226294  10.536  28.269   8.850
 5184POPC   C1A26295  10.536  28.418   8.550
 5184POPC   D2A26296  10.508  28.344   8.250
 5184POPC   C3A26297  10.551  28.353   7.950
 5184POPC   C4A26298  10.520  28.331   7.650
 5184POPC   C1B26299  10.579  28.161   8.550
 5184POPC   C2B26300  10.620  28.167   8.250
 5184POPC   C3B26301  10.618  28.180   7.950
 5184POPC   C4B26302  10.591  28.098   7.650
 5185POPC   NC326303  40.053   5.887   9.450
 5185POPC   PO426304  39.979   5.882   9.150
 5185POPC   GL126305  40.031   5.900   8.850
 5185POPC   GL226306  40.018   6.031   8.850
 5185POPC   C1A26307  39.958   5.894   8.550
 5185POPC   D2A26308  40.037   5.854   8.250
 5185POPC   C3A26309  40.051   5.834   7.950
 5185POPC   C4A26310  40.056   5.865   7.650
 5185POPC   C1B26311  39.965   6.099   8.550
 5185POPC   C2B26312  39.895   6.127   8.250
 5185POPC   C3B26313  39.947   6.114   7.950
 5185POPC   C4B26314  39.938   6.127   7.650
 5186POPC   NC326315  20.568  43.117   9.450
 5186POPC   PO426316  20.583  43.086   9.150
 5186POPC   GL126317  20.608  43.106   8.850
 5186POPC   GL226318  20.742  43.124   8.850
 5186POPC   C1A26319  20.589  43.098   8.550
 5186POPC   D2A26320  20.649  43.119   8.250
 5186POPC   C3A26321  20.595  43.068   7.950
 5186POPC   C4A26322  20.607  43.107   7.650
 5186POPC   C1B26323  20.871  43.160   8.550
 5186POPC   C2B26324  20.858  43.211   8.250
 5186POPC   C3B26325  20.840  43.164   7.950
 5186POPC   C4B26326  20.800  43.218   7.650
 5187POPC   NC326327   0.447  34.606   9.450
 5187POPC   PO426328   0.436  34.614   9.150
 5187POPC   GL126329   0.428  34.533   8.850
 5187POPC   GL226330   0.326  34.552   8.850
 5187POPC   C1A26331   0.388  34.529   8.550
 5187POPC   D2A26332   0.410  34.569   8.250
 5187POPC   C3A26333   0.448  34.542   7.950
 5187POPC   C4A26334   0.451  34.562   7.650
 5187POPC   C1B26335   0.247  34.528   8.550
 5187POPC   C2B26336   0.161  34.502   8.250
 5187POPC   C3B26337   0.204  34.534   7.950
 5187POPC   C4B26338   0.184  34.540   7.650
 5188POPC   NC326339  37.660  26.815   9.450
 5188POPC   PO426340  37.660  26.850   9.150
 5188POPC   GL126341  37.707  26.791   8.850
 5188POPC   GL226342  37.814  26.928   8.850
 5188POPC   C1A26343  37.657  26.839   8.550
 5188POPC   D2A26344  37.665  26.772   8.250
 5188POPC   C3A26345  37.707  26.818   7.950
 5188POPC   C4A26346  37.636  26.862   7.650
 5188POPC   C1B26347  37.908  26.939   8.550
 5188POPC   C2B26348  37.868  26.912   8.250
 5188POPC   C3B26349  37.941  26.947   7.950
 5188POPC   C4B26350  37.877  26.911   7.650
 5189POPC   NC326351   9.763  16.768   9.450
 5189POPC   PO426352   9.701  16.694   9.150
 5189POPC   GL126353   9.734  16.682   8.850
 5189POPC   GL226354   9.630  16.721   8.850
 5189POPC   C1A26355   9.742  16.698   8.550
 5189POPC   D2A26356   9.767  16.745   8.250
 5189POPC   C3A26357   9.757  16.695   7.950
 5189POPC   C4A26358   9.754  16.766   7.650
 5189POPC   C1B26359   9.556  16.631   8.550
 5189POPC   C2B26360   9.531  16.584   8.250
 5189POPC   C3B26361   9.504  16.601   7.950
 5189POPC   C4B26362   9.487  16.586   7.650
 5190POPC   NC326363  27.576  32.996   9.450
 5190POPC   PO426364  27.560  33.069   9.150
 5190POPC   GL126365  27.561  33.052   8.850
 5190POPC   GL226366  27.656  33.134   8.850
 5190POPC   C1A26367  27.635  32.987   8.550
 5190POPC   D2A26368  27.549  33.011   8.250
 5190POPC   C3A26369  27.630  33.052   7.950
 5190POPC   C4A26370  27.632  32.975   7.650
 5190POPC   C1B26371  27.710  33.268   8.550
 5190POPC   C2B26372  27.722  33.236   8.250
 5190POPC   C3B26373  27.718  33.243   7.950
 5190POPC   C4B26374  27.734  33.243   7.650
 5191POPC   NC326375  36.869  44.628   9.450
 5191POPC   PO426376  36.878  44.712   9.150
 5191POPC   GL126377  36.935  44.632   8.850
 5191POPC   GL226378  36.754  44.644   8.850
 5191POPC   C1A26379  36.862  44.677   8.550
 5191POPC   D2A26380  36.933  44.617   8.250
 5191POPC   C3A26381  36.914  44.632   7.950
 5191POPC   C4A26382  36.937  44.613   7.650
 5191POPC   C1B26383  36.632  44.641   8.550
 5191POPC   C2B26384  36.679  44.592   8.250
 5191POPC   C3B26385  36.700  44.644   7.950
 5191POPC   C4B26386  36.632  44.577   7.650
 5192POPC   NC326387  27.605  26.045   9.450
 5192POPC   PO426388  27.604  26.083   9.150
 5192POPC   GL126389  27.590  26.003   8.850
 5192POPC   GL226390  27.641  26.152   8.850
 5192POPC   C1A26391  27.616  26.054   8.550
 5192POPC   D2A26392  27.641  26.018   8.250
 5192POPC   C3A26393  27.558  26.026   7.950
 5192POPC   C4A26394  27.572  26.046   7.650
 5192POPC   C1B26395  27.600  26.318   8.550
 5192POPC   C2B26396  27.568  26.334   8.250
 5192POPC   C3B26397  27.614  26.281   7.950
 5192POPC   C4B26398  27.578  26.334   7.650
 5193POPC   NC326399  22.180  36.133   9.450
 5193POPC   PO426400  22.133  36.145   9.150
 5193POPC   GL126401  22.130  36.158   8.850
 5193POPC   GL226402  22.145  36.221   8.850
 5193POPC   C1A26403  22.194  36.111   8.550
 5193POPC   D2A26404  22.156  36.124   8.250
 5193POPC   C3A26405  22.189  36.130   7.950
 5193POPC   C4A26406  22.137  36.102   7.650
 5193POPC   C1B26407  22.169  36.374   8.550
 5193POPC   C2B26408  22.216  36.404   8.250
 5193POPC   C3B26409  22.148  36.351   7.950
 5193POPC   C4B26410  22.192  36.368   7.650
 5194POPC   NC326411   9.700  26.842   9.450
 5194POPC   PO426412   9.743  26.817   9.150
 5194POPC   GL126413   9.796  26.818   8.850
 5194POPC   GL226414   9.649  26.748   8.850
 5194POPC   C1A26415   9.793  26.845   8.550
 5194POPC   D2A26416   9.703  26.852   8.250
 5194POPC   C3A26417   9.730  26.833   7.950
 5194POPC   C4A26418   9.730  26.799   7.650
 5194POPC   C1B26419   9.557  26.751   8.550
 5194POPC   C2B26420   9.471  26.711   8.250
 5194POPC   C3B26421   9.546  26.743   7.950
 5194POPC   C4B26422   9.495  26.727   7.650
 5195POPC   NC326423  39.226  16.689   9.450
 5195POPC   PO426424  39.258  16.691   9.150
 5195POPC   GL126425  39.255  16.755   8.850
 5195POPC   GL226426  39.174  16.671   8.850
 5195POPC   C1A26427  39.240  16.751   8.550
 5195POPC   D2A26428  39.254  16.685   8.250
 5195POPC   C3A26429  39.259  16.765   7.950
 5195POPC   C4A26430  39.228  16.726   7.650
 5195POPC   C1B26431  39.002  16.602   8.550
 5195POPC   C2B26432  39.020  16.520   8.250
 5195POPC   C3B26433  39.007  16.586   7.950
 5195POPC   C4B26434  39.001  16.536   7.650
 5196POPC   NC326435  26.778  31.458   9.450
 5196POPC   PO426436  26.812  31.512   9.150
 5196POPC   GL126437  26.861  31.484   8.850
 5196POPC   GL226438  26.959  31.428   8.850
 5196POPC   C1A26439  26.791  31.463   8.550
 5196POPC   D2A26440  26.830  31.487   8.250
 5196POPC   C3A26441  26.771  31.482   7.950
 5196POPC   C4A26442  26.818  31.520   7.650
 5196POPC   C1B26443  27.069  31.421   8.550
 5196POPC   C2B26444  27.092  31.374   8.250
 5196POPC   C3B26445  27.055  31.398   7.950
 5196POPC   C4B26446  27.099  31.447   7.650
 5197POPC   NC326447  12.101  22.953   9.450
 5197POPC   PO426448  12.042  22.930   9.150
 5197POPC   GL126449  12.040  22.929   8.850
 5197POPC   GL226450  12.061  23.083   8.850
 5197POPC   C1A26451  12.096  22.920   8.550
 5197POPC   D2A26452  12.107  22.977   8.250
 5197POPC   C3A26453  12.088  22.890   7.950
 5197POPC   C4A26454  12.088  22.892   7.650
 5197POPC   C1B26455  12.053  23.160   8.550
 5197POPC   C2B26456  12.083  23.222   8.250
 5197POPC   C3B26457  12.083  23.199   7.950
 5197POPC   C4B26458  12.077  23.217   7.650
 5198POPC   NC326459  32.212  42.375   9.450
 5198POPC   PO426460  32.216  42.322   9.150
 5198POPC   GL126461  32.244  42.315   8.850
 5198POPC   GL226462  32.106  42.361   8.850
 5198POPC   C1A26463  32.293  42.322   8.550
 5198POPC   D2A26464  32.276  42.299   8.250
 5198POPC   C3A26465  32.286  42.293   7.950
 5198POPC   C4A26466  32.240  42.348   7.650
 5198POPC   C1B26467  32.058  42.442   8.550
 5198POPC   C2B26468  32.038  42.449   8.250
 5198POPC   C3B26469  32.066  42.444   7.950
 5198POPC   C4B26470  32.026  42.428   7.650
 5199POPC   NC326471  29.147  36.105   9.450
 5199POPC   PO426472  29.126  36.080   9.150
 5199POPC   GL126473  29.123  36.089   8.850
 5199POPC   GL226474  29.209  36.260   8.850
 5199POPC   C1A26475  29.190  36.176   8.550
 5199POPC   D2A26476  29.139  36.177   8.250
 5199POPC   C3A26477  29.117  36.088   7.950
 5199POPC   C4A26478  29.141  36.134   7.650
 5199POPC   C1B26479  29.267  36.344   8.550
 5199POPC   C2B26480  29.255  36.339   8.250
 5199POPC   C3B26481  29.234  36.304   7.950
 5199POPC   C4B26482  29.251  36.310   7.650
 5200POPC   NC326483  43.885   3.519   9.450
 5200POPC   PO426484  43.895   3.554   9.150
 5200POPC   GL126485  43.847   3.576   8.850
 5200POPC   GL226486  43.836   3.677   8.850
 5200POPC   C1A26487  43.842   3.583   8.550
 5200POPC   D2A26488  43.847   3.553   8.250
 5200POPC   C3A26489  43.894   3.571   7.950
 5200POPC   C4A26490  43.859   3.505   7.650
 5200POPC   C1B26491  43.745   3.792   8.550
 5200POPC   C2B26492  43.741   3.730   8.250
 5200POPC   C3B26493  43.737   3.706   7.950
 5200POPC   C4B26494  43.768   3.733   7.650
 5201POPC   NC326495  34.625  16.716   9.450
 5201POPC   PO426496  34.585  16.719   9.150
 5201POPC   GL126497  34.583  16.720   8.850
 5201POPC   GL226498  34.539  16.817   8.850
 5201POPC   C1A26499  34.593  16.720   8.550
 5201POPC   D2A26500  34.535  16.683   8.250
 5201POPC   C3A26501  34.563  16.713   7.950
 5201POPC   C4A26502  34.547  16.707   7.650
 5201POPC   C1B26503  34.447  16.921   8.550
 5201POPC   C2B26504  34.388  16.920   8.250
 5201POPC   C3B26505  34.424  16.923   7.950
 5201POPC   C4B26506  34.469  16.945   7.650
 5202POPC   NC326507   7.396  44.680   9.450
 5202POPC   PO426508   7.431  44.667   9.150
 5202POPC   GL126509   7.385  44.619   8.850
 5202POPC   GL226510   7.258  44.661   8.850
 5202POPC   C1A26511   7.420  44.705   8.550
 5202POPC   D2A26512   7.389  44.667   8.250
 5202POPC   C3A26513   7.461  44.659   7.950
 5202POPC   C4A26514   7.461  44.689   7.650
 5202POPC   C1B26515   7.161  44.570   8.550
 5202POPC   C2B26516   7.219  44.604   8.250
 5202POPC   C3B26517   7.221  44.571   7.950
 5202POPC   C4B26518   7.215  44.601   7.650
 5203POPC   NC326519  43.923  43.061   9.450
 5203POPC   PO426520  43.879  43.107   9.150
 5203POPC   GL126521  43.922  43.120   8.850
 5203POPC   GL226522  43.866  43.249   8.850
 5203POPC   C1A26523  43.886  43.095   8.550
 5203POPC   D2A26524  43.840  43.116   8.250
 5203POPC   C3A26525  43.839  43.135   7.950
 5203POPC   C4A26526  43.837  43.151   7.650
 5203POPC   C1B26527  43.876  43.338   8.550
 5203POPC   C2B26528  43.834  43.318   8.250
 5203POPC   C3B26529  43.902  43.346   7.950
 5203POPC   C4B26530  43.860  43.319   7.650
 5204POPC   NC326531  11.290  34.559   9.450
 5204POPC   PO426532  11.270  34.604   9.150
 5204POPC   GL126533  11.349  34.611   8.850
 5204POPC   GL226534  11.389  34.558   8.850
 5204POPC   C1A26535  11.278  34.599   8.550
 5204POPC   D2A26536  11.282  34.592   8.250
 5204POPC   C3A26537  11.305  34.540   7.950
 5204POPC   C4A26538  11.314  34.551   7.650
 5204POPC   C1B26539  11.542  34.516   8.550
 5204POPC   C2B26540  11.577  34.429   8.250
 5204POPC   C3B26541  11.508  34.469   7.950
 5204POPC   C4B26542  11.510  34.457   7.650
 5205POPC   NC326543  29.900  40.014   9.450
 5205POPC   PO426544  29.962  39.978   9.150
 5205POPC   GL126545  29.933  40.047   8.850
 5205POPC   GL226546  29.972  40.084   8.850
 5205POPC   C1A26547  29.913  39.967   8.550
 5205POPC   D2A26548  29.895  39.995   8.250
 5205POPC   C3A26549  29.938  40.043   7.950
 5205POPC   C4A26550  29.888  40.010   7.650
 5205POPC   C1B26551  29.997  40.189   8.550
 5205POPC   C2B26552  30.042  40.227   8.250
 5205POPC   C3B26553  30.068  40.247   7.950
 5205POPC   C4B26554  30.060  40.272   7.650
 5206POPC   NC326555   5.142   5.868   9.450
 5206POPC   PO426556   5.096   5.831   9.150
 5206POPC   GL126557   5.104   5.902   8.850
 5206POPC   GL226558   4.946   5.863   8.850
 5206POPC   C1A26559   5.075   5.871   8.550
 5206POPC   D2A26560   5.058   5.826   8.250
 5206POPC   C3A26561   5.093   5.835   7.950
 5206POPC   C4A26562   5.133   5.834   7.650
 5206POPC   C1B26563   4.889   5.862   8.550
 5206POPC   C2B26564   4.803   5.822   8.250
 5206POPC   C3B26565   4.888   5.858   7.950
 5206POPC   C4B26566   4.814   5.896   7.650
 5207POPC   NC326567  37.659  20.589   9.450
 5207POPC   PO426568  37.649  20.620   9.150
 5207POPC   GL126569  37.678  20.659   8.850
 5207POPC   GL226570  37.679  20.449   8.850
 5207POPC   C1A26571  37.709  20.624   8.550
 5207POPC   D2A26572  37.698  20.569   8.250
 5207POPC   C3A26573  37.646  20.584   7.950
 5207POPC   C4A26574  37.668  20.615   7.650
 5207POPC   C1B26575  37.582  20.333   8.550
 5207POPC   C2B26576  37.536  20.413   8.250
 5207POPC   C3B26577  37.551  20.372   7.950
 5207POPC   C4B26578  37.567  20.369   7.650
 5208POPC   NC326579  42.306  29.943   9.450
 5208POPC   PO426580  42.351  29.917   9.150
 5208POPC   GL126581  42.299  29.871   8.850
 5208POPC   GL226582  42.211  29.904   8.850
 5208POPC   C1A26583  42.329  29.954   8.550
 5208POPC   D2A26584  42.360  29.963   8.250
 5208POPC   C3A26585  42.349  29.948   7.950
 5208POPC   C4A26586  42.367  29.895   7.650
 5208POPC   C1B26587  42.052  29.914   8.550
 5208POPC   C2B26588  42.129  29.933   8.250
 5208POPC   C3B26589  42.093  29.934   7.950
 5208POPC   C4B26590  42.088  29.993   7.650
 5209POPC   NC326591  36.103  15.155   9.450
 5209POPC   PO426592  36.093  15.146   9.150
 5209POPC   GL126593  36.093  15.142   8.850
 5209POPC   GL226594  36.106  15.274   8.850
 5209POPC   C1A26595  36.101  15.180   8.550
 5209POPC   D2A26596  36.103  15.156   8.250
 5209POPC   C3A26597  36.084  15.134   7.950
 5209POPC   C4A26598  36.099  15.191   7.650
 5209POPC   C1B26599  36.180  15.447   8.550
 5209POPC   C2B26600  36.185  15.411   8.250
 5209POPC   C3B26601  36.171  15.460   7.950
 5209POPC   C4B26602  36.143  15.393   7.650
 5210POPC   NC326603  36.910  23.748   9.450
 5210POPC   PO426604  36.929  23.702   9.150
 5210POPC   GL126605  36.938  23.752   8.850
 5210POPC   GL226606  36.998  23.778   8.850
 5210POPC   C1A26607  36.885  23.761   8.550
 5210POPC   D2A26608  36.941  23.726   8.250
 5210POPC   C3A26609  36.931  23.713   7.950
 5210POPC   C4A26610  36.926  23.672   7.650
 5210POPC   C1B26611  37.099  23.890   8.550
 5210POPC   C2B26612  37.072  23.879   8.250
 5210POPC   C3B26613  37.039  23.869   7.950
 5210POPC   C4B26614  37.028  23.911   7.650
 5211POPC   NC326615  36.148  31.425   9.450
 5211POPC   PO426616  36.121  31.490   9.150
 5211POPC   GL126617  36.137  31.488   8.850
 5211POPC   GL226618  36.103  31.359   8.850
 5211POPC   C1A26619  36.162  31.489   8.550
 5211POPC   D2A26620  36.130  31.508   8.250
 5211POPC   C3A26621  36.096  31.492   7.950
 5211POPC   C4A26622  36.160  31.454   7.650
 5211POPC   C1B26623  36.109  31.237   8.550
 5211POPC   C2B26624  36.111  31.195   8.250
 5211POPC   C3B26625  36.066  31.187   7.950
 5211POPC   C4B26626  36.061  31.264   7.650
 5212POPC   NC326627  17.516  10.527   9.450
 5212POPC   PO426628  17.516  10.507   9.150
 5212POPC   GL126629  17.504  10.484   8.850
 5212POPC   GL226630  17.668  10.548   8.850
 5212POPC   C1A26631  17.550  10.572   8.550
 5212POPC   D2A26632  17.540  10.541   8.250
 5212POPC   C3A26633  17.497  10.569   7.950
 5212POPC   C4A26634  17.545  10.541   7.650
 5212POPC   C1B26635  17.795  10.610   8.550
 5212POPC   C2B26636  17.709  10.607   8.250
 5212POPC   C3B26637  17.705  10.620   7.950
 5212POPC   C4B26638  17.715  10.527   7.650
 5213POPC   NC326639  21.343  44.700   9.450
 5213POPC   PO426640  21.430  44.615   9.150
 5213POPC   GL126641  21.390  44.711   8.850
 5213POPC   GL226642  21.319  44.549   8.850
 5213POPC   C1A26643  21.386  44.672   8.550
 5213POPC   D2A26644  21.383  44.688   8.250
 5213POPC   C3A26645  21.420  44.618   7.950
 5213POPC   C4A26646  21.428  44.685   7.650
 5213POPC   C1B26647  21.261  44.465   8.550
 5213POPC   C2B26648  21.252  44.434   8.250
 5213POPC   C3B26649  21.342  44.426   7.950
 5213POPC   C4B26650  21.337  44.421   7.650
 5214POPC   NC326651  14.358  31.464   9.450
 5214POPC   PO426652  14.395  31.464   9.150
 5214POPC   GL126653  14.370  31.465   8.850
 5214POPC   GL226654  14.294  31.520   8.850
 5214POPC   C1A26655  14.440  31.479   8.550
 5214POPC   D2A26656  14.396  31.511   8.250
 5214POPC   C3A26657  14.438  31.521   7.950
 5214POPC   C4A26658  14.387  31.499   7.650
 5214POPC   C1B26659  14.157  31.513   8.550
 5214POPC   C2B26660  14.194  31.524   8.250
 5214POPC   C3B26661  14.183  31.545   7.950
 5214POPC   C4B26662  14.122  31.578   7.650
 5215POPC   NC326663  18.321  17.467   9.450
 5215POPC   PO426664  18.277  17.554   9.150
 5215POPC   GL126665  18.245  17.506   8.850
 5215POPC   GL226666  18.438  17.600   8.850
 5215POPC   C1A26667  18.316  17.535   8.550
 5215POPC   D2A26668  18.320  17.479   8.250
 5215POPC   C3A26669  18.266  17.527   7.950
 5215POPC   C4A26670  18.304  17.502   7.650
 5215POPC   C1B26671  18.515  17.603   8.550
 5215POPC   C2B26672  18.554  17.599   8.250
 5215POPC   C3B26673  18.555  17.642   7.950
 5215POPC   C4B26674  18.489  17.648   7.650
 5216POPC   NC326675  11.294  43.146   9.450
 5216POPC   PO426676  11.334  43.088   9.150
 5216POPC   GL126677  11.270  43.108   8.850
 5216POPC   GL226678  11.347  43.015   8.850
 5216POPC   C1A26679  11.311  43.064   8.550
 5216POPC   D2A26680  11.281  43.112   8.250
 5216POPC   C3A26681  11.293  43.122   7.950
 5216POPC   C4A26682  11.350  43.084   7.650
 5216POPC   C1B26683  11.447  42.958   8.550
 5216POPC   C2B26684  11.511  42.980   8.250
 5216POPC   C3B26685  11.500  42.902   7.950
 5216POPC   C4B26686  11.505  42.966   7.650
 5217POPC   NC326687   7.402  12.831   9.450
 5217POPC   PO426688   7.439  12.862   9.150
 5217POPC   GL126689   7.428  12.819   8.850
 5217POPC   GL226690   7.384  12.971   8.850
 5217POPC   C1A26691   7.389  12.836   8.550
 5217POPC   D2A26692   7.384  12.825   8.250
 5217POPC   C3A26693   7.449  12.827   7.950
 5217POPC   C4A26694   7.462  12.877   7.650
 5217POPC   C1B26695   7.377  13.045   8.550
 5217POPC   C2B26696   7.404  13.135   8.250
 5217POPC   C3B26697   7.405  13.105   7.950
 5217POPC   C4B26698   7.316  13.090   7.650
 5218POPC   NC326699  26.073   8.950   9.450
 5218POPC   PO426700  26.023   9.016   9.150
 5218POPC   GL126701  26.091   8.976   8.850
 5218POPC   GL226702  25.980   9.079   8.850
 5218POPC   C1A26703  26.089   8.941   8.550
 5218POPC   D2A26704  26.004   8.986   8.250
 5218POPC   C3A26705  26.088   8.996   7.950
 5218POPC   C4A26706  26.087   9.005   7.650
 5218POPC   C1B26707  25.844   9.171   8.550
 5218POPC   C2B26708  25.899   9.164   8.250
 5218POPC   C3B26709  25.883   9.126   7.950
 5218POPC   C4B26710  25.877   9.133   7.650
 5219POPC   NC326711  40.820  43.876   9.450
 5219POPC   PO426712  40.784  43.879   9.150
 5219POPC   GL126713  40.744  43.850   8.850
 5219POPC   GL226714  40.889  43.889   8.850
 5219POPC   C1A26715  40.825  43.839   8.550
 5219POPC   D2A26716  40.817  43.905   8.250
 5219POPC   C3A26717  40.792  43.900   7.950
 5219POPC   C4A26718  40.824  43.870   7.650
 5219POPC   C1B26719  40.995  43.840   8.550
 5219POPC   C2B26720  40.996  43.827   8.250
 5219POPC   C3B26721  41.004  43.783   7.950
 5219POPC   C4B26722  41.020  43.833   7.650
 5220POPC   NC326723  32.199  14.425   9.450
 5220POPC   PO426724  32.274  14.411   9.150
 5220POPC   GL126725  32.240  14.406   8.850
 5220POPC   GL226726  32.260  14.487   8.850
 5220POPC   C1A26727  32.297  14.389   8.550
 5220POPC   D2A26728  32.269  14.378   8.250
 5220POPC   C3A26729  32.262  14.403   7.950
 5220POPC   C4A26730  32.262  14.420   7.650
 5220POPC   C1B26731  32.286  14.604   8.550
 5220POPC   C2B26732  32.238  14.681   8.250
 5220POPC   C3B26733  32.273  14.662   7.950
 5220POPC   C4B26734  32.315  14.617   7.650
 5221POPC   NC326735  21.339  23.671   9.450
 5221POPC   PO426736  21.406  23.719   9.150
 5221POPC   GL126737  21.399  23.694   8.850
 5221POPC   GL226738  21.408  23.557   8.850
 5221POPC   C1A26739  21.370  23.705   8.550
 5221POPC   D2A26740  21.393  23.727   8.250
 5221POPC   C3A26741  21.417  23.738   7.950
 5221POPC   C4A26742  21.415  23.710   7.650
 5221POPC   C1B26743  21.365  23.511   8.550
 5221POPC   C2B26744  21.390  23.451   8.250
 5221POPC   C3B26745  21.360  23.511   7.950
 5221POPC   C4B26746  21.413  23.503   7.650
 5222POPC   NC326747  15.956  10.497   9.450
 5222POPC   PO426748  16.005  10.558   9.150
 5222POPC   GL126749  15.943  10.510   8.850
 5222POPC   GL226750  15.886  10.448   8.850
 5222POPC   C1A26751  15.925  10.486   8.550
 5222POPC   D2A26752  15.995  10.519   8.250
 5222POPC   C3A26753  15.950  10.554   7.950
 5222POPC   C4A26754  15.921  10.495   7.650
 5222POPC   C1B26755  15.742  10.446   8.550
 5222POPC   C2B26756  15.716  10.373   8.250
 5222POPC   C3B26757  15.790  10.366   7.950
 5222POPC   C4B26758  15.762  10.373   7.650
 5223POPC   NC326759   0.473  33.827   9.450
 5223POPC   PO426760   0.440  33.849   9.150
 5223POPC   GL126761   0.463  33.804   8.850
 5223POPC   GL226762   0.268  33.829   8.850
 5223POPC   C1A26763   0.393  33.767   8.550
 5223POPC   D2A26764   0.473  33.823   8.250
 5223POPC   C3A26765   0.464  33.815   7.950
 5223POPC   C4A26766   0.463  33.765   7.650
 5223POPC   C1B26767   0.190  33.848   8.550
 5223POPC   C2B26768   0.239  33.895   8.250
 5223POPC   C3B26769   0.186  33.885   7.950
 5223POPC   C4B26770   0.194  33.900   7.650
 5224POPC   NC326771  22.947  19.800   9.450
 5224POPC   PO426772  22.926  19.832   9.150
 5224POPC   GL126773  22.920  19.861   8.850
 5224POPC   GL226774  22.845  19.705   8.850
 5224POPC   C1A26775  22.940  19.825   8.550
 5224POPC   D2A26776  22.944  19.819   8.250
 5224POPC   C3A26777  22.943  19.856   7.950
 5224POPC   C4A26778  22.908  19.828   7.650
 5224POPC   C1B26779  22.762  19.678   8.550
 5224POPC   C2B26780  22.799  19.615   8.250
 5224POPC   C3B26781  22.760  19.609   7.950
 5224POPC   C4B26782  22.736  19.690   7.650
 5225POPC   NC326783  19.803  25.304   9.450
 5225POPC   PO426784  19.792  25.259   9.150
 5225POPC   GL126785  19.825  25.255   8.850
 5225POPC   GL226786  19.769  25.345   8.850
 5225POPC   C1A26787  19.874  25.255   8.550
 5225POPC   D2A26788  19.844  25.216   8.250
 5225POPC   C3A26789  19.822  25.288   7.950
 5225POPC   C4A26790  19.789  25.259   7.650
 5225POPC   C1B26791  19.692  25.462   8.550
 5225POPC   C2B26792  19.666  25.487   8.250
 5225POPC   C3B26793  19.711  25.487   7.950
 5225POPC   C4B26794  19.706  25.511   7.650
 5226POPC   NC326795  22.977  28.341   9.450
 5226POPC   PO426796  22.921  28.371   9.150
 5226POPC   GL126797  22.898  28.397   8.850
 5226POPC   GL226798  23.042  28.409   8.850
 5226POPC   C1A26799  22.916  28.405   8.550
 5226POPC   D2A26800  22.888  28.354   8.250
 5226POPC   C3A26801  22.932  28.412   7.950
 5226POPC   C4A26802  22.948  28.359   7.650
 5226POPC   C1B26803  23.131  28.456   8.550
 5226POPC   C2B26804  23.215  28.419   8.250
 5226POPC   C3B26805  23.122  28.423   7.950
 5226POPC   C4B26806  23.121  28.487   7.650
 5227POPC   NC326807   7.384   2.778   9.450
 5227POPC   PO426808   7.438   2.811   9.150
 5227POPC   GL126809   7.421   2.736   8.850
 5227POPC   GL226810   7.464   2.884   8.850
 5227POPC   C1A26811   7.439   2.726   8.550
 5227POPC   D2A26812   7.408   2.739   8.250
 5227POPC   C3A26813   7.440   2.772   7.950
 5227POPC   C4A26814   7.383   2.806   7.650
 5227POPC   C1B26815   7.615   2.967   8.550
 5227POPC   C2B26816   7.603   2.906   8.250
 5227POPC   C3B26817   7.575   2.966   7.950
 5227POPC   C4B26818   7.589   2.969   7.650
 5228POPC   NC326819   6.690  16.701   9.450
 5228POPC   PO426820   6.621  16.759   9.150
 5228POPC   GL126821   6.657  16.740   8.850
 5228POPC   GL226822   6.623  16.832   8.850
 5228POPC   C1A26823   6.662  16.691   8.550
 5228POPC   D2A26824   6.602  16.754   8.250
 5228POPC   C3A26825   6.659  16.768   7.950
 5228POPC   C4A26826   6.675  16.699   7.650
 5228POPC   C1B26827   6.526  16.907   8.550
 5228POPC   C2B26828   6.539  16.934   8.250
 5228POPC   C3B26829   6.533  16.958   7.950
 5228POPC   C4B26830   6.494  16.980   7.650
 5229POPC   NC326831  38.473  42.369   9.450
 5229POPC   PO426832  38.455  42.372   9.150
 5229POPC   GL126833  38.406  42.286   8.850
 5229POPC   GL226834  38.529  42.309   8.850
 5229POPC   C1A26835  38.459  42.291   8.550
 5229POPC   D2A26836  38.477  42.321   8.250
 5229POPC   C3A26837  38.414  42.322   7.950
 5229POPC   C4A26838  38.497  42.300   7.650
 5229POPC   C1B26839  38.705  42.239   8.550
 5229POPC   C2B26840  38.654  42.247   8.250
 5229POPC   C3B26841  38.708  42.263   7.950
 5229POPC   C4B26842  38.678  42.289   7.650
 5230POPC   NC326843   5.056  37.661   9.450
 5230POPC   PO426844   5.101  37.640   9.150
 5230POPC   GL126845   5.064  37.696   8.850
 5230POPC   GL226846   4.934  37.590   8.850
 5230POPC   C1A26847   5.092  37.726   8.550
 5230POPC   D2A26848   5.058  37.636   8.250
 5230POPC   C3A26849   5.084  37.678   7.950
 5230POPC   C4A26850   5.115  37.711   7.650
 5230POPC   C1B26851   4.871  37.554   8.550
 5230POPC   C2B26852   4.821  37.629   8.250
 5230POPC   C3B26853   4.822  37.611   7.950
 5230POPC   C4B26854   4.864  37.610   7.650
 5231POPC   NC326855  40.039  44.635   9.450
 5231POPC   PO426856  39.989  44.669   9.150
 5231POPC   GL126857  39.990  44.701   8.850
 5231POPC   GL226858  39.961  44.834   8.850
 5231POPC   C1A26859  40.022  44.665   8.550
 5231POPC   D2A26860  40.055  44.696   8.250
 5231POPC   C3A26861  40.042  44.619   7.950
 5231POPC   C4A26862  40.017  44.703   7.650
 5231POPC   C1B26863  40.012  44.871   8.550
 5231POPC   C2B26864  39.985  44.941   8.250
 5231POPC   C3B26865  39.991  44.933   7.950
 5231POPC   C4B26866  39.964  44.949   7.650
 5232POPC   NC326867   0.463  11.322   9.450
 5232POPC   PO426868   0.473  11.252   9.150
 5232POPC   GL126869   0.396  11.256   8.850
 5232POPC   GL226870   0.505  11.371   8.850
 5232POPC   C1A26871   0.462  11.330   8.550
 5232POPC   D2A26872   0.390  11.266   8.250
 5232POPC   C3A26873   0.424  11.315   7.950
 5232POPC   C4A26874   0.401  11.340   7.650
 5232POPC   C1B26875   0.499  11.557   8.550
 5232POPC   C2B26876   0.493  11.534   8.250
 5232POPC   C3B26877   0.500  11.533   7.950
 5232POPC   C4B26878   0.511  11.554   7.650
 5233POPC   NC326879  42.312  16.732   9.450
 5233POPC   PO426880  42.374  16.730   9.150
 5233POPC   GL126881  42.326  16.749   8.850
 5233POPC   GL226882  42.433  16.648   8.850
 5233POPC   C1A26883  42.373  16.732   8.550
 5233POPC   D2A26884  42.356  16.694   8.250
 5233POPC   C3A26885  42.347  16.759   7.950
 5233POPC   C4A26886  42.339  16.723   7.650
 5233POPC   C1B26887  42.549  16.636   8.550
 5233POPC   C2B26888  42.547  16.583   8.250
 5233POPC   C3B26889  42.612  16.624   7.950
 5233POPC   C4B26890  42.583  16.626   7.650
 5234POPC   NC326891  11.291  15.932   9.450
 5234POPC   PO426892  11.333  15.968   9.150
 5234POPC   GL126893  11.307  15.935   8.850
 5234POPC   GL226894  11.421  15.929   8.850
 5234POPC   C1A26895  11.273  15.959   8.550
 5234POPC   D2A26896  11.272  15.936   8.250
 5234POPC   C3A26897  11.322  15.953   7.950
 5234POPC   C4A26898  11.310  15.989   7.650
 5234POPC   C1B26899  11.483  15.825   8.550
 5234POPC   C2B26900  11.513  15.853   8.250
 5234POPC   C3B26901  11.517  15.851   7.950
 5234POPC   C4B26902  11.520  15.850   7.650
 5235POPC   NC326903  13.599  10.504   9.450
 5235POPC   PO426904  13.668  10.499   9.150
 5235POPC   GL126905  13.649  10.551   8.850
 5235POPC   GL226906  13.564  10.411   8.850
 5235POPC   C1A26907  13.654  10.489   8.550
 5235POPC   D2A26908  13.667  10.560   8.250
 5235POPC   C3A26909  13.675  10.498   7.950
 5235POPC   C4A26910  13.615  10.514   7.650
 5235POPC   C1B26911  13.617  10.267   8.550
 5235POPC   C2B26912  13.568  10.288   8.250
 5235POPC   C3B26913  13.538  10.314   7.950
 5235POPC   C4B26914  13.573  10.231   7.650
 5236POPC   NC326915  33.754  36.949   9.450
 5236POPC   PO426916  33.849  36.933   9.150
 5236POPC   GL126917  33.764  36.932   8.850
 5236POPC   GL226918  33.886  36.871   8.850
 5236POPC   C1A26919  33.778  36.926   8.550
 5236POPC   D2A26920  33.829  36.891   8.250
 5236POPC   C3A26921  33.808  36.880   7.950
 5236POPC   C4A26922  33.769  36.945   7.650
 5236POPC   C1B26923  34.042  36.808   8.550
 5236POPC   C2B26924  33.986  36.849   8.250
 5236POPC   C3B26925  34.026  36.809   7.950
 5236POPC   C4B26926  34.012  36.844   7.650
 5237POPC   NC326927  26.083   8.244   9.450
 5237POPC   PO426928  26.007   8.246   9.150
 5237POPC   GL126929  25.992   8.238   8.850
 5237POPC   GL226930  26.131   8.096   8.850
 5237POPC   C1A26931  26.064   8.165   8.550
 5237POPC   D2A26932  26.061   8.174   8.250
 5237POPC   C3A26933  26.048   8.159   7.950
 5237POPC   C4A26934  26.034   8.214   7.650
 5237POPC   C1B26935  26.263   8.081   8.550
 5237POPC   C2B26936  26.183   8.046   8.250
 5237POPC   C3B26937  26.238   8.029   7.950
 5237POPC   C4B26938  26.237   7.988   7.650
 5238POPC   NC326939   0.407  44.694   9.450
 5238POPC   PO426940   0.444  44.705   9.150
 5238POPC   GL126941   0.429  44.709   8.850
 5238POPC   GL226942   0.363  44.795   8.850
 5238POPC   C1A26943   0.426  44.700   8.550
 5238POPC   D2A26944   0.482  44.683   8.250
 5238POPC   C3A26945   0.405  44.702   7.950
 5238POPC   C4A26946   0.431  44.673   7.650
 5238POPC   C1B26947   0.376  44.893   8.550
 5238POPC   C2B26948   0.340  44.848   8.250
 5238POPC   C3B26949   0.291  44.917   7.950
 5238POPC   C4B26950   0.378  44.897   7.650
 5239POPC   NC326951   7.415  19.854   9.450
 5239POPC   PO426952   7.379  19.846   9.150
 5239POPC   GL126953   7.434  19.802   8.850
 5239POPC   GL226954   7.274  19.903   8.850
 5239POPC   C1A26955   7.425  19.852   8.550
 5239POPC   D2A26956   7.413  19.849   8.250
 5239POPC   C3A26957   7.461  19.805   7.950
 5239POPC   C4A26958   7.420  19.827   7.650
 5239POPC   C1B26959   7.140  19.932   8.550
 5239POPC   C2B26960   7.164  19.903   8.250
 5239POPC   C3B26961   7.178  19.866   7.950
 5239POPC   C4B26962   7.215  19.920   7.650
 5240POPC   NC326963  23.693  21.372   9.450
 5240POPC   PO426964  23.696  21.367   9.150
 5240POPC   GL126965  23.736  21.417   8.850
 5240POPC   GL226966  23.605  21.396   8.850
 5240POPC   C1A26967  23.753  21.427   8.550
 5240POPC   D2A26968  23.665  21.429   8.250
 5240POPC   C3A26969  23.761  21.390   7.950
 5240POPC   C4A26970  23.669  21.427   7.650
 5240POPC   C1B26971  23.429  21.419   8.550
 5240POPC   C2B26972  23.491  21.409   8.250
 5240POPC   C3B26973  23.451  21.387   7.950
 5240POPC   C4B26974  23.462  21.377   7.650
 5241POPC   NC326975  43.122  44.684   9.450
 5241POPC   PO426976  43.075  44.671   9.150
 5241POPC   GL126977  43.092  44.644   8.850
 5241POPC   GL226978  42.945  44.705   8.850
 5241POPC   C1A26979  43.130  44.662   8.550
 5241POPC   D2A26980  43.110  44.644   8.250
 5241POPC   C3A26981  43.111  44.712   7.950
 5241POPC   C4A26982  43.088  44.618   7.650
 5241POPC   C1B26983  42.905  44.732   8.550
 5241POPC   C2B26984  42.837  44.704   8.250
 5241POPC   C3B26985  42.874  44.698   7.950
 5241POPC   C4B26986  42.883  44.698   7.650
 5242POPC   NC326987  28.356  21.374   9.450
 5242POPC   PO426988  28.388  21.337   9.150
 5242POPC   GL126989  28.347  21.412   8.850
 5242POPC   GL226990  28.406  21.523   8.850
 5242POPC   C1A26991  28.400  21.393   8.550
 5242POPC   D2A26992  28.398  21.361   8.250
 5242POPC   C3A26993  28.405  21.425   7.950
 5242POPC   C4A26994  28.363  21.381   7.650
 5242POPC   C1B26995  28.548  21.636   8.550
 5242POPC   C2B26996  28.498  21.607   8.250
 5242POPC   C3B26997  28.537  21.563   7.950
 5242POPC   C4B26998  28.549  21.632   7.650
 5243POPC   NC326999   7.461  38.453   9.450
 5243POPC   PO427000   7.433  38.491   9.150
 5243POPC   GL127001   7.435  38.479   8.850
 5243POPC   GL227002   7.293  38.510   8.850
 5243POPC   C1A27003   7.462  38.502   8.550
 5243POPC   D2A27004   7.437  38.502   8.250
 5243POPC   C3A27005   7.424  38.456   7.950
 5243POPC   C4A27006   7.398  38.459   7.650
 5243POPC   C1B27007   7.203  38.588   8.550
 5243POPC   C2B27008   7.180  38.574   8.250
 5243POPC   C3B27009   7.237  38.531   7.950
 5243POPC   C4B27010   7.189  38.524   7.650
 5244POPC   NC327011  31.508   5.848   9.450
 5244POPC   PO427012  31.516   5.904   9.150
 5244POPC   GL127013  31.504   5.874   8.850
 5244POPC   GL227014  31.447   5.767   8.850
 5244POPC   C1A27015  31.495   5.830   8.550
 5244POPC   D2A27016  31.486   5.834   8.250
 5244POPC   C3A27017  31.504   5.825   7.950
 5244POPC   C4A27018  31.423   5.906   7.650
 5244POPC   C1B27019  31.489   5.570   8.550
 5244POPC   C2B27020  31.490   5.630   8.250
 5244POPC   C3B27021  31.451   5.599   7.950
 5244POPC   C4B27022  31.413   5.653   7.650
 5245POPC   NC327023  36.917   3.530   9.450
 5245POPC   PO427024  36.870   3.505   9.150
 5245POPC   GL127025  36.891   3.538   8.850
 5245POPC   GL227026  37.020   3.578   8.850
 5245POPC   C1A27027  36.875   3.564   8.550
 5245POPC   D2A27028  36.891   3.538   8.250
 5245POPC   C3A27029  36.940   3.574   7.950
 5245POPC   C4A27030  36.929   3.516   7.650
 5245POPC   C1B27031  37.093   3.698   8.550
 5245POPC   C2B27032  37.094   3.605   8.250
 5245POPC   C3B27033  37.081   3.643   7.950
 5245POPC   C4B27034  37.098   3.637   7.650
 5246POPC   NC327035  39.984  29.180   9.450
 5246POPC   PO427036  40.006  29.192   9.150
 5246POPC   GL127037  40.047  29.127   8.850
 5246POPC   GL227038  40.106  29.178   8.850
 5246POPC   C1A27039  40.043  29.155   8.550
 5246POPC   D2A27040  40.034  29.136   8.250
 5246POPC   C3A27041  40.036  29.134   7.950
 5246POPC   C4A27042  39.966  29.187   7.650
 5246POPC   C1B27043  40.272  29.267   8.550
 5246POPC   C2B27044  40.244  29.201   8.250
 5246POPC   C3B27045  40.240  29.201   7.950
 5246POPC   C4B27046  40.245  29.229   7.650
 5247POPC   NC327047  32.206  15.210   9.450
 5247POPC   PO427048  32.297  15.180   9.150
 5247POPC   GL127049  32.224  15.184   8.850
 5247POPC   GL227050  32.271  15.266   8.850
 5247POPC   C1A27051  32.216  15.133   8.550
 5247POPC   D2A27052  32.224  15.171   8.250
 5247POPC   C3A27053  32.273  15.156   7.950
 5247POPC   C4A27054  32.206  15.216   7.650
 5247POPC   C1B27055  32.256  15.442   8.550
 5247POPC   C2B27056  32.219  15.469   8.250
 5247POPC   C3B27057  32.275  15.477   7.950
 5247POPC   C4B27058  32.242  15.467   7.650
 5248POPC   NC327059  41.516  18.313   9.450
 5248POPC   PO427060  41.596  18.331   9.150
 5248POPC   GL127061  41.551  18.284   8.850
 5248POPC   GL227062  41.648  18.374   8.850
 5248POPC   C1A27063  41.552  18.256   8.550
 5248POPC   D2A27064  41.594  18.286   8.250
 5248POPC   C3A27065  41.594  18.302   7.950
 5248POPC   C4A27066  41.575  18.322   7.650
 5248POPC   C1B27067  41.622  18.545   8.550
 5248POPC   C2B27068  41.629  18.471   8.250
 5248POPC   C3B27069  41.663  18.505   7.950
 5248POPC   C4B27070  41.622  18.504   7.650
 5249POPC   NC327071  35.346  21.382   9.450
 5249POPC   PO427072  35.401  21.348   9.150
 5249POPC   GL127073  35.327  21.345   8.850
 5249POPC   GL227074  35.222  21.331   8.850
 5249POPC   C1A27075  35.320  21.424   8.550
 5249POPC   D2A27076  35.390  21.409   8.250
 5249POPC   C3A27077  35.330  21.418   7.950
 5249POPC   C4A27078  35.373  21.387   7.650
 5249POPC   C1B27079  35.107  21.239   8.550
 5249POPC   C2B27080  35.156  21.240   8.250
 5249POPC   C3B27081  35.159  21.269   7.950
 5249POPC   C4B27082  35.154  21.235   7.650
 5250POPC   NC327083   1.965  11.271   9.450
 5250POPC   PO427084   2.037  11.281   9.150
 5250POPC   GL127085   2.008  11.304   8.850
 5250POPC   GL227086   1.896  11.263   8.850
 5250POPC   C1A27087   2.020  11.299   8.550
 5250POPC   D2A27088   1.989  11.326   8.250
 5250POPC   C3A27089   2.033  11.327   7.950
 5250POPC   C4A27090   2.025  11.344   7.650
 5250POPC   C1B27091   1.750  11.303   8.550
 5250POPC   C2B27092   1.763  11.267   8.250
 5250POPC   C3B27093   1.730  11.286   7.950
 5250POPC   C4B27094   1.698  11.263   7.650
 5251POPC   NC327095   9.733  19.108   9.450
 5251POPC   PO427096   9.785  19.023   9.150
 5251POPC   GL127097   9.755  19.070   8.850
 5251POPC   GL227098   9.798  19.185   8.850
 5251POPC   C1A27099   9.797  19.028   8.550
 5251POPC   D2A27100   9.709  19.078   8.250
 5251POPC   C3A27101   9.749  19.033   7.950
 5251POPC   C4A27102   9.775  19.077   7.650
 5251POPC   C1B27103   9.932  19.289   8.550
 5251POPC   C2B27104   9.923  19.207   8.250
 5251POPC   C3B27105   9.904  19.200   7.950
 5251POPC   C4B27106   9.901  19.293   7.650
 5252POPC   NC327107  42.354   4.305   9.450
 5252POPC   PO427108  42.360   4.339   9.150
 5252POPC   GL127109  42.358   4.322   8.850
 5252POPC   GL227110  42.410   4.307   8.850
 5252POPC   C1A27111  42.293   4.362   8.550
 5252POPC   D2A27112  42.353   4.324   8.250
 5252POPC   C3A27113  42.332   4.366   7.950
 5252POPC   C4A27114  42.299   4.319   7.650
 5252POPC   C1B27115  42.548   4.277   8.550
 5252POPC   C2B27116  42.531   4.228   8.250
 5252POPC   C3B27117  42.596   4.182   7.950
 5252POPC   C4B27118  42.559   4.273   7.650
 5253POPC   NC327119   8.931   1.967   9.450
 5253POPC   PO427120   8.989   2.035   9.150
 5253POPC   GL127121   8.974   1.980   8.850
 5253POPC   GL227122   8.960   2.103   8.850
 5253POPC   C1A27123   9.001   1.997   8.550
 5253POPC   D2A27124   8.996   2.012   8.250
 5253POPC   C3A27125   8.985   1.966   7.950
 5253POPC   C4A27126   8.979   1.952   7.650
 5253POPC   C1B27127   8.924   2.247   8.550
 5253POPC   C2B27128   8.876   2.232   8.250
 5253POPC   C3B27129   8.861   2.194   7.950
 5253POPC   C4B27130   8.835   2.256   7.650
 5254POPC   NC327131  15.952   8.236   9.450
 5254POPC   PO427132  15.953   8.245   9.150
 5254POPC   GL127133  15.977   8.199   8.850
 5254POPC   GL227134  15.827   8.247   8.850
 5254POPC   C1A27135  15.983   8.195   8.550
 5254POPC   D2A27136  15.926   8.187   8.250
 5254POPC   C3A27137  15.978   8.166   7.950
 5254POPC   C4A27138  15.950   8.168   7.650
 5254POPC   C1B27139  15.766   8.372   8.550
 5254POPC   C2B27140  15.737   8.307   8.250
 5254POPC   C3B27141  15.780   8.392   7.950
 5254POPC   C4B27142  15.721   8.388   7.650
 5255POPC   NC327143  28.360  23.712   9.450
 5255POPC   PO427144  28.369  23.763   9.150
 5255POPC   GL127145  28.364  23.678   8.850
 5255POPC   GL227146  28.509  23.817   8.850
 5255POPC   C1A27147  28.324  23.750   8.550
 5255POPC   D2A27148  28.325  23.698   8.250
 5255POPC   C3A27149  28.380  23.695   7.950
 5255POPC   C4A27150  28.354  23.709   7.650
 5255POPC   C1B27151  28.513  23.918   8.550
 5255POPC   C2B27152  28.518  23.842   8.250
 5255POPC   C3B27153  28.560  23.834   7.950
 5255POPC   C4B27154  28.549  23.922   7.650
 5256POPC   NC327155  43.082  18.241   9.450
 5256POPC   PO427156  43.071  18.290   9.150
 5256POPC   GL127157  43.139  18.269   8.850
 5256POPC   GL227158  43.223  18.402   8.850
 5256POPC   C1A27159  43.131  18.251   8.550
 5256POPC   D2A27160  43.061  18.321   8.250
 5256POPC   C3A27161  43.061  18.241   7.950
 5256POPC   C4A27162  43.117  18.295   7.650
 5256POPC   C1B27163  43.283  18.504   8.550
 5256POPC   C2B27164  43.257  18.478   8.250
 5256POPC   C3B27165  43.311  18.447   7.950
 5256POPC   C4B27166  43.265  18.445   7.650
 5257POPC   NC327167   6.683   3.510   9.450
 5257POPC   PO427168   6.661   3.526   9.150
 5257POPC   GL127169   6.665   3.525   8.850
 5257POPC   GL227170   6.783   3.458   8.850
 5257POPC   C1A27171   6.646   3.557   8.550
 5257POPC   D2A27172   6.671   3.571   8.250
 5257POPC   C3A27173   6.636   3.553   7.950
 5257POPC   C4A27174   6.656   3.498   7.650
 5257POPC   C1B27175   6.853   3.496   8.550
 5257POPC   C2B27176   6.881   3.457   8.250
 5257POPC   C3B27177   6.872   3.493   7.950
 5257POPC   C4B27178   6.906   3.424   7.650
 5258POPC   NC327179  11.313  12.889   9.450
 5258POPC   PO427180  11.341  12.837   9.150
 5258POPC   GL127181  11.336  12.881   8.850
 5258POPC   GL227182  11.239  12.986   8.850
 5258POPC   C1A27183  11.328  12.870   8.550
 5258POPC   D2A27184  11.338  12.840   8.250
 5258POPC   C3A27185  11.323  12.864   7.950
 5258POPC   C4A27186  11.325  12.852   7.650
 5258POPC   C1B27187  11.157  13.078   8.550
 5258POPC   C2B27188  11.190  13.061   8.250
 5258POPC   C3B27189  11.210  13.100   7.950
 5258POPC   C4B27190  11.214  13.035   7.650
 5259POPC   NC327191   1.261   6.605   9.450
 5259POPC   PO427192   1.191   6.653   9.150
 5259POPC   GL127193   1.221   6.597   8.850
 5259POPC   GL227194   1.224   6.569   8.850
 5259POPC   C1A27195   1.212   6.612   8.550
 5259POPC   D2A27196   1.197   6.630   8.250
 5259POPC   C3A27197   1.243   6.604   7.950
 5259POPC   C4A27198   1.256   6.674   7.650
 5259POPC   C1B27199   1.223   6.375   8.550
 5259POPC   C2B27200   1.181   6.385   8.250
 5259POPC   C3B27201   1.202   6.443   7.950
 5259POPC   C4B27202   1.239   6.408   7.650
 5260POPC   NC327203  14.446  39.248   9.450
 5260POPC   PO427204  14.441  39.246   9.150
 5260POPC   GL127205  14.434  39.248   8.850
 5260POPC   GL227206  14.508  39.246   8.850
 5260POPC   C1A27207  14.373  39.271   8.550
 5260POPC   D2A27208  14.407  39.227   8.250
 5260POPC   C3A27209  14.451  39.223   7.950
 5260POPC   C4A27210  14.355  39.214   7.650
 5260POPC   C1B27211  14.641  39.246   8.550
 5260POPC   C2B27212  14.617  39.160   8.250
 5260POPC   C3B27213  14.699  39.237   7.950
 5260POPC   C4B27214  14.644  39.168   7.650
 5261POPC   NC327215  17.467  22.140   9.450
 5261POPC   PO427216  17.464  22.198   9.150
 5261POPC   GL127217  17.556  22.124   8.850
 5261POPC   GL227218  17.458  22.014   8.850
 5261POPC   C1A27219  17.474  22.150   8.550
 5261POPC   D2A27220  17.513  22.176   8.250
 5261POPC   C3A27221  17.458  22.143   7.950
 5261POPC   C4A27222  17.458  22.191   7.650
 5261POPC   C1B27223  17.414  21.949   8.550
 5261POPC   C2B27224  17.396  21.936   8.250
 5261POPC   C3B27225  17.443  21.924   7.950
 5261POPC   C4B27226  17.474  21.915   7.650
 5262POPC   NC327227  12.901  44.652   9.450
 5262POPC   PO427228  12.839  44.658   9.150
 5262POPC   GL127229  12.813  44.692   8.850
 5262POPC   GL227230  12.795  44.800   8.850
 5262POPC   C1A27231  12.810  44.663   8.550
 5262POPC   D2A27232  12.862  44.673   8.250
 5262POPC   C3A27233  12.884  44.667   7.950
 5262POPC   C4A27234  12.872  44.666   7.650
 5262POPC   C1B27235  12.781  44.863   8.550
 5262POPC   C2B27236  12.763  44.937   8.250
 5262POPC   C3B27237  12.777  44.855   7.950
 5262POPC   C4B27238  12.819  44.894   7.650
 5263POPC   NC327239  16.752  26.032   9.450
 5263POPC   PO427240  16.766  26.082   9.150
 5263POPC   GL127241  16.740  26.004   8.850
 5263POPC   GL227242  16.629  25.941   8.850
 5263POPC   C1A27243  16.687  26.035   8.550
 5263POPC   D2A27244  16.706  26.084   8.250
 5263POPC   C3A27245  16.695  26.039   7.950
 5263POPC   C4A27246  16.685  26.013   7.650
 5263POPC   C1B27247  16.466  25.894   8.550
 5263POPC   C2B27248  16.479  25.906   8.250
 5263POPC   C3B27249  16.506  25.925   7.950
 5263POPC   C4B27250  16.480  25.871   7.650
 5264POPC   NC327251  39.959  16.717   9.450
 5264POPC   PO427252  40.003  16.747   9.150
 5264POPC   GL127253  39.968  16.735   8.850
 5264POPC   GL227254  40.058  16.668   8.850
 5264POPC   C1A27255  40.026  16.731   8.550
 5264POPC   D2A27256  39.996  16.713   8.250
 5264POPC   C3A27257  40.039  16.685   7.950
 5264POPC   C4A27258  39.958  16.734   7.650
 5264POPC   C1B27259  40.148  16.532   8.550
 5264POPC   C2B27260  40.078  16.480   8.250
 5264POPC   C3B27261  40.116  16.473   7.950
 5264POPC   C4B27262  40.075  16.478   7.650
 5265POPC   NC327263  29.909  13.637   9.450
 5265POPC   PO427264  29.950  13.653   9.150
 5265POPC   GL127265  29.951  13.601   8.850
 5265POPC   GL227266  29.926  13.471   8.850
 5265POPC   C1A27267  29.889  13.611   8.550
 5265POPC   D2A27268  29.929  13.640   8.250
 5265POPC   C3A27269  29.874  13.636   7.950
 5265POPC   C4A27270  29.960  13.665   7.650
 5265POPC   C1B27271  30.010  13.387   8.550
 5265POPC   C2B27272  29.977  13.418   8.250
 5265POPC   C3B27273  29.966  13.415   7.950
 5265POPC   C4B27274  29.996  13.394   7.650
 5266POPC   NC327275  40.053  32.296   9.450
 5266POPC   PO427276  39.995  32.226   9.150
 5266POPC   GL127277  39.971  32.295   8.850
 5266POPC   GL227278  39.924  32.268   8.850
 5266POPC   C1A27279  40.037  32.256   8.550
 5266POPC   D2A27280  40.015  32.235   8.250
 5266POPC   C3A27281  39.983  32.254   7.950
 5266POPC   C4A27282  40.015  32.260   7.650
 5266POPC   C1B27283  39.782  32.340   8.550
 5266POPC   C2B27284  39.733  32.343   8.250
 5266POPC   C3B27285  39.733  32.290   7.950
 5266POPC   C4B27286  39.742  32.288   7.650
 5267POPC   NC327287   8.978  10.502   9.450
 5267POPC   PO427288   9.009  10.540   9.150
 5267POPC   GL127289   8.942  10.522   8.850
 5267POPC   GL227290   8.883  10.649   8.850
 5267POPC   C1A27291   8.980  10.503   8.550
 5267POPC   D2A27292   8.957  10.560   8.250
 5267POPC   C3A27293   9.020  10.502   7.950
 5267POPC   C4A27294   8.999  10.506   7.650
 5267POPC   C1B27295   8.863  10.753   8.550
 5267POPC   C2B27296   8.863  10.776   8.250
 5267POPC   C3B27297   8.853  10.724   7.950
 5267POPC   C4B27298   8.935  10.754   7.650
 5268POPC   NC327299  38.421  29.126   9.450
 5268POPC   PO427300  38.471  29.153   9.150
 5268POPC   GL127301  38.490  29.105   8.850
 5268POPC   GL227302  38.439  29.053   8.850
 5268POPC   C1A27303  38.448  29.167   8.550
 5268POPC   D2A27304  38.447  29.142   8.250
 5268POPC   C3A27305  38.441  29.102   7.950
 5268POPC   C4A27306  38.418  29.108   7.650
 5268POPC   C1B27307  38.484  28.939   8.550
 5268POPC   C2B27308  38.500  28.879   8.250
 5268POPC   C3B27309  38.522  28.909   7.950
 5268POPC   C4B27310  38.489  28.917   7.650
 5269POPC   NC327311  24.452   8.959   9.450
 5269POPC   PO427312  24.514   8.977   9.150
 5269POPC   GL127313  24.443   8.956   8.850
 5269POPC   GL227314  24.493   9.048   8.850
 5269POPC   C1A27315  24.538   8.988   8.550
 5269POPC   D2A27316  24.450   8.975   8.250
 5269POPC   C3A27317  24.487   8.960   7.950
 5269POPC   C4A27318  24.460   8.999   7.650
 5269POPC   C1B27319  24.577   9.199   8.550
 5269POPC   C2B27320  24.604   9.212   8.250
 5269POPC   C3B27321  24.592   9.234   7.950
 5269POPC   C4B27322  24.627   9.214   7.650
 5270POPC   NC327323  24.533  19.107   9.450
 5270POPC   PO427324  24.444  19.027   9.150
 5270POPC   GL127325  24.479  19.076   8.850
 5270POPC   GL227326  24.564  19.164   8.850
 5270POPC   C1A27327  24.495  19.010   8.550
 5270POPC   D2A27328  24.449  19.104   8.250
 5270POPC   C3A27329  24.509  19.094   7.950
 5270POPC   C4A27330  24.503  19.039   7.650
 5270POPC   C1B27331  24.631  19.313   8.550
 5270POPC   C2B27332  24.635  19.240   8.250
 5270POPC   C3B27333  24.591  19.288   7.950
 5270POPC   C4B27334  24.645  19.301   7.650
 5271POPC   NC327335  25.289  36.138   9.450
 5271POPC   PO427336  25.251  36.133   9.150
 5271POPC   GL127337  25.270  36.168   8.850
 5271POPC   GL227338  25.160  36.049   8.850
 5271POPC   C1A27339  25.302  36.133   8.550
 5271POPC   D2A27340  25.246  36.113   8.250
 5271POPC   C3A27341  25.217  36.113   7.950
 5271POPC   C4A27342  25.311  36.145   7.650
 5271POPC   C1B27343  25.012  36.035   8.550
 5271POPC   C2B27344  25.021  36.013   8.250
 5271POPC   C3B27345  25.036  36.025   7.950
 5271POPC   C4B27346  25.010  36.060   7.650
 5272POPC   NC327347  44.699  12.899   9.450
 5272POPC   PO427348  44.695  12.806   9.150
 5272POPC   GL127349  44.695  12.893   8.850
 5272POPC   GL227350  44.657  12.690   8.850
 5272POPC   C1A27351  44.623  12.900   8.550
 5272POPC   D2A27352  44.689  12.837   8.250
 5272POPC   C3A27353  44.630  12.880   7.950
 5272POPC   C4A27354  44.704  12.831   7.650
 5272POPC   C1B27355  44.749  12.580   8.550
 5272POPC   C2B27356  44.688  12.589   8.250
 5272POPC   C3B27357  44.752  12.608   7.950
 5272POPC   C4B27358  44.727  12.578   7.650
 5273POPC   NC327359  35.368  32.269   9.450
 5273POPC   PO427360  35.318  32.263   9.150
 5273POPC   GL127361  35.393  32.199   8.850
 5273POPC   GL227362  35.408  32.321   8.850
 5273POPC   C1A27363  35.374  32.297   8.550
 5273POPC   D2A27364  35.383  32.266   8.250
 5273POPC   C3A27365  35.367  32.298   7.950
 5273POPC   C4A27366  35.397  32.246   7.650
 5273POPC   C1B27367  35.422  32.479   8.550
 5273POPC   C2B27368  35.421  32.490   8.250
 5273POPC   C3B27369  35.373  32.507   7.950
 5273POPC   C4B27370  35.414  32.491   7.650
 5274POPC   NC327371  12.064  40.791   9.450
 5274POPC   PO427372  12.026  40.762   9.150
 5274POPC   GL127373  12.105  40.766   8.850
 5274POPC   GL227374  11.903  40.746   8.850
 5274POPC   C1A27375  12.100  40.809   8.550
 5274POPC   D2A27376  12.126  40.791   8.250
 5274POPC   C3A27377  12.084  40.761   7.950
 5274POPC   C4A27378  12.065  40.831   7.650
 5274POPC   C1B27379  11.837  40.740   8.550
 5274POPC   C2B27380  11.796  40.757   8.250
 5274POPC   C3B27381  11.791  40.786   7.950
 5274POPC   C4B27382  11.841  40.794   7.650
 5275POPC   NC327383  18.284  12.886   9.450
 5275POPC   PO427384  18.234  12.851   9.150
 5275POPC   GL127385  18.290  12.859   8.850
 5275POPC   GL227386  18.438  12.909   8.850
 5275POPC   C1A27387  18.249  12.851   8.550
 5275POPC   D2A27388  18.276  12.806   8.250
 5275POPC   C3A27389  18.315  12.889   7.950
 5275POPC   C4A27390  18.237  12.901   7.650
 5275POPC   C1B27391  18.524  12.932   8.550
 5275POPC   C2B27392  18.499  12.926   8.250
 5275POPC   C3B27393  18.531  12.979   7.950
 5275POPC   C4B27394  18.492  12.981   7.650
 5276POPC   NC327395  40.815  10.516   9.450
 5276POPC   PO427396  40.756  10.506   9.150
 5276POPC   GL127397  40.810  10.562   8.850
 5276POPC   GL227398  40.860  10.587   8.850
 5276POPC   C1A27399  40.776  10.501   8.550
 5276POPC   D2A27400  40.757  10.519   8.250
 5276POPC   C3A27401  40.782  10.476   7.950
 5276POPC   C4A27402  40.808  10.494   7.650
 5276POPC   C1B27403  40.959  10.678   8.550
 5276POPC   C2B27404  41.031  10.640   8.250
 5276POPC   C3B27405  40.953  10.672   7.950
 5276POPC   C4B27406  41.030  10.689   7.650
 5277POPC   NC327407   8.953  32.991   9.450
 5277POPC   PO427408   8.970  33.014   9.150
 5277POPC   GL127409   9.010  32.996   8.850
 5277POPC   GL227410   8.871  33.094   8.850
 5277POPC   C1A27411   8.983  33.063   8.550
 5277POPC   D2A27412   8.934  33.008   8.250
 5277POPC   C3A27413   8.948  33.069   7.950
 5277POPC   C4A27414   8.967  33.054   7.650
 5277POPC   C1B27415   8.824  33.216   8.550
 5277POPC   C2B27416   8.819  33.191   8.250
 5277POPC   C3B27417   8.798  33.247   7.950
 5277POPC   C4B27418   8.866  33.191   7.650
 5278POPC   NC327419  37.670  27.610   9.450
 5278POPC   PO427420  37.721  27.620   9.150
 5278POPC   GL127421  37.643  27.598   8.850
 5278POPC   GL227422  37.847  27.516   8.850
 5278POPC   C1A27423  37.699  27.611   8.550
 5278POPC   D2A27424  37.700  27.576   8.250
 5278POPC   C3A27425  37.689  27.560   7.950
 5278POPC   C4A27426  37.685  27.574   7.650
 5278POPC   C1B27427  37.893  27.576   8.550
 5278POPC   C2B27428  37.942  27.546   8.250
 5278POPC   C3B27429  37.939  27.553   7.950
 5278POPC   C4B27430  37.877  27.522   7.650
 5279POPC   NC327431  36.858  35.304   9.450
 5279POPC   PO427432  36.894  35.335   9.150
 5279POPC   GL127433  36.947  35.401   8.850
 5279POPC   GL227434  36.997  35.232   8.850
 5279POPC   C1A27435  36.951  35.314   8.550
 5279POPC   D2A27436  36.877  35.363   8.250
 5279POPC   C3A27437  36.942  35.308   7.950
 5279POPC   C4A27438  36.869  35.373   7.650
 5279POPC   C1B27439  37.115  35.212   8.550
 5279POPC   C2B27440  37.113  35.234   8.250
 5279POPC   C3B27441  37.132  35.235   7.950
 5279POPC   C4B27442  37.090  35.232   7.650
 5280POPC   NC327443  15.213  32.284   9.450
 5280POPC   PO427444  15.182  32.202   9.150
 5280POPC   GL127445  15.159  32.238   8.850
 5280POPC   GL227446  15.018  32.240   8.850
 5280POPC   C1A27447  15.206  32.204   8.550
 5280POPC   D2A27448  15.168  32.257   8.250
 5280POPC   C3A27449  15.132  32.283   7.950
 5280POPC   C4A27450  15.224  32.286   7.650
 5280POPC   C1B27451  14.892  32.337   8.550
 5280POPC   C2B27452  14.949  32.241   8.250
 5280POPC   C3B27453  14.938  32.254   7.950
 5280POPC   C4B27454  14.883  32.265   7.650
 5281POPC   NC327455  40.754  36.134   9.450
 5281POPC   PO427456  40.745  36.080   9.150
 5281POPC   GL127457  40.794  36.106   8.850
 5281POPC   GL227458  40.828  36.274   8.850
 5281POPC   C1A27459  40.738  36.141   8.550
 5281POPC   D2A27460  40.785  36.088   8.250
 5281POPC   C3A27461  40.774  36.096   7.950
 5281POPC   C4A27462  40.810  36.129   7.650
 5281POPC   C1B27463  40.889  36.313   8.550
 5281POPC   C2B27464  40.847  36.387   8.250
 5281POPC   C3B27465  40.891  36.397   7.950
 5281POPC   C4B27466  40.877  36.340   7.650
 5282POPC   NC327467  28.346   0.463   9.450
 5282POPC   PO427468  28.361   0.453   9.150
 5282POPC   GL127469  28.392   0.415   8.850
 5282POPC   GL227470  28.340   0.309   8.850
 5282POPC   C1A27471  28.357   0.465   8.550
 5282POPC   D2A27472  28.378   0.409   8.250
 5282POPC   C3A27473  28.334   0.442   7.950
 5282POPC   C4A27474  28.410   0.467   7.650
 5282POPC   C1B27475  28.368   0.238   8.550
 5282POPC   C2B27476  28.346   0.232   8.250
 5282POPC   C3B27477  28.367   0.177   7.950
 5282POPC   C4B27478  28.404   0.161   7.650
 5283POPC   NC327479  33.832  33.041   9.450
 5283POPC   PO427480  33.775  33.011   9.150
 5283POPC   GL127481  33.826  33.049   8.850
 5283POPC   GL227482  33.669  33.033   8.850
 5283POPC   C1A27483  33.841  33.068   8.550
 5283POPC   D2A27484  33.774  33.035   8.250
 5283POPC   C3A27485  33.841  33.005   7.950
 5283POPC   C4A27486  33.791  33.047   7.650
 5283POPC   C1B27487  33.530  33.038   8.550
 5283POPC   C2B27488  33.552  33.024   8.250
 5283POPC   C3B27489  33.539  33.037   7.950
 5283POPC   C4B27490  33.556  33.003   7.650
 5284POPC   NC327491  25.217  12.122   9.450
 5284POPC   PO427492  25.273  12.026   9.150
 5284POPC   GL127493  25.228  12.113   8.850
 5284POPC   GL227494  25.150  11.979   8.850
 5284POPC   C1A27495  25.293  12.049   8.550
 5284POPC   D2A27496  25.292  12.095   8.250
 5284POPC   C3A27497  25.252  12.098   7.950
 5284POPC   C4A27498  25.305  12.124   7.650
 5284POPC   C1B27499  25.055  11.952   8.550
 5284POPC   C2B27500  25.047  11.914   8.250
 5284POPC   C3B27501  25.071  11.964   7.950
 5284POPC   C4B27502  25.058  11.971   7.650
 5285POPC   NC327503  29.883  15.146   9.450
 5285POPC   PO427504  29.953  15.152   9.150
 5285POPC   GL127505  29.909  15.139   8.850
 5285POPC   GL227506  29.820  15.108   8.850
 5285POPC   C1A27507  29.926  15.176   8.550
 5285POPC   D2A27508  29.916  15.169   8.250
 5285POPC   C3A27509  29.924  15.223   7.950
 5285POPC   C4A27510  29.886  15.154   7.650
 5285POPC   C1B27511  29.645  15.148   8.550
 5285POPC   C2B27512  29.698  15.162   8.250
 5285POPC   C3B27513  29.683  15.143   7.950
 5285POPC   C4B27514  29.696  15.167   7.650
 5286POPC   NC327515  43.873   4.366   9.450
 5286POPC   PO427516  43.886   4.270   9.150
 5286POPC   GL127517  43.912   4.320   8.850
 5286POPC   GL227518  43.990   4.373   8.850
 5286POPC   C1A27519  43.900   4.318   8.550
 5286POPC   D2A27520  43.885   4.325   8.250
 5286POPC   C3A27521  43.868   4.289   7.950
 5286POPC   C4A27522  43.870   4.313   7.650
 5286POPC   C1B27523  44.110   4.367   8.550
 5286POPC   C2B27524  44.175   4.390   8.250
 5286POPC   C3B27525  44.093   4.386   7.950
 5286POPC   C4B27526  44.078   4.342   7.650
 5287POPC   NC327527  19.850  40.794   9.450
 5287POPC   PO427528  19.791  40.756   9.150
 5287POPC   GL127529  19.803  40.820   8.850
 5287POPC   GL227530  19.796  40.845   8.850
 5287POPC   C1A27531  19.785  40.800   8.550
 5287POPC   D2A27532  19.845  40.740   8.250
 5287POPC   C3A27533  19.840  40.759   7.950
 5287POPC   C4A27534  19.879  40.742   7.650
 5287POPC   C1B27535  19.680  40.985   8.550
 5287POPC   C2B27536  19.732  41.031   8.250
 5287POPC   C3B27537  19.744  41.021   7.950
 5287POPC   C4B27538  19.719  41.033   7.650
 5288POPC   NC327539   3.571   6.599   9.450
 5288POPC   PO427540   3.547   6.647   9.150
 5288POPC   GL127541   3.524   6.602   8.850
 5288POPC   GL227542   3.415   6.574   8.850
 5288POPC   C1A27543   3.522   6.645   8.550
 5288POPC   D2A27544   3.576   6.608   8.250
 5288POPC   C3A27545   3.533   6.634   7.950
 5288POPC   C4A27546   3.526   6.638   7.650
 5288POPC   C1B27547   3.261   6.542   8.550
 5288POPC   C2B27548   3.307   6.603   8.250
 5288POPC   C3B27549   3.279   6.637   7.950
 5288POPC   C4B27550   3.278   6.609   7.650
 5289POPC   NC327551  41.605  24.507   9.450
 5289POPC   PO427552  41.550  24.524   9.150
 5289POPC   GL127553  41.536  24.503   8.850
 5289POPC   GL227554  41.501  24.428   8.850
 5289POPC   C1A27555  41.539  24.517   8.550
 5289POPC   D2A27556  41.540  24.509   8.250
 5289POPC   C3A27557  41.553  24.506   7.950
 5289POPC   C4A27558  41.598  24.495   7.650
 5289POPC   C1B27559  41.362  24.271   8.550
 5289POPC   C2B27560  41.364  24.326   8.250
 5289POPC   C3B27561  41.417  24.354   7.950
 5289POPC   C4B27562  41.344  24.356   7.650
 5290POPC   NC327563  30.681   8.955   9.450
 5290POPC   PO427564  30.742   8.982   9.150
 5290POPC   GL127565  30.717   8.979   8.850
 5290POPC   GL227566  30.588   9.056   8.850
 5290POPC   C1A27567  30.717   8.935   8.550
 5290POPC   D2A27568  30.724   8.987   8.250
 5290POPC   C3A27569  30.726   8.963   7.950
 5290POPC   C4A27570  30.723   8.931   7.650
 5290POPC   C1B27571  30.484   9.101   8.550
 5290POPC   C2B27572  30.546   9.172   8.250
 5290POPC   C3B27573  30.487   9.147   7.950
 5290POPC   C4B27574  30.490   9.113   7.650
 5291POPC   NC327575  26.074   3.550   9.450
 5291POPC   PO427576  26.058   3.503   9.150
 5291POPC   GL127577  26.059   3.513   8.850
 5291POPC   GL227578  26.072   3.696   8.850
 5291POPC   C1A27579  26.009   3.540   8.550
 5291POPC   D2A27580  26.078   3.562   8.250
 5291POPC   C3A27581  26.051   3.566   7.950
 5291POPC   C4A27582  26.048   3.551   7.650
 5291POPC   C1B27583  25.988   3.775   8.550
 5291POPC   C2B27584  25.984   3.837   8.250
 5291POPC   C3B27585  26.027   3.759   7.950
 5291POPC   C4B27586  26.051   3.743   7.650
 5292POPC   NC327587  29.119  44.698   9.450
 5292POPC   PO427588  29.161  44.615   9.150
 5292POPC   GL127589  29.160  44.675   8.850
 5292POPC   GL227590  29.298  44.631   8.850
 5292POPC   C1A27591  29.185  44.657   8.550
 5292POPC   D2A27592  29.128  44.663   8.250
 5292POPC   C3A27593  29.110  44.705   7.950
 5292POPC   C4A27594  29.135  44.618   7.650
 5292POPC   C1B27595  29.437  44.603   8.550
 5292POPC   C2B27596  29.412  44.612   8.250
 5292POPC   C3B27597  29.348  44.603   7.950
 5292POPC   C4B27598  29.428  44.597   7.650
 5293POPC   NC327599  20.643  29.159   9.450
 5293POPC   PO427600  20.633  29.165   9.150
 5293POPC   GL127601  20.611  29.186   8.850
 5293POPC   GL227602  20.740  29.169   8.850
 5293POPC   C1A27603  20.591  29.156   8.550
 5293POPC   D2A27604  20.653  29.153   8.250
 5293POPC   C3A27605  20.585  29.189   7.950
 5293POPC   C4A27606  20.564  29.097   7.650
 5293POPC   C1B27607  20.855  29.094   8.550
 5293POPC   C2B27608  20.813  29.150   8.250
 5293POPC   C3B27609  20.892  29.156   7.950
 5293POPC   C4B27610  20.894  29.172   7.650
 5294POPC   NC327611   4.277  38.504   9.450
 5294POPC   PO427612   4.346  38.484   9.150
 5294POPC   GL127613   4.337  38.445   8.850
 5294POPC   GL227614   4.343  38.325   8.850
 5294POPC   C1A27615   4.334  38.457   8.550
 5294POPC   D2A27616   4.302  38.482   8.250
 5294POPC   C3A27617   4.345  38.419   7.950
 5294POPC   C4A27618   4.300  38.494   7.650
 5294POPC   C1B27619   4.369  38.171   8.550
 5294POPC   C2B27620   4.309  38.250   8.250
 5294POPC   C3B27621   4.384  38.245   7.950
 5294POPC   C4B27622   4.378  38.167   7.650
 5295POPC   NC327623  17.516  23.747   9.450
 5295POPC   PO427624  17.470  23.713   9.150
 5295POPC   GL127625  17.512  23.720   8.850
 5295POPC   GL227626  17.463  23.615   8.850
 5295POPC   C1A27627  17.496  23.716   8.550
 5295POPC   D2A27628  17.506  23.693   8.250
 5295POPC   C3A27629  17.481  23.692   7.950
 5295POPC   C4A27630  17.518  23.702   7.650
 5295POPC   C1B27631  17.457  23.426   8.550
 5295POPC   C2B27632  17.518  23.420   8.250
 5295POPC   C3B27633  17.541  23.418   7.950
 5295POPC   C4B27634  17.539  23.436   7.650
 5296POPC   NC327635  15.991  44.699   9.450
 5296POPC   PO427636  15.969  44.681   9.150
 5296POPC   GL127637  15.987  44.663   8.850
 5296POPC   GL227638  16.035  44.703   8.850
 5296POPC   C1A27639  15.928  44.623   8.550
 5296POPC   D2A27640  15.994  44.706   8.250
 5296POPC   C3A27641  15.982  44.701   7.950
 5296POPC   C4A27642  15.953  44.632   7.650
 5296POPC   C1B27643  16.165  44.736   8.550
 5296POPC   C2B27644  16.194  44.761   8.250
 5296POPC   C3B27645  16.204  44.699   7.950
 5296POPC   C4B27646  16.193  44.719   7.650
 5297POPC   NC327647  18.301  19.038   9.450
 5297POPC   PO427648  18.289  19.097   9.150
 5297POPC   GL127649  18.256  19.058   8.850
 5297POPC   GL227650  18.210  19.168   8.850
 5297POPC   C1A27651  18.282  19.102   8.550
 5297POPC   D2A27652  18.286  19.066   8.250
 5297POPC   C3A27653  18.329  19.048   7.950
 5297POPC   C4A27654  18.330  19.043   7.650
 5297POPC   C1B27655  18.260  19.326   8.550
 5297POPC   C2B27656  18.211  19.326   8.250
 5297POPC   C3B27657  18.177  19.331   7.950
 5297POPC   C4B27658  18.218  19.315   7.650
 5298POPC   NC327659  33.753   3.509   9.450
 5298POPC   PO427660  33.758   3.500   9.150
 5298POPC   GL127661  33.779   3.575   8.850
 5298POPC   GL227662  33.710   3.572   8.850
 5298POPC   C1A27663  33.779   3.514   8.550
 5298POPC   D2A27664  33.773   3.498   8.250
 5298POPC   C3A27665  33.768   3.584   7.950
 5298POPC   C4A27666  33.810   3.531   7.650
 5298POPC   C1B27667  33.622   3.638   8.550
 5298POPC   C2B27668  33.584   3.700   8.250
 5298POPC   C3B27669  33.566   3.702   7.950
 5298POPC   C4B27670  33.596   3.658   7.650
 5299POPC   NC327671  37.723   3.508   9.450
 5299POPC   PO427672  37.702   3.541   9.150
 5299POPC   GL127673  37.724   3.510   8.850
 5299POPC   GL227674  37.664   3.687   8.850
 5299POPC   C1A27675  37.654   3.571   8.550
 5299POPC   D2A27676  37.670   3.539   8.250
 5299POPC   C3A27677  37.723   3.547   7.950
 5299POPC   C4A27678  37.681   3.503   7.650
 5299POPC   C1B27679  37.746   3.803   8.550
 5299POPC   C2B27680  37.669   3.755   8.250
 5299POPC   C3B27681  37.733   3.780   7.950
 5299POPC   C4B27682  37.762   3.745   7.650
 5300POPC   NC327683  26.816  40.000   9.450
 5300POPC   PO427684  26.801  39.998   9.150
 5300POPC   GL127685  26.790  40.040   8.850
 5300POPC   GL227686  26.784  39.890   8.850
 5300POPC   C1A27687  26.771  39.957   8.550
 5300POPC   D2A27688  26.784  40.050   8.250
 5300POPC   C3A27689  26.781  39.990   7.950
 5300POPC   C4A27690  26.785  40.025   7.650
 5300POPC   C1B27691  26.810  39.736   8.550
 5300POPC   C2B27692  26.858  39.707   8.250
 5300POPC   C3B27693  26.803  39.765   7.950
 5300POPC   C4B27694  26.822  39.725   7.650
 5301POPC   NC327695  27.609  36.947   9.450
 5301POPC   PO427696  27.626  36.939   9.150
 5301POPC   GL127697  27.598  36.880   8.850
 5301POPC   GL227698  27.713  36.947   8.850
 5301POPC   C1A27699  27.576  36.925   8.550
 5301POPC   D2A27700  27.594  36.953   8.250
 5301POPC   C3A27701  27.599  36.907   7.950
 5301POPC   C4A27702  27.589  36.892   7.650
 5301POPC   C1B27703  27.777  37.114   8.550
 5301POPC   C2B27704  27.772  37.041   8.250
 5301POPC   C3B27705  27.727  37.070   7.950
 5301POPC   C4B27706  27.727  37.035   7.650
 5302POPC   NC327707   7.430  28.337   9.450
 5302POPC   PO427708   7.396  28.390   9.150
 5302POPC   GL127709   7.430  28.328   8.850
 5302POPC   GL227710   7.431  28.447   8.850
 5302POPC   C1A27711   7.471  28.395   8.550
 5302POPC   D2A27712   7.390  28.373   8.250
 5302POPC   C3A27713   7.401  28.357   7.950
 5302POPC   C4A27714   7.389  28.411   7.650
 5302POPC   C1B27715   7.387  28.624   8.550
 5302POPC   C2B27716   7.390  28.572   8.250
 5302POPC   C3B27717   7.377  28.587   7.950
 5302POPC   C4B27718   7.345  28.644   7.650
 5303POPC   NC327719  33.840  18.305   9.450
 5303POPC   PO427720  33.801  18.301   9.150
 5303POPC   GL127721  33.841  18.263   8.850
 5303POPC   GL227722  33.855  18.114   8.850
 5303POPC   C1A27723  33.818  18.271   8.550
 5303POPC   D2A27724  33.778  18.260   8.250
 5303POPC   C3A27725  33.784  18.261   7.950
 5303POPC   C4A27726  33.821  18.308   7.650
 5303POPC   C1B27727  33.850  17.990   8.550
 5303POPC   C2B27728  33.794  18.032   8.250
 5303POPC   C3B27729  33.850  18.040   7.950
 5303POPC   C4B27730  33.819  18.013   7.650
 5304POPC   NC327731  41.530  35.346   9.450
 5304POPC   PO427732  41.553  35.379   9.150
 5304POPC   GL127733  41.564  35.326   8.850
 5304POPC   GL227734  41.638  35.417   8.850
 5304POPC   C1A27735  41.513  35.374   8.550
 5304POPC   D2A27736  41.591  35.318   8.250
 5304POPC   C3A27737  41.515  35.329   7.950
 5304POPC   C4A27738  41.527  35.372   7.650
 5304POPC   C1B27739  41.798  35.436   8.550
 5304POPC   C2B27740  41.742  35.424   8.250
 5304POPC   C3B27741  41.772  35.429   7.950
 5304POPC   C4B27742  41.733  35.422   7.650
 5305POPC   NC327743  10.540  15.209   9.450
 5305POPC   PO427744  10.539  15.144   9.150
 5305POPC   GL127745  10.538  15.143   8.850
 5305POPC   GL227746  10.629  15.267   8.850
 5305POPC   C1A27747  10.558  15.219   8.550
 5305POPC   D2A27748  10.563  15.176   8.250
 5305POPC   C3A27749  10.534  15.144   7.950
 5305POPC   C4A27750  10.475  15.170   7.650
 5305POPC   C1B27751  10.702  15.366   8.550
 5305POPC   C2B27752  10.769  15.285   8.250
 5305POPC   C3B27753  10.700  15.299   7.950
 5305POPC   C4B27754  10.698  15.284   7.650
 5306POPC   NC327755   1.208  25.245   9.450
 5306POPC   PO427756   1.248  25.222   9.150
 5306POPC   GL127757   1.220  25.251   8.850
 5306POPC   GL227758   1.170  25.213   8.850
 5306POPC   C1A27759   1.172  25.304   8.550
 5306POPC   D2A27760   1.260  25.216   8.250
 5306POPC   C3A27761   1.255  25.288   7.950
 5306POPC   C4A27762   1.205  25.265   7.650
 5306POPC   C1B27763   1.080  25.032   8.550
 5306POPC   C2B27764   1.031  25.033   8.250
 5306POPC   C3B27765   1.078  25.088   7.950
 5306POPC   C4B27766   1.019  25.042   7.650
 5307POPC   NC327767  15.168  14.391   9.450
 5307POPC   PO427768  15.140  14.447   9.150
 5307POPC   GL127769  15.149  14.386   8.850
 5307POPC   GL227770  15.102  14.369   8.850
 5307POPC   C1A27771  15.134  14.391   8.550
 5307POPC   D2A27772  15.169  14.441   8.250
 5307POPC   C3A27773  15.149  14.365   7.950
 5307POPC   C4A27774  15.144  14.399   7.650
 5307POPC   C1B27775  14.920  14.263   8.550
 5307POPC   C2B27776  14.963  14.285   8.250
 5307POPC   C3B27777  14.953  14.300   7.950
 5307POPC   C4B27778  14.998  14.316   7.650
 5308POPC   NC327779  13.640  18.311   9.450
 5308POPC   PO427780  13.639  18.311   9.150
 5308POPC   GL127781  13.673  18.251   8.850
 5308POPC   GL227782  13.684  18.242   8.850
 5308POPC   C1A27783  13.667  18.326   8.550
 5308POPC   D2A27784  13.584  18.262   8.250
 5308POPC   C3A27785  13.638  18.272   7.950
 5308POPC   C4A27786  13.629  18.270   7.650
 5308POPC   C1B27787  13.814  18.139   8.550
 5308POPC   C2B27788  13.862  18.098   8.250
 5308POPC   C3B27789  13.782  18.126   7.950
 5308POPC   C4B27790  13.825  18.127   7.650
 5309POPC   NC327791  40.813  30.648   9.450
 5309POPC   PO427792  40.765  30.658   9.150
 5309POPC   GL127793  40.760  30.733   8.850
 5309POPC   GL227794  40.923  30.717   8.850
 5309POPC   C1A27795  40.794  30.746   8.550
 5309POPC   D2A27796  40.771  30.707   8.250
 5309POPC   C3A27797  40.790  30.700   7.950
 5309POPC   C4A27798  40.750  30.666   7.650
 5309POPC   C1B27799  41.036  30.745   8.550
 5309POPC   C2B27800  41.034  30.755   8.250
 5309POPC   C3B27801  41.037  30.824   7.950
 5309POPC   C4B27802  41.027  30.793   7.650
 5310POPC   NC327803  28.322  39.250   9.450
 5310POPC   PO427804  28.336  39.219   9.150
 5310POPC   GL127805  28.415  39.220   8.850
 5310POPC   GL227806  28.483  39.130   8.850
 5310POPC   C1A27807  28.381  39.266   8.550
 5310POPC   D2A27808  28.360  39.262   8.250
 5310POPC   C3A27809  28.370  39.202   7.950
 5310POPC   C4A27810  28.367  39.264   7.650
 5310POPC   C1B27811  28.582  39.076   8.550
 5310POPC   C2B27812  28.616  39.091   8.250
 5310POPC   C3B27813  28.628  39.148   7.950
 5310POPC   C4B27814  28.612  39.138   7.650
 5311POPC   NC327815   5.897  38.405   9.450
 5311POPC   PO427816   5.839  38.446   9.150
 5311POPC   GL127817   5.913  38.460   8.850
 5311POPC   GL227818   5.862  38.311   8.850
 5311POPC   C1A27819   5.847  38.444   8.550
 5311POPC   D2A27820   5.909  38.473   8.250
 5311POPC   C3A27821   5.828  38.441   7.950
 5311POPC   C4A27822   5.852  38.452   7.650
 5311POPC   C1B27823   5.790  38.194   8.550
 5311POPC   C2B27824   5.805  38.247   8.250
 5311POPC   C3B27825   5.822  38.229   7.950
 5311POPC   C4B27826   5.792  38.208   7.650
 5312POPC   NC327827   5.871  41.537   9.450
 5312POPC   PO427828   5.900  41.586   9.150
 5312POPC   GL127829   5.838  41.536   8.850
 5312POPC   GL227830   5.939  41.697   8.850
 5312POPC   C1A27831   5.914  41.559   8.550
 5312POPC   D2A27832   5.857  41.560   8.250
 5312POPC   C3A27833   5.915  41.588   7.950
 5312POPC   C4A27834   5.854  41.557   7.650
 5312POPC   C1B27835   6.031  41.817   8.550
 5312POPC   C2B27836   5.991  41.727   8.250
 5312POPC   C3B27837   6.036  41.808   7.950
 5312POPC   C4B27838   6.015  41.812   7.650
 5313POPC   NC327839   9.747  17.540   9.450
 5313POPC   PO427840   9.725  17.494   9.150
 5313POPC   GL127841   9.740  17.554   8.850
 5313POPC   GL227842   9.591  17.493   8.850
 5313POPC   C1A27843   9.740  17.546   8.550
 5313POPC   D2A27844   9.767  17.550   8.250
 5313POPC   C3A27845   9.772  17.522   7.950
 5313POPC   C4A27846   9.713  17.464   7.650
 5313POPC   C1B27847   9.462  17.441   8.550
 5313POPC   C2B27848   9.503  17.446   8.250
 5313POPC   C3B27849   9.513  17.412   7.950
 5313POPC   C4B27850   9.556  17.474   7.650
 5314POPC   NC327851  34.617  23.687   9.450
 5314POPC   PO427852  34.595  23.748   9.150
 5314POPC   GL127853  34.596  23.723   8.850
 5314POPC   GL227854  34.618  23.589   8.850
 5314POPC   C1A27855  34.534  23.762   8.550
 5314POPC   D2A27856  34.625  23.685   8.250
 5314POPC   C3A27857  34.601  23.695   7.950
 5314POPC   C4A27858  34.596  23.732   7.650
 5314POPC   C1B27859  34.650  23.444   8.550
 5314POPC   C2B27860  34.633  23.522   8.250
 5314POPC   C3B27861  34.679  23.491   7.950
 5314POPC   C4B27862  34.617  23.496   7.650
 5315POPC   NC327863  17.483  15.912   9.450
 5315POPC   PO427864  17.470  15.948   9.150
 5315POPC   GL127865  17.494  15.965   8.850
 5315POPC   GL227866  17.379  16.070   8.850
 5315POPC   C1A27867  17.504  16.003   8.550
 5315POPC   D2A27868  17.557  15.938   8.250
 5315POPC   C3A27869  17.524  15.958   7.950
 5315POPC   C4A27870  17.544  15.910   7.650
 5315POPC   C1B27871  17.296  16.106   8.550
 5315POPC   C2B27872  17.343  16.171   8.250
 5315POPC   C3B27873  17.378  16.103   7.950
 5315POPC   C4B27874  17.352  16.120   7.650
 5316POPC   NC327875  22.952  39.248   9.450
 5316POPC   PO427876  22.926  39.248   9.150
 5316POPC   GL127877  22.935  39.273   8.850
 5316POPC   GL227878  22.889  39.077   8.850
 5316POPC   C1A27879  22.909  39.240   8.550
 5316POPC   D2A27880  22.892  39.207   8.250
 5316POPC   C3A27881  22.970  39.218   7.950
 5316POPC   C4A27882  22.920  39.260   7.650
 5316POPC   C1B27883  22.898  39.012   8.550
 5316POPC   C2B27884  22.918  39.036   8.250
 5316POPC   C3B27885  22.913  38.948   7.950
 5316POPC   C4B27886  22.905  38.946   7.650
 5317POPC   NC327887  39.258  40.789   9.450
 5317POPC   PO427888  39.200  40.831   9.150
 5317POPC   GL127889  39.238  40.821   8.850
 5317POPC   GL227890  39.323  40.782   8.850
 5317POPC   C1A27891  39.248  40.823   8.550
 5317POPC   D2A27892  39.249  40.738   8.250
 5317POPC   C3A27893  39.275  40.754   7.950
 5317POPC   C4A27894  39.220  40.814   7.650
 5317POPC   C1B27895  39.503  40.749   8.550
 5317POPC   C2B27896  39.525  40.747   8.250
 5317POPC   C3B27897  39.493  40.730   7.950
 5317POPC   C4B27898  39.476  40.702   7.650
 5318POPC   NC327899  19.828   7.380   9.450
 5318POPC   PO427900  19.843   7.457   9.150
 5318POPC   GL127901  19.785   7.418   8.850
 5318POPC   GL227902  19.874   7.540   8.850
 5318POPC   C1A27903  19.809   7.385   8.550
 5318POPC   D2A27904  19.823   7.459   8.250
 5318POPC   C3A27905  19.843   7.407   7.950
 5318POPC   C4A27906  19.868   7.446   7.650
 5318POPC   C1B27907  19.967   7.679   8.550
 5318POPC   C2B27908  20.008   7.668   8.250
 5318POPC   C3B27909  19.948   7.589   7.950
 5318POPC   C4B27910  19.998   7.591   7.650
 5319POPC   NC327911  14.372  19.823   9.450
 5319POPC   PO427912  14.444  19.868   9.150
 5319POPC   GL127913  14.384  19.807   8.850
 5319POPC   GL227914  14.365  19.741   8.850
 5319POPC   C1A27915  14.382  19.855   8.550
 5319POPC   D2A27916  14.387  19.876   8.250
 5319POPC   C3A27917  14.365  19.814   7.950
 5319POPC   C4A27918  14.451  19.860   7.650
 5319POPC   C1B27919  14.223  19.652   8.550
 5319POPC   C2B27920  14.247  19.605   8.250
 5319POPC   C3B27921  14.250  19.616   7.950
 5319POPC   C4B27922  14.249  19.613   7.650
 5320POPC   NC327923   5.905   0.451   9.450
 5320POPC   PO427924   5.872   0.418   9.150
 5320POPC   GL127925   5.893   0.462   8.850
 5320POPC   GL227926   5.842   0.347   8.850
 5320POPC   C1A27927   5.911   0.482   8.550
 5320POPC   D2A27928   5.865   0.418   8.250
 5320POPC   C3A27929   5.904   0.421   7.950
 5320POPC   C4A27930   5.837   0.482   7.650
 5320POPC   C1B27931   5.739   0.215   8.550
 5320POPC   C2B27932   5.724   0.236   8.250
 5320POPC   C3B27933   5.757   0.233   7.950
 5320POPC   C4B27934   5.710   0.209   7.650
 5321POPC   NC327935  22.928   1.208   9.450
 5321POPC   PO427936  22.961   1.233   9.150
 5321POPC   GL127937  22.965   1.213   8.850
 5321POPC   GL227938  22.823   1.111   8.850
 5321POPC   C1A27939  22.972   1.212   8.550
 5321POPC   D2A27940  22.923   1.251   8.250
 5321POPC   C3A27941  22.905   1.260   7.950
 5321POPC   C4A27942  22.918   1.250   7.650
 5321POPC   C1B27943  22.721   1.053   8.550
 5321POPC   C2B27944  22.773   1.055   8.250
 5321POPC   C3B27945  22.752   1.049   7.950
 5321POPC   C4B27946  22.681   1.089   7.650
 5322POPC   NC327947  17.477  18.254   9.450
 5322POPC   PO427948  17.541  18.304   9.150
 5322POPC   GL127949  17.500  18.289   8.850
 5322POPC   GL227950  17.579  18.131   8.850
 5322POPC   C1A27951  17.525  18.303   8.550
 5322POPC   D2A27952  17.513  18.242   8.250
 5322POPC   C3A27953  17.515  18.297   7.950
 5322POPC   C4A27954  17.556  18.321   7.650
 5322POPC   C1B27955  17.598  18.104   8.550
 5322POPC   C2B27956  17.587  18.077   8.250
 5322POPC   C3B27957  17.584  18.071   7.950
 5322POPC   C4B27958  17.572  18.069   7.650
 5323POPC   NC327959  22.192   9.702   9.450
 5323POPC   PO427960  22.143   9.765   9.150
 5323POPC   GL127961  22.182   9.752   8.850
 5323POPC   GL227962  22.197   9.577   8.850
 5323POPC   C1A27963  22.184   9.750   8.550
 5323POPC   D2A27964  22.196   9.793   8.250
 5323POPC   C3A27965  22.159   9.705   7.950
 5323POPC   C4A27966  22.126   9.749   7.650
 5323POPC   C1B27967  22.151   9.510   8.550
 5323POPC   C2B27968  22.094   9.516   8.250
 5323POPC   C3B27969  22.134   9.513   7.950
 5323POPC   C4B27970  22.170   9.463   7.650
 5324POPC   NC327971  36.889  29.942   9.450
 5324POPC   PO427972  36.925  29.904   9.150
 5324POPC   GL127973  36.914  29.945   8.850
 5324POPC   GL227974  36.800  29.971   8.850
 5324POPC   C1A27975  36.910  29.898   8.550
 5324POPC   D2A27976  36.857  29.905   8.250
 5324POPC   C3A27977  36.927  29.955   7.950
 5324POPC   C4A27978  36.901  29.876   7.650
 5324POPC   C1B27979  36.689  30.058   8.550
 5324POPC   C2B27980  36.705  29.996   8.250
 5324POPC   C3B27981  36.659  30.016   7.950
 5324POPC   C4B27982  36.679  30.024   7.650
 5325POPC   NC327983  27.551  20.608   9.450
 5325POPC   PO427984  27.613  20.606   9.150
 5325POPC   GL127985  27.604  20.642   8.850
 5325POPC   GL227986  27.539  20.648   8.850
 5325POPC   C1A27987  27.589  20.577   8.550
 5325POPC   D2A27988  27.633  20.586   8.250
 5325POPC   C3A27989  27.604  20.578   7.950
 5325POPC   C4A27990  27.618  20.621   7.650
 5325POPC   C1B27991  27.421  20.736   8.550
 5325POPC   C2B27992  27.366  20.774   8.250
 5325POPC   C3B27993  27.348  20.792   7.950
 5325POPC   C4B27994  27.383  20.741   7.650
 5326POPC   NC327995  16.764  39.274   9.450
 5326POPC   PO427996  16.774  39.264   9.150
 5326POPC   GL127997  16.761  39.273   8.850
 5326POPC   GL227998  16.741  39.125   8.850
 5326POPC   C1A27999  16.759  39.246   8.550
 5326POPC   D2A28000  16.777  39.257   8.250
 5326POPC   C3A28001  16.748  39.271   7.950
 5326POPC   C4A28002  16.715  39.278   7.650
 5326POPC   C1B28003  16.717  38.943   8.550
 5326POPC   C2B28004  16.653  38.983   8.250
 5326POPC   C3B28005  16.670  39.023   7.950
 5326POPC   C4B28006  16.729  38.956   7.650
 5327POPC   NC328007  36.893  41.588   9.450
 5327POPC   PO428008  36.898  41.541   9.150
 5327POPC   GL128009  36.914  41.601   8.850
 5327POPC   GL228010  36.862  41.663   8.850
 5327POPC   C1A28011  36.865  41.534   8.550
 5327POPC   D2A28012  36.864  41.587   8.250
 5327POPC   C3A28013  36.877  41.543   7.950
 5327POPC   C4A28014  36.880  41.530   7.650
 5327POPC   C1B28015  36.840  41.758   8.550
 5327POPC   C2B28016  36.800  41.761   8.250
 5327POPC   C3B28017  36.843  41.820   7.950
 5327POPC   C4B28018  36.891  41.756   7.650
 5328POPC   NC328019  43.070  24.444   9.450
 5328POPC   PO428020  43.064  24.479   9.150
 5328POPC   GL128021  43.134  24.538   8.850
 5328POPC   GL228022  42.985  24.551   8.850
 5328POPC   C1A28023  43.075  24.504   8.550
 5328POPC   D2A28024  43.085  24.457   8.250
 5328POPC   C3A28025  43.159  24.501   7.950
 5328POPC   C4A28026  43.137  24.488   7.650
 5328POPC   C1B28027  42.945  24.727   8.550
 5328POPC   C2B28028  42.969  24.671   8.250
 5328POPC   C3B28029  42.942  24.700   7.950
 5328POPC   C4B28030  42.972  24.722   7.650
 5329POPC   NC328031  15.132   9.791   9.450
 5329POPC   PO428032  15.218   9.741   9.150
 5329POPC   GL128033  15.221   9.756   8.850
 5329POPC   GL228034  15.276   9.856   8.850
 5329POPC   C1A28035  15.190   9.713   8.550
 5329POPC   D2A28036  15.227   9.790   8.250
 5329POPC   C3A28037  15.177   9.790   7.950
 5329POPC   C4A28038  15.140   9.712   7.650
 5329POPC   C1B28039  15.357   9.908   8.550
 5329POPC   C2B28040  15.429   9.878   8.250
 5329POPC   C3B28041  15.423   9.881   7.950
 5329POPC   C4B28042  15.354   9.868   7.650
 5330POPC   NC328043  34.592  35.400   9.450
 5330POPC   PO428044  34.600  35.343   9.150
 5330POPC   GL128045  34.604  35.372   8.850
 5330POPC   GL228046  34.435  35.271   8.850
 5330POPC   C1A28047  34.597  35.396   8.550
 5330POPC   D2A28048  34.527  35.388   8.250
 5330POPC   C3A28049  34.557  35.398   7.950
 5330POPC   C4A28050  34.561  35.390   7.650
 5330POPC   C1B28051  34.374  35.264   8.550
 5330POPC   C2B28052  34.374  35.210   8.250
 5330POPC   C3B28053  34.357  35.268   7.950
 5330POPC   C4B28054  34.300  35.267   7.650
 5331POPC   NC328055  22.972  22.970   9.450
 5331POPC   PO428056  22.988  22.984   9.150
 5331POPC   GL128057  22.952  22.964   8.850
 5331POPC   GL228058  22.986  23.051   8.850
 5331POPC   C1A28059  22.949  22.961   8.550
 5331POPC   D2A28060  22.971  22.899   8.250
 5331POPC   C3A28061  22.928  22.947   7.950
 5331POPC   C4A28062  22.955  22.899   7.650
 5331POPC   C1B28063  23.068  23.143   8.550
 5331POPC   C2B28064  23.054  23.124   8.250
 5331POPC   C3B28065  23.004  23.131   7.950
 5331POPC   C4B28066  23.079  23.156   7.650
 5332POPC   NC328067  15.202  35.361   9.450
 5332POPC   PO428068  15.220  35.332   9.150
 5332POPC   GL128069  15.206  35.363   8.850
 5332POPC   GL228070  15.064  35.397   8.850
 5332POPC   C1A28071  15.154  35.309   8.550
 5332POPC   D2A28072  15.175  35.308   8.250
 5332POPC   C3A28073  15.151  35.358   7.950
 5332POPC   C4A28074  15.168  35.394   7.650
 5332POPC   C1B28075  14.979  35.389   8.550
 5332POPC   C2B28076  14.932  35.348   8.250
 5332POPC   C3B28077  14.958  35.390   7.950
 5332POPC   C4B28078  14.978  35.356   7.650
 5333POPC   NC328079  36.879  39.274   9.450
 5333POPC   PO428080  36.931  39.273   9.150
 5333POPC   GL128081  36.899  39.215   8.850
 5333POPC   GL228082  36.916  39.144   8.850
 5333POPC   C1A28083  36.922  39.229   8.550
 5333POPC   D2A28084  36.857  39.214   8.250
 5333POPC   C3A28085  36.930  39.211   7.950
 5333POPC   C4A28086  36.876  39.248   7.650
 5333POPC   C1B28087  37.012  39.013   8.550
 5333POPC   C2B28088  37.049  39.025   8.250
 5333POPC   C3B28089  37.072  39.063   7.950
 5333POPC   C4B28090  37.023  39.055   7.650
 5334POPC   NC328091  22.190  12.029   9.450
 5334POPC   PO428092  22.174  12.076   9.150
 5334POPC   GL128093  22.186  12.032   8.850
 5334POPC   GL228094  22.309  11.980   8.850
 5334POPC   C1A28095  22.130  12.123   8.550
 5334POPC   D2A28096  22.117  12.105   8.250
 5334POPC   C3A28097  22.190  12.081   7.950
 5334POPC   C4A28098  22.122  12.106   7.650
 5334POPC   C1B28099  22.401  11.946   8.550
 5334POPC   C2B28100  22.374  11.964   8.250
 5334POPC   C3B28101  22.416  11.971   7.950
 5334POPC   C4B28102  22.354  11.910   7.650
 5335POPC   NC328103  26.798  43.091   9.450
 5335POPC   PO428104  26.808  43.084   9.150
 5335POPC   GL128105  26.823  43.094   8.850
 5335POPC   GL228106  26.855  43.017   8.850
 5335POPC   C1A28107  26.831  43.100   8.550
 5335POPC   D2A28108  26.812  43.061   8.250
 5335POPC   C3A28109  26.774  43.134   7.950
 5335POPC   C4A28110  26.776  43.145   7.650
 5335POPC   C1B28111  26.840  42.832   8.550
 5335POPC   C2B28112  26.805  42.848   8.250
 5335POPC   C3B28113  26.807  42.815   7.950
 5335POPC   C4B28114  26.889  42.833   7.650
 5336POPC   NC328115  20.606  32.984   9.450
 5336POPC   PO428116  20.622  33.070   9.150
 5336POPC   GL128117  20.613  33.057   8.850
 5336POPC   GL228118  20.456  33.024   8.850
 5336POPC   C1A28119  20.599  32.999   8.550
 5336POPC   D2A28120  20.651  32.997   8.250
 5336POPC   C3A28121  20.568  33.070   7.950
 5336POPC   C4A28122  20.604  32.992   7.650
 5336POPC   C1B28123  20.409  32.951   8.550
 5336POPC   C2B28124  20.349  32.987   8.250
 5336POPC   C3B28125  20.379  32.973   7.950
 5336POPC   C4B28126  20.343  32.949   7.650
 5337POPC   NC328127   8.934  25.260   9.450
 5337POPC   PO428128   8.947  25.289   9.150
 5337POPC   GL128129   9.020  25.244   8.850
 5337POPC   GL228130   8.899  25.140   8.850
 5337POPC   C1A28131   8.973  25.254   8.550
 5337POPC   D2A28132   8.968  25.247   8.250
 5337POPC   C3A28133   8.942  25.217   7.950
 5337POPC   C4A28134   8.971  25.236   7.650
 5337POPC   C1B28135   8.893  25.020   8.550
 5337POPC   C2B28136   8.877  25.053   8.250
 5337POPC   C3B28137   8.864  25.071   7.950
 5337POPC   C4B28138   8.821  25.033   7.650
 5338POPC   NC328139   2.726  12.113   9.450
 5338POPC   PO428140   2.750  12.046   9.150
 5338POPC   GL128141   2.812  12.115   8.850
 5338POPC   GL228142   2.723  11.952   8.850
 5338POPC   C1A28143   2.794  12.032   8.550
 5338POPC   D2A28144   2.745  12.054   8.250
 5338POPC   C3A28145   2.787  12.059   7.950
 5338POPC   C4A28146   2.789  12.079   7.650
 5338POPC   C1B28147   2.658  11.870   8.550
 5338POPC   C2B28148   2.655  11.833   8.250
 5338POPC   C3B28149   2.660  11.878   7.950
 5338POPC   C4B28150   2.711  11.813   7.650
 5339POPC   NC328151  30.735   8.178   9.450
 5339POPC   PO428152  30.670   8.153   9.150
 5339POPC   GL128153  30.691   8.155   8.850
 5339POPC   GL228154  30.691   8.096   8.850
 5339POPC   C1A28155  30.653   8.149   8.550
 5339POPC   D2A28156  30.684   8.172   8.250
 5339POPC   C3A28157  30.684   8.246   7.950
 5339POPC   C4A28158  30.697   8.235   7.650
 5339POPC   C1B28159  30.715   7.934   8.550
 5339POPC   C2B28160  30.779   7.985   8.250
 5339POPC   C3B28161  30.711   7.943   7.950
 5339POPC   C4B28162  30.795   7.907   7.650
 5340POPC   NC328163  22.147   1.236   9.450
 5340POPC   PO428164  22.193   1.207   9.150
 5340POPC   GL128165  22.188   1.248   8.850
 5340POPC   GL228166  22.113   1.344   8.850
 5340POPC   C1A28167  22.169   1.208   8.550
 5340POPC   D2A28168  22.122   1.205   8.250
 5340POPC   C3A28169  22.139   1.202   7.950
 5340POPC   C4A28170  22.122   1.244   7.650
 5340POPC   C1B28171  22.104   1.442   8.550
 5340POPC   C2B28172  22.065   1.440   8.250
 5340POPC   C3B28173  22.111   1.405   7.950
 5340POPC   C4B28174  22.106   1.406   7.650
 5341POPC   NC328175  19.834   3.526   9.450
 5341POPC   PO428176  19.839   3.503   9.150
 5341POPC   GL128177  19.839   3.541   8.850
 5341POPC   GL228178  19.924   3.431   8.850
 5341POPC   C1A28179  19.806   3.559   8.550
 5341POPC   D2A28180  19.871   3.505   8.250
 5341POPC   C3A28181  19.882   3.497   7.950
 5341POPC   C4A28182  19.869   3.581   7.650
 5341POPC   C1B28183  19.962   3.288   8.550
 5341POPC   C2B28184  19.906   3.273   8.250
 5341POPC   C3B28185  19.960   3.285   7.950
 5341POPC   C4B28186  19.947   3.330   7.650
 5342POPC   NC328187  33.806  19.011   9.450
 5342POPC   PO428188  33.818  19.095   9.150
 5342POPC   GL128189  33.783  19.084   8.850
 5342POPC   GL228190  33.783  18.954   8.850
 5342POPC   C1A28191  33.824  19.067   8.550
 5342POPC   D2A28192  33.814  19.025   8.250
 5342POPC   C3A28193  33.760  19.085   7.950
 5342POPC   C4A28194  33.841  19.087   7.650
 5342POPC   C1B28195  33.764  18.824   8.550
 5342POPC   C2B28196  33.747  18.793   8.250
 5342POPC   C3B28197  33.784  18.809   7.950
 5342POPC   C4B28198  33.748  18.814   7.650
 5343POPC   NC328199  27.568  40.046   9.450
 5343POPC   PO428200  27.586  39.984   9.150
 5343POPC   GL128201  27.635  40.030   8.850
 5343POPC   GL228202  27.710  39.990   8.850
 5343POPC   C1A28203  27.616  40.032   8.550
 5343POPC   D2A28204  27.632  39.981   8.250
 5343POPC   C3A28205  27.592  40.053   7.950
 5343POPC   C4A28206  27.635  39.996   7.650
 5343POPC   C1B28207  27.854  39.895   8.550
 5343POPC   C2B28208  27.837  39.911   8.250
 5343POPC   C3B28209  27.778  39.904   7.950
 5343POPC   C4B28210  27.820  39.969   7.650
 5344POPC   NC328211  27.618  22.915   9.450
 5344POPC   PO428212  27.567  22.904   9.150
 5344POPC   GL128213  27.610  22.975   8.850
 5344POPC   GL228214  27.447  22.949   8.850
 5344POPC   C1A28215  27.621  22.940   8.550
 5344POPC   D2A28216  27.620  22.908   8.250
 5344POPC   C3A28217  27.549  22.908   7.950
 5344POPC   C4A28218  27.557  22.951   7.650
 5344POPC   C1B28219  27.389  22.998   8.550
 5344POPC   C2B28220  27.341  22.965   8.250
 5344POPC   C3B28221  27.303  22.985   7.950
 5344POPC   C4B28222  27.309  22.938   7.650
 5345POPC   NC328223  28.355   2.744   9.450
 5345POPC   PO428224  28.381   2.737   9.150
 5345POPC   GL128225  28.398   2.751   8.850
 5345POPC   GL228226  28.405   2.608   8.850
 5345POPC   C1A28227  28.403   2.739   8.550
 5345POPC   D2A28228  28.378   2.722   8.250
 5345POPC   C3A28229  28.401   2.742   7.950
 5345POPC   C4A28230  28.418   2.727   7.650
 5345POPC   C1B28231  28.481   2.494   8.550
 5345POPC   C2B28232  28.421   2.520   8.250
 5345POPC   C3B28233  28.435   2.484   7.950
 5345POPC   C4B28234  28.415   2.485   7.650
 5346POPC   NC328235   8.163  15.931   9.450
 5346POPC   PO428236   8.154  15.944   9.150
 5346POPC   GL128237   8.198  15.967   8.850
 5346POPC   GL228238   8.289  15.987   8.850
 5346POPC   C1A28239   8.231  15.918   8.550
 5346POPC   D2A28240   8.222  15.927   8.250
 5346POPC   C3A28241   8.176  15.983   7.950
 5346POPC   C4A28242   8.245  15.979   7.650
 5346POPC   C1B28243   8.402  16.054   8.550
 5346POPC   C2B28244   8.420  16.050   8.250
 5346POPC   C3B28245   8.410  16.053   7.950
 5346POPC   C4B28246   8.479  16.029   7.650
 5347POPC   NC328247  40.788   8.183   9.450
 5347POPC   PO428248  40.738   8.151   9.150
 5347POPC   GL128249  40.738   8.156   8.850
 5347POPC   GL228250  40.728   8.041   8.850
 5347POPC   C1A28251  40.769   8.214   8.550
 5347POPC   D2A28252  40.829   8.212   8.250
 5347POPC   C3A28253  40.748   8.175   7.950
 5347POPC   C4A28254  40.765   8.243   7.650
 5347POPC   C1B28255  40.748   7.934   8.550
 5347POPC   C2B28256  40.750   7.968   8.250
 5347POPC   C3B28257  40.682   7.930   7.950
 5347POPC   C4B28258  40.685   7.958   7.650
 5348POPC   NC328259  12.834  18.271   9.450
 5348POPC   PO428260  12.848  18.276   9.150
 5348POPC   GL128261  12.844  18.266   8.850
 5348POPC   GL228262  12.775  18.295   8.850
 5348POPC   C1A28263  12.854  18.292   8.550
 5348POPC   D2A28264  12.851  18.258   8.250
 5348POPC   C3A28265  12.894  18.315   7.950
 5348POPC   C4A28266  12.857  18.312   7.650
 5348POPC   C1B28267  12.612  18.248   8.550
 5348POPC   C2B28268  12.611  18.188   8.250
 5348POPC   C3B28269  12.585  18.167   7.950
 5348POPC   C4B28270  12.641  18.199   7.650
 5349POPC   NC328271   7.377  14.445   9.450
 5349POPC   PO428272   7.389  14.421   9.150
 5349POPC   GL128273   7.456  14.450   8.850
 5349POPC   GL228274   7.501  14.376   8.850
 5349POPC   C1A28275   7.404  14.429   8.550
 5349POPC   D2A28276   7.454  14.447   8.250
 5349POPC   C3A28277   7.376  14.424   7.950
 5349POPC   C4A28278   7.457  14.434   7.650
 5349POPC   C1B28279   7.668  14.301   8.550
 5349POPC   C2B28280   7.655  14.335   8.250
 5349POPC   C3B28281   7.643  14.317   7.950
 5349POPC   C4B28282   7.693  14.326   7.650
 5350POPC   NC328283  40.751  36.924   9.450
 5350POPC   PO428284  40.756  36.950   9.150
 5350POPC   GL128285  40.797  36.947   8.850
 5350POPC   GL228286  40.768  36.810   8.850
 5350POPC   C1A28287  40.736  36.937   8.550
 5350POPC   D2A28288  40.799  36.931   8.250
 5350POPC   C3A28289  40.802  36.946   7.950
 5350POPC   C4A28290  40.750  36.899   7.650
 5350POPC   C1B28291  40.800  36.687   8.550
 5350POPC   C2B28292  40.720  36.657   8.250
 5350POPC   C3B28293  40.762  36.661   7.950
 5350POPC   C4B28294  40.712  36.643   7.650
 5351POPC   NC328295  26.802   1.204   9.450
 5351POPC   PO428296  26.771   1.201   9.150
 5351POPC   GL128297  26.772   1.245   8.850
 5351POPC   GL228298  26.729   1.263   8.850
 5351POPC   C1A28299  26.830   1.205   8.550
 5351POPC   D2A28300  26.839   1.239   8.250
 5351POPC   C3A28301  26.815   1.195   7.950
 5351POPC   C4A28302  26.815   1.242   7.650
 5351POPC   C1B28303  26.634   1.358   8.550
 5351POPC   C2B28304  26.627   1.332   8.250
 5351POPC   C3B28305  26.596   1.363   7.950
 5351POPC   C4B28306  26.666   1.338   7.650
 5352POPC   NC328307  22.909  21.363   9.450
 5352POPC   PO428308  22.942  21.406   9.150
 5352POPC   GL128309  22.950  21.354   8.850
 5352POPC   GL228310  22.830  21.338   8.850
 5352POPC   C1A28311  22.981  21.378   8.550
 5352POPC   D2A28312  22.890  21.396   8.250
 5352POPC   C3A28313  22.967  21.435   7.950
 5352POPC   C4A28314  22.923  21.338   7.650
 5352POPC   C1B28315  22.739  21.285   8.550
 5352POPC   C2B28316  22.672  21.281   8.250
 5352POPC   C3B28317  22.712  21.292   7.950
 5352POPC   C4B28318  22.707  21.281   7.650
 5353POPC   NC328319   6.631  37.693   9.450
 5353POPC   PO428320   6.633  37.710   9.150
 5353POPC   GL128321   6.596  37.666   8.850
 5353POPC   GL228322   6.721  37.748   8.850
 5353POPC   C1A28323   6.601  37.686   8.550
 5353POPC   D2A28324   6.677  37.713   8.250
 5353POPC   C3A28325   6.659  37.641   7.950
 5353POPC   C4A28326   6.623  37.729   7.650
 5353POPC   C1B28327   6.811  37.881   8.550
 5353POPC   C2B28328   6.775  37.875   8.250
 5353POPC   C3B28329   6.748  37.925   7.950
 5353POPC   C4B28330   6.765  37.888   7.650
 5354POPC   NC328331  28.415  22.943   9.450
 5354POPC   PO428332  28.402  22.888   9.150
 5354POPC   GL128333  28.377  22.984   8.850
 5354POPC   GL228334  28.414  22.835   8.850
 5354POPC   C1A28335  28.352  22.891   8.550
 5354POPC   D2A28336  28.405  22.982   8.250
 5354POPC   C3A28337  28.338  22.930   7.950
 5354POPC   C4A28338  28.339  22.926   7.650
 5354POPC   C1B28339  28.459  22.747   8.550
 5354POPC   C2B28340  28.512  22.725   8.250
 5354POPC   C3B28341  28.513  22.764   7.950
 5354POPC   C4B28342  28.535  22.732   7.650
 5355POPC   NC328343  11.282  12.100   9.450
 5355POPC   PO428344  11.317  12.029   9.150
 5355POPC   GL128345  11.349  12.106   8.850
 5355POPC   GL228346  11.239  11.974   8.850
 5355POPC   C1A28347  11.251  12.078   8.550
 5355POPC   D2A28348  11.323  12.085   8.250
 5355POPC   C3A28349  11.255  12.073   7.950
 5355POPC   C4A28350  11.255  12.075   7.650
 5355POPC   C1B28351  11.169  11.869   8.550
 5355POPC   C2B28352  11.164  11.862   8.250
 5355POPC   C3B28353  11.229  11.807   7.950
 5355POPC   C4B28354  11.231  11.831   7.650
 5356POPC   NC328355  20.611  12.072   9.450
 5356POPC   PO428356  20.632  12.054   9.150
 5356POPC   GL128357  20.642  12.027   8.850
 5356POPC   GL228358  20.588  12.138   8.850
 5356POPC   C1A28359  20.590  12.051   8.550
 5356POPC   D2A28360  20.572  12.102   8.250
 5356POPC   C3A28361  20.616  12.121   7.950
 5356POPC   C4A28362  20.566  12.084   7.650
 5356POPC   C1B28363  20.523  12.265   8.550
 5356POPC   C2B28364  20.464  12.316   8.250
 5356POPC   C3B28365  20.452  12.332   7.950
 5356POPC   C4B28366  20.501  12.259   7.650
 5357POPC   NC328367  35.399  43.067   9.450
 5357POPC   PO428368  35.317  43.117   9.150
 5357POPC   GL128369  35.304  43.150   8.850
 5357POPC   GL228370  35.316  43.222   8.850
 5357POPC   C1A28371  35.397  43.103   8.550
 5357POPC   D2A28372  35.384  43.070   8.250
 5357POPC   C3A28373  35.361  43.110   7.950
 5357POPC   C4A28374  35.343  43.138   7.650
 5357POPC   C1B28375  35.207  43.293   8.550
 5357POPC   C2B28376  35.210  43.360   8.250
 5357POPC   C3B28377  35.184  43.342   7.950
 5357POPC   C4B28378  35.175  43.307   7.650
 5358POPC   NC328379  42.359  21.416   9.450
 5358POPC   PO428380  42.299  21.396   9.150
 5358POPC   GL128381  42.329  21.422   8.850
 5358POPC   GL228382  42.326  21.218   8.850
 5358POPC   C1A28383  42.335  21.360   8.550
 5358POPC   D2A28384  42.356  21.430   8.250
 5358POPC   C3A28385  42.309  21.365   7.950
 5358POPC   C4A28386  42.288  21.395   7.650
 5358POPC   C1B28387  42.240  21.192   8.550
 5358POPC   C2B28388  42.293  21.184   8.250
 5358POPC   C3B28389  42.214  21.124   7.950
 5358POPC   C4B28390  42.296  21.187   7.650
 5359POPC   NC328391  21.428   5.102   9.450
 5359POPC   PO428392  21.398   5.109   9.150
 5359POPC   GL128393  21.384   5.142   8.850
 5359POPC   GL228394  21.442   5.032   8.850
 5359POPC   C1A28395  21.375   5.109   8.550
 5359POPC   D2A28396  21.407   5.138   8.250
 5359POPC   C3A28397  21.397   5.115   7.950
 5359POPC   C4A28398  21.346   5.059   7.650
 5359POPC   C1B28399  21.564   4.890   8.550
 5359POPC   C2B28400  21.563   4.923   8.250
 5359POPC   C3B28401  21.570   4.890   7.950
 5359POPC   C4B28402  21.497   4.865   7.650
 5360POPC   NC328403  39.986  26.061   9.450
 5360POPC   PO428404  40.003  26.086   9.150
 5360POPC   GL128405  40.003  26.044   8.850
 5360POPC   GL228406  40.044  25.909   8.850
 5360POPC   C1A28407  40.012  26.004   8.550
 5360POPC   D2A28408  40.006  26.038   8.250
 5360POPC   C3A28409  39.996  26.074   7.950
 5360POPC   C4A28410  40.005  26.008   7.650
 5360POPC   C1B28411  40.105  25.801   8.550
 5360POPC   C2B28412  40.091  25.759   8.250
 5360POPC   C3B28413  40.077  25.788   7.950
 5360POPC   C4B28414  40.055  25.808   7.650
 5361POPC   NC328415  26.006  31.489   9.450
 5361POPC   PO428416  26.012  31.450   9.150
 5361POPC   GL128417  25.999  31.447   8.850
 5361POPC   GL228418  25.883  31.446   8.850
 5361POPC   C1A28419  26.084  31.448   8.550
 5361POPC   D2A28420  26.087  31.484   8.250
 5361POPC   C3A28421  26.029  31.521   7.950
 5361POPC   C4A28422  26.042  31.470   7.650
 5361POPC   C1B28423  25.783  31.459   8.550
 5361POPC   C2B28424  25.814  31.483   8.250
 5361POPC   C3B28425  25.818  31.505   7.950
 5361POPC   C4B28426  25.750  31.496   7.650
 5362POPC   NC328427  43.860  15.977   9.450
 5362POPC   PO428428  43.901  15.965   9.150
 5362POPC   GL128429  43.893  15.916   8.850
 5362POPC   GL228430  43.928  15.811   8.850
 5362POPC   C1A28431  43.884  15.991   8.550
 5362POPC   D2A28432  43.851  15.932   8.250
 5362POPC   C3A28433  43.841  15.962   7.950
 5362POPC   C4A28434  43.849  15.927   7.650
 5362POPC   C1B28435  43.953  15.715   8.550
 5362POPC   C2B28436  43.919  15.670   8.250
 5362POPC   C3B28437  43.868  15.658   7.950
 5362POPC   C4B28438  43.878  15.740   7.650
 5363POPC   NC328439  20.571   5.918   9.450
 5363POPC   PO428440  20.604   5.869   9.150
 5363POPC   GL128441  20.609   5.898   8.850
 5363POPC   GL228442  20.645   5.997   8.850
 5363POPC   C1A28443  20.576   5.848   8.550
 5363POPC   D2A28444  20.588   5.906   8.250
 5363POPC   C3A28445  20.610   5.826   7.950
 5363POPC   C4A28446  20.627   5.914   7.650
 5363POPC   C1B28447  20.660   6.107   8.550
 5363POPC   C2B28448  20.713   6.143   8.250
 5363POPC   C3B28449  20.705   6.131   7.950
 5363POPC   C4B28450  20.635   6.140   7.650
 5364POPC   NC328451  36.119   5.884   9.450
 5364POPC   PO428452  36.174   5.825   9.150
 5364POPC   GL128453  36.093   5.870   8.850
 5364POPC   GL228454  36.240   5.976   8.850
 5364POPC   C1A28455  36.099   5.839   8.550
 5364POPC   D2A28456  36.128   5.883   8.250
 5364POPC   C3A28457  36.158   5.862   7.950
 5364POPC   C4A28458  36.114   5.859   7.650
 5364POPC   C1B28459  36.311   5.993   8.550
 5364POPC   C2B28460  36.260   6.055   8.250
 5364POPC   C3B28461  36.338   6.020   7.950
 5364POPC   C4B28462  36.338   6.035   7.650
 5365POPC   NC328463  36.174  26.781   9.450
 5365POPC   PO428464  36.162  26.844   9.150
 5365POPC   GL128465  36.175  26.817   8.850
 5365POPC   GL228466  35.978  26.757   8.850
 5365POPC   C1A28467  36.108  26.782   8.550
 5365POPC   D2A28468  36.123  26.841   8.250
 5365POPC   C3A28469  36.110  26.860   7.950
 5365POPC   C4A28470  36.091  26.780   7.650
 5365POPC   C1B28471  35.865  26.691   8.550
 5365POPC   C2B28472  35.922  26.721   8.250
 5365POPC   C3B28473  35.869  26.775   7.950
 5365POPC   C4B28474  35.849  26.722   7.650
 5366POPC   NC328475  23.670  36.943   9.450
 5366POPC   PO428476  23.758  36.912   9.150
 5366POPC   GL128477  23.687  36.910   8.850
 5366POPC   GL228478  23.623  36.950   8.850
 5366POPC   C1A28479  23.692  36.871   8.550
 5366POPC   D2A28480  23.725  36.914   8.250
 5366POPC   C3A28481  23.694  36.886   7.950
 5366POPC   C4A28482  23.748  36.910   7.650
 5366POPC   C1B28483  23.462  36.925   8.550
 5366POPC   C2B28484  23.453  36.917   8.250
 5366POPC   C3B28485  23.494  36.990   7.950
 5366POPC   C4B28486  23.458  36.918   7.650
 5367POPC   NC328487   1.204  37.667   9.450
 5367POPC   PO428488   1.256  37.709   9.150
 5367POPC   GL128489   1.223  37.684   8.850
 5367POPC   GL228490   1.127  37.712   8.850
 5367POPC   C1A28491   1.226  37.659   8.550
 5367POPC   D2A28492   1.175  37.680   8.250
 5367POPC   C3A28493   1.244  37.664   7.950
 5367POPC   C4A28494   1.228  37.638   7.650
 5367POPC   C1B28495   0.978  37.705   8.550
 5367POPC   C2B28496   0.937  37.734   8.250
 5367POPC   C3B28497   0.998  37.756   7.950
 5367POPC   C4B28498   0.937  37.750   7.650
 5368POPC   NC328499  12.844  40.014   9.450
 5368POPC   PO428500  12.855  39.960   9.150
 5368POPC   GL128501  12.832  40.003   8.850
 5368POPC   GL228502  12.799  39.892   8.850
 5368POPC   C1A28503  12.833  39.958   8.550
 5368POPC   D2A28504  12.836  40.025   8.250
 5368POPC   C3A28505  12.814  40.021   7.950
 5368POPC   C4A28506  12.803  39.984   7.650
 5368POPC   C1B28507  12.711  39.784   8.550
 5368POPC   C2B28508  12.758  39.761   8.250
 5368POPC   C3B28509  12.695  39.794   7.950
 5368POPC   C4B28510  12.744  39.785   7.650
 5369POPC   NC328511  31.497  41.523   9.450
 5369POPC   PO428512  31.452  41.594   9.150
 5369POPC   GL128513  31.430  41.596   8.850
 5369POPC   GL228514  31.325  41.605   8.850
 5369POPC   C1A28515  31.426  41.586   8.550
 5369POPC   D2A28516  31.426  41.543   8.250
 5369POPC   C3A28517  31.519  41.539   7.950
 5369POPC   C4A28518  31.513  41.559   7.650
 5369POPC   C1B28519  31.183  41.523   8.550
 5369POPC   C2B28520  31.198  41.577   8.250
 5369POPC   C3B28521  31.253  41.581   7.950
 5369POPC   C4B28522  31.232  41.548   7.650
 5370POPC   NC328523   1.216  44.674   9.450
 5370POPC   PO428524   1.221  44.700   9.150
 5370POPC   GL128525   1.205  44.620   8.850
 5370POPC   GL228526   1.352  44.700   8.850
 5370POPC   C1A28527   1.260  44.661   8.550
 5370POPC   D2A28528   1.262  44.615   8.250
 5370POPC   C3A28529   1.193  44.659   7.950
 5370POPC   C4A28530   1.180  44.625   7.650
 5370POPC   C1B28531   1.434  44.683   8.550
 5370POPC   C2B28532   1.466  44.628   8.250
 5370POPC   C3B28533   1.471  44.685   7.950
 5370POPC   C4B28534   1.450  44.625   7.650
 5371POPC   NC328535  40.798  13.602   9.450
 5371POPC   PO428536  40.759  13.621   9.150
 5371POPC   GL128537  40.787  13.651   8.850
 5371POPC   GL228538  40.755  13.759   8.850
 5371POPC   C1A28539  40.781  13.587   8.550
 5371POPC   D2A28540  40.790  13.611   8.250
 5371POPC   C3A28541  40.819  13.630   7.950
 5371POPC   C4A28542  40.736  13.640   7.650
 5371POPC   C1B28543  40.786  13.904   8.550
 5371POPC   C2B28544  40.787  13.922   8.250
 5371POPC   C3B28545  40.731  13.917   7.950
 5371POPC   C4B28546  40.734  13.843   7.650
 5372POPC   NC328547  20.636  22.907   9.450
 5372POPC   PO428548  20.578  22.921   9.150
 5372POPC   GL128549  20.642  22.908   8.850
 5372POPC   GL228550  20.508  22.849   8.850
 5372POPC   C1A28551  20.613  22.921   8.550
 5372POPC   D2A28552  20.625  22.962   8.250
 5372POPC   C3A28553  20.609  22.987   7.950
 5372POPC   C4A28554  20.624  22.957   7.650
 5372POPC   C1B28555  20.440  22.721   8.550
 5372POPC   C2B28556  20.426  22.775   8.250
 5372POPC   C3B28557  20.482  22.736   7.950
 5372POPC   C4B28558  20.470  22.781   7.650
 5373POPC   NC328559  11.276   1.978   9.450
 5373POPC   PO428560  11.339   1.996   9.150
 5373POPC   GL128561  11.283   2.010   8.850
 5373POPC   GL228562  11.179   1.918   8.850
 5373POPC   C1A28563  11.256   1.953   8.550
 5373POPC   D2A28564  11.297   1.975   8.250
 5373POPC   C3A28565  11.294   2.006   7.950
 5373POPC   C4A28566  11.290   1.962   7.650
 5373POPC   C1B28567  11.087   1.852   8.550
 5373POPC   C2B28568  11.061   1.864   8.250
 5373POPC   C3B28569  11.094   1.947   7.950
 5373POPC   C4B28570  11.085   1.914   7.650
 5374POPC   NC328571   8.927  36.128   9.450
 5374POPC   PO428572   8.925  36.157   9.150
 5374POPC   GL128573   8.996  36.168   8.850
 5374POPC   GL228574   8.821  36.214   8.850
 5374POPC   C1A28575   9.013  36.108   8.550
 5374POPC   D2A28576   8.971  36.166   8.250
 5374POPC   C3A28577   8.996  36.100   7.950
 5374POPC   C4A28578   8.955  36.087   7.650
 5374POPC   C1B28579   8.784  36.238   8.550
 5374POPC   C2B28580   8.721  36.258   8.250
 5374POPC   C3B28581   8.712  36.253   7.950
 5374POPC   C4B28582   8.766  36.257   7.650
 5375POPC   NC328583  29.893  12.841   9.450
 5375POPC   PO428584  29.900  12.822   9.150
 5375POPC   GL128585  29.956  12.899   8.850
 5375POPC   GL228586  29.996  12.802   8.850
 5375POPC   C1A28587  29.923  12.891   8.550
 5375POPC   D2A28588  29.903  12.853   8.250
 5375POPC   C3A28589  29.950  12.846   7.950
 5375POPC   C4A28590  29.953  12.812   7.650
 5375POPC   C1B28591  30.103  12.742   8.550
 5375POPC   C2B28592  30.094  12.704   8.250
 5375POPC   C3B28593  30.094  12.725   7.950
 5375POPC   C4B28594  30.102  12.698   7.650
 5376POPC   NC328595  25.284  22.176   9.450
 5376POPC   PO428596  25.296  22.161   9.150
 5376POPC   GL128597  25.228  22.182   8.850
 5376POPC   GL228598  25.167  22.186   8.850
 5376POPC   C1A28599  25.289  22.171   8.550
 5376POPC   D2A28600  25.234  22.116   8.250
 5376POPC   C3A28601  25.228  22.159   7.950
 5376POPC   C4A28602  25.294  22.120   7.650
 5376POPC   C1B28603  25.062  22.137   8.550
 5376POPC   C2B28604  25.055  22.139   8.250
 5376POPC   C3B28605  25.041  22.098   7.950
 5376POPC   C4B28606  25.039  22.189   7.650
 5377POPC   NC328607   8.938   8.163   9.450
 5377POPC   PO428608   8.952   8.147   9.150
 5377POPC   GL128609   8.948   8.245   8.850
 5377POPC   GL228610   8.957   8.336   8.850
 5377POPC   C1A28611   8.984   8.201   8.550
 5377POPC   D2A28612   8.934   8.193   8.250
 5377POPC   C3A28613   8.996   8.160   7.950
 5377POPC   C4A28614   8.947   8.212   7.650
 5377POPC   C1B28615   8.891   8.431   8.550
 5377POPC   C2B28616   8.936   8.450   8.250
 5377POPC   C3B28617   8.912   8.413   7.950
 5377POPC   C4B28618   8.893   8.490   7.650
 5378POPC   NC328619  42.303   2.785   9.450
 5378POPC   PO428620  42.329   2.716   9.150
 5378POPC   GL128621  42.295   2.798   8.850
 5378POPC   GL228622  42.327   2.616   8.850
 5378POPC   C1A28623  42.344   2.787   8.550
 5378POPC   D2A28624  42.304   2.752   8.250
 5378POPC   C3A28625  42.373   2.802   7.950
 5378POPC   C4A28626  42.289   2.815   7.650
 5378POPC   C1B28627  42.377   2.566   8.550
 5378POPC   C2B28628  42.378   2.483   8.250
 5378POPC   C3B28629  42.403   2.524   7.950
 5378POPC   C4B28630  42.373   2.498   7.650
 5379POPC   NC328631  25.284  29.169   9.450
 5379POPC   PO428632  25.275  29.162   9.150
 5379POPC   GL128633  25.255  29.161   8.850
 5379POPC   GL228634  25.100  29.115   8.850
 5379POPC   C1A28635  25.289  29.151   8.550
 5379POPC   D2A28636  25.291  29.133   8.250
 5379POPC   C3A28637  25.219  29.168   7.950
 5379POPC   C4A28638  25.239  29.187   7.650
 5379POPC   C1B28639  24.993  29.066   8.550
 5379POPC   C2B28640  25.027  29.088   8.250
 5379POPC   C3B28641  25.014  29.083   7.950
 5379POPC   C4B28642  24.994  29.074   7.650
 5380POPC   NC328643   0.446  32.275   9.450
 5380POPC   PO428644   0.389  32.231   9.150
 5380POPC   GL128645   0.409  32.265   8.850
 5380POPC   GL228646   0.466  32.375   8.850
 5380POPC   C1A28647   0.411  32.275   8.550
 5380POPC   D2A28648   0.428  32.205   8.250
 5380POPC   C3A28649   0.458  32.294   7.950
 5380POPC   C4A28650   0.483  32.226   7.650
 5380POPC   C1B28651   0.425  32.547   8.550
 5380POPC   C2B28652   0.414  32.535   8.250
 5380POPC   C3B28653   0.473  32.454   7.950
 5380POPC   C4B28654   0.448  32.504   7.650
 5381POPC   NC328655  33.025   4.325   9.450
 5381POPC   PO428656  32.985   4.278   9.150
 5381POPC   GL128657  32.994   4.343   8.850
 5381POPC   GL228658  32.916   4.396   8.850
 5381POPC   C1A28659  33.059   4.321   8.550
 5381POPC   D2A28660  33.001   4.344   8.250
 5381POPC   C3A28661  32.981   4.294   7.950
 5381POPC   C4A28662  33.057   4.350   7.650
 5381POPC   C1B28663  32.819   4.430   8.550
 5381POPC   C2B28664  32.803   4.455   8.250
 5381POPC   C3B28665  32.824   4.463   7.950
 5381POPC   C4B28666  32.805   4.499   7.650
 5382POPC   NC328667   5.887  31.438   9.450
 5382POPC   PO428668   5.864  31.498   9.150
 5382POPC   GL128669   5.900  31.503   8.850
 5382POPC   GL228670   6.020  31.453   8.850
 5382POPC   C1A28671   5.918  31.456   8.550
 5382POPC   D2A28672   5.850  31.467   8.250
 5382POPC   C3A28673   5.861  31.507   7.950
 5382POPC   C4A28674   5.884  31.450   7.650
 5382POPC   C1B28675   6.100  31.379   8.550
 5382POPC   C2B28676   6.095  31.422   8.250
 5382POPC   C3B28677   6.117  31.408   7.950
 5382POPC   C4B28678   6.133  31.443   7.650
 5383POPC   NC328679  44.675   4.322   9.450
 5383POPC   PO428680  44.612   4.353   9.150
 5383POPC   GL128681  44.656   4.326   8.850
 5383POPC   GL228682  44.563   4.422   8.850
 5383POPC   C1A28683  44.620   4.331   8.550
 5383POPC   D2A28684  44.702   4.300   8.250
 5383POPC   C3A28685  44.651   4.357   7.950
 5383POPC   C4A28686  44.687   4.281   7.650
 5383POPC   C1B28687  44.506   4.465   8.550
 5383POPC   C2B28688  44.429   4.481   8.250
 5383POPC   C3B28689  44.433   4.448   7.950
 5383POPC   C4B28690  44.427   4.476   7.650
 5384POPC   NC328691  40.825  19.793   9.450
 5384POPC   PO428692  40.746  19.847   9.150
 5384POPC   GL128693  40.794  19.840   8.850
 5384POPC   GL228694  40.700  19.692   8.850
 5384POPC   C1A28695  40.801  19.870   8.550
 5384POPC   D2A28696  40.737  19.817   8.250
 5384POPC   C3A28697  40.806  19.797   7.950
 5384POPC   C4A28698  40.802  19.796   7.650
 5384POPC   C1B28699  40.713  19.605   8.550
 5384POPC   C2B28700  40.710  19.590   8.250
 5384POPC   C3B28701  40.678  19.578   7.950
 5384POPC   C4B28702  40.705  19.619   7.650
 5385POPC   NC328703  29.954  19.073   9.450
 5385POPC   PO428704  29.940  19.031   9.150
 5385POPC   GL128705  29.913  19.098   8.850
 5385POPC   GL228706  29.870  18.905   8.850
 5385POPC   C1A28707  29.947  19.015   8.550
 5385POPC   D2A28708  29.902  19.015   8.250
 5385POPC   C3A28709  29.895  19.010   7.950
 5385POPC   C4A28710  29.897  19.085   7.650
 5385POPC   C1B28711  29.814  18.854   8.550
 5385POPC   C2B28712  29.825  18.780   8.250
 5385POPC   C3B28713  29.869  18.797   7.950
 5385POPC   C4B28714  29.851  18.807   7.650
 5386POPC   NC328715  34.582  32.239   9.450
 5386POPC   PO428716  34.543  32.297   9.150
 5386POPC   GL128717  34.533  32.228   8.850
 5386POPC   GL228718  34.516  32.097   8.850
 5386POPC   C1A28719  34.608  32.202   8.550
 5386POPC   D2A28720  34.568  32.282   8.250
 5386POPC   C3A28721  34.534  32.237   7.950
 5386POPC   C4A28722  34.552  32.249   7.650
 5386POPC   C1B28723  34.478  31.992   8.550
 5386POPC   C2B28724  34.511  32.031   8.250
 5386POPC   C3B28725  34.477  31.986   7.950
 5386POPC   C4B28726  34.459  32.051   7.650
 5387POPC   NC328727   8.159  19.841   9.450
 5387POPC   PO428728   8.195  19.798   9.150
 5387POPC   GL128729   8.219  19.857   8.850
 5387POPC   GL228730   8.113  19.787   8.850
 5387POPC   C1A28731   8.245  19.871   8.550
 5387POPC   D2A28732   8.212  19.835   8.250
 5387POPC   C3A28733   8.182  19.802   7.950
 5387POPC   C4A28734   8.155  19.865   7.650
 5387POPC   C1B28735   7.902  19.810   8.550
 5387POPC   C2B28736   7.979  19.801   8.250
 5387POPC   C3B28737   7.977  19.817   7.950
 5387POPC   C4B28738   7.925  19.758   7.650
 5388POPC   NC328739   8.188  11.288   9.450
 5388POPC   PO428740   8.169  11.270   9.150
 5388POPC   GL128741   8.194  11.285   8.850
 5388POPC   GL228742   8.078  11.239   8.850
 5388POPC   C1A28743   8.156  11.262   8.550
 5388POPC   D2A28744   8.223  11.285   8.250
 5388POPC   C3A28745   8.166  11.328   7.950
 5388POPC   C4A28746   8.180  11.287   7.650
 5388POPC   C1B28747   8.033  11.121   8.550
 5388POPC   C2B28748   8.059  11.099   8.250
 5388POPC   C3B28749   8.055  11.105   7.950
 5388POPC   C4B28750   8.029  11.088   7.650
 5389POPC   NC328751  42.316  43.094   9.450
 5389POPC   PO428752  42.344  43.089   9.150
 5389POPC   GL128753  42.314  43.062   8.850
 5389POPC   GL228754  42.422  43.145   8.850
 5389POPC   C1A28755  42.313  43.122   8.550
 5389POPC   D2A28756  42.374  43.108   8.250
 5389POPC   C3A28757  42.346  43.091   7.950
 5389POPC   C4A28758  42.306  43.082   7.650
 5389POPC   C1B28759  42.611  43.147   8.550
 5389POPC   C2B28760  42.588  43.190   8.250
 5389POPC   C3B28761  42.618  43.192   7.950
 5389POPC   C4B28762  42.575  43.173   7.650
 5390POPC   NC328763  10.476   5.091   9.450
 5390POPC   PO428764  10.492   5.124   9.150
 5390POPC   GL128765  10.562   5.142   8.850
 5390POPC   GL228766  10.411   4.989   8.850
 5390POPC   C1A28767  10.529   5.047   8.550
 5390POPC   D2A28768  10.496   5.068   8.250
 5390POPC   C3A28769  10.546   5.131   7.950
 5390POPC   C4A28770  10.571   5.055   7.650
 5390POPC   C1B28771  10.440   4.929   8.550
 5390POPC   C2B28772  10.345   4.879   8.250
 5390POPC   C3B28773  10.362   4.833   7.950
 5390POPC   C4B28774  10.441   4.921   7.650
 5391POPC   NC328775  16.684  19.095   9.450
 5391POPC   PO428776  16.752  19.042   9.150
 5391POPC   GL128777  16.774  19.024   8.850
 5391POPC   GL228778  16.728  18.933   8.850
 5391POPC   C1A28779  16.692  19.076   8.550
 5391POPC   D2A28780  16.732  19.024   8.250
 5391POPC   C3A28781  16.728  19.107   7.950
 5391POPC   C4A28782  16.695  19.083   7.650
 5391POPC   C1B28783  16.714  18.838   8.550
 5391POPC   C2B28784  16.742  18.773   8.250
 5391POPC   C3B28785  16.756  18.857   7.950
 5391POPC   C4B28786  16.735  18.835   7.650
 5392POPC   NC328787  30.701   9.726   9.450
 5392POPC   PO428788  30.662   9.730   9.150
 5392POPC   GL128789  30.649   9.790   8.850
 5392POPC   GL228790  30.744   9.653   8.850
 5392POPC   C1A28791  30.665   9.732   8.550
 5392POPC   D2A28792  30.685   9.778   8.250
 5392POPC   C3A28793  30.732   9.728   7.950
 5392POPC   C4A28794  30.664   9.792   7.650
 5392POPC   C1B28795  30.822   9.557   8.550
 5392POPC   C2B28796  30.809   9.557   8.250
 5392POPC   C3B28797  30.786   9.513   7.950
 5392POPC   C4B28798  30.803   9.549   7.650
 5393POPC   NC328799  29.932  33.020   9.450
 5393POPC   PO428800  29.928  33.048   9.150
 5393POPC   GL128801  29.931  33.052   8.850
 5393POPC   GL228802  29.891  33.127   8.850
 5393POPC   C1A28803  29.918  32.996   8.550
 5393POPC   D2A28804  29.916  33.044   8.250
 5393POPC   C3A28805  29.886  32.992   7.950
 5393POPC   C4A28806  29.939  33.071   7.650
 5393POPC   C1B28807  29.934  33.248   8.550
 5393POPC   C2B28808  29.987  33.232   8.250
 5393POPC   C3B28809  29.962  33.319   7.950
 5393POPC   C4B28810  29.950  33.305   7.650
 5394POPC   NC328811  25.295  40.761   9.450
 5394POPC   PO428812  25.281  40.753   9.150
 5394POPC   GL128813  25.310  40.760   8.850
 5394POPC   GL228814  25.357  40.645   8.850
 5394POPC   C1A28815  25.218  40.821   8.550
 5394POPC   D2A28816  25.294  40.789   8.250
 5394POPC   C3A28817  25.303  40.741   7.950
 5394POPC   C4A28818  25.269  40.737   7.650
 5394POPC   C1B28819  25.402  40.632   8.550
 5394POPC   C2B28820  25.484  40.603   8.250
 5394POPC   C3B28821  25.427  40.560   7.950
 5394POPC   C4B28822  25.418  40.573   7.650
 5395POPC   NC328823   7.464  16.683   9.450
 5395POPC   PO428824   7.438  16.779   9.150
 5395POPC   GL128825   7.431  16.781   8.850
 5395POPC   GL228826   7.389  16.864   8.850
 5395POPC   C1A28827   7.407  16.689   8.550
 5395POPC   D2A28828   7.464  16.723   8.250
 5395POPC   C3A28829   7.395  16.700   7.950
 5395POPC   C4A28830   7.462  16.742   7.650
 5395POPC   C1B28831   7.251  16.938   8.550
 5395POPC   C2B28832   7.278  16.884   8.250
 5395POPC   C3B28833   7.302  16.929   7.950
 5395POPC   C4B28834   7.268  16.963   7.650
 5396POPC   NC328835  24.452  26.842   9.450
 5396POPC   PO428836  24.530  26.791   9.150
 5396POPC   GL128837  24.494  26.861   8.850
 5396POPC   GL228838  24.508  26.652   8.850
 5396POPC   C1A28839  24.523  26.866   8.550
 5396POPC   D2A28840  24.456  26.811   8.250
 5396POPC   C3A28841  24.454  26.783   7.950
 5396POPC   C4A28842  24.536  26.814   7.650
 5396POPC   C1B28843  24.558  26.523   8.550
 5396POPC   C2B28844  24.508  26.549   8.250
 5396POPC   C3B28845  24.531  26.591   7.950
 5396POPC   C4B28846  24.516  26.615   7.650
 5397POPC   NC328847  22.142  22.180   9.450
 5397POPC   PO428848  22.135  22.186   9.150
 5397POPC   GL128849  22.135  22.179   8.850
 5397POPC   GL228850  22.265  22.031   8.850
 5397POPC   C1A28851  22.172  22.209   8.550
 5397POPC   D2A28852  22.114  22.148   8.250
 5397POPC   C3A28853  22.141  22.179   7.950
 5397POPC   C4A28854  22.147  22.116   7.650
 5397POPC   C1B28855  22.306  21.943   8.550
 5397POPC   C2B28856  22.368  21.960   8.250
 5397POPC   C3B28857  22.280  22.015   7.950
 5397POPC   C4B28858  22.324  21.960   7.650
 5398POPC   NC328859  17.533  31.476   9.450
 5398POPC   PO428860  17.539  31.434   9.150
 5398POPC   GL128861  17.502  31.507   8.850
 5398POPC   GL228862  17.464  31.535   8.850
 5398POPC   C1A28863  17.501  31.509   8.550
 5398POPC   D2A28864  17.520  31.482   8.250
 5398POPC   C3A28865  17.469  31.478   7.950
 5398POPC   C4A28866  17.497  31.461   7.650
 5398POPC   C1B28867  17.350  31.718   8.550
 5398POPC   C2B28868  17.407  31.734   8.250
 5398POPC   C3B28869  17.373  31.677   7.950
 5398POPC   C4B28870  17.407  31.683   7.650
 5399POPC   NC328871  27.572  26.774   9.450
 5399POPC   PO428872  27.596  26.865   9.150
 5399POPC   GL128873  27.569  26.790   8.850
 5399POPC   GL228874  27.509  26.881   8.850
 5399POPC   C1A28875  27.578  26.836   8.550
 5399POPC   D2A28876  27.618  26.815   8.250
 5399POPC   C3A28877  27.635  26.782   7.950
 5399POPC   C4A28878  27.576  26.792   7.650
 5399POPC   C1B28879  27.328  26.862   8.550
 5399POPC   C2B28880  27.333  26.830   8.250
 5399POPC   C3B28881  27.315  26.834   7.950
 5399POPC   C4B28882  27.354  26.852   7.650
 5400POPC   NC328883  19.074  10.527   9.450
 5400POPC   PO428884  19.030  10.546   9.150
 5400POPC   GL128885  19.058  10.519   8.850
 5400POPC   GL228886  19.163  10.560   8.850
 5400POPC   C1A28887  19.063  10.532   8.550
 5400POPC   D2A28888  19.038  10.522   8.250
 5400POPC   C3A28889  19.088  10.479   7.950
 5400POPC   C4A28890  19.021  10.574   7.650
 5400POPC   C1B28891  19.315  10.528   8.550
 5400POPC   C2B28892  19.272  10.523   8.250
 5400POPC   C3B28893  19.268  10.478   7.950
 5400POPC   C4B28894  19.332  10.544   7.650
 5401POPC   NC328895   5.050   8.926   9.450
 5401POPC   PO428896   5.129   9.019   9.150
 5401POPC   GL128897   5.137   8.970   8.850
 5401POPC   GL228898   5.168   8.900   8.850
 5401POPC   C1A28899   5.141   8.999   8.550
 5401POPC   D2A28900   5.091   8.955   8.250
 5401POPC   C3A28901   5.128   8.979   7.950
 5401POPC   C4A28902   5.061   8.989   7.650
 5401POPC   C1B28903   5.191   8.790   8.550
 5401POPC   C2B28904   5.195   8.710   8.250
 5401POPC   C3B28905   5.231   8.706   7.950
 5401POPC   C4B28906   5.203   8.721   7.650
 5402POPC   NC328907  24.525  37.721   9.450
 5402POPC   PO428908  24.497  37.716   9.150
 5402POPC   GL128909  24.476  37.697   8.850
 5402POPC   GL228910  24.446  37.575   8.850
 5402POPC   C1A28911  24.522  37.699   8.550
 5402POPC   D2A28912  24.463  37.722   8.250
 5402POPC   C3A28913  24.445  37.696   7.950
 5402POPC   C4A28914  24.474  37.652   7.650
 5402POPC   C1B28915  24.467  37.390   8.550
 5402POPC   C2B28916  24.488  37.392   8.250
 5402POPC   C3B28917  24.525  37.384   7.950
 5402POPC   C4B28918  24.474  37.396   7.650
 5403POPC   NC328919  32.213  22.985   9.450
 5403POPC   PO428920  32.213  22.913   9.150
 5403POPC   GL128921  32.281  22.895   8.850
 5403POPC   GL228922  32.367  23.030   8.850
 5403POPC   C1A28923  32.253  22.973   8.550
 5403POPC   D2A28924  32.207  22.957   8.250
 5403POPC   C3A28925  32.254  22.982   7.950
 5403POPC   C4A28926  32.268  22.980   7.650
 5403POPC   C1B28927  32.400  23.171   8.550
 5403POPC   C2B28928  32.422  23.176   8.250
 5403POPC   C3B28929  32.442  23.086   7.950
 5403POPC   C4B28930  32.383  23.094   7.650
 5404POPC   NC328931  15.992  11.312   9.450
 5404POPC   PO428932  15.975  11.300   9.150
 5404POPC   GL128933  15.937  11.317   8.850
 5404POPC   GL228934  16.003  11.434   8.850
 5404POPC   C1A28935  15.929  11.330   8.550
 5404POPC   D2A28936  15.917  11.337   8.250
 5404POPC   C3A28937  15.980  11.336   7.950
 5404POPC   C4A28938  15.993  11.297   7.650
 5404POPC   C1B28939  16.014  11.491   8.550
 5404POPC   C2B28940  16.026  11.503   8.250
 5404POPC   C3B28941  16.020  11.508   7.950
 5404POPC   C4B28942  16.042  11.561   7.650
 5405POPC   NC328943  19.802  10.481   9.450
 5405POPC   PO428944  19.820  10.519   9.150
 5405POPC   GL128945  19.847  10.568   8.850
 5405POPC   GL228946  19.959  10.509   8.850
 5405POPC   C1A28947  19.800  10.551   8.550
 5405POPC   D2A28948  19.859  10.556   8.250
 5405POPC   C3A28949  19.812  10.514   7.950
 5405POPC   C4A28950  19.843  10.565   7.650
 5405POPC   C1B28951  20.069  10.555   8.550
 5405POPC   C2B28952  20.073  10.565   8.250
 5405POPC   C3B28953  20.050  10.509   7.950
 5405POPC   C4B28954  20.098  10.559   7.650
 5406POPC   NC328955  32.291  43.087   9.450
 5406POPC   PO428956  32.212  43.120   9.150
 5406POPC   GL128957  32.254  43.073   8.850
 5406POPC   GL228958  32.312  43.259   8.850
 5406POPC   C1A28959  32.219  43.124   8.550
 5406POPC   D2A28960  32.291  43.073   8.250
 5406POPC   C3A28961  32.294  43.066   7.950
 5406POPC   C4A28962  32.254  43.060   7.650
 5406POPC   C1B28963  32.306  43.387   8.550
 5406POPC   C2B28964  32.359  43.330   8.250
 5406POPC   C3B28965  32.394  43.354   7.950
 5406POPC   C4B28966  32.353  43.362   7.650
 5407POPC   NC328967   4.333  27.611   9.450
 5407POPC   PO428968   4.288  27.640   9.150
 5407POPC   GL128969   4.279  27.562   8.850
 5407POPC   GL228970   4.336  27.477   8.850
 5407POPC   C1A28971   4.366  27.572   8.550
 5407POPC   D2A28972   4.323  27.639   8.250
 5407POPC   C3A28973   4.280  27.575   7.950
 5407POPC   C4A28974   4.282  27.576   7.650
 5407POPC   C1B28975   4.251  27.321   8.550
 5407POPC   C2B28976   4.248  27.312   8.250
 5407POPC   C3B28977   4.300  27.338   7.950
 5407POPC   C4B28978   4.262  27.399   7.650
 5408POPC   NC328979   1.186  33.837   9.450
 5408POPC   PO428980   1.168  33.835   9.150
 5408POPC   GL128981   1.169  33.844   8.850
 5408POPC   GL228982   1.184  33.645   8.850
 5408POPC   C1A28983   1.193  33.789   8.550
 5408POPC   D2A28984   1.165  33.790   8.250
 5408POPC   C3A28985   1.182  33.810   7.950
 5408POPC   C4A28986   1.253  33.754   7.650
 5408POPC   C1B28987   1.162  33.600   8.550
 5408POPC   C2B28988   1.182  33.590   8.250
 5408POPC   C3B28989   1.227  33.559   7.950
 5408POPC   C4B28990   1.243  33.598   7.650
 5409POPC   NC328991  40.027  23.680   9.450
 5409POPC   PO428992  40.032  23.730   9.150
 5409POPC   GL128993  39.963  23.672   8.850
 5409POPC   GL228994  39.951  23.844   8.850
 5409POPC   C1A28995  39.980  23.747   8.550
 5409POPC   D2A28996  39.992  23.692   8.250
 5409POPC   C3A28997  39.995  23.686   7.950
 5409POPC   C4A28998  39.981  23.744   7.650
 5409POPC   C1B28999  39.908  23.903   8.550
 5409POPC   C2B29000  39.963  23.899   8.250
 5409POPC   C3B29001  39.933  23.905   7.950
 5409POPC   C4B29002  39.932  23.919   7.650
 5410POPC   NC329003  39.992  24.464   9.450
 5410POPC   PO429004  40.032  24.506   9.150
 5410POPC   GL129005  39.998  24.459   8.850
 5410POPC   GL229006  40.083  24.425   8.850
 5410POPC   C1A29007  40.009  24.498   8.550
 5410POPC   D2A29008  39.972  24.463   8.250
 5410POPC   C3A29009  39.978  24.481   7.950
 5410POPC   C4A29010  39.997  24.469   7.650
 5410POPC   C1B29011  40.152  24.290   8.550
 5410POPC   C2B29012  40.146  24.294   8.250
 5410POPC   C3B29013  40.193  24.345   7.950
 5410POPC   C4B29014  40.218  24.340   7.650
 5411POPC   NC329015  36.126  16.742   9.450
 5411POPC   PO429016  36.125  16.754   9.150
 5411POPC   GL129017  36.091  16.715   8.850
 5411POPC   GL229018  36.100  16.874   8.850
 5411POPC   C1A29019  36.162  16.721   8.550
 5411POPC   D2A29020  36.112  16.771   8.250
 5411POPC   C3A29021  36.169  16.698   7.950
 5411POPC   C4A29022  36.140  16.700   7.650
 5411POPC   C1B29023  36.125  16.941   8.550
 5411POPC   C2B29024  36.158  16.967   8.250
 5411POPC   C3B29025  36.090  16.976   7.950
 5411POPC   C4B29026  36.128  17.026   7.650
 5412POPC   NC329027  19.837  27.572   9.450
 5412POPC   PO429028  19.807  27.577   9.150
 5412POPC   GL129029  19.859  27.573   8.850
 5412POPC   GL229030  19.963  27.542   8.850
 5412POPC   C1A29031  19.872  27.588   8.550
 5412POPC   D2A29032  19.785  27.593   8.250
 5412POPC   C3A29033  19.856  27.617   7.950
 5412POPC   C4A29034  19.809  27.607   7.650
 5412POPC   C1B29035  19.991  27.451   8.550
 5412POPC   C2B29036  20.052  27.421   8.250
 5412POPC   C3B29037  19.992  27.408   7.950
 5412POPC   C4B29038  19.986  27.362   7.650
 5413POPC   NC329039  25.285  43.138   9.450
 5413POPC   PO429040  25.285  43.062   9.150
 5413POPC   GL129041  25.226  43.062   8.850
 5413POPC   GL229042  25.372  43.024   8.850
 5413POPC   C1A29043  25.314  43.144   8.550
 5413POPC   D2A29044  25.299  43.149   8.250
 5413POPC   C3A29045  25.266  43.116   7.950
 5413POPC   C4A29046  25.216  43.113   7.650
 5413POPC   C1B29047  25.425  42.914   8.550
 5413POPC   C2B29048  25.395  42.965   8.250
 5413POPC   C3B29049  25.388  42.905   7.950
 5413POPC   C4B29050  25.455  42.930   7.650
 5414POPC   NC329051  17.555  24.518   9.450
 5414POPC   PO429052  17.519  24.514   9.150
 5414POPC   GL129053  17.506  24.526   8.850
 5414POPC   GL229054  17.663  24.496   8.850
 5414POPC   C1A29055  17.485  24.526   8.550
 5414POPC   D2A29056  17.507  24.444   8.250
 5414POPC   C3A29057  17.532  24.511   7.950
 5414POPC   C4A29058  17.513  24.536   7.650
 5414POPC   C1B29059  17.695  24.387   8.550
 5414POPC   C2B29060  17.753  24.365   8.250
 5414POPC   C3B29061  17.701  24.458   7.950
 5414POPC   C4B29062  17.778  24.431   7.650
 5415POPC   NC329063  32.261  38.479   9.450
 5415POPC   PO429064  32.227  38.486   9.150
 5415POPC   GL129065  32.286  38.456   8.850
 5415POPC   GL229066  32.289  38.348   8.850
 5415POPC   C1A29067  32.207  38.442   8.550
 5415POPC   D2A29068  32.204  38.440   8.250
 5415POPC   C3A29069  32.264  38.432   7.950
 5415POPC   C4A29070  32.283  38.471   7.650
 5415POPC   C1B29071  32.283  38.185   8.550
 5415POPC   C2B29072  32.315  38.208   8.250
 5415POPC   C3B29073  32.339  38.218   7.950
 5415POPC   C4B29074  32.344  38.187   7.650
 5416POPC   NC329075  15.223  21.435   9.450
 5416POPC   PO429076  15.220  21.386   9.150
 5416POPC   GL129077  15.146  21.350   8.850
 5416POPC   GL229078  15.016  21.392   8.850
 5416POPC   C1A29079  15.145  21.390   8.550
 5416POPC   D2A29080  15.209  21.399   8.250
 5416POPC   C3A29081  15.172  21.399   7.950
 5416POPC   C4A29082  15.197  21.341   7.650
 5416POPC   C1B29083  14.887  21.351   8.550
 5416POPC   C2B29084  14.979  21.403   8.250
 5416POPC   C3B29085  14.922  21.337   7.950
 5416POPC   C4B29086  14.937  21.367   7.650
 5417POPC   NC329087  23.721  30.724   9.450
 5417POPC   PO429088  23.727  30.738   9.150
 5417POPC   GL129089  23.689  30.716   8.850
 5417POPC   GL229090  23.596  30.613   8.850
 5417POPC   C1A29091  23.752  30.700   8.550
 5417POPC   D2A29092  23.748  30.736   8.250
 5417POPC   C3A29093  23.735  30.663   7.950
 5417POPC   C4A29094  23.744  30.721   7.650
 5417POPC   C1B29095  23.462  30.600   8.550
 5417POPC   C2B29096  23.509  30.569   8.250
 5417POPC   C3B29097  23.458  30.613   7.950
 5417POPC   C4B29098  23.440  30.554   7.650
 5418POPC   NC329099  14.376  26.771   9.450
 5418POPC   PO429100  14.399  26.817   9.150
 5418POPC   GL129101  14.447  26.771   8.850
 5418POPC   GL229102  14.312  26.895   8.850
 5418POPC   C1A29103  14.438  26.821   8.550
 5418POPC   D2A29104  14.397  26.777   8.250
 5418POPC   C3A29105  14.386  26.777   7.950
 5418POPC   C4A29106  14.389  26.817   7.650
 5418POPC   C1B29107  14.143  26.985   8.550
 5418POPC   C2B29108  14.182  26.974   8.250
 5418POPC   C3B29109  14.211  26.898   7.950
 5418POPC   C4B29110  14.179  26.957   7.650
 5419POPC   NC329111   9.017  18.275   9.450
 5419POPC   PO429112   9.001  18.330   9.150
 5419POPC   GL129113   9.011  18.285   8.850
 5419POPC   GL229114   9.074  18.437   8.850
 5419POPC   C1A29115   8.956  18.272   8.550
 5419POPC   D2A29116   8.929  18.252   8.250
 5419POPC   C3A29117   8.972  18.273   7.950
 5419POPC   C4A29118   8.950  18.312   7.650
 5419POPC   C1B29119   9.121  18.459   8.550
 5419POPC   C2B29120   9.046  18.462   8.250
 5419POPC   C3B29121   9.078  18.508   7.950
 5419POPC   C4B29122   9.109  18.466   7.650
 5420POPC   NC329123   4.318  10.569   9.450
 5420POPC   PO429124   4.359  10.516   9.150
 5420POPC   GL129125   4.340  10.485   8.850
 5420POPC   GL229126   4.268  10.605   8.850
 5420POPC   C1A29127   4.289  10.487   8.550
 5420POPC   D2A29128   4.273  10.563   8.250
 5420POPC   C3A29129   4.366  10.547   7.950
 5420POPC   C4A29130   4.315  10.548   7.650
 5420POPC   C1B29131   4.342  10.752   8.550
 5420POPC   C2B29132   4.302  10.744   8.250
 5420POPC   C3B29133   4.349  10.762   7.950
 5420POPC   C4B29134   4.333  10.738   7.650
 5421POPC   NC329135  12.901   2.025   9.450
 5421POPC   PO429136  12.836   2.031   9.150
 5421POPC   GL129137  12.880   2.002   8.850
 5421POPC   GL229138  12.774   2.007   8.850
 5421POPC   C1A29139  12.820   2.014   8.550
 5421POPC   D2A29140  12.838   1.996   8.250
 5421POPC   C3A29141  12.810   1.961   7.950
 5421POPC   C4A29142  12.891   1.955   7.650
 5421POPC   C1B29143  12.640   1.925   8.550
 5421POPC   C2B29144  12.634   1.973   8.250
 5421POPC   C3B29145  12.624   1.941   7.950
 5421POPC   C4B29146  12.570   1.917   7.650
 5422POPC   NC329147   9.709  12.072   9.450
 5422POPC   PO429148   9.763  12.075   9.150
 5422POPC   GL129149   9.739  12.107   8.850
 5422POPC   GL229150   9.838  12.030   8.850
 5422POPC   C1A29151   9.748  12.046   8.550
 5422POPC   D2A29152   9.767  12.073   8.250
 5422POPC   C3A29153   9.775  12.087   7.950
 5422POPC   C4A29154   9.750  12.070   7.650
 5422POPC   C1B29155   9.957  11.989   8.550
 5422POPC   C2B29156   9.992  12.040   8.250
 5422POPC   C3B29157   9.991  12.020   7.950
 5422POPC   C4B29158   9.978  12.025   7.650
 5423POPC   NC329159   1.238  12.841   9.450
 5423POPC   PO429160   1.223  12.820   9.150
 5423POPC   GL129161   1.241  12.894   8.850
 5423POPC   GL229162   1.284  12.784   8.850
 5423POPC   C1A29163   1.198  12.884   8.550
 5423POPC   D2A29164   1.255  12.829   8.250
 5423POPC   C3A29165   1.238  12.883   7.950
 5423POPC   C4A29166   1.181  12.879   7.650
 5423POPC   C1B29167   1.425  12.787   8.550
 5423POPC   C2B29168   1.470  12.770   8.250
 5423POPC   C3B29169   1.413  12.728   7.950
 5423POPC   C4B29170   1.405  12.694   7.650
 5424POPC   NC329171  28.406  22.153   9.450
 5424POPC   PO429172  28.364  22.204   9.150
 5424POPC   GL129173  28.378  22.193   8.850
 5424POPC   GL229174  28.214  22.184   8.850
 5424POPC   C1A29175  28.365  22.171   8.550
 5424POPC   D2A29176  28.400  22.118   8.250
 5424POPC   C3A29177  28.374  22.200   7.950
 5424POPC   C4A29178  28.394  22.155   7.650
 5424POPC   C1B29179  28.124  22.192   8.550
 5424POPC   C2B29180  28.168  22.135   8.250
 5424POPC   C3B29181  28.070  22.188   7.950
 5424POPC   C4B29182  28.123  22.188   7.650
 5425POPC   NC329183   6.691  43.120   9.450
 5425POPC   PO429184   6.606  43.122   9.150
 5425POPC   GL129185   6.649  43.091   8.850
 5425POPC   GL229186   6.782  43.146   8.850
 5425POPC   C1A29187   6.653  43.120   8.550
 5425POPC   D2A29188   6.612  43.151   8.250
 5425POPC   C3A29189   6.611  43.153   7.950
 5425POPC   C4A29190   6.643  43.149   7.650
 5425POPC   C1B29191   6.931  43.176   8.550
 5425POPC   C2B29192   6.846  43.148   8.250
 5425POPC   C3B29193   6.908  43.156   7.950
 5425POPC   C4B29194   6.883  43.107   7.650
 5426POPC   NC329195  28.384  41.555   9.450
 5426POPC   PO429196  28.389  41.514   9.150
 5426POPC   GL129197  28.376  41.565   8.850
 5426POPC   GL229198  28.484  41.623   8.850
 5426POPC   C1A29199  28.339  41.531   8.550
 5426POPC   D2A29200  28.358  41.551   8.250
 5426POPC   C3A29201  28.392  41.587   7.950
 5426POPC   C4A29202  28.379  41.525   7.650
 5426POPC   C1B29203  28.569  41.700   8.550
 5426POPC   C2B29204  28.566  41.763   8.250
 5426POPC   C3B29205  28.594  41.760   7.950
 5426POPC   C4B29206  28.580  41.672   7.650
 5427POPC   NC329207  15.985  20.645   9.450
 5427POPC   PO429208  15.940  20.592   9.150
 5427POPC   GL129209  15.942  20.633   8.850
 5427POPC   GL229210  15.948  20.462   8.850
 5427POPC   C1A29211  15.909  20.593   8.550
 5427POPC   D2A29212  15.953  20.606   8.250
 5427POPC   C3A29213  15.974  20.632   7.950
 5427POPC   C4A29214  15.932  20.571   7.650
 5427POPC   C1B29215  16.000  20.353   8.550
 5427POPC   C2B29216  15.989  20.351   8.250
 5427POPC   C3B29217  16.007  20.416   7.950
 5427POPC   C4B29218  15.968  20.353   7.650
 5428POPC   NC329219  19.018  38.501   9.450
 5428POPC   PO429220  19.027  38.405   9.150
 5428POPC   GL129221  19.022  38.502   8.850
 5428POPC   GL229222  19.101  38.351   8.850
 5428POPC   C1A29223  19.038  38.435   8.550
 5428POPC   D2A29224  19.030  38.449   8.250
 5428POPC   C3A29225  19.068  38.427   7.950
 5428POPC   C4A29226  19.095  38.409   7.650
 5428POPC   C1B29227  19.113  38.159   8.550
 5428POPC   C2B29228  19.060  38.162   8.250
 5428POPC   C3B29229  19.067  38.230   7.950
 5428POPC   C4B29230  19.074  38.191   7.650
 5429POPC   NC329231  26.037  20.623   9.450
 5429POPC   PO429232  26.057  20.622   9.150
 5429POPC   GL129233  26.020  20.569   8.850
 5429POPC   GL229234  26.197  20.598   8.850
 5429POPC   C1A29235  26.017  20.648   8.550
 5429POPC   D2A29236  26.006  20.593   8.250
 5429POPC   C3A29237  26.051  20.656   7.950
 5429POPC   C4A29238  25.997  20.576   7.650
 5429POPC   C1B29239  26.251  20.529   8.550
 5429POPC   C2B29240  26.249  20.536   8.250
 5429POPC   C3B29241  26.304  20.535   7.950
 5429POPC   C4B29242  26.235  20.483   7.650
 5430POPC   NC329243  44.637  12.077   9.450
 5430POPC   PO429244  44.665  12.053   9.150
 5430POPC   GL129245  44.671  12.028   8.850
 5430POPC   GL229246  44.553  12.137   8.850
 5430POPC   C1A29247  44.676  12.069   8.550
 5430POPC   D2A29248  44.712  12.048   8.250
 5430POPC   C3A29249  44.620  12.071   7.950
 5430POPC   C4A29250  44.687  12.033   7.650
 5430POPC   C1B29251  44.469  12.249   8.550
 5430POPC   C2B29252  44.513  12.255   8.250
 5430POPC   C3B29253  44.521  12.308   7.950
 5430POPC   C4B29254  44.532  12.239   7.650
 5431POPC   NC329255  41.560  36.906   9.450
 5431POPC   PO429256  41.570  36.916   9.150
 5431POPC   GL129257  41.601  36.883   8.850
 5431POPC   GL229258  41.485  36.901   8.850
 5431POPC   C1A29259  41.552  36.945   8.550
 5431POPC   D2A29260  41.607  36.930   8.250
 5431POPC   C3A29261  41.554  36.950   7.950
 5431POPC   C4A29262  41.541  36.916   7.650
 5431POPC   C1B29263  41.343  36.919   8.550
 5431POPC   C2B29264  41.316  37.009   8.250
 5431POPC   C3B29265  41.349  36.977   7.950
 5431POPC   C4B29266  41.313  37.007   7.650
 5432POPC   NC329267   3.506  12.813   9.450
 5432POPC   PO429268   3.590  12.823   9.150
 5432POPC   GL129269   3.556  12.831   8.850
 5432POPC   GL229270   3.640  12.828   8.850
 5432POPC   C1A29271   3.511  12.867   8.550
 5432POPC   D2A29272   3.507  12.832   8.250
 5432POPC   C3A29273   3.510  12.826   7.950
 5432POPC   C4A29274   3.571  12.838   7.650
 5432POPC   C1B29275   3.813  12.749   8.550
 5432POPC   C2B29276   3.827  12.769   8.250
 5432POPC   C3B29277   3.743  12.792   7.950
 5432POPC   C4B29278   3.795  12.817   7.650
 5433POPC   NC329279  42.326  33.835   9.450
 5433POPC   PO429280  42.333  33.804   9.150
 5433POPC   GL129281  42.315  33.802   8.850
 5433POPC   GL229282  42.448  33.884   8.850
 5433POPC   C1A29283  42.314  33.846   8.550
 5433POPC   D2A29284  42.316  33.817   8.250
 5433POPC   C3A29285  42.335  33.759   7.950
 5433POPC   C4A29286  42.320  33.765   7.650
 5433POPC   C1B29287  42.525  33.967   8.550
 5433POPC   C2B29288  42.512  33.950   8.250
 5433POPC   C3B29289  42.519  33.960   7.950
 5433POPC   C4B29290  42.584  33.959   7.650
 5434POPC   NC329291  43.884  10.542   9.450
 5434POPC   PO429292  43.888  10.555   9.150
 5434POPC   GL129293  43.930  10.564   8.850
 5434POPC   GL229294  43.968  10.601   8.850
 5434POPC   C1A29295  43.842  10.526   8.550
 5434POPC   D2A29296  43.868  10.533   8.250
 5434POPC   C3A29297  43.856  10.498   7.950
 5434POPC   C4A29298  43.842  10.520   7.650
 5434POPC   C1B29299  44.019  10.664   8.550
 5434POPC   C2B29300  44.056  10.689   8.250
 5434POPC   C3B29301  44.014  10.747   7.950
 5434POPC   C4B29302  44.027  10.696   7.650
 5435POPC   NC329303   4.332  14.427   9.450
 5435POPC   PO429304   4.316  14.430   9.150
 5435POPC   GL129305   4.321  14.378   8.850
 5435POPC   GL229306   4.160  14.351   8.850
 5435POPC   C1A29307   4.288  14.381   8.550
 5435POPC   D2A29308   4.267  14.367   8.250
 5435POPC   C3A29309   4.362  14.354   7.950
 5435POPC   C4A29310   4.335  14.418   7.650
 5435POPC   C1B29311   4.092  14.417   8.550
 5435POPC   C2B29312   4.038  14.408   8.250
 5435POPC   C3B29313   4.106  14.377   7.950
 5435POPC   C4B29314   4.062  14.349   7.650
 5436POPC   NC329315  21.398  26.075   9.450
 5436POPC   PO429316  21.411  26.053   9.150
 5436POPC   GL129317  21.431  25.997   8.850
 5436POPC   GL229318  21.240  26.015   8.850
 5436POPC   C1A29319  21.375  26.024   8.550
 5436POPC   D2A29320  21.409  26.061   8.250
 5436POPC   C3A29321  21.432  26.086   7.950
 5436POPC   C4A29322  21.367  26.042   7.650
 5436POPC   C1B29323  21.133  25.925   8.550
 5436POPC   C2B29324  21.192  25.971   8.250
 5436POPC   C3B29325  21.188  25.984   7.950
 5436POPC   C4B29326  21.194  26.008   7.650
 5437POPC   NC329327  35.392  40.028   9.450
 5437POPC   PO429328  35.344  39.996   9.150
 5437POPC   GL129329  35.339  39.979   8.850
 5437POPC   GL229330  35.263  39.912   8.850
 5437POPC   C1A29331  35.334  40.012   8.550
 5437POPC   D2A29332  35.327  40.037   8.250
 5437POPC   C3A29333  35.398  39.984   7.950
 5437POPC   C4A29334  35.378  39.961   7.650
 5437POPC   C1B29335  35.139  39.857   8.550
 5437POPC   C2B29336  35.190  39.869   8.250
 5437POPC   C3B29337  35.187  39.814   7.950
 5437POPC   C4B29338  35.168  39.814   7.650
 5438POPC   NC329339  17.479  35.375   9.450
 5438POPC   PO429340  17.502  35.363   9.150
 5438POPC   GL129341  17.529  35.357   8.850
 5438POPC   GL229342  17.357  35.287   8.850
 5438POPC   C1A29343  17.539  35.332   8.550
 5438POPC   D2A29344  17.461  35.315   8.250
 5438POPC   C3A29345  17.520  35.358   7.950
 5438POPC   C4A29346  17.464  35.374   7.650
 5438POPC   C1B29347  17.264  35.357   8.550
 5438POPC   C2B29348  17.222  35.332   8.250
 5438POPC   C3B29349  17.286  35.307   7.950
 5438POPC   C4B29350  17.250  35.281   7.650
 5439POPC   NC329351  43.913   0.389   9.450
 5439POPC   PO429352  43.862   0.392   9.150
 5439POPC   GL129353  43.865   0.456   8.850
 5439POPC   GL229354  43.740   0.408   8.850
 5439POPC   C1A29355  43.930   0.470   8.550
 5439POPC   D2A29356  43.888   0.465   8.250
 5439POPC   C3A29357  43.888   0.413   7.950
 5439POPC   C4A29358  43.889   0.454   7.650
 5439POPC   C1B29359  43.634   0.455   8.550
 5439POPC   C2B29360  43.617   0.490   8.250
 5439POPC   C3B29361  43.683   0.457   7.950
 5439POPC   C4B29362  43.645   0.442   7.650
 5440POPC   NC329363   5.104  34.559   9.450
 5440POPC   PO429364   5.121  34.603   9.150
 5440POPC   GL129365   5.091  34.583   8.850
 5440POPC   GL229366   5.107  34.424   8.850
 5440POPC   C1A29367   5.061  34.588   8.550
 5440POPC   D2A29368   5.062  34.539   8.250
 5440POPC   C3A29369   5.044  34.593   7.950
 5440POPC   C4A29370   5.133  34.584   7.650
 5440POPC   C1B29371   5.189  34.374   8.550
 5440POPC   C2B29372   5.141  34.388   8.250
 5440POPC   C3B29373   5.186  34.379   7.950
 5440POPC   C4B29374   5.171  34.353   7.650
 5441POPC   NC329375   6.662  22.940   9.450
 5441POPC   PO429376   6.606  22.929   9.150
 5441POPC   GL129377   6.670  22.971   8.850
 5441POPC   GL229378   6.656  22.828   8.850
 5441POPC   C1A29379   6.664  22.913   8.550
 5441POPC   D2A29380   6.666  22.980   8.250
 5441POPC   C3A29381   6.640  22.915   7.950
 5441POPC   C4A29382   6.660  22.934   7.650
 5441POPC   C1B29383   6.690  22.739   8.550
 5441POPC   C2B29384   6.661  22.671   8.250
 5441POPC   C3B29385   6.747  22.666   7.950
 5441POPC   C4B29386   6.702  22.667   7.650
 5442POPC   NC329387   5.129  18.244   9.450
 5442POPC   PO429388   5.066  18.305   9.150
 5442POPC   GL129389   5.064  18.239   8.850
 5442POPC   GL229390   4.950  18.289   8.850
 5442POPC   C1A29391   5.128  18.247   8.550
 5442POPC   D2A29392   5.070  18.250   8.250
 5442POPC   C3A29393   5.081  18.309   7.950
 5442POPC   C4A29394   5.136  18.268   7.650
 5442POPC   C1B29395   4.852  18.263   8.550
 5442POPC   C2B29396   4.858  18.243   8.250
 5442POPC   C3B29397   4.847  18.293   7.950
 5442POPC   C4B29398   4.819  18.244   7.650
 5443POPC   NC329399  22.900  27.571   9.450
 5443POPC   PO429400  22.956  27.585   9.150
 5443POPC   GL129401  22.952  27.563   8.850
 5443POPC   GL229402  23.004  27.511   8.850
 5443POPC   C1A29403  22.916  27.563   8.550
 5443POPC   D2A29404  22.900  27.630   8.250
 5443POPC   C3A29405  22.954  27.581   7.950
 5443POPC   C4A29406  22.902  27.639   7.650
 5443POPC   C1B29407  23.106  27.383   8.550
 5443POPC   C2B29408  23.065  27.361   8.250
 5443POPC   C3B29409  23.131  27.442   7.950
 5443POPC   C4B29410  23.147  27.363   7.650
 5444POPC   NC329411  41.514  17.500   9.450
 5444POPC   PO429412  41.547  17.507   9.150
 5444POPC   GL129413  41.526  17.532   8.850
 5444POPC   GL229414  41.589  17.350   8.850
 5444POPC   C1A29415  41.525  17.490   8.550
 5444POPC   D2A29416  41.538  17.555   8.250
 5444POPC   C3A29417  41.512  17.493   7.950
 5444POPC   C4A29418  41.607  17.547   7.650
 5444POPC   C1B29419  41.689  17.297   8.550
 5444POPC   C2B29420  41.603  17.267   8.250
 5444POPC   C3B29421  41.643  17.242   7.950
 5444POPC   C4B29422  41.616  17.284   7.650
 5445POPC   NC329423  21.420   9.779   9.450
 5445POPC   PO429424  21.342   9.710   9.150
 5445POPC   GL129425  21.377   9.767   8.850
 5445POPC   GL229426  21.479   9.789   8.850
 5445POPC   C1A29427  21.373   9.736   8.550
 5445POPC   D2A29428  21.379   9.723   8.250
 5445POPC   C3A29429  21.337   9.785   7.950
 5445POPC   C4A29430  21.433   9.740   7.650
 5445POPC   C1B29431  21.561   9.934   8.550
 5445POPC   C2B29432  21.600   9.847   8.250
 5445POPC   C3B29433  21.601   9.940   7.950
 5445POPC   C4B29434  21.556   9.910   7.650
 5446POPC   NC329435   0.392   9.725   9.450
 5446POPC   PO429436   0.456   9.720   9.150
 5446POPC   GL129437   0.440   9.786   8.850
 5446POPC   GL229438   0.455   9.893   8.850
 5446POPC   C1A29439   0.407   9.711   8.550
 5446POPC   D2A29440   0.468   9.790   8.250
 5446POPC   C3A29441   0.485   9.741   7.950
 5446POPC   C4A29442   0.403   9.699   7.650
 5446POPC   C1B29443   0.412  10.012   8.550
 5446POPC   C2B29444   0.383  10.009   8.250
 5446POPC   C3B29445   0.394  10.004   7.950
 5446POPC   C4B29446   0.420   9.990   7.650
 5447POPC   NC329447  20.571  10.546   9.450
 5447POPC   PO429448  20.647  10.492   9.150
 5447POPC   GL129449  20.615  10.519   8.850
 5447POPC   GL229450  20.650  10.377   8.850
 5447POPC   C1A29451  20.655  10.504   8.550
 5447POPC   D2A29452  20.642  10.476   8.250
 5447POPC   C3A29453  20.619  10.546   7.950
 5447POPC   C4A29454  20.618  10.517   7.650
 5447POPC   C1B29455  20.666  10.312   8.550
 5447POPC   C2B29456  20.607  10.288   8.250
 5447POPC   C3B29457  20.684  10.316   7.950
 5447POPC   C4B29458  20.644  10.309   7.650
 5448POPC   NC329459   8.157  42.345   9.450
 5448POPC   PO429460   8.158  42.355   9.150
 5448POPC   GL129461   8.184  42.359   8.850
 5448POPC   GL229462   8.042  42.415   8.850
 5448POPC   C1A29463   8.240  42.372   8.550
 5448POPC   D2A29464   8.192  42.307   8.250
 5448POPC   C3A29465   8.202  42.339   7.950
 5448POPC   C4A29466   8.209  42.350   7.650
 5448POPC   C1B29467   8.005  42.485   8.550
 5448POPC   C2B29468   8.008  42.419   8.250
 5448POPC   C3B29469   7.967  42.477   7.950
 5448POPC   C4B29470   7.985  42.444   7.650
 5449POPC   NC329471   6.687  29.923   9.450
 5449POPC   PO429472   6.676  29.932   9.150
 5449POPC   GL129473   6.676  29.924   8.850
 5449POPC   GL229474   6.656  30.029   8.850
 5449POPC   C1A29475   6.639  29.922   8.550
 5449POPC   D2A29476   6.691  29.943   8.250
 5449POPC   C3A29477   6.639  29.934   7.950
 5449POPC   C4A29478   6.617  29.916   7.650
 5449POPC   C1B29479   6.753  30.157   8.550
 5449POPC   C2B29480   6.667  30.165   8.250
 5449POPC   C3B29481   6.691  30.178   7.950
 5449POPC   C4B29482   6.702  30.152   7.650
 5450POPC   NC329483   4.329  13.614   9.450
 5450POPC   PO429484   4.357  13.606   9.150
 5450POPC   GL129485   4.347  13.594   8.850
 5450POPC   GL229486   4.424  13.495   8.850
 5450POPC   C1A29487   4.333  13.635   8.550
 5450POPC   D2A29488   4.294  13.653   8.250
 5450POPC   C3A29489   4.329  13.613   7.950
 5450POPC   C4A29490   4.332  13.619   7.650
 5450POPC   C1B29491   4.512  13.455   8.550
 5450POPC   C2B29492   4.507  13.488   8.250
 5450POPC   C3B29493   4.457  13.469   7.950
 5450POPC   C4B29494   4.473  13.406   7.650
 5451POPC   NC329495  26.055   6.610   9.450
 5451POPC   PO429496  26.025   6.660   9.150
 5451POPC   GL129497  26.006   6.661   8.850
 5451POPC   GL229498  26.137   6.769   8.850
 5451POPC   C1A29499  26.043   6.605   8.550
 5451POPC   D2A29500  26.003   6.646   8.250
 5451POPC   C3A29501  26.072   6.687   7.950
 5451POPC   C4A29502  26.014   6.622   7.650
 5451POPC   C1B29503  26.209   6.832   8.550
 5451POPC   C2B29504  26.136   6.865   8.250
 5451POPC   C3B29505  26.147   6.845   7.950
 5451POPC   C4B29506  26.145   6.862   7.650
 5452POPC   NC329507  40.053  19.853   9.450
 5452POPC   PO429508  40.044  19.858   9.150
 5452POPC   GL129509  39.982  19.872   8.850
 5452POPC   GL229510  39.995  19.945   8.850
 5452POPC   C1A29511  39.967  19.872   8.550
 5452POPC   D2A29512  40.035  19.807   8.250
 5452POPC   C3A29513  40.029  19.795   7.950
 5452POPC   C4A29514  39.987  19.793   7.650
 5452POPC   C1B29515  39.944  20.063   8.550
 5452POPC   C2B29516  39.932  20.058   8.250
 5452POPC   C3B29517  39.974  20.117   7.950
 5452POPC   C4B29518  39.967  20.060   7.650
 5453POPC   NC329519  33.070  32.980   9.450
 5453POPC   PO429520  32.986  33.012   9.150
 5453POPC   GL129521  32.993  33.029   8.850
 5453POPC   GL229522  33.169  33.057   8.850
 5453POPC   C1A29523  32.987  33.041   8.550
 5453POPC   D2A29524  33.042  33.058   8.250
 5453POPC   C3A29525  33.029  33.022   7.950
 5453POPC   C4A29526  33.073  33.064   7.650
 5453POPC   C1B29527  33.277  33.103   8.550
 5453POPC   C2B29528  33.207  33.117   8.250
 5453POPC   C3B29529  33.243  33.140   7.950
 5453POPC   C4B29530  33.211  33.147   7.650
 5454POPC   NC329531  36.866   1.238   9.450
 5454POPC   PO429532  36.877   1.212   9.150
 5454POPC   GL129533  36.893   1.224   8.850
 5454POPC   GL229534  36.898   1.051   8.850
 5454POPC   C1A29535  36.902   1.178   8.550
 5454POPC   D2A29536  36.939   1.175   8.250
 5454POPC   C3A29537  36.881   1.175   7.950
 5454POPC   C4A29538  36.903   1.211   7.650
 5454POPC   C1B29539  36.936   0.939   8.550
 5454POPC   C2B29540  36.879   0.918   8.250
 5454POPC   C3B29541  36.947   1.010   7.950
 5454POPC   C4B29542  36.880   1.014   7.650
 5455POPC   NC329543   8.925  16.693   9.450
 5455POPC   PO429544   8.988  16.775   9.150
 5455POPC   GL129545   8.927  16.715   8.850
 5455POPC   GL229546   9.063  16.766   8.850
 5455POPC   C1A29547   8.975  16.696   8.550
 5455POPC   D2A29548   8.938  16.737   8.250
 5455POPC   C3A29549   8.926  16.765   7.950
 5455POPC   C4A29550   9.007  16.706   7.650
 5455POPC   C1B29551   9.209  16.775   8.550
 5455POPC   C2B29552   9.201  16.700   8.250
 5455POPC   C3B29553   9.239  16.730   7.950
 5455POPC   C4B29554   9.269  16.759   7.650
 5456POPC   NC329555  23.710   8.198   9.450
 5456POPC   PO429556  23.748   8.226   9.150
 5456POPC   GL129557  23.702   8.166   8.850
 5456POPC   GL229558  23.664   8.334   8.850
 5456POPC   C1A29559  23.686   8.189   8.550
 5456POPC   D2A29560  23.691   8.172   8.250
 5456POPC   C3A29561  23.729   8.180   7.950
 5456POPC   C4A29562  23.733   8.185   7.650
 5456POPC   C1B29563  23.695   8.426   8.550
 5456POPC   C2B29564  23.709   8.414   8.250
 5456POPC   C3B29565  23.656   8.411   7.950
 5456POPC   C4B29566  23.653   8.455   7.650
 5457POPC   NC329567   8.952  30.713   9.450
 5457POPC   PO429568   8.937  30.742   9.150
 5457POPC   GL129569   8.995  30.682   8.850
 5457POPC   GL229570   8.975  30.784   8.850
 5457POPC   C1A29571   8.940  30.702   8.550
 5457POPC   D2A29572   8.985  30.735   8.250
 5457POPC   C3A29573   9.008  30.689   7.950
 5457POPC   C4A29574   8.973  30.686   7.650
 5457POPC   C1B29575   8.971  30.953   8.550
 5457POPC   C2B29576   9.048  30.900   8.250
 5457POPC   C3B29577   9.064  30.987   7.950
 5457POPC   C4B29578   9.065  30.948   7.650
 5458POPC   NC329579  42.381  11.274   9.450
 5458POPC   PO429580  42.376  11.278   9.150
 5458POPC   GL129581  42.329  11.346   8.850
 5458POPC   GL229582  42.334  11.202   8.850
 5458POPC   C1A29583  42.316  11.275   8.550
 5458POPC   D2A29584  42.316  11.304   8.250
 5458POPC   C3A29585  42.377  11.267   7.950
 5458POPC   C4A29586  42.329  11.279   7.650
 5458POPC   C1B29587  42.277  11.101   8.550
 5458POPC   C2B29588  42.300  11.069   8.250
 5458POPC   C3B29589  42.300  11.067   7.950
 5458POPC   C4B29590  42.309  11.106   7.650
 5459POPC   NC329591  27.633  28.364   9.450
 5459POPC   PO429592  27.544  28.394   9.150
 5459POPC   GL129593  27.562  28.339   8.850
 5459POPC   GL229594  27.469  28.456   8.850
 5459POPC   C1A29595  27.569  28.357   8.550
 5459POPC   D2A29596  27.579  28.381   8.250
 5459POPC   C3A29597  27.603  28.385   7.950
 5459POPC   C4A29598  27.576  28.329   7.650
 5459POPC   C1B29599  27.338  28.526   8.550
 5459POPC   C2B29600  27.390  28.458   8.250
 5459POPC   C3B29601  27.379  28.497   7.950
 5459POPC   C4B29602  27.356  28.496   7.650
 5460POPC   NC329603   8.978  40.033   9.450
 5460POPC   PO429604   8.930  40.038   9.150
 5460POPC   GL129605   8.974  39.990   8.850
 5460POPC   GL229606   8.818  40.074   8.850
 5460POPC   C1A29607   8.963  40.047   8.550
 5460POPC   D2A29608   8.974  40.034   8.250
 5460POPC   C3A29609   9.010  39.990   7.950
 5460POPC   C4A29610   8.928  39.988   7.650
 5460POPC   C1B29611   8.752  40.112   8.550
 5460POPC   C2B29612   8.708  40.109   8.250
 5460POPC   C3B29613   8.712  40.102   7.950
 5460POPC   C4B29614   8.779  40.103   7.650
 5461POPC   NC329615  22.197  33.792   9.450
 5461POPC   PO429616  22.125  33.849   9.150
 5461POPC   GL129617  22.177  33.833   8.850
 5461POPC   GL229618  22.096  33.736   8.850
 5461POPC   C1A29619  22.195  33.788   8.550
 5461POPC   D2A29620  22.170  33.820   8.250
 5461POPC   C3A29621  22.178  33.819   7.950
 5461POPC   C4A29622  22.134  33.753   7.650
 5461POPC   C1B29623  21.921  33.696   8.550
 5461POPC   C2B29624  21.915  33.731   8.250
 5461POPC   C3B29625  21.918  33.712   7.950
 5461POPC   C4B29626  21.978  33.638   7.650
 5462POPC   NC329627  22.969  34.532   9.450
 5462POPC   PO429628  22.986  34.541   9.150
 5462POPC   GL129629  22.972  34.553   8.850
 5462POPC   GL229630  22.820  34.595   8.850
 5462POPC   C1A29631  22.906  34.593   8.550
 5462POPC   D2A29632  22.934  34.617   8.250
 5462POPC   C3A29633  22.915  34.584   7.950
 5462POPC   C4A29634  22.986  34.565   7.650
 5462POPC   C1B29635  22.718  34.526   8.550
 5462POPC   C2B29636  22.713  34.550   8.250
 5462POPC   C3B29637  22.722  34.551   7.950
 5462POPC   C4B29638  22.731  34.489   7.650
 5463POPC   NC329639  39.236  38.449   9.450
 5463POPC   PO429640  39.222  38.450   9.150
 5463POPC   GL129641  39.249  38.434   8.850
 5463POPC   GL229642  39.192  38.339   8.850
 5463POPC   C1A29643  39.248  38.451   8.550
 5463POPC   D2A29644  39.237  38.440   8.250
 5463POPC   C3A29645  39.226  38.435   7.950
 5463POPC   C4A29646  39.220  38.432   7.650
 5463POPC   C1B29647  39.154  38.177   8.550
 5463POPC   C2B29648  39.232  38.183   8.250
 5463POPC   C3B29649  39.204  38.248   7.950
 5463POPC   C4B29650  39.214  38.206   7.650
 5464POPC   NC329651   7.387   7.424   9.450
 5464POPC   PO429652   7.393   7.393   9.150
 5464POPC   GL129653   7.421   7.379   8.850
 5464POPC   GL229654   7.501   7.487   8.850
 5464POPC   C1A29655   7.454   7.401   8.550
 5464POPC   D2A29656   7.390   7.417   8.250
 5464POPC   C3A29657   7.428   7.430   7.950
 5464POPC   C4A29658   7.382   7.384   7.650
 5464POPC   C1B29659   7.558   7.596   8.550
 5464POPC   C2B29660   7.614   7.655   8.250
 5464POPC   C3B29661   7.542   7.657   7.950
 5464POPC   C4B29662   7.534   7.615   7.650
 5465POPC   NC329663  20.608  25.994   9.450
 5465POPC   PO429664  20.599  26.068   9.150
 5465POPC   GL129665  20.658  26.068   8.850
 5465POPC   GL229666  20.443  25.993   8.850
 5465POPC   C1A29667  20.625  26.085   8.550
 5465POPC   D2A29668  20.606  25.992   8.250
 5465POPC   C3A29669  20.619  26.025   7.950
 5465POPC   C4A29670  20.588  26.002   7.650
 5465POPC   C1B29671  20.414  25.933   8.550
 5465POPC   C2B29672  20.342  25.942   8.250
 5465POPC   C3B29673  20.340  25.916   7.950
 5465POPC   C4B29674  20.400  25.973   7.650
 5466POPC   NC329675  24.533  24.490   9.450
 5466POPC   PO429676  24.477  24.526   9.150
 5466POPC   GL129677  24.452  24.526   8.850
 5466POPC   GL229678  24.613  24.421   8.850
 5466POPC   C1A29679  24.518  24.501   8.550
 5466POPC   D2A29680  24.536  24.537   8.250
 5466POPC   C3A29681  24.510  24.499   7.950
 5466POPC   C4A29682  24.472  24.539   7.650
 5466POPC   C1B29683  24.648  24.356   8.550
 5466POPC   C2B29684  24.640  24.286   8.250
 5466POPC   C3B29685  24.664  24.316   7.950
 5466POPC   C4B29686  24.678  24.270   7.650
 5467POPC   NC329687  11.286  43.868   9.450
 5467POPC   PO429688  11.308  43.901   9.150
 5467POPC   GL129689  11.288  43.887   8.850
 5467POPC   GL229690  11.219  43.827   8.850
 5467POPC   C1A29691  11.327  43.838   8.550
 5467POPC   D2A29692  11.290  43.897   8.250
 5467POPC   C3A29693  11.291  43.873   7.950
 5467POPC   C4A29694  11.334  43.860   7.650
 5467POPC   C1B29695  11.003  43.905   8.550
 5467POPC   C2B29696  11.040  43.826   8.250
 5467POPC   C3B29697  11.014  43.832   7.950
 5467POPC   C4B29698  11.033  43.880   7.650
 5468POPC   NC329699  24.494  29.194   9.450
 5468POPC   PO429700  24.469  29.104   9.150
 5468POPC   GL129701  24.529  29.102   8.850
 5468POPC   GL229702  24.600  29.081   8.850
 5468POPC   C1A29703  24.455  29.189   8.550
 5468POPC   D2A29704  24.496  29.165   8.250
 5468POPC   C3A29705  24.443  29.126   7.950
 5468POPC   C4A29706  24.470  29.105   7.650
 5468POPC   C1B29707  24.633  28.977   8.550
 5468POPC   C2B29708  24.655  28.975   8.250
 5468POPC   C3B29709  24.665  28.946   7.950
 5468POPC   C4B29710  24.653  28.955   7.650
 5469POPC   NC329711  17.551  38.440   9.450
 5469POPC   PO429712  17.530  38.495   9.150
 5469POPC   GL129713  17.544  38.492   8.850
 5469POPC   GL229714  17.680  38.432   8.850
 5469POPC   C1A29715  17.461  38.438   8.550
 5469POPC   D2A29716  17.522  38.425   8.250
 5469POPC   C3A29717  17.555  38.468   7.950
 5469POPC   C4A29718  17.492  38.420   7.650
 5469POPC   C1B29719  17.802  38.493   8.550
 5469POPC   C2B29720  17.787  38.504   8.250
 5469POPC   C3B29721  17.800  38.477   7.950
 5469POPC   C4B29722  17.790  38.445   7.650
 5470POPC   NC329723  33.007  16.752   9.450
 5470POPC   PO429724  32.994  16.730   9.150
 5470POPC   GL129725  32.994  16.692   8.850
 5470POPC   GL229726  32.876  16.723   8.850
 5470POPC   C1A29727  32.997  16.769   8.550
 5470POPC   D2A29728  32.992  16.774   8.250
 5470POPC   C3A29729  33.029  16.692   7.950
 5470POPC   C4A29730  33.062  16.722   7.650
 5470POPC   C1B29731  32.772  16.736   8.550
 5470POPC   C2B29732  32.812  16.741   8.250
 5470POPC   C3B29733  32.808  16.770   7.950
 5470POPC   C4B29734  32.814  16.738   7.650
 5471POPC   NC329735  11.284   5.138   9.450
 5471POPC   PO429736  11.349   5.127   9.150
 5471POPC   GL129737  11.299   5.053   8.850
 5471POPC   GL229738  11.396   5.072   8.850
 5471POPC   C1A29739  11.300   5.078   8.550
 5471POPC   D2A29740  11.321   5.129   8.250
 5471POPC   C3A29741  11.283   5.099   7.950
 5471POPC   C4A29742  11.283   5.097   7.650
 5471POPC   C1B29743  11.509   5.035   8.550
 5471POPC   C2B29744  11.578   4.979   8.250
 5471POPC   C3B29745  11.521   5.017   7.950
 5471POPC   C4B29746  11.498   5.022   7.650
 5472POPC   NC329747  24.469   7.420   9.450
 5472POPC   PO429748  24.466   7.404   9.150
 5472POPC   GL129749  24.501   7.373   8.850
 5472POPC   GL229750  24.524   7.258   8.850
 5472POPC   C1A29751  24.458   7.466   8.550
 5472POPC   D2A29752  24.531   7.443   8.250
 5472POPC   C3A29753  24.531   7.408   7.950
 5472POPC   C4A29754  24.452   7.455   7.650
 5472POPC   C1B29755  24.476   7.148   8.550
 5472POPC   C2B29756  24.486   7.126   8.250
 5472POPC   C3B29757  24.433   7.168   7.950
 5472POPC   C4B29758  24.461   7.157   7.650
 5473POPC   NC329759  28.358  11.278   9.450
 5473POPC   PO429760  28.340  11.342   9.150
 5473POPC   GL129761  28.324  11.260   8.850
 5473POPC   GL229762  28.307  11.399   8.850
 5473POPC   C1A29763  28.348  11.350   8.550
 5473POPC   D2A29764  28.368  11.266   8.250
 5473POPC   C3A29765  28.329  11.311   7.950
 5473POPC   C4A29766  28.368  11.262   7.650
 5473POPC   C1B29767  28.270  11.506   8.550
 5473POPC   C2B29768  28.288  11.518   8.250
 5473POPC   C3B29769  28.292  11.487   7.950
 5473POPC   C4B29770  28.231  11.559   7.650
 5474POPC   NC329771  31.460  18.242   9.450
 5474POPC   PO429772  31.518  18.321   9.150
 5474POPC   GL129773  31.423  18.288   8.850
 5474POPC   GL229774  31.580  18.238   8.850
 5474POPC   C1A29775  31.443  18.311   8.550
 5474POPC   D2A29776  31.491  18.250   8.250
 5474POPC   C3A29777  31.449  18.261   7.950
 5474POPC   C4A29778  31.457  18.264   7.650
 5474POPC   C1B29779  31.733  18.191   8.550
 5474POPC   C2B29780  31.696  18.141   8.250
 5474POPC   C3B29781  31.725  18.124   7.950
 5474POPC   C4B29782  31.655  18.138   7.650
 5475POPC   NC329783  26.032  38.416   9.450
 5475POPC   PO429784  26.067  38.463   9.150
 5475POPC   GL129785  26.083  38.503   8.850
 5475POPC   GL229786  26.097  38.353   8.850
 5475POPC   C1A29787  26.074  38.474   8.550
 5475POPC   D2A29788  26.083  38.425   8.250
 5475POPC   C3A29789  26.022  38.442   7.950
 5475POPC   C4A29790  26.049  38.455   7.650
 5475POPC   C1B29791  26.223  38.243   8.550
 5475POPC   C2B29792  26.211  38.253   8.250
 5475POPC   C3B29793  26.175  38.237   7.950
 5475POPC   C4B29794  26.203  38.248   7.650
 5476POPC   NC329795   1.166  15.178   9.450
 5476POPC   PO429796   1.248  15.165   9.150
 5476POPC   GL129797   1.219  15.171   8.850
 5476POPC   GL229798   1.375  15.186   8.850
 5476POPC   C1A29799   1.175  15.218   8.550
 5476POPC   D2A29800   1.215  15.202   8.250
 5476POPC   C3A29801   1.167  15.138   7.950
 5476POPC   C4A29802   1.237  15.184   7.650
 5476POPC   C1B29803   1.449  15.107   8.550
 5476POPC   C2B29804   1.457  15.109   8.250
 5476POPC   C3B29805   1.497  15.105   7.950
 5476POPC   C4B29806   1.416  15.161   7.650
 5477POPC   NC329807   1.945  19.025   9.450
 5477POPC   PO429808   2.001  19.082   9.150
 5477POPC   GL129809   2.015  19.019   8.850
 5477POPC   GL229810   2.064  18.901   8.850
 5477POPC   C1A29811   1.946  19.091   8.550
 5477POPC   D2A29812   2.020  19.050   8.250
 5477POPC   C3A29813   2.023  19.032   7.950
 5477POPC   C4A29814   1.977  19.047   7.650
 5477POPC   C1B29815   2.105  18.870   8.550
 5477POPC   C2B29816   2.126  18.805   8.250
 5477POPC   C3B29817   2.115  18.845   7.950
 5477POPC   C4B29818   2.091  18.792   7.650
 5478POPC   NC329819   2.795  17.521   9.450
 5478POPC   PO429820   2.775  17.546   9.150
 5478POPC   GL129821   2.811  17.520   8.850
 5478POPC   GL229822   2.840  17.398   8.850
 5478POPC   C1A29823   2.717  17.554   8.550
 5478POPC   D2A29824   2.775  17.522   8.250
 5478POPC   C3A29825   2.751  17.505   7.950
 5478POPC   C4A29826   2.726  17.494   7.650
 5478POPC   C1B29827   2.983  17.343   8.550
 5478POPC   C2B29828   2.916  17.363   8.250
 5478POPC   C3B29829   2.951  17.379   7.950
 5478POPC   C4B29830   2.967  17.355   7.650
 5479POPC   NC329831  24.523  12.805   9.450
 5479POPC   PO429832  24.440  12.845   9.150
 5479POPC   GL129833  24.451  12.868   8.850
 5479POPC   GL229834  24.586  12.919   8.850
 5479POPC   C1A29835  24.535  12.829   8.550
 5479POPC   D2A29836  24.519  12.831   8.250
 5479POPC   C3A29837  24.537  12.843   7.950
 5479POPC   C4A29838  24.460  12.843   7.650
 5479POPC   C1B29839  24.569  13.066   8.550
 5479POPC   C2B29840  24.590  13.105   8.250
 5479POPC   C3B29841  24.565  13.082   7.950
 5479POPC   C4B29842  24.627  13.099   7.650
 5480POPC   NC329843  15.190  29.183   9.450
 5480POPC   PO429844  15.139  29.182   9.150
 5480POPC   GL129845  15.218  29.186   8.850
 5480POPC   GL229846  15.022  29.186   8.850
 5480POPC   C1A29847  15.146  29.123   8.550
 5480POPC   D2A29848  15.179  29.154   8.250
 5480POPC   C3A29849  15.140  29.095   7.950
 5480POPC   C4A29850  15.177  29.187   7.650
 5480POPC   C1B29851  14.948  29.218   8.550
 5480POPC   C2B29852  14.943  29.221   8.250
 5480POPC   C3B29853  14.898  29.270   7.950
 5480POPC   C4B29854  14.907  29.182   7.650
 5481POPC   NC329855   2.802  36.951   9.450
 5481POPC   PO429856   2.735  36.864   9.150
 5481POPC   GL129857   2.777  36.944   8.850
 5481POPC   GL229858   2.821  36.773   8.850
 5481POPC   C1A29859   2.813  36.946   8.550
 5481POPC   D2A29860   2.719  36.863   8.250
 5481POPC   C3A29861   2.791  36.875   7.950
 5481POPC   C4A29862   2.767  36.858   7.650
 5481POPC   C1B29863   2.918  36.709   8.550
 5481POPC   C2B29864   2.850  36.664   8.250
 5481POPC   C3B29865   2.837  36.642   7.950
 5481POPC   C4B29866   2.855  36.714   7.650
 5482POPC   NC329867   9.746  40.777   9.450
 5482POPC   PO429868   9.757  40.817   9.150
 5482POPC   GL129869   9.786  40.749   8.850
 5482POPC   GL229870   9.876  40.744   8.850
 5482POPC   C1A29871   9.778  40.831   8.550
 5482POPC   D2A29872   9.705  40.751   8.250
 5482POPC   C3A29873   9.785  40.775   7.950
 5482POPC   C4A29874   9.778  40.795   7.650
 5482POPC   C1B29875   9.981  40.750   8.550
 5482POPC   C2B29876   9.953  40.808   8.250
 5482POPC   C3B29877   9.991  40.817   7.950
 5482POPC   C4B29878   9.995  40.758   7.650
 5483POPC   NC329879  39.975   7.462   9.450
 5483POPC   PO429880  40.032   7.397   9.150
 5483POPC   GL129881  39.986   7.425   8.850
 5483POPC   GL229882  40.131   7.491   8.850
 5483POPC   C1A29883  39.966   7.398   8.550
 5483POPC   D2A29884  39.971   7.462   8.250
 5483POPC   C3A29885  40.024   7.415   7.950
 5483POPC   C4A29886  40.052   7.453   7.650
 5483POPC   C1B29887  40.221   7.529   8.550
 5483POPC   C2B29888  40.180   7.568   8.250
 5483POPC   C3B29889  40.264   7.521   7.950
 5483POPC   C4B29890  40.238   7.591   7.650
 5484POPC   NC329891  35.309  17.500   9.450
 5484POPC   PO429892  35.393  17.460   9.150
 5484POPC   GL129893  35.346  17.520   8.850
 5484POPC   GL229894  35.445  17.488   8.850
 5484POPC   C1A29895  35.349  17.554   8.550
 5484POPC   D2A29896  35.325  17.536   8.250
 5484POPC   C3A29897  35.367  17.538   7.950
 5484POPC   C4A29898  35.391  17.507   7.650
 5484POPC   C1B29899  35.561  17.367   8.550
 5484POPC   C2B29900  35.595  17.361   8.250
 5484POPC   C3B29901  35.563  17.427   7.950
 5484POPC   C4B29902  35.554  17.358   7.650
 5485POPC   NC329903  10.523  19.874   9.450
 5485POPC   PO429904  10.528  19.881   9.150
 5485POPC   GL129905  10.497  19.808   8.850
 5485POPC   GL229906  10.399  19.738   8.850
 5485POPC   C1A29907  10.533  19.802   8.550
 5485POPC   D2A29908  10.509  19.806   8.250
 5485POPC   C3A29909  10.493  19.849   7.950
 5485POPC   C4A29910  10.543  19.804   7.650
 5485POPC   C1B29911  10.306  19.776   8.550
 5485POPC   C2B29912  10.255  19.707   8.250
 5485POPC   C3B29913  10.303  19.731   7.950
 5485POPC   C4B29914  10.265  19.732   7.650
 5486POPC   NC329915  43.122  39.259   9.450
 5486POPC   PO429916  43.124  39.186   9.150
 5486POPC   GL129917  43.121  39.240   8.850
 5486POPC   GL229918  42.960  39.245   8.850
 5486POPC   C1A29919  43.157  39.194   8.550
 5486POPC   D2A29920  43.150  39.181   8.250
 5486POPC   C3A29921  43.086  39.204   7.950
 5486POPC   C4A29922  43.072  39.228   7.650
 5486POPC   C1B29923  42.882  39.343   8.550
 5486POPC   C2B29924  42.912  39.305   8.250
 5486POPC   C3B29925  42.905  39.255   7.950
 5486POPC   C4B29926  42.863  39.251   7.650
 5487POPC   NC329927  19.092  22.160   9.450
 5487POPC   PO429928  19.066  22.142   9.150
 5487POPC   GL129929  19.074  22.208   8.850
 5487POPC   GL229930  19.138  22.125   8.850
 5487POPC   C1A29931  19.044  22.188   8.550
 5487POPC   D2A29932  19.012  22.137   8.250
 5487POPC   C3A29933  19.070  22.153   7.950
 5487POPC   C4A29934  19.108  22.207   7.650
 5487POPC   C1B29935  19.259  22.143   8.550
 5487POPC   C2B29936  19.318  22.103   8.250
 5487POPC   C3B29937  19.349  22.128   7.950
 5487POPC   C4B29938  19.284  22.131   7.650
 5488POPC   NC329939  19.039  27.571   9.450
 5488POPC   PO429940  19.084  27.546   9.150
 5488POPC   GL129941  19.034  27.620   8.850
 5488POPC   GL229942  19.205  27.611   8.850
 5488POPC   C1A29943  19.059  27.637   8.550
 5488POPC   D2A29944  19.016  27.582   8.250
 5488POPC   C3A29945  19.081  27.591   7.950
 5488POPC   C4A29946  19.083  27.554   7.650
 5488POPC   C1B29947  19.290  27.636   8.550
 5488POPC   C2B29948  19.301  27.665   8.250
 5488POPC   C3B29949  19.346  27.666   7.950
 5488POPC   C4B29950  19.289  27.651   7.650
 5489POPC   NC329951   2.735   6.623   9.450
 5489POPC   PO429952   2.786   6.680   9.150
 5489POPC   GL129953   2.729   6.661   8.850
 5489POPC   GL229954   2.858   6.520   8.850
 5489POPC   C1A29955   2.803   6.670   8.550
 5489POPC   D2A29956   2.771   6.688   8.250
 5489POPC   C3A29957   2.801   6.630   7.950
 5489POPC   C4A29958   2.728   6.633   7.650
 5489POPC   C1B29959   2.962   6.460   8.550
 5489POPC   C2B29960   2.896   6.453   8.250
 5489POPC   C3B29961   2.890   6.405   7.950
 5489POPC   C4B29962   2.946   6.431   7.650
 5490POPC   NC329963  38.488   2.717   9.450
 5490POPC   PO429964  38.475   2.813   9.150
 5490POPC   GL129965  38.467   2.788   8.850
 5490POPC   GL229966  38.547   2.719   8.850
 5490POPC   C1A29967  38.411   2.808   8.550
 5490POPC   D2A29968  38.461   2.746   8.250
 5490POPC   C3A29969  38.483   2.754   7.950
 5490POPC   C4A29970  38.504   2.798   7.650
 5490POPC   C1B29971  38.745   2.794   8.550
 5490POPC   C2B29972  38.754   2.787   8.250
 5490POPC   C3B29973  38.733   2.731   7.950
 5490POPC   C4B29974  38.709   2.756   7.650
 5491POPC   NC329975  22.987  16.772   9.450
 5491POPC   PO429976  22.952  16.736   9.150
 5491POPC   GL129977  22.903  16.688   8.850
 5491POPC   GL229978  22.894  16.835   8.850
 5491POPC   C1A29979  22.951  16.748   8.550
 5491POPC   D2A29980  22.953  16.778   8.250
 5491POPC   C3A29981  22.931  16.716   7.950
 5491POPC   C4A29982  22.967  16.717   7.650
 5491POPC   C1B29983  22.748  16.886   8.550
 5491POPC   C2B29984  22.721  16.928   8.250
 5491POPC   C3B29985  22.786  16.884   7.950
 5491POPC   C4B29986  22.797  16.898   7.650
 5492POPC   NC329987  17.545   9.743   9.450
 5492POPC   PO429988  17.522   9.709   9.150
 5492POPC   GL129989  17.532   9.702   8.850
 5492POPC   GL229990  17.398   9.802   8.850
 5492POPC   C1A29991  17.533   9.726   8.550
 5492POPC   D2A29992  17.473   9.793   8.250
 5492POPC   C3A29993  17.469   9.747   7.950
 5492POPC   C4A29994  17.490   9.722   7.650
 5492POPC   C1B29995  17.315   9.912   8.550
 5492POPC   C2B29996  17.349   9.913   8.250
 5492POPC   C3B29997  17.339   9.911   7.950
 5492POPC   C4B29998  17.263   9.919   7.650
 5493POPC   NC329999  22.925  13.582   9.450
 5493POPC   PO430000  22.982  13.592   9.150
 5493POPC   GL130001  22.951  13.649   8.850
 5493POPC   GL230002  22.864  13.621   8.850
 5493POPC   C1A30003  22.972  13.654   8.550
 5493POPC   D2A30004  22.921  13.626   8.250
 5493POPC   C3A30005  22.927  13.584   7.950
 5493POPC   C4A30006  22.912  13.673   7.650
 5493POPC   C1B30007  22.683  13.518   8.550
 5493POPC   C2B30008  22.717  13.525   8.250
 5493POPC   C3B30009  22.700  13.521   7.950
 5493POPC   C4B30010  22.693  13.561   7.650
 5494POPC   NC330011  40.765  12.882   9.450
 5494POPC   PO430012  40.818  12.873   9.150
 5494POPC   GL130013  40.758  12.862   8.850
 5494POPC   GL230014  40.863  12.714   8.850
 5494POPC   C1A30015  40.765  12.825   8.550
 5494POPC   D2A30016  40.741  12.854   8.250
 5494POPC   C3A30017  40.789  12.840   7.950
 5494POPC   C4A30018  40.812  12.807   7.650
 5494POPC   C1B30019  40.882  12.687   8.550
 5494POPC   C2B30020  40.907  12.610   8.250
 5494POPC   C3B30021  40.899  12.668   7.950
 5494POPC   C4B30022  40.923  12.663   7.650
 5495POPC   NC330023  41.551  32.273   9.450
 5495POPC   PO430024  41.568  32.201   9.150
 5495POPC   GL130025  41.566  32.244   8.850
 5495POPC   GL230026  41.684  32.287   8.850
 5495POPC   C1A30027  41.589  32.282   8.550
 5495POPC   D2A30028  41.579  32.270   8.250
 5495POPC   C3A30029  41.550  32.239   7.950
 5495POPC   C4A30030  41.607  32.242   7.650
 5495POPC   C1B30031  41.780  32.361   8.550
 5495POPC   C2B30032  41.763  32.314   8.250
 5495POPC   C3B30033  41.811  32.284   7.950
 5495POPC   C4B30034  41.762  32.363   7.650
 5496POPC   NC330035  14.371  12.084   9.450
 5496POPC   PO430036  14.379  12.036   9.150
 5496POPC   GL130037  14.431  12.032   8.850
 5496POPC   GL230038  14.422  11.922   8.850
 5496POPC   C1A30039  14.391  12.044   8.550
 5496POPC   D2A30040  14.382  12.035   8.250
 5496POPC   C3A30041  14.404  12.074   7.950
 5496POPC   C4A30042  14.387  12.040   7.650
 5496POPC   C1B30043  14.457  11.837   8.550
 5496POPC   C2B30044  14.470  11.798   8.250
 5496POPC   C3B30045  14.405  11.787   7.950
 5496POPC   C4B30046  14.400  11.833   7.650
 5497POPC   NC330047  42.290   8.937   9.450
 5497POPC   PO430048  42.325   8.979   9.150
 5497POPC   GL130049  42.376   9.011   8.850
 5497POPC   GL230050  42.476   9.018   8.850
 5497POPC   C1A30051  42.368   8.933   8.550
 5497POPC   D2A30052  42.351   8.940   8.250
 5497POPC   C3A30053  42.377   8.958   7.950
 5497POPC   C4A30054  42.364   8.959   7.650
 5497POPC   C1B30055  42.489   9.108   8.550
 5497POPC   C2B30056  42.487   9.158   8.250
 5497POPC   C3B30057  42.554   9.142   7.950
 5497POPC   C4B30058  42.485   9.173   7.650
 5498POPC   NC330059   8.989  32.248   9.450
 5498POPC   PO430060   8.938  32.217   9.150
 5498POPC   GL130061   8.967  32.283   8.850
 5498POPC   GL230062   9.079  32.311   8.850
 5498POPC   C1A30063   8.992  32.286   8.550
 5498POPC   D2A30064   8.977  32.228   8.250
 5498POPC   C3A30065   8.998  32.209   7.950
 5498POPC   C4A30066   8.947  32.209   7.650
 5498POPC   C1B30067   9.155  32.352   8.550
 5498POPC   C2B30068   9.155  32.436   8.250
 5498POPC   C3B30069   9.125  32.390   7.950
 5498POPC   C4B30070   9.211  32.429   7.650
 5499POPC   NC330071  19.846   8.956   9.450
 5499POPC   PO430072  19.844   8.932   9.150
 5499POPC   GL130073  19.785   8.962   8.850
 5499POPC   GL230074  19.859   8.846   8.850
 5499POPC   C1A30075  19.817   9.012   8.550
 5499POPC   D2A30076  19.825   8.969   8.250
 5499POPC   C3A30077  19.812   8.962   7.950
 5499POPC   C4A30078  19.790   8.993   7.650
 5499POPC   C1B30079  19.880   8.747   8.550
 5499POPC   C2B30080  19.857   8.740   8.250
 5499POPC   C3B30081  19.861   8.724   7.950
 5499POPC   C4B30082  19.871   8.764   7.650
 5500POPC   NC330083   1.257  14.374   9.450
 5500POPC   PO430084   1.219  14.402   9.150
 5500POPC   GL130085   1.172  14.375   8.850
 5500POPC   GL230086   1.151  14.290   8.850
 5500POPC   C1A30087   1.215  14.404   8.550
 5500POPC   D2A30088   1.250  14.421   8.250
 5500POPC   C3A30089   1.195  14.448   7.950
 5500POPC   C4A30090   1.176  14.360   7.650
 5500POPC   C1B30091   1.127  14.130   8.550
 5500POPC   C2B30092   1.105  14.172   8.250
 5500POPC   C3B30093   1.085  14.140   7.950
 5500POPC   C4B30094   1.125  14.179   7.650
 5501POPC   NC330095  26.804   6.666   9.450
 5501POPC   PO430096  26.862   6.672   9.150
 5501POPC   GL130097  26.856   6.625   8.850
 5501POPC   GL230098  26.750   6.686   8.850
 5501POPC   C1A30099  26.777   6.688   8.550
 5501POPC   D2A30100  26.801   6.644   8.250
 5501POPC   C3A30101  26.774   6.693   7.950
 5501POPC   C4A30102  26.784   6.689   7.650
 5501POPC   C1B30103  26.621   6.817   8.550
 5501POPC   C2B30104  26.609   6.803   8.250
 5501POPC   C3B30105  26.582   6.754   7.950
 5501POPC   C4B30106  26.589   6.801   7.650
 5502POPC   NC330107  23.745  14.374   9.450
 5502POPC   PO430108  23.664  14.385   9.150
 5502POPC   GL130109  23.701  14.414   8.850
 5502POPC   GL230110  23.761  14.556   8.850
 5502POPC   C1A30111  23.686  14.423   8.550
 5502POPC   D2A30112  23.675  14.364   8.250
 5502POPC   C3A30113  23.755  14.427   7.950
 5502POPC   C4A30114  23.756  14.368   7.650
 5502POPC   C1B30115  23.703  14.607   8.550
 5502POPC   C2B30116  23.705  14.682   8.250
 5502POPC   C3B30117  23.699  14.609   7.950
 5502POPC   C4B30118  23.685  14.660   7.650
 5503POPC   NC330119   7.463  43.919   9.450
 5503POPC   PO430120   7.391  43.854   9.150
 5503POPC   GL130121   7.380  43.871   8.850
 5503POPC   GL230122   7.429  43.814   8.850
 5503POPC   C1A30123   7.431  43.883   8.550
 5503POPC   D2A30124   7.441  43.865   8.250
 5503POPC   C3A30125   7.435  43.919   7.950
 5503POPC   C4A30126   7.430  43.851   7.650
 5503POPC   C1B30127   7.481  43.627   8.550
 5503POPC   C2B30128   7.476  43.607   8.250
 5503POPC   C3B30129   7.516  43.641   7.950
 5503POPC   C4B30130   7.539  43.642   7.650
 5504POPC   NC330131  35.382  12.085   9.450
 5504POPC   PO430132  35.322  12.097   9.150
 5504POPC   GL130133  35.355  12.117   8.850
 5504POPC   GL230134  35.223  12.173   8.850
 5504POPC   C1A30135  35.380  12.030   8.550
 5504POPC   D2A30136  35.341  12.121   8.250
 5504POPC   C3A30137  35.367  12.114   7.950
 5504POPC   C4A30138  35.378  12.051   7.650
 5504POPC   C1B30139  35.181  12.183   8.550
 5504POPC   C2B30140  35.144  12.162   8.250
 5504POPC   C3B30141  35.122  12.260   7.950
 5504POPC   C4B30142  35.171  12.228   7.650
 5505POPC   NC330143   3.579  31.484   9.450
 5505POPC   PO430144   3.583  31.489   9.150
 5505POPC   GL130145   3.557  31.463   8.850
 5505POPC   GL230146   3.488  31.570   8.850
 5505POPC   C1A30147   3.578  31.449   8.550
 5505POPC   D2A30148   3.565  31.444   8.250
 5505POPC   C3A30149   3.502  31.498   7.950
 5505POPC   C4A30150   3.554  31.515   7.650
 5505POPC   C1B30151   3.394  31.645   8.550
 5505POPC   C2B30152   3.309  31.612   8.250
 5505POPC   C3B30153   3.393  31.646   7.950
 5505POPC   C4B30154   3.312  31.648   7.650
 5506POPC   NC330155  42.328  19.800   9.450
 5506POPC   PO430156  42.312  19.855   9.150
 5506POPC   GL130157  42.339  19.844   8.850
 5506POPC   GL230158  42.252  19.889   8.850
 5506POPC   C1A30159  42.355  19.809   8.550
 5506POPC   D2A30160  42.319  19.785   8.250
 5506POPC   C3A30161  42.373  19.809   7.950
 5506POPC   C4A30162  42.363  19.842   7.650
 5506POPC   C1B30163  42.130  19.907   8.550
 5506POPC   C2B30164  42.140  19.926   8.250
 5506POPC   C3B30165  42.117  19.944   7.950
 5506POPC   C4B30166  42.135  19.966   7.650
 5507POPC   NC330167  26.050  23.759   9.450
 5507POPC   PO430168  26.032  23.703   9.150
 5507POPC   GL130169  25.999  23.686   8.850
 5507POPC   GL230170  26.207  23.761   8.850
 5507POPC   C1A30171  26.051  23.678   8.550
 5507POPC   D2A30172  25.992  23.727   8.250
 5507POPC   C3A30173  26.025  23.673   7.950
 5507POPC   C4A30174  26.029  23.685   7.650
 5507POPC   C1B30175  26.287  23.794   8.550
 5507POPC   C2B30176  26.244  23.790   8.250
 5507POPC   C3B30177  26.308  23.773   7.950
 5507POPC   C4B30178  26.266  23.719   7.650
 5508POPC   NC330179  22.116  25.219   9.450
 5508POPC   PO430180  22.198  25.264   9.150
 5508POPC   GL130181  22.176  25.219   8.850
 5508POPC   GL230182  22.232  25.373   8.850
 5508POPC   C1A30183  22.203  25.297   8.550
 5508POPC   D2A30184  22.130  25.264   8.250
 5508POPC   C3A30185  22.198  25.219   7.950
 5508POPC   C4A30186  22.194  25.293   7.650
 5508POPC   C1B30187  22.252  25.518   8.550
 5508POPC   C2B30188  22.163  25.475   8.250
 5508POPC   C3B30189  22.248  25.488   7.950
 5508POPC   C4B30190  22.241  25.491   7.650
 5509POPC   NC330191  31.451  39.988   9.450
 5509POPC   PO430192  31.433  40.011   9.150
 5509POPC   GL130193  31.468  39.992   8.850
 5509POPC   GL230194  31.426  40.106   8.850
 5509POPC   C1A30195  31.500  40.035   8.550
 5509POPC   D2A30196  31.456  40.022   8.250
 5509POPC   C3A30197  31.518  40.052   7.950
 5509POPC   C4A30198  31.472  40.055   7.650
 5509POPC   C1B30199  31.344  40.263   8.550
 5509POPC   C2B30200  31.395  40.244   8.250
 5509POPC   C3B30201  31.363  40.190   7.950
 5509POPC   C4B30202  31.312  40.256   7.650
 5510POPC   NC330203  22.966  40.828   9.450
 5510POPC   PO430204  22.951  40.830   9.150
 5510POPC   GL130205  22.957  40.745   8.850
 5510POPC   GL230206  22.781  40.676   8.850
 5510POPC   C1A30207  22.927  40.743   8.550
 5510POPC   D2A30208  22.928  40.804   8.250
 5510POPC   C3A30209  22.950  40.746   7.950
 5510POPC   C4A30210  22.907  40.799   7.650
 5510POPC   C1B30211  22.697  40.626   8.550
 5510POPC   C2B30212  22.686  40.707   8.250
 5510POPC   C3B30213  22.700  40.676   7.950
 5510POPC   C4B30214  22.704  40.629   7.650
 5511POPC   NC330215  43.104  30.666   9.450
 5511POPC   PO430216  43.114  30.740   9.150
 5511POPC   GL130217  43.090  30.658   8.850
 5511POPC   GL230218  42.976  30.686   8.850
 5511POPC   C1A30219  43.131  30.714   8.550
 5511POPC   D2A30220  43.131  30.675   8.250
 5511POPC   C3A30221  43.127  30.665   7.950
 5511POPC   C4A30222  43.107  30.649   7.650
 5511POPC   C1B30223  42.882  30.648   8.550
 5511POPC   C2B30224  42.815  30.662   8.250
 5511POPC   C3B30225  42.831  30.702   7.950
 5511POPC   C4B30226  42.888  30.665   7.650
 5512POPC   NC330227  44.662  43.158   9.450
 5512POPC   PO430228  44.651  43.151   9.150
 5512POPC   GL130229  44.625  43.105   8.850
 5512POPC   GL230230  44.795  43.154   8.850
 5512POPC   C1A30231  44.693  43.131   8.550
 5512POPC   D2A30232  44.695  43.068   8.250
 5512POPC   C3A30233  44.702  43.087   7.950
 5512POPC   C4A30234  44.663  43.069   7.650
 5512POPC   C1B30235  44.877  43.278   8.550
 5512POPC   C2B30236  44.824  43.242   8.250
 5512POPC   C3B30237  44.833  43.257   7.950
 5512POPC   C4B30238  44.879  43.231   7.650
 5513POPC   NC330239  10.545  34.609   9.450
 5513POPC   PO430240  10.558  34.601   9.150
 5513POPC   GL130241  10.490  34.572   8.850
 5513POPC   GL230242  10.608  34.694   8.850
 5513POPC   C1A30243  10.484  34.585   8.550
 5513POPC   D2A30244  10.501  34.620   8.250
 5513POPC   C3A30245  10.546  34.599   7.950
 5513POPC   C4A30246  10.571  34.583   7.650
 5513POPC   C1B30247  10.752  34.718   8.550
 5513POPC   C2B30248  10.701  34.723   8.250
 5513POPC   C3B30249  10.760  34.729   7.950
 5513POPC   C4B30250  10.699  34.757   7.650
 5514POPC   NC330251  29.939  43.913   9.450
 5514POPC   PO430252  29.895  43.920   9.150
 5514POPC   GL130253  29.928  43.880   8.850
 5514POPC   GL230254  29.809  43.851   8.850
 5514POPC   C1A30255  29.928  43.879   8.550
 5514POPC   D2A30256  29.960  43.837   8.250
 5514POPC   C3A30257  29.935  43.933   7.950
 5514POPC   C4A30258  29.933  43.870   7.650
 5514POPC   C1B30259  29.637  43.896   8.550
 5514POPC   C2B30260  29.679  43.858   8.250
 5514POPC   C3B30261  29.703  43.870   7.950
 5514POPC   C4B30262  29.690  43.816   7.650
 5515POPC   NC330263  26.012  36.089   9.450
 5515POPC   PO430264  26.083  36.127   9.150
 5515POPC   GL130265  26.024  36.118   8.850
 5515POPC   GL230266  26.107  36.175   8.850
 5515POPC   C1A30267  26.023  36.162   8.550
 5515POPC   D2A30268  26.021  36.164   8.250
 5515POPC   C3A30269  26.020  36.138   7.950
 5515POPC   C4A30270  26.078  36.083   7.650
 5515POPC   C1B30271  26.238  36.306   8.550
 5515POPC   C2B30272  26.275  36.281   8.250
 5515POPC   C3B30273  26.199  36.327   7.950
 5515POPC   C4B30274  26.204  36.253   7.650
 5516POPC   NC330275   5.114   4.282   9.450
 5516POPC   PO430276   5.103   4.326   9.150
 5516POPC   GL130277   5.099   4.287   8.850
 5516POPC   GL230278   5.028   4.167   8.850
 5516POPC   C1A30279   5.062   4.338   8.550
 5516POPC   D2A30280   5.118   4.336   8.250
 5516POPC   C3A30281   5.117   4.305   7.950
 5516POPC   C4A30282   5.064   4.286   7.650
 5516POPC   C1B30283   5.022   4.121   8.550
 5516POPC   C2B30284   4.959   4.063   8.250
 5516POPC   C3B30285   4.994   4.115   7.950
 5516POPC   C4B30286   4.971   4.138   7.650
 5517POPC   NC330287  13.654  15.916   9.450
 5517POPC   PO430288  13.634  15.978   9.150
 5517POPC   GL130289  13.634  15.972   8.850
 5517POPC   GL230290  13.772  15.952   8.850
 5517POPC   C1A30291  13.626  15.911   8.550
 5517POPC   D2A30292  13.584  15.906   8.250
 5517POPC   C3A30293  13.594  15.924   7.950
 5517POPC   C4A30294  13.622  15.973   7.650
 5517POPC   C1B30295  13.821  15.935   8.550
 5517POPC   C2B30296  13.891  15.885   8.250
 5517POPC   C3B30297  13.849  15.844   7.950
 5517POPC   C4B30298  13.888  15.869   7.650
 5518POPC   NC330299   1.166  21.422   9.450
 5518POPC   PO430300   1.235  21.385   9.150
 5518POPC   GL130301   1.249  21.432   8.850
 5518POPC   GL230302   1.115  21.345   8.850
 5518POPC   C1A30303   1.174  21.422   8.550
 5518POPC   D2A30304   1.254  21.422   8.250
 5518POPC   C3A30305   1.223  21.363   7.950
 5518POPC   C4A30306   1.167  21.376   7.650
 5518POPC   C1B30307   1.004  21.361   8.550
 5518POPC   C2B30308   0.972  21.313   8.250
 5518POPC   C3B30309   0.946  21.370   7.950
 5518POPC   C4B30310   1.007  21.303   7.650
 5519POPC   NC330311  17.518  12.088   9.450
 5519POPC   PO430312  17.540  12.053   9.150
 5519POPC   GL130313  17.470  12.105   8.850
 5519POPC   GL230314  17.463  11.951   8.850
 5519POPC   C1A30315  17.475  12.046   8.550
 5519POPC   D2A30316  17.467  12.074   8.250
 5519POPC   C3A30317  17.493  12.105   7.950
 5519POPC   C4A30318  17.528  12.115   7.650
 5519POPC   C1B30319  17.343  11.936   8.550
 5519POPC   C2B30320  17.304  11.929   8.250
 5519POPC   C3B30321  17.305  11.922   7.950
 5519POPC   C4B30322  17.353  11.869   7.650
 5520POPC   NC330323  11.316  16.703   9.450
 5520POPC   PO430324  11.304  16.772   9.150
 5520POPC   GL130325  11.331  16.740   8.850
 5520POPC   GL230326  11.443  16.820   8.850
 5520POPC   C1A30327  11.273  16.742   8.550
 5520POPC   D2A30328  11.347  16.774   8.250
 5520POPC   C3A30329  11.333  16.697   7.950
 5520POPC   C4A30330  11.350  16.744   7.650
 5520POPC   C1B30331  11.524  16.861   8.550
 5520POPC   C2B30332  11.525  16.940   8.250
 5520POPC   C3B30333  11.532  16.934   7.950
 5520POPC   C4B30334  11.498  16.897   7.650
 5521POPC   NC330335  22.134  38.421   9.450
 5521POPC   PO430336  22.116  38.408   9.150
 5521POPC   GL130337  22.202  38.429   8.850
 5521POPC   GL230338  22.030  38.374   8.850
 5521POPC   C1A30339  22.208  38.490   8.550
 5521POPC   D2A30340  22.208  38.477   8.250
 5521POPC   C3A30341  22.158  38.427   7.950
 5521POPC   C4A30342  22.154  38.448   7.650
 5521POPC   C1B30343  22.024  38.296   8.550
 5521POPC   C2B30344  21.954  38.280   8.250
 5521POPC   C3B30345  21.992  38.279   7.950
 5521POPC   C4B30346  21.985  38.251   7.650
 5522POPC   NC330347  16.704  22.197   9.450
 5522POPC   PO430348  16.706  22.129   9.150
 5522POPC   GL130349  16.758  22.131   8.850
 5522POPC   GL230350  16.654  22.178   8.850
 5522POPC   C1A30351  16.700  22.133   8.550
 5522POPC   D2A30352  16.685  22.119   8.250
 5522POPC   C3A30353  16.771  22.117   7.950
 5522POPC   C4A30354  16.727  22.131   7.650
 5522POPC   C1B30355  16.466  22.240   8.550
 5522POPC   C2B30356  16.511  22.327   8.250
 5522POPC   C3B30357  16.476  22.298   7.950
 5522POPC   C4B30358  16.522  22.291   7.650
 5523POPC   NC330359  32.283  41.589   9.450
 5523POPC   PO430360  32.297  41.514   9.150
 5523POPC   GL130361  32.264  41.540   8.850
 5523POPC   GL230362  32.193  41.452   8.850
 5523POPC   C1A30363  32.286  41.604   8.550
 5523POPC   D2A30364  32.201  41.509   8.250
 5523POPC   C3A30365  32.275  41.565   7.950
 5523POPC   C4A30366  32.199  41.510   7.650
 5523POPC   C1B30367  32.026  41.448   8.550
 5523POPC   C2B30368  32.087  41.393   8.250
 5523POPC   C3B30369  32.060  41.379   7.950
 5523POPC   C4B30370  32.021  41.391   7.650
 5524POPC   NC330371  19.884  36.906   9.450
 5524POPC   PO430372  19.790  36.913   9.150
 5524POPC   GL130373  19.789  36.916   8.850
 5524POPC   GL230374  19.988  36.895   8.850
 5524POPC   C1A30375  19.825  36.946   8.550
 5524POPC   D2A30376  19.788  36.883   8.250
 5524POPC   C3A30377  19.844  36.934   7.950
 5524POPC   C4A30378  19.846  36.881   7.650
 5524POPC   C1B30379  20.034  36.867   8.550
 5524POPC   C2B30380  20.082  36.892   8.250
 5524POPC   C3B30381  20.113  36.879   7.950
 5524POPC   C4B30382  20.059  36.815   7.650
 5525POPC   NC330383  27.625  29.877   9.450
 5525POPC   PO430384  27.557  29.884   9.150
 5525POPC   GL130385  27.615  29.896   8.850
 5525POPC   GL230386  27.719  29.995   8.850
 5525POPC   C1A30387  27.618  29.924   8.550
 5525POPC   D2A30388  27.564  29.901   8.250
 5525POPC   C3A30389  27.559  29.958   7.950
 5525POPC   C4A30390  27.586  29.915   7.650
 5525POPC   C1B30391  27.872  29.975   8.550
 5525POPC   C2B30392  27.834  30.010   8.250
 5525POPC   C3B30393  27.786  30.025   7.950
 5525POPC   C4B30394  27.802  30.010   7.650
 5526POPC   NC330395  21.345  40.774   9.450
 5526POPC   PO430396  21.355  40.789   9.150
 5526POPC   GL130397  21.399  40.742   8.850
 5526POPC   GL230398  21.426  40.644   8.850
 5526POPC   C1A30399  21.362  40.753   8.550
 5526POPC   D2A30400  21.402  40.814   8.250
 5526POPC   C3A30401  21.394  40.771   7.950
 5526POPC   C4A30402  21.435  40.812   7.650
 5526POPC   C1B30403  21.460  40.501   8.550
 5526POPC   C2B30404  21.472  40.494   8.250
 5526POPC   C3B30405  21.430  40.579   7.950
 5526POPC   C4B30406  21.410  40.565   7.650
 5527POPC   NC330407  12.035  25.261   9.450
 5527POPC   PO430408  12.029  25.244   9.150
 5527POPC   GL130409  12.107  25.312   8.850
 5527POPC   GL230410  11.929  25.220   8.850
 5527POPC   C1A30411  12.065  25.274   8.550
 5527POPC   D2A30412  12.102  25.285   8.250
 5527POPC   C3A30413  12.103  25.248   7.950
 5527POPC   C4A30414  12.060  25.275   7.650
 5527POPC   C1B30415  11.791  25.219   8.550
 5527POPC   C2B30416  11.855  25.283   8.250
 5527POPC   C3B30417  11.860  25.291   7.950
 5527POPC   C4B30418  11.819  25.301   7.650
 5528POPC   NC330419  19.881  15.133   9.450
 5528POPC   PO430420  19.843  15.205   9.150
 5528POPC   GL130421  19.873  15.225   8.850
 5528POPC   GL230422  19.820  15.269   8.850
 5528POPC   C1A30423  19.838  15.221   8.550
 5528POPC   D2A30424  19.826  15.172   8.250
 5528POPC   C3A30425  19.873  15.176   7.950
 5528POPC   C4A30426  19.785  15.220   7.650
 5528POPC   C1B30427  19.705  15.417   8.550
 5528POPC   C2B30428  19.713  15.435   8.250
 5528POPC   C3B30429  19.671  15.434   7.950
 5528POPC   C4B30430  19.667  15.369   7.650
 5529POPC   NC330431  16.776  27.546   9.450
 5529POPC   PO430432  16.689  27.548   9.150
 5529POPC   GL130433  16.724  27.613   8.850
 5529POPC   GL230434  16.820  27.483   8.850
 5529POPC   C1A30435  16.691  27.559   8.550
 5529POPC   D2A30436  16.727  27.599   8.250
 5529POPC   C3A30437  16.726  27.567   7.950
 5529POPC   C4A30438  16.721  27.638   7.650
 5529POPC   C1B30439  16.915  27.413   8.550
 5529POPC   C2B30440  16.977  27.460   8.250
 5529POPC   C3B30441  16.959  27.405   7.950
 5529POPC   C4B30442  16.915  27.423   7.650
 5530POPC   NC330443   2.761   1.227   9.450
 5530POPC   PO430444   2.758   1.198   9.150
 5530POPC   GL130445   2.776   1.175   8.850
 5530POPC   GL230446   2.635   1.199   8.850
 5530POPC   C1A30447   2.743   1.184   8.550
 5530POPC   D2A30448   2.767   1.166   8.250
 5530POPC   C3A30449   2.726   1.171   7.950
 5530POPC   C4A30450   2.761   1.246   7.650
 5530POPC   C1B30451   2.525   1.094   8.550
 5530POPC   C2B30452   2.525   1.106   8.250
 5530POPC   C3B30453   2.589   1.137   7.950
 5530POPC   C4B30454   2.515   1.113   7.650
 5531POPC   NC330455  36.096   4.358   9.450
 5531POPC   PO430456  36.087   4.360   9.150
 5531POPC   GL130457  36.159   4.356   8.850
 5531POPC   GL230458  36.064   4.189   8.850
 5531POPC   C1A30459  36.094   4.293   8.550
 5531POPC   D2A30460  36.099   4.362   8.250
 5531POPC   C3A30461  36.110   4.345   7.950
 5531POPC   C4A30462  36.124   4.298   7.650
 5531POPC   C1B30463  36.067   4.066   8.550
 5531POPC   C2B30464  36.057   4.063   8.250
 5531POPC   C3B30465  36.083   4.128   7.950
 5531POPC   C4B30466  36.002   4.051   7.650
 5532POPC   NC330467  20.614   9.772   9.450
 5532POPC   PO430468  20.602   9.781   9.150
 5532POPC   GL130469  20.634   9.756   8.850
 5532POPC   GL230470  20.563   9.612   8.850
 5532POPC   C1A30471  20.587   9.772   8.550
 5532POPC   D2A30472  20.595   9.765   8.250
 5532POPC   C3A30473  20.605   9.726   7.950
 5532POPC   C4A30474  20.572   9.758   7.650
 5532POPC   C1B30475  20.487   9.528   8.550
 5532POPC   C2B30476  20.481   9.544   8.250
 5532POPC   C3B30477  20.462   9.596   7.950
 5532POPC   C4B30478  20.478   9.536   7.650
 5533POPC   NC330479  31.477   3.539   9.450
 5533POPC   PO430480  31.483   3.589   9.150
 5533POPC   GL130481  31.427   3.579   8.850
 5533POPC   GL230482  31.598   3.584   8.850
 5533POPC   C1A30483  31.467   3.506   8.550
 5533POPC   D2A30484  31.495   3.500   8.250
 5533POPC   C3A30485  31.424   3.535   7.950
 5533POPC   C4A30486  31.482   3.550   7.650
 5533POPC   C1B30487  31.677   3.665   8.550
 5533POPC   C2B30488  31.719   3.653   8.250
 5533POPC   C3B30489  31.660   3.634   7.950
 5533POPC   C4B30490  31.721   3.678   7.650
 5534POPC   NC330491   8.981  20.587   9.450
 5534POPC   PO430492   8.984  20.569   9.150
 5534POPC   GL130493   8.949  20.583   8.850
 5534POPC   GL230494   8.946  20.714   8.850
 5534POPC   C1A30495   9.007  20.621   8.550
 5534POPC   D2A30496   8.989  20.593   8.250
 5534POPC   C3A30497   8.973  20.624   7.950
 5534POPC   C4A30498   8.950  20.639   7.650
 5534POPC   C1B30499   8.968  20.872   8.550
 5534POPC   C2B30500   9.041  20.834   8.250
 5534POPC   C3B30501   9.058  20.830   7.950
 5534POPC   C4B30502   9.043  20.815   7.650
 5535POPC   NC330503  23.703  43.882   9.450
 5535POPC   PO430504  23.713  43.898   9.150
 5535POPC   GL130505  23.676  43.925   8.850
 5535POPC   GL230506  23.805  43.931   8.850
 5535POPC   C1A30507  23.703  43.899   8.550
 5535POPC   D2A30508  23.724  43.863   8.250
 5535POPC   C3A30509  23.740  43.863   7.950
 5535POPC   C4A30510  23.716  43.859   7.650
 5535POPC   C1B30511  23.934  44.080   8.550
 5535POPC   C2B30512  23.949  44.076   8.250
 5535POPC   C3B30513  23.889  44.022   7.950
 5535POPC   C4B30514  23.905  44.047   7.650
 5536POPC   NC330515  36.175   8.168   9.450
 5536POPC   PO430516  36.168   8.160   9.150
 5536POPC   GL130517  36.177   8.181   8.850
 5536POPC   GL230518  36.148   8.056   8.850
 5536POPC   C1A30519  36.130   8.163   8.550
 5536POPC   D2A30520  36.142   8.158   8.250
 5536POPC   C3A30521  36.110   8.221   7.950
 5536POPC   C4A30522  36.132   8.206   7.650
 5536POPC   C1B30523  36.161   7.957   8.550
 5536POPC   C2B30524  36.123   7.996   8.250
 5536POPC   C3B30525  36.113   7.947   7.950
 5536POPC   C4B30526  36.147   7.916   7.650
 5537POPC   NC330527  33.751  22.197   9.450
 5537POPC   PO430528  33.803  22.143   9.150
 5537POPC   GL130529  33.827  22.113   8.850
 5537POPC   GL230530  33.877  22.117   8.850
 5537POPC   C1A30531  33.825  22.153   8.550
 5537POPC   D2A30532  33.844  22.170   8.250
 5537POPC   C3A30533  33.797  22.138   7.950
 5537POPC   C4A30534  33.783  22.180   7.650
 5537POPC   C1B30535  34.093  22.142   8.550
 5537POPC   C2B30536  34.004  22.188   8.250
 5537POPC   C3B30537  34.001  22.190   7.950
 5537POPC   C4B30538  34.084  22.188   7.650
 5538POPC   NC330539  21.429  31.516   9.450
 5538POPC   PO430540  21.415  31.450   9.150
 5538POPC   GL130541  21.435  31.458   8.850
 5538POPC   GL230542  21.315  31.551   8.850
 5538POPC   C1A30543  21.388  31.489   8.550
 5538POPC   D2A30544  21.436  31.434   8.250
 5538POPC   C3A30545  21.347  31.470   7.950
 5538POPC   C4A30546  21.409  31.517   7.650
 5538POPC   C1B30547  21.350  31.739   8.550
 5538POPC   C2B30548  21.331  31.673   8.250
 5538POPC   C3B30549  21.356  31.711   7.950
 5538POPC   C4B30550  21.310  31.677   7.650
 5539POPC   NC330551  17.480  21.392   9.450
 5539POPC   PO430552  17.556  21.374   9.150
 5539POPC   GL130553  17.466  21.352   8.850
 5539POPC   GL230554  17.594  21.332   8.850
 5539POPC   C1A30555  17.475  21.433   8.550
 5539POPC   D2A30556  17.465  21.409   8.250
 5539POPC   C3A30557  17.490  21.411   7.950
 5539POPC   C4A30558  17.510  21.402   7.650
 5539POPC   C1B30559  17.681  21.188   8.550
 5539POPC   C2B30560  17.699  21.199   8.250
 5539POPC   C3B30561  17.648  21.203   7.950
 5539POPC   C4B30562  17.675  21.254   7.650
 5540POPC   NC330563  38.493  16.763   9.450
 5540POPC   PO430564  38.472  16.729   9.150
 5540POPC   GL130565  38.410  16.694   8.850
 5540POPC   GL230566  38.413  16.860   8.850
 5540POPC   C1A30567  38.495  16.728   8.550
 5540POPC   D2A30568  38.432  16.748   8.250
 5540POPC   C3A30569  38.459  16.752   7.950
 5540POPC   C4A30570  38.493  16.708   7.650
 5540POPC   C1B30571  38.362  16.900   8.550
 5540POPC   C2B30572  38.366  16.989   8.250
 5540POPC   C3B30573  38.356  16.964   7.950
 5540POPC   C4B30574  38.302  16.900   7.650
 5541POPC   NC330575  19.879  19.791   9.450
 5541POPC   PO430576  19.882  19.869   9.150
 5541POPC   GL130577  19.810  19.808   8.850
 5541POPC   GL230578  19.869  19.907   8.850
 5541POPC   C1A30579  19.827  19.871   8.550
 5541POPC   D2A30580  19.808  19.817   8.250
 5541POPC   C3A30581  19.872  19.805   7.950
 5541POPC   C4A30582  19.884  19.798   7.650
 5541POPC   C1B30583  19.923  20.086   8.550
 5541POPC   C2B30584  19.937  20.035   8.250
 5541POPC   C3B30585  19.904  20.092   7.950
 5541POPC   C4B30586  19.890  20.060   7.650
 5542POPC   NC330587  13.671  30.727   9.450
 5542POPC   PO430588  13.664  30.696   9.150
 5542POPC   GL130589  13.660  30.737   8.850
 5542POPC   GL230590  13.695  30.784   8.850
 5542POPC   C1A30591  13.665  30.732   8.550
 5542POPC   D2A30592  13.584  30.744   8.250
 5542POPC   C3A30593  13.665  30.716   7.950
 5542POPC   C4A30594  13.663  30.717   7.650
 5542POPC   C1B30595  13.765  30.869   8.550
 5542POPC   C2B30596  13.834  30.824   8.250
 5542POPC   C3B30597  13.775  30.892   7.950
 5542POPC   C4B30598  13.830  30.866   7.650
 5543POPC   NC330599  32.988  11.275   9.450
 5543POPC   PO430600  33.014  11.340   9.150
 5543POPC   GL130601  33.020  11.324   8.850
 5543POPC   GL230602  32.914  11.315   8.850
 5543POPC   C1A30603  33.012  11.311   8.550
 5543POPC   D2A30604  32.990  11.286   8.250
 5543POPC   C3A30605  33.032  11.292   7.950
 5543POPC   C4A30606  33.011  11.345   7.650
 5543POPC   C1B30607  32.821  11.399   8.550
 5543POPC   C2B30608  32.735  11.302   8.250
 5543POPC   C3B30609  32.778  11.351   7.950
 5543POPC   C4B30610  32.821  11.311   7.650
 5544POPC   NC330611   0.425  43.142   9.450
 5544POPC   PO430612   0.391  43.065   9.150
 5544POPC   GL130613   0.433  43.070   8.850
 5544POPC   GL230614   0.549  43.175   8.850
 5544POPC   C1A30615   0.408  43.132   8.550
 5544POPC   D2A30616   0.481  43.069   8.250
 5544POPC   C3A30617   0.400  43.129   7.950
 5544POPC   C4A30618   0.441  43.146   7.650
 5544POPC   C1B30619   0.707  43.136   8.550
 5544POPC   C2B30620   0.636  43.142   8.250
 5544POPC   C3B30621   0.657  43.178   7.950
 5544POPC   C4B30622   0.698  43.167   7.650
 5545POPC   NC330623  23.722  24.466   9.450
 5545POPC   PO430624  23.746  24.443   9.150
 5545POPC   GL130625  23.690  24.527   8.850
 5545POPC   GL230626  23.700  24.597   8.850
 5545POPC   C1A30627  23.706  24.527   8.550
 5545POPC   D2A30628  23.721  24.498   8.250
 5545POPC   C3A30629  23.676  24.494   7.950
 5545POPC   C4A30630  23.673  24.534   7.650
 5545POPC   C1B30631  23.702  24.747   8.550
 5545POPC   C2B30632  23.763  24.779   8.250
 5545POPC   C3B30633  23.726  24.733   7.950
 5545POPC   C4B30634  23.683  24.765   7.650
 5546POPC   NC330635  15.977  13.589   9.450
 5546POPC   PO430636  15.927  13.636   9.150
 5546POPC   GL130637  15.938  13.663   8.850
 5546POPC   GL230638  15.941  13.747   8.850
 5546POPC   C1A30639  15.964  13.614   8.550
 5546POPC   D2A30640  15.946  13.670   8.250
 5546POPC   C3A30641  15.919  13.672   7.950
 5546POPC   C4A30642  16.004  13.672   7.650
 5546POPC   C1B30643  15.899  13.880   8.550
 5546POPC   C2B30644  15.938  13.908   8.250
 5546POPC   C3B30645  15.883  13.848   7.950
 5546POPC   C4B30646  15.886  13.871   7.650
 5547POPC   NC330647  23.672  34.568   9.450
 5547POPC   PO430648  23.712  34.553   9.150
 5547POPC   GL130649  23.671  34.594   8.850
 5547POPC   GL230650  23.573  34.701   8.850
 5547POPC   C1A30651  23.725  34.585   8.550
 5547POPC   D2A30652  23.687  34.582   8.250
 5547POPC   C3A30653  23.738  34.607   7.950
 5547POPC   C4A30654  23.746  34.535   7.650
 5547POPC   C1B30655  23.543  34.776   8.550
 5547POPC   C2B30656  23.546  34.775   8.250
 5547POPC   C3B30657  23.489  34.749   7.950
 5547POPC   C4B30658  23.487  34.783   7.650
 5548POPC   NC330659  19.067  11.341   9.450
 5548POPC   PO430660  19.033  11.316   9.150
 5548POPC   GL130661  19.072  11.273   8.850
 5548POPC   GL230662  18.976  11.282   8.850
 5548POPC   C1A30663  19.102  11.250   8.550
 5548POPC   D2A30664  19.038  11.283   8.250
 5548POPC   C3A30665  19.058  11.336   7.950
 5548POPC   C4A30666  19.041  11.303   7.650
 5548POPC   C1B30667  18.775  11.219   8.550
 5548POPC   C2B30668  18.802  11.211   8.250
 5548POPC   C3B30669  18.841  11.278   7.950
 5548POPC   C4B30670  18.842  11.297   7.650
 5549POPC   NC330671  20.569  11.252   9.450
 5549POPC   PO430672  20.614  11.276   9.150
 5549POPC   GL130673  20.625  11.273   8.850
 5549POPC   GL230674  20.453  11.217   8.850
 5549POPC   C1A30675  20.589  11.317   8.550
 5549POPC   D2A30676  20.611  11.289   8.250
 5549POPC   C3A30677  20.579  11.265   7.950
 5549POPC   C4A30678  20.637  11.252   7.650
 5549POPC   C1B30679  20.432  11.195   8.550
 5549POPC   C2B30680  20.346  11.179   8.250
 5549POPC   C3B30681  20.384  11.192   7.950
 5549POPC   C4B30682  20.348  11.219   7.650
 5550POPC   NC330683   8.221  29.102   9.450
 5550POPC   PO430684   8.207  29.178   9.150
 5550POPC   GL130685   8.206  29.111   8.850
 5550POPC   GL230686   8.264  29.227   8.850
 5550POPC   C1A30687   8.156  29.156   8.550
 5550POPC   D2A30688   8.164  29.126   8.250
 5550POPC   C3A30689   8.166  29.108   7.950
 5550POPC   C4A30690   8.205  29.136   7.650
 5550POPC   C1B30691   8.236  29.422   8.550
 5550POPC   C2B30692   8.278  29.431   8.250
 5550POPC   C3B30693   8.215  29.391   7.950
 5550POPC   C4B30694   8.225  29.379   7.650
 5551POPC   NC330695   2.765  42.288   9.450
 5551POPC   PO430696   2.814  42.293   9.150
 5551POPC   GL130697   2.788  42.310   8.850
 5551POPC   GL230698   2.768  42.412   8.850
 5551POPC   C1A30699   2.739  42.349   8.550
 5551POPC   D2A30700   2.748  42.346   8.250
 5551POPC   C3A30701   2.781  42.288   7.950
 5551POPC   C4A30702   2.722  42.361   7.650
 5551POPC   C1B30703   2.717  42.578   8.550
 5551POPC   C2B30704   2.777  42.613   8.250
 5551POPC   C3B30705   2.792  42.574   7.950
 5551POPC   C4B30706   2.755  42.630   7.650
 5552POPC   NC330707   8.201   5.885   9.450
 5552POPC   PO430708   8.219   5.867   9.150
 5552POPC   GL130709   8.194   5.877   8.850
 5552POPC   GL230710   8.272   5.768   8.850
 5552POPC   C1A30711   8.175   5.887   8.550
 5552POPC   D2A30712   8.149   5.859   8.250
 5552POPC   C3A30713   8.215   5.894   7.950
 5552POPC   C4A30714   8.151   5.903   7.650
 5552POPC   C1B30715   8.364   5.686   8.550
 5552POPC   C2B30716   8.373   5.709   8.250
 5552POPC   C3B30717   8.373   5.654   7.950
 5552POPC   C4B30718   8.396   5.705   7.650
 5553POPC   NC330719  30.729   2.719   9.450
 5553POPC   PO430720  30.683   2.761   9.150
 5553POPC   GL130721  30.670   2.801   8.850
 5553POPC   GL230722  30.718   2.900   8.850
 5553POPC   C1A30723  30.669   2.720   8.550
 5553POPC   D2A30724  30.702   2.730   8.250
 5553POPC   C3A30725  30.716   2.779   7.950
 5553POPC   C4A30726  30.682   2.797   7.650
 5553POPC   C1B30727  30.698   3.025   8.550
 5553POPC   C2B30728  30.736   3.045   8.250
 5553POPC   C3B30729  30.704   3.050   7.950
 5553POPC   C4B30730  30.752   3.031   7.650
 5554POPC   NC330731  20.629  36.935   9.450
 5554POPC   PO430732  20.651  36.953   9.150
 5554POPC   GL130733  20.636  36.929   8.850
 5554POPC   GL230734  20.504  36.829   8.850
 5554POPC   C1A30735  20.618  36.899   8.550
 5554POPC   D2A30736  20.630  36.878   8.250
 5554POPC   C3A30737  20.596  36.951   7.950
 5554POPC   C4A30738  20.634  36.924   7.650
 5554POPC   C1B30739  20.397  36.792   8.550
 5554POPC   C2B30740  20.382  36.753   8.250
 5554POPC   C3B30741  20.375  36.739   7.950
 5554POPC   C4B30742  20.394  36.745   7.650
 5555POPC   NC330743   5.913  43.144   9.450
 5555POPC   PO430744   5.848  43.071   9.150
 5555POPC   GL130745   5.918  43.123   8.850
 5555POPC   GL230746   6.030  43.141   8.850
 5555POPC   C1A30747   5.901  43.076   8.550
 5555POPC   D2A30748   5.854  43.076   8.250
 5555POPC   C3A30749   5.894  43.157   7.950
 5555POPC   C4A30750   5.886  43.140   7.650
 5555POPC   C1B30751   6.126  43.131   8.550
 5555POPC   C2B30752   6.077  43.075   8.250
 5555POPC   C3B30753   6.104  43.141   7.950
 5555POPC   C4B30754   6.132  43.142   7.650
 5556POPC   NC330755  22.119  18.274   9.450
 5556POPC   PO430756  22.156  18.315   9.150
 5556POPC   GL130757  22.196  18.272   8.850
 5556POPC   GL230758  22.064  18.242   8.850
 5556POPC   C1A30759  22.150  18.330   8.550
 5556POPC   D2A30760  22.198  18.269   8.250
 5556POPC   C3A30761  22.165  18.303   7.950
 5556POPC   C4A30762  22.154  18.256   7.650
 5556POPC   C1B30763  21.915  18.203   8.550
 5556POPC   C2B30764  21.882  18.218   8.250
 5556POPC   C3B30765  21.881  18.230   7.950
 5556POPC   C4B30766  21.911  18.233   7.650
 5557POPC   NC330767  34.589   5.105   9.450
 5557POPC   PO430768  34.527   5.101   9.150
 5557POPC   GL130769  34.538   5.082   8.850
 5557POPC   GL230770  34.602   5.201   8.850
 5557POPC   C1A30771  34.614   5.056   8.550
 5557POPC   D2A30772  34.533   5.060   8.250
 5557POPC   C3A30773  34.555   5.068   7.950
 5557POPC   C4A30774  34.589   5.053   7.650
 5557POPC   C1B30775  34.582   5.301   8.550
 5557POPC   C2B30776  34.605   5.380   8.250
 5557POPC   C3B30777  34.581   5.365   7.950
 5557POPC   C4B30778  34.535   5.383   7.650
 5558POPC   NC330779  43.132  40.819   9.450
 5558POPC   PO430780  43.071  40.799   9.150
 5558POPC   GL130781  43.142  40.818   8.850
 5558POPC   GL230782  43.186  40.679   8.850
 5558POPC   C1A30783  43.074  40.764   8.550
 5558POPC   D2A30784  43.153  40.817   8.250
 5558POPC   C3A30785  43.090  40.813   7.950
 5558POPC   C4A30786  43.101  40.757   7.650
 5558POPC   C1B30787  43.262  40.558   8.550
 5558POPC   C2B30788  43.254  40.569   8.250
 5558POPC   C3B30789  43.266  40.560   7.950
 5558POPC   C4B30790  43.239  40.633   7.650
 5559POPC   NC330791  12.047  16.728   9.450
 5559POPC   PO430792  12.047  16.687   9.150
 5559POPC   GL130793  12.058  16.758   8.850
 5559POPC   GL230794  12.004  16.807   8.850
 5559POPC   C1A30795  12.093  16.712   8.550
 5559POPC   D2A30796  12.114  16.765   8.250
 5559POPC   C3A30797  12.050  16.727   7.950
 5559POPC   C4A30798  12.038  16.705   7.650
 5559POPC   C1B30799  11.999  16.956   8.550
 5559POPC   C2B30800  12.042  16.974   8.250
 5559POPC   C3B30801  12.022  16.941   7.950
 5559POPC   C4B30802  12.016  16.941   7.650
 5560POPC   NC330803  29.927  22.928   9.450
 5560POPC   PO430804  29.881  22.922   9.150
 5560POPC   GL130805  29.928  22.946   8.850
 5560POPC   GL230806  29.814  22.798   8.850
 5560POPC   C1A30807  29.901  22.908   8.550
 5560POPC   D2A30808  29.907  22.954   8.250
 5560POPC   C3A30809  29.942  22.911   7.950
 5560POPC   C4A30810  29.945  22.988   7.650
 5560POPC   C1B30811  29.768  22.699   8.550
 5560POPC   C2B30812  29.846  22.761   8.250
 5560POPC   C3B30813  29.783  22.741   7.950
 5560POPC   C4B30814  29.836  22.729   7.650
 5561POPC   NC330815  26.040  22.180   9.450
 5561POPC   PO430816  26.022  22.150   9.150
 5561POPC   GL130817  26.085  22.147   8.850
 5561POPC   GL230818  26.215  22.184   8.850
 5561POPC   C1A30819  26.027  22.208   8.550
 5561POPC   D2A30820  26.003  22.186   8.250
 5561POPC   C3A30821  26.029  22.151   7.950
 5561POPC   C4A30822  26.056  22.171   7.650
 5561POPC   C1B30823  26.268  22.148   8.550
 5561POPC   C2B30824  26.244  22.194   8.250
 5561POPC   C3B30825  26.292  22.186   7.950
 5561POPC   C4B30826  26.268  22.173   7.650
 5562POPC   NC330827  44.704  17.501   9.450
 5562POPC   PO430828  44.646  17.482   9.150
 5562POPC   GL130829  44.624  17.555   8.850
 5562POPC   GL230830  44.675  17.606   8.850
 5562POPC   C1A30831  44.618  17.547   8.550
 5562POPC   D2A30832  44.680  17.509   8.250
 5562POPC   C3A30833  44.613  17.530   7.950
 5562POPC   C4A30834  44.626  17.458   7.650
 5562POPC   C1B30835  44.642  17.775   8.550
 5562POPC   C2B30836  44.628  17.731   8.250
 5562POPC   C3B30837  44.619  17.747   7.950
 5562POPC   C4B30838  44.675  17.798   7.650
 5563POPC   NC330839  39.244  22.159   9.450
 5563POPC   PO430840  39.249  22.207   9.150
 5563POPC   GL130841  39.189  22.198   8.850
 5563POPC   GL230842  39.205  22.264   8.850
 5563POPC   C1A30843  39.211  22.129   8.550
 5563POPC   D2A30844  39.219  22.125   8.250
 5563POPC   C3A30845  39.214  22.193   7.950
 5563POPC   C4A30846  39.246  22.163   7.650
 5563POPC   C1B30847  39.175  22.428   8.550
 5563POPC   C2B30848  39.157  22.381   8.250
 5563POPC   C3B30849  39.217  22.428   7.950
 5563POPC   C4B30850  39.198  22.427   7.650
 5564POPC   NC330851  22.184  32.213   9.450
 5564POPC   PO430852  22.183  32.218   9.150
 5564POPC   GL130853  22.129  32.269   8.850
 5564POPC   GL230854  22.163  32.099   8.850
 5564POPC   C1A30855  22.138  32.253   8.550
 5564POPC   D2A30856  22.132  32.250   8.250
 5564POPC   C3A30857  22.151  32.275   7.950
 5564POPC   C4A30858  22.123  32.227   7.650
 5564POPC   C1B30859  22.189  31.981   8.550
 5564POPC   C2B30860  22.161  32.007   8.250
 5564POPC   C3B30861  22.186  32.019   7.950
 5564POPC   C4B30862  22.154  31.962   7.650
 5565POPC   NC330863   5.886   1.987   9.450
 5565POPC   PO430864   5.887   1.951   9.150
 5565POPC   GL130865   5.879   1.962   8.850
 5565POPC   GL230866   5.849   1.850   8.850
 5565POPC   C1A30867   5.916   2.033   8.550
 5565POPC   D2A30868   5.885   1.967   8.250
 5565POPC   C3A30869   5.819   1.941   7.950
 5565POPC   C4A30870   5.882   1.993   7.650
 5565POPC   C1B30871   5.702   1.728   8.550
 5565POPC   C2B30872   5.766   1.737   8.250
 5565POPC   C3B30873   5.707   1.778   7.950
 5565POPC   C4B30874   5.704   1.792   7.650
 5566POPC   NC330875  11.339  21.348   9.450
 5566POPC   PO430876  11.280  21.416   9.150
 5566POPC   GL130877  11.265  21.340   8.850
 5566POPC   GL230878  11.193  21.329   8.850
 5566POPC   C1A30879  11.291  21.426   8.550
 5566POPC   D2A30880  11.324  21.399   8.250
 5566POPC   C3A30881  11.332  21.402   7.950
 5566POPC   C4A30882  11.290  21.397   7.650
 5566POPC   C1B30883  11.012  21.314   8.550
 5566POPC   C2B30884  11.089  21.328   8.250
 5566POPC   C3B30885  11.008  21.298   7.950
 5566POPC   C4B30886  11.068  21.350   7.650
 5567POPC   NC330887  38.421  22.143   9.450
 5567POPC   PO430888  38.482  22.113   9.150
 5567POPC   GL130889  38.452  22.150   8.850
 5567POPC   GL230890  38.459  22.279   8.850
 5567POPC   C1A30891  38.432  22.209   8.550
 5567POPC   D2A30892  38.420  22.183   8.250
 5567POPC   C3A30893  38.455  22.132   7.950
 5567POPC   C4A30894  38.497  22.166   7.650
 5567POPC   C1B30895  38.375  22.432   8.550
 5567POPC   C2B30896  38.433  22.396   8.250
 5567POPC   C3B30897  38.465  22.427   7.950
 5567POPC   C4B30898  38.448  22.419   7.650
 5568POPC   NC330899  10.503   8.229   9.450
 5568POPC   PO430900  10.487   8.185   9.150
 5568POPC   GL130901  10.545   8.165   8.850
 5568POPC   GL230902  10.600   8.124   8.850
 5568POPC   C1A30903  10.523   8.201   8.550
 5568POPC   D2A30904  10.536   8.215   8.250
 5568POPC   C3A30905  10.533   8.169   7.950
 5568POPC   C4A30906  10.520   8.173   7.650
 5568POPC   C1B30907  10.606   7.926   8.550
 5568POPC   C2B30908  10.631   7.999   8.250
 5568POPC   C3B30909  10.658   7.998   7.950
 5568POPC   C4B30910  10.654   7.965   7.650
 5569POPC   NC330911  26.066  25.308   9.450
 5569POPC   PO430912  26.008  25.272   9.150
 5569POPC   GL130913  26.018  25.272   8.850
 5569POPC   GL230914  25.912  25.367   8.850
 5569POPC   C1A30915  26.089  25.219   8.550
 5569POPC   D2A30916  26.046  25.310   8.250
 5569POPC   C3A30917  26.055  25.280   7.950
 5569POPC   C4A30918  26.050  25.269   7.650
 5569POPC   C1B30919  25.853  25.439   8.550
 5569POPC   C2B30920  25.902  25.444   8.250
 5569POPC   C3B30921  25.831  25.458   7.950
 5569POPC   C4B30922  25.879  25.385   7.650
 5570POPC   NC330923  10.562  18.247   9.450
 5570POPC   PO430924  10.493  18.320   9.150
 5570POPC   GL130925  10.547  18.265   8.850
 5570POPC   GL230926  10.451  18.444   8.850
 5570POPC   C1A30927  10.537  18.308   8.550
 5570POPC   D2A30928  10.560  18.252   8.250
 5570POPC   C3A30929  10.521  18.305   7.950
 5570POPC   C4A30930  10.515  18.281   7.650
 5570POPC   C1B30931  10.418  18.522   8.550
 5570POPC   C2B30932  10.472  18.522   8.250
 5570POPC   C3B30933  10.469  18.522   7.950
 5570POPC   C4B30934  10.436  18.525   7.650
 5571POPC   NC330935  16.685   5.133   9.450
 5571POPC   PO430936  16.749   5.079   9.150
 5571POPC   GL130937  16.727   5.046   8.850
 5571POPC   GL230938  16.581   5.030   8.850
 5571POPC   C1A30939  16.773   5.064   8.550
 5571POPC   D2A30940  16.770   5.101   8.250
 5571POPC   C3A30941  16.728   5.084   7.950
 5571POPC   C4A30942  16.743   5.058   7.650
 5571POPC   C1B30943  16.507   5.056   8.550
 5571POPC   C2B30944  16.437   5.016   8.250
 5571POPC   C3B30945  16.485   5.000   7.950
 5571POPC   C4B30946  16.484   5.035   7.650
 5572POPC   NC330947   4.314   8.213   9.450
 5572POPC   PO430948   4.277   8.166   9.150
 5572POPC   GL130949   4.322   8.193   8.850
 5572POPC   GL230950   4.228   8.229   8.850
 5572POPC   C1A30951   4.366   8.176   8.550
 5572POPC   D2A30952   4.354   8.244   8.250
 5572POPC   C3A30953   4.356   8.162   7.950
 5572POPC   C4A30954   4.322   8.226   7.650
 5572POPC   C1B30955   4.055   8.248   8.550
 5572POPC   C2B30956   4.089   8.299   8.250
 5572POPC   C3B30957   4.096   8.220   7.950
 5572POPC   C4B30958   4.043   8.285   7.650
 5573POPC   NC330959  41.568  29.931   9.450
 5573POPC   PO430960  41.588  29.872   9.150
 5573POPC   GL130961  41.566  29.915   8.850
 5573POPC   GL230962  41.648  29.894   8.850
 5573POPC   C1A30963  41.601  29.886   8.550
 5573POPC   D2A30964  41.570  29.885   8.250
 5573POPC   C3A30965  41.528  29.911   7.950
 5573POPC   C4A30966  41.558  29.963   7.650
 5573POPC   C1B30967  41.734  29.809   8.550
 5573POPC   C2B30968  41.751  29.728   8.250
 5573POPC   C3B30969  41.774  29.811   7.950
 5573POPC   C4B30970  41.780  29.801   7.650
 5574POPC   NC330971  18.265  26.030   9.450
 5574POPC   PO430972  18.312  26.027   9.150
 5574POPC   GL130973  18.290  26.032   8.850
 5574POPC   GL230974  18.171  25.947   8.850
 5574POPC   C1A30975  18.323  26.085   8.550
 5574POPC   D2A30976  18.248  26.046   8.250
 5574POPC   C3A30977  18.255  26.044   7.950
 5574POPC   C4A30978  18.293  26.071   7.650
 5574POPC   C1B30979  18.135  25.898   8.550
 5574POPC   C2B30980  18.123  25.860   8.250
 5574POPC   C3B30981  18.042  25.923   7.950
 5574POPC   C4B30982  18.125  25.890   7.650
 5575POPC   NC330983  11.318   0.392   9.450
 5575POPC   PO430984  11.258   0.393   9.150
 5575POPC   GL130985  11.345   0.486   8.850
 5575POPC   GL230986  11.208   0.369   8.850
 5575POPC   C1A30987  11.325   0.456   8.550
 5575POPC   D2A30988  11.329   0.421   8.250
 5575POPC   C3A30989  11.265   0.451   7.950
 5575POPC   C4A30990  11.256   0.401   7.650
 5575POPC   C1B30991  11.087   0.356   8.550
 5575POPC   C2B30992  11.064   0.311   8.250
 5575POPC   C3B30993  11.061   0.292   7.950
 5575POPC   C4B30994  11.099   0.342   7.650
 5576POPC   NC330995  41.552  42.373   9.450
 5576POPC   PO430996  41.576  42.302   9.150
 5576POPC   GL130997  41.595  42.301   8.850
 5576POPC   GL230998  41.677  42.401   8.850
 5576POPC   C1A30999  41.516  42.372   8.550
 5576POPC   D2A31000  41.603  42.354   8.250
 5576POPC   C3A31001  41.583  42.296   7.950
 5576POPC   C4A31002  41.593  42.357   7.650
 5576POPC   C1B31003  41.756  42.446   8.550
 5576POPC   C2B31004  41.763  42.500   8.250
 5576POPC   C3B31005  41.773  42.436   7.950
 5576POPC   C4B31006  41.795  42.414   7.650
 5577POPC   NC331007   7.385  18.327   9.450
 5577POPC   PO431008   7.456  18.324   9.150
 5577POPC   GL131009   7.439  18.303   8.850
 5577POPC   GL231010   7.462  18.184   8.850
 5577POPC   C1A31011   7.436  18.305   8.550
 5577POPC   D2A31012   7.454  18.286   8.250
 5577POPC   C3A31013   7.389  18.252   7.950
 5577POPC   C4A31014   7.446  18.297   7.650
 5577POPC   C1B31015   7.509  18.094   8.550
 5577POPC   C2B31016   7.497  18.060   8.250
 5577POPC   C3B31017   7.552  18.023   7.950
 5577POPC   C4B31018   7.497  18.054   7.650
 5578POPC   NC331019  23.705   6.621   9.450
 5578POPC   PO431020  23.745   6.614   9.150
 5578POPC   GL131021  23.690   6.599   8.850
 5578POPC   GL231022  23.692   6.568   8.850
 5578POPC   C1A31023  23.733   6.694   8.550
 5578POPC   D2A31024  23.742   6.680   8.250
 5578POPC   C3A31025  23.682   6.615   7.950
 5578POPC   C4A31026  23.719   6.605   7.650
 5578POPC   C1B31027  23.656   6.414   8.550
 5578POPC   C2B31028  23.695   6.349   8.250
 5578POPC   C3B31029  23.740   6.389   7.950
 5578POPC   C4B31030  23.744   6.443   7.650
 5579POPC   NC331031   2.026   7.458   9.450
 5579POPC   PO431032   1.972   7.433   9.150
 5579POPC   GL131033   2.008   7.470   8.850
 5579POPC   GL231034   1.841   7.382   8.850
 5579POPC   C1A31035   1.945   7.395   8.550
 5579POPC   D2A31036   2.004   7.450   8.250
 5579POPC   C3A31037   1.975   7.404   7.950
 5579POPC   C4A31038   2.003   7.392   7.650
 5579POPC   C1B31039   1.794   7.291   8.550
 5579POPC   C2B31040   1.822   7.281   8.250
 5579POPC   C3B31041   1.791   7.262   7.950
 5579POPC   C4B31042   1.817   7.326   7.650
 5580POPC   NC331043  33.788  42.325   9.450
 5580POPC   PO431044  33.779  42.310   9.150
 5580POPC   GL131045  33.760  42.298   8.850
 5580POPC   GL231046  33.724  42.304   8.850
 5580POPC   C1A31047  33.779  42.380   8.550
 5580POPC   D2A31048  33.803  42.380   8.250
 5580POPC   C3A31049  33.798  42.309   7.950
 5580POPC   C4A31050  33.781  42.314   7.650
 5580POPC   C1B31051  33.622  42.266   8.550
 5580POPC   C2B31052  33.537  42.242   8.250
 5580POPC   C3B31053  33.605  42.188   7.950
 5580POPC   C4B31054  33.568  42.203   7.650
 5581POPC   NC331055  22.968  42.307   9.450
 5581POPC   PO431056  22.901  42.351   9.150
 5581POPC   GL131057  22.959  42.369   8.850
 5581POPC   GL231058  22.980  42.231   8.850
 5581POPC   C1A31059  22.967  42.298   8.550
 5581POPC   D2A31060  22.919  42.285   8.250
 5581POPC   C3A31061  22.943  42.336   7.950
 5581POPC   C4A31062  22.976  42.297   7.650
 5581POPC   C1B31063  22.957  42.088   8.550
 5581POPC   C2B31064  22.932  42.092   8.250
 5581POPC   C3B31065  22.923  42.079   7.950
 5581POPC   C4B31066  22.947  42.048   7.650
 5582POPC   NC331067  36.116  29.884   9.450
 5582POPC   PO431068  36.133  29.970   9.150
 5582POPC   GL131069  36.096  29.906   8.850
 5582POPC   GL231070  36.130  29.769   8.850
 5582POPC   C1A31071  36.088  29.919   8.550
 5582POPC   D2A31072  36.100  29.939   8.250
 5582POPC   C3A31073  36.158  29.925   7.950
 5582POPC   C4A31074  36.150  29.921   7.650
 5582POPC   C1B31075  36.117  29.628   8.550
 5582POPC   C2B31076  36.153  29.714   8.250
 5582POPC   C3B31077  36.162  29.711   7.950
 5582POPC   C4B31078  36.147  29.701   7.650
 5583POPC   NC331079  16.735  33.030   9.450
 5583POPC   PO431080  16.777  32.996   9.150
 5583POPC   GL131081  16.745  33.047   8.850
 5583POPC   GL231082  16.844  32.947   8.850
 5583POPC   C1A31083  16.728  33.070   8.550
 5583POPC   D2A31084  16.769  33.073   8.250
 5583POPC   C3A31085  16.739  33.012   7.950
 5583POPC   C4A31086  16.781  33.061   7.650
 5583POPC   C1B31087  16.854  32.820   8.550
 5583POPC   C2B31088  16.909  32.817   8.250
 5583POPC   C3B31089  16.930  32.851   7.950
 5583POPC   C4B31090  16.852  32.813   7.650
 5584POPC   NC331091   6.667  24.453   9.450
 5584POPC   PO431092   6.652  24.516   9.150
 5584POPC   GL131093   6.651  24.481   8.850
 5584POPC   GL231094   6.539  24.494   8.850
 5584POPC   C1A31095   6.650  24.538   8.550
 5584POPC   D2A31096   6.619  24.477   8.250
 5584POPC   C3A31097   6.625  24.506   7.950
 5584POPC   C4A31098   6.647  24.494   7.650
 5584POPC   C1B31099   6.411  24.392   8.550
 5584POPC   C2B31100   6.448  24.445   8.250
 5584POPC   C3B31101   6.389  24.455   7.950
 5584POPC   C4B31102   6.413  24.460   7.650
 5585POPC   NC331103  28.405  36.124   9.450
 5585POPC   PO431104  28.390  36.173   9.150
 5585POPC   GL131105  28.392  36.161   8.850
 5585POPC   GL231106  28.438  36.243   8.850
 5585POPC   C1A31107  28.361  36.104   8.550
 5585POPC   D2A31108  28.339  36.175   8.250
 5585POPC   C3A31109  28.387  36.127   7.950
 5585POPC   C4A31110  28.353  36.100   7.650
 5585POPC   C1B31111  28.503  36.351   8.550
 5585POPC   C2B31112  28.464  36.308   8.250
 5585POPC   C3B31113  28.485  36.345   7.950
 5585POPC   C4B31114  28.451  36.392   7.650
 5586POPC   NC331115  29.914  42.359   9.450
 5586POPC   PO431116  29.898  42.357   9.150
 5586POPC   GL131117  29.882  42.363   8.850
 5586POPC   GL231118  29.933  42.474   8.850
 5586POPC   C1A31119  29.872  42.368   8.550
 5586POPC   D2A31120  29.946  42.293   8.250
 5586POPC   C3A31121  29.932  42.347   7.950
 5586POPC   C4A31122  29.960  42.361   7.650
 5586POPC   C1B31123  30.034  42.571   8.550
 5586POPC   C2B31124  30.050  42.604   8.250
 5586POPC   C3B31125  30.001  42.597   7.950
 5586POPC   C4B31126  30.010  42.614   7.650
 5587POPC   NC331127  25.296  40.002   9.450
 5587POPC   PO431128  25.242  40.022   9.150
 5587POPC   GL131129  25.277  40.011   8.850
 5587POPC   GL231130  25.269  40.145   8.850
 5587POPC   C1A31131  25.273  39.963   8.550
 5587POPC   D2A31132  25.224  40.047   8.250
 5587POPC   C3A31133  25.244  40.007   7.950
 5587POPC   C4A31134  25.313  40.013   7.650
 5587POPC   C1B31135  25.179  40.272   8.550
 5587POPC   C2B31136  25.201  40.214   8.250
 5587POPC   C3B31137  25.178  40.244   7.950
 5587POPC   C4B31138  25.194  40.252   7.650
 5588POPC   NC331139  28.359   1.217   9.450
 5588POPC   PO431140  28.414   1.241   9.150
 5588POPC   GL131141  28.330   1.260   8.850
 5588POPC   GL231142  28.444   1.160   8.850
 5588POPC   C1A31143  28.407   1.204   8.550
 5588POPC   D2A31144  28.419   1.174   8.250
 5588POPC   C3A31145  28.414   1.193   7.950
 5588POPC   C4A31146  28.388   1.224   7.650
 5588POPC   C1B31147  28.646   1.187   8.550
 5588POPC   C2B31148  28.577   1.143   8.250
 5588POPC   C3B31149  28.572   1.168   7.950
 5588POPC   C4B31150  28.595   1.153   7.650
 5589POPC   NC331151  13.625  32.994   9.450
 5589POPC   PO431152  13.658  33.043   9.150
 5589POPC   GL131153  13.654  33.027   8.850
 5589POPC   GL231154  13.670  32.888   8.850
 5589POPC   C1A31155  13.607  33.031   8.550
 5589POPC   D2A31156  13.677  33.058   8.250
 5589POPC   C3A31157  13.625  33.062   7.950
 5589POPC   C4A31158  13.594  32.996   7.650
 5589POPC   C1B31159  13.715  32.819   8.550
 5589POPC   C2B31160  13.711  32.843   8.250
 5589POPC   C3B31161  13.736  32.817   7.950
 5589POPC   C4B31162  13.732  32.818   7.650
 5590POPC   NC331163   9.717  31.460   9.450
 5590POPC   PO431164   9.788  31.487   9.150
 5590POPC   GL131165   9.722  31.518   8.850
 5590POPC   GL231166   9.595  31.509   8.850
 5590POPC   C1A31167   9.749  31.515   8.550
 5590POPC   D2A31168   9.732  31.429   8.250
 5590POPC   C3A31169   9.719  31.508   7.950
 5590POPC   C4A31170   9.774  31.438   7.650
 5590POPC   C1B31171   9.519  31.432   8.550
 5590POPC   C2B31172   9.529  31.480   8.250
 5590POPC   C3B31173   9.476  31.507   7.950
 5590POPC   C4B31174   9.487  31.435   7.650
 5591POPC   NC331175  24.529  33.061   9.450
 5591POPC   PO431176  24.475  33.045   9.150
 5591POPC   GL131177  24.520  33.008   8.850
 5591POPC   GL231178  24.378  32.965   8.850
 5591POPC   C1A31179  24.530  33.012   8.550
 5591POPC   D2A31180  24.486  33.023   8.250
 5591POPC   C3A31181  24.488  32.984   7.950
 5591POPC   C4A31182  24.480  32.997   7.650
 5591POPC   C1B31183  24.192  32.981   8.550
 5591POPC   C2B31184  24.217  33.019   8.250
 5591POPC   C3B31185  24.236  33.036   7.950
 5591POPC   C4B31186  24.232  32.971   7.650
 5592POPC   NC331187  13.632  39.964   9.450
 5592POPC   PO431188  13.677  40.053   9.150
 5592POPC   GL131189  13.583  39.985   8.850
 5592POPC   GL231190  13.794  40.083   8.850
 5592POPC   C1A31191  13.647  40.009   8.550
 5592POPC   D2A31192  13.600  39.968   8.250
 5592POPC   C3A31193  13.613  40.027   7.950
 5592POPC   C4A31194  13.668  39.975   7.650
 5592POPC   C1B31195  13.846  40.109   8.550
 5592POPC   C2B31196  13.859  40.054   8.250
 5592POPC   C3B31197  13.839  40.039   7.950
 5592POPC   C4B31198  13.850  40.064   7.650
 5593POPC   NC331199   5.868  16.705   9.450
 5593POPC   PO431200   5.884  16.720   9.150
 5593POPC   GL131201   5.875  16.737   8.850
 5593POPC   GL231202   5.701  16.657   8.850
 5593POPC   C1A31203   5.830  16.706   8.550
 5593POPC   D2A31204   5.865  16.714   8.250
 5593POPC   C3A31205   5.839  16.723   7.950
 5593POPC   C4A31206   5.876  16.769   7.650
 5593POPC   C1B31207   5.623  16.684   8.550
 5593POPC   C2B31208   5.631  16.709   8.250
 5593POPC   C3B31209   5.583  16.715   7.950
 5593POPC   C4B31210   5.654  16.705   7.650
 5594POPC   NC331211  10.541  17.532   9.450
 5594POPC   PO431212  10.494  17.533   9.150
 5594POPC   GL131213  10.552  17.556   8.850
 5594POPC   GL231214  10.435  17.566   8.850
 5594POPC   C1A31215  10.500  17.480   8.550
 5594POPC   D2A31216  10.571  17.530   8.250
 5594POPC   C3A31217  10.546  17.482   7.950
 5594POPC   C4A31218  10.513  17.549   7.650
 5594POPC   C1B31219  10.300  17.679   8.550
 5594POPC   C2B31220  10.313  17.593   8.250
 5594POPC   C3B31221  10.299  17.676   7.950
 5594POPC   C4B31222  10.355  17.592   7.650
 5595POPC   NC331223  32.260   3.496   9.450
 5595POPC   PO431224  32.245   3.566   9.150
 5595POPC   GL131225  32.288   3.545   8.850
 5595POPC   GL231226  32.306   3.398   8.850
 5595POPC   C1A31227  32.241   3.587   8.550
 5595POPC   D2A31228  32.203   3.522   8.250
 5595POPC   C3A31229  32.209   3.579   7.950
 5595POPC   C4A31230  32.205   3.553   7.650
 5595POPC   C1B31231  32.368   3.325   8.550
 5595POPC   C2B31232  32.400   3.390   8.250
 5595POPC   C3B31233  32.379   3.312   7.950
 5595POPC   C4B31234  32.438   3.321   7.650
 5596POPC   NC331235   9.793  37.639   9.450
 5596POPC   PO431236   9.699  37.693   9.150
 5596POPC   GL131237   9.699  37.651   8.850
 5596POPC   GL231238   9.696  37.577   8.850
 5596POPC   C1A31239   9.716  37.645   8.550
 5596POPC   D2A31240   9.699  37.696   8.250
 5596POPC   C3A31241   9.794  37.681   7.950
 5596POPC   C4A31242   9.718  37.680   7.650
 5596POPC   C1B31243   9.531  37.449   8.550
 5596POPC   C2B31244   9.620  37.487   8.250
 5596POPC   C3B31245   9.570  37.535   7.950
 5596POPC   C4B31246   9.547  37.497   7.650
 5597POPC   NC331247  44.633  24.521   9.450
 5597POPC   PO431248  44.662  24.502   9.150
 5597POPC   GL131249  44.635  24.477   8.850
 5597POPC   GL231250  44.706  24.550   8.850
 5597POPC   C1A31251  44.613  24.466   8.550
 5597POPC   D2A31252  44.652  24.486   8.250
 5597POPC   C3A31253  44.705  24.480   7.950
 5597POPC   C4A31254  44.707  24.445   7.650
 5597POPC   C1B31255  44.827  24.723   8.550
 5597POPC   C2B31256  44.821  24.646   8.250
 5597POPC   C3B31257  44.872  24.717   7.950
 5597POPC   C4B31258  44.811  24.636   7.650
 5598POPC   NC331259  19.835  12.075   9.450
 5598POPC   PO431260  19.866  12.116   9.150
 5598POPC   GL131261  19.807  12.115   8.850
 5598POPC   GL231262  19.957  11.945   8.850
 5598POPC   C1A31263  19.835  12.094   8.550
 5598POPC   D2A31264  19.871  12.039   8.250
 5598POPC   C3A31265  19.813  12.029   7.950
 5598POPC   C4A31266  19.864  12.076   7.650
 5598POPC   C1B31267  19.999  11.860   8.550
 5598POPC   C2B31268  20.002  11.877   8.250
 5598POPC   C3B31269  20.044  11.845   7.950
 5598POPC   C4B31270  19.981  11.847   7.650
 5599POPC   NC331271  12.092  41.575   9.450
 5599POPC   PO431272  12.040  41.547   9.150
 5599POPC   GL131273  12.114  41.567   8.850
 5599POPC   GL231274  11.927  41.506   8.850
 5599POPC   C1A31275  12.053  41.568   8.550
 5599POPC   D2A31276  12.100  41.537   8.250
 5599POPC   C3A31277  12.105  41.584   7.950
 5599POPC   C4A31278  12.077  41.533   7.650
 5599POPC   C1B31279  11.854  41.467   8.550
 5599POPC   C2B31280  11.820  41.406   8.250
 5599POPC   C3B31281  11.910  41.419   7.950
 5599POPC   C4B31282  11.889  41.397   7.650
 5600POPC   NC331283  11.302  26.787   9.450
 5600POPC   PO431284  11.326  26.832   9.150
 5600POPC   GL131285  11.297  26.823   8.850
 5600POPC   GL231286  11.256  26.739   8.850
 5600POPC   C1A31287  11.319  26.861   8.550
 5600POPC   D2A31288  11.280  26.856   8.250
 5600POPC   C3A31289  11.284  26.852   7.950
 5600POPC   C4A31290  11.335  26.788   7.650
 5600POPC   C1B31291  11.133  26.589   8.550
 5600POPC   C2B31292  11.155  26.609   8.250
 5600POPC   C3B31293  11.201  26.611   7.950
 5600POPC   C4B31294  11.148  26.581   7.650
 5601POPC   NC331295   1.980  31.503   9.450
 5601POPC   PO431296   2.030  31.465   9.150
 5601POPC   GL131297   1.953  31.465   8.850
 5601POPC   GL231298   2.159  31.478   8.850
 5601POPC   C1A31299   2.000  31.509   8.550
 5601POPC   D2A31300   1.978  31.457   8.250
 5601POPC   C3A31301   1.984  31.512   7.950
 5601POPC   C4A31302   2.021  31.483   7.650
 5601POPC   C1B31303   2.260  31.491   8.550
 5601POPC   C2B31304   2.264  31.490   8.250
 5601POPC   C3B31305   2.281  31.443   7.950
 5601POPC   C4B31306   2.238  31.513   7.650
 5602POPC   NC331307  20.629  21.355   9.450
 5602POPC   PO431308  20.594  21.362   9.150
 5602POPC   GL131309  20.619  21.339   8.850
 5602POPC   GL231310  20.645  21.243   8.850
 5602POPC   C1A31311  20.647  21.429   8.550
 5602POPC   D2A31312  20.640  21.388   8.250
 5602POPC   C3A31313  20.612  21.373   7.950
 5602POPC   C4A31314  20.604  21.405   7.650
 5602POPC   C1B31315  20.731  21.211   8.550
 5602POPC   C2B31316  20.769  21.209   8.250
 5602POPC   C3B31317  20.791  21.183   7.950
 5602POPC   C4B31318  20.735  21.198   7.650
 5603POPC   NC331319   7.445  43.081   9.450
 5603POPC   PO431320   7.444  43.115   9.150
 5603POPC   GL131321   7.417  43.118   8.850
 5603POPC   GL231322   7.486  43.244   8.850
 5603POPC   C1A31323   7.432  43.159   8.550
 5603POPC   D2A31324   7.433  43.149   8.250
 5603POPC   C3A31325   7.435  43.131   7.950
 5603POPC   C4A31326   7.409  43.097   7.650
 5603POPC   C1B31327   7.487  43.379   8.550
 5603POPC   C2B31328   7.417  43.387   8.250
 5603POPC   C3B31329   7.501  43.358   7.950
 5603POPC   C4B31330   7.500  43.347   7.650
 5604POPC   NC331331   0.455  39.277   9.450
 5604POPC   PO431332   0.482  39.255   9.150
 5604POPC   GL131333   0.407  39.241   8.850
 5604POPC   GL231334   0.325  39.174   8.850
 5604POPC   C1A31335   0.408  39.276   8.550
 5604POPC   D2A31336   0.394  39.263   8.250
 5604POPC   C3A31337   0.465  39.217   7.950
 5604POPC   C4A31338   0.442  39.242   7.650
 5604POPC   C1B31339   0.226  39.059   8.550
 5604POPC   C2B31340   0.273  39.018   8.250
 5604POPC   C3B31341   0.298  39.032   7.950
 5604POPC   C4B31342   0.292  39.047   7.650
 5605POPC   NC331343  37.634  22.920   9.450
 5605POPC   PO431344  37.712  22.932   9.150
 5605POPC   GL131345  37.719  22.898   8.850
 5605POPC   GL231346  37.570  23.032   8.850
 5605POPC   C1A31347  37.727  22.917   8.550
 5605POPC   D2A31348  37.723  22.930   8.250
 5605POPC   C3A31349  37.656  22.979   7.950
 5605POPC   C4A31350  37.695  22.921   7.650
 5605POPC   C1B31351  37.483  23.014   8.550
 5605POPC   C2B31352  37.416  23.063   8.250
 5605POPC   C3B31353  37.443  23.065   7.950
 5605POPC   C4B31354  37.432  23.025   7.650
 5606POPC   NC331355  32.995  18.296   9.450
 5606POPC   PO431356  32.982  18.237   9.150
 5606POPC   GL131357  32.990  18.306   8.850
 5606POPC   GL231358  33.039  18.153   8.850
 5606POPC   C1A31359  32.985  18.306   8.550
 5606POPC   D2A31360  32.990  18.244   8.250
 5606POPC   C3A31361  32.990  18.301   7.950
 5606POPC   C4A31362  33.001  18.319   7.650
 5606POPC   C1B31363  33.137  18.052   8.550
 5606POPC   C2B31364  33.068  18.062   8.250
 5606POPC   C3B31365  33.148  18.016   7.950
 5606POPC   C4B31366  33.103  18.028   7.650
 5607POPC   NC331367  18.296  24.539   9.450
 5607POPC   PO431368  18.299  24.527   9.150
 5607POPC   GL131369  18.295  24.447   8.850
 5607POPC   GL231370  18.259  24.418   8.850
 5607POPC   C1A31371  18.272  24.521   8.550
 5607POPC   D2A31372  18.260  24.495   8.250
 5607POPC   C3A31373  18.324  24.481   7.950
 5607POPC   C4A31374  18.256  24.462   7.650
 5607POPC   C1B31375  18.201  24.222   8.550
 5607POPC   C2B31376  18.216  24.266   8.250
 5607POPC   C3B31377  18.122  24.304   7.950
 5607POPC   C4B31378  18.204  24.231   7.650
 5608POPC   NC331379   5.889  36.952   9.450
 5608POPC   PO431380   5.860  36.896   9.150
 5608POPC   GL131381   5.860  36.866   8.850
 5608POPC   GL231382   5.907  36.800   8.850
 5608POPC   C1A31383   5.837  36.952   8.550
 5608POPC   D2A31384   5.873  36.908   8.250
 5608POPC   C3A31385   5.901  36.899   7.950
 5608POPC   C4A31386   5.820  36.934   7.650
 5608POPC   C1B31387   6.055  36.716   8.550
 5608POPC   C2B31388   6.017  36.721   8.250
 5608POPC   C3B31389   6.042  36.766   7.950
 5608POPC   C4B31390   6.009  36.739   7.650
 5609POPC   NC331391  24.534   3.537   9.450
 5609POPC   PO431392  24.453   3.537   9.150
 5609POPC   GL131393  24.448   3.568   8.850
 5609POPC   GL231394  24.557   3.479   8.850
 5609POPC   C1A31395  24.463   3.560   8.550
 5609POPC   D2A31396  24.511   3.547   8.250
 5609POPC   C3A31397  24.496   3.561   7.950
 5609POPC   C4A31398  24.507   3.586   7.650
 5609POPC   C1B31399  24.620   3.320   8.550
 5609POPC   C2B31400  24.588   3.290   8.250
 5609POPC   C3B31401  24.564   3.335   7.950
 5609POPC   C4B31402  24.589   3.353   7.650
 5610POPC   NC331403  14.412   7.411   9.450
 5610POPC   PO431404  14.419   7.461   9.150
 5610POPC   GL131405  14.450   7.431   8.850
 5610POPC   GL231406  14.256   7.444   8.850
 5610POPC   C1A31407  14.372   7.464   8.550
 5610POPC   D2A31408  14.416   7.439   8.250
 5610POPC   C3A31409  14.424   7.418   7.950
 5610POPC   C4A31410  14.410   7.409   7.650
 5610POPC   C1B31411  14.222   7.535   8.550
 5610POPC   C2B31412  14.218   7.523   8.250
 5610POPC   C3B31413  14.178   7.531   7.950
 5610POPC   C4B31414  14.196   7.606   7.650
 5611POPC   NC331415   8.162  38.460   9.450
 5611POPC   PO431416   8.170  38.487   9.150
 5611POPC   GL131417   8.234  38.469   8.850
 5611POPC   GL231418   8.331  38.331   8.850
 5611POPC   C1A31419   8.220  38.422   8.550
 5611POPC   D2A31420   8.159  38.414   8.250
 5611POPC   C3A31421   8.165  38.413   7.950
 5611POPC   C4A31422   8.165  38.452   7.650
 5611POPC   C1B31423   8.390  38.319   8.550
 5611POPC   C2B31424   8.376  38.276   8.250
 5611POPC   C3B31425   8.391  38.289   7.950
 5611POPC   C4B31426   8.415  38.323   7.650
 5612POPC   NC331427  36.904  34.618   9.450
 5612POPC   PO431428  36.924  34.613   9.150
 5612POPC   GL131429  36.877  34.551   8.850
 5612POPC   GL231430  37.037  34.679   8.850
 5612POPC   C1A31431  36.860  34.615   8.550
 5612POPC   D2A31432  36.922  34.602   8.250
 5612POPC   C3A31433  36.897  34.606   7.950
 5612POPC   C4A31434  36.879  34.563   7.650
 5612POPC   C1B31435  37.095  34.701   8.550
 5612POPC   C2B31436  37.115  34.671   8.250
 5612POPC   C3B31437  37.082  34.692   7.950
 5612POPC   C4B31438  37.078  34.683   7.650
 5613POPC   NC331439  15.207  30.659   9.450
 5613POPC   PO431440  15.135  30.670   9.150
 5613POPC   GL131441  15.169  30.704   8.850
 5613POPC   GL231442  15.113  30.749   8.850
 5613POPC   C1A31443  15.197  30.672   8.550
 5613POPC   D2A31444  15.216  30.675   8.250
 5613POPC   C3A31445  15.152  30.670   7.950
 5613POPC   C4A31446  15.200  30.683   7.650
 5613POPC   C1B31447  14.996  30.792   8.550
 5613POPC   C2B31448  14.924  30.808   8.250
 5613POPC   C3B31449  14.902  30.844   7.950
 5613POPC   C4B31450  14.908  30.784   7.650
 5614POPC   NC331451  20.618  18.329   9.450
 5614POPC   PO431452  20.597  18.271   9.150
 5614POPC   GL131453  20.655  18.263   8.850
 5614POPC   GL231454  20.573  18.174   8.850
 5614POPC   C1A31455  20.624  18.298   8.550
 5614POPC   D2A31456  20.610  18.316   8.250
 5614POPC   C3A31457  20.617  18.259   7.950
 5614POPC   C4A31458  20.621  18.315   7.650
 5614POPC   C1B31459  20.646  18.009   8.550
 5614POPC   C2B31460  20.556  18.050   8.250
 5614POPC   C3B31461  20.644  17.985   7.950
 5614POPC   C4B31462  20.630  18.002   7.650
 5615POPC   NC331463   2.802  16.720   9.450
 5615POPC   PO431464   2.765  16.691   9.150
 5615POPC   GL131465   2.764  16.750   8.850
 5615POPC   GL231466   2.840  16.885   8.850
 5615POPC   C1A31467   2.738  16.713   8.550
 5615POPC   D2A31468   2.782  16.702   8.250
 5615POPC   C3A31469   2.815  16.708   7.950
 5615POPC   C4A31470   2.815  16.705   7.650
 5615POPC   C1B31471   2.892  16.916   8.550
 5615POPC   C2B31472   2.882  16.946   8.250
 5615POPC   C3B31473   2.910  16.941   7.950
 5615POPC   C4B31474   2.916  16.903   7.650
 5616POPC   NC331475  21.379  15.148   9.450
 5616POPC   PO431476  21.367  15.168   9.150
 5616POPC   GL131477  21.367  15.195   8.850
 5616POPC   GL231478  21.530  15.239   8.850
 5616POPC   C1A31479  21.430  15.214   8.550
 5616POPC   D2A31480  21.368  15.225   8.250
 5616POPC   C3A31481  21.341  15.135   7.950
 5616POPC   C4A31482  21.399  15.134   7.650
 5616POPC   C1B31483  21.611  15.261   8.550
 5616POPC   C2B31484  21.643  15.197   8.250
 5616POPC   C3B31485  21.652  15.218   7.950
 5616POPC   C4B31486  21.632  15.250   7.650
 5617POPC   NC331487  14.396  21.352   9.450
 5617POPC   PO431488  14.440  21.357   9.150
 5617POPC   GL131489  14.438  21.429   8.850
 5617POPC   GL231490  14.449  21.526   8.850
 5617POPC   C1A31491  14.364  21.364   8.550
 5617POPC   D2A31492  14.378  21.386   8.250
 5617POPC   C3A31493  14.405  21.370   7.950
 5617POPC   C4A31494  14.452  21.429   7.650
 5617POPC   C1B31495  14.515  21.581   8.550
 5617POPC   C2B31496  14.519  21.641   8.250
 5617POPC   C3B31497  14.529  21.567   7.950
 5617POPC   C4B31498  14.503  21.635   7.650
 5618POPC   NC331499  40.001  20.592   9.450
 5618POPC   PO431500  39.976  20.598   9.150
 5618POPC   GL131501  40.029  20.633   8.850
 5618POPC   GL231502  40.113  20.596   8.850
 5618POPC   C1A31503  40.003  20.586   8.550
 5618POPC   D2A31504  39.974  20.565   8.250
 5618POPC   C3A31505  40.042  20.659   7.950
 5618POPC   C4A31506  40.041  20.573   7.650
 5618POPC   C1B31507  40.233  20.617   8.550
 5618POPC   C2B31508  40.239  20.667   8.250
 5618POPC   C3B31509  40.235  20.629   7.950
 5618POPC   C4B31510  40.208  20.652   7.650
 5619POPC   NC331511  28.331  43.142   9.450
 5619POPC   PO431512  28.350  43.117   9.150
 5619POPC   GL131513  28.396  43.063   8.850
 5619POPC   GL231514  28.261  43.208   8.850
 5619POPC   C1A31515  28.378  43.103   8.550
 5619POPC   D2A31516  28.329  43.154   8.250
 5619POPC   C3A31517  28.347  43.088   7.950
 5619POPC   C4A31518  28.354  43.137   7.650
 5619POPC   C1B31519  28.233  43.311   8.550
 5619POPC   C2B31520  28.235  43.284   8.250
 5619POPC   C3B31521  28.213  43.278   7.950
 5619POPC   C4B31522  28.201  43.291   7.650
 5620POPC   NC331523   1.981  13.599   9.450
 5620POPC   PO431524   1.963  13.612   9.150
 5620POPC   GL131525   1.955  13.641   8.850
 5620POPC   GL231526   2.081  13.496   8.850
 5620POPC   C1A31527   1.953  13.614   8.550
 5620POPC   D2A31528   2.023  13.662   8.250
 5620POPC   C3A31529   1.973  13.623   7.950
 5620POPC   C4A31530   1.996  13.648   7.650
 5620POPC   C1B31531   2.117  13.443   8.550
 5620POPC   C2B31532   2.206  13.435   8.250
 5620POPC   C3B31533   2.160  13.475   7.950
 5620POPC   C4B31534   2.172  13.398   7.650
 5621POPC   NC331535  24.494  20.573   9.450
 5621POPC   PO431536  24.496  20.597   9.150
 5621POPC   GL131537  24.485  20.573   8.850
 5621POPC   GL231538  24.657  20.597   8.850
 5621POPC   C1A31539  24.454  20.591   8.550
 5621POPC   D2A31540  24.527  20.636   8.250
 5621POPC   C3A31541  24.516  20.569   7.950
 5621POPC   C4A31542  24.457  20.596   7.650
 5621POPC   C1B31543  24.729  20.683   8.550
 5621POPC   C2B31544  24.695  20.704   8.250
 5621POPC   C3B31545  24.702  20.686   7.950
 5621POPC   C4B31546  24.776  20.704   7.650
 5622POPC   NC331547  11.304  19.857   9.450
 5622POPC   PO431548  11.266  19.791   9.150
 5622POPC   GL131549  11.270  19.821   8.850
 5622POPC   GL231550  11.445  19.783   8.850
 5622POPC   C1A31551  11.307  19.838   8.550
 5622POPC   D2A31552  11.291  19.840   8.250
 5622POPC   C3A31553  11.257  19.861   7.950
 5622POPC   C4A31554  11.307  19.818   7.650
 5622POPC   C1B31555  11.559  19.759   8.550
 5622POPC   C2B31556  11.561  19.763   8.250
 5622POPC   C3B31557  11.549  19.775   7.950
 5622POPC   C4B31558  11.558  19.682   7.650
 5623POPC   NC331559   5.905   4.309   9.450
 5623POPC   PO431560   5.824   4.347   9.150
 5623POPC   GL131561   5.854   4.270   8.850
 5623POPC   GL231562   5.710   4.350   8.850
 5623POPC   C1A31563   5.844   4.289   8.550
 5623POPC   D2A31564   5.856   4.318   8.250
 5623POPC   C3A31565   5.821   4.359   7.950
 5623POPC   C4A31566   5.915   4.325   7.650
 5623POPC   C1B31567   5.649   4.306   8.550
 5623POPC   C2B31568   5.594   4.326   8.250
 5623POPC   C3B31569   5.581   4.272   7.950
 5623POPC   C4B31570   5.663   4.331   7.650
 5624POPC   NC331571  12.096  22.160   9.450
 5624POPC   PO431572  12.085  22.149   9.150
 5624POPC   GL131573  12.099  22.125   8.850
 5624POPC   GL231574  11.991  22.123   8.850
 5624POPC   C1A31575  12.063  22.133   8.550
 5624POPC   D2A31576  12.120  22.191   8.250
 5624POPC   C3A31577  12.036  22.180   7.950
 5624POPC   C4A31578  12.058  22.210   7.650
 5624POPC   C1B31579  11.832  22.106   8.550
 5624POPC   C2B31580  11.856  22.061   8.250
 5624POPC   C3B31581  11.792  22.103   7.950
 5624POPC   C4B31582  11.800  22.042   7.650
 5625POPC   NC331583  34.569  17.532   9.450
 5625POPC   PO431584  34.600  17.548   9.150
 5625POPC   GL131585  34.574  17.476   8.850
 5625POPC   GL231586  34.635  17.375   8.850
 5625POPC   C1A31587  34.608  17.502   8.550
 5625POPC   D2A31588  34.590  17.546   8.250
 5625POPC   C3A31589  34.619  17.479   7.950
 5625POPC   C4A31590  34.607  17.532   7.650
 5625POPC   C1B31591  34.739  17.321   8.550
 5625POPC   C2B31592  34.663  17.306   8.250
 5625POPC   C3B31593  34.702  17.255   7.950
 5625POPC   C4B31594  34.700  17.250   7.650
 5626POPC   NC331595   8.240  26.842   9.450
 5626POPC   PO431596   8.234  26.792   9.150
 5626POPC   GL131597   8.206  26.794   8.850
 5626POPC   GL231598   8.351  26.811   8.850
 5626POPC   C1A31599   8.159  26.799   8.550
 5626POPC   D2A31600   8.199  26.798   8.250
 5626POPC   C3A31601   8.194  26.804   7.950
 5626POPC   C4A31602   8.218  26.779   7.650
 5626POPC   C1B31603   8.464  26.803   8.550
 5626POPC   C2B31604   8.460  26.750   8.250
 5626POPC   C3B31605   8.424  26.790   7.950
 5626POPC   C4B31606   8.424  26.812   7.650
 5627POPC   NC331607   8.159  39.213   9.450
 5627POPC   PO431608   8.174  39.263   9.150
 5627POPC   GL131609   8.183  39.222   8.850
 5627POPC   GL231610   8.129  39.109   8.850
 5627POPC   C1A31611   8.246  39.222   8.550
 5627POPC   D2A31612   8.235  39.225   8.250
 5627POPC   C3A31613   8.239  39.270   7.950
 5627POPC   C4A31614   8.202  39.190   7.650
 5627POPC   C1B31615   8.126  38.992   8.550
 5627POPC   C2B31616   8.110  39.011   8.250
 5627POPC   C3B31617   8.104  39.040   7.950
 5627POPC   C4B31618   8.124  39.053   7.650
 5628POPC   NC331619  40.747  27.589   9.450
 5628POPC   PO431620  40.765  27.581   9.150
 5628POPC   GL131621  40.826  27.558   8.850
 5628POPC   GL231622  40.850  27.459   8.850
 5628POPC   C1A31623  40.816  27.629   8.550
 5628POPC   D2A31624  40.782  27.556   8.250
 5628POPC   C3A31625  40.768  27.596   7.950
 5628POPC   C4A31626  40.741  27.633   7.650
 5628POPC   C1B31627  40.817  27.324   8.550
 5628POPC   C2B31628  40.841  27.381   8.250
 5628POPC   C3B31629  40.792  27.316   7.950
 5628POPC   C4B31630  40.833  27.373   7.650
 5629POPC   NC331631   5.899  33.775   9.450
 5629POPC   PO431632   5.830  33.778   9.150
 5629POPC   GL131633   5.877  33.797   8.850
 5629POPC   GL231634   5.805  33.762   8.850
 5629POPC   C1A31635   5.910  33.803   8.550
 5629POPC   D2A31636   5.834  33.845   8.250
 5629POPC   C3A31637   5.860  33.767   7.950
 5629POPC   C4A31638   5.852  33.758   7.650
 5629POPC   C1B31639   5.660  33.666   8.550
 5629POPC   C2B31640   5.651  33.666   8.250
 5629POPC   C3B31641   5.645  33.674   7.950
 5629POPC   C4B31642   5.674  33.711   7.650
 5630POPC   NC331643  39.272   1.233   9.450
 5630POPC   PO431644  39.257   1.221   9.150
 5630POPC   GL131645  39.192   1.206   8.850
 5630POPC   GL231646  39.271   1.130   8.850
 5630POPC   C1A31647  39.262   1.188   8.550
 5630POPC   D2A31648  39.276   1.220   8.250
 5630POPC   C3A31649  39.201   1.172   7.950
 5630POPC   C4A31650  39.202   1.185   7.650
 5630POPC   C1B31651  39.286   1.015   8.550
 5630POPC   C2B31652  39.264   0.977   8.250
 5630POPC   C3B31653  39.208   0.922   7.950
 5630POPC   C4B31654  39.241   0.989   7.650
 5631POPC   NC331655   8.162  21.435   9.450
 5631POPC   PO431656   8.153  21.394   9.150
 5631POPC   GL131657   8.159  21.366   8.850
 5631POPC   GL231658   8.135  21.315   8.850
 5631POPC   C1A31659   8.151  21.419   8.550
 5631POPC   D2A31660   8.187  21.372   8.250
 5631POPC   C3A31661   8.158  21.341   7.950
 5631POPC   C4A31662   8.201  21.411   7.650
 5631POPC   C1B31663   8.150  21.174   8.550
 5631POPC   C2B31664   8.130  21.159   8.250
 5631POPC   C3B31665   8.098  21.146   7.950
 5631POPC   C4B31666   8.147  21.100   7.650
 5632POPC   NC331667  32.208  10.514   9.450
 5632POPC   PO431668  32.230  10.565   9.150
 5632POPC   GL131669  32.294  10.489   8.850
 5632POPC   GL231670  32.332  10.383   8.850
 5632POPC   C1A31671  32.209  10.563   8.550
 5632POPC   D2A31672  32.230  10.503   8.250
 5632POPC   C3A31673  32.275  10.537   7.950
 5632POPC   C4A31674  32.264  10.542   7.650
 5632POPC   C1B31675  32.284  10.322   8.550
 5632POPC   C2B31676  32.370  10.256   8.250
 5632POPC   C3B31677  32.372  10.287   7.950
 5632POPC   C4B31678  32.349  10.243   7.650
 5633POPC   NC331679  40.006  29.879   9.450
 5633POPC   PO431680  39.983  29.936   9.150
 5633POPC   GL131681  40.019  29.958   8.850
 5633POPC   GL231682  39.845  29.841   8.850
 5633POPC   C1A31683  40.000  29.899   8.550
 5633POPC   D2A31684  39.976  29.903   8.250
 5633POPC   C3A31685  40.036  29.916   7.950
 5633POPC   C4A31686  40.016  29.895   7.650
 5633POPC   C1B31687  39.762  29.829   8.550
 5633POPC   C2B31688  39.781  29.832   8.250
 5633POPC   C3B31689  39.728  29.882   7.950
 5633POPC   C4B31690  39.762  29.831   7.650
 5634POPC   NC331691  12.843  35.303   9.450
 5634POPC   PO431692  12.861  35.350   9.150
 5634POPC   GL131693  12.861  35.315   8.850
 5634POPC   GL231694  13.007  35.331   8.850
 5634POPC   C1A31695  12.843  35.381   8.550
 5634POPC   D2A31696  12.823  35.308   8.250
 5634POPC   C3A31697  12.861  35.337   7.950
 5634POPC   C4A31698  12.859  35.312   7.650
 5634POPC   C1B31699  13.145  35.405   8.550
 5634POPC   C2B31700  13.094  35.354   8.250
 5634POPC   C3B31701  13.082  35.427   7.950
 5634POPC   C4B31702  13.056  35.442   7.650
 5635POPC   NC331703  10.493  19.090   9.450
 5635POPC   PO431704  10.510  19.105   9.150
 5635POPC   GL131705  10.525  19.074   8.850
 5635POPC   GL231706  10.442  18.911   8.850
 5635POPC   C1A31707  10.487  19.017   8.550
 5635POPC   D2A31708  10.540  19.083   8.250
 5635POPC   C3A31709  10.533  19.028   7.950
 5635POPC   C4A31710  10.534  19.042   7.650
 5635POPC   C1B31711  10.359  18.813   8.550
 5635POPC   C2B31712  10.361  18.904   8.250
 5635POPC   C3B31713  10.331  18.833   7.950
 5635POPC   C4B31714  10.340  18.820   7.650
 5636POPC   NC331715   1.224   3.531   9.450
 5636POPC   PO431716   1.171   3.500   9.150
 5636POPC   GL131717   1.248   3.508   8.850
 5636POPC   GL231718   1.110   3.610   8.850
 5636POPC   C1A31719   1.181   3.550   8.550
 5636POPC   D2A31720   1.208   3.515   8.250
 5636POPC   C3A31721   1.255   3.568   7.950
 5636POPC   C4A31722   1.230   3.556   7.650
 5636POPC   C1B31723   1.051   3.775   8.550
 5636POPC   C2B31724   1.080   3.724   8.250
 5636POPC   C3B31725   1.045   3.719   7.950
 5636POPC   C4B31726   1.017   3.760   7.650
 5637POPC   NC331727  15.201  22.965   9.450
 5637POPC   PO431728  15.171  22.914   9.150
 5637POPC   GL131729  15.134  22.977   8.850
 5637POPC   GL231730  15.228  22.772   8.850
 5637POPC   C1A31731  15.212  22.901   8.550
 5637POPC   D2A31732  15.218  22.965   8.250
 5637POPC   C3A31733  15.137  22.958   7.950
 5637POPC   C4A31734  15.204  22.963   7.650
 5637POPC   C1B31735  15.187  22.744   8.550
 5637POPC   C2B31736  15.202  22.649   8.250
 5637POPC   C3B31737  15.243  22.676   7.950
 5637POPC   C4B31738  15.256  22.719   7.650
 5638POPC   NC331739  22.132  24.513   9.450
 5638POPC   PO431740  22.176  24.442   9.150
 5638POPC   GL131741  22.140  24.493   8.850
 5638POPC   GL231742  22.041  24.507   8.850
 5638POPC   C1A31743  22.170  24.485   8.550
 5638POPC   D2A31744  22.167  24.533   8.250
 5638POPC   C3A31745  22.211  24.448   7.950
 5638POPC   C4A31746  22.119  24.529   7.650
 5638POPC   C1B31747  21.964  24.587   8.550
 5638POPC   C2B31748  21.956  24.544   8.250
 5638POPC   C3B31749  21.891  24.564   7.950
 5638POPC   C4B31750  21.877  24.576   7.650
 5639POPC   NC331751  43.096   2.765   9.450
 5639POPC   PO431752  43.154   2.745   9.150
 5639POPC   GL131753  43.075   2.808   8.850
 5639POPC   GL231754  43.176   2.704   8.850
 5639POPC   C1A31755  43.122   2.765   8.550
 5639POPC   D2A31756  43.159   2.772   8.250
 5639POPC   C3A31757  43.108   2.780   7.950
 5639POPC   C4A31758  43.076   2.766   7.650
 5639POPC   C1B31759  43.280   2.618   8.550
 5639POPC   C2B31760  43.276   2.586   8.250
 5639POPC   C3B31761  43.325   2.633   7.950
 5639POPC   C4B31762  43.306   2.581   7.650
 5640POPC   NC331763  41.590  21.423   9.450
 5640POPC   PO431764  41.580  21.428   9.150
 5640POPC   GL131765  41.597  21.406   8.850
 5640POPC   GL231766  41.564  21.560   8.850
 5640POPC   C1A31767  41.585  21.417   8.550
 5640POPC   D2A31768  41.586  21.363   8.250
 5640POPC   C3A31769  41.569  21.370   7.950
 5640POPC   C4A31770  41.512  21.425   7.650
 5640POPC   C1B31771  41.549  21.638   8.550
 5640POPC   C2B31772  41.613  21.635   8.250
 5640POPC   C3B31773  41.568  21.663   7.950
 5640POPC   C4B31774  41.551  21.622   7.650
 5641POPC   NC331775  28.363  19.839   9.450
 5641POPC   PO431776  28.333  19.797   9.150
 5641POPC   GL131777  28.381  19.843   8.850
 5641POPC   GL231778  28.240  19.763   8.850
 5641POPC   C1A31779  28.350  19.857   8.550
 5641POPC   D2A31780  28.335  19.794   8.250
 5641POPC   C3A31781  28.369  19.833   7.950
 5641POPC   C4A31782  28.375  19.874   7.650
 5641POPC   C1B31783  28.185  19.675   8.550
 5641POPC   C2B31784  28.171  19.739   8.250
 5641POPC   C3B31785  28.116  19.771   7.950
 5641POPC   C4B31786  28.187  19.768   7.650
 5642POPC   NC331787  41.605   1.238   9.450
 5642POPC   PO431788  41.553   1.181   9.150
 5642POPC   GL131789  41.570   1.175   8.850
 5642POPC   GL231790  41.718   1.246   8.850
 5642POPC   C1A31791  41.542   1.184   8.550
 5642POPC   D2A31792  41.550   1.183   8.250
 5642POPC   C3A31793  41.568   1.171   7.950
 5642POPC   C4A31794  41.530   1.210   7.650
 5642POPC   C1B31795  41.839   1.245   8.550
 5642POPC   C2B31796  41.750   1.310   8.250
 5642POPC   C3B31797  41.810   1.246   7.950
 5642POPC   C4B31798  41.781   1.322   7.650
 5643POPC   NC331799  33.003  38.474   9.450
 5643POPC   PO431800  32.999  38.439   9.150
 5643POPC   GL131801  33.064  38.428   8.850
 5643POPC   GL231802  32.928  38.592   8.850
 5643POPC   C1A31803  33.004  38.441   8.550
 5643POPC   D2A31804  33.053  38.499   8.250
 5643POPC   C3A31805  33.010  38.482   7.950
 5643POPC   C4A31806  33.060  38.476   7.650
 5643POPC   C1B31807  32.919  38.657   8.550
 5643POPC   C2B31808  32.876  38.716   8.250
 5643POPC   C3B31809  32.959  38.672   7.950
 5643POPC   C4B31810  32.963  38.730   7.650
 5644POPC   NC331811  34.611  41.598   9.450
 5644POPC   PO431812  34.579  41.510   9.150
 5644POPC   GL131813  34.595  41.550   8.850
 5644POPC   GL231814  34.702  41.510   8.850
 5644POPC   C1A31815  34.592  41.587   8.550
 5644POPC   D2A31816  34.567  41.569   8.250
 5644POPC   C3A31817  34.550  41.599   7.950
 5644POPC   C4A31818  34.562  41.596   7.650
 5644POPC   C1B31819  34.753  41.338   8.550
 5644POPC   C2B31820  34.711  41.380   8.250
 5644POPC   C3B31821  34.804  41.432   7.950
 5644POPC   C4B31822  34.717  41.391   7.650
 5645POPC   NC331823  22.125   2.726   9.450
 5645POPC   PO431824  22.196   2.807   9.150
 5645POPC   GL131825  22.146   2.770   8.850
 5645POPC   GL231826  22.142   2.646   8.850
 5645POPC   C1A31827  22.123   2.754   8.550
 5645POPC   D2A31828  22.139   2.745   8.250
 5645POPC   C3A31829  22.122   2.728   7.950
 5645POPC   C4A31830  22.152   2.750   7.650
 5645POPC   C1B31831  22.160   2.471   8.550
 5645POPC   C2B31832  22.104   2.495   8.250
 5645POPC   C3B31833  22.124   2.477   7.950
 5645POPC   C4B31834  22.149   2.509   7.650
 5646POPC   NC331835  29.114   1.991   9.450
 5646POPC   PO431836  29.152   1.947   9.150
 5646POPC   GL131837  29.155   1.973   8.850
 5646POPC   GL231838  29.064   2.054   8.850
 5646POPC   C1A31839  29.188   1.974   8.550
 5646POPC   D2A31840  29.108   2.004   8.250
 5646POPC   C3A31841  29.157   2.024   7.950
 5646POPC   C4A31842  29.176   1.947   7.650
 5646POPC   C1B31843  28.907   2.144   8.550
 5646POPC   C2B31844  28.923   2.106   8.250
 5646POPC   C3B31845  28.935   2.119   7.950
 5646POPC   C4B31846  28.939   2.158   7.650
 5647POPC   NC331847  25.299  12.820   9.450
 5647POPC   PO431848  25.280  12.815   9.150
 5647POPC   GL131849  25.296  12.832   8.850
 5647POPC   GL231850  25.334  12.847   8.850
 5647POPC   C1A31851  25.216  12.822   8.550
 5647POPC   D2A31852  25.232  12.865   8.250
 5647POPC   C3A31853  25.300  12.810   7.950
 5647POPC   C4A31854  25.297  12.867   7.650
 5647POPC   C1B31855  25.446  12.736   8.550
 5647POPC   C2B31856  25.467  12.716   8.250
 5647POPC   C3B31857  25.524  12.770   7.950
 5647POPC   C4B31858  25.508  12.774   7.650
 5648POPC   NC331859  14.380   2.006   9.450
 5648POPC   PO431860  14.443   2.039   9.150
 5648POPC   GL131861  14.445   2.011   8.850
 5648POPC   GL231862  14.304   1.947   8.850
 5648POPC   C1A31863  14.397   1.970   8.550
 5648POPC   D2A31864  14.450   2.001   8.250
 5648POPC   C3A31865  14.422   1.978   7.950
 5648POPC   C4A31866  14.408   2.002   7.650
 5648POPC   C1B31867  14.134   1.851   8.550
 5648POPC   C2B31868  14.187   1.922   8.250
 5648POPC   C3B31869  14.200   1.905   7.950
 5648POPC   C4B31870  14.177   1.933   7.650
 5649POPC   NC331871  27.626  32.205   9.450
 5649POPC   PO431872  27.643  32.242   9.150
 5649POPC   GL131873  27.605  32.238   8.850
 5649POPC   GL231874  27.509  32.353   8.850
 5649POPC   C1A31875  27.573  32.203   8.550
 5649POPC   D2A31876  27.558  32.295   8.250
 5649POPC   C3A31877  27.566  32.248   7.950
 5649POPC   C4A31878  27.561  32.277   7.650
 5649POPC   C1B31879  27.368  32.411   8.550
 5649POPC   C2B31880  27.460  32.422   8.250
 5649POPC   C3B31881  27.398  32.422   7.950
 5649POPC   C4B31882  27.383  32.443   7.650
 5650POPC   NC331883   5.905  25.257   9.450
 5650POPC   PO431884   5.868  25.249   9.150
 5650POPC   GL131885   5.882  25.237   8.850
 5650POPC   GL231886   5.839  25.183   8.850
 5650POPC   C1A31887   5.902  25.223   8.550
 5650POPC   D2A31888   5.846  25.300   8.250
 5650POPC   C3A31889   5.832  25.246   7.950
 5650POPC   C4A31890   5.854  25.293   7.650
 5650POPC   C1B31891   5.807  25.031   8.550
 5650POPC   C2B31892   5.882  25.064   8.250
 5650POPC   C3B31893   5.851  24.977   7.950
 5650POPC   C4B31894   5.859  24.967   7.650
 5651POPC   NC331895   2.813  13.578   9.450
 5651POPC   PO431896   2.761  13.658   9.150
 5651POPC   GL131897   2.762  13.590   8.850
 5651POPC   GL231898   2.900  13.659   8.850
 5651POPC   C1A31899   2.779  13.588   8.550
 5651POPC   D2A31900   2.770  13.638   8.250
 5651POPC   C3A31901   2.805  13.672   7.950
 5651POPC   C4A31902   2.752  13.636   7.650
 5651POPC   C1B31903   2.970  13.702   8.550
 5651POPC   C2B31904   3.028  13.733   8.250
 5651POPC   C3B31905   3.004  13.772   7.950
 5651POPC   C4B31906   2.961  13.760   7.650
 5652POPC   NC331907  33.794  22.930   9.450
 5652POPC   PO431908  33.787  22.923   9.150
 5652POPC   GL131909  33.848  22.917   8.850
 5652POPC   GL231910  33.696  22.840   8.850
 5652POPC   C1A31911  33.848  22.937   8.550
 5652POPC   D2A31912  33.839  22.944   8.250
 5652POPC   C3A31913  33.769  22.936   7.950
 5652POPC   C4A31914  33.836  22.976   7.650
 5652POPC   C1B31915  33.575  22.797   8.550
 5652POPC   C2B31916  33.568  22.820   8.250
 5652POPC   C3B31917  33.604  22.755   7.950
 5652POPC   C4B31918  33.629  22.787   7.650
 5653POPC   NC331919  33.759  25.263   9.450
 5653POPC   PO431920  33.809  25.312   9.150
 5653POPC   GL131921  33.827  25.238   8.850
 5653POPC   GL231922  33.654  25.305   8.850
 5653POPC   C1A31923  33.772  25.283   8.550
 5653POPC   D2A31924  33.800  25.278   8.250
 5653POPC   C3A31925  33.850  25.223   7.950
 5653POPC   C4A31926  33.808  25.272   7.650
 5653POPC   C1B31927  33.540  25.258   8.550
 5653POPC   C2B31928  33.510  25.296   8.250
 5653POPC   C3B31929  33.538  25.331   7.950
 5653POPC   C4B31930  33.544  25.276   7.650
 5654POPC   NC331931   3.519  12.054   9.450
 5654POPC   PO431932   3.512  12.075   9.150
 5654POPC   GL131933   3.572  12.034   8.850
 5654POPC   GL231934   3.464  12.192   8.850
 5654POPC   C1A31935   3.548  12.106   8.550
 5654POPC   D2A31936   3.496  12.077   8.250
 5654POPC   C3A31937   3.528  12.046   7.950
 5654POPC   C4A31938   3.584  12.030   7.650
 5654POPC   C1B31939   3.441  12.286   8.550
 5654POPC   C2B31940   3.455  12.250   8.250
 5654POPC   C3B31941   3.424  12.291   7.950
 5654POPC   C4B31942   3.408  12.239   7.650
 5655POPC   NC331943   2.802  39.183   9.450
 5655POPC   PO431944   2.813  39.280   9.150
 5655POPC   GL131945   2.776  39.266   8.850
 5655POPC   GL231946   2.717  39.067   8.850
 5655POPC   C1A31947   2.735  39.267   8.550
 5655POPC   D2A31948   2.729  39.279   8.250
 5655POPC   C3A31949   2.771  39.232   7.950
 5655POPC   C4A31950   2.742  39.219   7.650
 5655POPC   C1B31951   2.700  39.024   8.550
 5655POPC   C2B31952   2.704  39.012   8.250
 5655POPC   C3B31953   2.716  39.017   7.950
 5655POPC   C4B31954   2.757  39.014   7.650
 5656POPC   NC331955  11.280  38.469   9.450
 5656POPC   PO431956  11.277  38.480   9.150
 5656POPC   GL131957  11.293  38.483   8.850
 5656POPC   GL231958  11.357  38.338   8.850
 5656POPC   C1A31959  11.266  38.484   8.550
 5656POPC   D2A31960  11.311  38.469   8.250
 5656POPC   C3A31961  11.311  38.431   7.950
 5656POPC   C4A31962  11.338  38.421   7.650
 5656POPC   C1B31963  11.395  38.209   8.550
 5656POPC   C2B31964  11.326  38.165   8.250
 5656POPC   C3B31965  11.371  38.230   7.950
 5656POPC   C4B31966  11.349  38.241   7.650
 5657POPC   NC331967  32.233  33.800   9.450
 5657POPC   PO431968  32.297  33.783   9.150
 5657POPC   GL131969  32.278  33.798   8.850
 5657POPC   GL231970  32.313  33.967   8.850
 5657POPC   C1A31971  32.227  33.833   8.550
 5657POPC   D2A31972  32.208  33.781   8.250
 5657POPC   C3A31973  32.280  33.758   7.950
 5657POPC   C4A31974  32.234  33.822   7.650
 5657POPC   C1B31975  32.251  34.042   8.550
 5657POPC   C2B31976  32.299  34.023   8.250
 5657POPC   C3B31977  32.331  34.033   7.950
 5657POPC   C4B31978  32.269  34.079   7.650
 5658POPC   NC331979  43.844   8.213   9.450
 5658POPC   PO431980  43.841   8.221   9.150
 5658POPC   GL131981  43.896   8.208   8.850
 5658POPC   GL231982  43.927   8.268   8.850
 5658POPC   C1A31983  43.847   8.232   8.550
 5658POPC   D2A31984  43.854   8.161   8.250
 5658POPC   C3A31985  43.915   8.148   7.950
 5658POPC   C4A31986  43.912   8.234   7.650
 5658POPC   C1B31987  44.009   8.369   8.550
 5658POPC   C2B31988  44.077   8.340   8.250
 5658POPC   C3B31989  44.016   8.352   7.950
 5658POPC   C4B31990  44.084   8.373   7.650
 5659POPC   NC331991  14.385  35.303   9.450
 5659POPC   PO431992  14.409  35.326   9.150
 5659POPC   GL131993  14.374  35.303   8.850
 5659POPC   GL231994  14.312  35.370   8.850
 5659POPC   C1A31995  14.386  35.364   8.550
 5659POPC   D2A31996  14.386  35.365   8.250
 5659POPC   C3A31997  14.416  35.363   7.950
 5659POPC   C4A31998  14.453  35.355   7.650
 5659POPC   C1B31999  14.123  35.410   8.550
 5659POPC   C2B32000  14.124  35.376   8.250
 5659POPC   C3B32001  14.150  35.367   7.950
 5659POPC   C4B32002  14.132  35.382   7.650
 5660POPC   NC332003  41.523   6.627   9.450
 5660POPC   PO432004  41.514   6.675   9.150
 5660POPC   GL132005  41.513   6.654   8.850
 5660POPC   GL232006  41.457   6.708   8.850
 5660POPC   C1A32007  41.552   6.632   8.550
 5660POPC   D2A32008  41.583   6.663   8.250
 5660POPC   C3A32009  41.545   6.660   7.950
 5660POPC   C4A32010  41.578   6.678   7.650
 5660POPC   C1B32011  41.315   6.805   8.550
 5660POPC   C2B32012  41.354   6.798   8.250
 5660POPC   C3B32013  41.305   6.781   7.950
 5660POPC   C4B32014  41.334   6.762   7.650
 5661POPC   NC332015   4.305  15.130   9.450
 5661POPC   PO432016   4.313  15.197   9.150
 5661POPC   GL132017   4.297  15.155   8.850
 5661POPC   GL232018   4.194  15.121   8.850
 5661POPC   C1A32019   4.290  15.211   8.550
 5661POPC   D2A32020   4.273  15.160   8.250
 5661POPC   C3A32021   4.319  15.226   7.950
 5661POPC   C4A32022   4.292  15.167   7.650
 5661POPC   C1B32023   4.073  15.141   8.550
 5661POPC   C2B32024   4.084  15.112   8.250
 5661POPC   C3B32025   4.101  15.098   7.950
 5661POPC   C4B32026   4.082  15.153   7.650
 5662POPC   NC332027   2.004   5.865   9.450
 5662POPC   PO432028   1.998   5.848   9.150
 5662POPC   GL132029   1.987   5.865   8.850
 5662POPC   GL232030   1.888   5.873   8.850
 5662POPC   C1A32031   2.016   5.831   8.550
 5662POPC   D2A32032   2.036   5.864   8.250
 5662POPC   C3A32033   2.010   5.840   7.950
 5662POPC   C4A32034   1.968   5.880   7.650
 5662POPC   C1B32035   1.707   5.804   8.550
 5662POPC   C2B32036   1.729   5.825   8.250
 5662POPC   C3B32037   1.726   5.848   7.950
 5662POPC   C4B32038   1.795   5.853   7.650
 5663POPC   NC332039  24.489  18.311   9.450
 5663POPC   PO432040  24.475  18.323   9.150
 5663POPC   GL132041  24.532  18.282   8.850
 5663POPC   GL232042  24.531  18.364   8.850
 5663POPC   C1A32043  24.524  18.299   8.550
 5663POPC   D2A32044  24.456  18.237   8.250
 5663POPC   C3A32045  24.469  18.260   7.950
 5663POPC   C4A32046  24.531  18.329   7.650
 5663POPC   C1B32047  24.588  18.477   8.550
 5663POPC   C2B32048  24.546  18.520   8.250
 5663POPC   C3B32049  24.573  18.567   7.950
 5663POPC   C4B32050  24.599  18.529   7.650
 5664POPC   NC332051  33.819   8.231   9.450
 5664POPC   PO432052  33.804   8.226   9.150
 5664POPC   GL132053  33.773   8.200   8.850
 5664POPC   GL232054  33.911   8.168   8.850
 5664POPC   C1A32055  33.753   8.169   8.550
 5664POPC   D2A32056  33.753   8.164   8.250
 5664POPC   C3A32057  33.838   8.167   7.950
 5664POPC   C4A32058  33.836   8.175   7.650
 5664POPC   C1B32059  33.990   8.080   8.550
 5664POPC   C2B32060  33.992   8.101   8.250
 5664POPC   C3B32061  34.072   8.078   7.950
 5664POPC   C4B32062  34.074   8.092   7.650
 5665POPC   NC332063   0.436  28.322   9.450
 5665POPC   PO432064   0.388  28.367   9.150
 5665POPC   GL132065   0.453  28.404   8.850
 5665POPC   GL232066   0.304  28.284   8.850
 5665POPC   C1A32067   0.446  28.336   8.550
 5665POPC   D2A32068   0.448  28.339   8.250
 5665POPC   C3A32069   0.474  28.361   7.950
 5665POPC   C4A32070   0.436  28.374   7.650
 5665POPC   C1B32071   0.222  28.269   8.550
 5665POPC   C2B32072   0.248  28.243   8.250
 5665POPC   C3B32073   0.170  28.292   7.950
 5665POPC   C4B32074   0.225  28.247   7.650
 5666POPC   NC332075  17.531  19.795   9.450
 5666POPC   PO432076  17.485  19.862   9.150
 5666POPC   GL132077  17.548  19.840   8.850
 5666POPC   GL232078  17.474  19.755   8.850
 5666POPC   C1A32079  17.484  19.791   8.550
 5666POPC   D2A32080  17.556  19.833   8.250
 5666POPC   C3A32081  17.525  19.849   7.950
 5666POPC   C4A32082  17.508  19.857   7.650
 5666POPC   C1B32083  17.413  19.623   8.550
 5666POPC   C2B32084  17.347  19.620   8.250
 5666POPC   C3B32085  17.395  19.635   7.950
 5666POPC   C4B32086  17.324  19.600   7.650
 5667POPC   NC332087  12.037  26.047   9.450
 5667POPC   PO432088  12.048  26.034   9.150
 5667POPC   GL132089  12.039  26.009   8.850
 5667POPC   GL232090  12.119  25.951   8.850
 5667POPC   C1A32091  12.028  26.005   8.550
 5667POPC   D2A32092  12.044  26.035   8.250
 5667POPC   C3A32093  12.071  26.007   7.950
 5667POPC   C4A32094  12.114  26.033   7.650
 5667POPC   C1B32095  12.257  25.869   8.550
 5667POPC   C2B32096  12.184  25.819   8.250
 5667POPC   C3B32097  12.216  25.815   7.950
 5667POPC   C4B32098  12.206  25.887   7.650
 5668POPC   NC332099  25.275  13.672   9.450
 5668POPC   PO432100  25.264  13.583   9.150
 5668POPC   GL132101  25.269  13.582   8.850
 5668POPC   GL232102  25.404  13.532   8.850
 5668POPC   C1A32103  25.280  13.638   8.550
 5668POPC   D2A32104  25.307  13.675   8.250
 5668POPC   C3A32105  25.275  13.649   7.950
 5668POPC   C4A32106  25.258  13.593   7.650
 5668POPC   C1B32107  25.544  13.548   8.550
 5668POPC   C2B32108  25.528  13.501   8.250
 5668POPC   C3B32109  25.520  13.522   7.950
 5668POPC   C4B32110  25.446  13.484   7.650
 5669POPC   NC332111  34.536  14.354   9.450
 5669POPC   PO432112  34.543  14.402   9.150
 5669POPC   GL132113  34.593  14.394   8.850
 5669POPC   GL232114  34.571  14.260   8.850
 5669POPC   C1A32115  34.621  14.409   8.550
 5669POPC   D2A32116  34.593  14.418   8.250
 5669POPC   C3A32117  34.604  14.375   7.950
 5669POPC   C4A32118  34.601  14.414   7.650
 5669POPC   C1B32119  34.458  14.192   8.550
 5669POPC   C2B32120  34.451  14.189   8.250
 5669POPC   C3B32121  34.466  14.135   7.950
 5669POPC   C4B32122  34.479  14.199   7.650
 5670POPC   NC332123  19.064   6.608   9.450
 5670POPC   PO432124  19.050   6.650   9.150
 5670POPC   GL132125  19.014   6.602   8.850
 5670POPC   GL232126  19.149   6.706   8.850
 5670POPC   C1A32127  19.037   6.667   8.550
 5670POPC   D2A32128  19.077   6.683   8.250
 5670POPC   C3A32129  19.019   6.656   7.950
 5670POPC   C4A32130  19.059   6.669   7.650
 5670POPC   C1B32131  19.240   6.829   8.550
 5670POPC   C2B32132  19.223   6.811   8.250
 5670POPC   C3B32133  19.198   6.812   7.950
 5670POPC   C4B32134  19.157   6.812   7.650
 5671POPC   NC332135  34.583  26.038   9.450
 5671POPC   PO432136  34.535  26.078   9.150
 5671POPC   GL132137  34.562  25.993   8.850
 5671POPC   GL232138  34.648  26.125   8.850
 5671POPC   C1A32139  34.561  26.016   8.550
 5671POPC   D2A32140  34.546  26.065   8.250
 5671POPC   C3A32141  34.608  26.043   7.950
 5671POPC   C4A32142  34.549  26.012   7.650
 5671POPC   C1B32143  34.713  26.268   8.550
 5671POPC   C2B32144  34.743  26.240   8.250
 5671POPC   C3B32145  34.735  26.208   7.950
 5671POPC   C4B32146  34.726  26.243   7.650
 5672POPC   NC332147  37.683  42.348   9.450
 5672POPC   PO432148  37.655  42.336   9.150
 5672POPC   GL132149  37.663  42.304   8.850
 5672POPC   GL232150  37.762  42.283   8.850
 5672POPC   C1A32151  37.706  42.358   8.550
 5672POPC   D2A32152  37.676  42.335   8.250
 5672POPC   C3A32153  37.641  42.332   7.950
 5672POPC   C4A32154  37.680  42.332   7.650
 5672POPC   C1B32155  37.896  42.248   8.550
 5672POPC   C2B32156  37.936  42.224   8.250
 5672POPC   C3B32157  37.894  42.270   7.950
 5672POPC   C4B32158  37.870  42.266   7.650
 5673POPC   NC332159   6.597  34.590   9.450
 5673POPC   PO432160   6.635  34.582   9.150
 5673POPC   GL132161   6.643  34.624   8.850
 5673POPC   GL232162   6.711  34.440   8.850
 5673POPC   C1A32163   6.676  34.577   8.550
 5673POPC   D2A32164   6.687  34.571   8.250
 5673POPC   C3A32165   6.648  34.554   7.950
 5673POPC   C4A32166   6.608  34.539   7.650
 5673POPC   C1B32167   6.783  34.317   8.550
 5673POPC   C2B32168   6.715  34.373   8.250
 5673POPC   C3B32169   6.748  34.345   7.950
 5673POPC   C4B32170   6.751  34.380   7.650
 5674POPC   NC332171  12.893  14.427   9.450
 5674POPC   PO432172  12.833  14.443   9.150
 5674POPC   GL132173  12.882  14.438   8.850
 5674POPC   GL232174  12.961  14.471   8.850
 5674POPC   C1A32175  12.864  14.385   8.550
 5674POPC   D2A32176  12.866  14.409   8.250
 5674POPC   C3A32177  12.893  14.393   7.950
 5674POPC   C4A32178  12.890  14.372   7.650
 5674POPC   C1B32179  12.946  14.651   8.550
 5674POPC   C2B32180  12.952  14.624   8.250
 5674POPC   C3B32181  13.002  14.659   7.950
 5674POPC   C4B32182  13.000  14.600   7.650
 5675POPC   NC332183   6.690  21.390   9.450
 5675POPC   PO432184   6.605  21.363   9.150
 5675POPC   GL132185   6.638  21.338   8.850
 5675POPC   GL232186   6.554  21.261   8.850
 5675POPC   C1A32187   6.626  21.386   8.550
 5675POPC   D2A32188   6.600  21.373   8.250
 5675POPC   C3A32189   6.666  21.412   7.950
 5675POPC   C4A32190   6.684  21.359   7.650
 5675POPC   C1B32191   6.466  21.238   8.550
 5675POPC   C2B32192   6.466  21.216   8.250
 5675POPC   C3B32193   6.500  21.240   7.950
 5675POPC   C4B32194   6.532  21.149   7.650
 5676POPC   NC332195  29.954   1.180   9.450
 5676POPC   PO432196  29.965   1.259   9.150
 5676POPC   GL132197  29.919   1.236   8.850
 5676POPC   GL232198  30.033   1.173   8.850
 5676POPC   C1A32199  29.922   1.227   8.550
 5676POPC   D2A32200  29.946   1.184   8.250
 5676POPC   C3A32201  29.897   1.178   7.950
 5676POPC   C4A32202  29.878   1.190   7.650
 5676POPC   C1B32203  30.213   1.191   8.550
 5676POPC   C2B32204  30.208   1.184   8.250
 5676POPC   C3B32205  30.122   1.245   7.950
 5676POPC   C4B32206  30.201   1.193   7.650
 5677POPC   NC332207   2.776  14.438   9.450
 5677POPC   PO432208   2.759  14.402   9.150
 5677POPC   GL132209   2.805  14.369   8.850
 5677POPC   GL232210   2.676  14.377   8.850
 5677POPC   C1A32211   2.730  14.361   8.550
 5677POPC   D2A32212   2.724  14.412   8.250
 5677POPC   C3A32213   2.792  14.426   7.950
 5677POPC   C4A32214   2.720  14.439   7.650
 5677POPC   C1B32215   2.570  14.273   8.550
 5677POPC   C2B32216   2.526  14.255   8.250
 5677POPC   C3B32217   2.501  14.350   7.950
 5677POPC   C4B32218   2.536  14.349   7.650
 5678POPC   NC332219  36.083  28.419   9.450
 5678POPC   PO432220  36.131  28.353   9.150
 5678POPC   GL132221  36.103  28.338   8.850
 5678POPC   GL232222  36.130  28.237   8.850
 5678POPC   C1A32223  36.102  28.364   8.550
 5678POPC   D2A32224  36.150  28.390   8.250
 5678POPC   C3A32225  36.094  28.401   7.950
 5678POPC   C4A32226  36.154  28.345   7.650
 5678POPC   C1B32227  36.181  28.134   8.550
 5678POPC   C2B32228  36.146  28.116   8.250
 5678POPC   C3B32229  36.105  28.081   7.950
 5678POPC   C4B32230  36.150  28.098   7.650
 5679POPC   NC332231  43.064  29.965   9.450
 5679POPC   PO432232  43.088  29.895   9.150
 5679POPC   GL132233  43.140  29.909   8.850
 5679POPC   GL232234  43.226  29.935   8.850
 5679POPC   C1A32235  43.089  29.893   8.550
 5679POPC   D2A32236  43.065  29.944   8.250
 5679POPC   C3A32237  43.111  29.923   7.950
 5679POPC   C4A32238  43.132  29.892   7.650
 5679POPC   C1B32239  43.319  29.925   8.550
 5679POPC   C2B32240  43.318  29.924   8.250
 5679POPC   C3B32241  43.385  29.920   7.950
 5679POPC   C4B32242  43.341  29.860   7.650
 5680POPC   NC332243   8.166  31.506   9.450
 5680POPC   PO432244   8.208  31.504   9.150
 5680POPC   GL132245   8.226  31.463   8.850
 5680POPC   GL232246   8.230  31.328   8.850
 5680POPC   C1A32247   8.200  31.504   8.550
 5680POPC   D2A32248   8.218  31.503   8.250
 5680POPC   C3A32249   8.230  31.440   7.950
 5680POPC   C4A32250   8.225  31.474   7.650
 5680POPC   C1B32251   8.273  31.199   8.550
 5680POPC   C2B32252   8.274  31.192   8.250
 5680POPC   C3B32253   8.191  31.179   7.950
 5680POPC   C4B32254   8.217  31.267   7.650
 5681POPC   NC332255  36.110  17.523   9.450
 5681POPC   PO432256  36.116  17.514   9.150
 5681POPC   GL132257  36.157  17.530   8.850
 5681POPC   GL232258  36.056  17.604   8.850
 5681POPC   C1A32259  36.107  17.467   8.550
 5681POPC   D2A32260  36.138  17.491   8.250
 5681POPC   C3A32261  36.101  17.543   7.950
 5681POPC   C4A32262  36.087  17.471   7.650
 5681POPC   C1B32263  35.902  17.642   8.550
 5681POPC   C2B32264  35.921  17.645   8.250
 5681POPC   C3B32265  35.941  17.591   7.950
 5681POPC   C4B32266  35.894  17.665   7.650
 5682POPC   NC332267  13.579  31.425   9.450
 5682POPC   PO432268  13.580  31.490   9.150
 5682POPC   GL132269  13.673  31.449   8.850
 5682POPC   GL232270  13.720  31.521   8.850
 5682POPC   C1A32271  13.626  31.493   8.550
 5682POPC   D2A32272  13.615  31.471   8.250
 5682POPC   C3A32273  13.676  31.455   7.950
 5682POPC   C4A32274  13.659  31.467   7.650
 5682POPC   C1B32275  13.846  31.527   8.550
 5682POPC   C2B32276  13.845  31.529   8.250
 5682POPC   C3B32277  13.844  31.565   7.950
 5682POPC   C4B32278  13.881  31.588   7.650
 5683POPC   NC332279  31.502  37.727   9.450
 5683POPC   PO432280  31.467  37.632   9.150
 5683POPC   GL132281  31.483  37.697   8.850
 5683POPC   GL232282  31.413  37.795   8.850
 5683POPC   C1A32283  31.510  37.630   8.550
 5683POPC   D2A32284  31.508  37.666   8.250
 5683POPC   C3A32285  31.426  37.644   7.950
 5683POPC   C4A32286  31.509  37.697   7.650
 5683POPC   C1B32287  31.319  37.825   8.550
 5683POPC   C2B32288  31.335  37.866   8.250
 5683POPC   C3B32289  31.343  37.888   7.950
 5683POPC   C4B32290  31.338  37.855   7.650
 5684POPC   NC332291   6.609  27.638   9.450
 5684POPC   PO432292   6.678  27.621   9.150
 5684POPC   GL132293   6.650  27.557   8.850
 5684POPC   GL232294   6.659  27.493   8.850
 5684POPC   C1A32295   6.674  27.601   8.550
 5684POPC   D2A32296   6.689  27.639   8.250
 5684POPC   C3A32297   6.605  27.551   7.950
 5684POPC   C4A32298   6.635  27.577   7.650
 5684POPC   C1B32299   6.624  27.362   8.550
 5684POPC   C2B32300   6.631  27.303   8.250
 5684POPC   C3B32301   6.618  27.306   7.950
 5684POPC   C4B32302   6.675  27.319   7.650
 5685POPC   NC332303  10.525  11.342   9.450
 5685POPC   PO432304  10.484  11.266   9.150
 5685POPC   GL132305  10.483  11.336   8.850
 5685POPC   GL232306  10.370  11.221   8.850
 5685POPC   C1A32307  10.479  11.255   8.550
 5685POPC   D2A32308  10.560  11.286   8.250
 5685POPC   C3A32309  10.543  11.272   7.950
 5685POPC   C4A32310  10.477  11.296   7.650
 5685POPC   C1B32311  10.250  11.212   8.550
 5685POPC   C2B32312  10.261  11.283   8.250
 5685POPC   C3B32313  10.255  11.282   7.950
 5685POPC   C4B32314  10.259  11.242   7.650
 5686POPC   NC332315  13.637  29.896   9.450
 5686POPC   PO432316  13.609  29.921   9.150
 5686POPC   GL132317  13.639  29.917   8.850
 5686POPC   GL232318  13.498  29.832   8.850
 5686POPC   C1A32319  13.596  29.941   8.550
 5686POPC   D2A32320  13.609  29.935   8.250
 5686POPC   C3A32321  13.598  29.949   7.950
 5686POPC   C4A32322  13.659  29.935   7.650
 5686POPC   C1B32323  13.494  29.685   8.550
 5686POPC   C2B32324  13.453  29.749   8.250
 5686POPC   C3B32325  13.489  29.776   7.950
 5686POPC   C4B32326  13.513  29.754   7.650
 5687POPC   NC332327   0.428  10.521   9.450
 5687POPC   PO432328   0.445  10.495   9.150
 5687POPC   GL132329   0.447  10.520   8.850
 5687POPC   GL232330   0.292  10.592   8.850
 5687POPC   C1A32331   0.445  10.571   8.550
 5687POPC   D2A32332   0.442  10.508   8.250
 5687POPC   C3A32333   0.390  10.550   7.950
 5687POPC   C4A32334   0.460  10.493   7.650
 5687POPC   C1B32335   0.256  10.629   8.550
 5687POPC   C2B32336   0.208  10.682   8.250
 5687POPC   C3B32337   0.257  10.636   7.950
 5687POPC   C4B32338   0.227  10.622   7.650
 5688POPC   NC332339  41.537  34.561   9.450
 5688POPC   PO432340  41.548  34.602   9.150
 5688POPC   GL132341  41.596  34.575   8.850
 5688POPC   GL232342  41.614  34.488   8.850
 5688POPC   C1A32343  41.570  34.624   8.550
 5688POPC   D2A32344  41.519  34.551   8.250
 5688POPC   C3A32345  41.558  34.589   7.950
 5688POPC   C4A32346  41.598  34.600   7.650
 5688POPC   C1B32347  41.712  34.424   8.550
 5688POPC   C2B32348  41.687  34.382   8.250
 5688POPC   C3B32349  41.745  34.383   7.950
 5688POPC   C4B32350  41.688  34.414   7.650
 5689POPC   NC332351  38.502  19.850   9.450
 5689POPC   PO432352  38.470  19.882   9.150
 5689POPC   GL132353  38.428  19.881   8.850
 5689POPC   GL232354  38.318  19.876   8.850
 5689POPC   C1A32355  38.435  19.873   8.550
 5689POPC   D2A32356  38.460  19.855   8.250
 5689POPC   C3A32357  38.498  19.836   7.950
 5689POPC   C4A32358  38.442  19.862   7.650
 5689POPC   C1B32359  38.219  19.801   8.550
 5689POPC   C2B32360  38.216  19.837   8.250
 5689POPC   C3B32361  38.229  19.833   7.950
 5689POPC   C4B32362  38.210  19.831   7.650
 5690POPC   NC332363   6.675  36.890   9.450
 5690POPC   PO432364   6.598  36.942   9.150
 5690POPC   GL132365   6.673  36.924   8.850
 5690POPC   GL232366   6.598  36.980   8.850
 5690POPC   C1A32367   6.674  36.889   8.550
 5690POPC   D2A32368   6.690  36.917   8.250
 5690POPC   C3A32369   6.688  36.894   7.950
 5690POPC   C4A32370   6.682  36.953   7.650
 5690POPC   C1B32371   6.431  37.026   8.550
 5690POPC   C2B32372   6.490  37.027   8.250
 5690POPC   C3B32373   6.418  37.108   7.950
 5690POPC   C4B32374   6.467  37.105   7.650
 5691POPC   NC332375  43.861  44.614   9.450
 5691POPC   PO432376  43.914  44.620   9.150
 5691POPC   GL132377  43.914  44.690   8.850
 5691POPC   GL232378  44.059  44.623   8.850
 5691POPC   C1A32379  43.905  44.686   8.550
 5691POPC   D2A32380  43.923  44.662   8.250
 5691POPC   C3A32381  43.933  44.648   7.950
 5691POPC   C4A32382  43.932  44.688   7.650
 5691POPC   C1B32383  44.101  44.652   8.550
 5691POPC   C2B32384  44.125  44.617   8.250
 5691POPC   C3B32385  44.085  44.607   7.950
 5691POPC   C4B32386  44.140  44.624   7.650
 5692POPC   NC332387  10.507  33.056   9.450
 5692POPC   PO432388  10.560  33.001   9.150
 5692POPC   GL132389  10.541  32.976   8.850
 5692POPC   GL232390  10.383  32.992   8.850
 5692POPC   C1A32391  10.479  32.985   8.550
 5692POPC   D2A32392  10.480  32.994   8.250
 5692POPC   C3A32393  10.557  33.048   7.950
 5692POPC   C4A32394  10.520  33.000   7.650
 5692POPC   C1B32395  10.284  32.830   8.550
 5692POPC   C2B32396  10.325  32.856   8.250
 5692POPC   C3B32397  10.309  32.914   7.950
 5692POPC   C4B32398  10.357  32.921   7.650
 5693POPC   NC332399   6.642  12.889   9.450
 5693POPC   PO432400   6.639  12.891   9.150
 5693POPC   GL132401   6.633  12.837   8.850
 5693POPC   GL232402   6.528  12.933   8.850
 5693POPC   C1A32403   6.686  12.885   8.550
 5693POPC   D2A32404   6.604  12.870   8.250
 5693POPC   C3A32405   6.629  12.852   7.950
 5693POPC   C4A32406   6.657  12.824   7.650
 5693POPC   C1B32407   6.483  12.969   8.550
 5693POPC   C2B32408   6.413  13.017   8.250
 5693POPC   C3B32409   6.410  13.007   7.950
 5693POPC   C4B32410   6.479  12.965   7.650
 5694POPC   NC332411  20.584  28.411   9.450
 5694POPC   PO432412  20.591  28.348   9.150
 5694POPC   GL132413  20.590  28.384   8.850
 5694POPC   GL232414  20.743  28.475   8.850
 5694POPC   C1A32415  20.605  28.354   8.550
 5694POPC   D2A32416  20.654  28.343   8.250
 5694POPC   C3A32417  20.598  28.418   7.950
 5694POPC   C4A32418  20.650  28.346   7.650
 5694POPC   C1B32419  20.777  28.536   8.550
 5694POPC   C2B32420  20.828  28.515   8.250
 5694POPC   C3B32421  20.805  28.508   7.950
 5694POPC   C4B32422  20.827  28.544   7.650
 5695POPC   NC332423   5.087  26.014   9.450
 5695POPC   PO432424   5.137  26.060   9.150
 5695POPC   GL132425   5.115  26.082   8.850
 5695POPC   GL232426   5.166  26.168   8.850
 5695POPC   C1A32427   5.136  26.001   8.550
 5695POPC   D2A32428   5.082  26.075   8.250
 5695POPC   C3A32429   5.098  26.052   7.950
 5695POPC   C4A32430   5.058  26.004   7.650
 5695POPC   C1B32431   5.215  26.295   8.550
 5695POPC   C2B32432   5.147  26.265   8.250
 5695POPC   C3B32433   5.215  26.247   7.950
 5695POPC   C4B32434   5.216  26.239   7.650
 5696POPC   NC332435  38.453   8.942   9.450
 5696POPC   PO432436  38.470   8.931   9.150
 5696POPC   GL132437  38.425   8.962   8.850
 5696POPC   GL232438  38.513   8.855   8.850
 5696POPC   C1A32439  38.493   8.936   8.550
 5696POPC   D2A32440  38.413   8.976   8.250
 5696POPC   C3A32441  38.442   8.987   7.950
 5696POPC   C4A32442  38.450   8.979   7.650
 5696POPC   C1B32443  38.529   8.730   8.550
 5696POPC   C2B32444  38.498   8.751   8.250
 5696POPC   C3B32445  38.465   8.707   7.950
 5696POPC   C4B32446  38.473   8.704   7.650
 5697POPC   NC332447  24.477   6.657   9.450
 5697POPC   PO432448  24.510   6.676   9.150
 5697POPC   GL132449  24.448   6.621   8.850
 5697POPC   GL232450  24.412   6.748   8.850
 5697POPC   C1A32451  24.507   6.683   8.550
 5697POPC   D2A32452  24.491   6.670   8.250
 5697POPC   C3A32453  24.443   6.613   7.950
 5697POPC   C4A32454  24.481   6.677   7.650
 5697POPC   C1B32455  24.276   6.733   8.550
 5697POPC   C2B32456  24.248   6.712   8.250
 5697POPC   C3B32457  24.276   6.753   7.950
 5697POPC   C4B32458  24.228   6.746   7.650
 5698POPC   NC332459  21.421   3.563   9.450
 5698POPC   PO432460  21.358   3.501   9.150
 5698POPC   GL132461  21.411   3.562   8.850
 5698POPC   GL232462  21.367   3.657   8.850
 5698POPC   C1A32463  21.349   3.575   8.550
 5698POPC   D2A32464  21.391   3.563   8.250
 5698POPC   C3A32465  21.412   3.567   7.950
 5698POPC   C4A32466  21.416   3.525   7.650
 5698POPC   C1B32467  21.249   3.804   8.550
 5698POPC   C2B32468  21.264   3.734   8.250
 5698POPC   C3B32469  21.284   3.733   7.950
 5698POPC   C4B32470  21.254   3.725   7.650
 5699POPC   NC332471  24.499   2.766   9.450
 5699POPC   PO432472  24.474   2.800   9.150
 5699POPC   GL132473  24.495   2.808   8.850
 5699POPC   GL232474  24.434   2.932   8.850
 5699POPC   C1A32475  24.491   2.815   8.550
 5699POPC   D2A32476  24.451   2.718   8.250
 5699POPC   C3A32477  24.475   2.795   7.950
 5699POPC   C4A32478  24.493   2.728   7.650
 5699POPC   C1B32479  24.406   3.052   8.550
 5699POPC   C2B32480  24.422   3.045   8.250
 5699POPC   C3B32481  24.430   2.985   7.950
 5699POPC   C4B32482  24.404   3.012   7.650
 5700POPC   NC332483   6.687  42.321   9.450
 5700POPC   PO432484   6.677  42.328   9.150
 5700POPC   GL132485   6.634  42.358   8.850
 5700POPC   GL232486   6.634  42.201   8.850
 5700POPC   C1A32487   6.690  42.361   8.550
 5700POPC   D2A32488   6.606  42.311   8.250
 5700POPC   C3A32489   6.660  42.321   7.950
 5700POPC   C4A32490   6.669  42.356   7.650
 5700POPC   C1B32491   6.671  42.048   8.550
 5700POPC   C2B32492   6.642  42.116   8.250
 5700POPC   C3B32493   6.680  42.043   7.950
 5700POPC   C4B32494   6.695  42.063   7.650
 5701POPC   NC332495   2.780  31.465   9.450
 5701POPC   PO432496   2.730  31.480   9.150
 5701POPC   GL132497   2.717  31.467   8.850
 5701POPC   GL232498   2.674  31.446   8.850
 5701POPC   C1A32499   2.773  31.484   8.550
 5701POPC   D2A32500   2.737  31.432   8.250
 5701POPC   C3A32501   2.773  31.470   7.950
 5701POPC   C4A32502   2.736  31.475   7.650
 5701POPC   C1B32503   2.555  31.548   8.550
 5701POPC   C2B32504   2.482  31.559   8.250
 5701POPC   C3B32505   2.492  31.534   7.950
 5701POPC   C4B32506   2.478  31.522   7.650
 5702POPC   NC332507  21.424  27.635   9.450
 5702POPC   PO432508  21.376  27.575   9.150
 5702POPC   GL132509  21.341  27.621   8.850
 5702POPC   GL232510  21.453  27.695   8.850
 5702POPC   C1A32511  21.357  27.621   8.550
 5702POPC   D2A32512  21.420  27.587   8.250
 5702POPC   C3A32513  21.385  27.557   7.950
 5702POPC   C4A32514  21.336  27.594   7.650
 5702POPC   C1B32515  21.639  27.747   8.550
 5702POPC   C2B32516  21.658  27.739   8.250
 5702POPC   C3B32517  21.637  27.752   7.950
 5702POPC   C4B32518  21.627  27.718   7.650
 5703POPC   NC332519  35.342  36.134   9.450
 5703POPC   PO432520  35.380  36.112   9.150
 5703POPC   GL132521  35.313  36.119   8.850
 5703POPC   GL232522  35.303  36.070   8.850
 5703POPC   C1A32523  35.337  36.090   8.550
 5703POPC   D2A32524  35.392  36.118   8.250
 5703POPC   C3A32525  35.382  36.116   7.950
 5703POPC   C4A32526  35.377  36.125   7.650
 5703POPC   C1B32527  35.231  35.975   8.550
 5703POPC   C2B32528  35.219  35.932   8.250
 5703POPC   C3B32529  35.163  35.951   7.950
 5703POPC   C4B32530  35.226  35.961   7.650
 5704POPC   NC332531  21.425   6.665   9.450
 5704POPC   PO432532  21.428   6.693   9.150
 5704POPC   GL132533  21.346   6.599   8.850
 5704POPC   GL232534  21.247   6.714   8.850
 5704POPC   C1A32535  21.379   6.677   8.550
 5704POPC   D2A32536  21.374   6.676   8.250
 5704POPC   C3A32537  21.339   6.646   7.950
 5704POPC   C4A32538  21.372   6.694   7.650
 5704POPC   C1B32539  21.133   6.696   8.550
 5704POPC   C2B32540  21.154   6.740   8.250
 5704POPC   C3B32541  21.096   6.756   7.950
 5704POPC   C4B32542  21.094   6.695   7.650
 5705POPC   NC332543   4.332  22.140   9.450
 5705POPC   PO432544   4.271  22.202   9.150
 5705POPC   GL132545   4.317  22.207   8.850
 5705POPC   GL232546   4.254  22.027   8.850
 5705POPC   C1A32547   4.331  22.200   8.550
 5705POPC   D2A32548   4.328  22.193   8.250
 5705POPC   C3A32549   4.303  22.185   7.950
 5705POPC   C4A32550   4.275  22.211   7.650
 5705POPC   C1B32551   4.284  21.942   8.550
 5705POPC   C2B32552   4.204  21.953   8.250
 5705POPC   C3B32553   4.279  21.908   7.950
 5705POPC   C4B32554   4.279  21.892   7.650
 5706POPC   NC332555  35.394  11.258   9.450
 5706POPC   PO432556  35.316  11.283   9.150
 5706POPC   GL132557  35.379  11.303   8.850
 5706POPC   GL232558  35.512  11.242   8.850
 5706POPC   C1A32559  35.319  11.339   8.550
 5706POPC   D2A32560  35.377  11.338   8.250
 5706POPC   C3A32561  35.386  11.324   7.950
 5706POPC   C4A32562  35.394  11.288   7.650
 5706POPC   C1B32563  35.622  11.177   8.550
 5706POPC   C2B32564  35.576  11.231   8.250
 5706POPC   C3B32565  35.601  11.168   7.950
 5706POPC   C4B32566  35.623  11.150   7.650
 5707POPC   NC332567  26.808  19.010   9.450
 5707POPC   PO432568  26.835  19.031   9.150
 5707POPC   GL132569  26.836  19.068   8.850
 5707POPC   GL232570  26.764  18.922   8.850
 5707POPC   C1A32571  26.863  19.106   8.550
 5707POPC   D2A32572  26.820  19.028   8.250
 5707POPC   C3A32573  26.806  19.031   7.950
 5707POPC   C4A32574  26.810  19.039   7.650
 5707POPC   C1B32575  26.788  18.773   8.550
 5707POPC   C2B32576  26.803  18.815   8.250
 5707POPC   C3B32577  26.765  18.816   7.950
 5707POPC   C4B32578  26.758  18.820   7.650
 5708POPC   NC332579   9.704  40.042   9.450
 5708POPC   PO432580   9.775  40.007   9.150
 5708POPC   GL132581   9.756  39.990   8.850
 5708POPC   GL232582   9.853  40.067   8.850
 5708POPC   C1A32583   9.704  40.019   8.550
 5708POPC   D2A32584   9.714  39.967   8.250
 5708POPC   C3A32585   9.741  40.050   7.950
 5708POPC   C4A32586   9.772  39.993   7.650
 5708POPC   C1B32587   9.952  40.144   8.550
 5708POPC   C2B32588  10.007  40.101   8.250
 5708POPC   C3B32589  10.008  40.115   7.950
 5708POPC   C4B32590   9.959  40.086   7.650
 5709POPC   NC332591  29.931  33.832   9.450
 5709POPC   PO432592  29.957  33.833   9.150
 5709POPC   GL132593  29.918  33.803   8.850
 5709POPC   GL232594  29.958  33.686   8.850
 5709POPC   C1A32595  29.959  33.816   8.550
 5709POPC   D2A32596  29.878  33.837   8.250
 5709POPC   C3A32597  29.949  33.797   7.950
 5709POPC   C4A32598  29.912  33.834   7.650
 5709POPC   C1B32599  29.927  33.536   8.550
 5709POPC   C2B32600  29.966  33.570   8.250
 5709POPC   C3B32601  29.973  33.567   7.950
 5709POPC   C4B32602  29.957  33.509   7.650
 5710POPC   NC332603  19.802  28.370   9.450
 5710POPC   PO432604  19.875  28.378   9.150
 5710POPC   GL132605  19.865  28.405   8.850
 5710POPC   GL232606  19.882  28.413   8.850
 5710POPC   C1A32607  19.801  28.387   8.550
 5710POPC   D2A32608  19.808  28.377   8.250
 5710POPC   C3A32609  19.789  28.413   7.950
 5710POPC   C4A32610  19.807  28.394   7.650
 5710POPC   C1B32611  19.965  28.530   8.550
 5710POPC   C2B32612  19.958  28.564   8.250
 5710POPC   C3B32613  20.015  28.576   7.950
 5710POPC   C4B32614  19.986  28.519   7.650
 5711POPC   NC332615  25.276  15.229   9.450
 5711POPC   PO432616  25.310  15.204   9.150
 5711POPC   GL132617  25.291  15.214   8.850
 5711POPC   GL232618  25.264  15.059   8.850
 5711POPC   C1A32619  25.302  15.189   8.550
 5711POPC   D2A32620  25.262  15.159   8.250
 5711POPC   C3A32621  25.267  15.184   7.950
 5711POPC   C4A32622  25.273  15.132   7.650
 5711POPC   C1B32623  25.254  14.888   8.550
 5711POPC   C2B32624  25.265  14.903   8.250
 5711POPC   C3B32625  25.234  14.890   7.950
 5711POPC   C4B32626  25.246  14.960   7.650
 5712POPC   NC332627  17.556  36.919   9.450
 5712POPC   PO432628  17.502  36.933   9.150
 5712POPC   GL132629  17.460  36.914   8.850
 5712POPC   GL232630  17.613  36.951   8.850
 5712POPC   C1A32631  17.475  36.943   8.550
 5712POPC   D2A32632  17.497  36.885   8.250
 5712POPC   C3A32633  17.534  36.944   7.950
 5712POPC   C4A32634  17.500  36.947   7.650
 5712POPC   C1B32635  17.730  37.012   8.550
 5712POPC   C2B32636  17.714  37.001   8.250
 5712POPC   C3B32637  17.724  36.945   7.950
 5712POPC   C4B32638  17.761  37.015   7.650
 5713POPC   NC332639  19.099  35.347   9.450
 5713POPC   PO432640  19.016  35.327   9.150
 5713POPC   GL132641  19.021  35.347   8.850
 5713POPC   GL232642  18.944  35.349   8.850
 5713POPC   C1A32643  19.081  35.335   8.550
 5713POPC   D2A32644  19.013  35.399   8.250
 5713POPC   C3A32645  19.020  35.356   7.950
 5713POPC   C4A32646  19.036  35.376   7.650
 5713POPC   C1B32647  18.794  35.418   8.550
 5713POPC   C2B32648  18.826  35.418   8.250
 5713POPC   C3B32649  18.807  35.457   7.950
 5713POPC   C4B32650  18.858  35.403   7.650
 5714POPC   NC332651  33.763  41.538   9.450
 5714POPC   PO432652  33.827  41.551   9.150
 5714POPC   GL132653  33.769  41.590   8.850
 5714POPC   GL232654  33.670  41.675   8.850
 5714POPC   C1A32655  33.824  41.574   8.550
 5714POPC   D2A32656  33.788  41.558   8.250
 5714POPC   C3A32657  33.766  41.546   7.950
 5714POPC   C4A32658  33.835  41.516   7.650
 5714POPC   C1B32659  33.597  41.780   8.550
 5714POPC   C2B32660  33.688  41.793   8.250
 5714POPC   C3B32661  33.608  41.738   7.950
 5714POPC   C4B32662  33.647  41.737   7.650
 5715POPC   NC332663  15.180   2.030   9.450
 5715POPC   PO432664  15.161   2.002   9.150
 5715POPC   GL132665  15.222   2.005   8.850
 5715POPC   GL232666  15.037   2.023   8.850
 5715POPC   C1A32667  15.194   1.943   8.550
 5715POPC   D2A32668  15.219   1.995   8.250
 5715POPC   C3A32669  15.151   2.009   7.950
 5715POPC   C4A32670  15.160   1.989   7.650
 5715POPC   C1B32671  14.927   1.990   8.550
 5715POPC   C2B32672  14.957   2.065   8.250
 5715POPC   C3B32673  14.948   2.077   7.950
 5715POPC   C4B32674  14.973   2.082   7.650
 5716POPC   NC332675   5.043  40.011   9.450
 5716POPC   PO432676   5.099  40.019   9.150
 5716POPC   GL132677   5.061  40.003   8.850
 5716POPC   GL232678   4.941  40.098   8.850
 5716POPC   C1A32679   5.062  40.006   8.550
 5716POPC   D2A32680   5.083  40.034   8.250
 5716POPC   C3A32681   5.123  39.975   7.950
 5716POPC   C4A32682   5.129  40.052   7.650
 5716POPC   C1B32683   4.873  40.084   8.550
 5716POPC   C2B32684   4.814  40.114   8.250
 5716POPC   C3B32685   4.872  40.117   7.950
 5716POPC   C4B32686   4.884  40.081   7.650
 5717POPC   NC332687  27.582  11.279   9.450
 5717POPC   PO432688  27.583  11.253   9.150
 5717POPC   GL132689  27.593  11.256   8.850
 5717POPC   GL232690  27.614  11.415   8.850
 5717POPC   C1A32691  27.556  11.260   8.550
 5717POPC   D2A32692  27.617  11.260   8.250
 5717POPC   C3A32693  27.575  11.283   7.950
 5717POPC   C4A32694  27.570  11.294   7.650
 5717POPC   C1B32695  27.649  11.498   8.550
 5717POPC   C2B32696  27.668  11.561   8.250
 5717POPC   C3B32697  27.659  11.498   7.950
 5717POPC   C4B32698  27.702  11.579   7.650
 5718POPC   NC332699  35.401  13.654   9.450
 5718POPC   PO432700  35.379  13.655   9.150
 5718POPC   GL132701  35.318  13.585   8.850
 5718POPC   GL232702  35.246  13.527   8.850
 5718POPC   C1A32703  35.364  13.587   8.550
 5718POPC   D2A32704  35.383  13.590   8.250
 5718POPC   C3A32705  35.309  13.590   7.950
 5718POPC   C4A32706  35.323  13.652   7.650
 5718POPC   C1B32707  35.083  13.532   8.550
 5718POPC   C2B32708  35.101  13.531   8.250
 5718POPC   C3B32709  35.137  13.491   7.950
 5718POPC   C4B32710  35.111  13.482   7.650
 5719POPC   NC332711   5.126   1.979   9.450
 5719POPC   PO432712   5.136   1.979   9.150
 5719POPC   GL132713   5.125   2.033   8.850
 5719POPC   GL232714   5.016   2.043   8.850
 5719POPC   C1A32715   5.056   1.988   8.550
 5719POPC   D2A32716   5.118   2.007   8.250
 5719POPC   C3A32717   5.113   1.983   7.950
 5719POPC   C4A32718   5.129   1.971   7.650
 5719POPC   C1B32719   4.895   2.137   8.550
 5719POPC   C2B32720   4.840   2.090   8.250
 5719POPC   C3B32721   4.848   2.150   7.950
 5719POPC   C4B32722   4.867   2.159   7.650
 5720POPC   NC332723  10.550   7.381   9.450
 5720POPC   PO432724  10.535   7.398   9.150
 5720POPC   GL132725  10.535   7.413   8.850
 5720POPC   GL232726  10.440   7.430   8.850
 5720POPC   C1A32727  10.506   7.455   8.550
 5720POPC   D2A32728  10.512   7.428   8.250
 5720POPC   C3A32729  10.543   7.470   7.950
 5720POPC   C4A32730  10.546   7.428   7.650
 5720POPC   C1B32731  10.234   7.390   8.550
 5720POPC   C2B32732  10.305   7.359   8.250
 5720POPC   C3B32733  10.310   7.373   7.950
 5720POPC   C4B32734  10.315   7.366   7.650
 5721POPC   NC332735  15.962  25.311   9.450
 5721POPC   PO432736  15.918  25.241   9.150
 5721POPC   GL132737  15.994  25.221   8.850
 5721POPC   GL232738  16.074  25.210   8.850
 5721POPC   C1A32739  15.913  25.305   8.550
 5721POPC   D2A32740  15.972  25.284   8.250
 5721POPC   C3A32741  15.939  25.309   7.950
 5721POPC   C4A32742  15.947  25.248   7.650
 5721POPC   C1B32743  16.171  25.283   8.550
 5721POPC   C2B32744  16.252  25.297   8.250
 5721POPC   C3B32745  16.173  25.249   7.950
 5721POPC   C4B32746  16.211  25.296   7.650
 5722POPC   NC332747  22.173  41.571   9.450
 5722POPC   PO432748  22.157  41.547   9.150
 5722POPC   GL132749  22.124  41.582   8.850
 5722POPC   GL232750  22.221  41.433   8.850
 5722POPC   C1A32751  22.134  41.527   8.550
 5722POPC   D2A32752  22.138  41.592   8.250
 5722POPC   C3A32753  22.187  41.533   7.950
 5722POPC   C4A32754  22.143  41.573   7.650
 5722POPC   C1B32755  22.304  41.343   8.550
 5722POPC   C2B32756  22.317  41.305   8.250
 5722POPC   C3B32757  22.328  41.378   7.950
 5722POPC   C4B32758  22.280  41.384   7.650
 5723POPC   NC332759  39.270  26.865   9.450
 5723POPC   PO432760  39.246  26.801   9.150
 5723POPC   GL132761  39.227  26.798   8.850
 5723POPC   GL232762  39.175  26.681   8.850
 5723POPC   C1A32763  39.245  26.842   8.550
 5723POPC   D2A32764  39.275  26.794   8.250
 5723POPC   C3A32765  39.249  26.817   7.950
 5723POPC   C4A32766  39.260  26.822   7.650
 5723POPC   C1B32767  39.124  26.628   8.550
 5723POPC   C2B32768  39.137  26.605   8.250
 5723POPC   C3B32769  39.084  26.577   7.950
 5723POPC   C4B32770  39.113  26.598   7.650
 5724POPC   NC332771   4.296  17.527   9.450
 5724POPC   PO432772   4.285  17.545   9.150
 5724POPC   GL132773   4.340  17.535   8.850
 5724POPC   GL232774   4.296  17.612   8.850
 5724POPC   C1A32775   4.311  17.554   8.550
 5724POPC   D2A32776   4.326  17.556   8.250
 5724POPC   C3A32777   4.340  17.490   7.950
 5724POPC   C4A32778   4.307  17.519   7.650
 5724POPC   C1B32779   4.207  17.702   8.550
 5724POPC   C2B32780   4.156  17.744   8.250
 5724POPC   C3B32781   4.220  17.744   7.950
 5724POPC   C4B32782   4.180  17.706   7.650
 5725POPC   NC332783  24.514  26.045   9.450
 5725POPC   PO432784  24.451  26.076   9.150
 5725POPC   GL132785  24.533  26.018   8.850
 5725POPC   GL232786  24.347  26.109   8.850
 5725POPC   C1A32787  24.451  26.040   8.550
 5725POPC   D2A32788  24.479  26.070   8.250
 5725POPC   C3A32789  24.440  26.074   7.950
 5725POPC   C4A32790  24.471  26.018   7.650
 5725POPC   C1B32791  24.252  26.098   8.550
 5725POPC   C2B32792  24.301  26.125   8.250
 5725POPC   C3B32793  24.259  26.179   7.950
 5725POPC   C4B32794  24.237  26.121   7.650
 5726POPC   NC332795  14.380  36.095   9.450
 5726POPC   PO432796  14.401  36.124   9.150
 5726POPC   GL132797  14.426  36.119   8.850
 5726POPC   GL232798  14.241  36.186   8.850
 5726POPC   C1A32799  14.440  36.101   8.550
 5726POPC   D2A32800  14.354  36.154   8.250
 5726POPC   C3A32801  14.411  36.138   7.950
 5726POPC   C4A32802  14.360  36.124   7.650
 5726POPC   C1B32803  14.195  36.149   8.550
 5726POPC   C2B32804  14.118  36.164   8.250
 5726POPC   C3B32805  14.200  36.152   7.950
 5726POPC   C4B32806  14.118  36.187   7.650
 5727POPC   NC332807  26.008   5.071   9.450
 5727POPC   PO432808  26.084   5.091   9.150
 5727POPC   GL132809  26.063   5.081   8.850
 5727POPC   GL232810  25.999   5.225   8.850
 5727POPC   C1A32811  26.039   5.137   8.550
 5727POPC   D2A32812  25.992   5.064   8.250
 5727POPC   C3A32813  26.022   5.084   7.950
 5727POPC   C4A32814  26.050   5.050   7.650
 5727POPC   C1B32815  26.001   5.357   8.550
 5727POPC   C2B32816  26.043   5.349   8.250
 5727POPC   C3B32817  25.992   5.385   7.950
 5727POPC   C4B32818  26.038   5.329   7.650
 5728POPC   NC332819  39.212  25.314   9.450
 5728POPC   PO432820  39.255  25.262   9.150
 5728POPC   GL132821  39.220  25.255   8.850
 5728POPC   GL232822  39.379  25.252   8.850
 5728POPC   C1A32823  39.228  25.252   8.550
 5728POPC   D2A32824  39.185  25.231   8.250
 5728POPC   C3A32825  39.191  25.298   7.950
 5728POPC   C4A32826  39.221  25.294   7.650
 5728POPC   C1B32827  39.454  25.243   8.550
 5728POPC   C2B32828  39.496  25.215   8.250
 5728POPC   C3B32829  39.499  25.203   7.950
 5728POPC   C4B32830  39.503  25.253   7.650
 5729POPC   NC332831  22.189   6.672   9.450
 5729POPC   PO432832  22.195   6.650   9.150
 5729POPC   GL132833  22.196   6.674   8.850
 5729POPC   GL232834  22.240   6.515   8.850
 5729POPC   C1A32835  22.151   6.693   8.550
 5729POPC   D2A32836  22.145   6.628   8.250
 5729POPC   C3A32837  22.172   6.651   7.950
 5729POPC   C4A32838  22.134   6.666   7.650
 5729POPC   C1B32839  22.284   6.394   8.550
 5729POPC   C2B32840  22.282   6.465   8.250
 5729POPC   C3B32841  22.267   6.428   7.950
 5729POPC   C4B32842  22.273   6.419   7.650
 5730POPC   NC332843  13.623   0.447   9.450
 5730POPC   PO432844  13.610   0.482   9.150
 5730POPC   GL132845  13.610   0.438   8.850
 5730POPC   GL232846  13.603   0.499   8.850
 5730POPC   C1A32847  13.610   0.433   8.550
 5730POPC   D2A32848  13.634   0.413   8.250
 5730POPC   C3A32849  13.674   0.454   7.950
 5730POPC   C4A32850  13.618   0.404   7.650
 5730POPC   C1B32851  13.529   0.635   8.550
 5730POPC   C2B32852  13.545   0.615   8.250
 5730POPC   C3B32853  13.490   0.616   7.950
 5730POPC   C4B32854  13.482   0.700   7.650
 5731POPC   NC332855  10.499  42.295   9.450
 5731POPC   PO432856  10.530  42.294   9.150
 5731POPC   GL132857  10.568  42.346   8.850
 5731POPC   GL232858  10.598  42.271   8.850
 5731POPC   C1A32859  10.548  42.310   8.550
 5731POPC   D2A32860  10.545  42.361   8.250
 5731POPC   C3A32861  10.521  42.331   7.950
 5731POPC   C4A32862  10.541  42.360   7.650
 5731POPC   C1B32863  10.765  42.299   8.550
 5731POPC   C2B32864  10.790  42.256   8.250
 5731POPC   C3B32865  10.809  42.268   7.950
 5731POPC   C4B32866  10.715  42.229   7.650
 5732POPC   NC332867  39.238  39.189   9.450
 5732POPC   PO432868  39.185  39.212   9.150
 5732POPC   GL132869  39.261  39.257   8.850
 5732POPC   GL232870  39.271  39.355   8.850
 5732POPC   C1A32871  39.228  39.231   8.550
 5732POPC   D2A32872  39.215  39.235   8.250
 5732POPC   C3A32873  39.200  39.209   7.950
 5732POPC   C4A32874  39.235  39.280   7.650
 5732POPC   C1B32875  39.291  39.476   8.550
 5732POPC   C2B32876  39.268  39.473   8.250
 5732POPC   C3B32877  39.246  39.522   7.950
 5732POPC   C4B32878  39.271  39.523   7.650
 5733POPC   NC332879  35.304   0.402   9.450
 5733POPC   PO432880  35.358   0.411   9.150
 5733POPC   GL132881  35.332   0.445   8.850
 5733POPC   GL232882  35.300   0.554   8.850
 5733POPC   C1A32883  35.389   0.464   8.550
 5733POPC   D2A32884  35.333   0.399   8.250
 5733POPC   C3A32885  35.370   0.476   7.950
 5733POPC   C4A32886  35.367   0.428   7.650
 5733POPC   C1B32887  35.338   0.658   8.550
 5733POPC   C2B32888  35.368   0.723   8.250
 5733POPC   C3B32889  35.316   0.645   7.950
 5733POPC   C4B32890  35.347   0.714   7.650
 5734POPC   NC332891  26.080  26.780   9.450
 5734POPC   PO432892  26.000  26.777   9.150
 5734POPC   GL132893  26.042  26.767   8.850
 5734POPC   GL232894  26.008  26.695   8.850
 5734POPC   C1A32895  26.080  26.768   8.550
 5734POPC   D2A32896  26.022  26.832   8.250
 5734POPC   C3A32897  26.086  26.792   7.950
 5734POPC   C4A32898  26.090  26.774   7.650
 5734POPC   C1B32899  26.055  26.598   8.550
 5734POPC   C2B32900  26.104  26.606   8.250
 5734POPC   C3B32901  26.100  26.617   7.950
 5734POPC   C4B32902  26.025  26.534   7.650
 5735POPC   NC332903  12.855  40.751   9.450
 5735POPC   PO432904  12.887  40.745   9.150
 5735POPC   GL132905  12.857  40.792   8.850
 5735POPC   GL232906  12.884  40.651   8.850
 5735POPC   C1A32907  12.867  40.821   8.550
 5735POPC   D2A32908  12.832  40.828   8.250
 5735POPC   C3A32909  12.830  40.785   7.950
 5735POPC   C4A32910  12.806  40.829   7.650
 5735POPC   C1B32911  13.062  40.544   8.550
 5735POPC   C2B32912  13.057  40.606   8.250
 5735POPC   C3B32913  13.050  40.606   7.950
 5735POPC   C4B32914  13.044  40.630   7.650
 5736POPC   NC332915   8.965   4.314   9.450
 5736POPC   PO432916   8.985   4.353   9.150
 5736POPC   GL132917   8.951   4.353   8.850
 5736POPC   GL232918   9.039   4.342   8.850
 5736POPC   C1A32919   8.937   4.329   8.550
 5736POPC   D2A32920   8.966   4.339   8.250
 5736POPC   C3A32921   9.013   4.360   7.950
 5736POPC   C4A32922   9.022   4.275   7.650
 5736POPC   C1B32923   9.199   4.428   8.550
 5736POPC   C2B32924   9.225   4.427   8.250
 5736POPC   C3B32925   9.246   4.421   7.950
 5736POPC   C4B32926   9.227   4.392   7.650
 5737POPC   NC332927  17.483  20.570   9.450
 5737POPC   PO432928  17.555  20.579   9.150
 5737POPC   GL132929  17.531  20.655   8.850
 5737POPC   GL232930  17.366  20.570   8.850
 5737POPC   C1A32931  17.521  20.585   8.550
 5737POPC   D2A32932  17.482  20.646   8.250
 5737POPC   C3A32933  17.475  20.566   7.950
 5737POPC   C4A32934  17.536  20.636   7.650
 5737POPC   C1B32935  17.263  20.511   8.550
 5737POPC   C2B32936  17.283  20.555   8.250
 5737POPC   C3B32937  17.261  20.507   7.950
 5737POPC   C4B32938  17.261  20.599   7.650
 5738POPC   NC332939  15.920   0.465   9.450
 5738POPC   PO432940  15.979   0.435   9.150
 5738POPC   GL132941  15.990   0.452   8.850
 5738POPC   GL232942  15.911   0.360   8.850
 5738POPC   C1A32943  15.938   0.422   8.550
 5738POPC   D2A32944  15.932   0.395   8.250
 5738POPC   C3A32945  15.934   0.394   7.950
 5738POPC   C4A32946  15.964   0.393   7.650
 5738POPC   C1B32947  15.893   0.144   8.550
 5738POPC   C2B32948  15.907   0.238   8.250
 5738POPC   C3B32949  15.917   0.173   7.950
 5738POPC   C4B32950  15.865   0.233   7.650
 5739POPC   NC332951  43.096   4.342   9.450
 5739POPC   PO432952  43.114   4.326   9.150
 5739POPC   GL132953  43.089   4.332   8.850
 5739POPC   GL232954  42.997   4.402   8.850
 5739POPC   C1A32955  43.133   4.283   8.550
 5739POPC   D2A32956  43.160   4.277   8.250
 5739POPC   C3A32957  43.083   4.282   7.950
 5739POPC   C4A32958  43.071   4.336   7.650
 5739POPC   C1B32959  42.825   4.394   8.550
 5739POPC   C2B32960  42.859   4.347   8.250
 5739POPC   C3B32961  42.911   4.372   7.950
 5739POPC   C4B32962  42.836   4.427   7.650
 5740POPC   NC332963  33.001  30.651   9.450
 5740POPC   PO432964  33.040  30.672   9.150
 5740POPC   GL132965  32.985  30.673   8.850
 5740POPC   GL232966  33.096  30.790   8.850
 5740POPC   C1A32967  33.043  30.696   8.550
 5740POPC   D2A32968  32.975  30.695   8.250
 5740POPC   C3A32969  33.048  30.731   7.950
 5740POPC   C4A32970  33.046  30.706   7.650
 5740POPC   C1B32971  33.113  30.951   8.550
 5740POPC   C2B32972  33.199  30.920   8.250
 5740POPC   C3B32973  33.202  30.869   7.950
 5740POPC   C4B32974  33.183  30.897   7.650
 5741POPC   NC332975  12.861  24.468   9.450
 5741POPC   PO432976  12.804  24.506   9.150
 5741POPC   GL132977  12.832  24.516   8.850
 5741POPC   GL232978  12.954  24.521   8.850
 5741POPC   C1A32979  12.826  24.456   8.550
 5741POPC   D2A32980  12.851  24.536   8.250
 5741POPC   C3A32981  12.881  24.450   7.950
 5741POPC   C4A32982  12.851  24.514   7.650
 5741POPC   C1B32983  13.005  24.615   8.550
 5741POPC   C2B32984  13.019  24.620   8.250
 5741POPC   C3B32985  13.056  24.619   7.950
 5741POPC   C4B32986  13.035  24.649   7.650
 5742POPC   NC332987   8.203  32.205   9.450
 5742POPC   PO432988   8.229  32.282   9.150
 5742POPC   GL132989   8.221  32.284   8.850
 5742POPC   GL232990   8.157  32.368   8.850
 5742POPC   C1A32991   8.238  32.258   8.550
 5742POPC   D2A32992   8.184  32.238   8.250
 5742POPC   C3A32993   8.161  32.209   7.950
 5742POPC   C4A32994   8.217  32.287   7.650
 5742POPC   C1B32995   8.107  32.503   8.550
 5742POPC   C2B32996   8.152  32.450   8.250
 5742POPC   C3B32997   8.067  32.445   7.950
 5742POPC   C4B32998   8.121  32.487   7.650
 5743POPC   NC332999   4.322  25.251   9.450
 5743POPC   PO433000   4.312  25.291   9.150
 5743POPC   GL133001   4.357  25.257   8.850
 5743POPC   GL233002   4.387  25.140   8.850
 5743POPC   C1A33003   4.295  25.275   8.550
 5743POPC   D2A33004   4.358  25.231   8.250
 5743POPC   C3A33005   4.317  25.259   7.950
 5743POPC   C4A33006   4.366  25.273   7.650
 5743POPC   C1B33007   4.470  25.066   8.550
 5743POPC   C2B33008   4.471  25.007   8.250
 5743POPC   C3B33009   4.486  25.024   7.950
 5743POPC   C4B33010   4.484  25.074   7.650
 5744POPC   NC333011  25.274  18.311   9.450
 5744POPC   PO433012  25.248  18.328   9.150
 5744POPC   GL133013  25.220  18.247   8.850
 5744POPC   GL233014  25.265  18.158   8.850
 5744POPC   C1A33015  25.299  18.233   8.550
 5744POPC   D2A33016  25.230  18.240   8.250
 5744POPC   C3A33017  25.245  18.270   7.950
 5744POPC   C4A33018  25.286  18.297   7.650
 5744POPC   C1B33019  25.183  18.064   8.550
 5744POPC   C2B33020  25.167  18.017   8.250
 5744POPC   C3B33021  25.206  17.997   7.950
 5744POPC   C4B33022  25.185  18.009   7.650
 5745POPC   NC333023  11.343  15.137   9.450
 5745POPC   PO433024  11.333  15.187   9.150
 5745POPC   GL133025  11.274  15.223   8.850
 5745POPC   GL233026  11.254  15.266   8.850
 5745POPC   C1A33027  11.304  15.194   8.550
 5745POPC   D2A33028  11.251  15.179   8.250
 5745POPC   C3A33029  11.344  15.226   7.950
 5745POPC   C4A33030  11.261  15.164   7.650
 5745POPC   C1B33031  11.221  15.378   8.550
 5745POPC   C2B33032  11.254  15.425   8.250
 5745POPC   C3B33033  11.181  15.396   7.950
 5745POPC   C4B33034  11.182  15.376   7.650
 5746POPC   NC333035  29.122   5.046   9.450
 5746POPC   PO433036  29.187   5.067   9.150
 5746POPC   GL133037  29.173   5.140   8.850
 5746POPC   GL233038  29.228   5.201   8.850
 5746POPC   C1A33039  29.117   5.057   8.550
 5746POPC   D2A33040  29.098   5.089   8.250
 5746POPC   C3A33041  29.117   5.044   7.950
 5746POPC   C4A33042  29.145   5.087   7.650
 5746POPC   C1B33043  29.260   5.286   8.550
 5746POPC   C2B33044  29.266   5.315   8.250
 5746POPC   C3B33045  29.196   5.285   7.950
 5746POPC   C4B33046  29.256   5.361   7.650
 5747POPC   NC333047  36.949  26.777   9.450
 5747POPC   PO433048  36.883  26.768   9.150
 5747POPC   GL133049  36.866  26.792   8.850
 5747POPC   GL233050  36.812  26.895   8.850
 5747POPC   C1A33051  36.859  26.834   8.550
 5747POPC   D2A33052  36.927  26.850   8.250
 5747POPC   C3A33053  36.944  26.778   7.950
 5747POPC   C4A33054  36.913  26.840   7.650
 5747POPC   C1B33055  36.813  27.027   8.550
 5747POPC   C2B33056  36.764  27.039   8.250
 5747POPC   C3B33057  36.837  27.007   7.950
 5747POPC   C4B33058  36.788  27.095   7.650
 5748POPC   NC333059   9.007   0.427   9.450
 5748POPC   PO433060   9.016   0.464   9.150
 5748POPC   GL133061   8.999   0.400   8.850
 5748POPC   GL233062   9.067   0.362   8.850
 5748POPC   C1A33063   8.967   0.463   8.550
 5748POPC   D2A33064   8.995   0.452   8.250
 5748POPC   C3A33065   9.008   0.416   7.950
 5748POPC   C4A33066   8.970   0.435   7.650
 5748POPC   C1B33067   9.173   0.307   8.550
 5748POPC   C2B33068   9.227   0.341   8.250
 5748POPC   C3B33069   9.221   0.324   7.950
 5748POPC   C4B33070   9.244   0.312   7.650
 5749POPC   NC333071   4.338  36.106   9.450
 5749POPC   PO433072   4.353  36.083   9.150
 5749POPC   GL133073   4.350  36.166   8.850
 5749POPC   GL233074   4.244  36.194   8.850
 5749POPC   C1A33075   4.331  36.089   8.550
 5749POPC   D2A33076   4.334  36.079   8.250
 5749POPC   C3A33077   4.273  36.173   7.950
 5749POPC   C4A33078   4.301  36.093   7.650
 5749POPC   C1B33079   4.141  36.264   8.550
 5749POPC   C2B33080   4.155  36.256   8.250
 5749POPC   C3B33081   4.111  36.232   7.950
 5749POPC   C4B33082   4.088  36.323   7.650
 5750POPC   NC333083   1.975   6.677   9.450
 5750POPC   PO433084   2.035   6.695   9.150
 5750POPC   GL133085   1.977   6.654   8.850
 5750POPC   GL233086   2.053   6.720   8.850
 5750POPC   C1A33087   1.961   6.618   8.550
 5750POPC   D2A33088   1.969   6.669   8.250
 5750POPC   C3A33089   2.028   6.602   7.950
 5750POPC   C4A33090   1.965   6.680   7.650
 5750POPC   C1B33091   2.070   6.877   8.550
 5750POPC   C2B33092   2.140   6.867   8.250
 5750POPC   C3B33093   2.113   6.851   7.950
 5750POPC   C4B33094   2.085   6.905   7.650
 5751POPC   NC333095   7.388  23.667   9.450
 5751POPC   PO433096   7.418  23.744   9.150
 5751POPC   GL133097   7.410  23.669   8.850
 5751POPC   GL233098   7.400  23.639   8.850
 5751POPC   C1A33099   7.467  23.758   8.550
 5751POPC   D2A33100   7.390  23.763   8.250
 5751POPC   C3A33101   7.441  23.738   7.950
 5751POPC   C4A33102   7.435  23.711   7.650
 5751POPC   C1B33103   7.298  23.525   8.550
 5751POPC   C2B33104   7.313  23.542   8.250
 5751POPC   C3B33105   7.280  23.520   7.950
 5751POPC   C4B33106   7.314  23.487   7.650
 5752POPC   NC333107   5.127  26.779   9.450
 5752POPC   PO433108   5.044  26.802   9.150
 5752POPC   GL133109   5.063  26.833   8.850
 5752POPC   GL233110   4.971  26.743   8.850
 5752POPC   C1A33111   5.076  26.786   8.550
 5752POPC   D2A33112   5.071  26.820   8.250
 5752POPC   C3A33113   5.061  26.817   7.950
 5752POPC   C4A33114   5.056  26.846   7.650
 5752POPC   C1B33115   4.948  26.645   8.550
 5752POPC   C2B33116   4.937  26.657   8.250
 5752POPC   C3B33117   4.943  26.601   7.950
 5752POPC   C4B33118   4.922  26.614   7.650
 5753POPC   NC333119  27.569   9.719   9.450
 5753POPC   PO433120  27.642   9.719   9.150
 5753POPC   GL133121  27.561   9.723   8.850
 5753POPC   GL233122  27.520   9.712   8.850
 5753POPC   C1A33123  27.594   9.725   8.550
 5753POPC   D2A33124  27.578   9.745   8.250
 5753POPC   C3A33125  27.564   9.717   7.950
 5753POPC   C4A33126  27.619   9.726   7.650
 5753POPC   C1B33127  27.345   9.598   8.550
 5753POPC   C2B33128  27.407   9.648   8.250
 5753POPC   C3B33129  27.378   9.671   7.950
 5753POPC   C4B33130  27.335   9.623   7.650
 5754POPC   NC333131  27.579  39.197   9.450
 5754POPC   PO433132  27.588  39.254   9.150
 5754POPC   GL133133  27.590  39.251   8.850
 5754POPC   GL233134  27.477  39.144   8.850
 5754POPC   C1A33135  27.569  39.200   8.550
 5754POPC   D2A33136  27.603  39.226   8.250
 5754POPC   C3A33137  27.560  39.219   7.950
 5754POPC   C4A33138  27.557  39.242   7.650
 5754POPC   C1B33139  27.368  39.128   8.550
 5754POPC   C2B33140  27.344  39.153   8.250
 5754POPC   C3B33141  27.319  39.100   7.950
 5754POPC   C4B33142  27.357  39.188   7.650
 5755POPC   NC333143  30.698  11.309   9.450
 5755POPC   PO433144  30.699  11.275   9.150
 5755POPC   GL133145  30.726  11.334   8.850
 5755POPC   GL233146  30.569  11.409   8.850
 5755POPC   C1A33147  30.710  11.290   8.550
 5755POPC   D2A33148  30.697  11.256   8.250
 5755POPC   C3A33149  30.682  11.345   7.950
 5755POPC   C4A33150  30.647  11.317   7.650
 5755POPC   C1B33151  30.543  11.496   8.550
 5755POPC   C2B33152  30.546  11.474   8.250
 5755POPC   C3B33153  30.502  11.443   7.950
 5755POPC   C4B33154  30.524  11.469   7.650
 5756POPC   NC333155   2.737  32.279   9.450
 5756POPC   PO433156   2.763  32.201   9.150
 5756POPC   GL133157   2.799  32.286   8.850
 5756POPC   GL233158   2.693  32.208   8.850
 5756POPC   C1A33159   2.794  32.253   8.550
 5756POPC   D2A33160   2.777  32.295   8.250
 5756POPC   C3A33161   2.739  32.236   7.950
 5756POPC   C4A33162   2.735  32.261   7.650
 5756POPC   C1B33163   2.549  32.086   8.550
 5756POPC   C2B33164   2.564  32.121   8.250
 5756POPC   C3B33165   2.534  32.053   7.950
 5756POPC   C4B33166   2.578  32.090   7.650
 5757POPC   NC333167   1.247  20.564   9.450
 5757POPC   PO433168   1.258  20.566   9.150
 5757POPC   GL133169   1.189  20.621   8.850
 5757POPC   GL233170   1.163  20.738   8.850
 5757POPC   C1A33171   1.185  20.636   8.550
 5757POPC   D2A33172   1.232  20.648   8.250
 5757POPC   C3A33173   1.192  20.621   7.950
 5757POPC   C4A33174   1.215  20.582   7.650
 5757POPC   C1B33175   1.177  20.870   8.550
 5757POPC   C2B33176   1.168  20.823   8.250
 5757POPC   C3B33177   1.181  20.823   7.950
 5757POPC   C4B33178   1.214  20.819   7.650
 5758POPC   NC333179   7.456   5.045   9.450
 5758POPC   PO433180   7.386   5.077   9.150
 5758POPC   GL133181   7.402   5.096   8.850
 5758POPC   GL233182   7.496   5.204   8.850
 5758POPC   C1A33183   7.446   5.050   8.550
 5758POPC   D2A33184   7.372   5.050   8.250
 5758POPC   C3A33185   7.386   5.079   7.950
 5758POPC   C4A33186   7.381   5.122   7.650
 5758POPC   C1B33187   7.493   5.377   8.550
 5758POPC   C2B33188   7.495   5.375   8.250
 5758POPC   C3B33189   7.532   5.297   7.950
 5758POPC   C4B33190   7.551   5.287   7.650
 5759POPC   NC333191  36.131  42.336   9.450
 5759POPC   PO433192  36.164  42.377   9.150
 5759POPC   GL133193  36.144  42.307   8.850
 5759POPC   GL233194  36.065  42.466   8.850
 5759POPC   C1A33195  36.102  42.315   8.550
 5759POPC   D2A33196  36.092  42.301   8.250
 5759POPC   C3A33197  36.104  42.348   7.950
 5759POPC   C4A33198  36.156  42.384   7.650
 5759POPC   C1B33199  36.006  42.580   8.550
 5759POPC   C2B33200  36.024  42.569   8.250
 5759POPC   C3B33201  36.035  42.596   7.950
 5759POPC   C4B33202  36.078  42.602   7.650
 5760POPC   NC333203  29.169  10.537   9.450
 5760POPC   PO433204  29.185  10.499   9.150
 5760POPC   GL133205  29.112  10.519   8.850
 5760POPC   GL233206  29.043  10.455   8.850
 5760POPC   C1A33207  29.100  10.531   8.550
 5760POPC   D2A33208  29.144  10.521   8.250
 5760POPC   C3A33209  29.148  10.475   7.950
 5760POPC   C4A33210  29.175  10.556   7.650
 5760POPC   C1B33211  29.033  10.311   8.550
 5760POPC   C2B33212  28.994  10.330   8.250
 5760POPC   C3B33213  28.987  10.305   7.950
 5760POPC   C4B33214  29.030  10.371   7.650
 5761POPC   NC333215  26.778  38.435   9.450
 5761POPC   PO433216  26.862  38.486   9.150
 5761POPC   GL133217  26.862  38.451   8.850
 5761POPC   GL233218  26.774  38.561   8.850
 5761POPC   C1A33219  26.779  38.431   8.550
 5761POPC   D2A33220  26.814  38.491   8.250
 5761POPC   C3A33221  26.827  38.418   7.950
 5761POPC   C4A33222  26.846  38.479   7.650
 5761POPC   C1B33223  26.712  38.706   8.550
 5761POPC   C2B33224  26.712  38.680   8.250
 5761POPC   C3B33225  26.730  38.649   7.950
 5761POPC   C4B33226  26.767  38.706   7.650
 5762POPC   NC333227  39.216  44.623   9.450
 5762POPC   PO433228  39.280  44.618   9.150
 5762POPC   GL133229  39.269  44.710   8.850
 5762POPC   GL233230  39.192  44.761   8.850
 5762POPC   C1A33231  39.271  44.706   8.550
 5762POPC   D2A33232  39.220  44.658   8.250
 5762POPC   C3A33233  39.231  44.629   7.950
 5762POPC   C4A33234  39.279  44.684   7.650
 5762POPC   C1B33235  39.180  44.944   8.550
 5762POPC   C2B33236  39.108  44.852   8.250
 5762POPC   C3B33237  39.168  44.908   7.950
 5762POPC   C4B33238  39.177  44.925   7.650
 5763POPC   NC333239   5.077   8.180   9.450
 5763POPC   PO433240   5.057   8.175   9.150
 5763POPC   GL133241   5.064   8.181   8.850
 5763POPC   GL233242   5.164   8.092   8.850
 5763POPC   C1A33243   5.046   8.243   8.550
 5763POPC   D2A33244   5.078   8.216   8.250
 5763POPC   C3A33245   5.133   8.194   7.950
 5763POPC   C4A33246   5.066   8.155   7.650
 5763POPC   C1B33247   5.336   8.060   8.550
 5763POPC   C2B33248   5.352   8.053   8.250
 5763POPC   C3B33249   5.280   8.012   7.950
 5763POPC   C4B33250   5.349   8.101   7.650
 5764POPC   NC333251  10.564  37.664   9.450
 5764POPC   PO433252  10.573  37.712   9.150
 5764POPC   GL133253  10.516  37.637   8.850
 5764POPC   GL233254  10.450  37.709   8.850
 5764POPC   C1A33255  10.498  37.712   8.550
 5764POPC   D2A33256  10.537  37.658   8.250
 5764POPC   C3A33257  10.559  37.688   7.950
 5764POPC   C4A33258  10.478  37.660   7.650
 5764POPC   C1B33259  10.307  37.852   8.550
 5764POPC   C2B33260  10.279  37.870   8.250
 5764POPC   C3B33261  10.343  37.797   7.950
 5764POPC   C4B33262  10.290  37.843   7.650
 5765POPC   NC333263  11.340  18.314   9.450
 5765POPC   PO433264  11.281  18.325   9.150
 5765POPC   GL133265  11.253  18.251   8.850
 5765POPC   GL233266  11.399  18.281   8.850
 5765POPC   C1A33267  11.276  18.263   8.550
 5765POPC   D2A33268  11.262  18.242   8.250
 5765POPC   C3A33269  11.319  18.311   7.950
 5765POPC   C4A33270  11.321  18.321   7.650
 5765POPC   C1B33271  11.573  18.317   8.550
 5765POPC   C2B33272  11.519  18.288   8.250
 5765POPC   C3B33273  11.532  18.318   7.950
 5765POPC   C4B33274  11.542  18.321   7.650
 5766POPC   NC333275   1.247  19.792   9.450
 5766POPC   PO433276   1.165  19.872   9.150
 5766POPC   GL133277   1.259  19.883   8.850
 5766POPC   GL233278   1.261  19.716   8.850
 5766POPC   C1A33279   1.235  19.820   8.550
 5766POPC   D2A33280   1.227  19.858   8.250
 5766POPC   C3A33281   1.240  19.860   7.950
 5766POPC   C4A33282   1.252  19.844   7.650
 5766POPC   C1B33283   1.387  19.610   8.550
 5766POPC   C2B33284   1.409  19.637   8.250
 5766POPC   C3B33285   1.332  19.625   7.950
 5766POPC   C4B33286   1.386  19.656   7.650
 5767POPC   NC333287   9.767   8.205   9.450
 5767POPC   PO433288   9.787   8.229   9.150
 5767POPC   GL133289   9.729   8.246   8.850
 5767POPC   GL233290   9.770   8.076   8.850
 5767POPC   C1A33291   9.739   8.207   8.550
 5767POPC   D2A33292   9.745   8.172   8.250
 5767POPC   C3A33293   9.738   8.236   7.950
 5767POPC   C4A33294   9.701   8.246   7.650
 5767POPC   C1B33295   9.718   7.980   8.550
 5767POPC   C2B33296   9.772   7.973   8.250
 5767POPC   C3B33297   9.724   7.993   7.950
 5767POPC   C4B33298   9.698   7.924   7.650
 5768POPC   NC333299  27.616  25.232   9.450
 5768POPC   PO433300  27.579  25.288   9.150
 5768POPC   GL133301  27.584  25.259   8.850
 5768POPC   GL233302  27.450  25.384   8.850
 5768POPC   C1A33303  27.591  25.305   8.550
 5768POPC   D2A33304  27.555  25.300   8.250
 5768POPC   C3A33305  27.639  25.285   7.950
 5768POPC   C4A33306  27.569  25.312   7.650
 5768POPC   C1B33307  27.374  25.452   8.550
 5768POPC   C2B33308  27.382  25.404   8.250
 5768POPC   C3B33309  27.449  25.374   7.950
 5768POPC   C4B33310  27.386  25.432   7.650
 5769POPC   NC333311  31.491   8.964   9.450
 5769POPC   PO433312  31.441   8.996   9.150
 5769POPC   GL133313  31.469   8.951   8.850
 5769POPC   GL233314  31.557   9.055   8.850
 5769POPC   C1A33315  31.438   9.008   8.550
 5769POPC   D2A33316  31.473   9.002   8.250
 5769POPC   C3A33317  31.439   8.983   7.950
 5769POPC   C4A33318  31.462   8.979   7.650
 5769POPC   C1B33319  31.691   9.112   8.550
 5769POPC   C2B33320  31.630   9.138   8.250
 5769POPC   C3B33321  31.611   9.137   7.950
 5769POPC   C4B33322  31.659   9.116   7.650
 5770POPC   NC333323  30.673  37.710   9.450
 5770POPC   PO433324  30.722  37.637   9.150
 5770POPC   GL133325  30.655  37.705   8.850
 5770POPC   GL233326  30.601  37.544   8.850
 5770POPC   C1A33327  30.661  37.706   8.550
 5770POPC   D2A33328  30.663  37.643   8.250
 5770POPC   C3A33329  30.705  37.683   7.950
 5770POPC   C4A33330  30.722  37.633   7.650
 5770POPC   C1B33331  30.593  37.446   8.550
 5770POPC   C2B33332  30.599  37.492   8.250
 5770POPC   C3B33333  30.613  37.468   7.950
 5770POPC   C4B33334  30.533  37.483   7.650
 5771POPC   NC333335  18.265  25.253   9.450
 5771POPC   PO433336  18.244  25.307   9.150
 5771POPC   GL133337  18.330  25.306   8.850
 5771POPC   GL233338  18.185  25.268   8.850
 5771POPC   C1A33339  18.272  25.234   8.550
 5771POPC   D2A33340  18.318  25.267   8.250
 5771POPC   C3A33341  18.305  25.231   7.950
 5771POPC   C4A33342  18.312  25.281   7.650
 5771POPC   C1B33343  18.081  25.302   8.550
 5771POPC   C2B33344  18.044  25.300   8.250
 5771POPC   C3B33345  18.046  25.306   7.950
 5771POPC   C4B33346  18.040  25.316   7.650
 5772POPC   NC333347  11.264  13.672   9.450
 5772POPC   PO433348  11.316  13.581   9.150
 5772POPC   GL133349  11.295  13.628   8.850
 5772POPC   GL233350  11.281  13.733   8.850
 5772POPC   C1A33351  11.320  13.656   8.550
 5772POPC   D2A33352  11.345  13.613   8.250
 5772POPC   C3A33353  11.309  13.648   7.950
 5772POPC   C4A33354  11.251  13.663   7.650
 5772POPC   C1B33355  11.243  13.880   8.550
 5772POPC   C2B33356  11.199  13.853   8.250
 5772POPC   C3B33357  11.214  13.856   7.950
 5772POPC   C4B33358  11.225  13.814   7.650
 5773POPC   NC333359  18.239  21.394   9.450
 5773POPC   PO433360  18.266  21.360   9.150
 5773POPC   GL133361  18.288  21.376   8.850
 5773POPC   GL233362  18.356  21.299   8.850
 5773POPC   C1A33363  18.290  21.398   8.550
 5773POPC   D2A33364  18.289  21.340   8.250
 5773POPC   C3A33365  18.280  21.433   7.950
 5773POPC   C4A33366  18.287  21.377   7.650
 5773POPC   C1B33367  18.461  21.240   8.550
 5773POPC   C2B33368  18.525  21.204   8.250
 5773POPC   C3B33369  18.459  21.239   7.950
 5773POPC   C4B33370  18.528  21.283   7.650
 5774POPC   NC333371  33.753  26.069   9.450
 5774POPC   PO433372  33.762  26.031   9.150
 5774POPC   GL133373  33.831  26.048   8.850
 5774POPC   GL233374  33.943  25.963   8.850
 5774POPC   C1A33375  33.794  26.047   8.550
 5774POPC   D2A33376  33.824  26.084   8.250
 5774POPC   C3A33377  33.823  26.071   7.950
 5774POPC   C4A33378  33.843  26.014   7.650
 5774POPC   C1B33379  33.980  25.954   8.550
 5774POPC   C2B33380  34.028  25.977   8.250
 5774POPC   C3B33381  34.070  25.954   7.950
 5774POPC   C4B33382  34.042  25.930   7.650
 5775POPC   NC333383   7.440   6.635   9.450
 5775POPC   PO433384   7.453   6.632   9.150
 5775POPC   GL133385   7.426   6.641   8.850
 5775POPC   GL233386   7.343   6.748   8.850
 5775POPC   C1A33387   7.451   6.603   8.550
 5775POPC   D2A33388   7.400   6.686   8.250
 5775POPC   C3A33389   7.426   6.695   7.950
 5775POPC   C4A33390   7.446   6.662   7.650
 5775POPC   C1B33391   7.248   6.906   8.550
 5775POPC   C2B33392   7.271   6.873   8.250
 5775POPC   C3B33393   7.295   6.872   7.950
 5775POPC   C4B33394   7.294   6.842   7.650
 5776POPC   NC333395  43.930  19.046   9.450
 5776POPC   PO433396  43.889  19.040   9.150
 5776POPC   GL133397  43.889  19.101   8.850
 5776POPC   GL233398  43.964  19.016   8.850
 5776POPC   C1A33399  43.875  19.033   8.550
 5776POPC   D2A33400  43.845  19.016   8.250
 5776POPC   C3A33401  43.925  19.037   7.950
 5776POPC   C4A33402  43.880  19.037   7.650
 5776POPC   C1B33403  44.104  19.001   8.550
 5776POPC   C2B33404  44.151  19.019   8.250
 5776POPC   C3B33405  44.166  18.939   7.950
 5776POPC   C4B33406  44.115  18.925   7.650
 5777POPC   NC333407  33.058  43.082   9.450
 5777POPC   PO433408  33.044  43.147   9.150
 5777POPC   GL133409  33.044  43.074   8.850
 5777POPC   GL233410  33.164  43.105   8.850
 5777POPC   C1A33411  33.061  43.150   8.550
 5777POPC   D2A33412  33.051  43.114   8.250
 5777POPC   C3A33413  32.995  43.107   7.950
 5777POPC   C4A33414  32.978  43.130   7.650
 5777POPC   C1B33415  33.246  43.112   8.550
 5777POPC   C2B33416  33.256  43.106   8.250
 5777POPC   C3B33417  33.282  43.076   7.950
 5777POPC   C4B33418  33.238  43.140   7.650
 5778POPC   NC333419  22.958  29.193   9.450
 5778POPC   PO433420  22.917  29.175   9.150
 5778POPC   GL133421  22.945  29.114   8.850
 5778POPC   GL233422  22.831  29.108   8.850
 5778POPC   C1A33423  22.957  29.109   8.550
 5778POPC   D2A33424  22.929  29.158   8.250
 5778POPC   C3A33425  22.920  29.162   7.950
 5778POPC   C4A33426  22.890  29.185   7.650
 5778POPC   C1B33427  22.670  29.098   8.550
 5778POPC   C2B33428  22.688  29.109   8.250
 5778POPC   C3B33429  22.702  29.087   7.950
 5778POPC   C4B33430  22.684  29.149   7.650
 5779POPC   NC333431  12.039  26.844   9.450
 5779POPC   PO433432  12.047  26.843   9.150
 5779POPC   GL133433  12.122  26.778   8.850
 5779POPC   GL233434  12.179  26.797   8.850
 5779POPC   C1A33435  12.081  26.768   8.550
 5779POPC   D2A33436  12.078  26.865   8.250
 5779POPC   C3A33437  12.073  26.844   7.950
 5779POPC   C4A33438  12.069  26.799   7.650
 5779POPC   C1B33439  12.279  26.788   8.550
 5779POPC   C2B33440  12.326  26.762   8.250
 5779POPC   C3B33441  12.340  26.801   7.950
 5779POPC   C4B33442  12.330  26.721   7.650
 5780POPC   NC333443  29.186  32.272   9.450
 5780POPC   PO433444  29.172  32.261   9.150
 5780POPC   GL133445  29.126  32.219   8.850
 5780POPC   GL233446  29.122  32.133   8.850
 5780POPC   C1A33447  29.101  32.265   8.550
 5780POPC   D2A33448  29.108  32.231   8.250
 5780POPC   C3A33449  29.127  32.200   7.950
 5780POPC   C4A33450  29.191  32.297   7.650
 5780POPC   C1B33451  29.174  32.032   8.550
 5780POPC   C2B33452  29.130  32.035   8.250
 5780POPC   C3B33453  29.171  32.000   7.950
 5780POPC   C4B33454  29.129  31.952   7.650
 5781POPC   NC333455   6.691  15.963   9.450
 5781POPC   PO433456   6.675  15.928   9.150
 5781POPC   GL133457   6.639  15.912   8.850
 5781POPC   GL233458   6.748  16.034   8.850
 5781POPC   C1A33459   6.674  15.926   8.550
 5781POPC   D2A33460   6.604  15.946   8.250
 5781POPC   C3A33461   6.631  15.936   7.950
 5781POPC   C4A33462   6.611  15.986   7.650
 5781POPC   C1B33463   6.846  16.034   8.550
 5781POPC   C2B33464   6.904  16.087   8.250
 5781POPC   C3B33465   6.831  16.066   7.950
 5781POPC   C4B33466   6.866  16.090   7.650
 5782POPC   NC333467  31.439  31.518   9.450
 5782POPC   PO433468  31.517  31.441   9.150
 5782POPC   GL133469  31.514  31.477   8.850
 5782POPC   GL233470  31.460  31.552   8.850
 5782POPC   C1A33471  31.507  31.432   8.550
 5782POPC   D2A33472  31.500  31.435   8.250
 5782POPC   C3A33473  31.481  31.437   7.950
 5782POPC   C4A33474  31.509  31.508   7.650
 5782POPC   C1B33475  31.367  31.683   8.550
 5782POPC   C2B33476  31.451  31.707   8.250
 5782POPC   C3B33477  31.367  31.670   7.950
 5782POPC   C4B33478  31.447  31.675   7.650
 5783POPC   NC333479  28.412  40.734   9.450
 5783POPC   PO433480  28.384  40.792   9.150
 5783POPC   GL133481  28.351  40.804   8.850
 5783POPC   GL233482  28.240  40.745   8.850
 5783POPC   C1A33483  28.327  40.738   8.550
 5783POPC   D2A33484  28.402  40.830   8.250
 5783POPC   C3A33485  28.328  40.827   7.950
 5783POPC   C4A33486  28.379  40.801   7.650
 5783POPC   C1B33487  28.078  40.755   8.550
 5783POPC   C2B33488  28.101  40.796   8.250
 5783POPC   C3B33489  28.165  40.813   7.950
 5783POPC   C4B33490  28.136  40.824   7.650
 5784POPC   NC333491  26.084  35.352   9.450
 5784POPC   PO433492  26.047  35.355   9.150
 5784POPC   GL133493  26.083  35.358   8.850
 5784POPC   GL233494  26.106  35.280   8.850
 5784POPC   C1A33495  26.032  35.363   8.550
 5784POPC   D2A33496  26.028  35.335   8.250
 5784POPC   C3A33497  26.053  35.372   7.950
 5784POPC   C4A33498  26.044  35.317   7.650
 5784POPC   C1B33499  26.164  35.108   8.550
 5784POPC   C2B33500  26.167  35.164   8.250
 5784POPC   C3B33501  26.206  35.177   7.950
 5784POPC   C4B33502  26.172  35.157   7.650
 5785POPC   NC333503  15.135  10.552   9.450
 5785POPC   PO433504  15.184  10.484   9.150
 5785POPC   GL133505  15.173  10.522   8.850
 5785POPC   GL233506  15.041  10.393   8.850
 5785POPC   C1A33507  15.218  10.504   8.550
 5785POPC   D2A33508  15.213  10.502   8.250
 5785POPC   C3A33509  15.130  10.511   7.950
 5785POPC   C4A33510  15.211  10.540   7.650
 5785POPC   C1B33511  15.020  10.357   8.550
 5785POPC   C2B33512  14.969  10.327   8.250
 5785POPC   C3B33513  14.995  10.346   7.950
 5785POPC   C4B33514  15.038  10.312   7.650
 5786POPC   NC333515  21.418  12.881   9.450
 5786POPC   PO433516  21.355  12.811   9.150
 5786POPC   GL133517  21.425  12.852   8.850
 5786POPC   GL233518  21.545  12.793   8.850
 5786POPC   C1A33519  21.349  12.822   8.550
 5786POPC   D2A33520  21.365  12.852   8.250
 5786POPC   C3A33521  21.394  12.897   7.950
 5786POPC   C4A33522  21.373  12.861   7.650
 5786POPC   C1B33523  21.602  12.800   8.550
 5786POPC   C2B33524  21.641  12.812   8.250
 5786POPC   C3B33525  21.667  12.743   7.950
 5786POPC   C4B33526  21.621  12.809   7.650
 5787POPC   NC333527  16.779   8.929   9.450
 5787POPC   PO433528  16.737   8.988   9.150
 5787POPC   GL133529  16.716   8.930   8.850
 5787POPC   GL233530  16.650   8.969   8.850
 5787POPC   C1A33531  16.725   9.007   8.550
 5787POPC   D2A33532  16.696   8.964   8.250
 5787POPC   C3A33533  16.734   8.938   7.950
 5787POPC   C4A33534  16.745   8.951   7.650
 5787POPC   C1B33535  16.510   8.945   8.550
 5787POPC   C2B33536  16.502   8.875   8.250
 5787POPC   C3B33537  16.537   8.934   7.950
 5787POPC   C4B33538  16.445   8.958   7.650
 5788POPC   NC333539  41.569  22.959   9.450
 5788POPC   PO433540  41.589  22.892   9.150
 5788POPC   GL133541  41.556  22.893   8.850
 5788POPC   GL233542  41.473  22.960   8.850
 5788POPC   C1A33543  41.603  22.956   8.550
 5788POPC   D2A33544  41.605  22.917   8.250
 5788POPC   C3A33545  41.603  22.907   7.950
 5788POPC   C4A33546  41.540  22.901   7.650
 5788POPC   C1B33547  41.332  22.990   8.550
 5788POPC   C2B33548  41.354  22.920   8.250
 5788POPC   C3B33549  41.299  23.007   7.950
 5788POPC   C4B33550  41.355  23.008   7.650
 5789POPC   NC333551  10.493  44.639   9.450
 5789POPC   PO433552  10.505  44.702   9.150
 5789POPC   GL133553  10.504  44.649   8.850
 5789POPC   GL233554  10.654  44.580   8.850
 5789POPC   C1A33555  10.573  44.647   8.550
 5789POPC   D2A33556  10.522  44.696   8.250
 5789POPC   C3A33557  10.560  44.645   7.950
 5789POPC   C4A33558  10.498  44.681   7.650
 5789POPC   C1B33559  10.775  44.519   8.550
 5789POPC   C2B33560  10.754  44.574   8.250
 5789POPC   C3B33561  10.782  44.557   7.950
 5789POPC   C4B33562  10.790  44.539   7.650
 5790POPC   NC333563   8.219   9.724   9.450
 5790POPC   PO433564   8.243   9.795   9.150
 5790POPC   GL133565   8.226   9.719   8.850
 5790POPC   GL233566   8.116   9.698   8.850
 5790POPC   C1A33567   8.175   9.721   8.550
 5790POPC   D2A33568   8.165   9.766   8.250
 5790POPC   C3A33569   8.246   9.758   7.950
 5790POPC   C4A33570   8.202   9.759   7.650
 5790POPC   C1B33571   8.046   9.584   8.550
 5790POPC   C2B33572   7.964   9.601   8.250
 5790POPC   C3B33573   8.039   9.587   7.950
 5790POPC   C4B33574   7.975   9.633   7.650
 5791POPC   NC333575  17.478  14.363   9.450
 5791POPC   PO433576  17.460  14.364   9.150
 5791POPC   GL133577  17.523  14.387   8.850
 5791POPC   GL233578  17.516  14.513   8.850
 5791POPC   C1A33579  17.470  14.406   8.550
 5791POPC   D2A33580  17.472  14.360   8.250
 5791POPC   C3A33581  17.488  14.413   7.950
 5791POPC   C4A33582  17.463  14.435   7.650
 5791POPC   C1B33583  17.513  14.608   8.550
 5791POPC   C2B33584  17.522  14.698   8.250
 5791POPC   C3B33585  17.515  14.633   7.950
 5791POPC   C4B33586  17.502  14.693   7.650
 5792POPC   NC333587  39.971  10.500   9.450
 5792POPC   PO433588  39.998  10.521   9.150
 5792POPC   GL133589  40.021  10.530   8.850
 5792POPC   GL233590  39.959  10.370   8.850
 5792POPC   C1A33591  40.030  10.555   8.550
 5792POPC   D2A33592  39.966  10.519   8.250
 5792POPC   C3A33593  39.980  10.484   7.950
 5792POPC   C4A33594  39.997  10.504   7.650
 5792POPC   C1B33595  39.997  10.300   8.550
 5792POPC   C2B33596  40.019  10.306   8.250
 5792POPC   C3B33597  39.932  10.298   7.950
 5792POPC   C4B33598  39.983  10.285   7.650
 5793POPC   NC333599  39.217   5.873   9.450
 5793POPC   PO433600  39.245   5.826   9.150
 5793POPC   GL133601  39.208   5.876   8.850
 5793POPC   GL233602  39.310   5.837   8.850
 5793POPC   C1A33603  39.218   5.884   8.550
 5793POPC   D2A33604  39.251   5.853   8.250
 5793POPC   C3A33605  39.244   5.916   7.950
 5793POPC   C4A33606  39.198   5.916   7.650
 5793POPC   C1B33607  39.404   5.736   8.550
 5793POPC   C2B33608  39.432   5.753   8.250
 5793POPC   C3B33609  39.471   5.745   7.950
 5793POPC   C4B33610  39.390   5.711   7.650
 5794POPC   NC333611   9.021  43.108   9.450
 5794POPC   PO433612   8.973  43.130   9.150
 5794POPC   GL133613   8.939  43.119   8.850
 5794POPC   GL233614   8.952  42.952   8.850
 5794POPC   C1A33615   8.964  43.062   8.550
 5794POPC   D2A33616   8.938  43.119   8.250
 5794POPC   C3A33617   9.003  43.159   7.950
 5794POPC   C4A33618   8.962  43.094   7.650
 5794POPC   C1B33619   8.835  42.907   8.550
 5794POPC   C2B33620   8.884  42.857   8.250
 5794POPC   C3B33621   8.856  42.901   7.950
 5794POPC   C4B33622   8.874  42.865   7.650
 5795POPC   NC333623  25.276  39.248   9.450
 5795POPC   PO433624  25.230  39.188   9.150
 5795POPC   GL133625  25.307  39.275   8.850
 5795POPC   GL233626  25.288  39.131   8.850
 5795POPC   C1A33627  25.252  39.248   8.550
 5795POPC   D2A33628  25.304  39.210   8.250
 5795POPC   C3A33629  25.255  39.219   7.950
 5795POPC   C4A33630  25.249  39.244   7.650
 5795POPC   C1B33631  25.352  38.975   8.550
 5795POPC   C2B33632  25.326  38.950   8.250
 5795POPC   C3B33633  25.332  38.982   7.950
 5795POPC   C4B33634  25.343  38.975   7.650
 5796POPC   NC333635  30.734  12.097   9.450
 5796POPC   PO433636  30.729  12.100   9.150
 5796POPC   GL133637  30.657  12.080   8.850
 5796POPC   GL233638  30.735  11.921   8.850
 5796POPC   C1A33639  30.693  12.047   8.550
 5796POPC   D2A33640  30.737  12.047   8.250
 5796POPC   C3A33641  30.727  12.091   7.950
 5796POPC   C4A33642  30.669  12.057   7.650
 5796POPC   C1B33643  30.757  11.852   8.550
 5796POPC   C2B33644  30.753  11.863   8.250
 5796POPC   C3B33645  30.806  11.803   7.950
 5796POPC   C4B33646  30.792  11.791   7.650
 5797POPC   NC333647  33.065  27.558   9.450
 5797POPC   PO433648  33.027  27.618   9.150
 5797POPC   GL133649  33.071  27.550   8.850
 5797POPC   GL233650  32.880  27.620   8.850
 5797POPC   C1A33651  33.039  27.558   8.550
 5797POPC   D2A33652  33.072  27.601   8.250
 5797POPC   C3A33653  33.071  27.608   7.950
 5797POPC   C4A33654  33.042  27.579   7.650
 5797POPC   C1B33655  32.794  27.609   8.550
 5797POPC   C2B33656  32.804  27.580   8.250
 5797POPC   C3B33657  32.774  27.575   7.950
 5797POPC   C4B33658  32.791  27.585   7.650
 5798POPC   NC333659  34.574  36.118   9.450
 5798POPC   PO433660  34.548  36.168   9.150
 5798POPC   GL133661  34.551  36.093   8.850
 5798POPC   GL233662  34.458  36.106   8.850
 5798POPC   C1A33663  34.534  36.143   8.550
 5798POPC   D2A33664  34.526  36.084   8.250
 5798POPC   C3A33665  34.554  36.167   7.950
 5798POPC   C4A33666  34.625  36.170   7.650
 5798POPC   C1B33667  34.317  36.167   8.550
 5798POPC   C2B33668  34.282  36.160   8.250
 5798POPC   C3B33669  34.291  36.105   7.950
 5798POPC   C4B33670  34.333  36.186   7.650
 5799POPC   NC333671  21.353  19.022   9.450
 5799POPC   PO433672  21.354  19.045   9.150
 5799POPC   GL133673  21.400  19.068   8.850
 5799POPC   GL233674  21.221  19.015   8.850
 5799POPC   C1A33675  21.382  19.096   8.550
 5799POPC   D2A33676  21.412  19.019   8.250
 5799POPC   C3A33677  21.367  19.106   7.950
 5799POPC   C4A33678  21.374  19.010   7.650
 5799POPC   C1B33679  21.162  19.028   8.550
 5799POPC   C2B33680  21.194  18.941   8.250
 5799POPC   C3B33681  21.177  18.972   7.950
 5799POPC   C4B33682  21.101  18.936   7.650
 5800POPC   NC333683  33.790   5.819   9.450
 5800POPC   PO433684  33.839   5.826   9.150
 5800POPC   GL133685  33.759   5.870   8.850
 5800POPC   GL233686  33.662   5.903   8.850
 5800POPC   C1A33687  33.834   5.881   8.550
 5800POPC   D2A33688  33.839   5.832   8.250
 5800POPC   C3A33689  33.803   5.872   7.950
 5800POPC   C4A33690  33.824   5.825   7.650
 5800POPC   C1B33691  33.568   5.919   8.550
 5800POPC   C2B33692  33.570   5.936   8.250
 5800POPC   C3B33693  33.590   5.942   7.950
 5800POPC   C4B33694  33.512   5.865   7.650
 5801POPC   NC333695  36.900   0.478   9.450
 5801POPC   PO433696  36.907   0.472   9.150
 5801POPC   GL133697  36.865   0.403   8.850
 5801POPC   GL233698  36.801   0.522   8.850
 5801POPC   C1A33699  36.888   0.440   8.550
 5801POPC   D2A33700  36.939   0.415   8.250
 5801POPC   C3A33701  36.947   0.464   7.950
 5801POPC   C4A33702  36.885   0.453   7.650
 5801POPC   C1B33703  36.711   0.534   8.550
 5801POPC   C2B33704  36.704   0.531   8.250
 5801POPC   C3B33705  36.702   0.518   7.950
 5801POPC   C4B33706  36.668   0.518   7.650
 5802POPC   NC333707   5.834  19.829   9.450
 5802POPC   PO433708   5.892  19.793   9.150
 5802POPC   GL133709   5.861  19.829   8.850
 5802POPC   GL233710   5.754  19.800   8.850
 5802POPC   C1A33711   5.850  19.809   8.550
 5802POPC   D2A33712   5.902  19.804   8.250
 5802POPC   C3A33713   5.873  19.841   7.950
 5802POPC   C4A33714   5.915  19.855   7.650
 5802POPC   C1B33715   5.594  19.723   8.550
 5802POPC   C2B33716   5.615  19.702   8.250
 5802POPC   C3B33717   5.671  19.715   7.950
 5802POPC   C4B33718   5.689  19.699   7.650
 5803POPC   NC333719  17.508   3.530   9.450
 5803POPC   PO433720  17.504   3.555   9.150
 5803POPC   GL133721  17.524   3.559   8.850
 5803POPC   GL233722  17.373   3.572   8.850
 5803POPC   C1A33723  17.517   3.547   8.550
 5803POPC   D2A33724  17.492   3.529   8.250
 5803POPC   C3A33725  17.522   3.577   7.950
 5803POPC   C4A33726  17.491   3.540   7.650
 5803POPC   C1B33727  17.234   3.509   8.550
 5803POPC   C2B33728  17.268   3.525   8.250
 5803POPC   C3B33729  17.207   3.580   7.950
 5803POPC   C4B33730  17.301   3.551   7.650
 5804POPC   NC333731  40.794   4.338   9.450
 5804POPC   PO433732  40.777   4.316   9.150
 5804POPC   GL133733  40.738   4.282   8.850
 5804POPC   GL233734  40.799   4.206   8.850
 5804POPC   C1A33735  40.750   4.268   8.550
 5804POPC   D2A33736  40.755   4.288   8.250
 5804POPC   C3A33737  40.817   4.313   7.950
 5804POPC   C4A33738  40.807   4.316   7.650
 5804POPC   C1B33739  40.863   4.034   8.550
 5804POPC   C2B33740  40.798   4.046   8.250
 5804POPC   C3B33741  40.872   4.051   7.950
 5804POPC   C4B33742  40.791   4.109   7.650
 5805POPC   NC333743   0.401   2.746   9.450
 5805POPC   PO433744   0.423   2.795   9.150
 5805POPC   GL133745   0.469   2.796   8.850
 5805POPC   GL233746   0.547   2.700   8.850
 5805POPC   C1A33747   0.458   2.798   8.550
 5805POPC   D2A33748   0.449   2.740   8.250
 5805POPC   C3A33749   0.471   2.781   7.950
 5805POPC   C4A33750   0.458   2.790   7.650
 5805POPC   C1B33751   0.611   2.626   8.550
 5805POPC   C2B33752   0.616   2.567   8.250
 5805POPC   C3B33753   0.632   2.625   7.950
 5805POPC   C4B33754   0.594   2.638   7.650
 5806POPC   NC333755  37.672  40.008   9.450
 5806POPC   PO433756  37.641  40.026   9.150
 5806POPC   GL133757  37.664  39.973   8.850
 5806POPC   GL233758  37.583  39.938   8.850
 5806POPC   C1A33759  37.647  40.016   8.550
 5806POPC   D2A33760  37.676  40.036   8.250
 5806POPC   C3A33761  37.679  40.021   7.950
 5806POPC   C4A33762  37.681  40.004   7.650
 5806POPC   C1B33763  37.569  39.822   8.550
 5806POPC   C2B33764  37.561  39.773   8.250
 5806POPC   C3B33765  37.554  39.805   7.950
 5806POPC   C4B33766  37.618  39.822   7.650
 5807POPC   NC333767  28.380  37.704   9.450
 5807POPC   PO433768  28.348  37.633   9.150
 5807POPC   GL133769  28.381  37.663   8.850
 5807POPC   GL233770  28.512  37.662   8.850
 5807POPC   C1A33771  28.364  37.707   8.550
 5807POPC   D2A33772  28.407  37.723   8.250
 5807POPC   C3A33773  28.333  37.680   7.950
 5807POPC   C4A33774  28.398  37.715   7.650
 5807POPC   C1B33775  28.576  37.655   8.550
 5807POPC   C2B33776  28.564  37.617   8.250
 5807POPC   C3B33777  28.652  37.665   7.950
 5807POPC   C4B33778  28.567  37.655   7.650
 5808POPC   NC333779  12.097  30.709   9.450
 5808POPC   PO433780  12.034  30.704   9.150
 5808POPC   GL133781  12.064  30.665   8.850
 5808POPC   GL233782  12.007  30.593   8.850
 5808POPC   C1A33783  12.114  30.693   8.550
 5808POPC   D2A33784  12.063  30.693   8.250
 5808POPC   C3A33785  12.117  30.731   7.950
 5808POPC   C4A33786  12.050  30.704   7.650
 5808POPC   C1B33787  11.894  30.570   8.550
 5808POPC   C2B33788  11.856  30.555   8.250
 5808POPC   C3B33789  11.914  30.506   7.950
 5808POPC   C4B33790  11.862  30.563   7.650
 5809POPC   NC333791  38.408  29.873   9.450
 5809POPC   PO433792  38.408  29.883   9.150
 5809POPC   GL133793  38.505  29.957   8.850
 5809POPC   GL233794  38.518  30.055   8.850
 5809POPC   C1A33795  38.502  29.886   8.550
 5809POPC   D2A33796  38.457  29.952   8.250
 5809POPC   C3A33797  38.440  29.918   7.950
 5809POPC   C4A33798  38.432  29.913   7.650
 5809POPC   C1B33799  38.457  30.152   8.550
 5809POPC   C2B33800  38.541  30.164   8.250
 5809POPC   C3B33801  38.526  30.162   7.950
 5809POPC   C4B33802  38.512  30.217   7.650
 5810POPC   NC333803  14.359  36.912   9.450
 5810POPC   PO433804  14.440  36.940   9.150
 5810POPC   GL133805  14.451  36.909   8.850
 5810POPC   GL233806  14.315  36.767   8.850
 5810POPC   C1A33807  14.358  36.906   8.550
 5810POPC   D2A33808  14.437  36.877   8.250
 5810POPC   C3A33809  14.437  36.856   7.950
 5810POPC   C4A33810  14.390  36.863   7.650
 5810POPC   C1B33811  14.241  36.679   8.550
 5810POPC   C2B33812  14.234  36.662   8.250
 5810POPC   C3B33813  14.261  36.689   7.950
 5810POPC   C4B33814  14.256  36.741   7.650
 5811POPC   NC333815  25.996  29.152   9.450
 5811POPC   PO433816  25.992  29.131   9.150
 5811POPC   GL133817  26.017  29.192   8.850
 5811POPC   GL233818  26.108  29.184   8.850
 5811POPC   C1A33819  26.005  29.101   8.550
 5811POPC   D2A33820  26.050  29.174   8.250
 5811POPC   C3A33821  26.018  29.159   7.950
 5811POPC   C4A33822  26.007  29.113   7.650
 5811POPC   C1B33823  26.261  29.233   8.550
 5811POPC   C2B33824  26.218  29.276   8.250
 5811POPC   C3B33825  26.239  29.214   7.950
 5811POPC   C4B33826  26.219  29.221   7.650
 5812POPC   NC333827  31.497  33.848   9.450
 5812POPC   PO433828  31.470  33.798   9.150
 5812POPC   GL133829  31.500  33.793   8.850
 5812POPC   GL233830  31.432  33.945   8.850
 5812POPC   C1A33831  31.432  33.848   8.550
 5812POPC   D2A33832  31.473  33.751   8.250
 5812POPC   C3A33833  31.520  33.791   7.950
 5812POPC   C4A33834  31.474  33.778   7.650
 5812POPC   C1B33835  31.362  34.060   8.550
 5812POPC   C2B33836  31.364  34.032   8.250
 5812POPC   C3B33837  31.361  34.049   7.950
 5812POPC   C4B33838  31.385  34.056   7.650
 5813POPC   NC333839  21.378  15.971   9.450
 5813POPC   PO433840  21.388  15.946   9.150
 5813POPC   GL133841  21.368  15.964   8.850
 5813POPC   GL233842  21.324  16.010   8.850
 5813POPC   C1A33843  21.367  15.995   8.550
 5813POPC   D2A33844  21.419  15.906   8.250
 5813POPC   C3A33845  21.369  15.945   7.950
 5813POPC   C4A33846  21.421  15.945   7.650
 5813POPC   C1B33847  21.138  16.056   8.550
 5813POPC   C2B33848  21.199  16.066   8.250
 5813POPC   C3B33849  21.209  16.082   7.950
 5813POPC   C4B33850  21.118  16.059   7.650
 5814POPC   NC333851  37.692  30.697   9.450
 5814POPC   PO433852  37.666  30.703   9.150
 5814POPC   GL133853  37.692  30.650   8.850
 5814POPC   GL233854  37.765  30.741   8.850
 5814POPC   C1A33855  37.648  30.733   8.550
 5814POPC   D2A33856  37.709  30.712   8.250
 5814POPC   C3A33857  37.697  30.727   7.950
 5814POPC   C4A33858  37.637  30.661   7.650
 5814POPC   C1B33859  37.957  30.693   8.550
 5814POPC   C2B33860  37.965  30.695   8.250
 5814POPC   C3B33861  37.967  30.760   7.950
 5814POPC   C4B33862  37.928  30.719   7.650
 5815POPC   NC333863  28.418  12.871   9.450
 5815POPC   PO433864  28.399  12.899   9.150
 5815POPC   GL133865  28.385  12.900   8.850
 5815POPC   GL233866  28.356  12.726   8.850
 5815POPC   C1A33867  28.398  12.859   8.550
 5815POPC   D2A33868  28.345  12.852   8.250
 5815POPC   C3A33869  28.399  12.833   7.950
 5815POPC   C4A33870  28.339  12.829   7.650
 5815POPC   C1B33871  28.268  12.601   8.550
 5815POPC   C2B33872  28.295  12.629   8.250
 5815POPC   C3B33873  28.278  12.646   7.950
 5815POPC   C4B33874  28.314  12.594   7.650
 5816POPC   NC333875  40.806  14.357   9.450
 5816POPC   PO433876  40.832  14.396   9.150
 5816POPC   GL133877  40.786  14.415   8.850
 5816POPC   GL233878  40.808  14.558   8.850
 5816POPC   C1A33879  40.794  14.428   8.550
 5816POPC   D2A33880  40.795  14.443   8.250
 5816POPC   C3A33881  40.740  14.441   7.950
 5816POPC   C4A33882  40.818  14.421   7.650
 5816POPC   C1B33883  40.893  14.607   8.550
 5816POPC   C2B33884  40.882  14.658   8.250
 5816POPC   C3B33885  40.890  14.576   7.950
 5816POPC   C4B33886  40.951  14.653   7.650
 5817POPC   NC333887   1.985  27.563   9.450
 5817POPC   PO433888   2.009  27.605   9.150
 5817POPC   GL133889   2.010  27.598   8.850
 5817POPC   GL233890   1.854  27.628   8.850
 5817POPC   C1A33891   2.027  27.576   8.550
 5817POPC   D2A33892   2.001  27.615   8.250
 5817POPC   C3A33893   2.037  27.622   7.950
 5817POPC   C4A33894   1.994  27.595   7.650
 5817POPC   C1B33895   1.717  27.682   8.550
 5817POPC   C2B33896   1.717  27.710   8.250
 5817POPC   C3B33897   1.809  27.694   7.950
 5817POPC   C4B33898   1.768  27.662   7.650
 5818POPC   NC333899   7.380  34.609   9.450
 5818POPC   PO433900   7.419  34.601   9.150
 5818POPC   GL133901   7.395  34.528   8.850
 5818POPC   GL233902   7.503  34.558   8.850
 5818POPC   C1A33903   7.383  34.564   8.550
 5818POPC   D2A33904   7.466  34.555   8.250
 5818POPC   C3A33905   7.387  34.530   7.950
 5818POPC   C4A33906   7.463  34.545   7.650
 5818POPC   C1B33907   7.634  34.613   8.550
 5818POPC   C2B33908   7.716  34.612   8.250
 5818POPC   C3B33909   7.712  34.646   7.950
 5818POPC   C4B33910   7.618  34.644   7.650
 5819POPC   NC333911  39.206  24.514   9.450
 5819POPC   PO433912  39.208  24.501   9.150
 5819POPC   GL133913  39.217  24.455   8.850
 5819POPC   GL233914  39.374  24.376   8.850
 5819POPC   C1A33915  39.224  24.535   8.550
 5819POPC   D2A33916  39.199  24.484   8.250
 5819POPC   C3A33917  39.183  24.491   7.950
 5819POPC   C4A33918  39.237  24.479   7.650
 5819POPC   C1B33919  39.413  24.378   8.550
 5819POPC   C2B33920  39.423  24.320   8.250
 5819POPC   C3B33921  39.443  24.337   7.950
 5819POPC   C4B33922  39.441  24.394   7.650
 5820POPC   NC333923  12.046   8.926   9.450
 5820POPC   PO433924  12.106   8.927   9.150
 5820POPC   GL133925  12.087   8.980   8.850
 5820POPC   GL233926  11.956   9.065   8.850
 5820POPC   C1A33927  12.049   9.012   8.550
 5820POPC   D2A33928  12.060   9.020   8.250
 5820POPC   C3A33929  12.083   9.011   7.950
 5820POPC   C4A33930  12.048   9.006   7.650
 5820POPC   C1B33931  11.849   9.135   8.550
 5820POPC   C2B33932  11.839   9.083   8.250
 5820POPC   C3B33933  11.883   9.132   7.950
 5820POPC   C4B33934  11.838   9.073   7.650
 5821POPC   NC333935   6.678  39.979   9.450
 5821POPC   PO433936   6.679  40.013   9.150
 5821POPC   GL133937   6.666  40.050   8.850
 5821POPC   GL233938   6.721  40.005   8.850
 5821POPC   C1A33939   6.621  39.998   8.550
 5821POPC   D2A33940   6.626  40.040   8.250
 5821POPC   C3A33941   6.628  40.034   7.950
 5821POPC   C4A33942   6.595  40.019   7.650
 5821POPC   C1B33943   6.844  39.897   8.550
 5821POPC   C2B33944   6.884  39.972   8.250
 5821POPC   C3B33945   6.925  39.966   7.950
 5821POPC   C4B33946   6.906  39.975   7.650
 5822POPC   NC333947   5.821   8.971   9.450
 5822POPC   PO433948   5.914   8.951   9.150
 5822POPC   GL133949   5.829   9.002   8.850
 5822POPC   GL233950   5.931   9.052   8.850
 5822POPC   C1A33951   5.852   9.005   8.550
 5822POPC   D2A33952   5.870   9.000   8.250
 5822POPC   C3A33953   5.904   9.016   7.950
 5822POPC   C4A33954   5.889   8.986   7.650
 5822POPC   C1B33955   5.988   9.175   8.550
 5822POPC   C2B33956   5.945   9.236   8.250
 5822POPC   C3B33957   5.985   9.220   7.950
 5822POPC   C4B33958   5.963   9.174   7.650
 5823POPC   NC333959  34.540  34.556   9.450
 5823POPC   PO433960  34.616  34.568   9.150
 5823POPC   GL133961  34.527  34.558   8.850
 5823POPC   GL233962  34.686  34.506   8.850
 5823POPC   C1A33963  34.550  34.548   8.550
 5823POPC   D2A33964  34.541  34.560   8.250
 5823POPC   C3A33965  34.618  34.591   7.950
 5823POPC   C4A33966  34.575  34.540   7.650
 5823POPC   C1B33967  34.732  34.321   8.550
 5823POPC   C2B33968  34.712  34.400   8.250
 5823POPC   C3B33969  34.691  34.350   7.950
 5823POPC   C4B33970  34.709  34.408   7.650
 5824POPC   NC333971  40.764  21.427   9.450
 5824POPC   PO433972  40.828  21.340   9.150
 5824POPC   GL133973  40.753  21.397   8.850
 5824POPC   GL233974  40.864  21.422   8.850
 5824POPC   C1A33975  40.807  21.399   8.550
 5824POPC   D2A33976  40.817  21.430   8.250
 5824POPC   C3A33977  40.820  21.410   7.950
 5824POPC   C4A33978  40.777  21.382   7.650
 5824POPC   C1B33979  41.035  21.396   8.550
 5824POPC   C2B33980  41.014  21.360   8.250
 5824POPC   C3B33981  40.987  21.387   7.950
 5824POPC   C4B33982  41.017  21.347   7.650
 5825POPC   NC333983  24.495  35.375   9.450
 5825POPC   PO433984  24.476  35.314   9.150
 5825POPC   GL133985  24.474  35.304   8.850
 5825POPC   GL233986  24.421  35.237   8.850
 5825POPC   C1A33987  24.493  35.377   8.550
 5825POPC   D2A33988  24.464  35.385   8.250
 5825POPC   C3A33989  24.477  35.302   7.950
 5825POPC   C4A33990  24.467  35.352   7.650
 5825POPC   C1B33991  24.295  35.204   8.550
 5825POPC   C2B33992  24.299  35.198   8.250
 5825POPC   C3B33993  24.292  35.209   7.950
 5825POPC   C4B33994  24.297  35.203   7.650
 5826POPC   NC333995  44.645  14.379   9.450
 5826POPC   PO433996  44.709  14.429   9.150
 5826POPC   GL133997  44.691  14.416   8.850
 5826POPC   GL233998  44.651  14.502   8.850
 5826POPC   C1A33999  44.706  14.438   8.550
 5826POPC   D2A34000  44.639  14.450   8.250
 5826POPC   C3A34001  44.682  14.431   7.950
 5826POPC   C4A34002  44.666  14.398   7.650
 5826POPC   C1B34003  44.646  14.665   8.550
 5826POPC   C2B34004  44.602  14.627   8.250
 5826POPC   C3B34005  44.594  14.687   7.950
 5826POPC   C4B34006  44.636  14.666   7.650
 5827POPC   NC334007  36.126  20.632   9.450
 5827POPC   PO434008  36.093  20.570   9.150
 5827POPC   GL134009  36.143  20.600   8.850
 5827POPC   GL234010  36.133  20.758   8.850
 5827POPC   C1A34011  36.159  20.618   8.550
 5827POPC   D2A34012  36.079  20.624   8.250
 5827POPC   C3A34013  36.091  20.595   7.950
 5827POPC   C4A34014  36.177  20.615   7.650
 5827POPC   C1B34015  36.008  20.814   8.550
 5827POPC   C2B34016  36.050  20.838   8.250
 5827POPC   C3B34017  36.024  20.848   7.950
 5827POPC   C4B34018  36.010  20.887   7.650
 5828POPC   NC334019  18.241   5.893   9.450
 5828POPC   PO434020  18.238   5.861   9.150
 5828POPC   GL134021  18.260   5.889   8.850
 5828POPC   GL234022  18.397   5.825   8.850
 5828POPC   C1A34023  18.280   5.858   8.550
 5828POPC   D2A34024  18.292   5.837   8.250
 5828POPC   C3A34025  18.286   5.850   7.950
 5828POPC   C4A34026  18.299   5.835   7.650
 5828POPC   C1B34027  18.526   5.883   8.550
 5828POPC   C2B34028  18.515   5.837   8.250
 5828POPC   C3B34029  18.567   5.832   7.950
 5828POPC   C4B34030  18.523   5.849   7.650
 5829POPC   NC334031  34.531   2.734   9.450
 5829POPC   PO434032  34.570   2.779   9.150
 5829POPC   GL134033  34.586   2.783   8.850
 5829POPC   GL234034  34.527   2.883   8.850
 5829POPC   C1A34035  34.534   2.773   8.550
 5829POPC   D2A34036  34.587   2.739   8.250
 5829POPC   C3A34037  34.606   2.733   7.950
 5829POPC   C4A34038  34.530   2.752   7.650
 5829POPC   C1B34039  34.558   2.983   8.550
 5829POPC   C2B34040  34.483   2.980   8.250
 5829POPC   C3B34041  34.536   3.018   7.950
 5829POPC   C4B34042  34.564   3.003   7.650
 5830POPC   NC334043  29.147  20.613   9.450
 5830POPC   PO434044  29.110  20.561   9.150
 5830POPC   GL134045  29.187  20.622   8.850
 5830POPC   GL234046  29.031  20.665   8.850
 5830POPC   C1A34047  29.102  20.580   8.550
 5830POPC   D2A34048  29.135  20.638   8.250
 5830POPC   C3A34049  29.098  20.571   7.950
 5830POPC   C4A34050  29.175  20.605   7.650
 5830POPC   C1B34051  28.928  20.634   8.550
 5830POPC   C2B34052  28.866  20.664   8.250
 5830POPC   C3B34053  28.927  20.677   7.950
 5830POPC   C4B34054  28.941  20.665   7.650
 5831POPC   NC334055  38.493  18.237   9.450
 5831POPC   PO434056  38.474  18.326   9.150
 5831POPC   GL134057  38.411  18.321   8.850
 5831POPC   GL234058  38.603  18.301   8.850
 5831POPC   C1A34059  38.481  18.259   8.550
 5831POPC   D2A34060  38.422  18.261   8.250
 5831POPC   C3A34061  38.414  18.307   7.950
 5831POPC   C4A34062  38.481  18.310   7.650
 5831POPC   C1B34063  38.709  18.354   8.550
 5831POPC   C2B34064  38.677  18.362   8.250
 5831POPC   C3B34065  38.723  18.380   7.950
 5831POPC   C4B34066  38.714  18.315   7.650
 5832POPC   NC334067  22.961  26.860   9.450
 5832POPC   PO434068  22.890  26.862   9.150
 5832POPC   GL134069  22.983  26.808   8.850
 5832POPC   GL234070  23.031  26.836   8.850
 5832POPC   C1A34071  22.930  26.846   8.550
 5832POPC   D2A34072  22.914  26.825   8.250
 5832POPC   C3A34073  22.943  26.811   7.950
 5832POPC   C4A34074  22.918  26.833   7.650
 5832POPC   C1B34075  23.186  26.982   8.550
 5832POPC   C2B34076  23.190  26.937   8.250
 5832POPC   C3B34077  23.168  26.996   7.950
 5832POPC   C4B34078  23.160  26.944   7.650
 5833POPC   NC334079  37.703  28.350   9.450
 5833POPC   PO434080  37.701  28.417   9.150
 5833POPC   GL134081  37.686  28.337   8.850
 5833POPC   GL234082  37.631  28.433   8.850
 5833POPC   C1A34083  37.721  28.322   8.550
 5833POPC   D2A34084  37.663  28.334   8.250
 5833POPC   C3A34085  37.665  28.386   7.950
 5833POPC   C4A34086  37.723  28.381   7.650
 5833POPC   C1B34087  37.526  28.600   8.550
 5833POPC   C2B34088  37.608  28.601   8.250
 5833POPC   C3B34089  37.540  28.615   7.950
 5833POPC   C4B34090  37.513  28.593   7.650
 5834POPC   NC334091  17.461   8.173   9.450
 5834POPC   PO434092  17.523   8.217   9.150
 5834POPC   GL134093  17.517   8.206   8.850
 5834POPC   GL234094  17.606   8.091   8.850
 5834POPC   C1A34095  17.484   8.197   8.550
 5834POPC   D2A34096  17.462   8.230   8.250
 5834POPC   C3A34097  17.546   8.197   7.950
 5834POPC   C4A34098  17.555   8.192   7.650
 5834POPC   C1B34099  17.667   7.990   8.550
 5834POPC   C2B34100  17.677   7.989   8.250
 5834POPC   C3B34101  17.629   7.975   7.950
 5834POPC   C4B34102  17.712   8.041   7.650
 5835POPC   NC334103  26.801  21.399   9.450
 5835POPC   PO434104  26.772  21.361   9.150
 5835POPC   GL134105  26.794  21.434   8.850
 5835POPC   GL234106  26.765  21.276   8.850
 5835POPC   C1A34107  26.837  21.388   8.550
 5835POPC   D2A34108  26.795  21.362   8.250
 5835POPC   C3A34109  26.788  21.365   7.950
 5835POPC   C4A34110  26.791  21.404   7.650
 5835POPC   C1B34111  26.657  21.255   8.550
 5835POPC   C2B34112  26.677  21.243   8.250
 5835POPC   C3B34113  26.621  21.234   7.950
 5835POPC   C4B34114  26.688  21.165   7.650
 5836POPC   NC334115  36.878  33.756   9.450
 5836POPC   PO434116  36.927  33.838   9.150
 5836POPC   GL134117  36.903  33.755   8.850
 5836POPC   GL234118  36.885  33.640   8.850
 5836POPC   C1A34119  36.907  33.811   8.550
 5836POPC   D2A34120  36.921  33.835   8.250
 5836POPC   C3A34121  36.859  33.778   7.950
 5836POPC   C4A34122  36.891  33.774   7.650
 5836POPC   C1B34123  36.907  33.575   8.550
 5836POPC   C2B34124  36.870  33.584   8.250
 5836POPC   C3B34125  36.879  33.581   7.950
 5836POPC   C4B34126  36.906  33.529   7.650
 5837POPC   NC334127  22.894  39.979   9.450
 5837POPC   PO434128  22.977  39.999   9.150
 5837POPC   GL134129  22.968  40.028   8.850
 5837POPC   GL234130  22.811  40.106   8.850
 5837POPC   C1A34131  22.949  40.046   8.550
 5837POPC   D2A34132  22.951  39.997   8.250
 5837POPC   C3A34133  22.895  40.038   7.950
 5837POPC   C4A34134  22.910  39.971   7.650
 5837POPC   C1B34135  22.782  40.157   8.550
 5837POPC   C2B34136  22.829  40.222   8.250
 5837POPC   C3B34137  22.754  40.206   7.950
 5837POPC   C4B34138  22.773  40.204   7.650
 5838POPC   NC334139  26.776  27.563   9.450
 5838POPC   PO434140  26.784  27.554   9.150
 5838POPC   GL134141  26.844  27.551   8.850
 5838POPC   GL234142  26.909  27.545   8.850
 5838POPC   C1A34143  26.848  27.627   8.550
 5838POPC   D2A34144  26.802  27.594   8.250
 5838POPC   C3A34145  26.796  27.622   7.950
 5838POPC   C4A34146  26.811  27.632   7.650
 5838POPC   C1B34147  27.041  27.493   8.550
 5838POPC   C2B34148  27.068  27.586   8.250
 5838POPC   C3B34149  27.026  27.535   7.950
 5838POPC   C4B34150  27.063  27.532   7.650
 5839POPC   NC334151   0.455   6.686   9.450
 5839POPC   PO434152   0.449   6.645   9.150
 5839POPC   GL134153   0.419   6.599   8.850
 5839POPC   GL234154   0.579   6.613   8.850
 5839POPC   C1A34155   0.476   6.648   8.550
 5839POPC   D2A34156   0.397   6.639   8.250
 5839POPC   C3A34157   0.425   6.624   7.950
 5839POPC   C4A34158   0.445   6.679   7.650
 5839POPC   C1B34159   0.683   6.642   8.550
 5839POPC   C2B34160   0.736   6.623   8.250
 5839POPC   C3B34161   0.721   6.652   7.950
 5839POPC   C4B34162   0.723   6.676   7.650
 5840POPC   NC334163  12.884  19.050   9.450
 5840POPC   PO434164  12.845  19.065   9.150
 5840POPC   GL134165  12.837  19.044   8.850
 5840POPC   GL234166  12.691  19.024   8.850
 5840POPC   C1A34167  12.901  19.036   8.550
 5840POPC   D2A34168  12.866  19.039   8.250
 5840POPC   C3A34169  12.832  19.064   7.950
 5840POPC   C4A34170  12.896  19.069   7.650
 5840POPC   C1B34171  12.610  19.010   8.550
 5840POPC   C2B34172  12.584  18.976   8.250
 5840POPC   C3B34173  12.625  18.950   7.950
 5840POPC   C4B34174  12.594  18.992   7.650
 5841POPC   NC334175  28.328   8.977   9.450
 5841POPC   PO434176  28.381   8.993   9.150
 5841POPC   GL134177  28.393   9.001   8.850
 5841POPC   GL234178  28.220   8.984   8.850
 5841POPC   C1A34179  28.373   9.020   8.550
 5841POPC   D2A34180  28.323   9.009   8.250
 5841POPC   C3A34181  28.411   8.972   7.950
 5841POPC   C4A34182  28.412   8.945   7.650
 5841POPC   C1B34183  28.084   8.918   8.550
 5841POPC   C2B34184  28.078   8.967   8.250
 5841POPC   C3B34185  28.147   8.934   7.950
 5841POPC   C4B34186  28.109   8.905   7.650
 5842POPC   NC334187   8.242   0.441   9.450
 5842POPC   PO434188   8.184   0.388   9.150
 5842POPC   GL134189   8.183   0.420   8.850
 5842POPC   GL234190   8.224   0.541   8.850
 5842POPC   C1A34191   8.232   0.483   8.550
 5842POPC   D2A34192   8.184   0.435   8.250
 5842POPC   C3A34193   8.164   0.439   7.950
 5842POPC   C4A34194   8.192   0.408   7.650
 5842POPC   C1B34195   8.290   0.639   8.550
 5842POPC   C2B34196   8.346   0.660   8.250
 5842POPC   C3B34197   8.285   0.643   7.950
 5842POPC   C4B34198   8.333   0.669   7.650
 5843POPC   NC334199  21.432  11.326   9.450
 5843POPC   PO434200  21.391  11.310   9.150
 5843POPC   GL134201  21.380  11.253   8.850
 5843POPC   GL234202  21.504  11.195   8.850
 5843POPC   C1A34203  21.424  11.274   8.550
 5843POPC   D2A34204  21.419  11.257   8.250
 5843POPC   C3A34205  21.435  11.324   7.950
 5843POPC   C4A34206  21.351  11.319   7.650
 5843POPC   C1B34207  21.584  11.142   8.550
 5843POPC   C2B34208  21.518  11.121   8.250
 5843POPC   C3B34209  21.581  11.074   7.950
 5843POPC   C4B34210  21.526  11.069   7.650
 5844POPC   NC334211  28.341  29.105   9.450
 5844POPC   PO434212  28.342  29.154   9.150
 5844POPC   GL134213  28.364  29.109   8.850
 5844POPC   GL234214  28.349  29.069   8.850
 5844POPC   C1A34215  28.390  29.191   8.550
 5844POPC   D2A34216  28.334  29.113   8.250
 5844POPC   C3A34217  28.348  29.131   7.950
 5844POPC   C4A34218  28.407  29.179   7.650
 5844POPC   C1B34219  28.401  28.900   8.550
 5844POPC   C2B34220  28.361  28.903   8.250
 5844POPC   C3B34221  28.362  28.926   7.950
 5844POPC   C4B34222  28.335  28.915   7.650
 5845POPC   NC334223  18.327   9.706   9.450
 5845POPC   PO434224  18.299   9.746   9.150
 5845POPC   GL134225  18.311   9.773   8.850
 5845POPC   GL234226  18.348   9.886   8.850
 5845POPC   C1A34227  18.280   9.704   8.550
 5845POPC   D2A34228  18.297   9.720   8.250
 5845POPC   C3A34229  18.292   9.788   7.950
 5845POPC   C4A34230  18.281   9.770   7.650
 5845POPC   C1B34231  18.431   9.928   8.550
 5845POPC   C2B34232  18.369  10.011   8.250
 5845POPC   C3B34233  18.361   9.927   7.950
 5845POPC   C4B34234  18.347   9.928   7.650
 5846POPC   NC334235  13.615  20.583   9.450
 5846POPC   PO434236  13.586  20.658   9.150
 5846POPC   GL134237  13.651  20.570   8.850
 5846POPC   GL234238  13.719  20.750   8.850
 5846POPC   C1A34239  13.629  20.626   8.550
 5846POPC   D2A34240  13.645  20.562   8.250
 5846POPC   C3A34241  13.655  20.622   7.950
 5846POPC   C4A34242  13.610  20.621   7.650
 5846POPC   C1B34243  13.777  20.763   8.550
 5846POPC   C2B34244  13.800  20.837   8.250
 5846POPC   C3B34245  13.829  20.818   7.950
 5846POPC   C4B34246  13.748  20.837   7.650
 5847POPC   NC334247   5.819  21.407   9.450
 5847POPC   PO434248   5.865  21.350   9.150
 5847POPC   GL134249   5.859  21.397   8.850
 5847POPC   GL234250   5.930  21.251   8.850
 5847POPC   C1A34251   5.884  21.380   8.550
 5847POPC   D2A34252   5.889  21.436   8.250
 5847POPC   C3A34253   5.833  21.433   7.950
 5847POPC   C4A34254   5.842  21.370   7.650
 5847POPC   C1B34255   5.922  21.146   8.550
 5847POPC   C2B34256   5.934  21.186   8.250
 5847POPC   C3B34257   5.904  21.151   7.950
 5847POPC   C4B34258   5.918  21.186   7.650
 5848POPC   NC334259  17.530  19.073   9.450
 5848POPC   PO434260  17.547  19.065   9.150
 5848POPC   GL134261  17.547  19.035   8.850
 5848POPC   GL234262  17.472  18.931   8.850
 5848POPC   C1A34263  17.520  19.067   8.550
 5848POPC   D2A34264  17.458  19.107   8.250
 5848POPC   C3A34265  17.539  19.100   7.950
 5848POPC   C4A34266  17.542  19.106   7.650
 5848POPC   C1B34267  17.467  18.808   8.550
 5848POPC   C2B34268  17.444  18.811   8.250
 5848POPC   C3B34269  17.409  18.858   7.950
 5848POPC   C4B34270  17.381  18.798   7.650
 5849POPC   NC334271   4.328  33.012   9.450
 5849POPC   PO434272   4.354  33.041   9.150
 5849POPC   GL134273   4.356  33.001   8.850
 5849POPC   GL234274   4.334  32.849   8.850
 5849POPC   C1A34275   4.272  33.061   8.550
 5849POPC   D2A34276   4.343  33.033   8.250
 5849POPC   C3A34277   4.353  33.043   7.950
 5849POPC   C4A34278   4.357  33.010   7.650
 5849POPC   C1B34279   4.320  32.825   8.550
 5849POPC   C2B34280   4.284  32.749   8.250
 5849POPC   C3B34281   4.267  32.765   7.950
 5849POPC   C4B34282   4.265  32.728   7.650
 5850POPC   NC334283  21.404  29.877   9.450
 5850POPC   PO434284  21.420  29.929   9.150
 5850POPC   GL134285  21.406  29.928   8.850
 5850POPC   GL234286  21.347  30.037   8.850
 5850POPC   C1A34287  21.427  29.878   8.550
 5850POPC   D2A34288  21.435  29.951   8.250
 5850POPC   C3A34289  21.399  29.941   7.950
 5850POPC   C4A34290  21.370  29.892   7.650
 5850POPC   C1B34291  21.282  30.151   8.550
 5850POPC   C2B34292  21.323  30.171   8.250
 5850POPC   C3B34293  21.289  30.177   7.950
 5850POPC   C4B34294  21.296  30.127   7.650
 5851POPC   NC334295  13.675  22.953   9.450
 5851POPC   PO434296  13.644  22.957   9.150
 5851POPC   GL134297  13.642  22.945   8.850
 5851POPC   GL234298  13.664  22.778   8.850
 5851POPC   C1A34299  13.580  22.982   8.550
 5851POPC   D2A34300  13.673  22.902   8.250
 5851POPC   C3A34301  13.635  22.949   7.950
 5851POPC   C4A34302  13.620  22.950   7.650
 5851POPC   C1B34303  13.676  22.702   8.550
 5851POPC   C2B34304  13.602  22.686   8.250
 5851POPC   C3B34305  13.636  22.640   7.950
 5851POPC   C4B34306  13.664  22.711   7.650
 5852POPC   NC334307  29.912   6.600   9.450
 5852POPC   PO434308  29.914   6.656   9.150
 5852POPC   GL134309  29.905   6.654   8.850
 5852POPC   GL234310  30.001   6.536   8.850
 5852POPC   C1A34311  29.966   6.661   8.550
 5852POPC   D2A34312  29.896   6.655   8.250
 5852POPC   C3A34313  29.922   6.630   7.950
 5852POPC   C4A34314  29.953   6.628   7.650
 5852POPC   C1B34315  30.036   6.430   8.550
 5852POPC   C2B34316  30.110   6.451   8.250
 5852POPC   C3B34317  30.045   6.471   7.950
 5852POPC   C4B34318  30.058   6.425   7.650
 5853POPC   NC334319  30.683  43.910   9.450
 5853POPC   PO434320  30.672  43.878   9.150
 5853POPC   GL134321  30.691  43.868   8.850
 5853POPC   GL234322  30.713  43.968   8.850
 5853POPC   C1A34323  30.663  43.863   8.550
 5853POPC   D2A34324  30.652  43.901   8.250
 5853POPC   C3A34325  30.654  43.911   7.950
 5853POPC   C4A34326  30.732  43.884   7.650
 5853POPC   C1B34327  30.703  44.135   8.550
 5853POPC   C2B34328  30.702  44.090   8.250
 5853POPC   C3B34329  30.644  44.185   7.950
 5853POPC   C4B34330  30.711  44.103   7.650
 5854POPC   NC334331  10.481   5.895   9.450
 5854POPC   PO434332  10.512   5.915   9.150
 5854POPC   GL134333  10.486   5.825   8.850
 5854POPC   GL234334  10.393   5.805   8.850
 5854POPC   C1A34335  10.475   5.904   8.550
 5854POPC   D2A34336  10.531   5.898   8.250
 5854POPC   C3A34337  10.515   5.864   7.950
 5854POPC   C4A34338  10.514   5.870   7.650
 5854POPC   C1B34339  10.343   5.744   8.550
 5854POPC   C2B34340  10.310   5.764   8.250
 5854POPC   C3B34341  10.293   5.766   7.950
 5854POPC   C4B34342  10.326   5.758   7.650
 5855POPC   NC334343  37.672  19.854   9.450
 5855POPC   PO434344  37.643  19.858   9.150
 5855POPC   GL134345  37.729  19.785   8.850
 5855POPC   GL234346  37.805  19.922   8.850
 5855POPC   C1A34347  37.654  19.834   8.550
 5855POPC   D2A34348  37.645  19.845   8.250
 5855POPC   C3A34349  37.632  19.855   7.950
 5855POPC   C4A34350  37.669  19.814   7.650
 5855POPC   C1B34351  37.907  19.969   8.550
 5855POPC   C2B34352  37.835  19.985   8.250
 5855POPC   C3B34353  37.902  19.988   7.950
 5855POPC   C4B34354  37.912  20.047   7.650
 5856POPC   NC334355   7.379   8.932   9.450
 5856POPC   PO434356   7.391   8.955   9.150
 5856POPC   GL134357   7.400   8.960   8.850
 5856POPC   GL234358   7.499   9.105   8.850
 5856POPC   C1A34359   7.456   8.991   8.550
 5856POPC   D2A34360   7.396   8.954   8.250
 5856POPC   C3A34361   7.462   8.979   7.950
 5856POPC   C4A34362   7.372   8.958   7.650
 5856POPC   C1B34363   7.478   9.211   8.550
 5856POPC   C2B34364   7.489   9.166   8.250
 5856POPC   C3B34365   7.506   9.198   7.950
 5856POPC   C4B34366   7.503   9.193   7.650
 5857POPC   NC334367  21.393  43.069   9.450
 5857POPC   PO434368  21.418  43.090   9.150
 5857POPC   GL134369  21.360  43.076   8.850
 5857POPC   GL234370  21.326  43.178   8.850
 5857POPC   C1A34371  21.372  43.136   8.550
 5857POPC   D2A34372  21.336  43.105   8.250
 5857POPC   C3A34373  21.429  43.063   7.950
 5857POPC   C4A34374  21.341  43.132   7.650
 5857POPC   C1B34375  21.168  43.230   8.550
 5857POPC   C2B34376  21.205  43.236   8.250
 5857POPC   C3B34377  21.191  43.304   7.950
 5857POPC   C4B34378  21.223  43.302   7.650
 5858POPC   NC334379  23.724  38.503   9.450
 5858POPC   PO434380  23.715  38.458   9.150
 5858POPC   GL134381  23.696  38.462   8.850
 5858POPC   GL234382  23.837  38.315   8.850
 5858POPC   C1A34383  23.733  38.477   8.550
 5858POPC   D2A34384  23.694  38.449   8.250
 5858POPC   C3A34385  23.715  38.419   7.950
 5858POPC   C4A34386  23.736  38.473   7.650
 5858POPC   C1B34387  23.868  38.307   8.550
 5858POPC   C2B34388  23.859  38.288   8.250
 5858POPC   C3B34389  23.913  38.227   7.950
 5858POPC   C4B34390  23.885  38.280   7.650
 5859POPC   NC334391  37.656  26.044   9.450
 5859POPC   PO434392  37.647  26.035   9.150
 5859POPC   GL134393  37.672  26.068   8.850
 5859POPC   GL234394  37.684  25.898   8.850
 5859POPC   C1A34395  37.662  26.039   8.550
 5859POPC   D2A34396  37.719  25.995   8.250
 5859POPC   C3A34397  37.644  26.019   7.950
 5859POPC   C4A34398  37.656  26.084   7.650
 5859POPC   C1B34399  37.690  25.801   8.550
 5859POPC   C2B34400  37.730  25.767   8.250
 5859POPC   C3B34401  37.683  25.775   7.950
 5859POPC   C4B34402  37.766  25.837   7.650
 5860POPC   NC334403  17.465  30.654   9.450
 5860POPC   PO434404  17.551  30.728   9.150
 5860POPC   GL134405  17.533  30.734   8.850
 5860POPC   GL234406  17.466  30.833   8.850
 5860POPC   C1A34407  17.500  30.712   8.550
 5860POPC   D2A34408  17.505  30.664   8.250
 5860POPC   C3A34409  17.529  30.681   7.950
 5860POPC   C4A34410  17.482  30.722   7.650
 5860POPC   C1B34411  17.489  30.974   8.550
 5860POPC   C2B34412  17.505  30.920   8.250
 5860POPC   C3B34413  17.466  30.950   7.950
 5860POPC   C4B34414  17.463  30.983   7.650
 5861POPC   NC334415   2.719  10.478   9.450
 5861POPC   PO434416   2.744  10.482   9.150
 5861POPC   GL134417   2.761  10.517   8.850
 5861POPC   GL234418   2.649  10.463   8.850
 5861POPC   C1A34419   2.720  10.522   8.550
 5861POPC   D2A34420   2.786  10.498   8.250
 5861POPC   C3A34421   2.722  10.504   7.950
 5861POPC   C4A34422   2.723  10.527   7.650
 5861POPC   C1B34423   2.562  10.367   8.550
 5861POPC   C2B34424   2.494  10.445   8.250
 5861POPC   C3B34425   2.492  10.400   7.950
 5861POPC   C4B34426   2.493  10.365   7.650
 5862POPC   NC334427   8.245  41.524   9.450
 5862POPC   PO434428   8.210  41.591   9.150
 5862POPC   GL134429   8.246  41.608   8.850
 5862POPC   GL234430   8.189  41.464   8.850
 5862POPC   C1A34431   8.196  41.525   8.550
 5862POPC   D2A34432   8.161  41.566   8.250
 5862POPC   C3A34433   8.234  41.532   7.950
 5862POPC   C4A34434   8.200  41.526   7.650
 5862POPC   C1B34435   8.160  41.348   8.550
 5862POPC   C2B34436   8.196  41.269   8.250
 5862POPC   C3B34437   8.225  41.267   7.950
 5862POPC   C4B34438   8.163  41.352   7.650
 5863POPC   NC334439   0.404   5.857   9.450
 5863POPC   PO434440   0.400   5.883   9.150
 5863POPC   GL134441   0.429   5.819   8.850
 5863POPC   GL234442   0.497   6.013   8.850
 5863POPC   C1A34443   0.425   5.860   8.550
 5863POPC   D2A34444   0.420   5.895   8.250
 5863POPC   C3A34445   0.424   5.833   7.950
 5863POPC   C4A34446   0.435   5.901   7.650
 5863POPC   C1B34447   0.554   6.129   8.550
 5863POPC   C2B34448   0.551   6.062   8.250
 5863POPC   C3B34449   0.527   6.119   7.950
 5863POPC   C4B34450   0.523   6.072   7.650
 5864POPC   NC334451   5.871  42.353   9.450
 5864POPC   PO434452   5.838  42.374   9.150
 5864POPC   GL134453   5.875  42.307   8.850
 5864POPC   GL234454   5.822  42.425   8.850
 5864POPC   C1A34455   5.888  42.342   8.550
 5864POPC   D2A34456   5.916  42.340   8.250
 5864POPC   C3A34457   5.840  42.289   7.950
 5864POPC   C4A34458   5.846  42.374   7.650
 5864POPC   C1B34459   5.667  42.504   8.550
 5864POPC   C2B34460   5.689  42.544   8.250
 5864POPC   C3B34461   5.675  42.505   7.950
 5864POPC   C4B34462   5.656  42.483   7.650
 5865POPC   NC334463   8.958  33.753   9.450
 5865POPC   PO434464   8.982  33.808   9.150
 5865POPC   GL134465   9.000  33.823   8.850
 5865POPC   GL234466   9.055  33.804   8.850
 5865POPC   C1A34467   8.978  33.765   8.550
 5865POPC   D2A34468   8.997  33.835   8.250
 5865POPC   C3A34469   8.978  33.753   7.950
 5865POPC   C4A34470   8.930  33.825   7.650
 5865POPC   C1B34471   9.247  33.915   8.550
 5865POPC   C2B34472   9.201  33.940   8.250
 5865POPC   C3B34473   9.220  33.927   7.950
 5865POPC   C4B34474   9.182  33.881   7.650
 5866POPC   NC334475  40.809  11.350   9.450
 5866POPC   PO434476  40.807  11.252   9.150
 5866POPC   GL134477  40.754  11.341   8.850
 5866POPC   GL234478  40.647  11.295   8.850
 5866POPC   C1A34479  40.808  11.341   8.550
 5866POPC   D2A34480  40.768  11.317   8.250
 5866POPC   C3A34481  40.757  11.260   7.950
 5866POPC   C4A34482  40.774  11.271   7.650
 5866POPC   C1B34483  40.552  11.225   8.550
 5866POPC   C2B34484  40.562  11.281   8.250
 5866POPC   C3B34485  40.540  11.307   7.950
 5866POPC   C4B34486  40.553  11.287   7.650
 5867POPC   NC334487  19.872  16.760   9.450
 5867POPC   PO434488  19.861  16.742   9.150
 5867POPC   GL134489  19.871  16.780   8.850
 5867POPC   GL234490  19.717  16.654   8.850
 5867POPC   C1A34491  19.814  16.700   8.550
 5867POPC   D2A34492  19.868  16.682   8.250
 5867POPC   C3A34493  19.840  16.762   7.950
 5867POPC   C4A34494  19.835  16.697   7.650
 5867POPC   C1B34495  19.556  16.662   8.550
 5867POPC   C2B34496  19.589  16.676   8.250
 5867POPC   C3B34497  19.564  16.606   7.950
 5867POPC   C4B34498  19.555  16.623   7.650
 5868POPC   NC334499  38.505  40.745   9.450
 5868POPC   PO434500  38.446  40.748   9.150
 5868POPC   GL134501  38.493  40.815   8.850
 5868POPC   GL234502  38.379  40.872   8.850
 5868POPC   C1A34503  38.411  40.825   8.550
 5868POPC   D2A34504  38.433  40.762   8.250
 5868POPC   C3A34505  38.465  40.810   7.950
 5868POPC   C4A34506  38.430  40.786   7.650
 5868POPC   C1B34507  38.325  41.021   8.550
 5868POPC   C2B34508  38.297  41.005   8.250
 5868POPC   C3B34509  38.365  40.949   7.950
 5868POPC   C4B34510  38.318  40.945   7.650
 5869POPC   NC334511  29.106   1.175   9.450
 5869POPC   PO434512  29.149   1.224   9.150
 5869POPC   GL134513  29.149   1.167   8.850
 5869POPC   GL234514  28.990   1.281   8.850
 5869POPC   C1A34515  29.153   1.174   8.550
 5869POPC   D2A34516  29.104   1.180   8.250
 5869POPC   C3A34517  29.183   1.206   7.950
 5869POPC   C4A34518  29.107   1.240   7.650
 5869POPC   C1B34519  28.903   1.309   8.550
 5869POPC   C2B34520  28.918   1.312   8.250
 5869POPC   C3B34521  28.953   1.375   7.950
 5869POPC   C4B34522  28.933   1.309   7.650
 5870POPC   NC334523  22.956   5.910   9.450
 5870POPC   PO434524  22.892   5.826   9.150
 5870POPC   GL134525  22.930   5.855   8.850
 5870POPC   GL234526  22.940   5.737   8.850
 5870POPC   C1A34527  22.889   5.916   8.550
 5870POPC   D2A34528  22.937   5.821   8.250
 5870POPC   C3A34529  22.947   5.914   7.950
 5870POPC   C4A34530  22.956   5.852   7.650
 5870POPC   C1B34531  22.874   5.626   8.550
 5870POPC   C2B34532  22.884   5.614   8.250
 5870POPC   C3B34533  22.952   5.625   7.950
 5870POPC   C4B34534  22.903   5.656   7.650
 5871POPC   NC334535  25.257  19.054   9.450
 5871POPC   PO434536  25.276  19.087   9.150
 5871POPC   GL134537  25.263  19.063   8.850
 5871POPC   GL234538  25.304  19.171   8.850
 5871POPC   C1A34539  25.271  19.027   8.550
 5871POPC   D2A34540  25.242  19.094   8.250
 5871POPC   C3A34541  25.283  19.052   7.950
 5871POPC   C4A34542  25.278  19.013   7.650
 5871POPC   C1B34543  25.350  19.259   8.550
 5871POPC   C2B34544  25.340  19.293   8.250
 5871POPC   C3B34545  25.367  19.287   7.950
 5871POPC   C4B34546  25.414  19.329   7.650
 5872POPC   NC334547  18.237  29.948   9.450
 5872POPC   PO434548  18.258  29.949   9.150
 5872POPC   GL134549  18.294  29.957   8.850
 5872POPC   GL234550  18.427  29.965   8.850
 5872POPC   C1A34551  18.291  29.923   8.550
 5872POPC   D2A34552  18.305  29.935   8.250
 5872POPC   C3A34553  18.259  29.930   7.950
 5872POPC   C4A34554  18.309  29.907   7.650
 5872POPC   C1B34555  18.557  30.002   8.550
 5872POPC   C2B34556  18.577  29.950   8.250
 5872POPC   C3B34557  18.574  29.956   7.950
 5872POPC   C4B34558  18.561  29.929   7.650
 5873POPC   NC334559   6.654   6.634   9.450
 5873POPC   PO434560   6.654   6.679   9.150
 5873POPC   GL134561   6.599   6.658   8.850
 5873POPC   GL234562   6.650   6.539   8.850
 5873POPC   C1A34563   6.673   6.651   8.550
 5873POPC   D2A34564   6.618   6.664   8.250
 5873POPC   C3A34565   6.641   6.662   7.950
 5873POPC   C4A34566   6.692   6.664   7.650
 5873POPC   C1B34567   6.693   6.381   8.550
 5873POPC   C2B34568   6.734   6.357   8.250
 5873POPC   C3B34569   6.744   6.356   7.950
 5873POPC   C4B34570   6.746   6.407   7.650
 5874POPC   NC334571  42.352  14.414   9.450
 5874POPC   PO434572  42.336  14.391   9.150
 5874POPC   GL134573  42.302  14.365   8.850
 5874POPC   GL234574  42.453  14.542   8.850
 5874POPC   C1A34575  42.291  14.452   8.550
 5874POPC   D2A34576  42.342  14.433   8.250
 5874POPC   C3A34577  42.319  14.380   7.950
 5874POPC   C4A34578  42.334  14.424   7.650
 5874POPC   C1B34579  42.470  14.560   8.550
 5874POPC   C2B34580  42.489  14.548   8.250
 5874POPC   C3B34581  42.501  14.621   7.950
 5874POPC   C4B34582  42.502  14.580   7.650
 5875POPC   NC334583  33.071  36.104   9.450
 5875POPC   PO434584  33.041  36.173   9.150
 5875POPC   GL134585  33.001  36.088   8.850
 5875POPC   GL234586  32.979  36.044   8.850
 5875POPC   C1A34587  33.001  36.136   8.550
 5875POPC   D2A34588  33.031  36.160   8.250
 5875POPC   C3A34589  33.021  36.112   7.950
 5875POPC   C4A34590  32.998  36.124   7.650
 5875POPC   C1B34591  32.892  35.963   8.550
 5875POPC   C2B34592  32.833  35.965   8.250
 5875POPC   C3B34593  32.875  35.908   7.950
 5875POPC   C4B34594  32.885  35.905   7.650
 5876POPC   NC334595  38.462  31.432   9.450
 5876POPC   PO434596  38.429  31.458   9.150
 5876POPC   GL134597  38.490  31.450   8.850
 5876POPC   GL234598  38.347  31.533   8.850
 5876POPC   C1A34599  38.469  31.444   8.550
 5876POPC   D2A34600  38.409  31.465   8.250
 5876POPC   C3A34601  38.474  31.472   7.950
 5876POPC   C4A34602  38.457  31.516   7.650
 5876POPC   C1B34603  38.206  31.561   8.550
 5876POPC   C2B34604  38.250  31.470   8.250
 5876POPC   C3B34605  38.173  31.546   7.950
 5876POPC   C4B34606  38.188  31.514   7.650
 5877POPC   NC334607  20.654   8.984   9.450
 5877POPC   PO434608  20.582   8.967   9.150
 5877POPC   GL134609  20.635   8.945   8.850
 5877POPC   GL234610  20.616   9.145   8.850
 5877POPC   C1A34611  20.650   9.002   8.550
 5877POPC   D2A34612  20.570   8.960   8.250
 5877POPC   C3A34613  20.652   8.993   7.950
 5877POPC   C4A34614  20.567   8.988   7.650
 5877POPC   C1B34615  20.550   9.236   8.550
 5877POPC   C2B34616  20.596   9.190   8.250
 5877POPC   C3B34617  20.618   9.217   7.950
 5877POPC   C4B34618  20.619   9.204   7.650
 5878POPC   NC334619  34.624   1.975   9.450
 5878POPC   PO434620  34.572   2.038   9.150
 5878POPC   GL134621  34.550   1.957   8.850
 5878POPC   GL234622  34.457   1.879   8.850
 5878POPC   C1A34623  34.536   1.947   8.550
 5878POPC   D2A34624  34.545   1.950   8.250
 5878POPC   C3A34625  34.540   2.030   7.950
 5878POPC   C4A34626  34.625   2.037   7.650
 5878POPC   C1B34627  34.437   1.786   8.550
 5878POPC   C2B34628  34.410   1.816   8.250
 5878POPC   C3B34629  34.402   1.835   7.950
 5878POPC   C4B34630  34.444   1.815   7.650
 5879POPC   NC334631   3.564  26.082   9.450
 5879POPC   PO434632   3.549  25.998   9.150
 5879POPC   GL134633   3.548  26.040   8.850
 5879POPC   GL234634   3.408  25.924   8.850
 5879POPC   C1A34635   3.497  26.032   8.550
 5879POPC   D2A34636   3.504  26.058   8.250
 5879POPC   C3A34637   3.495  26.033   7.950
 5879POPC   C4A34638   3.553  25.997   7.650
 5879POPC   C1B34639   3.361  25.874   8.550
 5879POPC   C2B34640   3.310  25.872   8.250
 5879POPC   C3B34641   3.317  25.871   7.950
 5879POPC   C4B34642   3.308  25.882   7.650
 5880POPC   NC334643   0.430  29.946   9.450
 5880POPC   PO434644   0.470  29.904   9.150
 5880POPC   GL134645   0.409  29.970   8.850
 5880POPC   GL234646   0.571  29.892   8.850
 5880POPC   C1A34647   0.404  29.944   8.550
 5880POPC   D2A34648   0.454  29.953   8.250
 5880POPC   C3A34649   0.476  29.964   7.950
 5880POPC   C4A34650   0.475  29.899   7.650
 5880POPC   C1B34651   0.591  29.733   8.550
 5880POPC   C2B34652   0.608  29.741   8.250
 5880POPC   C3B34653   0.588  29.817   7.950
 5880POPC   C4B34654   0.655  29.804   7.650
 5881POPC   NC334655  19.101  39.251   9.450
 5881POPC   PO434656  19.018  39.268   9.150
 5881POPC   GL134657  19.095  39.266   8.850
 5881POPC   GL234658  18.923  39.131   8.850
 5881POPC   C1A34659  19.084  39.248   8.550
 5881POPC   D2A34660  19.068  39.244   8.250
 5881POPC   C3A34661  19.100  39.224   7.950
 5881POPC   C4A34662  19.042  39.217   7.650
 5881POPC   C1B34663  18.872  39.158   8.550
 5881POPC   C2B34664  18.794  39.161   8.250
 5881POPC   C3B34665  18.798  39.164   7.950
 5881POPC   C4B34666  18.782  39.160   7.650
 5882POPC   NC334667  33.061  26.852   9.450
 5882POPC   PO434668  33.020  26.780   9.150
 5882POPC   GL134669  33.018  26.812   8.850
 5882POPC   GL234670  33.130  26.968   8.850
 5882POPC   C1A34671  33.033  26.785   8.550
 5882POPC   D2A34672  33.042  26.794   8.250
 5882POPC   C3A34673  33.006  26.777   7.950
 5882POPC   C4A34674  33.066  26.834   7.650
 5882POPC   C1B34675  33.202  27.013   8.550
 5882POPC   C2B34676  33.196  27.021   8.250
 5882POPC   C3B34677  33.186  27.002   7.950
 5882POPC   C4B34678  33.192  27.005   7.650
 5883POPC   NC334679  36.915   5.076   9.450
 5883POPC   PO434680  36.906   5.101   9.150
 5883POPC   GL134681  36.896   5.087   8.850
 5883POPC   GL234682  36.980   5.016   8.850
 5883POPC   C1A34683  36.948   5.129   8.550
 5883POPC   D2A34684  36.875   5.141   8.250
 5883POPC   C3A34685  36.893   5.085   7.950
 5883POPC   C4A34686  36.870   5.116   7.650
 5883POPC   C1B34687  37.108   5.069   8.550
 5883POPC   C2B34688  37.146   5.053   8.250
 5883POPC   C3B34689  37.177   5.028   7.950
 5883POPC   C4B34690  37.133   5.031   7.650
 5884POPC   NC334691  26.814  35.347   9.450
 5884POPC   PO434692  26.795  35.354   9.150
 5884POPC   GL134693  26.791  35.396   8.850
 5884POPC   GL234694  26.935  35.406   8.850
 5884POPC   C1A34695  26.791  35.305   8.550
 5884POPC   D2A34696  26.783  35.339   8.250
 5884POPC   C3A34697  26.801  35.355   7.950
 5884POPC   C4A34698  26.799  35.304   7.650
 5884POPC   C1B34699  27.070  35.387   8.550
 5884POPC   C2B34700  27.100  35.396   8.250
 5884POPC   C3B34701  27.041  35.408   7.950
 5884POPC   C4B34702  27.066  35.394   7.650
 5885POPC   NC334703  29.156  26.838   9.450
 5885POPC   PO434704  29.140  26.822   9.150
 5885POPC   GL134705  29.168  26.813   8.850
 5885POPC   GL234706  29.154  26.683   8.850
 5885POPC   C1A34707  29.182  26.813   8.550
 5885POPC   D2A34708  29.103  26.793   8.250
 5885POPC   C3A34709  29.108  26.843   7.950
 5885POPC   C4A34710  29.157  26.866   7.650
 5885POPC   C1B34711  29.225  26.593   8.550
 5885POPC   C2B34712  29.219  26.602   8.250
 5885POPC   C3B34713  29.140  26.615   7.950
 5885POPC   C4B34714  29.145  26.536   7.650
 5886POPC   NC334715  10.522  25.239   9.450
 5886POPC   PO434716  10.488  25.224   9.150
 5886POPC   GL134717  10.533  25.313   8.850
 5886POPC   GL234718  10.469  25.233   8.850
 5886POPC   C1A34719  10.552  25.300   8.550
 5886POPC   D2A34720  10.520  25.298   8.250
 5886POPC   C3A34721  10.512  25.222   7.950
 5886POPC   C4A34722  10.547  25.276   7.650
 5886POPC   C1B34723  10.307  25.148   8.550
 5886POPC   C2B34724  10.322  25.155   8.250
 5886POPC   C3B34725  10.314  25.078   7.950
 5886POPC   C4B34726  10.319  25.114   7.650
 5887POPC   NC334727  43.893  30.680   9.450
 5887POPC   PO434728  43.929  30.672   9.150
 5887POPC   GL134729  43.899  30.743   8.850
 5887POPC   GL234730  44.024  30.630   8.850
 5887POPC   C1A34731  43.923  30.724   8.550
 5887POPC   D2A34732  43.932  30.683   8.250
 5887POPC   C3A34733  43.897  30.737   7.950
 5887POPC   C4A34734  43.839  30.695   7.650
 5887POPC   C1B34735  44.114  30.676   8.550
 5887POPC   C2B34736  44.181  30.657   8.250
 5887POPC   C3B34737  44.131  30.620   7.950
 5887POPC   C4B34738  44.153  30.635   7.650
 5888POPC   NC334739  10.525  43.112   9.450
 5888POPC   PO434740  10.564  43.134   9.150
 5888POPC   GL134741  10.543  43.071   8.850
 5888POPC   GL234742  10.585  43.028   8.850
 5888POPC   C1A34743  10.559  43.106   8.550
 5888POPC   D2A34744  10.475  43.066   8.250
 5888POPC   C3A34745  10.518  43.076   7.950
 5888POPC   C4A34746  10.542  43.156   7.650
 5888POPC   C1B34747  10.747  42.922   8.550
 5888POPC   C2B34748  10.663  42.991   8.250
 5888POPC   C3B34749  10.697  42.958   7.950
 5888POPC   C4B34750  10.711  42.955   7.650
 5889POPC   NC334751  43.908  24.488   9.450
 5889POPC   PO434752  43.931  24.468   9.150
 5889POPC   GL134753  43.898  24.478   8.850
 5889POPC   GL234754  43.971  24.490   8.850
 5889POPC   C1A34755  43.931  24.490   8.550
 5889POPC   D2A34756  43.927  24.471   8.250
 5889POPC   C3A34757  43.925  24.501   7.950
 5889POPC   C4A34758  43.923  24.508   7.650
 5889POPC   C1B34759  44.083  24.448   8.550
 5889POPC   C2B34760  44.135  24.390   8.250
 5889POPC   C3B34761  44.109  24.401   7.950
 5889POPC   C4B34762  44.116  24.437   7.650
 5890POPC   NC334763  23.737  42.358   9.450
 5890POPC   PO434764  23.734  42.351   9.150
 5890POPC   GL134765  23.733  42.353   8.850
 5890POPC   GL234766  23.820  42.439   8.850
 5890POPC   C1A34767  23.698  42.341   8.550
 5890POPC   D2A34768  23.738  42.374   8.250
 5890POPC   C3A34769  23.731  42.316   7.950
 5890POPC   C4A34770  23.665  42.330   7.650
 5890POPC   C1B34771  23.955  42.518   8.550
 5890POPC   C2B34772  23.909  42.438   8.250
 5890POPC   C3B34773  23.950  42.512   7.950
 5890POPC   C4B34774  23.919  42.519   7.650
 5891POPC   NC334775   6.612  12.119   9.450
 5891POPC   PO434776   6.684  12.120   9.150
 5891POPC   GL134777   6.620  12.103   8.850
 5891POPC   GL234778   6.775  12.044   8.850
 5891POPC   C1A34779   6.651  12.119   8.550
 5891POPC   D2A34780   6.627  12.026   8.250
 5891POPC   C3A34781   6.686  12.102   7.950
 5891POPC   C4A34782   6.614  12.064   7.650
 5891POPC   C1B34783   6.928  12.108   8.550
 5891POPC   C2B34784   6.860  12.111   8.250
 5891POPC   C3B34785   6.943  12.124   7.950
 5891POPC   C4B34786   6.849  12.118   7.650
 5892POPC   NC334787   1.949  33.754   9.450
 5892POPC   PO434788   2.016  33.801   9.150
 5892POPC   GL134789   1.960  33.820   8.850
 5892POPC   GL234790   2.158  33.770   8.850
 5892POPC   C1A34791   1.945  33.801   8.550
 5892POPC   D2A34792   1.947  33.793   8.250
 5892POPC   C3A34793   2.021  33.764   7.950
 5892POPC   C4A34794   1.971  33.784   7.650
 5892POPC   C1B34795   2.193  33.788   8.550
 5892POPC   C2B34796   2.229  33.809   8.250
 5892POPC   C3B34797   2.248  33.778   7.950
 5892POPC   C4B34798   2.262  33.813   7.650
 5893POPC   NC334799  18.302  32.264   9.450
 5893POPC   PO434800  18.259  32.297   9.150
 5893POPC   GL134801  18.285  32.222   8.850
 5893POPC   GL234802  18.233  32.422   8.850
 5893POPC   C1A34803  18.256  32.229   8.550
 5893POPC   D2A34804  18.285  32.210   8.250
 5893POPC   C3A34805  18.264  32.242   7.950
 5893POPC   C4A34806  18.256  32.232   7.650
 5893POPC   C1B34807  18.241  32.542   8.550
 5893POPC   C2B34808  18.226  32.521   8.250
 5893POPC   C3B34809  18.253  32.515   7.950
 5893POPC   C4B34810  18.281  32.522   7.650
 5894POPC   NC334811   5.049  22.193   9.450
 5894POPC   PO434812   5.077  22.121   9.150
 5894POPC   GL134813   5.076  22.207   8.850
 5894POPC   GL234814   5.258  22.167   8.850
 5894POPC   C1A34815   5.102  22.197   8.550
 5894POPC   D2A34816   5.051  22.178   8.250
 5894POPC   C3A34817   5.056  22.143   7.950
 5894POPC   C4A34818   5.117  22.208   7.650
 5894POPC   C1B34819   5.331  22.131   8.550
 5894POPC   C2B34820   5.344  22.092   8.250
 5894POPC   C3B34821   5.386  22.102   7.950
 5894POPC   C4B34822   5.321  22.139   7.650
 5895POPC   NC334823  29.923  32.210   9.450
 5895POPC   PO434824  29.959  32.271   9.150
 5895POPC   GL134825  29.917  32.291   8.850
 5895POPC   GL234826  30.032  32.137   8.850
 5895POPC   C1A34827  29.903  32.210   8.550
 5895POPC   D2A34828  29.970  32.261   8.250
 5895POPC   C3A34829  29.905  32.272   7.950
 5895POPC   C4A34830  29.960  32.244   7.650
 5895POPC   C1B34831  30.090  32.108   8.550
 5895POPC   C2B34832  30.113  32.045   8.250
 5895POPC   C3B34833  30.083  32.045   7.950
 5895POPC   C4B34834  30.072  32.053   7.650
 5896POPC   NC334835  38.504  43.918   9.450
 5896POPC   PO434836  38.464  43.852   9.150
 5896POPC   GL134837  38.464  43.878   8.850
 5896POPC   GL234838  38.532  43.962   8.850
 5896POPC   C1A34839  38.422  43.875   8.550
 5896POPC   D2A34840  38.433  43.878   8.250
 5896POPC   C3A34841  38.427  43.842   7.950
 5896POPC   C4A34842  38.437  43.915   7.650
 5896POPC   C1B34843  38.720  43.997   8.550
 5896POPC   C2B34844  38.690  43.935   8.250
 5896POPC   C3B34845  38.728  43.942   7.950
 5896POPC   C4B34846  38.741  43.922   7.650
 5897POPC   NC334847   9.724  41.608   9.450
 5897POPC   PO434848   9.787  41.516   9.150
 5897POPC   GL134849   9.706  41.578   8.850
 5897POPC   GL234850   9.661  41.610   8.850
 5897POPC   C1A34851   9.790  41.593   8.550
 5897POPC   D2A34852   9.774  41.518   8.250
 5897POPC   C3A34853   9.714  41.526   7.950
 5897POPC   C4A34854   9.701  41.594   7.650
 5897POPC   C1B34855   9.510  41.612   8.550
 5897POPC   C2B34856   9.463  41.589   8.250
 5897POPC   C3B34857   9.535  41.608   7.950
 5897POPC   C4B34858   9.466  41.575   7.650
 5898POPC   NC334859  11.335   1.223   9.450
 5898POPC   PO434860  11.265   1.176   9.150
 5898POPC   GL134861  11.287   1.185   8.850
 5898POPC   GL234862  11.319   1.127   8.850
 5898POPC   C1A34863  11.337   1.260   8.550
 5898POPC   D2A34864  11.316   1.199   8.250
 5898POPC   C3A34865  11.286   1.222   7.950
 5898POPC   C4A34866  11.317   1.190   7.650
 5898POPC   C1B34867  11.363   0.996   8.550
 5898POPC   C2B34868  11.322   0.962   8.250
 5898POPC   C3B34869  11.331   1.001   7.950
 5898POPC   C4B34870  11.386   0.951   7.650
 5899POPC   NC334871   9.006   8.963   9.450
 5899POPC   PO434872   8.963   8.987   9.150
 5899POPC   GL134873   9.007   8.953   8.850
 5899POPC   GL234874   8.832   9.077   8.850
 5899POPC   C1A34875   9.000   8.985   8.550
 5899POPC   D2A34876   9.013   8.954   8.250
 5899POPC   C3A34877   8.974   9.014   7.950
 5899POPC   C4A34878   9.017   8.966   7.650
 5899POPC   C1B34879   8.726   9.117   8.550
 5899POPC   C2B34880   8.774   9.140   8.250
 5899POPC   C3B34881   8.790   9.094   7.950
 5899POPC   C4B34882   8.793   9.066   7.650
 5900POPC   NC334883  26.054  39.244   9.450
 5900POPC   PO434884  26.011  39.197   9.150
 5900POPC   GL134885  26.034  39.210   8.850
 5900POPC   GL234886  26.039  39.131   8.850
 5900POPC   C1A34887  26.017  39.277   8.550
 5900POPC   D2A34888  26.079  39.268   8.250
 5900POPC   C3A34889  26.037  39.249   7.950
 5900POPC   C4A34890  26.072  39.212   7.650
 5900POPC   C1B34891  25.963  39.025   8.550
 5900POPC   C2B34892  26.052  39.007   8.250
 5900POPC   C3B34893  26.023  38.977   7.950
 5900POPC   C4B34894  25.975  38.984   7.650
 5901POPC   NC334895  12.071  17.480   9.450
 5901POPC   PO434896  12.112  17.480   9.150
 5901POPC   GL134897  12.117  17.540   8.850
 5901POPC   GL234898  12.036  17.412   8.850
 5901POPC   C1A34899  12.027  17.471   8.550
 5901POPC   D2A34900  12.086  17.530   8.250
 5901POPC   C3A34901  12.069  17.500   7.950
 5901POPC   C4A34902  12.119  17.532   7.650
 5901POPC   C1B34903  11.903  17.313   8.550
 5901POPC   C2B34904  11.904  17.322   8.250
 5901POPC   C3B34905  11.943  17.370   7.950
 5901POPC   C4B34906  11.927  17.326   7.650
 5902POPC   NC334907  26.778  19.878   9.450
 5902POPC   PO434908  26.800  19.796   9.150
 5902POPC   GL134909  26.818  19.882   8.850
 5902POPC   GL234910  26.783  19.706   8.850
 5902POPC   C1A34911  26.863  19.837   8.550
 5902POPC   D2A34912  26.812  19.835   8.250
 5902POPC   C3A34913  26.782  19.805   7.950
 5902POPC   C4A34914  26.783  19.822   7.650
 5902POPC   C1B34915  26.710  19.621   8.550
 5902POPC   C2B34916  26.672  19.608   8.250
 5902POPC   C3B34917  26.731  19.606   7.950
 5902POPC   C4B34918  26.696  19.570   7.650
 5903POPC   NC334919   7.468  42.368   9.450
 5903POPC   PO434920   7.450  42.303   9.150
 5903POPC   GL134921   7.422  42.303   8.850
 5903POPC   GL234922   7.351  42.430   8.850
 5903POPC   C1A34923   7.461  42.362   8.550
 5903POPC   D2A34924   7.405  42.338   8.250
 5903POPC   C3A34925   7.437  42.285   7.950
 5903POPC   C4A34926   7.417  42.372   7.650
 5903POPC   C1B34927   7.350  42.523   8.550
 5903POPC   C2B34928   7.361  42.550   8.250
 5903POPC   C3B34929   7.344  42.599   7.950
 5903POPC   C4B34930   7.336  42.526   7.650
 5904POPC   NC334931  19.094  22.927   9.450
 5904POPC   PO434932  19.040  22.946   9.150
 5904POPC   GL134933  19.024  22.901   8.850
 5904POPC   GL234934  19.153  23.052   8.850
 5904POPC   C1A34935  19.092  22.936   8.550
 5904POPC   D2A34936  19.093  22.946   8.250
 5904POPC   C3A34937  19.044  22.936   7.950
 5904POPC   C4A34938  19.076  22.955   7.650
 5904POPC   C1B34939  19.231  23.115   8.550
 5904POPC   C2B34940  19.223  23.196   8.250
 5904POPC   C3B34941  19.145  23.128   7.950
 5904POPC   C4B34942  19.243  23.169   7.650
 5905POPC   NC334943  31.481  43.134   9.450
 5905POPC   PO434944  31.445  43.134   9.150
 5905POPC   GL134945  31.441  43.122   8.850
 5905POPC   GL234946  31.567  43.183   8.850
 5905POPC   C1A34947  31.432  43.071   8.550
 5905POPC   D2A34948  31.514  43.153   8.250
 5905POPC   C3A34949  31.464  43.126   7.950
 5905POPC   C4A34950  31.435  43.086   7.650
 5905POPC   C1B34951  31.654  43.239   8.550
 5905POPC   C2B34952  31.668  43.270   8.250
 5905POPC   C3B34953  31.682  43.237   7.950
 5905POPC   C4B34954  31.682  43.258   7.650
 5906POPC   NC334955  32.998  42.293   9.450
 5906POPC   PO434956  32.979  42.384   9.150
 5906POPC   GL134957  33.037  42.353   8.850
 5906POPC   GL234958  32.939  42.456   8.850
 5906POPC   C1A34959  32.985  42.370   8.550
 5906POPC   D2A34960  33.034  42.377   8.250
 5906POPC   C3A34961  32.990  42.327   7.950
 5906POPC   C4A34962  33.034  42.384   7.650
 5906POPC   C1B34963  32.842  42.577   8.550
 5906POPC   C2B34964  32.909  42.525   8.250
 5906POPC   C3B34965  32.923  42.561   7.950
 5906POPC   C4B34966  32.852  42.569   7.650
 5907POPC   NC334967  26.801  43.913   9.450
 5907POPC   PO434968  26.784  43.890   9.150
 5907POPC   GL134969  26.841  43.863   8.850
 5907POPC   GL234970  26.950  43.809   8.850
 5907POPC   C1A34971  26.809  43.863   8.550
 5907POPC   D2A34972  26.834  43.932   8.250
 5907POPC   C3A34973  26.837  43.892   7.950
 5907POPC   C4A34974  26.788  43.879   7.650
 5907POPC   C1B34975  27.055  43.706   8.550
 5907POPC   C2B34976  27.039  43.786   8.250
 5907POPC   C3B34977  27.049  43.753   7.950
 5907POPC   C4B34978  27.062  43.761   7.650
 5908POPC   NC334979  18.313  37.683   9.450
 5908POPC   PO434980  18.327  37.688   9.150
 5908POPC   GL134981  18.244  37.633   8.850
 5908POPC   GL234982  18.159  37.589   8.850
 5908POPC   C1A34983  18.299  37.686   8.550
 5908POPC   D2A34984  18.286  37.722   8.250
 5908POPC   C3A34985  18.290  37.695   7.950
 5908POPC   C4A34986  18.255  37.648   7.650
 5908POPC   C1B34987  18.157  37.517   8.550
 5908POPC   C2B34988  18.148  37.488   8.250
 5908POPC   C3B34989  18.136  37.450   7.950
 5908POPC   C4B34990  18.082  37.523   7.650
 5909POPC   NC334991  29.891  41.530   9.450
 5909POPC   PO434992  29.912  41.598   9.150
 5909POPC   GL134993  29.970  41.565   8.850
 5909POPC   GL234994  29.771  41.656   8.850
 5909POPC   C1A34995  29.916  41.585   8.550
 5909POPC   D2A34996  29.927  41.567   8.250
 5909POPC   C3A34997  29.914  41.539   7.950
 5909POPC   C4A34998  29.933  41.514   7.650
 5909POPC   C1B34999  29.705  41.621   8.550
 5909POPC   C2B35000  29.700  41.683   8.250
 5909POPC   C3B35001  29.741  41.621   7.950
 5909POPC   C4B35002  29.714  41.686   7.650
 5910POPC   NC335003  26.784  12.067   9.450
 5910POPC   PO435004  26.817  12.109   9.150
 5910POPC   GL135005  26.821  12.088   8.850
 5910POPC   GL235006  26.676  12.125   8.850
 5910POPC   C1A35007  26.792  12.070   8.550
 5910POPC   D2A35008  26.779  12.092   8.250
 5910POPC   C3A35009  26.831  12.089   7.950
 5910POPC   C4A35010  26.785  12.063   7.650
 5910POPC   C1B35011  26.587  12.064   8.550
 5910POPC   C2B35012  26.617  12.109   8.250
 5910POPC   C3B35013  26.612  12.130   7.950
 5910POPC   C4B35014  26.608  12.155   7.650
 5911POPC   NC335015  16.766  12.063   9.450
 5911POPC   PO435016  16.747  12.033   9.150
 5911POPC   GL135017  16.734  12.048   8.850
 5911POPC   GL235018  16.864  12.110   8.850
 5911POPC   C1A35019  16.692  12.038   8.550
 5911POPC   D2A35020  16.699  12.042   8.250
 5911POPC   C3A35021  16.752  12.061   7.950
 5911POPC   C4A35022  16.777  12.063   7.650
 5911POPC   C1B35023  16.955  12.132   8.550
 5911POPC   C2B35024  16.946  12.148   8.250
 5911POPC   C3B35025  16.986  12.133   7.950
 5911POPC   C4B35026  16.995  12.210   7.650
 5912POPC   NC335027  33.819  15.180   9.450
 5912POPC   PO435028  33.840  15.135   9.150
 5912POPC   GL135029  33.752  15.226   8.850
 5912POPC   GL235030  33.895  15.303   8.850
 5912POPC   C1A35031  33.759  15.192   8.550
 5912POPC   D2A35032  33.766  15.195   8.250
 5912POPC   C3A35033  33.772  15.160   7.950
 5912POPC   C4A35034  33.784  15.204   7.650
 5912POPC   C1B35035  33.928  15.354   8.550
 5912POPC   C2B35036  33.903  15.448   8.250
 5912POPC   C3B35037  33.955  15.384   7.950
 5912POPC   C4B35038  33.963  15.402   7.650
 5913POPC   NC335039  19.848  33.791   9.450
 5913POPC   PO435040  19.863  33.787   9.150
 5913POPC   GL135041  19.793  33.785   8.850
 5913POPC   GL235042  19.908  33.875   8.850
 5913POPC   C1A35043  19.801  33.839   8.550
 5913POPC   D2A35044  19.805  33.848   8.250
 5913POPC   C3A35045  19.837  33.801   7.950
 5913POPC   C4A35046  19.873  33.797   7.650
 5913POPC   C1B35047  20.024  33.968   8.550
 5913POPC   C2B35048  19.982  34.023   8.250
 5913POPC   C3B35049  19.972  33.977   7.950
 5913POPC   C4B35050  20.012  33.950   7.650
 5914POPC   NC335051  38.461  19.094   9.450
 5914POPC   PO435052  38.437  19.016   9.150
 5914POPC   GL135053  38.445  19.055   8.850
 5914POPC   GL235054  38.299  18.953   8.850
 5914POPC   C1A35055  38.427  19.103   8.550
 5914POPC   D2A35056  38.486  19.100   8.250
 5914POPC   C3A35057  38.493  19.021   7.950
 5914POPC   C4A35058  38.443  19.062   7.650
 5914POPC   C1B35059  38.253  18.910   8.550
 5914POPC   C2B35060  38.254  18.974   8.250
 5914POPC   C3B35061  38.193  18.901   7.950
 5914POPC   C4B35062  38.282  18.897   7.650
 5915POPC   NC335063   7.443  19.039   9.450
 5915POPC   PO435064   7.449  19.075   9.150
 5915POPC   GL135065   7.415  19.052   8.850
 5915POPC   GL235066   7.273  19.041   8.850
 5915POPC   C1A35067   7.407  19.102   8.550
 5915POPC   D2A35068   7.468  19.011   8.250
 5915POPC   C3A35069   7.390  19.012   7.950
 5915POPC   C4A35070   7.372  19.088   7.650
 5915POPC   C1B35071   7.166  19.080   8.550
 5915POPC   C2B35072   7.165  18.993   8.250
 5915POPC   C3B35073   7.179  19.061   7.950
 5915POPC   C4B35074   7.146  19.064   7.650
 5916POPC   NC335075  34.583  20.586   9.450
 5916POPC   PO435076  34.547  20.616   9.150
 5916POPC   GL135077  34.556  20.562   8.850
 5916POPC   GL235078  34.743  20.557   8.850
 5916POPC   C1A35079  34.574  20.651   8.550
 5916POPC   D2A35080  34.600  20.602   8.250
 5916POPC   C3A35081  34.578  20.604   7.950
 5916POPC   C4A35082  34.582  20.593   7.650
 5916POPC   C1B35083  34.801  20.625   8.550
 5916POPC   C2B35084  34.828  20.633   8.250
 5916POPC   C3B35085  34.800  20.596   7.950
 5916POPC   C4B35086  34.867  20.581   7.650
 5917POPC   NC335087   8.237   1.238   9.450
 5917POPC   PO435088   8.212   1.256   9.150
 5917POPC   GL135089   8.176   1.251   8.850
 5917POPC   GL235090   8.183   1.088   8.850
 5917POPC   C1A35091   8.192   1.213   8.550
 5917POPC   D2A35092   8.245   1.237   8.250
 5917POPC   C3A35093   8.178   1.251   7.950
 5917POPC   C4A35094   8.201   1.194   7.650
 5917POPC   C1B35095   8.149   0.925   8.550
 5917POPC   C2B35096   8.223   0.965   8.250
 5917POPC   C3B35097   8.156   0.939   7.950
 5917POPC   C4B35098   8.216   0.955   7.650
 5918POPC   NC335099  36.169  40.034   9.450
 5918POPC   PO435100  36.110  39.983   9.150
 5918POPC   GL135101  36.158  40.042   8.850
 5918POPC   GL235102  36.068  40.125   8.850
 5918POPC   C1A35103  36.157  39.969   8.550
 5918POPC   D2A35104  36.146  40.051   8.250
 5918POPC   C3A35105  36.169  39.975   7.950
 5918POPC   C4A35106  36.087  39.967   7.650
 5918POPC   C1B35107  35.915  40.193   8.550
 5918POPC   C2B35108  35.953  40.144   8.250
 5918POPC   C3B35109  35.901  40.185   7.950
 5918POPC   C4B35110  35.874  40.152   7.650
 5919POPC   NC335111  34.589   9.715   9.450
 5919POPC   PO435112  34.561   9.772   9.150
 5919POPC   GL135113  34.611   9.704   8.850
 5919POPC   GL235114  34.613   9.898   8.850
 5919POPC   C1A35115  34.566   9.796   8.550
 5919POPC   D2A35116  34.624   9.730   8.250
 5919POPC   C3A35117  34.556   9.733   7.950
 5919POPC   C4A35118  34.572   9.715   7.650
 5919POPC   C1B35119  34.714   9.990   8.550
 5919POPC   C2B35120  34.660   9.934   8.250
 5919POPC   C3B35121  34.716  10.000   7.950
 5919POPC   C4B35122  34.710   9.922   7.650
 5920POPC   NC335123   1.957  26.036   9.450
 5920POPC   PO435124   2.033  26.047   9.150
 5920POPC   GL135125   2.034  26.058   8.850
 5920POPC   GL235126   1.877  26.066   8.850
 5920POPC   C1A35127   1.975  26.086   8.550
 5920POPC   D2A35128   1.976  25.993   8.250
 5920POPC   C3A35129   1.992  26.007   7.950
 5920POPC   C4A35130   1.974  25.998   7.650
 5920POPC   C1B35131   1.754  26.082   8.550
 5920POPC   C2B35132   1.754  26.092   8.250
 5920POPC   C3B35133   1.721  26.055   7.950
 5920POPC   C4B35134   1.727  26.104   7.650
 5921POPC   NC335135  26.003  40.787   9.450
 5921POPC   PO435136  26.060  40.819   9.150
 5921POPC   GL135137  26.070  40.826   8.850
 5921POPC   GL235138  25.933  40.767   8.850
 5921POPC   C1A35139  26.022  40.831   8.550
 5921POPC   D2A35140  26.043  40.735   8.250
 5921POPC   C3A35141  26.059  40.734   7.950
 5921POPC   C4A35142  26.035  40.786   7.650
 5921POPC   C1B35143  25.774  40.808   8.550
 5921POPC   C2B35144  25.828  40.776   8.250
 5921POPC   C3B35145  25.774  40.833   7.950
 5921POPC   C4B35146  25.818  40.775   7.650
 5922POPC   NC335147  14.372  19.092   9.450
 5922POPC   PO435148  14.355  19.062   9.150
 5922POPC   GL135149  14.405  19.038   8.850
 5922POPC   GL235150  14.472  19.197   8.850
 5922POPC   C1A35151  14.429  19.044   8.550
 5922POPC   D2A35152  14.413  19.062   8.250
 5922POPC   C3A35153  14.375  19.039   7.950
 5922POPC   C4A35154  14.358  19.102   7.650
 5922POPC   C1B35155  14.597  19.285   8.550
 5922POPC   C2B35156  14.599  19.237   8.250
 5922POPC   C3B35157  14.559  19.276   7.950
 5922POPC   C4B35158  14.611  19.294   7.650
 5923POPC   NC335159   4.291  30.691   9.450
 5923POPC   PO435160   4.308  30.687   9.150
 5923POPC   GL135161   4.287  30.715   8.850
 5923POPC   GL235162   4.172  30.618   8.850
 5923POPC   C1A35163   4.294  30.727   8.550
 5923POPC   D2A35164   4.329  30.667   8.250
 5923POPC   C3A35165   4.279  30.725   7.950
 5923POPC   C4A35166   4.353  30.651   7.650
 5923POPC   C1B35167   4.154  30.606   8.550
 5923POPC   C2B35168   4.083  30.610   8.250
 5923POPC   C3B35169   4.120  30.521   7.950
 5923POPC   C4B35170   4.069  30.590   7.650
 5924POPC   NC335171  19.054   3.513   9.450
 5924POPC   PO435172  19.031   3.543   9.150
 5924POPC   GL135173  19.046   3.551   8.850
 5924POPC   GL235174  19.068   3.703   8.850
 5924POPC   C1A35175  19.076   3.538   8.550
 5924POPC   D2A35176  19.018   3.494   8.250
 5924POPC   C3A35177  19.092   3.557   7.950
 5924POPC   C4A35178  19.015   3.576   7.650
 5924POPC   C1B35179  19.161   3.748   8.550
 5924POPC   C2B35180  19.158   3.762   8.250
 5924POPC   C3B35181  19.114   3.734   7.950
 5924POPC   C4B35182  19.155   3.787   7.650
 5925POPC   NC335183  26.801  37.686   9.450
 5925POPC   PO435184  26.858  37.661   9.150
 5925POPC   GL135185  26.841  37.655   8.850
 5925POPC   GL235186  26.942  37.583   8.850
 5925POPC   C1A35187  26.772  37.711   8.550
 5925POPC   D2A35188  26.830  37.665   8.250
 5925POPC   C3A35189  26.770  37.711   7.950
 5925POPC   C4A35190  26.811  37.641   7.650
 5925POPC   C1B35191  26.983  37.507   8.550
 5925POPC   C2B35192  26.947  37.456   8.250
 5925POPC   C3B35193  27.026  37.502   7.950
 5925POPC   C4B35194  26.985  37.475   7.650
 5926POPC   NC335195  35.371  15.167   9.450
 5926POPC   PO435196  35.388  15.143   9.150
 5926POPC   GL135197  35.341  15.218   8.850
 5926POPC   GL235198  35.468  15.113   8.850
 5926POPC   C1A35199  35.366  15.226   8.550
 5926POPC   D2A35200  35.355  15.220   8.250
 5926POPC   C3A35201  35.304  15.181   7.950
 5926POPC   C4A35202  35.377  15.190   7.650
 5926POPC   C1B35203  35.531  15.096   8.550
 5926POPC   C2B35204  35.571  15.078   8.250
 5926POPC   C3B35205  35.526  15.067   7.950
 5926POPC   C4B35206  35.556  15.018   7.650
 5927POPC   NC335207  17.555  29.885   9.450
 5927POPC   PO435208  17.476  29.918   9.150
 5927POPC   GL135209  17.511  29.951   8.850
 5927POPC   GL235210  17.618  29.872   8.850
 5927POPC   C1A35211  17.539  29.924   8.550
 5927POPC   D2A35212  17.463  29.958   8.250
 5927POPC   C3A35213  17.501  29.952   7.950
 5927POPC   C4A35214  17.475  29.874   7.650
 5927POPC   C1B35215  17.735  29.763   8.550
 5927POPC   C2B35216  17.748  29.839   8.250
 5927POPC   C3B35217  17.710  29.825   7.950
 5927POPC   C4B35218  17.696  29.820   7.650
 5928POPC   NC335219  27.600   1.186   9.450
 5928POPC   PO435220  27.624   1.195   9.150
 5928POPC   GL135221  27.587   1.259   8.850
 5928POPC   GL235222  27.677   1.345   8.850
 5928POPC   C1A35223  27.574   1.210   8.550
 5928POPC   D2A35224  27.555   1.226   8.250
 5928POPC   C3A35225  27.556   1.248   7.950
 5928POPC   C4A35226  27.632   1.214   7.650
 5928POPC   C1B35227  27.690   1.388   8.550
 5928POPC   C2B35228  27.694   1.469   8.250
 5928POPC   C3B35229  27.714   1.399   7.950
 5928POPC   C4B35230  27.667   1.408   7.650
 5929POPC   NC335231  41.513  40.038   9.450
 5929POPC   PO435232  41.566  39.957   9.150
 5929POPC   GL135233  41.515  40.014   8.850
 5929POPC   GL235234  41.676  39.866   8.850
 5929POPC   C1A35235  41.515  39.957   8.550
 5929POPC   D2A35236  41.592  40.003   8.250
 5929POPC   C3A35237  41.512  39.987   7.950
 5929POPC   C4A35238  41.577  39.985   7.650
 5929POPC   C1B35239  41.681  39.797   8.550
 5929POPC   C2B35240  41.766  39.861   8.250
 5929POPC   C3B35241  41.681  39.857   7.950
 5929POPC   C4B35242  41.681  39.836   7.650
 5930POPC   NC335243  36.938  36.867   9.450
 5930POPC   PO435244  36.891  36.922   9.150
 5930POPC   GL135245  36.914  36.945   8.850
 5930POPC   GL235246  36.896  36.996   8.850
 5930POPC   C1A35247  36.859  36.946   8.550
 5930POPC   D2A35248  36.857  36.932   8.250
 5930POPC   C3A35249  36.854  36.950   7.950
 5930POPC   C4A35250  36.933  36.886   7.650
 5930POPC   C1B35251  36.865  37.142   8.550
 5930POPC   C2B35252  36.942  37.199   8.250
 5930POPC   C3B35253  36.936  37.117   7.950
 5930POPC   C4B35254  36.888  37.197   7.650
 5931POPC   NC335255   5.094  17.473   9.450
 5931POPC   PO435256   5.043  17.457   9.150
 5931POPC   GL135257   5.131  17.461   8.850
 5931POPC   GL235258   5.090  17.651   8.850
 5931POPC   C1A35259   5.107  17.536   8.550
 5931POPC   D2A35260   5.076  17.536   8.250
 5931POPC   C3A35261   5.099  17.529   7.950
 5931POPC   C4A35262   5.062  17.522   7.650
 5931POPC   C1B35263   5.151  17.728   8.550
 5931POPC   C2B35264   5.199  17.714   8.250
 5931POPC   C3B35265   5.197  17.733   7.950
 5931POPC   C4B35266   5.213  17.711   7.650
 5932POPC   NC335267  38.409  39.184   9.450
 5932POPC   PO435268  38.467  39.234   9.150
 5932POPC   GL135269  38.465  39.208   8.850
 5932POPC   GL235270  38.588  39.145   8.850
 5932POPC   C1A35271  38.418  39.263   8.550
 5932POPC   D2A35272  38.468  39.214   8.250
 5932POPC   C3A35273  38.432  39.227   7.950
 5932POPC   C4A35274  38.492  39.243   7.650
 5932POPC   C1B35275  38.694  39.171   8.550
 5932POPC   C2B35276  38.730  39.132   8.250
 5932POPC   C3B35277  38.662  39.148   7.950
 5932POPC   C4B35278  38.655  39.112   7.650
 5933POPC   NC335279   5.835   9.751   9.450
 5933POPC   PO435280   5.831   9.710   9.150
 5933POPC   GL135281   5.918   9.794   8.850
 5933POPC   GL235282   5.985   9.842   8.850
 5933POPC   C1A35283   5.912   9.707   8.550
 5933POPC   D2A35284   5.910   9.759   8.250
 5933POPC   C3A35285   5.905   9.771   7.950
 5933POPC   C4A35286   5.898   9.699   7.650
 5933POPC   C1B35287   6.119   9.861   8.550
 5933POPC   C2B35288   6.117   9.888   8.250
 5933POPC   C3B35289   6.116   9.822   7.950
 5933POPC   C4B35290   6.084   9.858   7.650
 5934POPC   NC335291   2.814   4.330   9.450
 5934POPC   PO435292   2.796   4.303   9.150
 5934POPC   GL135293   2.721   4.362   8.850
 5934POPC   GL235294   2.859   4.306   8.850
 5934POPC   C1A35295   2.751   4.343   8.550
 5934POPC   D2A35296   2.746   4.338   8.250
 5934POPC   C3A35297   2.762   4.314   7.950
 5934POPC   C4A35298   2.776   4.340   7.650
 5934POPC   C1B35299   2.985   4.316   8.550
 5934POPC   C2B35300   3.036   4.295   8.250
 5934POPC   C3B35301   3.037   4.319   7.950
 5934POPC   C4B35302   2.978   4.308   7.650
 5935POPC   NC335303   0.411   7.451   9.450
 5935POPC   PO435304   0.465   7.428   9.150
 5935POPC   GL135305   0.435   7.448   8.850
 5935POPC   GL235306   0.545   7.499   8.850
 5935POPC   C1A35307   0.412   7.419   8.550
 5935POPC   D2A35308   0.426   7.442   8.250
 5935POPC   C3A35309   0.394   7.457   7.950
 5935POPC   C4A35310   0.478   7.436   7.650
 5935POPC   C1B35311   0.658   7.480   8.550
 5935POPC   C2B35312   0.636   7.474   8.250
 5935POPC   C3B35313   0.705   7.481   7.950
 5935POPC   C4B35314   0.659   7.553   7.650
 5936POPC   NC335315  33.044   6.624   9.450
 5936POPC   PO435316  33.006   6.649   9.150
 5936POPC   GL135317  33.068   6.602   8.850
 5936POPC   GL235318  33.002   6.555   8.850
 5936POPC   C1A35319  33.038   6.609   8.550
 5936POPC   D2A35320  32.983   6.684   8.250
 5936POPC   C3A35321  33.051   6.595   7.950
 5936POPC   C4A35322  32.976   6.647   7.650
 5936POPC   C1B35323  32.983   6.442   8.550
 5936POPC   C2B35324  33.059   6.367   8.250
 5936POPC   C3B35325  33.054   6.403   7.950
 5936POPC   C4B35326  33.055   6.389   7.650
 5937POPC   NC335327   6.611  26.031   9.450
 5937POPC   PO435328   6.604  26.019   9.150
 5937POPC   GL135329   6.676  26.038   8.850
 5937POPC   GL235330   6.684  25.950   8.850
 5937POPC   C1A35331   6.669  26.033   8.550
 5937POPC   D2A35332   6.650  26.024   8.250
 5937POPC   C3A35333   6.634  26.084   7.950
 5937POPC   C4A35334   6.633  26.055   7.650
 5937POPC   C1B35335   6.650  25.742   8.550
 5937POPC   C2B35336   6.666  25.829   8.250
 5937POPC   C3B35337   6.687  25.758   7.950
 5937POPC   C4B35338   6.684  25.758   7.650
 5938POPC   NC335339  28.373  25.258   9.450
 5938POPC   PO435340  28.387  25.218   9.150
 5938POPC   GL135341  28.348  25.223   8.850
 5938POPC   GL235342  28.229  25.232   8.850
 5938POPC   C1A35343  28.392  25.308   8.550
 5938POPC   D2A35344  28.390  25.302   8.250
 5938POPC   C3A35345  28.404  25.305   7.950
 5938POPC   C4A35346  28.412  25.303   7.650
 5938POPC   C1B35347  28.103  25.250   8.550
 5938POPC   C2B35348  28.114  25.271   8.250
 5938POPC   C3B35349  28.077  25.237   7.950
 5938POPC   C4B35350  28.131  25.322   7.650
 5939POPC   NC335351  14.438  26.055   9.450
 5939POPC   PO435352  14.418  26.082   9.150
 5939POPC   GL135353  14.412  25.997   8.850
 5939POPC   GL235354  14.563  26.041   8.850
 5939POPC   C1A35355  14.410  26.081   8.550
 5939POPC   D2A35356  14.405  26.052   8.250
 5939POPC   C3A35357  14.389  26.021   7.950
 5939POPC   C4A35358  14.426  26.013   7.650
 5939POPC   C1B35359  14.654  25.934   8.550
 5939POPC   C2B35360  14.672  25.991   8.250
 5939POPC   C3B35361  14.629  25.954   7.950
 5939POPC   C4B35362  14.610  25.935   7.650
 5940POPC   NC335363  43.896   9.004   9.450
 5940POPC   PO435364  43.930   9.020   9.150
 5940POPC   GL135365  43.859   8.973   8.850
 5940POPC   GL235366  43.979   8.865   8.850
 5940POPC   C1A35367  43.907   8.990   8.550
 5940POPC   D2A35368  43.899   8.925   8.250
 5940POPC   C3A35369  43.897   8.991   7.950
 5940POPC   C4A35370  43.895   9.021   7.650
 5940POPC   C1B35371  44.060   8.798   8.550
 5940POPC   C2B35372  44.062   8.796   8.250
 5940POPC   C3B35373  44.051   8.852   7.950
 5940POPC   C4B35374  44.035   8.806   7.650
 5941POPC   NC335375  40.048  43.130   9.450
 5941POPC   PO435376  40.046  43.125   9.150
 5941POPC   GL135377  39.993  43.160   8.850
 5941POPC   GL235378  39.959  42.951   8.850
 5941POPC   C1A35379  40.052  43.081   8.550
 5941POPC   D2A35380  39.964  43.155   8.250
 5941POPC   C3A35381  39.999  43.157   7.950
 5941POPC   C4A35382  39.995  43.130   7.650
 5941POPC   C1B35383  39.873  42.840   8.550
 5941POPC   C2B35384  39.948  42.909   8.250
 5941POPC   C3B35385  39.937  42.858   7.950
 5941POPC   C4B35386  39.918  42.857   7.650
 5942POPC   NC335387  28.415  35.305   9.450
 5942POPC   PO435388  28.409  35.399   9.150
 5942POPC   GL135389  28.380  35.332   8.850
 5942POPC   GL235390  28.222  35.403   8.850
 5942POPC   C1A35391  28.397  35.393   8.550
 5942POPC   D2A35392  28.365  35.393   8.250
 5942POPC   C3A35393  28.370  35.395   7.950
 5942POPC   C4A35394  28.356  35.362   7.650
 5942POPC   C1B35395  28.089  35.428   8.550
 5942POPC   C2B35396  28.162  35.443   8.250
 5942POPC   C3B35397  28.162  35.406   7.950
 5942POPC   C4B35398  28.166  35.387   7.650
 5943POPC   NC335399  25.247  23.728   9.450
 5943POPC   PO435400  25.251  23.759   9.150
 5943POPC   GL135401  25.299  23.740   8.850
 5943POPC   GL235402  25.170  23.724   8.850
 5943POPC   C1A35403  25.309  23.686   8.550
 5943POPC   D2A35404  25.272  23.668   8.250
 5943POPC   C3A35405  25.297  23.673   7.950
 5943POPC   C4A35406  25.301  23.763   7.650
 5943POPC   C1B35407  25.019  23.664   8.550
 5943POPC   C2B35408  25.043  23.701   8.250
 5943POPC   C3B35409  25.027  23.637   7.950
 5943POPC   C4B35410  25.002  23.625   7.650
 5944POPC   NC335411  33.837  29.922   9.450
 5944POPC   PO435412  33.780  29.882   9.150
 5944POPC   GL135413  33.837  29.884   8.850
 5944POPC   GL235414  33.730  29.847   8.850
 5944POPC   C1A35415  33.843  29.938   8.550
 5944POPC   D2A35416  33.811  29.912   8.250
 5944POPC   C3A35417  33.782  29.878   7.950
 5944POPC   C4A35418  33.762  29.922   7.650
 5944POPC   C1B35419  33.664  29.708   8.550
 5944POPC   C2B35420  33.679  29.654   8.250
 5944POPC   C3B35421  33.673  29.670   7.950
 5944POPC   C4B35422  33.670  29.690   7.650
 5945POPC   NC335423   5.122  21.389   9.450
 5945POPC   PO435424   5.134  21.340   9.150
 5945POPC   GL135425   5.103  21.397   8.850
 5945POPC   GL235426   5.164  21.304   8.850
 5945POPC   C1A35427   5.083  21.416   8.550
 5945POPC   D2A35428   5.059  21.379   8.250
 5945POPC   C3A35429   5.096  21.372   7.950
 5945POPC   C4A35430   5.109  21.374   7.650
 5945POPC   C1B35431   5.100  21.120   8.550
 5945POPC   C2B35432   5.133  21.162   8.250
 5945POPC   C3B35433   5.178  21.117   7.950
 5945POPC   C4B35434   5.174  21.187   7.650
 5946POPC   NC335435  19.108   9.728   9.450
 5946POPC   PO435436  19.013   9.714   9.150
 5946POPC   GL135437  19.022   9.779   8.850
 5946POPC   GL235438  18.975   9.763   8.850
 5946POPC   C1A35439  19.033   9.766   8.550
 5946POPC   D2A35440  19.013   9.719   8.250
 5946POPC   C3A35441  19.010   9.738   7.950
 5946POPC   C4A35442  19.070   9.707   7.650
 5946POPC   C1B35443  18.859   9.773   8.550
 5946POPC   C2B35444  18.808   9.800   8.250
 5946POPC   C3B35445  18.765   9.737   7.950
 5946POPC   C4B35446  18.819   9.732   7.650
 5947POPC   NC335447  39.260  29.958   9.450
 5947POPC   PO435448  39.228  29.876   9.150
 5947POPC   GL135449  39.211  29.933   8.850
 5947POPC   GL235450  39.346  30.017   8.850
 5947POPC   C1A35451  39.218  29.963   8.550
 5947POPC   D2A35452  39.192  29.878   8.250
 5947POPC   C3A35453  39.250  29.952   7.950
 5947POPC   C4A35454  39.232  29.883   7.650
 5947POPC   C1B35455  39.452  30.099   8.550
 5947POPC   C2B35456  39.408  30.058   8.250
 5947POPC   C3B35457  39.412  30.061   7.950
 5947POPC   C4B35458  39.412  30.042   7.650
 5948POPC   NC335459  33.824  38.434   9.450
 5948POPC   PO435460  33.792  38.477   9.150
 5948POPC   GL135461  33.815  38.448   8.850
 5948POPC   GL235462  33.770  38.546   8.850
 5948POPC   C1A35463  33.838  38.419   8.550
 5948POPC   D2A35464  33.758  38.412   8.250
 5948POPC   C3A35465  33.837  38.414   7.950
 5948POPC   C4A35466  33.819  38.451   7.650
 5948POPC   C1B35467  33.682  38.686   8.550
 5948POPC   C2B35468  33.641  38.636   8.250
 5948POPC   C3B35469  33.659  38.677   7.950
 5948POPC   C4B35470  33.650  38.694   7.650
 5949POPC   NC335471  19.857  21.402   9.450
 5949POPC   PO435472  19.865  21.404   9.150
 5949POPC   GL135473  19.882  21.402   8.850
 5949POPC   GL235474  19.938  21.350   8.850
 5949POPC   C1A35475  19.796  21.420   8.550
 5949POPC   D2A35476  19.821  21.427   8.250
 5949POPC   C3A35477  19.826  21.359   7.950
 5949POPC   C4A35478  19.875  21.434   7.650
 5949POPC   C1B35479  20.108  21.297   8.550
 5949POPC   C2B35480  20.035  21.234   8.250
 5949POPC   C3B35481  20.019  21.265   7.950
 5949POPC   C4B35482  20.070  21.240   7.650
 5950POPC   NC335483  31.432  39.272   9.450
 5950POPC   PO435484  31.429  39.240   9.150
 5950POPC   GL135485  31.495  39.223   8.850
 5950POPC   GL235486  31.541  39.111   8.850
 5950POPC   C1A35487  31.471  39.213   8.550
 5950POPC   D2A35488  31.483  39.220   8.250
 5950POPC   C3A35489  31.491  39.200   7.950
 5950POPC   C4A35490  31.432  39.218   7.650
 5950POPC   C1B35491  31.579  38.961   8.550
 5950POPC   C2B35492  31.580  39.004   8.250
 5950POPC   C3B35493  31.574  38.965   7.950
 5950POPC   C4B35494  31.603  38.996   7.650
 5951POPC   NC335495   8.182  39.982   9.450
 5951POPC   PO435496   8.192  39.988   9.150
 5951POPC   GL135497   8.191  40.035   8.850
 5951POPC   GL235498   8.087  40.032   8.850
 5951POPC   C1A35499   8.244  39.965   8.550
 5951POPC   D2A35500   8.168  40.033   8.250
 5951POPC   C3A35501   8.195  40.014   7.950
 5951POPC   C4A35502   8.160  39.993   7.650
 5951POPC   C1B35503   7.990  40.088   8.550
 5951POPC   C2B35504   7.938  40.113   8.250
 5951POPC   C3B35505   7.941  40.102   7.950
 5951POPC   C4B35506   7.926  40.085   7.650
 5952POPC   NC335507  29.875   8.928   9.450
 5952POPC   PO435508  29.939   8.983   9.150
 5952POPC   GL135509  29.896   8.929   8.850
 5952POPC   GL235510  29.917   8.866   8.850
 5952POPC   C1A35511  29.920   8.924   8.550
 5952POPC   D2A35512  29.880   8.949   8.250
 5952POPC   C3A35513  29.932   9.011   7.950
 5952POPC   C4A35514  29.904   9.005   7.650
 5952POPC   C1B35515  29.873   8.740   8.550
 5952POPC   C2B35516  29.912   8.753   8.250
 5952POPC   C3B35517  29.871   8.683   7.950
 5952POPC   C4B35518  29.845   8.720   7.650
 5953POPC   NC335519  10.563  36.901   9.450
 5953POPC   PO435520  10.571  36.855   9.150
 5953POPC   GL135521  10.569  36.928   8.850
 5953POPC   GL235522  10.641  36.989   8.850
 5953POPC   C1A35523  10.478  36.945   8.550
 5953POPC   D2A35524  10.561  36.918   8.250
 5953POPC   C3A35525  10.488  36.900   7.950
 5953POPC   C4A35526  10.544  36.941   7.650
 5953POPC   C1B35527  10.794  36.985   8.550
 5953POPC   C2B35528  10.726  37.022   8.250
 5953POPC   C3B35529  10.803  36.973   7.950
 5953POPC   C4B35530  10.714  36.969   7.650
 5954POPC   NC335531  37.697  23.745   9.450
 5954POPC   PO435532  37.714  23.718   9.150
 5954POPC   GL135533  37.669  23.744   8.850
 5954POPC   GL235534  37.648  23.784   8.850
 5954POPC   C1A35535  37.706  23.733   8.550
 5954POPC   D2A35536  37.710  23.671   8.250
 5954POPC   C3A35537  37.672  23.703   7.950
 5954POPC   C4A35538  37.705  23.688   7.650
 5954POPC   C1B35539  37.570  23.978   8.550
 5954POPC   C2B35540  37.557  23.897   8.250
 5954POPC   C3B35541  37.539  23.909   7.950
 5954POPC   C4B35542  37.516  23.934   7.650
 5955POPC   NC335543  22.154  17.536   9.450
 5955POPC   PO435544  22.188  17.509   9.150
 5955POPC   GL135545  22.120  17.463   8.850
 5955POPC   GL235546  22.003  17.565   8.850
 5955POPC   C1A35547  22.147  17.464   8.550
 5955POPC   D2A35548  22.197  17.461   8.250
 5955POPC   C3A35549  22.158  17.527   7.950
 5955POPC   C4A35550  22.166  17.511   7.650
 5955POPC   C1B35551  21.957  17.610   8.550
 5955POPC   C2B35552  21.941  17.568   8.250
 5955POPC   C3B35553  21.919  17.587   7.950
 5955POPC   C4B35554  21.913  17.628   7.650
 5956POPC   NC335555  10.539  26.783   9.450
 5956POPC   PO435556  10.489  26.807   9.150
 5956POPC   GL135557  10.511  26.846   8.850
 5956POPC   GL235558  10.530  26.926   8.850
 5956POPC   C1A35559  10.503  26.801   8.550
 5956POPC   D2A35560  10.526  26.785   8.250
 5956POPC   C3A35561  10.514  26.860   7.950
 5956POPC   C4A35562  10.572  26.769   7.650
 5956POPC   C1B35563  10.538  27.065   8.550
 5956POPC   C2B35564  10.531  27.106   8.250
 5956POPC   C3B35565  10.554  27.108   7.950
 5956POPC   C4B35566  10.575  27.112   7.650
 5957POPC   NC335567  23.751   1.211   9.450
 5957POPC   PO435568  23.759   1.229   9.150
 5957POPC   GL135569  23.703   1.251   8.850
 5957POPC   GL235570  23.811   1.326   8.850
 5957POPC   C1A35571  23.707   1.184   8.550
 5957POPC   D2A35572  23.742   1.223   8.250
 5957POPC   C3A35573  23.683   1.185   7.950
 5957POPC   C4A35574  23.758   1.254   7.650
 5957POPC   C1B35575  23.930   1.345   8.550
 5957POPC   C2B35576  23.946   1.397   8.250
 5957POPC   C3B35577  23.941   1.340   7.950
 5957POPC   C4B35578  23.878   1.335   7.650
 5958POPC   NC335579  14.446  39.968   9.450
 5958POPC   PO435580  14.409  40.036   9.150
 5958POPC   GL135581  14.412  39.972   8.850
 5958POPC   GL235582  14.522  39.893   8.850
 5958POPC   C1A35583  14.372  40.035   8.550
 5958POPC   D2A35584  14.447  40.047   8.250
 5958POPC   C3A35585  14.387  40.027   7.950
 5958POPC   C4A35586  14.389  40.000   7.650
 5958POPC   C1B35587  14.646  39.870   8.550
 5958POPC   C2B35588  14.598  39.824   8.250
 5958POPC   C3B35589  14.626  39.883   7.950
 5958POPC   C4B35590  14.555  39.829   7.650
 5959POPC   NC335591  36.901  43.106   9.450
 5959POPC   PO435592  36.866  43.084   9.150
 5959POPC   GL135593  36.861  43.075   8.850
 5959POPC   GL235594  37.027  43.258   8.850
 5959POPC   C1A35595  36.938  43.147   8.550
 5959POPC   D2A35596  36.888  43.096   8.250
 5959POPC   C3A35597  36.860  43.157   7.950
 5959POPC   C4A35598  36.904  43.121   7.650
 5959POPC   C1B35599  37.004  43.350   8.550
 5959POPC   C2B35600  37.046  43.352   8.250
 5959POPC   C3B35601  37.015  43.328   7.950
 5959POPC   C4B35602  37.051  43.269   7.650
 5960POPC   NC335603  36.136   2.030   9.450
 5960POPC   PO435604  36.127   2.016   9.150
 5960POPC   GL135605  36.126   1.980   8.850
 5960POPC   GL235606  36.041   1.983   8.850
 5960POPC   C1A35607  36.106   1.951   8.550
 5960POPC   D2A35608  36.169   1.983   8.250
 5960POPC   C3A35609  36.162   1.953   7.950
 5960POPC   C4A35610  36.155   1.955   7.650
 5960POPC   C1B35611  35.860   1.946   8.550
 5960POPC   C2B35612  35.880   1.924   8.250
 5960POPC   C3B35613  35.851   1.916   7.950
 5960POPC   C4B35614  35.911   1.950   7.650
 5961POPC   NC335615  33.791  35.351   9.450
 5961POPC   PO435616  33.827  35.332   9.150
 5961POPC   GL135617  33.838  35.339   8.850
 5961POPC   GL235618  33.806  35.242   8.850
 5961POPC   C1A35619  33.798  35.343   8.550
 5961POPC   D2A35620  33.755  35.305   8.250
 5961POPC   C3A35621  33.817  35.391   7.950
 5961POPC   C4A35622  33.806  35.318   7.650
 5961POPC   C1B35623  33.942  35.173   8.550
 5961POPC   C2B35624  33.950  35.089   8.250
 5961POPC   C3B35625  33.904  35.118   7.950
 5961POPC   C4B35626  33.861  35.080   7.650
 5962POPC   NC335627  13.659  14.384   9.450
 5962POPC   PO435628  13.578  14.439   9.150
 5962POPC   GL135629  13.618  14.416   8.850
 5962POPC   GL235630  13.541  14.337   8.850
 5962POPC   C1A35631  13.639  14.381   8.550
 5962POPC   D2A35632  13.611  14.443   8.250
 5962POPC   C3A35633  13.630  14.428   7.950
 5962POPC   C4A35634  13.673  14.375   7.650
 5962POPC   C1B35635  13.400  14.218   8.550
 5962POPC   C2B35636  13.463  14.216   8.250
 5962POPC   C3B35637  13.418  14.220   7.950
 5962POPC   C4B35638  13.453  14.204   7.650
 5963POPC   NC335639  28.336   6.679   9.450
 5963POPC   PO435640  28.371   6.684   9.150
 5963POPC   GL135641  28.379   6.602   8.850
 5963POPC   GL235642  28.196   6.586   8.850
 5963POPC   C1A35643  28.359   6.673   8.550
 5963POPC   D2A35644  28.371   6.605   8.250
 5963POPC   C3A35645  28.398   6.611   7.950
 5963POPC   C4A35646  28.357   6.627   7.650
 5963POPC   C1B35647  28.126   6.649   8.550
 5963POPC   C2B35648  28.147   6.620   8.250
 5963POPC   C3B35649  28.074   6.637   7.950
 5963POPC   C4B35650  28.158   6.569   7.650
 5964POPC   NC335651  35.306  43.903   9.450
 5964POPC   PO435652  35.387  43.900   9.150
 5964POPC   GL135653  35.383  43.885   8.850
 5964POPC   GL235654  35.270  43.930   8.850
 5964POPC   C1A35655  35.388  43.889   8.550
 5964POPC   D2A35656  35.337  43.883   8.250
 5964POPC   C3A35657  35.326  43.905   7.950
 5964POPC   C4A35658  35.365  43.899   7.650
 5964POPC   C1B35659  35.062  43.923   8.550
 5964POPC   C2B35660  35.097  43.973   8.250
 5964POPC   C3B35661  35.064  43.960   7.950
 5964POPC   C4B35662  35.096  43.975   7.650
 5965POPC   NC335663  22.170  21.430   9.450
 5965POPC   PO435664  22.173  21.406   9.150
 5965POPC   GL135665  22.112  21.365   8.850
 5965POPC   GL235666  22.272  21.442   8.850
 5965POPC   C1A35667  22.159  21.362   8.550
 5965POPC   D2A35668  22.126  21.358   8.250
 5965POPC   C3A35669  22.177  21.397   7.950
 5965POPC   C4A35670  22.207  21.368   7.650
 5965POPC   C1B35671  22.438  21.395   8.550
 5965POPC   C2B35672  22.435  21.441   8.250
 5965POPC   C3B35673  22.418  21.435   7.950
 5965POPC   C4B35674  22.436  21.443   7.650
 5966POPC   NC335675  23.741  36.091   9.450
 5966POPC   PO435676  23.758  36.165   9.150
 5966POPC   GL135677  23.691  36.136   8.850
 5966POPC   GL235678  23.681  36.186   8.850
 5966POPC   C1A35679  23.703  36.127   8.550
 5966POPC   D2A35680  23.723  36.146   8.250
 5966POPC   C3A35681  23.671  36.123   7.950
 5966POPC   C4A35682  23.687  36.130   7.650
 5966POPC   C1B35683  23.519  36.352   8.550
 5966POPC   C2B35684  23.542  36.367   8.250
 5966POPC   C3B35685  23.573  36.288   7.950
 5966POPC   C4B35686  23.536  36.375   7.650
 5967POPC   NC335687   9.010  24.498   9.450
 5967POPC   PO435688   9.005  24.526   9.150
 5967POPC   GL135689   8.965  24.467   8.850
 5967POPC   GL235690   9.111  24.430   8.850
 5967POPC   C1A35691   8.976  24.461   8.550
 5967POPC   D2A35692   8.957  24.449   8.250
 5967POPC   C3A35693   8.960  24.485   7.950
 5967POPC   C4A35694   8.981  24.448   7.650
 5967POPC   C1B35695   9.158  24.380   8.550
 5967POPC   C2B35696   9.238  24.390   8.250
 5967POPC   C3B35697   9.224  24.385   7.950
 5967POPC   C4B35698   9.194  24.351   7.650
 5968POPC   NC335699  18.321   6.674   9.450
 5968POPC   PO435700  18.282   6.673   9.150
 5968POPC   GL135701  18.247   6.628   8.850
 5968POPC   GL235702  18.279   6.768   8.850
 5968POPC   C1A35703  18.324   6.596   8.550
 5968POPC   D2A35704  18.253   6.662   8.250
 5968POPC   C3A35705  18.278   6.617   7.950
 5968POPC   C4A35706  18.312   6.661   7.650
 5968POPC   C1B35707  18.261   6.844   8.550
 5968POPC   C2B35708  18.247   6.918   8.250
 5968POPC   C3B35709  18.184   6.904   7.950
 5968POPC   C4B35710  18.195   6.866   7.650
 5969POPC   NC335711  33.809  39.217   9.450
 5969POPC   PO435712  33.807  39.245   9.150
 5969POPC   GL135713  33.765  39.254   8.850
 5969POPC   GL235714  33.890  39.113   8.850
 5969POPC   C1A35715  33.840  39.203   8.550
 5969POPC   D2A35716  33.797  39.241   8.250
 5969POPC   C3A35717  33.815  39.262   7.950
 5969POPC   C4A35718  33.794  39.229   7.650
 5969POPC   C1B35719  33.999  39.093   8.550
 5969POPC   C2B35720  33.970  39.061   8.250
 5969POPC   C3B35721  34.035  39.089   7.950
 5969POPC   C4B35722  33.979  39.043   7.650
 5970POPC   NC335723   1.209  16.705   9.450
 5970POPC   PO435724   1.220  16.713   9.150
 5970POPC   GL135725   1.186  16.742   8.850
 5970POPC   GL235726   1.313  16.707   8.850
 5970POPC   C1A35727   1.243  16.771   8.550
 5970POPC   D2A35728   1.216  16.764   8.250
 5970POPC   C3A35729   1.235  16.757   7.950
 5970POPC   C4A35730   1.176  16.750   7.650
 5970POPC   C1B35731   1.455  16.644   8.550
 5970POPC   C2B35732   1.416  16.613   8.250
 5970POPC   C3B35733   1.468  16.631   7.950
 5970POPC   C4B35734   1.420  16.610   7.650
 5971POPC   NC335735  35.305  34.535   9.450
 5971POPC   PO435736  35.330  34.562   9.150
 5971POPC   GL135737  35.399  34.563   8.850
 5971POPC   GL235738  35.510  34.568   8.850
 5971POPC   C1A35739  35.313  34.558   8.550
 5971POPC   D2A35740  35.399  34.604   8.250
 5971POPC   C3A35741  35.319  34.554   7.950
 5971POPC   C4A35742  35.313  34.572   7.650
 5971POPC   C1B35743  35.610  34.583   8.550
 5971POPC   C2B35744  35.580  34.553   8.250
 5971POPC   C3B35745  35.622  34.572   7.950
 5971POPC   C4B35746  35.551  34.505   7.650
 5972POPC   NC335747  43.899   5.057   9.450
 5972POPC   PO435748  43.931   5.077   9.150
 5972POPC   GL135749  43.897   5.140   8.850
 5972POPC   GL235750  43.766   5.070   8.850
 5972POPC   C1A35751  43.837   5.059   8.550
 5972POPC   D2A35752  43.859   5.054   8.250
 5972POPC   C3A35753  43.852   5.116   7.950
 5972POPC   C4A35754  43.931   5.056   7.650
 5972POPC   C1B35755  43.626   5.128   8.550
 5972POPC   C2B35756  43.597   5.111   8.250
 5972POPC   C3B35757  43.598   5.080   7.950
 5972POPC   C4B35758  43.596   5.134   7.650
 5973POPC   NC335759  26.798  34.539   9.450
 5973POPC   PO435760  26.801  34.613   9.150
 5973POPC   GL135761  26.845  34.592   8.850
 5973POPC   GL235762  26.934  34.591   8.850
 5973POPC   C1A35763  26.842  34.580   8.550
 5973POPC   D2A35764  26.832  34.623   8.250
 5973POPC   C3A35765  26.847  34.592   7.950
 5973POPC   C4A35766  26.772  34.565   7.650
 5973POPC   C1B35767  27.040  34.547   8.550
 5973POPC   C2B35768  27.016  34.493   8.250
 5973POPC   C3B35769  27.095  34.529   7.950
 5973POPC   C4B35770  27.112  34.572   7.650
 5974POPC   NC335771  11.334  24.470   9.450
 5974POPC   PO435772  11.303  24.489   9.150
 5974POPC   GL135773  11.264  24.493   8.850
 5974POPC   GL235774  11.203  24.547   8.850
 5974POPC   C1A35775  11.250  24.448   8.550
 5974POPC   D2A35776  11.279  24.499   8.250
 5974POPC   C3A35777  11.307  24.443   7.950
 5974POPC   C4A35778  11.318  24.502   7.650
 5974POPC   C1B35779  11.087  24.518   8.550
 5974POPC   C2B35780  11.108  24.571   8.250
 5974POPC   C3B35781  11.071  24.584   7.950
 5974POPC   C4B35782  11.045  24.588   7.650
 5975POPC   NC335783  28.367  19.012   9.450
 5975POPC   PO435784  28.339  19.039   9.150
 5975POPC   GL135785  28.410  19.069   8.850
 5975POPC   GL235786  28.321  19.176   8.850
 5975POPC   C1A35787  28.377  19.023   8.550
 5975POPC   D2A35788  28.346  19.084   8.250
 5975POPC   C3A35789  28.397  19.054   7.950
 5975POPC   C4A35790  28.394  19.018   7.650
 5975POPC   C1B35791  28.221  19.216   8.550
 5975POPC   C2B35792  28.138  19.195   8.250
 5975POPC   C3B35793  28.149  19.194   7.950
 5975POPC   C4B35794  28.184  19.219   7.650
 5976POPC   NC335795   5.137  23.759   9.450
 5976POPC   PO435796   5.137  23.716   9.150
 5976POPC   GL135797   5.113  23.690   8.850
 5976POPC   GL235798   5.066  23.802   8.850
 5976POPC   C1A35799   5.091  23.673   8.550
 5976POPC   D2A35800   5.087  23.674   8.250
 5976POPC   C3A35801   5.069  23.696   7.950
 5976POPC   C4A35802   5.084  23.698   7.650
 5976POPC   C1B35803   5.025  23.954   8.550
 5976POPC   C2B35804   5.006  23.955   8.250
 5976POPC   C3B35805   4.993  23.967   7.950
 5976POPC   C4B35806   5.000  23.926   7.650
 5977POPC   NC335807  23.719  23.753   9.450
 5977POPC   PO435808  23.740  23.757   9.150
 5977POPC   GL135809  23.724  23.731   8.850
 5977POPC   GL235810  23.737  23.590   8.850
 5977POPC   C1A35811  23.754  23.737   8.550
 5977POPC   D2A35812  23.691  23.718   8.250
 5977POPC   C3A35813  23.746  23.679   7.950
 5977POPC   C4A35814  23.712  23.709   7.650
 5977POPC   C1B35815  23.790  23.448   8.550
 5977POPC   C2B35816  23.781  23.497   8.250
 5977POPC   C3B35817  23.795  23.434   7.950
 5977POPC   C4B35818  23.798  23.463   7.650
 5978POPC   NC335819   0.390  17.479   9.450
 5978POPC   PO435820   0.401  17.508   9.150
 5978POPC   GL135821   0.427  17.484   8.850
 5978POPC   GL235822   0.534  17.422   8.850
 5978POPC   C1A35823   0.477  17.483   8.550
 5978POPC   D2A35824   0.487  17.500   8.250
 5978POPC   C3A35825   0.455  17.547   7.950
 5978POPC   C4A35826   0.441  17.527   7.650
 5978POPC   C1B35827   0.628  17.270   8.550
 5978POPC   C2B35828   0.621  17.296   8.250
 5978POPC   C3B35829   0.592  17.282   7.950
 5978POPC   C4B35830   0.604  17.286   7.650
 5979POPC   NC335831  29.902   1.984   9.450
 5979POPC   PO435832  29.905   2.011   9.150
 5979POPC   GL135833  29.879   1.947   8.850
 5979POPC   GL235834  29.885   1.918   8.850
 5979POPC   C1A35835  29.938   1.988   8.550
 5979POPC   D2A35836  29.928   1.957   8.250
 5979POPC   C3A35837  29.970   1.940   7.950
 5979POPC   C4A35838  29.875   1.966   7.650
 5979POPC   C1B35839  29.813   1.776   8.550
 5979POPC   C2B35840  29.865   1.794   8.250
 5979POPC   C3B35841  29.826   1.717   7.950
 5979POPC   C4B35842  29.856   1.709   7.650
 5980POPC   NC335843  15.930  26.015   9.450
 5980POPC   PO435844  15.957  26.001   9.150
 5980POPC   GL135845  15.978  26.039   8.850
 5980POPC   GL235846  15.985  26.159   8.850
 5980POPC   C1A35847  15.946  26.012   8.550
 5980POPC   D2A35848  15.994  26.013   8.250
 5980POPC   C3A35849  15.914  26.000   7.950
 5980POPC   C4A35850  15.949  26.077   7.650
 5980POPC   C1B35851  15.971  26.303   8.550
 5980POPC   C2B35852  15.881  26.338   8.250
 5980POPC   C3B35853  15.915  26.272   7.950
 5980POPC   C4B35854  15.887  26.241   7.650
 5981POPC   NC335855  24.441  19.865   9.450
 5981POPC   PO435856  24.518  19.860   9.150
 5981POPC   GL135857  24.494  19.860   8.850
 5981POPC   GL235858  24.409  19.744   8.850
 5981POPC   C1A35859  24.490  19.793   8.550
 5981POPC   D2A35860  24.527  19.825   8.250
 5981POPC   C3A35861  24.481  19.867   7.950
 5981POPC   C4A35862  24.489  19.825   7.650
 5981POPC   C1B35863  24.296  19.703   8.550
 5981POPC   C2B35864  24.297  19.668   8.250
 5981POPC   C3B35865  24.302  19.683   7.950
 5981POPC   C4B35866  24.271  19.658   7.650
 5982POPC   NC335867  43.061  42.288   9.450
 5982POPC   PO435868  43.146  42.308   9.150
 5982POPC   GL135869  43.103  42.303   8.850
 5982POPC   GL235870  43.229  42.355   8.850
 5982POPC   C1A35871  43.153  42.313   8.550
 5982POPC   D2A35872  43.135  42.352   8.250
 5982POPC   C3A35873  43.101  42.357   7.950
 5982POPC   C4A35874  43.155  42.342   7.650
 5982POPC   C1B35875  43.318  42.368   8.550
 5982POPC   C2B35876  43.384  42.303   8.250
 5982POPC   C3B35877  43.372  42.329   7.950
 5982POPC   C4B35878  43.334  42.354   7.650
 5983POPC   NC335879  12.888   8.926   9.450
 5983POPC   PO435880  12.815   8.978   9.150
 5983POPC   GL135881  12.895   8.948   8.850
 5983POPC   GL235882  12.925   8.852   8.850
 5983POPC   C1A35883  12.841   8.961   8.550
 5983POPC   D2A35884  12.838   8.950   8.250
 5983POPC   C3A35885  12.864   9.016   7.950
 5983POPC   C4A35886  12.853   8.990   7.650
 5983POPC   C1B35887  12.983   8.802   8.550
 5983POPC   C2B35888  12.975   8.795   8.250
 5983POPC   C3B35889  12.980   8.817   7.950
 5983POPC   C4B35890  13.060   8.780   7.650
 5984POPC   NC335891  41.599  12.850   9.450
 5984POPC   PO435892  41.566  12.806   9.150
 5984POPC   GL135893  41.509  12.811   8.850
 5984POPC   GL235894  41.533  12.731   8.850
 5984POPC   C1A35895  41.600  12.825   8.550
 5984POPC   D2A35896  41.528  12.812   8.250
 5984POPC   C3A35897  41.530  12.837   7.950
 5984POPC   C4A35898  41.519  12.883   7.650
 5984POPC   C1B35899  41.411  12.599   8.550
 5984POPC   C2B35900  41.421  12.657   8.250
 5984POPC   C3B35901  41.393  12.600   7.950
 5984POPC   C4B35902  41.448  12.650   7.650
 5985POPC   NC335903  19.871  11.322   9.450
 5985POPC   PO435904  19.824  11.307   9.150
 5985POPC   GL135905  19.820  11.290   8.850
 5985POPC   GL235906  19.839  11.371   8.850
 5985POPC   C1A35907  19.858  11.333   8.550
 5985POPC   D2A35908  19.829  11.314   8.250
 5985POPC   C3A35909  19.823  11.348   7.950
 5985POPC   C4A35910  19.852  11.281   7.650
 5985POPC   C1B35911  19.896  11.563   8.550
 5985POPC   C2B35912  19.974  11.504   8.250
 5985POPC   C3B35913  19.911  11.571   7.950
 5985POPC   C4B35914  19.972  11.493   7.650
 5986POPC   NC335915  42.323  26.088   9.450
 5986POPC   PO435916  42.357  26.023   9.150
 5986POPC   GL135917  42.346  26.009   8.850
 5986POPC   GL235918  42.388  26.161   8.850
 5986POPC   C1A35919  42.325  26.010   8.550
 5986POPC   D2A35920  42.332  25.996   8.250
 5986POPC   C3A35921  42.304  26.051   7.950
 5986POPC   C4A35922  42.348  25.995   7.650
 5986POPC   C1B35923  42.369  26.290   8.550
 5986POPC   C2B35924  42.366  26.282   8.250
 5986POPC   C3B35925  42.408  26.235   7.950
 5986POPC   C4B35926  42.393  26.249   7.650
 5987POPC   NC335927  23.677  28.367   9.450
 5987POPC   PO435928  23.740  28.346   9.150
 5987POPC   GL135929  23.720  28.378   8.850
 5987POPC   GL235930  23.635  28.524   8.850
 5987POPC   C1A35931  23.749  28.330   8.550
 5987POPC   D2A35932  23.748  28.359   8.250
 5987POPC   C3A35933  23.725  28.397   7.950
 5987POPC   C4A35934  23.762  28.392   7.650
 5987POPC   C1B35935  23.700  28.648   8.550
 5987POPC   C2B35936  23.601  28.616   8.250
 5987POPC   C3B35937  23.642  28.628   7.950
 5987POPC   C4B35938  23.674  28.659   7.650
 5988POPC   NC335939  29.127  40.006   9.450
 5988POPC   PO435940  29.157  40.025   9.150
 5988POPC   GL135941  29.180  39.984   8.850
 5988POPC   GL235942  29.049  39.987   8.850
 5988POPC   C1A35943  29.183  40.041   8.550
 5988POPC   D2A35944  29.134  39.987   8.250
 5988POPC   C3A35945  29.122  40.039   7.950
 5988POPC   C4A35946  29.193  40.053   7.650
 5988POPC   C1B35947  28.959  39.882   8.550
 5988POPC   C2B35948  28.952  39.908   8.250
 5988POPC   C3B35949  28.894  39.887   7.950
 5988POPC   C4B35950  28.909  39.933   7.650
 5989POPC   NC335951  43.075   0.444   9.450
 5989POPC   PO435952  43.141   0.452   9.150
 5989POPC   GL135953  43.066   0.403   8.850
 5989POPC   GL235954  43.012   0.502   8.850
 5989POPC   C1A35955  43.103   0.466   8.550
 5989POPC   D2A35956  43.128   0.396   8.250
 5989POPC   C3A35957  43.157   0.394   7.950
 5989POPC   C4A35958  43.094   0.484   7.650
 5989POPC   C1B35959  42.904   0.631   8.550
 5989POPC   C2B35960  42.951   0.648   8.250
 5989POPC   C3B35961  42.923   0.663   7.950
 5989POPC   C4B35962  42.989   0.611   7.650
 5990POPC   NC335963  43.847  21.374   9.450
 5990POPC   PO435964  43.845  21.380   9.150
 5990POPC   GL135965  43.860  21.432   8.850
 5990POPC   GL235966  43.771  21.321   8.850
 5990POPC   C1A35967  43.840  21.343   8.550
 5990POPC   D2A35968  43.842  21.388   8.250
 5990POPC   C3A35969  43.919  21.341   7.950
 5990POPC   C4A35970  43.922  21.381   7.650
 5990POPC   C1B35971  43.707  21.148   8.550
 5990POPC   C2B35972  43.795  21.153   8.250
 5990POPC   C3B35973  43.764  21.155   7.950
 5990POPC   C4B35974  43.776  21.216   7.650
 5991POPC   NC335975   3.554  16.725   9.450
 5991POPC   PO435976   3.579  16.683   9.150
 5991POPC   GL135977   3.508  16.750   8.850
 5991POPC   GL235978   3.552  16.599   8.850
 5991POPC   C1A35979   3.569  16.755   8.550
 5991POPC   D2A35980   3.563  16.758   8.250
 5991POPC   C3A35981   3.544  16.701   7.950
 5991POPC   C4A35982   3.507  16.737   7.650
 5991POPC   C1B35983   3.606  16.520   8.550
 5991POPC   C2B35984   3.624  16.467   8.250
 5991POPC   C3B35985   3.591  16.468   7.950
 5991POPC   C4B35986   3.597  16.446   7.650
 5992POPC   NC335987  36.138  44.679   9.450
 5992POPC   PO435988  36.133  44.657   9.150
 5992POPC   GL135989  36.170  44.623   8.850
 5992POPC   GL235990  36.044  44.652   8.850
 5992POPC   C1A35991  36.088  44.687   8.550
 5992POPC   D2A35992  36.125  44.705   8.250
 5992POPC   C3A35993  36.121  44.622   7.950
 5992POPC   C4A35994  36.098  44.646   7.650
 5992POPC   C1B35995  35.877  44.534   8.550
 5992POPC   C2B35996  35.856  44.530   8.250
 5992POPC   C3B35997  35.901  44.563   7.950
 5992POPC   C4B35998  35.885  44.543   7.650
 5993POPC   NC335999  14.434  38.429   9.450
 5993POPC   PO436000  14.429  38.488   9.150
 5993POPC   GL136001  14.423  38.471   8.850
 5993POPC   GL236002  14.412  38.381   8.850
 5993POPC   C1A36003  14.373  38.423   8.550
 5993POPC   D2A36004  14.415  38.505   8.250
 5993POPC   C3A36005  14.444  38.464   7.950
 5993POPC   C4A36006  14.418  38.459   7.650
 5993POPC   C1B36007  14.296  38.254   8.550
 5993POPC   C2B36008  14.295  38.197   8.250
 5993POPC   C3B36009  14.326  38.222   7.950
 5993POPC   C4B36010  14.338  38.263   7.650
 5994POPC   NC336011  29.114   4.281   9.450
 5994POPC   PO436012  29.130   4.317   9.150
 5994POPC   GL136013  29.129   4.309   8.850
 5994POPC   GL236014  29.291   4.284   8.850
 5994POPC   C1A36015  29.151   4.342   8.550
 5994POPC   D2A36016  29.164   4.299   8.250
 5994POPC   C3A36017  29.157   4.349   7.950
 5994POPC   C4A36018  29.182   4.361   7.650
 5994POPC   C1B36019  29.389   4.281   8.550
 5994POPC   C2B36020  29.434   4.312   8.250
 5994POPC   C3B36021  29.360   4.279   7.950
 5994POPC   C4B36022  29.428   4.249   7.650
 5995POPC   NC336023  12.099  11.313   9.450
 5995POPC   PO436024  12.098  11.341   9.150
 5995POPC   GL136025  12.124  11.333   8.850
 5995POPC   GL236026  12.144  11.155   8.850
 5995POPC   C1A36027  12.111  11.285   8.550
 5995POPC   D2A36028  12.109  11.261   8.250
 5995POPC   C3A36029  12.093  11.257   7.950
 5995POPC   C4A36030  12.066  11.262   7.650
 5995POPC   C1B36031  12.193  11.141   8.550
 5995POPC   C2B36032  12.217  11.068   8.250
 5995POPC   C3B36033  12.211  11.096   7.950
 5995POPC   C4B36034  12.204  11.131   7.650
 5996POPC   NC336035   0.459  12.877   9.450
 5996POPC   PO436036   0.393  12.853   9.150
 5996POPC   GL136037   0.426  12.850   8.850
 5996POPC   GL236038   0.491  12.765   8.850
 5996POPC   C1A36039   0.472  12.843   8.550
 5996POPC   D2A36040   0.407  12.878   8.250
 5996POPC   C3A36041   0.417  12.836   7.950
 5996POPC   C4A36042   0.395  12.831   7.650
 5996POPC   C1B36043   0.529  12.614   8.550
 5996POPC   C2B36044   0.548  12.631   8.250
 5996POPC   C3B36045   0.556  12.661   7.950
 5996POPC   C4B36046   0.578  12.639   7.650
 5997POPC   NC336047  35.327  38.469   9.450
 5997POPC   PO436048  35.367  38.486   9.150
 5997POPC   GL136049  35.352  38.472   8.850
 5997POPC   GL236050  35.195  38.383   8.850
 5997POPC   C1A36051  35.312  38.411   8.550
 5997POPC   D2A36052  35.372  38.485   8.250
 5997POPC   C3A36053  35.387  38.491   7.950
 5997POPC   C4A36054  35.324  38.485   7.650
 5997POPC   C1B36055  35.157  38.361   8.550
 5997POPC   C2B36056  35.147  38.398   8.250
 5997POPC   C3B36057  35.101  38.389   7.950
 5997POPC   C4B36058  35.076  38.392   7.650
 5998POPC   NC336059  24.469  14.408   9.450
 5998POPC   PO436060  24.506  14.427   9.150
 5998POPC   GL136061  24.506  14.381   8.850
 5998POPC   GL236062  24.544  14.254   8.850
 5998POPC   C1A36063  24.460  14.357   8.550
 5998POPC   D2A36064  24.502  14.450   8.250
 5998POPC   C3A36065  24.491  14.423   7.950
 5998POPC   C4A36066  24.514  14.369   7.650
 5998POPC   C1B36067  24.558  14.132   8.550
 5998POPC   C2B36068  24.554  14.121   8.250
 5998POPC   C3B36069  24.528  14.120   7.950
 5998POPC   C4B36070  24.554  14.115   7.650
 5999POPC   NC336071   2.814  41.582   9.450
 5999POPC   PO436072   2.781  41.515   9.150
 5999POPC   GL136073   2.745  41.579   8.850
 5999POPC   GL236074   2.760  41.390   8.850
 5999POPC   C1A36075   2.739  41.589   8.550
 5999POPC   D2A36076   2.723  41.552   8.250
 5999POPC   C3A36077   2.731  41.537   7.950
 5999POPC   C4A36078   2.749  41.513   7.650
 5999POPC   C1B36079   2.788  41.301   8.550
 5999POPC   C2B36080   2.777  41.294   8.250
 5999POPC   C3B36081   2.767  41.335   7.950
 5999POPC   C4B36082   2.755  41.264   7.650
 6000POPC   NC336083  25.226  31.507   9.450
 6000POPC   PO436084  25.282  31.498   9.150
 6000POPC   GL136085  25.293  31.488   8.850
 6000POPC   GL236086  25.350  31.398   8.850
 6000POPC   C1A36087  25.226  31.432   8.550
 6000POPC   D2A36088  25.230  31.435   8.250
 6000POPC   C3A36089  25.266  31.472   7.950
 6000POPC   C4A36090  25.233  31.510   7.650
 6000POPC   C1B36091  25.488  31.323   8.550
 6000POPC   C2B36092  25.485  31.313   8.250
 6000POPC   C3B36093  25.423  31.307   7.950
 6000POPC   C4B36094  25.436  31.359   7.650
 6001POPC   NC336095   5.869  15.227   9.450
 6001POPC   PO436096   5.827  15.172   9.150
 6001POPC   GL136097   5.853  15.133   8.850
 6001POPC   GL236098   5.922  15.049   8.850
 6001POPC   C1A36099   5.854  15.129   8.550
 6001POPC   D2A36100   5.843  15.188   8.250
 6001POPC   C3A36101   5.879  15.139   7.950
 6001POPC   C4A36102   5.819  15.177   7.650
 6001POPC   C1B36103   5.923  14.943   8.550
 6001POPC   C2B36104   5.933  14.961   8.250
 6001POPC   C3B36105   5.996  14.946   7.950
 6001POPC   C4B36106   5.988  14.963   7.650
 6002POPC   NC336107  22.168  15.992   9.450
 6002POPC   PO436108  22.183  15.964   9.150
 6002POPC   GL136109  22.168  15.955   8.850
 6002POPC   GL236110  22.192  15.846   8.850
 6002POPC   C1A36111  22.131  15.957   8.550
 6002POPC   D2A36112  22.155  15.981   8.250
 6002POPC   C3A36113  22.171  15.958   7.950
 6002POPC   C4A36114  22.173  15.994   7.650
 6002POPC   C1B36115  22.305  15.761   8.550
 6002POPC   C2B36116  22.278  15.714   8.250
 6002POPC   C3B36117  22.279  15.791   7.950
 6002POPC   C4B36118  22.295  15.712   7.650
 6003POPC   NC336119  29.911  30.710   9.450
 6003POPC   PO436120  29.945  30.683   9.150
 6003POPC   GL136121  29.952  30.673   8.850
 6003POPC   GL236122  30.035  30.835   8.850
 6003POPC   C1A36123  29.905  30.676   8.550
 6003POPC   D2A36124  29.953  30.668   8.250
 6003POPC   C3A36125  29.878  30.695   7.950
 6003POPC   C4A36126  29.970  30.677   7.650
 6003POPC   C1B36127  30.121  30.891   8.550
 6003POPC   C2B36128  30.107  30.908   8.250
 6003POPC   C3B36129  30.083  30.899   7.950
 6003POPC   C4B36130  30.025  30.911   7.650
 6004POPC   NC336131  16.713   6.694   9.450
 6004POPC   PO436132  16.753   6.632   9.150
 6004POPC   GL136133  16.735   6.675   8.850
 6004POPC   GL236134  16.819   6.512   8.850
 6004POPC   C1A36135  16.702   6.599   8.550
 6004POPC   D2A36136  16.690   6.679   8.250
 6004POPC   C3A36137  16.766   6.688   7.950
 6004POPC   C4A36138  16.779   6.675   7.650
 6004POPC   C1B36139  16.887   6.400   8.550
 6004POPC   C2B36140  16.816   6.462   8.250
 6004POPC   C3B36141  16.824   6.453   7.950
 6004POPC   C4B36142  16.870   6.412   7.650
 6005POPC   NC336143  20.570   4.270   9.450
 6005POPC   PO436144  20.570   4.299   9.150
 6005POPC   GL136145  20.581   4.315   8.850
 6005POPC   GL236146  20.516   4.412   8.850
 6005POPC   C1A36147  20.640   4.326   8.550
 6005POPC   D2A36148  20.592   4.344   8.250
 6005POPC   C3A36149  20.626   4.325   7.950
 6005POPC   C4A36150  20.629   4.279   7.650
 6005POPC   C1B36151  20.429   4.559   8.550
 6005POPC   C2B36152  20.515   4.518   8.250
 6005POPC   C3B36153  20.502   4.536   7.950
 6005POPC   C4B36154  20.515   4.523   7.650
 6006POPC   NC336155   0.397  15.211   9.450
 6006POPC   PO436156   0.453  15.226   9.150
 6006POPC   GL136157   0.415  15.204   8.850
 6006POPC   GL236158   0.420  15.090   8.850
 6006POPC   C1A36159   0.400  15.155   8.550
 6006POPC   D2A36160   0.403  15.168   8.250
 6006POPC   C3A36161   0.414  15.147   7.950
 6006POPC   C4A36162   0.415  15.183   7.650
 6006POPC   C1B36163   0.432  14.909   8.550
 6006POPC   C2B36164   0.411  14.893   8.250
 6006POPC   C3B36165   0.432  14.951   7.950
 6006POPC   C4B36166   0.467  14.890   7.650
 6007POPC   NC336167  22.202  30.652   9.450
 6007POPC   PO436168  22.142  30.714   9.150
 6007POPC   GL136169  22.155  30.709   8.850
 6007POPC   GL236170  22.222  30.614   8.850
 6007POPC   C1A36171  22.117  30.737   8.550
 6007POPC   D2A36172  22.204  30.721   8.250
 6007POPC   C3A36173  22.200  30.734   7.950
 6007POPC   C4A36174  22.181  30.699   7.650
 6007POPC   C1B36175  22.322  30.509   8.550
 6007POPC   C2B36176  22.372  30.562   8.250
 6007POPC   C3B36177  22.374  30.535   7.950
 6007POPC   C4B36178  22.372  30.558   7.650
 6008POPC   NC336179  37.705   2.727   9.450
 6008POPC   PO436180  37.679   2.814   9.150
 6008POPC   GL136181  37.721   2.799   8.850
 6008POPC   GL236182  37.755   2.828   8.850
 6008POPC   C1A36183  37.646   2.766   8.550
 6008POPC   D2A36184  37.697   2.810   8.250
 6008POPC   C3A36185  37.674   2.745   7.950
 6008POPC   C4A36186  37.690   2.765   7.650
 6008POPC   C1B36187  37.927   2.900   8.550
 6008POPC   C2B36188  37.916   2.850   8.250
 6008POPC   C3B36189  37.889   2.935   7.950
 6008POPC   C4B36190  37.892   2.930   7.650
 6009POPC   NC336191  19.834  32.988   9.450
 6009POPC   PO436192  19.838  32.988   9.150
 6009POPC   GL136193  19.817  33.011   8.850
 6009POPC   GL236194  19.744  32.931   8.850
 6009POPC   C1A36195  19.807  32.987   8.550
 6009POPC   D2A36196  19.821  33.005   8.250
 6009POPC   C3A36197  19.846  33.018   7.950
 6009POPC   C4A36198  19.787  33.004   7.650
 6009POPC   C1B36199  19.617  32.879   8.550
 6009POPC   C2B36200  19.655  32.860   8.250
 6009POPC   C3B36201  19.660  32.799   7.950
 6009POPC   C4B36202  19.658  32.811   7.650
 6010POPC   NC336203  38.429  22.947   9.450
 6010POPC   PO436204  38.480  22.919   9.150
 6010POPC   GL136205  38.419  22.976   8.850
 6010POPC   GL236206  38.303  22.941   8.850
 6010POPC   C1A36207  38.431  22.923   8.550
 6010POPC   D2A36208  38.495  22.918   8.250
 6010POPC   C3A36209  38.456  22.911   7.950
 6010POPC   C4A36210  38.483  22.980   7.650
 6010POPC   C1B36211  38.181  22.998   8.550
 6010POPC   C2B36212  38.193  23.000   8.250
 6010POPC   C3B36213  38.251  22.973   7.950
 6010POPC   C4B36214  38.206  23.012   7.650
 6011POPC   NC336215  16.732  14.369   9.450
 6011POPC   PO436216  16.690  14.368   9.150
 6011POPC   GL136217  16.729  14.421   8.850
 6011POPC   GL236218  16.617  14.527   8.850
 6011POPC   C1A36219  16.765  14.438   8.550
 6011POPC   D2A36220  16.757  14.417   8.250
 6011POPC   C3A36221  16.746  14.379   7.950
 6011POPC   C4A36222  16.702  14.372   7.650
 6011POPC   C1B36223  16.619  14.596   8.550
 6011POPC   C2B36224  16.522  14.628   8.250
 6011POPC   C3B36225  16.595  14.610   7.950
 6011POPC   C4B36226  16.613  14.571   7.650
 6012POPC   NC336227  33.759  16.698   9.450
 6012POPC   PO436228  33.850  16.765   9.150
 6012POPC   GL136229  33.811  16.758   8.850
 6012POPC   GL236230  33.861  16.566   8.850
 6012POPC   C1A36231  33.779  16.758   8.550
 6012POPC   D2A36232  33.849  16.708   8.250
 6012POPC   C3A36233  33.842  16.699   7.950
 6012POPC   C4A36234  33.834  16.746   7.650
 6012POPC   C1B36235  33.794  16.480   8.550
 6012POPC   C2B36236  33.857  16.490   8.250
 6012POPC   C3B36237  33.797  16.446   7.950
 6012POPC   C4B36238  33.785  16.497   7.650
 6013POPC   NC336239   2.798  15.986   9.450
 6013POPC   PO436240   2.774  15.942   9.150
 6013POPC   GL136241   2.766  15.938   8.850
 6013POPC   GL236242   2.802  16.011   8.850
 6013POPC   C1A36243   2.730  15.964   8.550
 6013POPC   D2A36244   2.758  15.938   8.250
 6013POPC   C3A36245   2.778  15.951   7.950
 6013POPC   C4A36246   2.753  15.943   7.650
 6013POPC   C1B36247   2.916  16.102   8.550
 6013POPC   C2B36248   2.948  16.178   8.250
 6013POPC   C3B36249   2.971  16.135   7.950
 6013POPC   C4B36250   2.884  16.176   7.650
 6014POPC   NC336251  43.914  17.552   9.450
 6014POPC   PO436252  43.869  17.489   9.150
 6014POPC   GL136253  43.853  17.503   8.850
 6014POPC   GL236254  43.789  17.589   8.850
 6014POPC   C1A36255  43.899  17.486   8.550
 6014POPC   D2A36256  43.866  17.502   8.250
 6014POPC   C3A36257  43.854  17.468   7.950
 6014POPC   C4A36258  43.917  17.466   7.650
 6014POPC   C1B36259  43.643  17.607   8.550
 6014POPC   C2B36260  43.598  17.582   8.250
 6014POPC   C3B36261  43.660  17.601   7.950
 6014POPC   C4B36262  43.632  17.586   7.650
 6015POPC   NC336263   9.754  29.161   9.450
 6015POPC   PO436264   9.702  29.174   9.150
 6015POPC   GL136265   9.741  29.167   8.850
 6015POPC   GL236266   9.662  29.084   8.850
 6015POPC   C1A36267   9.753  29.123   8.550
 6015POPC   D2A36268   9.725  29.186   8.250
 6015POPC   C3A36269   9.753  29.156   7.950
 6015POPC   C4A36270   9.769  29.146   7.650
 6015POPC   C1B36271   9.559  29.011   8.550
 6015POPC   C2B36272   9.535  29.012   8.250
 6015POPC   C3B36273   9.550  29.030   7.950
 6015POPC   C4B36274   9.540  28.970   7.650
 6016POPC   NC336275   6.629  19.067   9.450
 6016POPC   PO436276   6.655  19.097   9.150
 6016POPC   GL136277   6.624  19.018   8.850
 6016POPC   GL236278   6.748  19.139   8.850
 6016POPC   C1A36279   6.635  19.023   8.550
 6016POPC   D2A36280   6.686  19.071   8.250
 6016POPC   C3A36281   6.660  19.012   7.950
 6016POPC   C4A36282   6.674  19.088   7.650
 6016POPC   C1B36283   6.857  19.236   8.550
 6016POPC   C2B36284   6.807  19.263   8.250
 6016POPC   C3B36285   6.839  19.249   7.950
 6016POPC   C4B36286   6.827  19.270   7.650
 6017POPC   NC336287   8.234  33.823   9.450
 6017POPC   PO436288   8.156  33.808   9.150
 6017POPC   GL136289   8.170  33.850   8.850
 6017POPC   GL236290   8.159  33.870   8.850
 6017POPC   C1A36291   8.214  33.782   8.550
 6017POPC   D2A36292   8.190  33.845   8.250
 6017POPC   C3A36293   8.175  33.762   7.950
 6017POPC   C4A36294   8.232  33.797   7.650
 6017POPC   C1B36295   8.081  34.019   8.550
 6017POPC   C2B36296   8.110  34.047   8.250
 6017POPC   C3B36297   8.058  34.009   7.950
 6017POPC   C4B36298   8.030  34.049   7.650
 6018POPC   NC336299   8.955  23.733   9.450
 6018POPC   PO436300   8.977  23.724   9.150
 6018POPC   GL136301   8.947  23.669   8.850
 6018POPC   GL236302   9.038  23.789   8.850
 6018POPC   C1A36303   8.931  23.710   8.550
 6018POPC   D2A36304   8.984  23.759   8.250
 6018POPC   C3A36305   8.940  23.729   7.950
 6018POPC   C4A36306   8.979  23.708   7.650
 6018POPC   C1B36307   9.152  23.811   8.550
 6018POPC   C2B36308   9.193  23.781   8.250
 6018POPC   C3B36309   9.158  23.810   7.950
 6018POPC   C4B36310   9.228  23.844   7.650
 6019POPC   NC336311  24.495  13.601   9.450
 6019POPC   PO436312  24.483  13.632   9.150
 6019POPC   GL136313  24.538  13.673   8.850
 6019POPC   GL236314  24.557  13.764   8.850
 6019POPC   C1A36315  24.447  13.611   8.550
 6019POPC   D2A36316  24.468  13.676   8.250
 6019POPC   C3A36317  24.500  13.591   7.950
 6019POPC   C4A36318  24.447  13.646   7.650
 6019POPC   C1B36319  24.614  13.842   8.550
 6019POPC   C2B36320  24.583  13.832   8.250
 6019POPC   C3B36321  24.600  13.852   7.950
 6019POPC   C4B36322  24.579  13.886   7.650
 6020POPC   NC336323  28.363   5.903   9.450
 6020POPC   PO436324  28.388   5.858   9.150
 6020POPC   GL136325  28.409   5.861   8.850
 6020POPC   GL236326  28.493   5.774   8.850
 6020POPC   C1A36327  28.355   5.893   8.550
 6020POPC   D2A36328  28.411   5.877   8.250
 6020POPC   C3A36329  28.333   5.821   7.950
 6020POPC   C4A36330  28.338   5.837   7.650
 6020POPC   C1B36331  28.509   5.710   8.550
 6020POPC   C2B36332  28.501   5.691   8.250
 6020POPC   C3B36333  28.497   5.734   7.950
 6020POPC   C4B36334  28.588   5.683   7.650
 6021POPC   NC336335   6.652   4.341   9.450
 6021POPC   PO436336   6.653   4.347   9.150
 6021POPC   GL136337   6.659   4.367   8.850
 6021POPC   GL236338   6.766   4.255   8.850
 6021POPC   C1A36339   6.603   4.317   8.550
 6021POPC   D2A36340   6.662   4.301   8.250
 6021POPC   C3A36341   6.670   4.303   7.950
 6021POPC   C4A36342   6.669   4.336   7.650
 6021POPC   C1B36343   6.932   4.281   8.550
 6021POPC   C2B36344   6.850   4.254   8.250
 6021POPC   C3B36345   6.878   4.201   7.950
 6021POPC   C4B36346   6.881   4.248   7.650
 6022POPC   NC336347   0.447  16.699   9.450
 6022POPC   PO436348   0.398  16.710   9.150
 6022POPC   GL136349   0.448  16.769   8.850
 6022POPC   GL236350   0.413  16.594   8.850
 6022POPC   C1A36351   0.456  16.763   8.550
 6022POPC   D2A36352   0.473  16.715   8.250
 6022POPC   C3A36353   0.459  16.721   7.950
 6022POPC   C4A36354   0.457  16.690   7.650
 6022POPC   C1B36355   0.327  16.532   8.550
 6022POPC   C2B36356   0.321  16.550   8.250
 6022POPC   C3B36357   0.286  16.475   7.950
 6022POPC   C4B36358   0.325  16.514   7.650
 6023POPC   NC336359   1.957   9.766   9.450
 6023POPC   PO436360   2.010   9.715   9.150
 6023POPC   GL136361   2.037   9.730   8.850
 6023POPC   GL236362   2.129   9.799   8.850
 6023POPC   C1A36363   2.038   9.701   8.550
 6023POPC   D2A36364   1.978   9.787   8.250
 6023POPC   C3A36365   1.996   9.749   7.950
 6023POPC   C4A36366   1.969   9.753   7.650
 6023POPC   C1B36367   2.210   9.831   8.550
 6023POPC   C2B36368   2.211   9.783   8.250
 6023POPC   C3B36369   2.248   9.794   7.950
 6023POPC   C4B36370   2.273   9.845   7.650
 6024POPC   NC336371  39.234  37.651   9.450
 6024POPC   PO436372  39.189  37.655   9.150
 6024POPC   GL136373  39.228  37.685   8.850
 6024POPC   GL236374  39.350  37.723   8.850
 6024POPC   C1A36375  39.205  37.683   8.550
 6024POPC   D2A36376  39.229  37.678   8.250
 6024POPC   C3A36377  39.190  37.656   7.950
 6024POPC   C4A36378  39.188  37.642   7.650
 6024POPC   C1B36379  39.501  37.784   8.550
 6024POPC   C2B36380  39.434  37.713   8.250
 6024POPC   C3B36381  39.492  37.789   7.950
 6024POPC   C4B36382  39.433  37.716   7.650
 6025POPC   NC336383  38.476  37.669   9.450
 6025POPC   PO436384  38.504  37.705   9.150
 6025POPC   GL136385  38.490  37.698   8.850
 6025POPC   GL236386  38.579  37.810   8.850
 6025POPC   C1A36387  38.439  37.633   8.550
 6025POPC   D2A36388  38.418  37.644   8.250
 6025POPC   C3A36389  38.420  37.690   7.950
 6025POPC   C4A36390  38.495  37.662   7.650
 6025POPC   C1B36391  38.666  37.859   8.550
 6025POPC   C2B36392  38.669  37.802   8.250
 6025POPC   C3B36393  38.642  37.827   7.950
 6025POPC   C4B36394  38.662  37.868   7.650
 6026POPC   NC336395  13.624  25.279   9.450
 6026POPC   PO436396  13.607  25.249   9.150
 6026POPC   GL136397  13.579  25.258   8.850
 6026POPC   GL236398  13.495  25.315   8.850
 6026POPC   C1A36399  13.637  25.280   8.550
 6026POPC   D2A36400  13.661  25.252   8.250
 6026POPC   C3A36401  13.598  25.247   7.950
 6026POPC   C4A36402  13.579  25.257   7.650
 6026POPC   C1B36403  13.427  25.364   8.550
 6026POPC   C2B36404  13.390  25.343   8.250
 6026POPC   C3B36405  13.383  25.351   7.950
 6026POPC   C4B36406  13.375  25.392   7.650
 6027POPC   NC336407  33.808  29.110   9.450
 6027POPC   PO436408  33.757  29.104   9.150
 6027POPC   GL136409  33.801  29.115   8.850
 6027POPC   GL236410  33.727  29.023   8.850
 6027POPC   C1A36411  33.838  29.193   8.550
 6027POPC   D2A36412  33.790  29.122   8.250
 6027POPC   C3A36413  33.838  29.112   7.950
 6027POPC   C4A36414  33.758  29.096   7.650
 6027POPC   C1B36415  33.700  28.922   8.550
 6027POPC   C2B36416  33.635  28.916   8.250
 6027POPC   C3B36417  33.639  28.944   7.950
 6027POPC   C4B36418  33.656  28.957   7.650
 6028POPC   NC336419  16.741  32.271   9.450
 6028POPC   PO436420  16.755  32.228   9.150
 6028POPC   GL136421  16.734  32.264   8.850
 6028POPC   GL236422  16.587  32.318   8.850
 6028POPC   C1A36423  16.768  32.292   8.550
 6028POPC   D2A36424  16.687  32.200   8.250
 6028POPC   C3A36425  16.746  32.267   7.950
 6028POPC   C4A36426  16.716  32.213   7.650
 6028POPC   C1B36427  16.519  32.325   8.550
 6028POPC   C2B36428  16.510  32.350   8.250
 6028POPC   C3B36429  16.479  32.284   7.950
 6028POPC   C4B36430  16.500  32.267   7.650
 6029POPC   NC336431  29.969   2.792   9.450
 6029POPC   PO436432  29.946   2.814   9.150
 6029POPC   GL136433  29.902   2.717   8.850
 6029POPC   GL236434  29.806   2.742   8.850
 6029POPC   C1A36435  29.911   2.764   8.550
 6029POPC   D2A36436  29.904   2.743   8.250
 6029POPC   C3A36437  29.970   2.805   7.950
 6029POPC   C4A36438  29.948   2.795   7.650
 6029POPC   C1B36439  29.674   2.746   8.550
 6029POPC   C2B36440  29.663   2.787   8.250
 6029POPC   C3B36441  29.671   2.747   7.950
 6029POPC   C4B36442  29.659   2.792   7.650
 6030POPC   NC336443  22.898  17.540   9.450
 6030POPC   PO436444  22.969  17.501   9.150
 6030POPC   GL136445  22.889  17.477   8.850
 6030POPC   GL236446  22.951  17.592   8.850
 6030POPC   C1A36447  22.892  17.473   8.550
 6030POPC   D2A36448  22.905  17.512   8.250
 6030POPC   C3A36449  22.937  17.470   7.950
 6030POPC   C4A36450  22.940  17.474   7.650
 6030POPC   C1B36451  23.005  17.766   8.550
 6030POPC   C2B36452  23.004  17.790   8.250
 6030POPC   C3B36453  22.997  17.774   7.950
 6030POPC   C4B36454  22.939  17.777   7.650
 6031POPC   NC336455  42.303  22.899   9.450
 6031POPC   PO436456  42.353  22.940   9.150
 6031POPC   GL136457  42.342  22.909   8.850
 6031POPC   GL236458  42.312  23.028   8.850
 6031POPC   C1A36459  42.290  22.934   8.550
 6031POPC   D2A36460  42.363  22.924   8.250
 6031POPC   C3A36461  42.313  22.933   7.950
 6031POPC   C4A36462  42.309  22.895   7.650
 6031POPC   C1B36463  42.311  23.215   8.550
 6031POPC   C2B36464  42.350  23.186   8.250
 6031POPC   C3B36465  42.292  23.167   7.950
 6031POPC   C4B36466  42.264  23.171   7.650
 6032POPC   NC336467  32.206  35.348   9.450
 6032POPC   PO436468  32.199  35.314   9.150
 6032POPC   GL136469  32.225  35.392   8.850
 6032POPC   GL236470  32.385  35.246   8.850
 6032POPC   C1A36471  32.287  35.321   8.550
 6032POPC   D2A36472  32.204  35.382   8.250
 6032POPC   C3A36473  32.268  35.331   7.950
 6032POPC   C4A36474  32.216  35.362   7.650
 6032POPC   C1B36475  32.464  35.177   8.550
 6032POPC   C2B36476  32.468  35.139   8.250
 6032POPC   C3B36477  32.394  35.202   7.950
 6032POPC   C4B36478  32.397  35.131   7.650
 6033POPC   NC336479  29.918  37.719   9.450
 6033POPC   PO436480  29.921  37.651   9.150
 6033POPC   GL136481  29.911  37.713   8.850
 6033POPC   GL236482  29.749  37.705   8.850
 6033POPC   C1A36483  29.969  37.706   8.550
 6033POPC   D2A36484  29.955  37.719   8.250
 6033POPC   C3A36485  29.913  37.725   7.950
 6033POPC   C4A36486  29.969  37.695   7.650
 6033POPC   C1B36487  29.664  37.724   8.550
 6033POPC   C2B36488  29.694  37.695   8.250
 6033POPC   C3B36489  29.685  37.675   7.950
 6033POPC   C4B36490  29.665  37.729   7.650
 6034POPC   NC336491  29.881  43.138   9.450
 6034POPC   PO436492  29.890  43.146   9.150
 6034POPC   GL136493  29.947  43.102   8.850
 6034POPC   GL236494  29.837  43.136   8.850
 6034POPC   C1A36495  29.958  43.089   8.550
 6034POPC   D2A36496  29.916  43.110   8.250
 6034POPC   C3A36497  29.911  43.114   7.950
 6034POPC   C4A36498  29.910  43.152   7.650
 6034POPC   C1B36499  29.680  43.212   8.550
 6034POPC   C2B36500  29.736  43.230   8.250
 6034POPC   C3B36501  29.725  43.275   7.950
 6034POPC   C4B36502  29.667  43.247   7.650
 6035POPC   NC336503  26.066  24.465   9.450
 6035POPC   PO436504  26.039  24.483   9.150
 6035POPC   GL136505  26.034  24.462   8.850
 6035POPC   GL236506  26.146  24.615   8.850
 6035POPC   C1A36507  26.061  24.523   8.550
 6035POPC   D2A36508  25.997  24.459   8.250
 6035POPC   C3A36509  26.030  24.498   7.950
 6035POPC   C4A36510  26.056  24.505   7.650
 6035POPC   C1B36511  26.223  24.730   8.550
 6035POPC   C2B36512  26.141  24.713   8.250
 6035POPC   C3B36513  26.152  24.730   7.950
 6035POPC   C4B36514  26.170  24.722   7.650
 6036POPC   NC336515   9.721  38.443   9.450
 6036POPC   PO436516   9.714  38.468   9.150
 6036POPC   GL136517   9.797  38.469   8.850
 6036POPC   GL236518   9.910  38.423   8.850
 6036POPC   C1A36519   9.719  38.409   8.550
 6036POPC   D2A36520   9.764  38.444   8.250
 6036POPC   C3A36521   9.777  38.472   7.950
 6036POPC   C4A36522   9.768  38.445   7.650
 6036POPC   C1B36523   9.962  38.380   8.550
 6036POPC   C2B36524  10.016  38.371   8.250
 6036POPC   C3B36525   9.939  38.305   7.950
 6036POPC   C4B36526   9.998  38.330   7.650
 6037POPC   NC336527  32.255   6.679   9.450
 6037POPC   PO436528  32.244   6.663   9.150
 6037POPC   GL136529  32.246   6.618   8.850
 6037POPC   GL236530  32.360   6.723   8.850
 6037POPC   C1A36531  32.291   6.627   8.550
 6037POPC   D2A36532  32.269   6.629   8.250
 6037POPC   C3A36533  32.237   6.632   7.950
 6037POPC   C4A36534  32.236   6.668   7.650
 6037POPC   C1B36535  32.427   6.756   8.550
 6037POPC   C2B36536  32.398   6.766   8.250
 6037POPC   C3B36537  32.424   6.787   7.950
 6037POPC   C4B36538  32.401   6.815   7.650
 6038POPC   NC336539   1.257  13.583   9.450
 6038POPC   PO436540   1.176  13.640   9.150
 6038POPC   GL136541   1.184  13.594   8.850
 6038POPC   GL236542   1.118  13.599   8.850
 6038POPC   C1A36543   1.211  13.658   8.550
 6038POPC   D2A36544   1.211  13.603   8.250
 6038POPC   C3A36545   1.177  13.635   7.950
 6038POPC   C4A36546   1.185  13.627   7.650
 6038POPC   C1B36547   1.016  13.632   8.550
 6038POPC   C2B36548   0.985  13.618   8.250
 6038POPC   C3B36549   0.927  13.631   7.950
 6038POPC   C4B36550   0.985  13.632   7.650
 6039POPC   NC336551   9.761  34.543   9.450
 6039POPC   PO436552   9.740  34.606   9.150
 6039POPC   GL136553   9.741  34.549   8.850
 6039POPC   GL236554   9.607  34.562   8.850
 6039POPC   C1A36555   9.756  34.611   8.550
 6039POPC   D2A36556   9.787  34.540   8.250
 6039POPC   C3A36557   9.790  34.591   7.950
 6039POPC   C4A36558   9.701  34.620   7.650
 6039POPC   C1B36559   9.511  34.537   8.550
 6039POPC   C2B36560   9.504  34.465   8.250
 6039POPC   C3B36561   9.474  34.476   7.950
 6039POPC   C4B36562   9.541  34.508   7.650
 6040POPC   NC336563  10.517  26.014   9.450
 6040POPC   PO436564  10.535  26.045   9.150
 6040POPC   GL136565  10.566  26.021   8.850
 6040POPC   GL236566  10.553  26.163   8.850
 6040POPC   C1A36567  10.532  26.017   8.550
 6040POPC   D2A36568  10.562  26.027   8.250
 6040POPC   C3A36569  10.525  26.024   7.950
 6040POPC   C4A36570  10.566  26.059   7.650
 6040POPC   C1B36571  10.559  26.240   8.550
 6040POPC   C2B36572  10.551  26.312   8.250
 6040POPC   C3B36573  10.631  26.270   7.950
 6040POPC   C4B36574  10.635  26.261   7.650
 6041POPC   NC336575   2.752  30.722   9.450
 6041POPC   PO436576   2.765  30.665   9.150
 6041POPC   GL136577   2.792  30.704   8.850
 6041POPC   GL236578   2.678  30.816   8.850
 6041POPC   C1A36579   2.812  30.701   8.550
 6041POPC   D2A36580   2.762  30.732   8.250
 6041POPC   C3A36581   2.748  30.652   7.950
 6041POPC   C4A36582   2.716  30.682   7.650
 6041POPC   C1B36583   2.665  30.917   8.550
 6041POPC   C2B36584   2.681  30.922   8.250
 6041POPC   C3B36585   2.676  30.938   7.950
 6041POPC   C4B36586   2.677  30.907   7.650
 6042POPC   NC336587  15.995  32.215   9.450
 6042POPC   PO436588  15.980  32.283   9.150
 6042POPC   GL136589  15.906  32.297   8.850
 6042POPC   GL236590  16.039  32.146   8.850
 6042POPC   C1A36591  15.995  32.263   8.550
 6042POPC   D2A36592  15.988  32.215   8.250
 6042POPC   C3A36593  16.002  32.212   7.950
 6042POPC   C4A36594  15.944  32.254   7.650
 6042POPC   C1B36595  16.122  32.135   8.550
 6042POPC   C2B36596  16.207  32.144   8.250
 6042POPC   C3B36597  16.156  32.154   7.950
 6042POPC   C4B36598  16.154  32.080   7.650
 6043POPC   NC336599   9.722  30.742   9.450
 6043POPC   PO436600   9.738  30.657   9.150
 6043POPC   GL136601   9.780  30.731   8.850
 6043POPC   GL236602   9.704  30.844   8.850
 6043POPC   C1A36603   9.759  30.733   8.550
 6043POPC   D2A36604   9.744  30.717   8.250
 6043POPC   C3A36605   9.790  30.728   7.950
 6043POPC   C4A36606   9.756  30.732   7.650
 6043POPC   C1B36607   9.693  30.989   8.550
 6043POPC   C2B36608   9.654  30.916   8.250
 6043POPC   C3B36609   9.704  30.899   7.950
 6043POPC   C4B36610   9.709  30.964   7.650
 6044POPC   NC336611  11.331  10.561   9.450
 6044POPC   PO436612  11.333  10.497   9.150
 6044POPC   GL136613  11.296  10.571   8.850
 6044POPC   GL236614  11.207  10.401   8.850
 6044POPC   C1A36615  11.334  10.495   8.550
 6044POPC   D2A36616  11.308  10.572   8.250
 6044POPC   C3A36617  11.288  10.493   7.950
 6044POPC   C4A36618  11.329  10.511   7.650
 6044POPC   C1B36619  11.185  10.279   8.550
 6044POPC   C2B36620  11.182  10.276   8.250
 6044POPC   C3B36621  11.166  10.291   7.950
 6044POPC   C4B36622  11.165  10.351   7.650
 6045POPC   NC336623  40.745   3.506   9.450
 6045POPC   PO436624  40.776   3.536   9.150
 6045POPC   GL136625  40.829   3.583   8.850
 6045POPC   GL236626  40.699   3.683   8.850
 6045POPC   C1A36627  40.833   3.571   8.550
 6045POPC   D2A36628  40.823   3.525   8.250
 6045POPC   C3A36629  40.813   3.502   7.950
 6045POPC   C4A36630  40.804   3.546   7.650
 6045POPC   C1B36631  40.590   3.706   8.550
 6045POPC   C2B36632  40.610   3.695   8.250
 6045POPC   C3B36633  40.585   3.764   7.950
 6045POPC   C4B36634  40.600   3.712   7.650
 6046POPC   NC336635  24.520   0.474   9.450
 6046POPC   PO436636  24.508   0.456   9.150
 6046POPC   GL136637  24.481   0.419   8.850
 6046POPC   GL236638  24.351   0.460   8.850
 6046POPC   C1A36639  24.499   0.471   8.550
 6046POPC   D2A36640  24.482   0.413   8.250
 6046POPC   C3A36641  24.529   0.428   7.950
 6046POPC   C4A36642  24.520   0.469   7.650
 6046POPC   C1B36643  24.245   0.505   8.550
 6046POPC   C2B36644  24.204   0.469   8.250
 6046POPC   C3B36645  24.292   0.502   7.950
 6046POPC   C4B36646  24.283   0.466   7.650
 6047POPC   NC336647  34.586   8.923   9.450
 6047POPC   PO436648  34.545   8.955   9.150
 6047POPC   GL136649  34.596   9.002   8.850
 6047POPC   GL236650  34.549   8.909   8.850
 6047POPC   C1A36651  34.573   8.974   8.550
 6047POPC   D2A36652  34.556   8.976   8.250
 6047POPC   C3A36653  34.566   8.968   7.950
 6047POPC   C4A36654  34.601   8.953   7.650
 6047POPC   C1B36655  34.448   8.762   8.550
 6047POPC   C2B36656  34.478   8.724   8.250
 6047POPC   C3B36657  34.404   8.706   7.950
 6047POPC   C4B36658  34.430   8.798   7.650
 6048POPC   NC336659  27.555  29.157   9.450
 6048POPC   PO436660  27.555  29.130   9.150
 6048POPC   GL136661  27.597  29.154   8.850
 6048POPC   GL236662  27.697  29.082   8.850
 6048POPC   C1A36663  27.630  29.139   8.550
 6048POPC   D2A36664  27.635  29.129   8.250
 6048POPC   C3A36665  27.551  29.167   7.950
 6048POPC   C4A36666  27.576  29.121   7.650
 6048POPC   C1B36667  27.748  28.960   8.550
 6048POPC   C2B36668  27.738  28.974   8.250
 6048POPC   C3B36669  27.779  29.010   7.950
 6048POPC   C4B36670  27.780  28.942   7.650
 6049POPC   NC336671  24.501  11.287   9.450
 6049POPC   PO436672  24.475  11.289   9.150
 6049POPC   GL136673  24.515  11.311   8.850
 6049POPC   GL236674  24.552  11.370   8.850
 6049POPC   C1A36675  24.453  11.348   8.550
 6049POPC   D2A36676  24.469  11.310   8.250
 6049POPC   C3A36677  24.452  11.305   7.950
 6049POPC   C4A36678  24.516  11.289   7.650
 6049POPC   C1B36679  24.618  11.525   8.550
 6049POPC   C2B36680  24.595  11.516   8.250
 6049POPC   C3B36681  24.568  11.509   7.950
 6049POPC   C4B36682  24.537  11.548   7.650
 6050POPC   NC336683  21.418  34.593   9.450
 6050POPC   PO436684  21.350  34.558   9.150
 6050POPC   GL136685  21.431  34.557   8.850
 6050POPC   GL236686  21.414  34.669   8.850
 6050POPC   C1A36687  21.336  34.580   8.550
 6050POPC   D2A36688  21.393  34.603   8.250
 6050POPC   C3A36689  21.367  34.556   7.950
 6050POPC   C4A36690  21.399  34.606   7.650
 6050POPC   C1B36691  21.434  34.841   8.550
 6050POPC   C2B36692  21.460  34.779   8.250
 6050POPC   C3B36693  21.460  34.764   7.950
 6050POPC   C4B36694  21.483  34.796   7.650
 6051POPC   NC336695  34.553  11.324   9.450
 6051POPC   PO436696  34.579  11.284   9.150
 6051POPC   GL136697  34.578  11.252   8.850
 6051POPC   GL236698  34.625  11.173   8.850
 6051POPC   C1A36699  34.535  11.315   8.550
 6051POPC   D2A36700  34.560  11.297   8.250
 6051POPC   C3A36701  34.562  11.326   7.950
 6051POPC   C4A36702  34.536  11.260   7.650
 6051POPC   C1B36703  34.608  11.075   8.550
 6051POPC   C2B36704  34.590  11.074   8.250
 6051POPC   C3B36705  34.585  11.027   7.950
 6051POPC   C4B36706  34.644  11.057   7.650
 6052POPC   NC336707  40.813  29.970   9.450
 6052POPC   PO436708  40.831  29.952   9.150
 6052POPC   GL136709  40.804  29.878   8.850
 6052POPC   GL236710  40.622  29.934   8.850
 6052POPC   C1A36711  40.808  29.952   8.550
 6052POPC   D2A36712  40.831  29.888   8.250
 6052POPC   C3A36713  40.749  29.932   7.950
 6052POPC   C4A36714  40.760  29.950   7.650
 6052POPC   C1B36715  40.523  29.940   8.550
 6052POPC   C2B36716  40.569  29.920   8.250
 6052POPC   C3B36717  40.581  29.958   7.950
 6052POPC   C4B36718  40.498  29.946   7.650
 6053POPC   NC336719  26.046  27.570   9.450
 6053POPC   PO436720  26.047  27.637   9.150
 6053POPC   GL136721  26.053  27.641   8.850
 6053POPC   GL236722  26.181  27.671   8.850
 6053POPC   C1A36723  26.076  27.547   8.550
 6053POPC   D2A36724  26.068  27.573   8.250
 6053POPC   C3A36725  26.018  27.597   7.950
 6053POPC   C4A36726  26.057  27.641   7.650
 6053POPC   C1B36727  26.274  27.688   8.550
 6053POPC   C2B36728  26.221  27.759   8.250
 6053POPC   C3B36729  26.292  27.708   7.950
 6053POPC   C4B36730  26.291  27.676   7.650
 6054POPC   NC336731  10.564  29.907   9.450
 6054POPC   PO436732  10.558  29.950   9.150
 6054POPC   GL136733  10.509  29.941   8.850
 6054POPC   GL236734  10.477  30.028   8.850
 6054POPC   C1A36735  10.526  29.930   8.550
 6054POPC   D2A36736  10.569  29.896   8.250
 6054POPC   C3A36737  10.510  29.953   7.950
 6054POPC   C4A36738  10.552  29.962   7.650
 6054POPC   C1B36739  10.443  30.168   8.550
 6054POPC   C2B36740  10.422  30.172   8.250
 6054POPC   C3B36741  10.395  30.184   7.950
 6054POPC   C4B36742  10.414  30.116   7.650
 6055POPC   NC336743  36.143   9.767   9.450
 6055POPC   PO436744  36.138   9.710   9.150
 6055POPC   GL136745  36.095   9.749   8.850
 6055POPC   GL236746  36.245   9.712   8.850
 6055POPC   C1A36747  36.119   9.784   8.550
 6055POPC   D2A36748  36.126   9.754   8.250
 6055POPC   C3A36749  36.159   9.756   7.950
 6055POPC   C4A36750  36.121   9.753   7.650
 6055POPC   C1B36751  36.361   9.609   8.550
 6055POPC   C2B36752  36.365   9.543   8.250
 6055POPC   C3B36753  36.305   9.574   7.950
 6055POPC   C4B36754  36.268   9.572   7.650
 6056POPC   NC336755  24.505  27.557   9.450
 6056POPC   PO436756  24.487  27.578   9.150
 6056POPC   GL136757  24.455  27.562   8.850
 6056POPC   GL236758  24.356  27.457   8.850
 6056POPC   C1A36759  24.441  27.582   8.550
 6056POPC   D2A36760  24.495  27.625   8.250
 6056POPC   C3A36761  24.511  27.556   7.950
 6056POPC   C4A36762  24.506  27.641   7.650
 6056POPC   C1B36763  24.304  27.400   8.550
 6056POPC   C2B36764  24.306  27.414   8.250
 6056POPC   C3B36765  24.271  27.451   7.950
 6056POPC   C4B36766  24.306  27.367   7.650
 6057POPC   NC336767  33.022   7.456   9.450
 6057POPC   PO436768  33.069   7.438   9.150
 6057POPC   GL136769  33.061   7.448   8.850
 6057POPC   GL236770  33.138   7.515   8.850
 6057POPC   C1A36771  32.984   7.461   8.550
 6057POPC   D2A36772  33.017   7.458   8.250
 6057POPC   C3A36773  33.056   7.397   7.950
 6057POPC   C4A36774  33.028   7.432   7.650
 6057POPC   C1B36775  33.251   7.545   8.550
 6057POPC   C2B36776  33.283   7.504   8.250
 6057POPC   C3B36777  33.250   7.518   7.950
 6057POPC   C4B36778  33.255   7.600   7.650
 6058POPC   NC336779   0.462  40.826   9.450
 6058POPC   PO436780   0.423  40.800   9.150
 6058POPC   GL136781   0.431  40.819   8.850
 6058POPC   GL236782   0.374  40.864   8.850
 6058POPC   C1A36783   0.408  40.773   8.550
 6058POPC   D2A36784   0.419  40.769   8.250
 6058POPC   C3A36785   0.419  40.828   7.950
 6058POPC   C4A36786   0.402  40.792   7.650
 6058POPC   C1B36787   0.364  41.046   8.550
 6058POPC   C2B36788   0.380  40.983   8.250
 6058POPC   C3B36789   0.362  40.993   7.950
 6058POPC   C4B36790   0.395  41.074   7.650
 6059POPC   NC336791  26.829  36.921   9.450
 6059POPC   PO436792  26.795  36.916   9.150
 6059POPC   GL136793  26.777  36.920   8.850
 6059POPC   GL236794  26.944  36.884   8.850
 6059POPC   C1A36795  26.781  36.895   8.550
 6059POPC   D2A36796  26.813  36.893   8.250
 6059POPC   C3A36797  26.769  36.868   7.950
 6059POPC   C4A36798  26.833  36.904   7.650
 6059POPC   C1B36799  27.034  36.798   8.550
 6059POPC   C2B36800  27.022  36.798   8.250
 6059POPC   C3B36801  27.025  36.787   7.950
 6059POPC   C4B36802  26.994  36.807   7.650
 6060POPC   NC336803  25.219  25.276   9.450
 6060POPC   PO436804  25.226  25.292   9.150
 6060POPC   GL136805  25.230  25.250   8.850
 6060POPC   GL236806  25.126  25.244   8.850
 6060POPC   C1A36807  25.290  25.269   8.550
 6060POPC   D2A36808  25.273  25.311   8.250
 6060POPC   C3A36809  25.261  25.238   7.950
 6060POPC   C4A36810  25.284  25.300   7.650
 6060POPC   C1B36811  25.042  25.258   8.550
 6060POPC   C2B36812  25.006  25.251   8.250
 6060POPC   C3B36813  25.023  25.312   7.950
 6060POPC   C4B36814  24.973  25.226   7.650
 6061POPC   NC336815  19.055  30.717   9.450
 6061POPC   PO436816  19.052  30.716   9.150
 6061POPC   GL136817  19.082  30.676   8.850
 6061POPC   GL236818  18.938  30.697   8.850
 6061POPC   C1A36819  19.012  30.654   8.550
 6061POPC   D2A36820  19.085  30.669   8.250
 6061POPC   C3A36821  19.060  30.676   7.950
 6061POPC   C4A36822  19.080  30.672   7.650
 6061POPC   C1B36823  18.839  30.823   8.550
 6061POPC   C2B36824  18.871  30.806   8.250
 6061POPC   C3B36825  18.790  30.817   7.950
 6061POPC   C4B36826  18.780  30.778   7.650
 6062POPC   NC336827  29.875   8.202   9.450
 6062POPC   PO436828  29.891   8.235   9.150
 6062POPC   GL136829  29.912   8.187   8.850
 6062POPC   GL236830  29.960   8.070   8.850
 6062POPC   C1A36831  29.962   8.239   8.550
 6062POPC   D2A36832  29.884   8.177   8.250
 6062POPC   C3A36833  29.902   8.227   7.950
 6062POPC   C4A36834  29.912   8.157   7.650
 6062POPC   C1B36835  29.986   7.963   8.550
 6062POPC   C2B36836  29.938   7.965   8.250
 6062POPC   C3B36837  29.998   7.963   7.950
 6062POPC   C4B36838  29.994   7.966   7.650
 6063POPC   NC336839  26.806  29.122   9.450
 6063POPC   PO436840  26.810  29.170   9.150
 6063POPC   GL136841  26.791  29.097   8.850
 6063POPC   GL236842  26.822  29.004   8.850
 6063POPC   C1A36843  26.848  29.126   8.550
 6063POPC   D2A36844  26.865  29.118   8.250
 6063POPC   C3A36845  26.788  29.121   7.950
 6063POPC   C4A36846  26.824  29.111   7.650
 6063POPC   C1B36847  26.843  28.856   8.550
 6063POPC   C2B36848  26.763  28.874   8.250
 6063POPC   C3B36849  26.767  28.914   7.950
 6063POPC   C4B36850  26.778  28.889   7.650
 6064POPC   NC336851   9.719  28.369   9.450
 6064POPC   PO436852   9.710  28.416   9.150
 6064POPC   GL136853   9.787  28.359   8.850
 6064POPC   GL236854   9.749  28.286   8.850
 6064POPC   C1A36855   9.741  28.368   8.550
 6064POPC   D2A36856   9.737  28.336   8.250
 6064POPC   C3A36857   9.770  28.398   7.950
 6064POPC   C4A36858   9.782  28.355   7.650
 6064POPC   C1B36859   9.681  28.113   8.550
 6064POPC   C2B36860   9.666  28.076   8.250
 6064POPC   C3B36861   9.662  28.121   7.950
 6064POPC   C4B36862   9.713  28.076   7.650
 6065POPC   NC336863  38.486  23.742   9.450
 6065POPC   PO436864  38.437  23.760   9.150
 6065POPC   GL136865  38.503  23.750   8.850
 6065POPC   GL236866  38.294  23.749   8.850
 6065POPC   C1A36867  38.475  23.755   8.550
 6065POPC   D2A36868  38.485  23.686   8.250
 6065POPC   C3A36869  38.423  23.711   7.950
 6065POPC   C4A36870  38.490  23.697   7.650
 6065POPC   C1B36871  38.193  23.794   8.550
 6065POPC   C2B36872  38.190  23.744   8.250
 6065POPC   C3B36873  38.207  23.768   7.950
 6065POPC   C4B36874  38.170  23.794   7.650
 6066POPC   NC336875  22.965   8.236   9.450
 6066POPC   PO436876  22.947   8.245   9.150
 6066POPC   GL136877  22.905   8.212   8.850
 6066POPC   GL236878  22.822   8.078   8.850
 6066POPC   C1A36879  22.932   8.171   8.550
 6066POPC   D2A36880  22.961   8.223   8.250
 6066POPC   C3A36881  22.902   8.187   7.950
 6066POPC   C4A36882  22.962   8.241   7.650
 6066POPC   C1B36883  22.757   7.977   8.550
 6066POPC   C2B36884  22.806   8.028   8.250
 6066POPC   C3B36885  22.833   8.045   7.950
 6066POPC   C4B36886  22.744   7.957   7.650
 6067POPC   NC336887  35.385  18.324   9.450
 6067POPC   PO436888  35.313  18.287   9.150
 6067POPC   GL136889  35.362  18.325   8.850
 6067POPC   GL236890  35.281  18.353   8.850
 6067POPC   C1A36891  35.364  18.312   8.550
 6067POPC   D2A36892  35.398  18.298   8.250
 6067POPC   C3A36893  35.340  18.273   7.950
 6067POPC   C4A36894  35.323  18.323   7.650
 6067POPC   C1B36895  35.270  18.501   8.550
 6067POPC   C2B36896  35.209  18.502   8.250
 6067POPC   C3B36897  35.264  18.460   7.950
 6067POPC   C4B36898  35.195  18.488   7.650
 6068POPC   NC336899  23.723  10.566   9.450
 6068POPC   PO436900  23.703  10.561   9.150
 6068POPC   GL136901  23.671  10.476   8.850
 6068POPC   GL236902  23.782  10.473   8.850
 6068POPC   C1A36903  23.695  10.506   8.550
 6068POPC   D2A36904  23.730  10.574   8.250
 6068POPC   C3A36905  23.750  10.488   7.950
 6068POPC   C4A36906  23.716  10.477   7.650
 6068POPC   C1B36907  23.946  10.413   8.550
 6068POPC   C2B36908  23.883  10.356   8.250
 6068POPC   C3B36909  23.924  10.368   7.950
 6068POPC   C4B36910  23.962  10.373   7.650
 6069POPC   NC336911  34.537  12.041   9.450
 6069POPC   PO436912  34.609  12.055   9.150
 6069POPC   GL136913  34.529  12.044   8.850
 6069POPC   GL236914  34.680  11.994   8.850
 6069POPC   C1A36915  34.568  12.111   8.550
 6069POPC   D2A36916  34.532  12.028   8.250
 6069POPC   C3A36917  34.604  12.085   7.950
 6069POPC   C4A36918  34.624  12.050   7.650
 6069POPC   C1B36919  34.771  11.980   8.550
 6069POPC   C2B36920  34.763  11.975   8.250
 6069POPC   C3B36921  34.821  11.952   7.950
 6069POPC   C4B36922  34.803  11.947   7.650
 6070POPC   NC336923  25.223   8.147   9.450
 6070POPC   PO436924  25.262   8.221   9.150
 6070POPC   GL136925  25.269   8.219   8.850
 6070POPC   GL236926  25.158   8.261   8.850
 6070POPC   C1A36927  25.233   8.208   8.550
 6070POPC   D2A36928  25.260   8.158   8.250
 6070POPC   C3A36929  25.307   8.185   7.950
 6070POPC   C4A36930  25.271   8.183   7.650
 6070POPC   C1B36931  25.088   8.407   8.550
 6070POPC   C2B36932  25.082   8.336   8.250
 6070POPC   C3B36933  25.139   8.341   7.950
 6070POPC   C4B36934  25.045   8.402   7.650
 6071POPC   NC336935   5.044  31.463   9.450
 6071POPC   PO436936   5.124  31.506   9.150
 6071POPC   GL136937   5.060  31.459   8.850
 6071POPC   GL236938   4.981  31.596   8.850
 6071POPC   C1A36939   5.101  31.488   8.550
 6071POPC   D2A36940   5.127  31.498   8.250
 6071POPC   C3A36941   5.129  31.436   7.950
 6071POPC   C4A36942   5.101  31.503   7.650
 6071POPC   C1B36943   4.916  31.647   8.550
 6071POPC   C2B36944   4.981  31.674   8.250
 6071POPC   C3B36945   4.915  31.616   7.950
 6071POPC   C4B36946   4.896  31.651   7.650
 6072POPC   NC336947  26.071  34.589   9.450
 6072POPC   PO436948  26.020  34.566   9.150
 6072POPC   GL136949  26.082  34.619   8.850
 6072POPC   GL236950  26.096  34.666   8.850
 6072POPC   C1A36951  26.066  34.572   8.550
 6072POPC   D2A36952  26.066  34.529   8.250
 6072POPC   C3A36953  26.005  34.598   7.950
 6072POPC   C4A36954  26.077  34.608   7.650
 6072POPC   C1B36955  26.053  34.837   8.550
 6072POPC   C2B36956  26.115  34.832   8.250
 6072POPC   C3B36957  26.126  34.833   7.950
 6072POPC   C4B36958  26.089  34.811   7.650
 6073POPC   NC336959  34.528  29.173   9.450
 6073POPC   PO436960  34.553  29.172   9.150
 6073POPC   GL136961  34.562  29.174   8.850
 6073POPC   GL236962  34.565  29.036   8.850
 6073POPC   C1A36963  34.585  29.170   8.550
 6073POPC   D2A36964  34.530  29.097   8.250
 6073POPC   C3A36965  34.620  29.121   7.950
 6073POPC   C4A36966  34.536  29.100   7.650
 6073POPC   C1B36967  34.526  28.921   8.550
 6073POPC   C2B36968  34.559  28.879   8.250
 6073POPC   C3B36969  34.556  28.886   7.950
 6073POPC   C4B36970  34.561  28.908   7.650
 6074POPC   NC336971  12.880  22.914   9.450
 6074POPC   PO436972  12.898  22.890   9.150
 6074POPC   GL136973  12.856  22.896   8.850
 6074POPC   GL236974  12.971  22.796   8.850
 6074POPC   C1A36975  12.811  22.896   8.550
 6074POPC   D2A36976  12.892  22.982   8.250
 6074POPC   C3A36977  12.821  22.968   7.950
 6074POPC   C4A36978  12.893  22.937   7.650
 6074POPC   C1B36979  13.022  22.767   8.550
 6074POPC   C2B36980  12.953  22.722   8.250
 6074POPC   C3B36981  13.006  22.772   7.950
 6074POPC   C4B36982  12.990  22.716   7.650
 6075POPC   NC336983  36.091  43.146   9.450
 6075POPC   PO436984  36.144  43.093   9.150
 6075POPC   GL136985  36.162  43.134   8.850
 6075POPC   GL236986  36.118  43.217   8.850
 6075POPC   C1A36987  36.104  43.086   8.550
 6075POPC   D2A36988  36.110  43.144   8.250
 6075POPC   C3A36989  36.080  43.130   7.950
 6075POPC   C4A36990  36.168  43.135   7.650
 6075POPC   C1B36991  36.082  43.359   8.550
 6075POPC   C2B36992  36.126  43.344   8.250
 6075POPC   C3B36993  36.056  43.372   7.950
 6075POPC   C4B36994  36.074  43.392   7.650
 6076POPC   NC336995  32.989  25.315   9.450
 6076POPC   PO436996  33.062  25.312   9.150
 6076POPC   GL136997  32.988  25.249   8.850
 6076POPC   GL236998  33.156  25.305   8.850
 6076POPC   C1A36999  32.983  25.283   8.550
 6076POPC   D2A37000  33.026  25.238   8.250
 6076POPC   C3A37001  33.022  25.245   7.950
 6076POPC   C4A37002  32.989  25.252   7.650
 6076POPC   C1B37003  33.178  25.462   8.550
 6076POPC   C2B37004  33.238  25.415   8.250
 6076POPC   C3B37005  33.233  25.379   7.950
 6076POPC   C4B37006  33.209  25.421   7.650
 6077POPC   NC337007  28.351  43.933   9.450
 6077POPC   PO437008  28.368  43.868   9.150
 6077POPC   GL137009  28.367  43.856   8.850
 6077POPC   GL237010  28.234  43.991   8.850
 6077POPC   C1A37011  28.342  43.901   8.550
 6077POPC   D2A37012  28.391  43.838   8.250
 6077POPC   C3A37013  28.354  43.911   7.950
 6077POPC   C4A37014  28.398  43.886   7.650
 6077POPC   C1B37015  28.199  44.085   8.550
 6077POPC   C2B37016  28.214  44.081   8.250
 6077POPC   C3B37017  28.200  44.087   7.950
 6077POPC   C4B37018  28.177  44.074   7.650
 6078POPC   NC337019  40.750  25.281   9.450
 6078POPC   PO437020  40.814  25.239   9.150
 6078POPC   GL137021  40.775  25.281   8.850
 6078POPC   GL237022  40.695  25.378   8.850
 6078POPC   C1A37023  40.746  25.221   8.550
 6078POPC   D2A37024  40.819  25.273   8.250
 6078POPC   C3A37025  40.756  25.302   7.950
 6078POPC   C4A37026  40.759  25.285   7.650
 6078POPC   C1B37027  40.590  25.426   8.550
 6078POPC   C2B37028  40.555  25.469   8.250
 6078POPC   C3B37029  40.649  25.460   7.950
 6078POPC   C4B37030  40.595  25.477   7.650
 6079POPC   NC337031  19.788  19.024   9.450
 6079POPC   PO437032  19.818  19.080   9.150
 6079POPC   GL137033  19.866  19.091   8.850
 6079POPC   GL237034  19.732  19.077   8.850
 6079POPC   C1A37035  19.818  19.092   8.550
 6079POPC   D2A37036  19.788  19.091   8.250
 6079POPC   C3A37037  19.863  19.034   7.950
 6079POPC   C4A37038  19.860  19.078   7.650
 6079POPC   C1B37039  19.584  18.999   8.550
 6079POPC   C2B37040  19.628  18.980   8.250
 6079POPC   C3B37041  19.558  19.032   7.950
 6079POPC   C4B37042  19.580  19.047   7.650
 6080POPC   NC337043   8.174  27.589   9.450
 6080POPC   PO437044   8.150  27.547   9.150
 6080POPC   GL137045   8.153  27.581   8.850
 6080POPC   GL237046   8.265  27.529   8.850
 6080POPC   C1A37047   8.232  27.629   8.550
 6080POPC   D2A37048   8.181  27.549   8.250
 6080POPC   C3A37049   8.192  27.608   7.950
 6080POPC   C4A37050   8.230  27.548   7.650
 6080POPC   C1B37051   8.325  27.403   8.550
 6080POPC   C2B37052   8.395  27.380   8.250
 6080POPC   C3B37053   8.346  27.358   7.950
 6080POPC   C4B37054   8.404  27.398   7.650
 6081POPC   NC337055  44.641  16.772   9.450
 6081POPC   PO437056  44.618  16.709   9.150
 6081POPC   GL137057  44.656  16.758   8.850
 6081POPC   GL237058  44.683  16.829   8.850
 6081POPC   C1A37059  44.692  16.730   8.550
 6081POPC   D2A37060  44.666  16.746   8.250
 6081POPC   C3A37061  44.700  16.748   7.950
 6081POPC   C4A37062  44.675  16.695   7.650
 6081POPC   C1B37063  44.753  16.951   8.550
 6081POPC   C2B37064  44.746  16.986   8.250
 6081POPC   C3B37065  44.764  16.951   7.950
 6081POPC   C4B37066  44.723  16.942   7.650
 6082POPC   NC337067   7.400  31.474   9.450
 6082POPC   PO437068   7.431  31.512   9.150
 6082POPC   GL137069   7.431  31.435   8.850
 6082POPC   GL237070   7.582  31.484   8.850
 6082POPC   C1A37071   7.444  31.520   8.550
 6082POPC   D2A37072   7.413  31.436   8.250
 6082POPC   C3A37073   7.409  31.519   7.950
 6082POPC   C4A37074   7.447  31.516   7.650
 6082POPC   C1B37075   7.639  31.384   8.550
 6082POPC   C2B37076   7.699  31.350   8.250
 6082POPC   C3B37077   7.642  31.403   7.950
 6082POPC   C4B37078   7.657  31.367   7.650
 6083POPC   NC337079  43.149  22.974   9.450
 6083POPC   PO437080  43.119  22.971   9.150
 6083POPC   GL137081  43.146  22.937   8.850
 6083POPC   GL237082  43.018  23.066   8.850
 6083POPC   C1A37083  43.068  22.908   8.550
 6083POPC   D2A37084  43.116  22.919   8.250
 6083POPC   C3A37085  43.156  22.907   7.950
 6083POPC   C4A37086  43.084  22.899   7.650
 6083POPC   C1B37087  42.920  23.118   8.550
 6083POPC   C2B37088  42.935  23.140   8.250
 6083POPC   C3B37089  42.968  23.093   7.950
 6083POPC   C4B37090  42.876  23.110   7.650
 6084POPC   NC337091  19.047  12.820   9.450
 6084POPC   PO437092  19.054  12.859   9.150
 6084POPC   GL137093  19.023  12.826   8.850
 6084POPC   GL237094  19.001  12.884   8.850
 6084POPC   C1A37095  19.087  12.840   8.550
 6084POPC   D2A37096  19.080  12.823   8.250
 6084POPC   C3A37097  19.090  12.841   7.950
 6084POPC   C4A37098  19.026  12.898   7.650
 6084POPC   C1B37099  18.867  13.052   8.550
 6084POPC   C2B37100  18.823  12.979   8.250
 6084POPC   C3B37101  18.861  12.993   7.950
 6084POPC   C4B37102  18.877  13.049   7.650
 6085POPC   NC337103  33.773  26.831   9.450
 6085POPC   PO437104  33.765  26.813   9.150
 6085POPC   GL137105  33.838  26.823   8.850
 6085POPC   GL237106  33.793  26.661   8.850
 6085POPC   C1A37107  33.845  26.780   8.550
 6085POPC   D2A37108  33.795  26.829   8.250
 6085POPC   C3A37109  33.805  26.773   7.950
 6085POPC   C4A37110  33.778  26.862   7.650
 6085POPC   C1B37111  33.815  26.538   8.550
 6085POPC   C2B37112  33.726  26.613   8.250
 6085POPC   C3B37113  33.725  26.535   7.950
 6085POPC   C4B37114  33.822  26.559   7.650
 6086POPC   NC337115  26.816  22.973   9.450
 6086POPC   PO437116  26.863  22.968   9.150
 6086POPC   GL137117  26.830  22.937   8.850
 6086POPC   GL237118  26.865  23.052   8.850
 6086POPC   C1A37119  26.818  22.935   8.550
 6086POPC   D2A37120  26.798  22.946   8.250
 6086POPC   C3A37121  26.789  22.963   7.950
 6086POPC   C4A37122  26.859  22.911   7.650
 6086POPC   C1B37123  26.876  23.233   8.550
 6086POPC   C2B37124  26.892  23.207   8.250
 6086POPC   C3B37125  26.882  23.190   7.950
 6086POPC   C4B37126  26.835  23.137   7.650
 6087POPC   NC337127  14.380  22.969   9.450
 6087POPC   PO437128  14.423  22.953   9.150
 6087POPC   GL137129  14.385  22.937   8.850
 6087POPC   GL237130  14.240  22.968   8.850
 6087POPC   C1A37131  14.422  22.893   8.550
 6087POPC   D2A37132  14.364  22.945   8.250
 6087POPC   C3A37133  14.377  22.945   7.950
 6087POPC   C4A37134  14.415  22.987   7.650
 6087POPC   C1B37135  14.173  22.928   8.550
 6087POPC   C2B37136  14.131  22.912   8.250
 6087POPC   C3B37137  14.156  22.877   7.950
 6087POPC   C4B37138  14.134  22.896   7.650
 6088POPC   NC337139  39.258  29.106   9.450
 6088POPC   PO437140  39.194  29.169   9.150
 6088POPC   GL137141  39.192  29.155   8.850
 6088POPC   GL237142  39.183  29.064   8.850
 6088POPC   C1A37143  39.271  29.180   8.550
 6088POPC   D2A37144  39.193  29.103   8.250
 6088POPC   C3A37145  39.220  29.096   7.950
 6088POPC   C4A37146  39.251  29.194   7.650
 6088POPC   C1B37147  39.131  28.887   8.550
 6088POPC   C2B37148  39.121  28.898   8.250
 6088POPC   C3B37149  39.117  28.952   7.950
 6088POPC   C4B37150  39.112  28.895   7.650
 6089POPC   NC337151  12.839  13.670   9.450
 6089POPC   PO437152  12.863  13.639   9.150
 6089POPC   GL137153  12.882  13.637   8.850
 6089POPC   GL237154  12.718  13.650   8.850
 6089POPC   C1A37155  12.879  13.637   8.550
 6089POPC   D2A37156  12.878  13.620   8.250
 6089POPC   C3A37157  12.897  13.652   7.950
 6089POPC   C4A37158  12.890  13.645   7.650
 6089POPC   C1B37159  12.555  13.598   8.550
 6089POPC   C2B37160  12.618  13.614   8.250
 6089POPC   C3B37161  12.583  13.623   7.950
 6089POPC   C4B37162  12.569  13.641   7.650
 6090POPC   NC337163  22.180  10.535   9.450
 6090POPC   PO437164  22.182  10.491   9.150
 6090POPC   GL137165  22.157  10.526   8.850
 6090POPC   GL237166  22.098  10.622   8.850
 6090POPC   C1A37167  22.139  10.526   8.550
 6090POPC   D2A37168  22.206  10.531   8.250
 6090POPC   C3A37169  22.196  10.567   7.950
 6090POPC   C4A37170  22.140  10.516   7.650
 6090POPC   C1B37171  22.003  10.677   8.550
 6090POPC   C2B37172  21.958  10.670   8.250
 6090POPC   C3B37173  22.008  10.657   7.950
 6090POPC   C4B37174  21.923  10.708   7.650
 6091POPC   NC337175  37.699  19.051   9.450
 6091POPC   PO437176  37.657  19.040   9.150
 6091POPC   GL137177  37.704  19.009   8.850
 6091POPC   GL237178  37.777  19.015   8.850
 6091POPC   C1A37179  37.724  19.019   8.550
 6091POPC   D2A37180  37.726  19.072   8.250
 6091POPC   C3A37181  37.702  19.057   7.950
 6091POPC   C4A37182  37.723  19.032   7.650
 6091POPC   C1B37183  37.928  18.907   8.550
 6091POPC   C2B37184  37.864  18.890   8.250
 6091POPC   C3B37185  37.926  18.983   7.950
 6091POPC   C4B37186  37.893  18.966   7.650
 6092POPC   NC337187  33.041   5.902   9.450
 6092POPC   PO437188  33.026   5.902   9.150
 6092POPC   GL137189  32.981   5.830   8.850
 6092POPC   GL237190  33.093   5.947   8.850
 6092POPC   C1A37191  33.028   5.891   8.550
 6092POPC   D2A37192  33.038   5.903   8.250
 6092POPC   C3A37193  33.000   5.882   7.950
 6092POPC   C4A37194  33.037   5.917   7.650
 6092POPC   C1B37195  33.134   6.053   8.550
 6092POPC   C2B37196  33.120   6.071   8.250
 6092POPC   C3B37197  33.171   6.076   7.950
 6092POPC   C4B37198  33.158   6.049   7.650
 6093POPC   NC337199  42.346  15.162   9.450
 6093POPC   PO437200  42.348  15.191   9.150
 6093POPC   GL137201  42.346  15.184   8.850
 6093POPC   GL237202  42.214  15.122   8.850
 6093POPC   C1A37203  42.377  15.144   8.550
 6093POPC   D2A37204  42.323  15.167   8.250
 6093POPC   C3A37205  42.324  15.221   7.950
 6093POPC   C4A37206  42.342  15.140   7.650
 6093POPC   C1B37207  42.128  15.043   8.550
 6093POPC   C2B37208  42.070  15.059   8.250
 6093POPC   C3B37209  42.076  15.076   7.950
 6093POPC   C4B37210  42.093  15.091   7.650
 6094POPC   NC337211  21.344  29.117   9.450
 6094POPC   PO437212  21.358  29.176   9.150
 6094POPC   GL137213  21.365  29.127   8.850
 6094POPC   GL237214  21.425  29.298   8.850
 6094POPC   C1A37215  21.342  29.175   8.550
 6094POPC   D2A37216  21.398  29.140   8.250
 6094POPC   C3A37217  21.393  29.127   7.950
 6094POPC   C4A37218  21.419  29.132   7.650
 6094POPC   C1B37219  21.370  29.413   8.550
 6094POPC   C2B37220  21.442  29.375   8.250
 6094POPC   C3B37221  21.367  29.438   7.950
 6094POPC   C4B37222  21.414  29.404   7.650
 6095POPC   NC337223   9.788  23.706   9.450
 6095POPC   PO437224   9.700  23.712   9.150
 6095POPC   GL137225   9.794  23.725   8.850
 6095POPC   GL237226   9.807  23.662   8.850
 6095POPC   C1A37227   9.725  23.693   8.550
 6095POPC   D2A37228   9.707  23.761   8.250
 6095POPC   C3A37229   9.725  23.752   7.950
 6095POPC   C4A37230   9.710  23.708   7.650
 6095POPC   C1B37231   9.933  23.567   8.550
 6095POPC   C2B37232   9.932  23.560   8.250
 6095POPC   C3B37233   9.880  23.564   7.950
 6095POPC   C4B37234   9.945  23.554   7.650
 6096POPC   NC337235  39.992  28.397   9.450
 6096POPC   PO437236  40.054  28.374   9.150
 6096POPC   GL137237  39.993  28.406   8.850
 6096POPC   GL237238  40.082  28.339   8.850
 6096POPC   C1A37239  40.044  28.328   8.550
 6096POPC   D2A37240  39.959  28.370   8.250
 6096POPC   C3A37241  39.981  28.409   7.950
 6096POPC   C4A37242  39.958  28.398   7.650
 6096POPC   C1B37243  40.264  28.365   8.550
 6096POPC   C2B37244  40.222  28.368   8.250
 6096POPC   C3B37245  40.254  28.333   7.950
 6096POPC   C4B37246  40.265  28.316   7.650
 6097POPC   NC337247  43.880  29.134   9.450
 6097POPC   PO437248  43.847  29.179   9.150
 6097POPC   GL137249  43.849  29.162   8.850
 6097POPC   GL237250  43.827  29.058   8.850
 6097POPC   C1A37251  43.930  29.173   8.550
 6097POPC   D2A37252  43.853  29.136   8.250
 6097POPC   C3A37253  43.917  29.150   7.950
 6097POPC   C4A37254  43.863  29.138   7.650
 6097POPC   C1B37255  43.847  28.870   8.550
 6097POPC   C2B37256  43.774  28.939   8.250
 6097POPC   C3B37257  43.838  28.873   7.950
 6097POPC   C4B37258  43.786  28.870   7.650
 6098POPC   NC337259  30.665   5.894   9.450
 6098POPC   PO437260  30.689   5.909   9.150
 6098POPC   GL137261  30.677   5.840   8.850
 6098POPC   GL237262  30.808   5.923   8.850
 6098POPC   C1A37263  30.740   5.916   8.550
 6098POPC   D2A37264  30.726   5.830   8.250
 6098POPC   C3A37265  30.721   5.867   7.950
 6098POPC   C4A37266  30.720   5.887   7.650
 6098POPC   C1B37267  30.912   5.913   8.550
 6098POPC   C2B37268  30.941   5.894   8.250
 6098POPC   C3B37269  30.940   5.900   7.950
 6098POPC   C4B37270  30.900   5.886   7.650
 6099POPC   NC337271  24.442  41.542   9.450
 6099POPC   PO437272  24.464  41.510   9.150
 6099POPC   GL137273  24.517  41.570   8.850
 6099POPC   GL237274  24.360  41.603   8.850
 6099POPC   C1A37275  24.519  41.545   8.550
 6099POPC   D2A37276  24.510  41.546   8.250
 6099POPC   C3A37277  24.536  41.574   7.950
 6099POPC   C4A37278  24.489  41.603   7.650
 6099POPC   C1B37279  24.252  41.588   8.550
 6099POPC   C2B37280  24.275  41.600   8.250
 6099POPC   C3B37281  24.264  41.622   7.950
 6099POPC   C4B37282  24.215  41.597   7.650
 6100POPC   NC337283   0.421  15.992   9.450
 6100POPC   PO437284   0.474  15.955   9.150
 6100POPC   GL137285   0.446  15.943   8.850
 6100POPC   GL237286   0.515  15.930   8.850
 6100POPC   C1A37287   0.465  15.940   8.550
 6100POPC   D2A37288   0.431  15.983   8.250
 6100POPC   C3A37289   0.431  15.926   7.950
 6100POPC   C4A37290   0.467  15.922   7.650
 6100POPC   C1B37291   0.679  15.799   8.550
 6100POPC   C2B37292   0.678  15.815   8.250
 6100POPC   C3B37293   0.622  15.864   7.950
 6100POPC   C4B37294   0.702  15.804   7.650
 6101POPC   NC337295  22.963  35.357   9.450
 6101POPC   PO437296  22.948  35.312   9.150
 6101POPC   GL137297  22.981  35.351   8.850
 6101POPC   GL237298  23.029  35.425   8.850
 6101POPC   C1A37299  22.919  35.310   8.550
 6101POPC   D2A37300  22.924  35.387   8.250
 6101POPC   C3A37301  22.912  35.326   7.950
 6101POPC   C4A37302  22.936  35.350   7.650
 6101POPC   C1B37303  23.203  35.435   8.550
 6101POPC   C2B37304  23.190  35.427   8.250
 6101POPC   C3B37305  23.204  35.430   7.950
 6101POPC   C4B37306  23.119  35.440   7.650
 6102POPC   NC337307  36.113   3.572   9.450
 6102POPC   PO437308  36.086   3.496   9.150
 6102POPC   GL137309  36.082   3.583   8.850
 6102POPC   GL237310  36.230   3.402   8.850
 6102POPC   C1A37311  36.080   3.517   8.550
 6102POPC   D2A37312  36.109   3.538   8.250
 6102POPC   C3A37313  36.140   3.525   7.950
 6102POPC   C4A37314  36.121   3.537   7.650
 6102POPC   C1B37315  36.318   3.357   8.550
 6102POPC   C2B37316  36.302   3.336   8.250
 6102POPC   C3B37317  36.352   3.412   7.950
 6102POPC   C4B37318  36.337   3.318   7.650
 6103POPC   NC337319  29.146  19.804   9.450
 6103POPC   PO437320  29.146  19.869   9.150
 6103POPC   GL137321  29.187  19.786   8.850
 6103POPC   GL237322  29.006  19.863   8.850
 6103POPC   C1A37323  29.175  19.831   8.550
 6103POPC   D2A37324  29.107  19.847   8.250
 6103POPC   C3A37325  29.112  19.817   7.950
 6103POPC   C4A37326  29.132  19.833   7.650
 6103POPC   C1B37327  28.894  19.752   8.550
 6103POPC   C2B37328  28.915  19.834   8.250
 6103POPC   C3B37329  28.854  19.836   7.950
 6103POPC   C4B37330  28.891  19.760   7.650
 6104POPC   NC337331  26.785   1.947   9.450
 6104POPC   PO437332  26.862   1.946   9.150
 6104POPC   GL137333  26.802   2.003   8.850
 6104POPC   GL237334  26.663   1.988   8.850
 6104POPC   C1A37335  26.850   1.971   8.550
 6104POPC   D2A37336  26.827   2.004   8.250
 6104POPC   C3A37337  26.823   1.988   7.950
 6104POPC   C4A37338  26.807   1.982   7.650
 6104POPC   C1B37339  26.529   2.007   8.550
 6104POPC   C2B37340  26.602   1.948   8.250
 6104POPC   C3B37341  26.610   1.981   7.950
 6104POPC   C4B37342  26.600   1.942   7.650
 6105POPC   NC337343  22.184  26.772   9.450
 6105POPC   PO437344  22.152  26.799   9.150
 6105POPC   GL137345  22.193  26.796   8.850
 6105POPC   GL237346  22.027  26.880   8.850
 6105POPC   C1A37347  22.208  26.866   8.550
 6105POPC   D2A37348  22.158  26.815   8.250
 6105POPC   C3A37349  22.112  26.776   7.950
 6105POPC   C4A37350  22.209  26.785   7.650
 6105POPC   C1B37351  21.928  26.856   8.550
 6105POPC   C2B37352  21.951  26.916   8.250
 6105POPC   C3B37353  21.955  26.909   7.950
 6105POPC   C4B37354  21.966  26.918   7.650
 6106POPC   NC337355  11.297   9.015   9.450
 6106POPC   PO437356  11.283   8.945   9.150
 6106POPC   GL137357  11.315   8.949   8.850
 6106POPC   GL237358  11.270   8.825   8.850
 6106POPC   C1A37359  11.292   8.955   8.550
 6106POPC   D2A37360  11.293   9.022   8.250
 6106POPC   C3A37361  11.317   8.976   7.950
 6106POPC   C4A37362  11.331   8.991   7.650
 6106POPC   C1B37363  11.202   8.748   8.550
 6106POPC   C2B37364  11.151   8.718   8.250
 6106POPC   C3B37365  11.155   8.796   7.950
 6106POPC   C4B37366  11.174   8.758   7.650
 6107POPC   NC337367  39.971  40.753   9.450
 6107POPC   PO437368  40.051  40.747   9.150
 6107POPC   GL137369  40.048  40.830   8.850
 6107POPC   GL237370  39.928  40.780   8.850
 6107POPC   C1A37371  39.982  40.809   8.550
 6107POPC   D2A37372  40.032  40.752   8.250
 6107POPC   C3A37373  39.975  40.800   7.950
 6107POPC   C4A37374  40.054  40.778   7.650
 6107POPC   C1B37375  39.727  40.895   8.550
 6107POPC   C2B37376  39.732  40.899   8.250
 6107POPC   C3B37377  39.789  40.898   7.950
 6107POPC   C4B37378  39.798  40.848   7.650
 6108POPC   NC337379  39.210   7.398   9.450
 6108POPC   PO437380  39.261   7.404   9.150
 6108POPC   GL137381  39.273   7.386   8.850
 6108POPC   GL237382  39.326   7.404   8.850
 6108POPC   C1A37383  39.264   7.404   8.550
 6108POPC   D2A37384  39.198   7.395   8.250
 6108POPC   C3A37385  39.218   7.419   7.950
 6108POPC   C4A37386  39.219   7.421   7.650
 6108POPC   C1B37387  39.504   7.305   8.550
 6108POPC   C2B37388  39.421   7.311   8.250
 6108POPC   C3B37389  39.416   7.352   7.950
 6108POPC   C4B37390  39.449   7.344   7.650
 6109POPC   NC337391  33.842  43.131   9.450
 6109POPC   PO437392  33.834  43.138   9.150
 6109POPC   GL137393  33.832  43.092   8.850
 6109POPC   GL237394  33.726  43.132   8.850
 6109POPC   C1A37395  33.762  43.080   8.550
 6109POPC   D2A37396  33.822  43.086   8.250
 6109POPC   C3A37397  33.846  43.088   7.950
 6109POPC   C4A37398  33.807  43.068   7.650
 6109POPC   C1B37399  33.585  43.152   8.550
 6109POPC   C2B37400  33.562  43.202   8.250
 6109POPC   C3B37401  33.558  43.140   7.950
 6109POPC   C4B37402  33.550  43.184   7.650
 6110POPC   NC337403  29.099  13.674   9.450
 6110POPC   PO437404  29.142  13.651   9.150
 6110POPC   GL137405  29.130  13.581   8.850
 6110POPC   GL237406  29.238  13.711   8.850
 6110POPC   C1A37407  29.117  13.663   8.550
 6110POPC   D2A37408  29.103  13.622   8.250
 6110POPC   C3A37409  29.124  13.658   7.950
 6110POPC   C4A37410  29.178  13.677   7.650
 6110POPC   C1B37411  29.301  13.796   8.550
 6110POPC   C2B37412  29.285  13.883   8.250
 6110POPC   C3B37413  29.274  13.887   7.950
 6110POPC   C4B37414  29.313  13.866   7.650
 6111POPC   NC337415  13.666   1.979   9.450
 6111POPC   PO437416  13.656   1.990   9.150
 6111POPC   GL137417  13.658   1.973   8.850
 6111POPC   GL237418  13.737   1.966   8.850
 6111POPC   C1A37419  13.605   1.986   8.550
 6111POPC   D2A37420  13.617   1.971   8.250
 6111POPC   C3A37421  13.655   1.960   7.950
 6111POPC   C4A37422  13.604   2.030   7.650
 6111POPC   C1B37423  13.856   1.997   8.550
 6111POPC   C2B37424  13.839   1.997   8.250
 6111POPC   C3B37425  13.880   2.015   7.950
 6111POPC   C4B37426  13.884   1.989   7.650
 6112POPC   NC337427   1.980  36.927   9.450
 6112POPC   PO437428   1.965  36.865   9.150
 6112POPC   GL137429   1.971  36.856   8.850
 6112POPC   GL237430   2.112  36.852   8.850
 6112POPC   C1A37431   2.038  36.928   8.550
 6112POPC   D2A37432   2.007  36.906   8.250
 6112POPC   C3A37433   1.957  36.911   7.950
 6112POPC   C4A37434   1.971  36.912   7.650
 6112POPC   C1B37435   2.197  36.863   8.550
 6112POPC   C2B37436   2.202  36.817   8.250
 6112POPC   C3B37437   2.286  36.871   7.950
 6112POPC   C4B37438   2.220  36.869   7.650
 6113POPC   NC337439  10.529  14.395   9.450
 6113POPC   PO437440  10.560  14.367   9.150
 6113POPC   GL137441  10.515  14.448   8.850
 6113POPC   GL237442  10.560  14.292   8.850
 6113POPC   C1A37443  10.479  14.361   8.550
 6113POPC   D2A37444  10.486  14.377   8.250
 6113POPC   C3A37445  10.516  14.369   7.950
 6113POPC   C4A37446  10.515  14.420   7.650
 6113POPC   C1B37447  10.605  14.119   8.550
 6113POPC   C2B37448  10.592  14.186   8.250
 6113POPC   C3B37449  10.617  14.163   7.950
 6113POPC   C4B37450  10.596  14.190   7.650
 6114POPC   NC337451  35.362  28.376   9.450
 6114POPC   PO437452  35.350  28.396   9.150
 6114POPC   GL137453  35.383  28.364   8.850
 6114POPC   GL237454  35.252  28.340   8.850
 6114POPC   C1A37455  35.334  28.366   8.550
 6114POPC   D2A37456  35.332  28.355   8.250
 6114POPC   C3A37457  35.311  28.382   7.950
 6114POPC   C4A37458  35.393  28.410   7.650
 6114POPC   C1B37459  35.076  28.317   8.550
 6114POPC   C2B37460  35.103  28.279   8.250
 6114POPC   C3B37461  35.089  28.260   7.950
 6114POPC   C4B37462  35.074  28.249   7.650
 6115POPC   NC337463  15.206   7.457   9.450
 6115POPC   PO437464  15.220   7.395   9.150
 6115POPC   GL137465  15.208   7.380   8.850
 6115POPC   GL237466  15.245   7.407   8.850
 6115POPC   C1A37467  15.153   7.445   8.550
 6115POPC   D2A37468  15.132   7.437   8.250
 6115POPC   C3A37469  15.185   7.372   7.950
 6115POPC   C4A37470  15.139   7.457   7.650
 6115POPC   C1B37471  15.456   7.284   8.550
 6115POPC   C2B37472  15.386   7.283   8.250
 6115POPC   C3B37473  15.394   7.364   7.950
 6115POPC   C4B37474  15.428   7.294   7.650
 6116POPC   NC337475   7.409  27.640   9.450
 6116POPC   PO437476   7.417  27.562   9.150
 6116POPC   GL137477   7.441  27.583   8.850
 6116POPC   GL237478   7.455  27.726   8.850
 6116POPC   C1A37479   7.388  27.551   8.550
 6116POPC   D2A37480   7.374  27.616   8.250
 6116POPC   C3A37481   7.433  27.622   7.950
 6116POPC   C4A37482   7.467  27.553   7.650
 6116POPC   C1B37483   7.528  27.820   8.550
 6116POPC   C2B37484   7.510  27.815   8.250
 6116POPC   C3B37485   7.589  27.851   7.950
 6116POPC   C4B37486   7.524  27.806   7.650
 6117POPC   NC337487  13.618  35.324   9.450
 6117POPC   PO437488  13.587  35.346   9.150
 6117POPC   GL137489  13.620  35.353   8.850
 6117POPC   GL237490  13.654  35.415   8.850
 6117POPC   C1A37491  13.613  35.401   8.550
 6117POPC   D2A37492  13.606  35.325   8.250
 6117POPC   C3A37493  13.610  35.318   7.950
 6117POPC   C4A37494  13.637  35.338   7.650
 6117POPC   C1B37495  13.727  35.594   8.550
 6117POPC   C2B37496  13.758  35.540   8.250
 6117POPC   C3B37497  13.788  35.526   7.950
 6117POPC   C4B37498  13.804  35.592   7.650
 6118POPC   NC337499  26.036  39.973   9.450
 6118POPC   PO437500  25.992  40.042   9.150
 6118POPC   GL137501  26.028  40.036   8.850
 6118POPC   GL237502  26.045  39.872   8.850
 6118POPC   C1A37503  26.003  39.968   8.550
 6118POPC   D2A37504  25.997  40.034   8.250
 6118POPC   C3A37505  26.042  40.007   7.950
 6118POPC   C4A37506  26.085  40.022   7.650
 6118POPC   C1B37507  26.082  39.738   8.550
 6118POPC   C2B37508  26.122  39.711   8.250
 6118POPC   C3B37509  26.115  39.742   7.950
 6118POPC   C4B37510  26.057  39.780   7.650
 6119POPC   NC337511  42.348   1.990   9.450
 6119POPC   PO437512  42.359   2.019   9.150
 6119POPC   GL137513  42.368   1.967   8.850
 6119POPC   GL237514  42.485   1.998   8.850
 6119POPC   C1A37515  42.295   2.014   8.550
 6119POPC   D2A37516  42.318   2.007   8.250
 6119POPC   C3A37517  42.329   1.969   7.950
 6119POPC   C4A37518  42.331   2.027   7.650
 6119POPC   C1B37519  42.593   1.970   8.550
 6119POPC   C2B37520  42.612   2.039   8.250
 6119POPC   C3B37521  42.594   1.992   7.950
 6119POPC   C4B37522  42.612   1.987   7.650
 6120POPC   NC337523  28.374   8.245   9.450
 6120POPC   PO437524  28.373   8.159   9.150
 6120POPC   GL137525  28.337   8.211   8.850
 6120POPC   GL237526  28.409   8.033   8.850
 6120POPC   C1A37527  28.341   8.224   8.550
 6120POPC   D2A37528  28.350   8.202   8.250
 6120POPC   C3A37529  28.366   8.235   7.950
 6120POPC   C4A37530  28.367   8.196   7.650
 6120POPC   C1B37531  28.485   8.002   8.550
 6120POPC   C2B37532  28.405   7.938   8.250
 6120POPC   C3B37533  28.418   7.909   7.950
 6120POPC   C4B37534  28.438   7.963   7.650
 6121POPC   NC337535   5.076  27.544   9.450
 6121POPC   PO437536   5.076  27.591   9.150
 6121POPC   GL137537   5.109  27.577   8.850
 6121POPC   GL237538   5.010  27.612   8.850
 6121POPC   C1A37539   5.058  27.592   8.550
 6121POPC   D2A37540   5.127  27.596   8.250
 6121POPC   C3A37541   5.108  27.567   7.950
 6121POPC   C4A37542   5.107  27.581   7.650
 6121POPC   C1B37543   4.856  27.687   8.550
 6121POPC   C2B37544   4.838  27.641   8.250
 6121POPC   C3B37545   4.858  27.721   7.950
 6121POPC   C4B37546   4.859  27.729   7.650
 6122POPC   NC337547   0.390  37.703   9.450
 6122POPC   PO437548   0.417  37.722   9.150
 6122POPC   GL137549   0.440  37.724   8.850
 6122POPC   GL237550   0.375  37.745   8.850
 6122POPC   C1A37551   0.414  37.728   8.550
 6122POPC   D2A37552   0.459  37.719   8.250
 6122POPC   C3A37553   0.477  37.671   7.950
 6122POPC   C4A37554   0.445  37.715   7.650
 6122POPC   C1B37555   0.273  37.838   8.550
 6122POPC   C2B37556   0.206  37.856   8.250
 6122POPC   C3B37557   0.253  37.833   7.950
 6122POPC   C4B37558   0.226  37.794   7.650
 6123POPC   NC337559  44.687  10.549   9.450
 6123POPC   PO437560  44.704  10.479   9.150
 6123POPC   GL137561  44.632  10.501   8.850
 6123POPC   GL237562  44.686  10.667   8.850
 6123POPC   C1A37563  44.686  10.495   8.550
 6123POPC   D2A37564  44.650  10.498   8.250
 6123POPC   C3A37565  44.704  10.479   7.950
 6123POPC   C4A37566  44.704  10.546   7.650
 6123POPC   C1B37567  44.653  10.761   8.550
 6123POPC   C2B37568  44.705  10.797   8.250
 6123POPC   C3B37569  44.636  10.789   7.950
 6123POPC   C4B37570  44.646  10.786   7.650
 6124POPC   NC337571  26.812  22.155   9.450
 6124POPC   PO437572  26.800  22.177   9.150
 6124POPC   GL137573  26.800  22.205   8.850
 6124POPC   GL237574  26.794  22.247   8.850
 6124POPC   C1A37575  26.827  22.169   8.550
 6124POPC   D2A37576  26.791  22.150   8.250
 6124POPC   C3A37577  26.865  22.153   7.950
 6124POPC   C4A37578  26.852  22.202   7.650
 6124POPC   C1B37579  26.788  22.416   8.550
 6124POPC   C2B37580  26.722  22.416   8.250
 6124POPC   C3B37581  26.764  22.362   7.950
 6124POPC   C4B37582  26.753  22.375   7.650
 6125POPC   NC337583   2.007  28.342   9.450
 6125POPC   PO437584   2.033  28.339   9.150
 6125POPC   GL137585   1.998  28.382   8.850
 6125POPC   GL237586   2.065  28.255   8.850
 6125POPC   C1A37587   1.989  28.360   8.550
 6125POPC   D2A37588   1.982  28.340   8.250
 6125POPC   C3A37589   1.964  28.359   7.950
 6125POPC   C4A37590   1.974  28.325   7.650
 6125POPC   C1B37591   2.089  28.197   8.550
 6125POPC   C2B37592   2.161  28.157   8.250
 6125POPC   C3B37593   2.139  28.139   7.950
 6125POPC   C4B37594   2.136  28.188   7.650
 6126POPC   NC337595  25.995  33.050   9.450
 6126POPC   PO437596  26.069  33.034   9.150
 6126POPC   GL137597  26.072  33.047   8.850
 6126POPC   GL237598  26.120  33.123   8.850
 6126POPC   C1A37599  26.025  33.013   8.550
 6126POPC   D2A37600  26.007  33.018   8.250
 6126POPC   C3A37601  26.059  33.047   7.950
 6126POPC   C4A37602  26.039  33.020   7.650
 6126POPC   C1B37603  26.148  33.217   8.550
 6126POPC   C2B37604  26.153  33.200   8.250
 6126POPC   C3B37605  26.155  33.258   7.950
 6126POPC   C4B37606  26.197  33.259   7.650
 6127POPC   NC337607  22.912  11.304   9.450
 6127POPC   PO437608  22.967  11.250   9.150
 6127POPC   GL137609  22.905  11.336   8.850
 6127POPC   GL237610  23.092  11.330   8.850
 6127POPC   C1A37611  22.937  11.265   8.550
 6127POPC   D2A37612  22.917  11.332   8.250
 6127POPC   C3A37613  22.955  11.302   7.950
 6127POPC   C4A37614  22.900  11.338   7.650
 6127POPC   C1B37615  23.167  11.262   8.550
 6127POPC   C2B37616  23.146  11.224   8.250
 6127POPC   C3B37617  23.156  11.292   7.950
 6127POPC   C4B37618  23.232  11.253   7.650
 6128POPC   NC337619  36.078   0.434   9.450
 6128POPC   PO437620  36.095   0.421   9.150
 6128POPC   GL137621  36.135   0.407   8.850
 6128POPC   GL237622  36.267   0.392   8.850
 6128POPC   C1A37623  36.159   0.422   8.550
 6128POPC   D2A37624  36.099   0.388   8.250
 6128POPC   C3A37625  36.156   0.404   7.950
 6128POPC   C4A37626  36.145   0.403   7.650
 6128POPC   C1B37627  36.369   0.393   8.550
 6128POPC   C2B37628  36.338   0.394   8.250
 6128POPC   C3B37629  36.382   0.485   7.950
 6128POPC   C4B37630  36.350   0.432   7.650
 6129POPC   NC337631  15.944  22.174   9.450
 6129POPC   PO437632  15.967  22.202   9.150
 6129POPC   GL137633  15.957  22.178   8.850
 6129POPC   GL237634  15.843  22.019   8.850
 6129POPC   C1A37635  15.967  22.178   8.550
 6129POPC   D2A37636  15.971  22.120   8.250
 6129POPC   C3A37637  15.921  22.170   7.950
 6129POPC   C4A37638  15.942  22.122   7.650
 6129POPC   C1B37639  15.750  22.020   8.550
 6129POPC   C2B37640  15.746  21.929   8.250
 6129POPC   C3B37641  15.754  21.959   7.950
 6129POPC   C4B37642  15.779  21.973   7.650
 6130POPC   NC337643  40.036  12.849   9.450
 6130POPC   PO437644  39.998  12.825   9.150
 6130POPC   GL137645  40.003  12.878   8.850
 6130POPC   GL237646  39.917  12.925   8.850
 6130POPC   C1A37647  39.976  12.809   8.550
 6130POPC   D2A37648  40.023  12.837   8.250
 6130POPC   C3A37649  40.016  12.805   7.950
 6130POPC   C4A37650  40.009  12.826   7.650
 6130POPC   C1B37651  39.941  13.120   8.550
 6130POPC   C2B37652  39.940  13.068   8.250
 6130POPC   C3B37653  39.876  13.088   7.950
 6130POPC   C4B37654  39.867  13.101   7.650
 6131POPC   NC337655  15.147  33.037   9.450
 6131POPC   PO437656  15.185  33.060   9.150
 6131POPC   GL137657  15.132  33.027   8.850
 6131POPC   GL237658  15.103  32.986   8.850
 6131POPC   C1A37659  15.134  33.068   8.550
 6131POPC   D2A37660  15.170  33.014   8.250
 6131POPC   C3A37661  15.135  33.038   7.950
 6131POPC   C4A37662  15.215  33.038   7.650
 6131POPC   C1B37663  14.925  32.968   8.550
 6131POPC   C2B37664  14.892  32.974   8.250
 6131POPC   C3B37665  14.963  32.977   7.950
 6131POPC   C4B37666  14.912  32.950   7.650
 6132POPC   NC337667  11.305  23.762   9.450
 6132POPC   PO437668  11.344  23.758   9.150
 6132POPC   GL137669  11.300  23.724   8.850
 6132POPC   GL237670  11.173  23.718   8.850
 6132POPC   C1A37671  11.286  23.692   8.550
 6132POPC   D2A37672  11.263  23.763   8.250
 6132POPC   C3A37673  11.340  23.704   7.950
 6132POPC   C4A37674  11.341  23.672   7.650
 6132POPC   C1B37675  11.061  23.639   8.550
 6132POPC   C2B37676  11.048  23.642   8.250
 6132POPC   C3B37677  11.107  23.608   7.950
 6132POPC   C4B37678  11.015  23.645   7.650
 6133POPC   NC337679   5.133  38.440   9.450
 6133POPC   PO437680   5.109  38.429   9.150
 6133POPC   GL137681   5.087  38.430   8.850
 6133POPC   GL237682   4.976  38.421   8.850
 6133POPC   C1A37683   5.104  38.455   8.550
 6133POPC   D2A37684   5.057  38.484   8.250
 6133POPC   C3A37685   5.137  38.430   7.950
 6133POPC   C4A37686   5.125  38.447   7.650
 6133POPC   C1B37687   4.866  38.354   8.550
 6133POPC   C2B37688   4.892  38.278   8.250
 6133POPC   C3B37689   4.875  38.290   7.950
 6133POPC   C4B37690   4.888  38.350   7.650
 6134POPC   NC337691  42.316  30.688   9.450
 6134POPC   PO437692  42.287  30.727   9.150
 6134POPC   GL137693  42.300  30.728   8.850
 6134POPC   GL237694  42.472  30.797   8.850
 6134POPC   C1A37695  42.315  30.665   8.550
 6134POPC   D2A37696  42.299  30.729   8.250
 6134POPC   C3A37697  42.288  30.722   7.950
 6134POPC   C4A37698  42.346  30.727   7.650
 6134POPC   C1B37699  42.517  30.900   8.550
 6134POPC   C2B37700  42.498  30.905   8.250
 6134POPC   C3B37701  42.476  30.870   7.950
 6134POPC   C4B37702  42.559  30.873   7.650
 6135POPC   NC337703   3.578  13.587   9.450
 6135POPC   PO437704   3.545  13.612   9.150
 6135POPC   GL137705   3.545  13.584   8.850
 6135POPC   GL237706   3.499  13.551   8.850
 6135POPC   C1A37707   3.557  13.672   8.550
 6135POPC   D2A37708   3.555  13.655   8.250
 6135POPC   C3A37709   3.587  13.641   7.950
 6135POPC   C4A37710   3.572  13.677   7.650
 6135POPC   C1B37711   3.413  13.420   8.550
 6135POPC   C2B37712   3.432  13.444   8.250
 6135POPC   C3B37713   3.442  13.420   7.950
 6135POPC   C4B37714   3.428  13.397   7.650
 6136POPC   NC337715   3.563  40.036   9.450
 6136POPC   PO437716   3.559  40.044   9.150
 6136POPC   GL137717   3.553  40.029   8.850
 6136POPC   GL237718   3.436  39.893   8.850
 6136POPC   C1A37719   3.554  40.025   8.550
 6136POPC   D2A37720   3.531  40.025   8.250
 6136POPC   C3A37721   3.567  40.020   7.950
 6136POPC   C4A37722   3.501  40.038   7.650
 6136POPC   C1B37723   3.374  39.828   8.550
 6136POPC   C2B37724   3.444  39.753   8.250
 6136POPC   C3B37725   3.371  39.833   7.950
 6136POPC   C4B37726   3.415  39.810   7.650
 6137POPC   NC337727  39.251  26.040   9.450
 6137POPC   PO437728  39.274  26.071   9.150
 6137POPC   GL137729  39.191  26.065   8.850
 6137POPC   GL237730  39.158  26.064   8.850
 6137POPC   C1A37731  39.260  26.042   8.550
 6137POPC   D2A37732  39.228  26.056   8.250
 6137POPC   C3A37733  39.250  26.022   7.950
 6137POPC   C4A37734  39.188  26.031   7.650
 6137POPC   C1B37735  39.064  26.208   8.550
 6137POPC   C2B37736  38.986  26.197   8.250
 6137POPC   C3B37737  39.066  26.143   7.950
 6137POPC   C4B37738  39.026  26.217   7.650
 6138POPC   NC337739  34.533  13.644   9.450
 6138POPC   PO437740  34.622  13.600   9.150
 6138POPC   GL137741  34.544  13.581   8.850
 6138POPC   GL237742  34.476  13.689   8.850
 6138POPC   C1A37743  34.616  13.646   8.550
 6138POPC   D2A37744  34.602  13.655   8.250
 6138POPC   C3A37745  34.593  13.593   7.950
 6138POPC   C4A37746  34.535  13.643   7.650
 6138POPC   C1B37747  34.413  13.801   8.550
 6138POPC   C2B37748  34.388  13.856   8.250
 6138POPC   C3B37749  34.416  13.820   7.950
 6138POPC   C4B37750  34.442  13.800   7.650
 6139POPC   NC337751   8.235  12.110   9.450
 6139POPC   PO437752   8.228  12.094   9.150
 6139POPC   GL137753   8.166  12.085   8.850
 6139POPC   GL237754   8.166  12.003   8.850
 6139POPC   C1A37755   8.194  12.042   8.550
 6139POPC   D2A37756   8.158  12.116   8.250
 6139POPC   C3A37757   8.211  12.040   7.950
 6139POPC   C4A37758   8.228  12.038   7.650
 6139POPC   C1B37759   8.119  11.804   8.550
 6139POPC   C2B37760   8.147  11.874   8.250
 6139POPC   C3B37761   8.142  11.824   7.950
 6139POPC   C4B37762   8.170  11.786   7.650
 6140POPC   NC337763  23.730  43.133   9.450
 6140POPC   PO437764  23.745  43.145   9.150
 6140POPC   GL137765  23.715  43.124   8.850
 6140POPC   GL237766  23.689  42.947   8.850
 6140POPC   C1A37767  23.711  43.126   8.550
 6140POPC   D2A37768  23.669  43.067   8.250
 6140POPC   C3A37769  23.686  43.075   7.950
 6140POPC   C4A37770  23.682  43.141   7.650
 6140POPC   C1B37771  23.755  42.826   8.550
 6140POPC   C2B37772  23.768  42.836   8.250
 6140POPC   C3B37773  23.719  42.893   7.950
 6140POPC   C4B37774  23.704  42.812   7.650
 6141POPC   NC337775  37.668  25.254   9.450
 6141POPC   PO437776  37.677  25.287   9.150
 6141POPC   GL137777  37.685  25.269   8.850
 6141POPC   GL237778  37.842  25.327   8.850
 6141POPC   C1A37779  37.687  25.232   8.550
 6141POPC   D2A37780  37.675  25.301   8.250
 6141POPC   C3A37781  37.660  25.240   7.950
 6141POPC   C4A37782  37.654  25.308   7.650
 6141POPC   C1B37783  37.925  25.367   8.550
 6141POPC   C2B37784  37.915  25.311   8.250
 6141POPC   C3B37785  37.920  25.343   7.950
 6141POPC   C4B37786  37.886  25.297   7.650
 6142POPC   NC337787  23.695   0.443   9.450
 6142POPC   PO437788  23.680   0.407   9.150
 6142POPC   GL137789  23.711   0.427   8.850
 6142POPC   GL237790  23.813   0.577   8.850
 6142POPC   C1A37791  23.708   0.396   8.550
 6142POPC   D2A37792  23.690   0.477   8.250
 6142POPC   C3A37793  23.706   0.465   7.950
 6142POPC   C4A37794  23.726   0.427   7.650
 6142POPC   C1B37795  23.884   0.601   8.550
 6142POPC   C2B37796  23.815   0.629   8.250
 6142POPC   C3B37797  23.852   0.670   7.950
 6142POPC   C4B37798  23.840   0.628   7.650
 6143POPC   NC337799   3.513  40.831   9.450
 6143POPC   PO437800   3.575  40.745   9.150
 6143POPC   GL137801   3.507  40.775   8.850
 6143POPC   GL237802   3.553  40.904   8.850
 6143POPC   C1A37803   3.562  40.832   8.550
 6143POPC   D2A37804   3.533  40.805   8.250
 6143POPC   C3A37805   3.525  40.771   7.950
 6143POPC   C4A37806   3.581  40.756   7.650
 6143POPC   C1B37807   3.640  40.976   8.550
 6143POPC   C2B37808   3.675  41.056   8.250
 6143POPC   C3B37809   3.598  41.002   7.950
 6143POPC   C4B37810   3.615  40.999   7.650
 6144POPC   NC337811  44.614  15.140   9.450
 6144POPC   PO437812  44.635  15.228   9.150
 6144POPC   GL137813  44.686  15.175   8.850
 6144POPC   GL237814  44.732  15.212   8.850
 6144POPC   C1A37815  44.636  15.194   8.550
 6144POPC   D2A37816  44.705  15.135   8.250
 6144POPC   C3A37817  44.684  15.226   7.950
 6144POPC   C4A37818  44.683  15.139   7.650
 6144POPC   C1B37819  44.822  15.279   8.550
 6144POPC   C2B37820  44.856  15.296   8.250
 6144POPC   C3B37821  44.896  15.298   7.950
 6144POPC   C4B37822  44.830  15.316   7.650
 6145POPC   NC337823   8.200   4.309   9.450
 6145POPC   PO437824   8.200   4.335   9.150
 6145POPC   GL137825   8.185   4.356   8.850
 6145POPC   GL237826   8.280   4.152   8.850
 6145POPC   C1A37827   8.228   4.339   8.550
 6145POPC   D2A37828   8.236   4.296   8.250
 6145POPC   C3A37829   8.176   4.357   7.950
 6145POPC   C4A37830   8.225   4.335   7.650
 6145POPC   C1B37831   8.291   4.118   8.550
 6145POPC   C2B37832   8.316   4.120   8.250
 6145POPC   C3B37833   8.264   4.115   7.950
 6145POPC   C4B37834   8.244   4.112   7.650
 6146POPC   NC337835  43.854  40.016   9.450
 6146POPC   PO437836  43.846  40.023   9.150
 6146POPC   GL137837  43.889  40.044   8.850
 6146POPC   GL237838  43.795  39.901   8.850
 6146POPC   C1A37839  43.883  39.980   8.550
 6146POPC   D2A37840  43.847  40.056   8.250
 6146POPC   C3A37841  43.889  40.049   7.950
 6146POPC   C4A37842  43.907  40.003   7.650
 6146POPC   C1B37843  43.760  39.801   8.550
 6146POPC   C2B37844  43.801  39.791   8.250
 6146POPC   C3B37845  43.742  39.835   7.950
 6146POPC   C4B37846  43.716  39.818   7.650
 6147POPC   NC337847  24.450  29.969   9.450
 6147POPC   PO437848  24.504  29.936   9.150
 6147POPC   GL137849  24.513  29.949   8.850
 6147POPC   GL237850  24.479  29.838   8.850
 6147POPC   C1A37851  24.480  29.937   8.550
 6147POPC   D2A37852  24.469  29.873   8.250
 6147POPC   C3A37853  24.523  29.934   7.950
 6147POPC   C4A37854  24.480  29.908   7.650
 6147POPC   C1B37855  24.441  29.715   8.550
 6147POPC   C2B37856  24.480  29.672   8.250
 6147POPC   C3B37857  24.490  29.669   7.950
 6147POPC   C4B37858  24.451  29.683   7.650
 6148POPC   NC337859   7.388  36.868   9.450
 6148POPC   PO437860   7.453  36.859   9.150
 6148POPC   GL137861   7.382  36.938   8.850
 6148POPC   GL237862   7.346  37.023   8.850
 6148POPC   C1A37863   7.442  36.921   8.550
 6148POPC   D2A37864   7.417  36.903   8.250
 6148POPC   C3A37865   7.375  36.953   7.950
 6148POPC   C4A37866   7.442  36.942   7.650
 6148POPC   C1B37867   7.219  37.026   8.550
 6148POPC   C2B37868   7.252  37.092   8.250
 6148POPC   C3B37869   7.172  37.021   7.950
 6148POPC   C4B37870   7.236  37.043   7.650
 6149POPC   NC337871   8.183  17.543   9.450
 6149POPC   PO437872   8.243  17.466   9.150
 6149POPC   GL137873   8.218  17.551   8.850
 6149POPC   GL237874   8.134  17.579   8.850
 6149POPC   C1A37875   8.181  17.515   8.550
 6149POPC   D2A37876   8.199  17.487   8.250
 6149POPC   C3A37877   8.200  17.497   7.950
 6149POPC   C4A37878   8.243  17.541   7.650
 6149POPC   C1B37879   8.065  17.687   8.550
 6149POPC   C2B37880   8.057  17.668   8.250
 6149POPC   C3B37881   8.017  17.656   7.950
 6149POPC   C4B37882   8.060  17.693   7.650
 6150POPC   NC337883  29.903  36.943   9.450
 6150POPC   PO437884  29.935  36.928   9.150
 6150POPC   GL137885  29.872  36.919   8.850
 6150POPC   GL237886  30.070  36.915   8.850
 6150POPC   C1A37887  29.932  36.875   8.550
 6150POPC   D2A37888  29.920  36.949   8.250
 6150POPC   C3A37889  29.875  36.933   7.950
 6150POPC   C4A37890  29.930  36.921   7.650
 6150POPC   C1B37891  30.141  36.855   8.550
 6150POPC   C2B37892  30.147  36.849   8.250
 6150POPC   C3B37893  30.198  36.843   7.950
 6150POPC   C4B37894  30.125  36.905   7.650
 6151POPC   NC337895   8.977  28.356   9.450
 6151POPC   PO437896   9.000  28.369   9.150
 6151POPC   GL137897   9.011  28.332   8.850
 6151POPC   GL237898   9.003  28.291   8.850
 6151POPC   C1A37899   8.926  28.402   8.550
 6151POPC   D2A37900   8.943  28.407   8.250
 6151POPC   C3A37901   8.995  28.365   7.950
 6151POPC   C4A37902   8.979  28.386   7.650
 6151POPC   C1B37903   9.131  28.158   8.550
 6151POPC   C2B37904   9.131  28.155   8.250
 6151POPC   C3B37905   9.055  28.105   7.950
 6151POPC   C4B37906   9.104  28.108   7.650
 6152POPC   NC337907  11.299  19.039   9.450
 6152POPC   PO437908  11.298  19.043   9.150
 6152POPC   GL137909  11.277  19.028   8.850
 6152POPC   GL237910  11.295  18.901   8.850
 6152POPC   C1A37911  11.271  19.067   8.550
 6152POPC   D2A37912  11.308  19.021   8.250
 6152POPC   C3A37913  11.315  19.078   7.950
 6152POPC   C4A37914  11.329  19.076   7.650
 6152POPC   C1B37915  11.397  18.810   8.550
 6152POPC   C2B37916  11.390  18.790   8.250
 6152POPC   C3B37917  11.391  18.814   7.950
 6152POPC   C4B37918  11.377  18.809   7.650
 6153POPC   NC337919  11.271  28.332   9.450
 6153POPC   PO437920  11.302  28.392   9.150
 6153POPC   GL137921  11.335  28.322   8.850
 6153POPC   GL237922  11.370  28.446   8.850
 6153POPC   C1A37923  11.289  28.378   8.550
 6153POPC   D2A37924  11.317  28.408   8.250
 6153POPC   C3A37925  11.333  28.343   7.950
 6153POPC   C4A37926  11.345  28.374   7.650
 6153POPC   C1B37927  11.376  28.646   8.550
 6153POPC   C2B37928  11.369  28.601   8.250
 6153POPC   C3B37929  11.369  28.643   7.950
 6153POPC   C4B37930  11.379  28.650   7.650
 6154POPC   NC337931   4.307   2.717   9.450
 6154POPC   PO437932   4.326   2.752   9.150
 6154POPC   GL137933   4.358   2.747   8.850
 6154POPC   GL237934   4.422   2.695   8.850
 6154POPC   C1A37935   4.268   2.813   8.550
 6154POPC   D2A37936   4.305   2.756   8.250
 6154POPC   C3A37937   4.362   2.806   7.950
 6154POPC   C4A37938   4.298   2.740   7.650
 6154POPC   C1B37939   4.546   2.702   8.550
 6154POPC   C2B37940   4.569   2.648   8.250
 6154POPC   C3B37941   4.536   2.696   7.950
 6154POPC   C4B37942   4.524   2.686   7.650
 6155POPC   NC337943   3.532   4.288   9.450
 6155POPC   PO437944   3.508   4.277   9.150
 6155POPC   GL137945   3.513   4.286   8.850
 6155POPC   GL237946   3.540   4.219   8.850
 6155POPC   C1A37947   3.560   4.342   8.550
 6155POPC   D2A37948   3.550   4.300   8.250
 6155POPC   C3A37949   3.532   4.288   7.950
 6155POPC   C4A37950   3.522   4.307   7.650
 6155POPC   C1B37951   3.544   4.045   8.550
 6155POPC   C2B37952   3.600   4.074   8.250
 6155POPC   C3B37953   3.595   4.044   7.950
 6155POPC   C4B37954   3.605   4.077   7.650
 6156POPC   NC337955  17.542  39.250   9.450
 6156POPC   PO437956  17.512  39.201   9.150
 6156POPC   GL137957  17.483  39.223   8.850
 6156POPC   GL237958  17.420  39.104   8.850
 6156POPC   C1A37959  17.516  39.194   8.550
 6156POPC   D2A37960  17.553  39.218   8.250
 6156POPC   C3A37961  17.470  39.206   7.950
 6156POPC   C4A37962  17.538  39.237   7.650
 6156POPC   C1B37963  17.323  38.978   8.550
 6156POPC   C2B37964  17.397  38.995   8.250
 6156POPC   C3B37965  17.321  39.032   7.950
 6156POPC   C4B37966  17.338  38.995   7.650
 6157POPC   NC337967  41.582  16.699   9.450
 6157POPC   PO437968  41.523  16.726   9.150
 6157POPC   GL137969  41.573  16.726   8.850
 6157POPC   GL237970  41.574  16.590   8.850
 6157POPC   C1A37971  41.575  16.682   8.550
 6157POPC   D2A37972  41.543  16.729   8.250
 6157POPC   C3A37973  41.551  16.730   7.950
 6157POPC   C4A37974  41.512  16.713   7.650
 6157POPC   C1B37975  41.600  16.436   8.550
 6157POPC   C2B37976  41.552  16.485   8.250
 6157POPC   C3B37977  41.519  16.481   7.950
 6157POPC   C4B37978  41.558  16.437   7.650
 6158POPC   NC337979  23.708  15.223   9.450
 6158POPC   PO437980  23.711  15.149   9.150
 6158POPC   GL137981  23.722  15.212   8.850
 6158POPC   GL237982  23.591  15.239   8.850
 6158POPC   C1A37983  23.748  15.172   8.550
 6158POPC   D2A37984  23.695  15.163   8.250
 6158POPC   C3A37985  23.725  15.200   7.950
 6158POPC   C4A37986  23.695  15.205   7.650
 6158POPC   C1B37987  23.463  15.262   8.550
 6158POPC   C2B37988  23.501  15.276   8.250
 6158POPC   C3B37989  23.435  15.244   7.950
 6158POPC   C4B37990  23.466  15.250   7.650
 6159POPC   NC337991  12.049   7.414   9.450
 6159POPC   PO437992  12.120   7.432   9.150
 6159POPC   GL137993  12.027   7.429   8.850
 6159POPC   GL237994  11.949   7.370   8.850
 6159POPC   C1A37995  12.115   7.431   8.550
 6159POPC   D2A37996  12.049   7.425   8.250
 6159POPC   C3A37997  12.067   7.388   7.950
 6159POPC   C4A37998  12.091   7.462   7.650
 6159POPC   C1B37999  11.922   7.229   8.550
 6159POPC   C2B38000  11.944   7.198   8.250
 6159POPC   C3B38001  11.916   7.246   7.950
 6159POPC   C4B38002  11.890   7.252   7.650
 6160POPC   NC338003  25.281  16.699   9.450
 6160POPC   PO438004  25.282  16.755   9.150
 6160POPC   GL138005  25.304  16.705   8.850
 6160POPC   GL238006  25.287  16.645   8.850
 6160POPC   C1A38007  25.216  16.741   8.550
 6160POPC   D2A38008  25.262  16.686   8.250
 6160POPC   C3A38009  25.269  16.761   7.950
 6160POPC   C4A38010  25.275  16.779   7.650
 6160POPC   C1B38011  25.393  16.557   8.550
 6160POPC   C2B38012  25.438  16.503   8.250
 6160POPC   C3B38013  25.377  16.475   7.950
 6160POPC   C4B38014  25.426  16.535   7.650
 6161POPC   NC338015  34.571  27.627   9.450
 6161POPC   PO438016  34.554  27.570   9.150
 6161POPC   GL138017  34.581  27.639   8.850
 6161POPC   GL238018  34.491  27.520   8.850
 6161POPC   C1A38019  34.570  27.608   8.550
 6161POPC   D2A38020  34.583  27.635   8.250
 6161POPC   C3A38021  34.540  27.601   7.950
 6161POPC   C4A38022  34.601  27.597   7.650
 6161POPC   C1B38023  34.326  27.521   8.550
 6161POPC   C2B38024  34.403  27.440   8.250
 6161POPC   C3B38025  34.377  27.428   7.950
 6161POPC   C4B38026  34.375  27.520   7.650
 6162POPC   NC338027  38.476  24.489   9.450
 6162POPC   PO438028  38.489  24.540   9.150
 6162POPC   GL138029  38.421  24.468   8.850
 6162POPC   GL238030  38.394  24.618   8.850
 6162POPC   C1A38031  38.405  24.476   8.550
 6162POPC   D2A38032  38.415  24.449   8.250
 6162POPC   C3A38033  38.488  24.489   7.950
 6162POPC   C4A38034  38.408  24.453   7.650
 6162POPC   C1B38035  38.299  24.739   8.550
 6162POPC   C2B38036  38.294  24.661   8.250
 6162POPC   C3B38037  38.355  24.664   7.950
 6162POPC   C4B38038  38.350  24.652   7.650
 6163POPC   NC338039   7.421  30.727   9.450
 6163POPC   PO438040   7.401  30.725   9.150
 6163POPC   GL138041   7.413  30.671   8.850
 6163POPC   GL238042   7.551  30.614   8.850
 6163POPC   C1A38043   7.455  30.652   8.550
 6163POPC   D2A38044   7.410  30.685   8.250
 6163POPC   C3A38045   7.397  30.653   7.950
 6163POPC   C4A38046   7.389  30.686   7.650
 6163POPC   C1B38047   7.602  30.565   8.550
 6163POPC   C2B38048   7.604  30.560   8.250
 6163POPC   C3B38049   7.605  30.585   7.950
 6163POPC   C4B38050   7.674  30.551   7.650
 6164POPC   NC338051   8.167   2.797   9.450
 6164POPC   PO438052   8.168   2.721   9.150
 6164POPC   GL138053   8.206   2.770   8.850
 6164POPC   GL238054   8.285   2.837   8.850
 6164POPC   C1A38055   8.182   2.789   8.550
 6164POPC   D2A38056   8.175   2.729   8.250
 6164POPC   C3A38057   8.210   2.757   7.950
 6164POPC   C4A38058   8.204   2.763   7.650
 6164POPC   C1B38059   8.328   3.027   8.550
 6164POPC   C2B38060   8.277   3.015   8.250
 6164POPC   C3B38061   8.309   2.986   7.950
 6164POPC   C4B38062   8.323   2.959   7.650
 6165POPC   NC338063  15.213  12.899   9.450
 6165POPC   PO438064  15.204  12.839   9.150
 6165POPC   GL138065  15.206  12.874   8.850
 6165POPC   GL238066  15.089  12.890   8.850
 6165POPC   C1A38067  15.135  12.884   8.550
 6165POPC   D2A38068  15.200  12.820   8.250
 6165POPC   C3A38069  15.224  12.867   7.950
 6165POPC   C4A38070  15.211  12.847   7.650
 6165POPC   C1B38071  14.930  12.946   8.550
 6165POPC   C2B38072  14.962  12.995   8.250
 6165POPC   C3B38073  14.992  12.906   7.950
 6165POPC   C4B38074  14.907  12.991   7.650
 6166POPC   NC338075  22.184  29.113   9.450
 6166POPC   PO438076  22.199  29.141   9.150
 6166POPC   GL138077  22.172  29.125   8.850
 6166POPC   GL238078  22.080  29.256   8.850
 6166POPC   C1A38079  22.184  29.184   8.550
 6166POPC   D2A38080  22.141  29.120   8.250
 6166POPC   C3A38081  22.118  29.172   7.950
 6166POPC   C4A38082  22.142  29.190   7.650
 6166POPC   C1B38083  22.123  29.413   8.550
 6166POPC   C2B38084  22.029  29.343   8.250
 6166POPC   C3B38085  22.050  29.428   7.950
 6166POPC   C4B38086  22.114  29.375   7.650
 6167POPC   NC338087   0.472   9.016   9.450
 6167POPC   PO438088   0.428   8.943   9.150
 6167POPC   GL138089   0.423   9.008   8.850
 6167POPC   GL238090   0.461   8.835   8.850
 6167POPC   C1A38091   0.469   9.013   8.550
 6167POPC   D2A38092   0.427   8.940   8.250
 6167POPC   C3A38093   0.461   8.964   7.950
 6167POPC   C4A38094   0.425   9.002   7.650
 6167POPC   C1B38095   0.465   8.689   8.550
 6167POPC   C2B38096   0.471   8.701   8.250
 6167POPC   C3B38097   0.508   8.689   7.950
 6167POPC   C4B38098   0.455   8.764   7.650
 6168POPC   NC338099   5.141  15.147   9.450
 6168POPC   PO438100   5.109  15.142   9.150
 6168POPC   GL138101   5.138  15.213   8.850
 6168POPC   GL238102   5.140  15.134   8.850
 6168POPC   C1A38103   5.088  15.224   8.550
 6168POPC   D2A38104   5.058  15.161   8.250
 6168POPC   C3A38105   5.134  15.153   7.950
 6168POPC   C4A38106   5.142  15.183   7.650
 6168POPC   C1B38107   5.243  15.011   8.550
 6168POPC   C2B38108   5.239  15.009   8.250
 6168POPC   C3B38109   5.295  14.995   7.950
 6168POPC   C4B38110   5.271  14.977   7.650
 6169POPC   NC338111  10.506  40.048   9.450
 6169POPC   PO438112  10.498  40.051   9.150
 6169POPC   GL138113  10.524  39.974   8.850
 6169POPC   GL238114  10.482  39.892   8.850
 6169POPC   C1A38115  10.569  39.983   8.550
 6169POPC   D2A38116  10.549  39.980   8.250
 6169POPC   C3A38117  10.485  40.040   7.950
 6169POPC   C4A38118  10.543  40.005   7.650
 6169POPC   C1B38119  10.430  39.734   8.550
 6169POPC   C2B38120  10.403  39.773   8.250
 6169POPC   C3B38121  10.488  39.767   7.950
 6169POPC   C4B38122  10.432  39.720   7.650
 6170POPC   NC338123  24.492  43.110   9.450
 6170POPC   PO438124  24.473  43.075   9.150
 6170POPC   GL138125  24.468  43.140   8.850
 6170POPC   GL238126  24.577  43.190   8.850
 6170POPC   C1A38127  24.517  43.147   8.550
 6170POPC   D2A38128  24.514  43.138   8.250
 6170POPC   C3A38129  24.475  43.117   7.950
 6170POPC   C4A38130  24.468  43.116   7.650
 6170POPC   C1B38131  24.668  43.259   8.550
 6170POPC   C2B38132  24.678  43.254   8.250
 6170POPC   C3B38133  24.678  43.320   7.950
 6170POPC   C4B38134  24.691  43.255   7.650
 6171POPC   NC338135  27.544  31.460   9.450
 6171POPC   PO438136  27.586  31.517   9.150
 6171POPC   GL138137  27.615  31.454   8.850
 6171POPC   GL238138  27.684  31.568   8.850
 6171POPC   C1A38139  27.578  31.457   8.550
 6171POPC   D2A38140  27.581  31.475   8.250
 6171POPC   C3A38141  27.575  31.511   7.950
 6171POPC   C4A38142  27.617  31.522   7.650
 6171POPC   C1B38143  27.801  31.596   8.550
 6171POPC   C2B38144  27.777  31.614   8.250
 6171POPC   C3B38145  27.820  31.591   7.950
 6171POPC   C4B38146  27.776  31.585   7.650
 6172POPC   NC338147  17.540   8.992   9.450
 6172POPC   PO438148  17.472   8.937   9.150
 6172POPC   GL138149  17.491   8.973   8.850
 6172POPC   GL238150  17.607   9.051   8.850
 6172POPC   C1A38151  17.539   9.003   8.550
 6172POPC   D2A38152  17.539   8.951   8.250
 6172POPC   C3A38153  17.509   8.965   7.950
 6172POPC   C4A38154  17.461   8.991   7.650
 6172POPC   C1B38155  17.691   9.167   8.550
 6172POPC   C2B38156  17.716   9.137   8.250
 6172POPC   C3B38157  17.743   9.124   7.950
 6172POPC   C4B38158  17.707   9.139   7.650
 6173POPC   NC338159  19.086   4.298   9.450
 6173POPC   PO438160  19.094   4.335   9.150
 6173POPC   GL138161  19.045   4.321   8.850
 6173POPC   GL238162  18.992   4.417   8.850
 6173POPC   C1A38163  19.107   4.295   8.550
 6173POPC   D2A38164  19.052   4.318   8.250
 6173POPC   C3A38165  19.030   4.363   7.950
 6173POPC   C4A38166  19.104   4.277   7.650
 6173POPC   C1B38167  18.953   4.558   8.550
 6173POPC   C2B38168  18.983   4.549   8.250
 6173POPC   C3B38169  18.991   4.549   7.950
 6173POPC   C4B38170  18.983   4.559   7.650
 6174POPC   NC338171   1.948   8.244   9.450
 6174POPC   PO438172   1.974   8.219   9.150
 6174POPC   GL138173   2.018   8.220   8.850
 6174POPC   GL238174   2.031   8.320   8.850
 6174POPC   C1A38175   2.015   8.181   8.550
 6174POPC   D2A38176   1.987   8.155   8.250
 6174POPC   C3A38177   2.004   8.222   7.950
 6174POPC   C4A38178   1.955   8.219   7.650
 6174POPC   C1B38179   2.102   8.342   8.550
 6174POPC   C2B38180   2.156   8.405   8.250
 6174POPC   C3B38181   2.106   8.389   7.950
 6174POPC   C4B38182   2.141   8.362   7.650
 6175POPC   NC338183   0.483  33.050   9.450
 6175POPC   PO438184   0.443  32.999   9.150
 6175POPC   GL138185   0.445  32.995   8.850
 6175POPC   GL238186   0.475  32.860   8.850
 6175POPC   C1A38187   0.403  33.007   8.550
 6175POPC   D2A38188   0.448  33.071   8.250
 6175POPC   C3A38189   0.433  33.006   7.950
 6175POPC   C4A38190   0.467  32.991   7.650
 6175POPC   C1B38191   0.494  32.803   8.550
 6175POPC   C2B38192   0.408  32.823   8.250
 6175POPC   C3B38193   0.411  32.799   7.950
 6175POPC   C4B38194   0.445  32.753   7.650
 6176POPC   NC338195  27.575  24.532   9.450
 6176POPC   PO438196  27.630  24.531   9.150
 6176POPC   GL138197  27.571  24.484   8.850
 6176POPC   GL238198  27.658  24.460   8.850
 6176POPC   C1A38199  27.613  24.492   8.550
 6176POPC   D2A38200  27.626  24.481   8.250
 6176POPC   C3A38201  27.545  24.485   7.950
 6176POPC   C4A38202  27.631  24.490   7.650
 6176POPC   C1B38203  27.825  24.398   8.550
 6176POPC   C2B38204  27.831  24.332   8.250
 6176POPC   C3B38205  27.820  24.386   7.950
 6176POPC   C4B38206  27.783  24.353   7.650
 6177POPC   NC338207  28.361  12.063   9.450
 6177POPC   PO438208  28.348  12.123   9.150
 6177POPC   GL138209  28.376  12.032   8.850
 6177POPC   GL238210  28.281  11.961   8.850
 6177POPC   C1A38211  28.339  12.102   8.550
 6177POPC   D2A38212  28.351  12.102   8.250
 6177POPC   C3A38213  28.344  12.125   7.950
 6177POPC   C4A38214  28.383  12.097   7.650
 6177POPC   C1B38215  28.198  11.917   8.550
 6177POPC   C2B38216  28.183  11.885   8.250
 6177POPC   C3B38217  28.231  11.882   7.950
 6177POPC   C4B38218  28.244  11.905   7.650
 6178POPC   NC338219  22.946  10.513   9.450
 6178POPC   PO438220  22.952  10.539   9.150
 6178POPC   GL138221  22.982  10.557   8.850
 6178POPC   GL238222  22.902  10.415   8.850
 6178POPC   C1A38223  22.900  10.549   8.550
 6178POPC   D2A38224  22.892  10.532   8.250
 6178POPC   C3A38225  22.903  10.521   7.950
 6178POPC   C4A38226  22.932  10.492   7.650
 6178POPC   C1B38227  22.938  10.298   8.550
 6178POPC   C2B38228  22.942  10.229   8.250
 6178POPC   C3B38229  22.928  10.285   7.950
 6178POPC   C4B38230  22.924  10.319   7.650
 6179POPC   NC338231  23.699  12.809   9.450
 6179POPC   PO438232  23.745  12.885   9.150
 6179POPC   GL138233  23.757  12.834   8.850
 6179POPC   GL238234  23.653  12.964   8.850
 6179POPC   C1A38235  23.763  12.813   8.550
 6179POPC   D2A38236  23.695  12.882   8.250
 6179POPC   C3A38237  23.713  12.804   7.950
 6179POPC   C4A38238  23.739  12.826   7.650
 6179POPC   C1B38239  23.693  13.065   8.550
 6179POPC   C2B38240  23.712  13.146   8.250
 6179POPC   C3B38241  23.729  13.131   7.950
 6179POPC   C4B38242  23.711  13.089   7.650
 6180POPC   NC338243  37.704  36.941   9.450
 6180POPC   PO438244  37.630  36.874   9.150
 6180POPC   GL138245  37.702  36.875   8.850
 6180POPC   GL238246  37.648  36.809   8.850
 6180POPC   C1A38247  37.699  36.937   8.550
 6180POPC   D2A38248  37.673  36.916   8.250
 6180POPC   C3A38249  37.688  36.921   7.950
 6180POPC   C4A38250  37.671  36.872   7.650
 6180POPC   C1B38251  37.580  36.612   8.550
 6180POPC   C2B38252  37.615  36.684   8.250
 6180POPC   C3B38253  37.615  36.631   7.950
 6180POPC   C4B38254  37.653  36.611   7.650
 6181POPC   NC338255  32.230   8.180   9.450
 6181POPC   PO438256  32.293   8.197   9.150
 6181POPC   GL138257  32.279   8.234   8.850
 6181POPC   GL238258  32.176   8.094   8.850
 6181POPC   C1A38259  32.211   8.203   8.550
 6181POPC   D2A38260  32.259   8.186   8.250
 6181POPC   C3A38261  32.289   8.174   7.950
 6181POPC   C4A38262  32.269   8.237   7.650
 6181POPC   C1B38263  32.081   8.044   8.550
 6181POPC   C2B38264  32.034   8.077   8.250
 6181POPC   C3B38265  32.028   8.067   7.950
 6181POPC   C4B38266  32.015   7.989   7.650
 6182POPC   NC338267  36.100  26.017   9.450
 6182POPC   PO438268  36.140  26.039   9.150
 6182POPC   GL138269  36.152  26.005   8.850
 6182POPC   GL238270  35.986  25.964   8.850
 6182POPC   C1A38271  36.161  25.997   8.550
 6182POPC   D2A38272  36.176  26.062   8.250
 6182POPC   C3A38273  36.167  26.050   7.950
 6182POPC   C4A38274  36.168  26.006   7.650
 6182POPC   C1B38275  35.944  25.918   8.550
 6182POPC   C2B38276  35.921  25.872   8.250
 6182POPC   C3B38277  35.896  25.913   7.950
 6182POPC   C4B38278  35.946  25.915   7.650
 6183POPC   NC338279   7.375  36.103   9.450
 6183POPC   PO438280   7.469  36.172   9.150
 6183POPC   GL138281   7.468  36.102   8.850
 6183POPC   GL238282   7.471  36.228   8.850
 6183POPC   C1A38283   7.421  36.151   8.550
 6183POPC   D2A38284   7.441  36.129   8.250
 6183POPC   C3A38285   7.465  36.137   7.950
 6183POPC   C4A38286   7.385  36.082   7.650
 6183POPC   C1B38287   7.507  36.389   8.550
 6183POPC   C2B38288   7.468  36.401   8.250
 6183POPC   C3B38289   7.483  36.366   7.950
 6183POPC   C4B38290   7.434  36.400   7.650
 6184POPC   NC338291  39.262  19.090   9.450
 6184POPC   PO438292  39.215  19.042   9.150
 6184POPC   GL138293  39.194  19.106   8.850
 6184POPC   GL238294  39.208  18.904   8.850
 6184POPC   C1A38295  39.278  19.067   8.550
 6184POPC   D2A38296  39.270  19.022   8.250
 6184POPC   C3A38297  39.276  19.058   7.950
 6184POPC   C4A38298  39.185  19.088   7.650
 6184POPC   C1B38299  39.296  18.782   8.550
 6184POPC   C2B38300  39.241  18.802   8.250
 6184POPC   C3B38301  39.293  18.816   7.950
 6184POPC   C4B38302  39.289  18.790   7.650
 6185POPC   NC338303  21.387   8.954   9.450
 6185POPC   PO438304  21.378   9.011   9.150
 6185POPC   GL138305  21.413   8.969   8.850
 6185POPC   GL238306  21.393   9.128   8.850
 6185POPC   C1A38307  21.414   8.996   8.550
 6185POPC   D2A38308  21.370   9.020   8.250
 6185POPC   C3A38309  21.365   8.966   7.950
 6185POPC   C4A38310  21.419   8.957   7.650
 6185POPC   C1B38311  21.459   9.241   8.550
 6185POPC   C2B38312  21.509   9.209   8.250
 6185POPC   C3B38313  21.415   9.249   7.950
 6185POPC   C4B38314  21.439   9.227   7.650
 6186POPC   NC338315   1.197  42.309   9.450
 6186POPC   PO438316   1.233  42.300   9.150
 6186POPC   GL138317   1.224  42.322   8.850
 6186POPC   GL238318   1.356  42.329   8.850
 6186POPC   C1A38319   1.166  42.297   8.550
 6186POPC   D2A38320   1.208  42.353   8.250
 6186POPC   C3A38321   1.252  42.338   7.950
 6186POPC   C4A38322   1.205  42.306   7.650
 6186POPC   C1B38323   1.461  42.383   8.550
 6186POPC   C2B38324   1.432  42.324   8.250
 6186POPC   C3B38325   1.448  42.370   7.950
 6186POPC   C4B38326   1.423  42.392   7.650
 6187POPC   NC338327   8.978  19.851   9.450
 6187POPC   PO438328   8.931  19.864   9.150
 6187POPC   GL138329   8.997  19.815   8.850
 6187POPC   GL238330   9.139  19.861   8.850
 6187POPC   C1A38331   8.948  19.799   8.550
 6187POPC   D2A38332   9.014  19.789   8.250
 6187POPC   C3A38333   8.940  19.823   7.950
 6187POPC   C4A38334   8.971  19.853   7.650
 6187POPC   C1B38335   9.187  19.924   8.550
 6187POPC   C2B38336   9.220  19.854   8.250
 6187POPC   C3B38337   9.263  19.923   7.950
 6187POPC   C4B38338   9.240  19.861   7.650
 6188POPC   NC338339  43.156  19.855   9.450
 6188POPC   PO438340  43.130  19.801   9.150
 6188POPC   GL138341  43.157  19.826   8.850
 6188POPC   GL238342  43.229  19.793   8.850
 6188POPC   C1A38343  43.081  19.880   8.550
 6188POPC   D2A38344  43.142  19.814   8.250
 6188POPC   C3A38345  43.136  19.842   7.950
 6188POPC   C4A38346  43.097  19.799   7.650
 6188POPC   C1B38347  43.339  19.694   8.550
 6188POPC   C2B38348  43.266  19.699   8.250
 6188POPC   C3B38349  43.336  19.659   7.950
 6188POPC   C4B38350  43.265  19.667   7.650
 6189POPC   NC338351  26.792  29.922   9.450
 6189POPC   PO438352  26.781  29.943   9.150
 6189POPC   GL138353  26.784  29.893   8.850
 6189POPC   GL238354  26.873  29.812   8.850
 6189POPC   C1A38355  26.792  29.883   8.550
 6189POPC   D2A38356  26.803  29.898   8.250
 6189POPC   C3A38357  26.796  29.939   7.950
 6189POPC   C4A38358  26.847  29.928   7.650
 6189POPC   C1B38359  26.904  29.696   8.550
 6189POPC   C2B38360  26.825  29.660   8.250
 6189POPC   C3B38361  26.823  29.627   7.950
 6189POPC   C4B38362  26.853  29.673   7.650
 6190POPC   NC338363   1.222  36.923   9.450
 6190POPC   PO438364   1.180  36.893   9.150
 6190POPC   GL138365   1.199  36.886   8.850
 6190POPC   GL238366   1.132  36.738   8.850
 6190POPC   C1A38367   1.183  36.950   8.550
 6190POPC   D2A38368   1.189  36.901   8.250
 6190POPC   C3A38369   1.218  36.938   7.950
 6190POPC   C4A38370   1.249  36.886   7.650
 6190POPC   C1B38371   1.079  36.670   8.550
 6190POPC   C2B38372   1.121  36.647   8.250
 6190POPC   C3B38373   1.091  36.676   7.950
 6190POPC   C4B38374   1.150  36.619   7.650
 6191POPC   NC338375  35.359  26.811   9.450
 6191POPC   PO438376  35.388  26.768   9.150
 6191POPC   GL138377  35.379  26.767   8.850
 6191POPC   GL238378  35.452  26.743   8.850
 6191POPC   C1A38379  35.391  26.813   8.550
 6191POPC   D2A38380  35.392  26.795   8.250
 6191POPC   C3A38381  35.333  26.865   7.950
 6191POPC   C4A38382  35.385  26.824   7.650
 6191POPC   C1B38383  35.562  26.687   8.550
 6191POPC   C2B38384  35.522  26.678   8.250
 6191POPC   C3B38385  35.557  26.706   7.950
 6191POPC   C4B38386  35.572  26.651   7.650
 6192POPC   NC338387   6.639   9.780   9.450
 6192POPC   PO438388   6.657   9.770   9.150
 6192POPC   GL138389   6.630   9.777   8.850
 6192POPC   GL238390   6.777   9.686   8.850
 6192POPC   C1A38391   6.663   9.737   8.550
 6192POPC   D2A38392   6.620   9.786   8.250
 6192POPC   C3A38393   6.613   9.761   7.950
 6192POPC   C4A38394   6.615   9.766   7.650
 6192POPC   C1B38395   6.930   9.640   8.550
 6192POPC   C2B38396   6.920   9.726   8.250
 6192POPC   C3B38397   6.936   9.699   7.950
 6192POPC   C4B38398   6.891   9.675   7.650
 6193POPC   NC338399  26.043  44.684   9.450
 6193POPC   PO438400  26.034  44.697   9.150
 6193POPC   GL138401  25.995  44.690   8.850
 6193POPC   GL238402  25.965  44.618   8.850
 6193POPC   C1A38403  26.022  44.645   8.550
 6193POPC   D2A38404  25.999  44.637   8.250
 6193POPC   C3A38405  26.057  44.647   7.950
 6193POPC   C4A38406  26.078  44.676   7.650
 6193POPC   C1B38407  25.833  44.543   8.550
 6193POPC   C2B38408  25.842  44.603   8.250
 6193POPC   C3B38409  25.775  44.583   7.950
 6193POPC   C4B38410  25.842  44.599   7.650
 6194POPC   NC338411   8.166  43.069   9.450
 6194POPC   PO438412   8.183  43.064   9.150
 6194POPC   GL138413   8.242  43.124   8.850
 6194POPC   GL238414   8.334  43.180   8.850
 6194POPC   C1A38415   8.175  43.081   8.550
 6194POPC   D2A38416   8.173  43.117   8.250
 6194POPC   C3A38417   8.160  43.116   7.950
 6194POPC   C4A38418   8.244  43.145   7.650
 6194POPC   C1B38419   8.377  43.244   8.550
 6194POPC   C2B38420   8.413  43.235   8.250
 6194POPC   C3B38421   8.426  43.271   7.950
 6194POPC   C4B38422   8.348  43.305   7.650
 6195POPC   NC338423  43.847  42.341   9.450
 6195POPC   PO438424  43.910  42.362   9.150
 6195POPC   GL138425  43.893  42.383   8.850
 6195POPC   GL238426  43.866  42.253   8.850
 6195POPC   C1A38427  43.839  42.328   8.550
 6195POPC   D2A38428  43.929  42.300   8.250
 6195POPC   C3A38429  43.915  42.359   7.950
 6195POPC   C4A38430  43.890  42.327   7.650
 6195POPC   C1B38431  43.875  42.042   8.550
 6195POPC   C2B38432  43.898  42.048   8.250
 6195POPC   C3B38433  43.889  42.080   7.950
 6195POPC   C4B38434  43.914  42.120   7.650
 6196POPC   NC338435  22.159  35.350   9.450
 6196POPC   PO438436  22.141  35.345   9.150
 6196POPC   GL138437  22.122  35.321   8.850
 6196POPC   GL238438  22.000  35.406   8.850
 6196POPC   C1A38439  22.114  35.314   8.550
 6196POPC   D2A38440  22.210  35.314   8.250
 6196POPC   C3A38441  22.142  35.401   7.950
 6196POPC   C4A38442  22.207  35.382   7.650
 6196POPC   C1B38443  21.936  35.356   8.550
 6196POPC   C2B38444  21.923  35.364   8.250
 6196POPC   C3B38445  21.908  35.371   7.950
 6196POPC   C4B38446  21.921  35.384   7.650
 6197POPC   NC338447  12.857  10.482   9.450
 6197POPC   PO438448  12.821  10.484   9.150
 6197POPC   GL138449  12.834  10.507   8.850
 6197POPC   GL238450  12.988  10.472   8.850
 6197POPC   C1A38451  12.892  10.543   8.550
 6197POPC   D2A38452  12.853  10.537   8.250
 6197POPC   C3A38453  12.819  10.528   7.950
 6197POPC   C4A38454  12.900  10.534   7.650
 6197POPC   C1B38455  13.005  10.342   8.550
 6197POPC   C2B38456  13.073  10.350   8.250
 6197POPC   C3B38457  13.007  10.368   7.950
 6197POPC   C4B38458  13.054  10.378   7.650
 6198POPC   NC338459  35.364  31.507   9.450
 6198POPC   PO438460  35.393  31.430   9.150
 6198POPC   GL138461  35.392  31.511   8.850
 6198POPC   GL238462  35.260  31.400   8.850
 6198POPC   C1A38463  35.359  31.503   8.550
 6198POPC   D2A38464  35.400  31.452   8.250
 6198POPC   C3A38465  35.381  31.474   7.950
 6198POPC   C4A38466  35.354  31.485   7.650
 6198POPC   C1B38467  35.251  31.284   8.550
 6198POPC   C2B38468  35.287  31.256   8.250
 6198POPC   C3B38469  35.220  31.272   7.950
 6198POPC   C4B38470  35.249  31.238   7.650
 6199POPC   NC338471   1.254  10.525   9.450
 6199POPC   PO438472   1.257  10.537   9.150
 6199POPC   GL138473   1.222  10.489   8.850
 6199POPC   GL238474   1.244  10.419   8.850
 6199POPC   C1A38475   1.230  10.559   8.550
 6199POPC   D2A38476   1.200  10.569   8.250
 6199POPC   C3A38477   1.247  10.491   7.950
 6199POPC   C4A38478   1.220  10.570   7.650
 6199POPC   C1B38479   1.284  10.282   8.550
 6199POPC   C2B38480   1.260  10.323   8.250
 6199POPC   C3B38481   1.189  10.299   7.950
 6199POPC   C4B38482   1.275  10.257   7.650
 6200POPC   NC338483  14.425  14.441   9.450
 6200POPC   PO438484  14.367  14.417   9.150
 6200POPC   GL138485  14.422  14.361   8.850
 6200POPC   GL238486  14.342  14.324   8.850
 6200POPC   C1A38487  14.391  14.431   8.550
 6200POPC   D2A38488  14.364  14.399   8.250
 6200POPC   C3A38489  14.374  14.449   7.950
 6200POPC   C4A38490  14.363  14.420   7.650
 6200POPC   C1B38491  14.358  14.201   8.550
 6200POPC   C2B38492  14.327  14.196   8.250
 6200POPC   C3B38493  14.319  14.178   7.950
 6200POPC   C4B38494  14.350  14.176   7.650
 6201POPC   NC338495  41.572   4.273   9.450
 6201POPC   PO438496  41.583   4.342   9.150
 6201POPC   GL138497  41.515   4.310   8.850
 6201POPC   GL238498  41.691   4.372   8.850
 6201POPC   C1A38499  41.601   4.274   8.550
 6201POPC   D2A38500  41.521   4.350   8.250
 6201POPC   C3A38501  41.524   4.317   7.950
 6201POPC   C4A38502  41.509   4.300   7.650
 6201POPC   C1B38503  41.806   4.363   8.550
 6201POPC   C2B38504  41.777   4.363   8.250
 6201POPC   C3B38505  41.771   4.293   7.950
 6201POPC   C4B38506  41.823   4.352   7.650
 6202POPC   NC338507  38.462  32.248   9.450
 6202POPC   PO438508  38.455  32.245   9.150
 6202POPC   GL138509  38.446  32.285   8.850
 6202POPC   GL238510  38.448  32.160   8.850
 6202POPC   C1A38511  38.414  32.215   8.550
 6202POPC   D2A38512  38.459  32.284   8.250
 6202POPC   C3A38513  38.469  32.217   7.950
 6202POPC   C4A38514  38.434  32.255   7.650
 6202POPC   C1B38515  38.388  32.023   8.550
 6202POPC   C2B38516  38.367  32.068   8.250
 6202POPC   C3B38517  38.373  32.008   7.950
 6202POPC   C4B38518  38.378  32.017   7.650
 6203POPC   NC338519  18.272   8.217   9.450
 6203POPC   PO438520  18.308   8.184   9.150
 6203POPC   GL138521  18.254   8.208   8.850
 6203POPC   GL238522  18.176   8.175   8.850
 6203POPC   C1A38523  18.297   8.158   8.550
 6203POPC   D2A38524  18.303   8.169   8.250
 6203POPC   C3A38525  18.328   8.179   7.950
 6203POPC   C4A38526  18.264   8.221   7.650
 6203POPC   C1B38527  18.077   8.048   8.550
 6203POPC   C2B38528  18.090   8.105   8.250
 6203POPC   C3B38529  18.110   8.027   7.950
 6203POPC   C4B38530  18.026   8.095   7.650
 6204POPC   NC338531  13.608  26.085   9.450
 6204POPC   PO438532  13.636  26.069   9.150
 6204POPC   GL138533  13.613  26.044   8.850
 6204POPC   GL238534  13.710  26.163   8.850
 6204POPC   C1A38535  13.591  26.015   8.550
 6204POPC   D2A38536  13.654  25.995   8.250
 6204POPC   C3A38537  13.614  26.047   7.950
 6204POPC   C4A38538  13.669  26.019   7.650
 6204POPC   C1B38539  13.810  26.234   8.550
 6204POPC   C2B38540  13.783  26.193   8.250
 6204POPC   C3B38541  13.808  26.256   7.950
 6204POPC   C4B38542  13.781  26.184   7.650
 6205POPC   NC338543  11.281  39.272   9.450
 6205POPC   PO438544  11.285  39.233   9.150
 6205POPC   GL138545  11.274  39.186   8.850
 6205POPC   GL238546  11.158  39.257   8.850
 6205POPC   C1A38547  11.298  39.236   8.550
 6205POPC   D2A38548  11.281  39.226   8.250
 6205POPC   C3A38549  11.261  39.255   7.950
 6205POPC   C4A38550  11.340  39.279   7.650
 6205POPC   C1B38551  11.078  39.297   8.550
 6205POPC   C2B38552  11.032  39.273   8.250
 6205POPC   C3B38553  11.070  39.300   7.950
 6205POPC   C4B38554  11.042  39.293   7.650
 6206POPC   NC338555  12.068  44.704   9.450
 6206POPC   PO438556  12.111  44.666   9.150
 6206POPC   GL138557  12.040  44.621   8.850
 6206POPC   GL238558  12.140  44.796   8.850
 6206POPC   C1A38559  12.051  44.639   8.550
 6206POPC   D2A38560  12.050  44.675   8.250
 6206POPC   C3A38561  12.049  44.670   7.950
 6206POPC   C4A38562  12.032  44.613   7.650
 6206POPC   C1B38563  12.180  44.896   8.550
 6206POPC   C2B38564  12.191  44.935   8.250
 6206POPC   C3B38565  12.160  44.898   7.950
 6206POPC   C4B38566  12.168  44.885   7.650
 6207POPC   NC338567  32.267  24.494   9.450
 6207POPC   PO438568  32.295  24.481   9.150
 6207POPC   GL138569  32.241  24.458   8.850
 6207POPC   GL238570  32.158  24.506   8.850
 6207POPC   C1A38571  32.269  24.440   8.550
 6207POPC   D2A38572  32.279  24.539   8.250
 6207POPC   C3A38573  32.274  24.445   7.950
 6207POPC   C4A38574  32.264  24.481   7.650
 6207POPC   C1B38575  32.020  24.500   8.550
 6207POPC   C2B38576  31.995  24.549   8.250
 6207POPC   C3B38577  31.981  24.545   7.950
 6207POPC   C4B38578  31.998  24.572   7.650
 6208POPC   NC338579  24.537  16.689   9.450
 6208POPC   PO438580  24.490  16.760   9.150
 6208POPC   GL138581  24.449  16.732   8.850
 6208POPC   GL238582  24.369  16.775   8.850
 6208POPC   C1A38583  24.505  16.735   8.550
 6208POPC   D2A38584  24.498  16.760   8.250
 6208POPC   C3A38585  24.447  16.760   7.950
 6208POPC   C4A38586  24.534  16.775   7.650
 6208POPC   C1B38587  24.257  16.760   8.550
 6208POPC   C2B38588  24.288  16.731   8.250
 6208POPC   C3B38589  24.253  16.736   7.950
 6208POPC   C4B38590  24.220  16.736   7.650
 6209POPC   NC338591   6.602  40.809   9.450
 6209POPC   PO438592   6.647  40.739   9.150
 6209POPC   GL138593   6.654  40.790   8.850
 6209POPC   GL238594   6.716  40.710   8.850
 6209POPC   C1A38595   6.610  40.789   8.550
 6209POPC   D2A38596   6.626  40.800   8.250
 6209POPC   C3A38597   6.628  40.736   7.950
 6209POPC   C4A38598   6.680  40.736   7.650
 6209POPC   C1B38599   6.817  40.557   8.550
 6209POPC   C2B38600   6.817  40.620   8.250
 6209POPC   C3B38601   6.788  40.629   7.950
 6209POPC   C4B38602   6.846  40.594   7.650
 6210POPC   NC338603   5.878  26.037   9.450
 6210POPC   PO438604   5.839  26.057   9.150
 6210POPC   GL138605   5.882  26.060   8.850
 6210POPC   GL238606   5.839  25.903   8.850
 6210POPC   C1A38607   5.910  26.038   8.550
 6210POPC   D2A38608   5.887  26.016   8.250
 6210POPC   C3A38609   5.835  26.010   7.950
 6210POPC   C4A38610   5.865  26.056   7.650
 6210POPC   C1B38611   5.744  25.835   8.550
 6210POPC   C2B38612   5.791  25.823   8.250
 6210POPC   C3B38613   5.789  25.785   7.950
 6210POPC   C4B38614   5.703  25.858   7.650
 6211POPC   NC338615  35.312  20.567   9.450
 6211POPC   PO438616  35.334  20.613   9.150
 6211POPC   GL138617  35.327  20.587   8.850
 6211POPC   GL238618  35.468  20.590   8.850
 6211POPC   C1A38619  35.338  20.648   8.550
 6211POPC   D2A38620  35.339  20.594   8.250
 6211POPC   C3A38621  35.326  20.574   7.950
 6211POPC   C4A38622  35.359  20.575   7.650
 6211POPC   C1B38623  35.609  20.477   8.550
 6211POPC   C2B38624  35.609  20.512   8.250
 6211POPC   C3B38625  35.618  20.478   7.950
 6211POPC   C4B38626  35.543  20.520   7.650
 6212POPC   NC338627  30.725  31.435   9.450
 6212POPC   PO438628  30.687  31.484   9.150
 6212POPC   GL138629  30.676  31.475   8.850
 6212POPC   GL238630  30.771  31.572   8.850
 6212POPC   C1A38631  30.735  31.485   8.550
 6212POPC   D2A38632  30.685  31.512   8.250
 6212POPC   C3A38633  30.671  31.474   7.950
 6212POPC   C4A38634  30.733  31.504   7.650
 6212POPC   C1B38635  30.878  31.549   8.550
 6212POPC   C2B38636  30.952  31.562   8.250
 6212POPC   C3B38637  30.927  31.569   7.950
 6212POPC   C4B38638  30.899  31.553   7.650
 6213POPC   NC338639  21.409  37.684   9.450
 6213POPC   PO438640  21.355  37.636   9.150
 6213POPC   GL138641  21.392  37.680   8.850
 6213POPC   GL238642  21.317  37.633   8.850
 6213POPC   C1A38643  21.422  37.712   8.550
 6213POPC   D2A38644  21.363  37.697   8.250
 6213POPC   C3A38645  21.413  37.701   7.950
 6213POPC   C4A38646  21.418  37.680   7.650
 6213POPC   C1B38647  21.192  37.555   8.550
 6213POPC   C2B38648  21.114  37.562   8.250
 6213POPC   C3B38649  21.121  37.566   7.950
 6213POPC   C4B38650  21.132  37.533   7.650
 6214POPC   NC338651  28.325   4.287   9.450
 6214POPC   PO438652  28.377   4.319   9.150
 6214POPC   GL138653  28.377   4.281   8.850
 6214POPC   GL238654  28.432   4.442   8.850
 6214POPC   C1A38655  28.411   4.292   8.550
 6214POPC   D2A38656  28.378   4.349   8.250
 6214POPC   C3A38657  28.379   4.321   7.950
 6214POPC   C4A38658  28.409   4.336   7.650
 6214POPC   C1B38659  28.540   4.522   8.550
 6214POPC   C2B38660  28.582   4.494   8.250
 6214POPC   C3B38661  28.571   4.460   7.950
 6214POPC   C4B38662  28.546   4.433   7.650
 6215POPC   NC338663  26.813  28.342   9.450
 6215POPC   PO438664  26.788  28.378   9.150
 6215POPC   GL138665  26.849  28.347   8.850
 6215POPC   GL238666  26.816  28.517   8.850
 6215POPC   C1A38667  26.782  28.347   8.550
 6215POPC   D2A38668  26.824  28.368   8.250
 6215POPC   C3A38669  26.858  28.389   7.950
 6215POPC   C4A38670  26.837  28.372   7.650
 6215POPC   C1B38671  26.817  28.661   8.550
 6215POPC   C2B38672  26.768  28.652   8.250
 6215POPC   C3B38673  26.760  28.636   7.950
 6215POPC   C4B38674  26.829  28.615   7.650
 6216POPC   NC338675  30.654  33.065   9.450
 6216POPC   PO438676  30.714  32.977   9.150
 6216POPC   GL138677  30.725  32.984   8.850
 6216POPC   GL238678  30.778  32.925   8.850
 6216POPC   C1A38679  30.712  33.039   8.550
 6216POPC   D2A38680  30.671  33.059   8.250
 6216POPC   C3A38681  30.738  32.996   7.950
 6216POPC   C4A38682  30.708  33.056   7.650
 6216POPC   C1B38683  30.832  32.792   8.550
 6216POPC   C2B38684  30.793  32.827   8.250
 6216POPC   C3B38685  30.822  32.832   7.950
 6216POPC   C4B38686  30.812  32.771   7.650
 6217POPC   NC338687  35.368  25.263   9.450
 6217POPC   PO438688  35.351  25.248   9.150
 6217POPC   GL138689  35.397  25.235   8.850
 6217POPC   GL238690  35.288  25.184   8.850
 6217POPC   C1A38691  35.314  25.289   8.550
 6217POPC   D2A38692  35.379  25.309   8.250
 6217POPC   C3A38693  35.350  25.288   7.950
 6217POPC   C4A38694  35.402  25.306   7.650
 6217POPC   C1B38695  35.114  25.185   8.550
 6217POPC   C2B38696  35.118  25.182   8.250
 6217POPC   C3B38697  35.116  25.117   7.950
 6217POPC   C4B38698  35.162  25.161   7.650
 6218POPC   NC338699  20.601   8.151   9.450
 6218POPC   PO438700  20.577   8.223   9.150
 6218POPC   GL138701  20.603   8.152   8.850
 6218POPC   GL238702  20.595   8.356   8.850
 6218POPC   C1A38703  20.634   8.207   8.550
 6218POPC   D2A38704  20.615   8.189   8.250
 6218POPC   C3A38705  20.619   8.196   7.950
 6218POPC   C4A38706  20.585   8.180   7.650
 6218POPC   C1B38707  20.538   8.446   8.550
 6218POPC   C2B38708  20.473   8.382   8.250
 6218POPC   C3B38709  20.534   8.373   7.950
 6218POPC   C4B38710  20.506   8.422   7.650
 6219POPC   NC338711  24.445   5.857   9.450
 6219POPC   PO438712  24.539   5.887   9.150
 6219POPC   GL138713  24.510   5.907   8.850
 6219POPC   GL238714  24.649   5.788   8.850
 6219POPC   C1A38715  24.533   5.831   8.550
 6219POPC   D2A38716  24.507   5.823   8.250
 6219POPC   C3A38717  24.487   5.882   7.950
 6219POPC   C4A38718  24.532   5.918   7.650
 6219POPC   C1B38719  24.759   5.779   8.550
 6219POPC   C2B38720  24.730   5.801   8.250
 6219POPC   C3B38721  24.697   5.817   7.950
 6219POPC   C4B38722  24.743   5.783   7.650
 6220POPC   NC338723  28.416  38.465   9.450
 6220POPC   PO438724  28.393  38.409   9.150
 6220POPC   GL138725  28.416  38.415   8.850
 6220POPC   GL238726  28.268  38.369   8.850
 6220POPC   C1A38727  28.371  38.489   8.550
 6220POPC   D2A38728  28.325  38.409   8.250
 6220POPC   C3A38729  28.342  38.474   7.950
 6220POPC   C4A38730  28.371  38.411   7.650
 6220POPC   C1B38731  28.191  38.322   8.550
 6220POPC   C2B38732  28.203  38.347   8.250
 6220POPC   C3B38733  28.152  38.297   7.950
 6220POPC   C4B38734  28.187  38.285   7.650
 6221POPC   NC338735  23.707  25.289   9.450
 6221POPC   PO438736  23.667  25.281   9.150
 6221POPC   GL138737  23.682  25.295   8.850
 6221POPC   GL238738  23.788  25.350   8.850
 6221POPC   C1A38739  23.721  25.218   8.550
 6221POPC   D2A38740  23.676  25.280   8.250
 6221POPC   C3A38741  23.745  25.234   7.950
 6221POPC   C4A38742  23.698  25.227   7.650
 6221POPC   C1B38743  23.866  25.515   8.550
 6221POPC   C2B38744  23.885  25.459   8.250
 6221POPC   C3B38745  23.838  25.441   7.950
 6221POPC   C4B38746  23.831  25.516   7.650
 6222POPC   NC338747   5.062  33.058   9.450
 6222POPC   PO438748   5.114  32.980   9.150
 6222POPC   GL138749   5.063  33.042   8.850
 6222POPC   GL238750   5.207  32.964   8.850
 6222POPC   C1A38751   5.131  33.029   8.550
 6222POPC   D2A38752   5.083  33.012   8.250
 6222POPC   C3A38753   5.106  32.993   7.950
 6222POPC   C4A38754   5.102  33.041   7.650
 6222POPC   C1B38755   5.307  32.895   8.550
 6222POPC   C2B38756   5.254  32.863   8.250
 6222POPC   C3B38757   5.253  32.864   7.950
 6222POPC   C4B38758   5.260  32.817   7.650
 6223POPC   NC338759   1.992  18.298   9.450
 6223POPC   PO438760   1.964  18.236   9.150
 6223POPC   GL138761   2.006  18.288   8.850
 6223POPC   GL238762   2.158  18.289   8.850
 6223POPC   C1A38763   1.984  18.288   8.550
 6223POPC   D2A38764   1.953  18.308   8.250
 6223POPC   C3A38765   1.962  18.279   7.950
 6223POPC   C4A38766   1.987  18.332   7.650
 6223POPC   C1B38767   2.218  18.322   8.550
 6223POPC   C2B38768   2.237  18.374   8.250
 6223POPC   C3B38769   2.271  18.385   7.950
 6223POPC   C4B38770   2.244  18.350   7.650
 6224POPC   NC338771   5.820   8.239   9.450
 6224POPC   PO438772   5.885   8.238   9.150
 6224POPC   GL138773   5.865   8.174   8.850
 6224POPC   GL238774   5.945   8.218   8.850
 6224POPC   C1A38775   5.859   8.207   8.550
 6224POPC   D2A38776   5.847   8.167   8.250
 6224POPC   C3A38777   5.892   8.244   7.950
 6224POPC   C4A38778   5.912   8.188   7.650
 6224POPC   C1B38779   6.081   8.277   8.550
 6224POPC   C2B38780   6.132   8.217   8.250
 6224POPC   C3B38781   6.073   8.243   7.950
 6224POPC   C4B38782   6.141   8.189   7.650
 6225POPC   NC338783   4.351  16.741   9.450
 6225POPC   PO438784   4.343  16.684   9.150
 6225POPC   GL138785   4.337  16.714   8.850
 6225POPC   GL238786   4.272  16.627   8.850
 6225POPC   C1A38787   4.355  16.714   8.550
 6225POPC   D2A38788   4.347  16.702   8.250
 6225POPC   C3A38789   4.348  16.722   7.950
 6225POPC   C4A38790   4.314  16.747   7.650
 6225POPC   C1B38791   4.277  16.444   8.550
 6225POPC   C2B38792   4.219  16.458   8.250
 6225POPC   C3B38793   4.232  16.496   7.950
 6225POPC   C4B38794   4.286  16.446   7.650
 6226POPC   NC338795  29.181  37.705   9.450
 6226POPC   PO438796  29.118  37.682   9.150
 6226POPC   GL138797  29.184  37.672   8.850
 6226POPC   GL238798  29.252  37.643   8.850
 6226POPC   C1A38799  29.108  37.706   8.550
 6226POPC   D2A38800  29.100  37.670   8.250
 6226POPC   C3A38801  29.158  37.671   7.950
 6226POPC   C4A38802  29.108  37.645   7.650
 6226POPC   C1B38803  29.441  37.679   8.550
 6226POPC   C2B38804  29.372  37.683   8.250
 6226POPC   C3B38805  29.368  37.631   7.950
 6226POPC   C4B38806  29.374  37.587   7.650
 6227POPC   NC338807   4.288  40.780   9.450
 6227POPC   PO438808   4.358  40.781   9.150
 6227POPC   GL138809   4.362  40.753   8.850
 6227POPC   GL238810   4.358  40.929   8.850
 6227POPC   C1A38811   4.358  40.806   8.550
 6227POPC   D2A38812   4.351  40.766   8.250
 6227POPC   C3A38813   4.327  40.750   7.950
 6227POPC   C4A38814   4.290  40.760   7.650
 6227POPC   C1B38815   4.508  40.974   8.550
 6227POPC   C2B38816   4.508  41.002   8.250
 6227POPC   C3B38817   4.483  41.025   7.950
 6227POPC   C4B38818   4.470  41.013   7.650
 6228POPC   NC338819  15.192  36.080   9.450
 6228POPC   PO438820  15.215  36.177   9.150
 6228POPC   GL138821  15.165  36.170   8.850
 6228POPC   GL238822  15.274  36.030   8.850
 6228POPC   C1A38823  15.161  36.149   8.550
 6228POPC   D2A38824  15.180  36.112   8.250
 6228POPC   C3A38825  15.198  36.100   7.950
 6228POPC   C4A38826  15.186  36.174   7.650
 6228POPC   C1B38827  15.307  35.975   8.550
 6228POPC   C2B38828  15.367  35.905   8.250
 6228POPC   C3B38829  15.373  35.943   7.950
 6228POPC   C4B38830  15.301  35.937   7.650
 6229POPC   NC338831   8.178  44.632   9.450
 6229POPC   PO438832   8.156  44.626   9.150
 6229POPC   GL138833   8.185  44.615   8.850
 6229POPC   GL238834   8.347  44.685   8.850
 6229POPC   C1A38835   8.226  44.637   8.550
 6229POPC   D2A38836   8.241  44.709   8.250
 6229POPC   C3A38837   8.224  44.697   7.950
 6229POPC   C4A38838   8.159  44.709   7.650
 6229POPC   C1B38839   8.452  44.800   8.550
 6229POPC   C2B38840   8.384  44.771   8.250
 6229POPC   C3B38841   8.440  44.777   7.950
 6229POPC   C4B38842   8.409  44.761   7.650
 6230POPC   NC338843  43.076  11.302   9.450
 6230POPC   PO438844  43.110  11.300   9.150
 6230POPC   GL138845  43.078  11.269   8.850
 6230POPC   GL238846  43.120  11.439   8.850
 6230POPC   C1A38847  43.069  11.265   8.550
 6230POPC   D2A38848  43.077  11.276   8.250
 6230POPC   C3A38849  43.132  11.334   7.950
 6230POPC   C4A38850  43.133  11.344   7.650
 6230POPC   C1B38851  43.175  11.563   8.550
 6230POPC   C2B38852  43.145  11.587   8.250
 6230POPC   C3B38853  43.176  11.518   7.950
 6230POPC   C4B38854  43.177  11.596   7.650
 6231POPC   NC338855  32.999  41.572   9.450
 6231POPC   PO438856  33.053  41.544   9.150
 6231POPC   GL138857  32.998  41.525   8.850
 6231POPC   GL238858  32.956  41.645   8.850
 6231POPC   C1A38859  33.050  41.524   8.550
 6231POPC   D2A38860  33.056  41.538   8.250
 6231POPC   C3A38861  33.000  41.537   7.950
 6231POPC   C4A38862  33.024  41.599   7.650
 6231POPC   C1B38863  32.857  41.732   8.550
 6231POPC   C2B38864  32.804  41.786   8.250
 6231POPC   C3B38865  32.850  41.785   7.950
 6231POPC   C4B38866  32.820  41.693   7.650
 6232POPC   NC338867  11.346  36.854   9.450
 6232POPC   PO438868  11.251  36.927   9.150
 6232POPC   GL138869  11.330  36.882   8.850
 6232POPC   GL238870  11.338  36.757   8.850
 6232POPC   C1A38871  11.252  36.873   8.550
 6232POPC   D2A38872  11.300  36.888   8.250
 6232POPC   C3A38873  11.335  36.942   7.950
 6232POPC   C4A38874  11.340  36.950   7.650
 6232POPC   C1B38875  11.350  36.675   8.550
 6232POPC   C2B38876  11.338  36.652   8.250
 6232POPC   C3B38877  11.363  36.680   7.950
 6232POPC   C4B38878  11.328  36.696   7.650
 6233POPC   NC338879  43.141   8.975   9.450
 6233POPC   PO438880  43.104   8.979   9.150
 6233POPC   GL138881  43.067   8.944   8.850
 6233POPC   GL238882  43.226   8.851   8.850
 6233POPC   C1A38883  43.151   9.014   8.550
 6233POPC   D2A38884  43.099   8.984   8.250
 6233POPC   C3A38885  43.157   8.953   7.950
 6233POPC   C4A38886  43.071   8.948   7.650
 6233POPC   C1B38887  43.277   8.770   8.550
 6233POPC   C2B38888  43.299   8.747   8.250
 6233POPC   C3B38889  43.249   8.797   7.950
 6233POPC   C4B38890  43.254   8.756   7.650
 6234POPC   NC338891  20.568  23.702   9.450
 6234POPC   PO438892  20.570  23.702   9.150
 6234POPC   GL138893  20.650  23.675   8.850
 6234POPC   GL238894  20.625  23.851   8.850
 6234POPC   C1A38895  20.563  23.736   8.550
 6234POPC   D2A38896  20.577  23.721   8.250
 6234POPC   C3A38897  20.612  23.739   7.950
 6234POPC   C4A38898  20.628  23.736   7.650
 6234POPC   C1B38899  20.700  23.941   8.550
 6234POPC   C2B38900  20.624  23.992   8.250
 6234POPC   C3B38901  20.710  23.951   7.950
 6234POPC   C4B38902  20.699  23.979   7.650
 6235POPC   NC338903  40.752   8.974   9.450
 6235POPC   PO438904  40.822   8.937   9.150
 6235POPC   GL138905  40.810   8.974   8.850
 6235POPC   GL238906  40.818   8.854   8.850
 6235POPC   C1A38907  40.783   8.937   8.550
 6235POPC   D2A38908  40.739   9.002   8.250
 6235POPC   C3A38909  40.821   8.996   7.950
 6235POPC   C4A38910  40.765   8.956   7.650
 6235POPC   C1B38911  40.888   8.694   8.550
 6235POPC   C2B38912  40.893   8.765   8.250
 6235POPC   C3B38913  40.880   8.736   7.950
 6235POPC   C4B38914  40.839   8.714   7.650
 6236POPC   NC338915   2.736  26.087   9.450
 6236POPC   PO438916   2.718  26.078   9.150
 6236POPC   GL138917   2.739  26.015   8.850
 6236POPC   GL238918   2.762  25.882   8.850
 6236POPC   C1A38919   2.802  26.018   8.550
 6236POPC   D2A38920   2.774  26.001   8.250
 6236POPC   C3A38921   2.747  26.051   7.950
 6236POPC   C4A38922   2.815  25.999   7.650
 6236POPC   C1B38923   2.695  25.766   8.550
 6236POPC   C2B38924   2.754  25.758   8.250
 6236POPC   C3B38925   2.775  25.824   7.950
 6236POPC   C4B38926   2.697  25.745   7.650
 6237POPC   NC338927   6.692  43.840   9.450
 6237POPC   PO438928   6.694  43.845   9.150
 6237POPC   GL138929   6.627  43.908   8.850
 6237POPC   GL238930   6.651  43.982   8.850
 6237POPC   C1A38931   6.628  43.876   8.550
 6237POPC   D2A38932   6.618  43.902   8.250
 6237POPC   C3A38933   6.602  43.885   7.950
 6237POPC   C4A38934   6.653  43.917   7.650
 6237POPC   C1B38935   6.750  44.080   8.550
 6237POPC   C2B38936   6.779  44.142   8.250
 6237POPC   C3B38937   6.713  44.115   7.950
 6237POPC   C4B38938   6.727  44.093   7.650
 6238POPC   NC338939  24.502  31.480   9.450
 6238POPC   PO438940  24.534  31.515   9.150
 6238POPC   GL138941  24.525  31.502   8.850
 6238POPC   GL238942  24.645  31.413   8.850
 6238POPC   C1A38943  24.454  31.451   8.550
 6238POPC   D2A38944  24.455  31.430   8.250
 6238POPC   C3A38945  24.516  31.428   7.950
 6238POPC   C4A38946  24.482  31.510   7.650
 6238POPC   C1B38947  24.719  31.407   8.550
 6238POPC   C2B38948  24.684  31.438   8.250
 6238POPC   C3B38949  24.770  31.420   7.950
 6238POPC   C4B38950  24.720  31.366   7.650
 6239POPC   NC338951  40.034  22.940   9.450
 6239POPC   PO438952  39.977  22.951   9.150
 6239POPC   GL138953  40.048  22.944   8.850
 6239POPC   GL238954  40.112  23.082   8.850
 6239POPC   C1A38955  40.011  22.904   8.550
 6239POPC   D2A38956  40.044  22.985   8.250
 6239POPC   C3A38957  39.987  22.926   7.950
 6239POPC   C4A38958  39.960  22.909   7.650
 6239POPC   C1B38959  40.090  23.166   8.550
 6239POPC   C2B38960  40.161  23.139   8.250
 6239POPC   C3B38961  40.151  23.188   7.950
 6239POPC   C4B38962  40.176  23.159   7.650
 6240POPC   NC338963  12.030   0.441   9.450
 6240POPC   PO438964  12.031   0.476   9.150
 6240POPC   GL138965  12.125   0.420   8.850
 6240POPC   GL238966  12.007   0.486   8.850
 6240POPC   C1A38967  12.064   0.421   8.550
 6240POPC   D2A38968  12.117   0.444   8.250
 6240POPC   C3A38969  12.036   0.441   7.950
 6240POPC   C4A38970  12.078   0.395   7.650
 6240POPC   C1B38971  11.820   0.539   8.550
 6240POPC   C2B38972  11.892   0.543   8.250
 6240POPC   C3B38973  11.816   0.530   7.950
 6240POPC   C4B38974  11.821   0.583   7.650
 6241POPC   NC338975   7.456  10.567   9.450
 6241POPC   PO438976   7.440  10.572   9.150
 6241POPC   GL138977   7.442  10.563   8.850
 6241POPC   GL238978   7.349  10.648   8.850
 6241POPC   C1A38979   7.395  10.569   8.550
 6241POPC   D2A38980   7.398  10.549   8.250
 6241POPC   C3A38981   7.398  10.562   7.950
 6241POPC   C4A38982   7.460  10.556   7.650
 6241POPC   C1B38983   7.393  10.770   8.550
 6241POPC   C2B38984   7.345  10.780   8.250
 6241POPC   C3B38985   7.365  10.751   7.950
 6241POPC   C4B38986   7.351  10.773   7.650
 6242POPC   NC338987  16.712   2.802   9.450
 6242POPC   PO438988  16.740   2.782   9.150
 6242POPC   GL138989  16.729   2.766   8.850
 6242POPC   GL238990  16.670   2.662   8.850
 6242POPC   C1A38991  16.758   2.778   8.550
 6242POPC   D2A38992  16.705   2.794   8.250
 6242POPC   C3A38993  16.735   2.787   7.950
 6242POPC   C4A38994  16.767   2.805   7.650
 6242POPC   C1B38995  16.566   2.570   8.550
 6242POPC   C2B38996  16.584   2.565   8.250
 6242POPC   C3B38997  16.575   2.541   7.950
 6242POPC   C4B38998  16.627   2.583   7.650
 6243POPC   NC338999  37.727   7.460   9.450
 6243POPC   PO439000  37.638   7.466   9.150
 6243POPC   GL139001  37.684   7.397   8.850
 6243POPC   GL239002  37.719   7.371   8.850
 6243POPC   C1A39003  37.723   7.396   8.550
 6243POPC   D2A39004  37.716   7.383   8.250
 6243POPC   C3A39005  37.709   7.400   7.950
 6243POPC   C4A39006  37.721   7.459   7.650
 6243POPC   C1B39007  37.815   7.212   8.550
 6243POPC   C2B39008  37.851   7.258   8.250
 6243POPC   C3B39009  37.844   7.251   7.950
 6243POPC   C4B39010  37.847   7.260   7.650
 6244POPC   NC339011  21.347  35.363   9.450
 6244POPC   PO439012  21.392  35.342   9.150
 6244POPC   GL139013  21.423  35.347   8.850
 6244POPC   GL239014  21.255  35.293   8.850
 6244POPC   C1A39015  21.406  35.319   8.550
 6244POPC   D2A39016  21.381  35.367   8.250
 6244POPC   C3A39017  21.398  35.327   7.950
 6244POPC   C4A39018  21.403  35.375   7.650
 6244POPC   C1B39019  21.191  35.245   8.550
 6244POPC   C2B39020  21.204  35.210   8.250
 6244POPC   C3B39021  21.162  35.249   7.950
 6244POPC   C4B39022  21.214  35.179   7.650
 6245POPC   NC339023  12.849  34.558   9.450
 6245POPC   PO439024  12.846  34.569   9.150
 6245POPC   GL139025  12.887  34.567   8.850
 6245POPC   GL239026  12.744  34.535   8.850
 6245POPC   C1A39027  12.818  34.587   8.550
 6245POPC   D2A39028  12.846  34.560   8.250
 6245POPC   C3A39029  12.853  34.621   7.950
 6245POPC   C4A39030  12.889  34.542   7.650
 6245POPC   C1B39031  12.691  34.369   8.550
 6245POPC   C2B39032  12.693  34.431   8.250
 6245POPC   C3B39033  12.646  34.346   7.950
 6245POPC   C4B39034  12.715  34.377   7.650
 6246POPC   NC339035  10.566  15.987   9.450
 6246POPC   PO439036  10.567  15.918   9.150
 6246POPC   GL139037  10.484  15.968   8.850
 6246POPC   GL239038  10.545  16.075   8.850
 6246POPC   C1A39039  10.528  15.912   8.550
 6246POPC   D2A39040  10.506  15.985   8.250
 6246POPC   C3A39041  10.523  15.906   7.950
 6246POPC   C4A39042  10.568  15.999   7.650
 6246POPC   C1B39043  10.597  16.204   8.550
 6246POPC   C2B39044  10.622  16.196   8.250
 6246POPC   C3B39045  10.656  16.167   7.950
 6246POPC   C4B39046  10.679  16.183   7.650
 6247POPC   NC339047  43.106  28.321   9.450
 6247POPC   PO439048  43.083  28.325   9.150
 6247POPC   GL139049  43.131  28.346   8.850
 6247POPC   GL239050  43.092  28.273   8.850
 6247POPC   C1A39051  43.134  28.403   8.550
 6247POPC   D2A39052  43.110  28.347   8.250
 6247POPC   C3A39053  43.098  28.406   7.950
 6247POPC   C4A39054  43.074  28.319   7.650
 6247POPC   C1B39055  42.941  28.128   8.550
 6247POPC   C2B39056  42.936  28.192   8.250
 6247POPC   C3B39057  42.949  28.138   7.950
 6247POPC   C4B39058  42.938  28.137   7.650
 6248POPC   NC339059  33.063  15.215   9.450
 6248POPC   PO439060  33.003  15.228   9.150
 6248POPC   GL139061  33.042  15.198   8.850
 6248POPC   GL239062  32.971  15.073   8.850
 6248POPC   C1A39063  33.068  15.134   8.550
 6248POPC   D2A39064  33.074  15.159   8.250
 6248POPC   C3A39065  33.016  15.185   7.950
 6248POPC   C4A39066  33.065  15.140   7.650
 6248POPC   C1B39067  32.910  14.934   8.550
 6248POPC   C2B39068  32.939  14.965   8.250
 6248POPC   C3B39069  32.873  14.985   7.950
 6248POPC   C4B39070  32.935  14.960   7.650
 6249POPC   NC339071  33.828  24.458   9.450
 6249POPC   PO439072  33.813  24.460   9.150
 6249POPC   GL139073  33.830  24.484   8.850
 6249POPC   GL239074  33.683  24.515   8.850
 6249POPC   C1A39075  33.840  24.457   8.550
 6249POPC   D2A39076  33.798  24.442   8.250
 6249POPC   C3A39077  33.766  24.469   7.950
 6249POPC   C4A39078  33.779  24.455   7.650
 6249POPC   C1B39079  33.549  24.470   8.550
 6249POPC   C2B39080  33.514  24.408   8.250
 6249POPC   C3B39081  33.600  24.470   7.950
 6249POPC   C4B39082  33.507  24.490   7.650
 6250POPC   NC339083  17.472  11.328   9.450
 6250POPC   PO439084  17.459  11.256   9.150
 6250POPC   GL139085  17.495  11.295   8.850
 6250POPC   GL239086  17.392  11.244   8.850
 6250POPC   C1A39087  17.530  11.326   8.550
 6250POPC   D2A39088  17.467  11.329   8.250
 6250POPC   C3A39089  17.465  11.268   7.950
 6250POPC   C4A39090  17.463  11.349   7.650
 6250POPC   C1B39091  17.297  11.078   8.550
 6250POPC   C2B39092  17.335  11.156   8.250
 6250POPC   C3B39093  17.361  11.071   7.950
 6250POPC   C4B39094  17.321  11.133   7.650
 6251POPC   NC339095   7.415  11.310   9.450
 6251POPC   PO439096   7.392  11.263   9.150
 6251POPC   GL139097   7.430  11.303   8.850
 6251POPC   GL239098   7.421  11.144   8.850
 6251POPC   C1A39099   7.435  11.269   8.550
 6251POPC   D2A39100   7.446  11.287   8.250
 6251POPC   C3A39101   7.375  11.304   7.950
 6251POPC   C4A39102   7.409  11.313   7.650
 6251POPC   C1B39103   7.422  11.055   8.550
 6251POPC   C2B39104   7.450  11.063   8.250
 6251POPC   C3B39105   7.436  11.052   7.950
 6251POPC   C4B39106   7.459  11.011   7.650
 6252POPC   NC339107   1.206   5.062   9.450
 6252POPC   PO439108   1.254   5.084   9.150
 6252POPC   GL139109   1.225   5.136   8.850
 6252POPC   GL239110   1.093   4.965   8.850
 6252POPC   C1A39111   1.195   5.097   8.550
 6252POPC   D2A39112   1.232   5.083   8.250
 6252POPC   C3A39113   1.200   5.114   7.950
 6252POPC   C4A39114   1.206   5.061   7.650
 6252POPC   C1B39115   1.071   4.928   8.550
 6252POPC   C2B39116   0.988   4.971   8.250
 6252POPC   C3B39117   1.032   4.936   7.950
 6252POPC   C4B39118   1.039   4.955   7.650
 6253POPC   NC339119   5.901  24.513   9.450
 6253POPC   PO439120   5.874  24.488   9.150
 6253POPC   GL139121   5.852  24.525   8.850
 6253POPC   GL239122   5.951  24.572   8.850
 6253POPC   C1A39123   5.876  24.447   8.550
 6253POPC   D2A39124   5.842  24.511   8.250
 6253POPC   C3A39125   5.880  24.487   7.950
 6253POPC   C4A39126   5.917  24.486   7.650
 6253POPC   C1B39127   5.992  24.726   8.550
 6253POPC   C2B39128   6.061  24.672   8.250
 6253POPC   C3B39129   6.051  24.700   7.950
 6253POPC   C4B39130   6.030  24.706   7.650
 6254POPC   NC339131   8.194  20.626   9.450
 6254POPC   PO439132   8.220  20.628   9.150
 6254POPC   GL139133   8.173  20.599   8.850
 6254POPC   GL239134   8.125  20.535   8.850
 6254POPC   C1A39135   8.187  20.598   8.550
 6254POPC   D2A39136   8.175  20.649   8.250
 6254POPC   C3A39137   8.229  20.656   7.950
 6254POPC   C4A39138   8.227  20.657   7.650
 6254POPC   C1B39139   8.009  20.507   8.550
 6254POPC   C2B39140   7.940  20.522   8.250
 6254POPC   C3B39141   8.001  20.544   7.950
 6254POPC   C4B39142   7.967  20.495   7.650
 6255POPC   NC339143  26.058  33.806   9.450
 6255POPC   PO439144  26.037  33.754   9.150
 6255POPC   GL139145  26.012  33.808   8.850
 6255POPC   GL239146  26.037  33.908   8.850
 6255POPC   C1A39147  26.035  33.758   8.550
 6255POPC   D2A39148  26.090  33.804   8.250
 6255POPC   C3A39149  26.004  33.755   7.950
 6255POPC   C4A39150  26.079  33.778   7.650
 6255POPC   C1B39151  26.013  34.028   8.550
 6255POPC   C2B39152  26.023  34.049   8.250
 6255POPC   C3B39153  25.959  34.002   7.950
 6255POPC   C4B39154  25.980  34.052   7.650
 6256POPC   NC339155  13.588  36.169   9.450
 6256POPC   PO439156  13.662  36.087   9.150
 6256POPC   GL139157  13.580  36.079   8.850
 6256POPC   GL239158  13.573  36.215   8.850
 6256POPC   C1A39159  13.611  36.147   8.550
 6256POPC   D2A39160  13.597  36.140   8.250
 6256POPC   C3A39161  13.597  36.139   7.950
 6256POPC   C4A39162  13.609  36.146   7.650
 6256POPC   C1B39163  13.491  36.332   8.550
 6256POPC   C2B39164  13.444  36.331   8.250
 6256POPC   C3B39165  13.449  36.359   7.950
 6256POPC   C4B39166  13.454  36.374   7.650
 6257POPC   NC339167  37.675   0.469   9.450
 6257POPC   PO439168  37.670   0.442   9.150
 6257POPC   GL139169  37.718   0.464   8.850
 6257POPC   GL239170  37.798   0.498   8.850
 6257POPC   C1A39171  37.686   0.415   8.550
 6257POPC   D2A39172  37.705   0.450   8.250
 6257POPC   C3A39173  37.661   0.403   7.950
 6257POPC   C4A39174  37.709   0.421   7.650
 6257POPC   C1B39175  37.911   0.481   8.550
 6257POPC   C2B39176  37.890   0.564   8.250
 6257POPC   C3B39177  37.928   0.524   7.950
 6257POPC   C4B39178  37.904   0.507   7.650
 6258POPC   NC339179   9.762   0.430   9.450
 6258POPC   PO439180   9.762   0.422   9.150
 6258POPC   GL139181   9.788   0.485   8.850
 6258POPC   GL239182   9.673   0.281   8.850
 6258POPC   C1A39183   9.724   0.433   8.550
 6258POPC   D2A39184   9.789   0.388   8.250
 6258POPC   C3A39185   9.728   0.457   7.950
 6258POPC   C4A39186   9.720   0.486   7.650
 6258POPC   C1B39187   9.688   0.163   8.550
 6258POPC   C2B39188   9.664   0.175   8.250
 6258POPC   C3B39189   9.713   0.158   7.950
 6258POPC   C4B39190   9.639   0.222   7.650
 6259POPC   NC339191  29.123  12.838   9.450
 6259POPC   PO439192  29.113  12.877   9.150
 6259POPC   GL139193  29.112  12.862   8.850
 6259POPC   GL239194  29.190  12.720   8.850
 6259POPC   C1A39195  29.112  12.840   8.550
 6259POPC   D2A39196  29.110  12.832   8.250
 6259POPC   C3A39197  29.147  12.833   7.950
 6259POPC   C4A39198  29.192  12.809   7.650
 6259POPC   C1B39199  29.150  12.571   8.550
 6259POPC   C2B39200  29.132  12.603   8.250
 6259POPC   C3B39201  29.114  12.635   7.950
 6259POPC   C4B39202  29.143  12.641   7.650
 6260POPC   NC339203  19.092  36.941   9.450
 6260POPC   PO439204  19.087  36.914   9.150
 6260POPC   GL139205  19.034  36.937   8.850
 6260POPC   GL239206  19.087  36.790   8.850
 6260POPC   C1A39207  19.097  36.862   8.550
 6260POPC   D2A39208  19.036  36.896   8.250
 6260POPC   C3A39209  19.021  36.924   7.950
 6260POPC   C4A39210  19.058  36.915   7.650
 6260POPC   C1B39211  19.192  36.694   8.550
 6260POPC   C2B39212  19.191  36.733   8.250
 6260POPC   C3B39213  19.167  36.687   7.950
 6260POPC   C4B39214  19.153  36.659   7.650
 6261POPC   NC339215  40.019  33.763   9.450
 6261POPC   PO439216  39.995  33.841   9.150
 6261POPC   GL139217  40.025  33.820   8.850
 6261POPC   GL239218  39.964  33.879   8.850
 6261POPC   C1A39219  40.014  33.786   8.550
 6261POPC   D2A39220  39.963  33.820   8.250
 6261POPC   C3A39221  39.974  33.782   7.950
 6261POPC   C4A39222  40.020  33.762   7.650
 6261POPC   C1B39223  39.847  34.011   8.550
 6261POPC   C2B39224  39.862  34.030   8.250
 6261POPC   C3B39225  39.873  34.050   7.950
 6261POPC   C4B39226  39.834  33.985   7.650
 6262POPC   NC339227  35.337  27.567   9.450
 6262POPC   PO439228  35.396  27.612   9.150
 6262POPC   GL139229  35.397  27.592   8.850
 6262POPC   GL239230  35.522  27.597   8.850
 6262POPC   C1A39231  35.325  27.642   8.550
 6262POPC   D2A39232  35.360  27.594   8.250
 6262POPC   C3A39233  35.328  27.586   7.950
 6262POPC   C4A39234  35.402  27.596   7.650
 6262POPC   C1B39235  35.620  27.601   8.550
 6262POPC   C2B39236  35.560  27.599   8.250
 6262POPC   C3B39237  35.625  27.581   7.950
 6262POPC   C4B39238  35.598  27.603   7.650
 6263POPC   NC339239  26.793  20.615   9.450
 6263POPC   PO439240  26.821  20.602   9.150
 6263POPC   GL139241  26.845  20.631   8.850
 6263POPC   GL239242  26.779  20.747   8.850
 6263POPC   C1A39243  26.835  20.593   8.550
 6263POPC   D2A39244  26.806  20.565   8.250
 6263POPC   C3A39245  26.827  20.582   7.950
 6263POPC   C4A39246  26.776  20.584   7.650
 6263POPC   C1B39247  26.753  20.801   8.550
 6263POPC   C2B39248  26.779  20.817   8.250
 6263POPC   C3B39249  26.763  20.871   7.950
 6263POPC   C4B39250  26.736  20.834   7.650
 6264POPC   NC339251  26.768   8.239   9.450
 6264POPC   PO439252  26.794   8.240   9.150
 6264POPC   GL139253  26.794   8.195   8.850
 6264POPC   GL239254  26.802   8.027   8.850
 6264POPC   C1A39255  26.859   8.228   8.550
 6264POPC   D2A39256  26.812   8.193   8.250
 6264POPC   C3A39257  26.791   8.230   7.950
 6264POPC   C4A39258  26.797   8.174   7.650
 6264POPC   C1B39259  26.786   7.973   8.550
 6264POPC   C2B39260  26.713   7.941   8.250
 6264POPC   C3B39261  26.773   7.997   7.950
 6264POPC   C4B39262  26.754   7.910   7.650
 6265POPC   NC339263  12.884  11.287   9.450
 6265POPC   PO439264  12.814  11.345   9.150
 6265POPC   GL139265  12.861  11.312   8.850
 6265POPC   GL239266  12.807  11.220   8.850
 6265POPC   C1A39267  12.868  11.325   8.550
 6265POPC   D2A39268  12.842  11.264   8.250
 6265POPC   C3A39269  12.886  11.257   7.950
 6265POPC   C4A39270  12.856  11.312   7.650
 6265POPC   C1B39271  12.790  11.057   8.550
 6265POPC   C2B39272  12.737  11.054   8.250
 6265POPC   C3B39273  12.791  11.096   7.950
 6265POPC   C4B39274  12.726  11.042   7.650
 6266POPC   NC339275  27.606  10.572   9.450
 6266POPC   PO439276  27.556  10.525   9.150
 6266POPC   GL139277  27.557  10.513   8.850
 6266POPC   GL239278  27.441  10.483   8.850
 6266POPC   C1A39279  27.544  10.485   8.550
 6266POPC   D2A39280  27.623  10.475   8.250
 6266POPC   C3A39281  27.570  10.553   7.950
 6266POPC   C4A39282  27.621  10.495   7.650
 6266POPC   C1B39283  27.354  10.460   8.550
 6266POPC   C2B39284  27.380  10.465   8.250
 6266POPC   C3B39285  27.327  10.389   7.950
 6266POPC   C4B39286  27.393  10.383   7.650
 6267POPC   NC339287  30.704  18.303   9.450
 6267POPC   PO439288  30.704  18.317   9.150
 6267POPC   GL139289  30.682  18.263   8.850
 6267POPC   GL239290  30.602  18.424   8.850
 6267POPC   C1A39291  30.731  18.277   8.550
 6267POPC   D2A39292  30.684  18.266   8.250
 6267POPC   C3A39293  30.674  18.286   7.950
 6267POPC   C4A39294  30.688  18.292   7.650
 6267POPC   C1B39295  30.554  18.516   8.550
 6267POPC   C2B39296  30.542  18.535   8.250
 6267POPC   C3B39297  30.563  18.495   7.950
 6267POPC   C4B39298  30.541  18.478   7.650
 6268POPC   NC339299  29.903  24.475   9.450
 6268POPC   PO439300  29.889  24.515   9.150
 6268POPC   GL139301  29.938  24.494   8.850
 6268POPC   GL239302  30.031  24.451   8.850
 6268POPC   C1A39303  29.934  24.487   8.550
 6268POPC   D2A39304  29.894  24.475   8.250
 6268POPC   C3A39305  29.931  24.492   7.950
 6268POPC   C4A39306  29.971  24.491   7.650
 6268POPC   C1B39307  30.166  24.497   8.550
 6268POPC   C2B39308  30.203  24.533   8.250
 6268POPC   C3B39309  30.140  24.489   7.950
 6268POPC   C4B39310  30.170  24.523   7.650
 6269POPC   NC339311  38.470  44.668   9.450
 6269POPC   PO439312  38.491  44.708   9.150
 6269POPC   GL139313  38.478  44.615   8.850
 6269POPC   GL239314  38.565  44.804   8.850
 6269POPC   C1A39315  38.465  44.648   8.550
 6269POPC   D2A39316  38.465  44.621   8.250
 6269POPC   C3A39317  38.417  44.708   7.950
 6269POPC   C4A39318  38.413  44.685   7.650
 6269POPC   C1B39319  38.600  44.849   8.550
 6269POPC   C2B39320  38.586  44.890   8.250
 6269POPC   C3B39321  38.621  44.892   7.950
 6269POPC   C4B39322  38.643  44.855   7.650
 6270POPC   NC339323   9.768   1.254   9.450
 6270POPC   PO439324   9.736   1.214   9.150
 6270POPC   GL139325   9.763   1.218   8.850
 6270POPC   GL239326   9.669   1.138   8.850
 6270POPC   C1A39327   9.716   1.226   8.550
 6270POPC   D2A39328   9.788   1.182   8.250
 6270POPC   C3A39329   9.757   1.196   7.950
 6270POPC   C4A39330   9.733   1.220   7.650
 6270POPC   C1B39331   9.523   1.097   8.550
 6270POPC   C2B39332   9.579   1.033   8.250
 6270POPC   C3B39333   9.497   1.071   7.950
 6270POPC   C4B39334   9.515   1.094   7.650
 6271POPC   NC339335  29.162   5.876   9.450
 6271POPC   PO439336  29.192   5.919   9.150
 6271POPC   GL139337  29.145   5.902   8.850
 6271POPC   GL239338  29.199   5.943   8.850
 6271POPC   C1A39339  29.156   5.864   8.550
 6271POPC   D2A39340  29.122   5.842   8.250
 6271POPC   C3A39341  29.183   5.838   7.950
 6271POPC   C4A39342  29.138   5.827   7.650
 6271POPC   C1B39343  29.305   6.019   8.550
 6271POPC   C2B39344  29.362   6.016   8.250
 6271POPC   C3B39345  29.354   6.084   7.950
 6271POPC   C4B39346  29.358   6.005   7.650
 6272POPC   NC339347  15.963   9.741   9.450
 6272POPC   PO439348  15.997   9.779   9.150
 6272POPC   GL139349  15.942   9.735   8.850
 6272POPC   GL239350  15.875   9.899   8.850
 6272POPC   C1A39351  15.948   9.735   8.550
 6272POPC   D2A39352  15.964   9.782   8.250
 6272POPC   C3A39353  15.997   9.777   7.950
 6272POPC   C4A39354  15.952   9.751   7.650
 6272POPC   C1B39355  15.866   9.993   8.550
 6272POPC   C2B39356  15.869   9.958   8.250
 6272POPC   C3B39357  15.797  10.017   7.950
 6272POPC   C4B39358  15.849   9.962   7.650
 6273POPC   NC339359  22.135  27.551   9.450
 6273POPC   PO439360  22.113  27.590   9.150
 6273POPC   GL139361  22.170  27.595   8.850
 6273POPC   GL239362  22.103  27.677   8.850
 6273POPC   C1A39363  22.176  27.619   8.550
 6273POPC   D2A39364  22.186  27.575   8.250
 6273POPC   C3A39365  22.124  27.553   7.950
 6273POPC   C4A39366  22.206  27.604   7.650
 6273POPC   C1B39367  22.061  27.812   8.550
 6273POPC   C2B39368  22.097  27.811   8.250
 6273POPC   C3B39369  22.109  27.861   7.950
 6273POPC   C4B39370  22.055  27.835   7.650
 6274POPC   NC339371  19.821  22.977   9.450
 6274POPC   PO439372  19.840  22.921   9.150
 6274POPC   GL139373  19.786  22.929   8.850
 6274POPC   GL239374  19.714  22.885   8.850
 6274POPC   C1A39375  19.844  22.926   8.550
 6274POPC   D2A39376  19.797  22.890   8.250
 6274POPC   C3A39377  19.832  22.940   7.950
 6274POPC   C4A39378  19.790  22.888   7.650
 6274POPC   C1B39379  19.619  22.912   8.550
 6274POPC   C2B39380  19.586  22.900   8.250
 6274POPC   C3B39381  19.611  22.924   7.950
 6274POPC   C4B39382  19.639  22.919   7.650
 6275POPC   NC339383  33.769  17.462   9.450
 6275POPC   PO439384  33.761  17.504   9.150
 6275POPC   GL139385  33.802  17.503   8.850
 6275POPC   GL239386  33.876  17.626   8.850
 6275POPC   C1A39387  33.799  17.478   8.550
 6275POPC   D2A39388  33.783  17.469   8.250
 6275POPC   C3A39389  33.823  17.519   7.950
 6275POPC   C4A39390  33.819  17.535   7.650
 6275POPC   C1B39391  33.956  17.687   8.550
 6275POPC   C2B39392  33.930  17.701   8.250
 6275POPC   C3B39393  33.936  17.719   7.950
 6275POPC   C4B39394  33.923  17.745   7.650
 6276POPC   NC339395  25.270  19.802   9.450
 6276POPC   PO439396  25.231  19.876   9.150
 6276POPC   GL139397  25.255  19.813   8.850
 6276POPC   GL239398  25.125  19.878   8.850
 6276POPC   C1A39399  25.294  19.821   8.550
 6276POPC   D2A39400  25.255  19.840   8.250
 6276POPC   C3A39401  25.245  19.832   7.950
 6276POPC   C4A39402  25.235  19.835   7.650
 6276POPC   C1B39403  25.084  19.974   8.550
 6276POPC   C2B39404  25.039  19.905   8.250
 6276POPC   C3B39405  25.002  19.923   7.950
 6276POPC   C4B39406  25.010  19.897   7.650
 6277POPC   NC339407  24.441  21.398   9.450
 6277POPC   PO439408  24.532  21.397   9.150
 6277POPC   GL139409  24.532  21.347   8.850
 6277POPC   GL239410  24.630  21.460   8.850
 6277POPC   C1A39411  24.490  21.367   8.550
 6277POPC   D2A39412  24.509  21.395   8.250
 6277POPC   C3A39413  24.528  21.343   7.950
 6277POPC   C4A39414  24.485  21.383   7.650
 6277POPC   C1B39415  24.723  21.504   8.550
 6277POPC   C2B39416  24.742  21.473   8.250
 6277POPC   C3B39417  24.702  21.507   7.950
 6277POPC   C4B39418  24.758  21.479   7.650
 6278POPC   NC339419   9.014  19.046   9.450
 6278POPC   PO439420   8.973  19.014   9.150
 6278POPC   GL139421   8.980  19.020   8.850
 6278POPC   GL239422   8.870  19.011   8.850
 6278POPC   C1A39423   8.980  19.076   8.550
 6278POPC   D2A39424   8.964  19.098   8.250
 6278POPC   C3A39425   8.945  19.077   7.950
 6278POPC   C4A39426   9.014  19.092   7.650
 6278POPC   C1B39427   8.792  18.917   8.550
 6278POPC   C2B39428   8.805  18.903   8.250
 6278POPC   C3B39429   8.801  18.852   7.950
 6278POPC   C4B39430   8.803  18.890   7.650
 6279POPC   NC339431   5.048  36.912   9.450
 6279POPC   PO439432   5.058  36.939   9.150
 6279POPC   GL139433   5.074  36.858   8.850
 6279POPC   GL239434   5.059  36.757   8.850
 6279POPC   C1A39435   5.095  36.908   8.550
 6279POPC   D2A39436   5.117  36.933   8.250
 6279POPC   C3A39437   5.129  36.883   7.950
 6279POPC   C4A39438   5.066  36.886   7.650
 6279POPC   C1B39439   5.143  36.700   8.550
 6279POPC   C2B39440   5.102  36.622   8.250
 6279POPC   C3B39441   5.145  36.701   7.950
 6279POPC   C4B39442   5.120  36.688   7.650
 6280POPC   NC339443   9.742  35.335   9.450
 6280POPC   PO439444   9.760  35.400   9.150
 6280POPC   GL139445   9.789  35.364   8.850
 6280POPC   GL239446   9.667  35.373   8.850
 6280POPC   C1A39447   9.773  35.336   8.550
 6280POPC   D2A39448   9.761  35.368   8.250
 6280POPC   C3A39449   9.763  35.388   7.950
 6280POPC   C4A39450   9.768  35.366   7.650
 6280POPC   C1B39451   9.483  35.343   8.550
 6280POPC   C2B39452   9.481  35.272   8.250
 6280POPC   C3B39453   9.487  35.328   7.950
 6280POPC   C4B39454   9.489  35.331   7.650
 6281POPC   NC339455  36.116  30.732   9.450
 6281POPC   PO439456  36.138  30.723   9.150
 6281POPC   GL139457  36.117  30.683   8.850
 6281POPC   GL239458  36.003  30.711   8.850
 6281POPC   C1A39459  36.160  30.691   8.550
 6281POPC   D2A39460  36.160  30.730   8.250
 6281POPC   C3A39461  36.078  30.689   7.950
 6281POPC   C4A39462  36.081  30.711   7.650
 6281POPC   C1B39463  35.888  30.838   8.550
 6281POPC   C2B39464  35.886  30.844   8.250
 6281POPC   C3B39465  35.852  30.762   7.950
 6281POPC   C4B39466  35.871  30.851   7.650
 6282POPC   NC339467  37.717  32.244   9.450
 6282POPC   PO439468  37.650  32.223   9.150
 6282POPC   GL139469  37.721  32.270   8.850
 6282POPC   GL239470  37.714  32.385   8.850
 6282POPC   C1A39471  37.672  32.290   8.550
 6282POPC   D2A39472  37.710  32.246   8.250
 6282POPC   C3A39473  37.669  32.288   7.950
 6282POPC   C4A39474  37.664  32.268   7.650
 6282POPC   C1B39475  37.783  32.494   8.550
 6282POPC   C2B39476  37.767  32.476   8.250
 6282POPC   C3B39477  37.757  32.511   7.950
 6282POPC   C4B39478  37.753  32.505   7.650
 6283POPC   NC339479  35.304  16.681   9.450
 6283POPC   PO439480  35.330  16.709   9.150
 6283POPC   GL139481  35.391  16.769   8.850
 6283POPC   GL239482  35.414  16.632   8.850
 6283POPC   C1A39483  35.320  16.780   8.550
 6283POPC   D2A39484  35.324  16.735   8.250
 6283POPC   C3A39485  35.357  16.721   7.950
 6283POPC   C4A39486  35.343  16.687   7.650
 6283POPC   C1B39487  35.400  16.514   8.550
 6283POPC   C2B39488  35.409  16.475   8.250
 6283POPC   C3B39489  35.482  16.508   7.950
 6283POPC   C4B39490  35.397  16.521   7.650
 6284POPC   NC339491  22.212   5.919   9.450
 6284POPC   PO439492  22.198   5.865   9.150
 6284POPC   GL139493  22.199   5.867   8.850
 6284POPC   GL239494  22.269   5.945   8.850
 6284POPC   C1A39495  22.183   5.867   8.550
 6284POPC   D2A39496  22.134   5.829   8.250
 6284POPC   C3A39497  22.132   5.875   7.950
 6284POPC   C4A39498  22.151   5.860   7.650
 6284POPC   C1B39499  22.348   6.045   8.550
 6284POPC   C2B39500  22.292   6.083   8.250
 6284POPC   C3B39501  22.307   6.048   7.950
 6284POPC   C4B39502  22.278   6.075   7.650
 6285POPC   NC339503  23.760  40.013   9.450
 6285POPC   PO439504  23.745  39.995   9.150
 6285POPC   GL139505  23.704  39.964   8.850
 6285POPC   GL239506  23.619  39.890   8.850
 6285POPC   C1A39507  23.733  40.029   8.550
 6285POPC   D2A39508  23.727  40.043   8.250
 6285POPC   C3A39509  23.739  40.038   7.950
 6285POPC   C4A39510  23.749  39.972   7.650
 6285POPC   C1B39511  23.535  39.843   8.550
 6285POPC   C2B39512  23.579  39.783   8.250
 6285POPC   C3B39513  23.505  39.781   7.950
 6285POPC   C4B39514  23.585  39.830   7.650
 6286POPC   NC339515   9.719  15.207   9.450
 6286POPC   PO439516   9.727  15.193   9.150
 6286POPC   GL139517   9.742  15.194   8.850
 6286POPC   GL239518   9.636  15.313   8.850
 6286POPC   C1A39519   9.721  15.167   8.550
 6286POPC   D2A39520   9.755  15.172   8.250
 6286POPC   C3A39521   9.747  15.151   7.950
 6286POPC   C4A39522   9.729  15.153   7.650
 6286POPC   C1B39523   9.562  15.350   8.550
 6286POPC   C2B39524   9.613  15.372   8.250
 6286POPC   C3B39525   9.530  15.337   7.950
 6286POPC   C4B39526   9.621  15.331   7.650
 6287POPC   NC339527  11.263   4.312   9.450
 6287POPC   PO439528  11.296   4.299   9.150
 6287POPC   GL139529  11.334   4.362   8.850
 6287POPC   GL239530  11.181   4.406   8.850
 6287POPC   C1A39531  11.275   4.358   8.550
 6287POPC   D2A39532  11.270   4.296   8.250
 6287POPC   C3A39533  11.288   4.295   7.950
 6287POPC   C4A39534  11.307   4.334   7.650
 6287POPC   C1B39535  11.102   4.448   8.550
 6287POPC   C2B39536  11.093   4.404   8.250
 6287POPC   C3B39537  11.110   4.390   7.950
 6287POPC   C4B39538  11.101   4.448   7.650
 6288POPC   NC339539  36.095  41.535   9.450
 6288POPC   PO439540  36.103  41.531   9.150
 6288POPC   GL139541  36.154  41.560   8.850
 6288POPC   GL239542  36.227  41.447   8.850
 6288POPC   C1A39543  36.085  41.526   8.550
 6288POPC   D2A39544  36.149  41.607   8.250
 6288POPC   C3A39545  36.083  41.564   7.950
 6288POPC   C4A39546  36.152  41.601   7.650
 6288POPC   C1B39547  36.256  41.344   8.550
 6288POPC   C2B39548  36.319  41.396   8.250
 6288POPC   C3B39549  36.285  41.401   7.950
 6288POPC   C4B39550  36.303  41.393   7.650
 6289POPC   NC339551  39.252  30.658   9.450
 6289POPC   PO439552  39.185  30.744   9.150
 6289POPC   GL139553  39.238  30.651   8.850
 6289POPC   GL239554  39.318  30.758   8.850
 6289POPC   C1A39555  39.271  30.659   8.550
 6289POPC   D2A39556  39.181  30.743   8.250
 6289POPC   C3A39557  39.189  30.684   7.950
 6289POPC   C4A39558  39.240  30.745   7.650
 6289POPC   C1B39559  39.347  30.940   8.550
 6289POPC   C2B39560  39.366  30.878   8.250
 6289POPC   C3B39561  39.336  30.915   7.950
 6289POPC   C4B39562  39.370  30.896   7.650
 6290POPC   NC339563   9.707  18.332   9.450
 6290POPC   PO439564   9.710  18.241   9.150
 6290POPC   GL139565   9.798  18.279   8.850
 6290POPC   GL239566   9.698  18.375   8.850
 6290POPC   C1A39567   9.752  18.308   8.550
 6290POPC   D2A39568   9.770  18.254   8.250
 6290POPC   C3A39569   9.702  18.292   7.950
 6290POPC   C4A39570   9.712  18.286   7.650
 6290POPC   C1B39571   9.551  18.454   8.550
 6290POPC   C2B39572   9.564  18.465   8.250
 6290POPC   C3B39573   9.576  18.418   7.950
 6290POPC   C4B39574   9.573  18.459   7.650
 6291POPC   NC339575  28.333   1.979   9.450
 6291POPC   PO439576  28.344   1.971   9.150
 6291POPC   GL139577  28.355   2.016   8.850
 6291POPC   GL239578  28.333   2.131   8.850
 6291POPC   C1A39579  28.361   1.960   8.550
 6291POPC   D2A39580  28.339   2.031   8.250
 6291POPC   C3A39581  28.412   1.941   7.950
 6291POPC   C4A39582  28.404   2.027   7.650
 6291POPC   C1B39583  28.269   2.247   8.550
 6291POPC   C2B39584  28.290   2.262   8.250
 6291POPC   C3B39585  28.261   2.183   7.950
 6291POPC   C4B39586  28.308   2.180   7.650
 6292POPC   NC339587   5.135   7.426   9.450
 6292POPC   PO439588   5.102   7.409   9.150
 6292POPC   GL139589   5.071   7.444   8.850
 6292POPC   GL239590   4.970   7.439   8.850
 6292POPC   C1A39591   5.126   7.440   8.550
 6292POPC   D2A39592   5.105   7.434   8.250
 6292POPC   C3A39593   5.079   7.415   7.950
 6292POPC   C4A39594   5.104   7.378   7.650
 6292POPC   C1B39595   4.843   7.374   8.550
 6292POPC   C2B39596   4.804   7.385   8.250
 6292POPC   C3B39597   4.805   7.395   7.950
 6292POPC   C4B39598   4.839   7.381   7.650
 6293POPC   NC339599  40.827  42.334   9.450
 6293POPC   PO439600  40.815  42.312   9.150
 6293POPC   GL139601  40.810  42.325   8.850
 6293POPC   GL239602  40.713  42.448   8.850
 6293POPC   C1A39603  40.814  42.347   8.550
 6293POPC   D2A39604  40.749  42.341   8.250
 6293POPC   C3A39605  40.808  42.327   7.950
 6293POPC   C4A39606  40.776  42.286   7.650
 6293POPC   C1B39607  40.655  42.530   8.550
 6293POPC   C2B39608  40.676  42.514   8.250
 6293POPC   C3B39609  40.680  42.499   7.950
 6293POPC   C4B39610  40.638  42.541   7.650
 6294POPC   NC339611  25.218  24.486   9.450
 6294POPC   PO439612  25.297  24.524   9.150
 6294POPC   GL139613  25.285  24.506   8.850
 6294POPC   GL239614  25.255  24.644   8.850
 6294POPC   C1A39615  25.226  24.492   8.550
 6294POPC   D2A39616  25.223  24.510   8.250
 6294POPC   C3A39617  25.291  24.469   7.950
 6294POPC   C4A39618  25.310  24.531   7.650
 6294POPC   C1B39619  25.195  24.693   8.550
 6294POPC   C2B39620  25.181  24.717   8.250
 6294POPC   C3B39621  25.149  24.739   7.950
 6294POPC   C4B39622  25.144  24.711   7.650
 6295POPC   NC339623  35.363  15.962   9.450
 6295POPC   PO439624  35.367  15.993   9.150
 6295POPC   GL139625  35.398  15.931   8.850
 6295POPC   GL239626  35.518  15.957   8.850
 6295POPC   C1A39627  35.390  15.923   8.550
 6295POPC   D2A39628  35.401  15.945   8.250
 6295POPC   C3A39629  35.333  15.924   7.950
 6295POPC   C4A39630  35.344  15.943   7.650
 6295POPC   C1B39631  35.541  15.824   8.550
 6295POPC   C2B39632  35.552  15.888   8.250
 6295POPC   C3B39633  35.605  15.911   7.950
 6295POPC   C4B39634  35.549  15.828   7.650
 6296POPC   NC339635  17.516  32.248   9.450
 6296POPC   PO439636  17.527  32.284   9.150
 6296POPC   GL139637  17.465  32.236   8.850
 6296POPC   GL239638  17.574  32.297   8.850
 6296POPC   C1A39639  17.504  32.289   8.550
 6296POPC   D2A39640  17.489  32.202   8.250
 6296POPC   C3A39641  17.556  32.237   7.950
 6296POPC   C4A39642  17.483  32.277   7.650
 6296POPC   C1B39643  17.752  32.313   8.550
 6296POPC   C2B39644  17.741  32.406   8.250
 6296POPC   C3B39645  17.756  32.326   7.950
 6296POPC   C4B39646  17.696  32.333   7.650
 6297POPC   NC339647  34.611  29.954   9.450
 6297POPC   PO439648  34.617  29.930   9.150
 6297POPC   GL139649  34.598  29.878   8.850
 6297POPC   GL239650  34.491  29.814   8.850
 6297POPC   C1A39651  34.616  29.905   8.550
 6297POPC   D2A39652  34.590  29.967   8.250
 6297POPC   C3A39653  34.607  29.958   7.950
 6297POPC   C4A39654  34.575  29.963   7.650
 6297POPC   C1B39655  34.467  29.743   8.550
 6297POPC   C2B39656  34.439  29.758   8.250
 6297POPC   C3B39657  34.483  29.681   7.950
 6297POPC   C4B39658  34.455  29.701   7.650
 6298POPC   NC339659  37.634   5.045   9.450
 6298POPC   PO439660  37.675   5.137   9.150
 6298POPC   GL139661  37.696   5.141   8.850
 6298POPC   GL239662  37.731   4.964   8.850
 6298POPC   C1A39663  37.715   5.103   8.550
 6298POPC   D2A39664  37.656   5.096   8.250
 6298POPC   C3A39665  37.635   5.086   7.950
 6298POPC   C4A39666  37.650   5.062   7.650
 6298POPC   C1B39667  37.843   4.974   8.550
 6298POPC   C2B39668  37.841   4.969   8.250
 6298POPC   C3B39669  37.820   4.953   7.950
 6298POPC   C4B39670  37.816   4.893   7.650
 6299POPC   NC339671   6.653  41.568   9.450
 6299POPC   PO439672   6.627  41.547   9.150
 6299POPC   GL139673   6.681  41.574   8.850
 6299POPC   GL239674   6.817  41.609   8.850
 6299POPC   C1A39675   6.608  41.601   8.550
 6299POPC   D2A39676   6.628  41.596   8.250
 6299POPC   C3A39677   6.615  41.607   7.950
 6299POPC   C4A39678   6.693  41.597   7.650
 6299POPC   C1B39679   6.923  41.623   8.550
 6299POPC   C2B39680   6.867  41.634   8.250
 6299POPC   C3B39681   6.941  41.592   7.950
 6299POPC   C4B39682   6.871  41.630   7.650
 6300POPC   NC339683  24.514  40.805   9.450
 6300POPC   PO439684  24.507  40.779   9.150
 6300POPC   GL139685  24.472  40.829   8.850
 6300POPC   GL239686  24.396  40.881   8.850
 6300POPC   C1A39687  24.477  40.792   8.550
 6300POPC   D2A39688  24.493  40.809   8.250
 6300POPC   C3A39689  24.512  40.800   7.950
 6300POPC   C4A39690  24.480  40.779   7.650
 6300POPC   C1B39691  24.298  40.945   8.550
 6300POPC   C2B39692  24.342  40.970   8.250
 6300POPC   C3B39693  24.257  40.966   7.950
 6300POPC   C4B39694  24.346  40.924   7.650
 6301POPC   NC339695  44.690  42.294   9.450
 6301POPC   PO439696  44.637  42.313   9.150
 6301POPC   GL139697  44.623  42.302   8.850
 6301POPC   GL239698  44.793  42.321   8.850
 6301POPC   C1A39699  44.625  42.323   8.550
 6301POPC   D2A39700  44.657  42.375   8.250
 6301POPC   C3A39701  44.655  42.343   7.950
 6301POPC   C4A39702  44.708  42.296   7.650
 6301POPC   C1B39703  44.903  42.334   8.550
 6301POPC   C2B39704  44.874  42.305   8.250
 6301POPC   C3B39705  44.886  42.330   7.950
 6301POPC   C4B39706  44.896  42.310   7.650
 6302POPC   NC339707   1.239  41.537   9.450
 6302POPC   PO439708   1.179  41.512   9.150
 6302POPC   GL139709   1.236  41.513   8.850
 6302POPC   GL239710   1.293  41.628   8.850
 6302POPC   C1A39711   1.255  41.549   8.550
 6302POPC   D2A39712   1.165  41.556   8.250
 6302POPC   C3A39713   1.203  41.595   7.950
 6302POPC   C4A39714   1.210  41.570   7.650
 6302POPC   C1B39715   1.465  41.641   8.550
 6302POPC   C2B39716   1.496  41.637   8.250
 6302POPC   C3B39717   1.494  41.650   7.950
 6302POPC   C4B39718   1.453  41.655   7.650
 6303POPC   NC339719   8.937  39.280   9.450
 6303POPC   PO439720   8.967  39.249   9.150
 6303POPC   GL139721   9.003  39.270   8.850
 6303POPC   GL239722   9.056  39.140   8.850
 6303POPC   C1A39723   9.015  39.250   8.550
 6303POPC   D2A39724   9.007  39.195   8.250
 6303POPC   C3A39725   8.961  39.253   7.950
 6303POPC   C4A39726   8.949  39.204   7.650
 6303POPC   C1B39727   9.176  39.052   8.550
 6303POPC   C2B39728   9.122  39.047   8.250
 6303POPC   C3B39729   9.209  39.110   7.950
 6303POPC   C4B39730   9.211  39.092   7.650
 6304POPC   NC339731   5.125  25.313   9.450
 6304POPC   PO439732   5.131  25.241   9.150
 6304POPC   GL139733   5.127  25.224   8.850
 6304POPC   GL239734   5.025  25.345   8.850
 6304POPC   C1A39735   5.056  25.254   8.550
 6304POPC   D2A39736   5.141  25.261   8.250
 6304POPC   C3A39737   5.055  25.315   7.950
 6304POPC   C4A39738   5.079  25.312   7.650
 6304POPC   C1B39739   4.920  25.480   8.550
 6304POPC   C2B39740   4.914  25.471   8.250
 6304POPC   C3B39741   4.994  25.487   7.950
 6304POPC   C4B39742   4.935  25.509   7.650
 6305POPC   NC339743  15.924  12.107   9.450
 6305POPC   PO439744  15.906  12.027   9.150
 6305POPC   GL139745  15.959  12.100   8.850
 6305POPC   GL239746  16.073  12.105   8.850
 6305POPC   C1A39747  15.935  12.109   8.550
 6305POPC   D2A39748  15.943  12.115   8.250
 6305POPC   C3A39749  15.982  12.070   7.950
 6305POPC   C4A39750  15.966  12.125   7.650
 6305POPC   C1B39751  16.253  12.079   8.550
 6305POPC   C2B39752  16.168  12.060   8.250
 6305POPC   C3B39753  16.204  12.064   7.950
 6305POPC   C4B39754  16.184  12.001   7.650
 6306POPC   NC339755   6.685  20.653   9.450
 6306POPC   PO439756   6.661  20.646   9.150
 6306POPC   GL139757   6.612  20.626   8.850
 6306POPC   GL239758   6.567  20.494   8.850
 6306POPC   C1A39759   6.657  20.618   8.550
 6306POPC   D2A39760   6.605  20.581   8.250
 6306POPC   C3A39761   6.612  20.651   7.950
 6306POPC   C4A39762   6.669  20.631   7.650
 6306POPC   C1B39763   6.549  20.360   8.550
 6306POPC   C2B39764   6.528  20.397   8.250
 6306POPC   C3B39765   6.493  20.393   7.950
 6306POPC   C4B39766   6.498  20.414   7.650
 6307POPC   NC339767  24.525  15.183   9.450
 6307POPC   PO439768  24.523  15.216   9.150
 6307POPC   GL139769  24.481  15.179   8.850
 6307POPC   GL239770  24.459  15.056   8.850
 6307POPC   C1A39771  24.465  15.172   8.550
 6307POPC   D2A39772  24.483  15.198   8.250
 6307POPC   C3A39773  24.477  15.148   7.950
 6307POPC   C4A39774  24.491  15.217   7.650
 6307POPC   C1B39775  24.409  14.956   8.550
 6307POPC   C2B39776  24.438  14.961   8.250
 6307POPC   C3B39777  24.356  14.976   7.950
 6307POPC   C4B39778  24.419  14.969   7.650
 6308POPC   NC339779  36.886   1.953   9.450
 6308POPC   PO439780  36.912   2.031   9.150
 6308POPC   GL139781  36.950   1.955   8.850
 6308POPC   GL239782  37.002   2.072   8.850
 6308POPC   C1A39783  36.949   1.971   8.550
 6308POPC   D2A39784  36.905   1.970   8.250
 6308POPC   C3A39785  36.927   1.983   7.950
 6308POPC   C4A39786  36.897   2.002   7.650
 6308POPC   C1B39787  37.088   2.184   8.550
 6308POPC   C2B39788  37.091   2.117   8.250
 6308POPC   C3B39789  37.108   2.124   7.950
 6308POPC   C4B39790  37.128   2.135   7.650
 6309POPC   NC339791  40.777  18.306   9.450
 6309POPC   PO439792  40.810  18.255   9.150
 6309POPC   GL139793  40.785  18.316   8.850
 6309POPC   GL239794  40.869  18.279   8.850
 6309POPC   C1A39795  40.762  18.303   8.550
 6309POPC   D2A39796  40.795  18.240   8.250
 6309POPC   C3A39797  40.792  18.285   7.950
 6309POPC   C4A39798  40.813  18.328   7.650
 6309POPC   C1B39799  41.002  18.396   8.550
 6309POPC   C2B39800  41.029  18.344   8.250
 6309POPC   C3B39801  41.028  18.355   7.950
 6309POPC   C4B39802  41.005  18.318   7.650
 6310POPC   NC339803  43.110  25.222   9.450
 6310POPC   PO439804  43.079  25.314   9.150
 6310POPC   GL139805  43.093  25.248   8.850
 6310POPC   GL239806  42.993  25.333   8.850
 6310POPC   C1A39807  43.119  25.217   8.550
 6310POPC   D2A39808  43.065  25.235   8.250
 6310POPC   C3A39809  43.145  25.309   7.950
 6310POPC   C4A39810  43.096  25.304   7.650
 6310POPC   C1B39811  42.896  25.359   8.550
 6310POPC   C2B39812  42.865  25.432   8.250
 6310POPC   C3B39813  42.864  25.391   7.950
 6310POPC   C4B39814  42.922  25.434   7.650
 6311POPC   NC339815  31.474   2.729   9.450
 6311POPC   PO439816  31.479   2.741   9.150
 6311POPC   GL139817  31.479   2.805   8.850
 6311POPC   GL239818  31.598   2.673   8.850
 6311POPC   C1A39819  31.434   2.756   8.550
 6311POPC   D2A39820  31.498   2.798   8.250
 6311POPC   C3A39821  31.520   2.774   7.950
 6311POPC   C4A39822  31.501   2.789   7.650
 6311POPC   C1B39823  31.639   2.547   8.550
 6311POPC   C2B39824  31.603   2.609   8.250
 6311POPC   C3B39825  31.604   2.540   7.950
 6311POPC   C4B39826  31.647   2.555   7.650
 6312POPC   NC339827  21.416  42.302   9.450
 6312POPC   PO439828  21.416  42.360   9.150
 6312POPC   GL139829  21.391  42.295   8.850
 6312POPC   GL239830  21.469  42.291   8.850
 6312POPC   C1A39831  21.380  42.316   8.550
 6312POPC   D2A39832  21.423  42.314   8.250
 6312POPC   C3A39833  21.392  42.302   7.950
 6312POPC   C4A39834  21.370  42.285   7.650
 6312POPC   C1B39835  21.599  42.267   8.550
 6312POPC   C2B39836  21.633  42.209   8.250
 6312POPC   C3B39837  21.625  42.209   7.950
 6312POPC   C4B39838  21.651  42.226   7.650
 6313POPC   NC339839  28.399  20.631   9.450
 6313POPC   PO439840  28.406  20.578   9.150
 6313POPC   GL139841  28.392  20.625   8.850
 6313POPC   GL239842  28.488  20.757   8.850
 6313POPC   C1A39843  28.403  20.626   8.550
 6313POPC   D2A39844  28.395  20.597   8.250
 6313POPC   C3A39845  28.414  20.598   7.950
 6313POPC   C4A39846  28.360  20.604   7.650
 6313POPC   C1B39847  28.490  20.806   8.550
 6313POPC   C2B39848  28.549  20.808   8.250
 6313POPC   C3B39849  28.525  20.777   7.950
 6313POPC   C4B39850  28.535  20.775   7.650
 6314POPC   NC339851  29.920  40.761   9.450
 6314POPC   PO439852  29.906  40.741   9.150
 6314POPC   GL139853  29.910  40.749   8.850
 6314POPC   GL239854  29.814  40.784   8.850
 6314POPC   C1A39855  29.903  40.763   8.550
 6314POPC   D2A39856  29.901  40.797   8.250
 6314POPC   C3A39857  29.957  40.825   7.950
 6314POPC   C4A39858  29.944  40.787   7.650
 6314POPC   C1B39859  29.716  40.714   8.550
 6314POPC   C2B39860  29.688  40.683   8.250
 6314POPC   C3B39861  29.733  40.698   7.950
 6314POPC   C4B39862  29.724  40.692   7.650
 6315POPC   NC339863   8.218  19.081   9.450
 6315POPC   PO439864   8.213  19.084   9.150
 6315POPC   GL139865   8.170  19.102   8.850
 6315POPC   GL239866   8.045  19.020   8.850
 6315POPC   C1A39867   8.156  19.058   8.550
 6315POPC   D2A39868   8.167  19.099   8.250
 6315POPC   C3A39869   8.149  19.098   7.950
 6315POPC   C4A39870   8.241  19.078   7.650
 6315POPC   C1B39871   7.999  18.997   8.550
 6315POPC   C2B39872   7.988  18.972   8.250
 6315POPC   C3B39873   7.998  19.035   7.950
 6315POPC   C4B39874   7.908  18.992   7.650
 6316POPC   NC339875  37.701  18.283   9.450
 6316POPC   PO439876  37.635  18.303   9.150
 6316POPC   GL139877  37.683  18.324   8.850
 6316POPC   GL239878  37.639  18.433   8.850
 6316POPC   C1A39879  37.649  18.315   8.550
 6316POPC   D2A39880  37.709  18.308   8.250
 6316POPC   C3A39881  37.709  18.288   7.950
 6316POPC   C4A39882  37.692  18.236   7.650
 6316POPC   C1B39883  37.650  18.548   8.550
 6316POPC   C2B39884  37.696  18.487   8.250
 6316POPC   C3B39885  37.651  18.581   7.950
 6316POPC   C4B39886  37.656  18.563   7.650
 6317POPC   NC339887  40.819  19.026   9.450
 6317POPC   PO439888  40.825  19.099   9.150
 6317POPC   GL139889  40.823  19.010   8.850
 6317POPC   GL239890  40.847  19.178   8.850
 6317POPC   C1A39891  40.760  19.105   8.550
 6317POPC   D2A39892  40.742  19.086   8.250
 6317POPC   C3A39893  40.741  19.020   7.950
 6317POPC   C4A39894  40.751  19.072   7.650
 6317POPC   C1B39895  40.946  19.308   8.550
 6317POPC   C2B39896  40.888  19.271   8.250
 6317POPC   C3B39897  40.923  19.319   7.950
 6317POPC   C4B39898  40.946  19.230   7.650
 6318POPC   NC339899  35.325  33.011   9.450
 6318POPC   PO439900  35.324  33.010   9.150
 6318POPC   GL139901  35.306  33.026   8.850
 6318POPC   GL239902  35.429  33.109   8.850
 6318POPC   C1A39903  35.394  33.026   8.550
 6318POPC   D2A39904  35.350  33.019   8.250
 6318POPC   C3A39905  35.385  33.071   7.950
 6318POPC   C4A39906  35.359  33.027   7.650
 6318POPC   C1B39907  35.449  33.247   8.550
 6318POPC   C2B39908  35.440  33.250   8.250
 6318POPC   C3B39909  35.481  33.237   7.950
 6318POPC   C4B39910  35.453  33.247   7.650
 6319POPC   NC339911  29.898  16.692   9.450
 6319POPC   PO439912  29.950  16.727   9.150
 6319POPC   GL139913  29.925  16.770   8.850
 6319POPC   GL239914  29.802  16.767   8.850
 6319POPC   C1A39915  29.887  16.742   8.550
 6319POPC   D2A39916  29.898  16.732   8.250
 6319POPC   C3A39917  29.909  16.686   7.950
 6319POPC   C4A39918  29.956  16.775   7.650
 6319POPC   C1B39919  29.709  16.827   8.550
 6319POPC   C2B39920  29.692  16.862   8.250
 6319POPC   C3B39921  29.698  16.898   7.950
 6319POPC   C4B39922  29.679  16.891   7.650
 6320POPC   NC339923   2.730  33.013   9.450
 6320POPC   PO439924   2.772  33.004   9.150
 6320POPC   GL139925   2.799  33.016   8.850
 6320POPC   GL239926   2.834  33.027   8.850
 6320POPC   C1A39927   2.796  33.031   8.550
 6320POPC   D2A39928   2.722  32.999   8.250
 6320POPC   C3A39929   2.803  32.975   7.950
 6320POPC   C4A39930   2.802  33.033   7.650
 6320POPC   C1B39931   2.977  32.950   8.550
 6320POPC   C2B39932   2.969  32.958   8.250
 6320POPC   C3B39933   3.034  32.925   7.950
 6320POPC   C4B39934   2.996  32.921   7.650
 6321POPC   NC339935   5.880  37.720   9.450
 6321POPC   PO439936   5.844  37.694   9.150
 6321POPC   GL139937   5.910  37.693   8.850
 6321POPC   GL239938   5.874  37.584   8.850
 6321POPC   C1A39939   5.867  37.718   8.550
 6321POPC   D2A39940   5.857  37.661   8.250
 6321POPC   C3A39941   5.841  37.719   7.950
 6321POPC   C4A39942   5.914  37.682   7.650
 6321POPC   C1B39943   5.817  37.468   8.550
 6321POPC   C2B39944   5.807  37.442   8.250
 6321POPC   C3B39945   5.854  37.480   7.950
 6321POPC   C4B39946   5.808  37.425   7.650
 6322POPC   NC339947  36.885  17.516   9.450
 6322POPC   PO439948  36.900  17.466   9.150
 6322POPC   GL139949  36.859  17.514   8.850
 6322POPC   GL239950  36.979  17.518   8.850
 6322POPC   C1A39951  36.858  17.538   8.550
 6322POPC   D2A39952  36.930  17.503   8.250
 6322POPC   C3A39953  36.935  17.475   7.950
 6322POPC   C4A39954  36.909  17.495   7.650
 6322POPC   C1B39955  37.148  17.510   8.550
 6322POPC   C2B39956  37.132  17.470   8.250
 6322POPC   C3B39957  37.108  17.474   7.950
 6322POPC   C4B39958  37.122  17.509   7.650
 6323POPC   NC339959  39.192   2.787   9.450
 6323POPC   PO439960  39.223   2.809   9.150
 6323POPC   GL139961  39.209   2.775   8.850
 6323POPC   GL239962  39.236   2.857   8.850
 6323POPC   C1A39963  39.193   2.744   8.550
 6323POPC   D2A39964  39.243   2.728   8.250
 6323POPC   C3A39965  39.274   2.785   7.950
 6323POPC   C4A39966  39.203   2.761   7.650
 6323POPC   C1B39967  39.222   3.024   8.550
 6323POPC   C2B39968  39.129   3.056   8.250
 6323POPC   C3B39969  39.162   2.998   7.950
 6323POPC   C4B39970  39.150   2.997   7.650
 6324POPC   NC339971  18.300  10.538   9.450
 6324POPC   PO439972  18.291  10.514   9.150
 6324POPC   GL139973  18.306  10.513   8.850
 6324POPC   GL239974  18.198  10.422   8.850
 6324POPC   C1A39975  18.254  10.529   8.550
 6324POPC   D2A39976  18.281  10.491   8.250
 6324POPC   C3A39977  18.300  10.494   7.950
 6324POPC   C4A39978  18.286  10.486   7.650
 6324POPC   C1B39979  18.217  10.256   8.550
 6324POPC   C2B39980  18.230  10.240   8.250
 6324POPC   C3B39981  18.202  10.302   7.950
 6324POPC   C4B39982  18.222  10.309   7.650
 6325POPC   NC339983  23.745  29.927   9.450
 6325POPC   PO439984  23.679  29.895   9.150
 6325POPC   GL139985  23.677  29.968   8.850
 6325POPC   GL239986  23.694  30.028   8.850
 6325POPC   C1A39987  23.754  29.941   8.550
 6325POPC   D2A39988  23.742  29.955   8.250
 6325POPC   C3A39989  23.714  29.950   7.950
 6325POPC   C4A39990  23.723  29.902   7.650
 6325POPC   C1B39991  23.722  30.152   8.550
 6325POPC   C2B39992  23.706  30.162   8.250
 6325POPC   C3B39993  23.763  30.213   7.950
 6325POPC   C4B39994  23.736  30.154   7.650
 6326POPC   NC339995  10.557   2.765   9.450
 6326POPC   PO439996  10.500   2.784   9.150
 6326POPC   GL139997  10.565   2.812   8.850
 6326POPC   GL239998  10.439   2.897   8.850
 6326POPC   C1A39999  10.563   2.759   8.550
 6326POPC   D2A40000  10.504   2.757   8.250
 6326POPC   C3A40001  10.478   2.726   7.950
 6326POPC   C4A40002  10.549   2.730   7.650
 6326POPC   C1B40003  10.345   2.945   8.550
 6326POPC   C2B40004  10.353   2.940   8.250
 6326POPC   C3B40005  10.307   2.974   7.950
 6326POPC   C4B40006  10.371   2.962   7.650
 6327POPC   NC340007   2.725   9.725   9.450
 6327POPC   PO440008   2.787   9.706   9.150
 6327POPC   GL140009   2.791   9.790   8.850
 6327POPC   GL240010   2.642   9.761   8.850
 6327POPC   C1A40011   2.792   9.726   8.550
 6327POPC   D2A40012   2.725   9.786   8.250
 6327POPC   C3A40013   2.721   9.743   7.950
 6327POPC   C4A40014   2.758   9.773   7.650
 6327POPC   C1B40015   2.538   9.804   8.550
 6327POPC   C2B40016   2.515   9.852   8.250
 6327POPC   C3B40017   2.528   9.829   7.950
 6327POPC   C4B40018   2.541   9.817   7.650
 6328POPC   NC340019  19.794  37.635   9.450
 6328POPC   PO440020  19.875  37.670   9.150
 6328POPC   GL140021  19.799  37.656   8.850
 6328POPC   GL240022  19.764  37.716   8.850
 6328POPC   C1A40023  19.805  37.661   8.550
 6328POPC   D2A40024  19.790  37.719   8.250
 6328POPC   C3A40025  19.845  37.665   7.950
 6328POPC   C4A40026  19.831  37.706   7.650
 6328POPC   C1B40027  19.601  37.723   8.550
 6328POPC   C2B40028  19.641  37.793   8.250
 6328POPC   C3B40029  19.608  37.763   7.950
 6328POPC   C4B40030  19.610  37.750   7.650
 6329POPC   NC340031  29.188   9.774   9.450
 6329POPC   PO440032  29.183   9.795   9.150
 6329POPC   GL140033  29.179   9.781   8.850
 6329POPC   GL240034  29.127   9.837   8.850
 6329POPC   C1A40035  29.172   9.784   8.550
 6329POPC   D2A40036  29.112   9.786   8.250
 6329POPC   C3A40037  29.099   9.783   7.950
 6329POPC   C4A40038  29.136   9.743   7.650
 6329POPC   C1B40039  29.182   9.952   8.550
 6329POPC   C2B40040  29.187   9.973   8.250
 6329POPC   C3B40041  29.175  10.037   7.950
 6329POPC   C4B40042  29.226   9.997   7.650
 6330POPC   NC340043  43.130  33.045   9.450
 6330POPC   PO440044  43.113  33.050   9.150
 6330POPC   GL140045  43.131  33.023   8.850
 6330POPC   GL240046  43.135  32.878   8.850
 6330POPC   C1A40047  43.109  33.072   8.550
 6330POPC   D2A40048  43.101  33.018   8.250
 6330POPC   C3A40049  43.131  33.025   7.950
 6330POPC   C4A40050  43.139  33.073   7.650
 6330POPC   C1B40051  43.169  32.796   8.550
 6330POPC   C2B40052  43.165  32.818   8.250
 6330POPC   C3B40053  43.136  32.801   7.950
 6330POPC   C4B40054  43.148  32.821   7.650
 6331POPC   NC340055  19.828  24.537   9.450
 6331POPC   PO440056  19.828  24.482   9.150
 6331POPC   GL140057  19.797  24.468   8.850
 6331POPC   GL240058  19.772  24.622   8.850
 6331POPC   C1A40059  19.811  24.480   8.550
 6331POPC   D2A40060  19.828  24.444   8.250
 6331POPC   C3A40061  19.853  24.482   7.950
 6331POPC   C4A40062  19.838  24.534   7.650
 6331POPC   C1B40063  19.700  24.661   8.550
 6331POPC   C2B40064  19.616  24.689   8.250
 6331POPC   C3B40065  19.651  24.645   7.950
 6331POPC   C4B40066  19.651  24.651   7.650
 6332POPC   NC340067  36.166  34.614   9.450
 6332POPC   PO440068  36.117  34.554   9.150
 6332POPC   GL140069  36.146  34.602   8.850
 6332POPC   GL240070  36.211  34.632   8.850
 6332POPC   C1A40071  36.171  34.594   8.550
 6332POPC   D2A40072  36.100  34.611   8.250
 6332POPC   C3A40073  36.155  34.623   7.950
 6332POPC   C4A40074  36.155  34.533   7.650
 6332POPC   C1B40075  36.346  34.628   8.550
 6332POPC   C2B40076  36.397  34.653   8.250
 6332POPC   C3B40077  36.404  34.707   7.950
 6332POPC   C4B40078  36.339  34.708   7.650
 6333POPC   NC340079  16.720   4.339   9.450
 6333POPC   PO440080  16.767   4.273   9.150
 6333POPC   GL140081  16.729   4.351   8.850
 6333POPC   GL240082  16.675   4.239   8.850
 6333POPC   C1A40083  16.761   4.330   8.550
 6333POPC   D2A40084  16.693   4.298   8.250
 6333POPC   C3A40085  16.690   4.292   7.950
 6333POPC   C4A40086  16.701   4.299   7.650
 6333POPC   C1B40087  16.654   4.097   8.550
 6333POPC   C2B40088  16.720   4.101   8.250
 6333POPC   C3B40089  16.635   4.065   7.950
 6333POPC   C4B40090  16.652   4.060   7.650
 6334POPC   NC340091  24.505  36.894   9.450
 6334POPC   PO440092  24.450  36.924   9.150
 6334POPC   GL140093  24.444  36.951   8.850
 6334POPC   GL240094  24.535  36.844   8.850
 6334POPC   C1A40095  24.461  36.901   8.550
 6334POPC   D2A40096  24.497  36.904   8.250
 6334POPC   C3A40097  24.471  36.866   7.950
 6334POPC   C4A40098  24.539  36.864   7.650
 6334POPC   C1B40099  24.656  36.743   8.550
 6334POPC   C2B40100  24.677  36.730   8.250
 6334POPC   C3B40101  24.690  36.774   7.950
 6334POPC   C4B40102  24.634  36.742   7.650
 6335POPC   NC340103  22.145   3.591   9.450
 6335POPC   PO440104  22.125   3.528   9.150
 6335POPC   GL140105  22.124   3.506   8.850
 6335POPC   GL240106  22.259   3.509   8.850
 6335POPC   C1A40107  22.147   3.500   8.550
 6335POPC   D2A40108  22.119   3.575   8.250
 6335POPC   C3A40109  22.122   3.534   7.950
 6335POPC   C4A40110  22.178   3.521   7.650
 6335POPC   C1B40111  22.404   3.408   8.550
 6335POPC   C2B40112  22.350   3.435   8.250
 6335POPC   C3B40113  22.375   3.494   7.950
 6335POPC   C4B40114  22.363   3.420   7.650
 6336POPC   NC340115   4.288   9.017   9.450
 6336POPC   PO440116   4.282   8.971   9.150
 6336POPC   GL140117   4.267   8.934   8.850
 6336POPC   GL240118   4.334   8.862   8.850
 6336POPC   C1A40119   4.291   9.019   8.550
 6336POPC   D2A40120   4.366   8.998   8.250
 6336POPC   C3A40121   4.287   8.976   7.950
 6336POPC   C4A40122   4.356   8.966   7.650
 6336POPC   C1B40123   4.392   8.716   8.550
 6336POPC   C2B40124   4.345   8.776   8.250
 6336POPC   C3B40125   4.396   8.715   7.950
 6336POPC   C4B40126   4.406   8.696   7.650
 6337POPC   NC340127   8.168   8.940   9.450
 6337POPC   PO440128   8.205   8.971   9.150
 6337POPC   GL140129   8.166   9.008   8.850
 6337POPC   GL240130   8.131   9.087   8.850
 6337POPC   C1A40131   8.150   8.951   8.550
 6337POPC   D2A40132   8.198   8.973   8.250
 6337POPC   C3A40133   8.233   8.972   7.950
 6337POPC   C4A40134   8.187   9.015   7.650
 6337POPC   C1B40135   8.157   9.243   8.550
 6337POPC   C2B40136   8.131   9.211   8.250
 6337POPC   C3B40137   8.121   9.238   7.950
 6337POPC   C4B40138   8.156   9.203   7.650
 6338POPC   NC340139  43.071  21.357   9.450
 6338POPC   PO440140  43.095  21.412   9.150
 6338POPC   GL140141  43.113  21.416   8.850
 6338POPC   GL240142  43.039  21.413   8.850
 6338POPC   C1A40143  43.086  21.344   8.550
 6338POPC   D2A40144  43.077  21.344   8.250
 6338POPC   C3A40145  43.131  21.432   7.950
 6338POPC   C4A40146  43.109  21.361   7.650
 6338POPC   C1B40147  42.849  21.523   8.550
 6338POPC   C2B40148  42.859  21.515   8.250
 6338POPC   C3B40149  42.872  21.483   7.950
 6338POPC   C4B40150  42.917  21.525   7.650
 6339POPC   NC340151   0.421  35.344   9.450
 6339POPC   PO440152   0.485  35.325   9.150
 6339POPC   GL140153   0.400  35.349   8.850
 6339POPC   GL240154   0.409  35.206   8.850
 6339POPC   C1A40155   0.424  35.373   8.550
 6339POPC   D2A40156   0.402  35.396   8.250
 6339POPC   C3A40157   0.441  35.354   7.950
 6339POPC   C4A40158   0.451  35.332   7.650
 6339POPC   C1B40159   0.347  35.147   8.550
 6339POPC   C2B40160   0.378  35.107   8.250
 6339POPC   C3B40161   0.321  35.112   7.950
 6339POPC   C4B40162   0.355  35.153   7.650
 6340POPC   NC340163  10.507  22.965   9.450
 6340POPC   PO440164  10.498  22.982   9.150
 6340POPC   GL140165  10.554  22.956   8.850
 6340POPC   GL240166  10.554  22.807   8.850
 6340POPC   C1A40167  10.527  22.954   8.550
 6340POPC   D2A40168  10.540  22.907   8.250
 6340POPC   C3A40169  10.511  22.907   7.950
 6340POPC   C4A40170  10.491  22.926   7.650
 6340POPC   C1B40171  10.580  22.745   8.550
 6340POPC   C2B40172  10.618  22.684   8.250
 6340POPC   C3B40173  10.615  22.695   7.950
 6340POPC   C4B40174  10.641  22.720   7.650
 6341POPC   NC340175  36.888  22.120   9.450
 6341POPC   PO440176  36.913  22.125   9.150
 6341POPC   GL140177  36.950  22.193   8.850
 6341POPC   GL240178  36.791  22.273   8.850
 6341POPC   C1A40179  36.911  22.211   8.550
 6341POPC   D2A40180  36.916  22.184   8.250
 6341POPC   C3A40181  36.871  22.191   7.950
 6341POPC   C4A40182  36.937  22.140   7.650
 6341POPC   C1B40183  36.667  22.282   8.550
 6341POPC   C2B40184  36.668  22.317   8.250
 6341POPC   C3B40185  36.730  22.344   7.950
 6341POPC   C4B40186  36.686  22.346   7.650
 6342POPC   NC340187  15.149   2.784   9.450
 6342POPC   PO440188  15.210   2.730   9.150
 6342POPC   GL140189  15.200   2.719   8.850
 6342POPC   GL240190  15.170   2.692   8.850
 6342POPC   C1A40191  15.135   2.811   8.550
 6342POPC   D2A40192  15.188   2.777   8.250
 6342POPC   C3A40193  15.167   2.736   7.950
 6342POPC   C4A40194  15.221   2.808   7.650
 6342POPC   C1B40195  15.186   2.531   8.550
 6342POPC   C2B40196  15.256   2.511   8.250
 6342POPC   C3B40197  15.226   2.502   7.950
 6342POPC   C4B40198  15.234   2.564   7.650
 6343POPC   NC340199  32.276  21.411   9.450
 6343POPC   PO440200  32.216  21.343   9.150
 6343POPC   GL140201  32.234  21.411   8.850
 6343POPC   GL240202  32.110  21.422   8.850
 6343POPC   C1A40203  32.241  21.366   8.550
 6343POPC   D2A40204  32.201  21.414   8.250
 6343POPC   C3A40205  32.259  21.388   7.950
 6343POPC   C4A40206  32.264  21.410   7.650
 6343POPC   C1B40207  32.003  21.439   8.550
 6343POPC   C2B40208  32.047  21.384   8.250
 6343POPC   C3B40209  31.988  21.426   7.950
 6343POPC   C4B40210  32.013  21.355   7.650
 6344POPC   NC340211  12.047  36.109   9.450
 6344POPC   PO440212  12.051  36.114   9.150
 6344POPC   GL140213  12.107  36.154   8.850
 6344POPC   GL240214  12.158  36.171   8.850
 6344POPC   C1A40215  12.112  36.169   8.550
 6344POPC   D2A40216  12.071  36.174   8.250
 6344POPC   C3A40217  12.109  36.165   7.950
 6344POPC   C4A40218  12.089  36.160   7.650
 6344POPC   C1B40219  12.279  36.168   8.550
 6344POPC   C2B40220  12.315  36.146   8.250
 6344POPC   C3B40221  12.275  36.183   7.950
 6344POPC   C4B40222  12.341  36.158   7.650
 6345POPC   NC340223   1.176  19.108   9.450
 6345POPC   PO440224   1.201  19.107   9.150
 6345POPC   GL140225   1.195  19.089   8.850
 6345POPC   GL240226   1.333  18.962   8.850
 6345POPC   C1A40227   1.238  19.016   8.550
 6345POPC   D2A40228   1.245  19.093   8.250
 6345POPC   C3A40229   1.221  19.079   7.950
 6345POPC   C4A40230   1.247  19.028   7.650
 6345POPC   C1B40231   1.438  18.909   8.550
 6345POPC   C2B40232   1.443  18.902   8.250
 6345POPC   C3B40233   1.395  18.876   7.950
 6345POPC   C4B40234   1.430  18.900   7.650
 6346POPC   NC340235   8.200  16.706   9.450
 6346POPC   PO440236   8.202  16.710   9.150
 6346POPC   GL140237   8.154  16.741   8.850
 6346POPC   GL240238   8.206  16.568   8.850
 6346POPC   C1A40239   8.150  16.694   8.550
 6346POPC   D2A40240   8.195  16.780   8.250
 6346POPC   C3A40241   8.218  16.758   7.950
 6346POPC   C4A40242   8.167  16.701   7.650
 6346POPC   C1B40243   8.349  16.528   8.550
 6346POPC   C2B40244   8.300  16.498   8.250
 6346POPC   C3B40245   8.300  16.547   7.950
 6346POPC   C4B40246   8.330  16.491   7.650
 6347POPC   NC340247   7.432  32.298   9.450
 6347POPC   PO440248   7.381  32.239   9.150
 6347POPC   GL140249   7.406  32.243   8.850
 6347POPC   GL240250   7.469  32.116   8.850
 6347POPC   C1A40251   7.408  32.225   8.550
 6347POPC   D2A40252   7.393  32.245   8.250
 6347POPC   C3A40253   7.384  32.223   7.950
 6347POPC   C4A40254   7.437  32.201   7.650
 6347POPC   C1B40255   7.487  32.019   8.550
 6347POPC   C2B40256   7.485  31.984   8.250
 6347POPC   C3B40257   7.483  32.011   7.950
 6347POPC   C4B40258   7.481  32.050   7.650
 6348POPC   NC340259  11.252  40.801   9.450
 6348POPC   PO440260  11.313  40.800   9.150
 6348POPC   GL140261  11.288  40.820   8.850
 6348POPC   GL240262  11.194  40.702   8.850
 6348POPC   C1A40263  11.271  40.767   8.550
 6348POPC   D2A40264  11.310  40.797   8.250
 6348POPC   C3A40265  11.262  40.827   7.950
 6348POPC   C4A40266  11.316  40.788   7.650
 6348POPC   C1B40267  11.171  40.551   8.550
 6348POPC   C2B40268  11.170  40.605   8.250
 6348POPC   C3B40269  11.189  40.569   7.950
 6348POPC   C4B40270  11.138  40.614   7.650
 6349POPC   NC340271  29.916  10.484   9.450
 6349POPC   PO440272  29.871  10.528   9.150
 6349POPC   GL140273  29.920  10.537   8.850
 6349POPC   GL240274  29.881  10.376   8.850
 6349POPC   C1A40275  29.941  10.535   8.550
 6349POPC   D2A40276  29.910  10.475   8.250
 6349POPC   C3A40277  29.906  10.552   7.950
 6349POPC   C4A40278  29.956  10.521   7.650
 6349POPC   C1B40279  29.828  10.261   8.550
 6349POPC   C2B40280  29.774  10.268   8.250
 6349POPC   C3B40281  29.763  10.273   7.950
 6349POPC   C4B40282  29.821  10.350   7.650
 6350POPC   NC340283   0.440  25.249   9.450
 6350POPC   PO440284   0.476  25.257   9.150
 6350POPC   GL140285   0.425  25.253   8.850
 6350POPC   GL240286   0.535  25.255   8.850
 6350POPC   C1A40287   0.461  25.297   8.550
 6350POPC   D2A40288   0.397  25.285   8.250
 6350POPC   C3A40289   0.463  25.231   7.950
 6350POPC   C4A40290   0.393  25.315   7.650
 6350POPC   C1B40291   0.626  25.203   8.550
 6350POPC   C2B40292   0.712  25.150   8.250
 6350POPC   C3B40293   0.639  25.148   7.950
 6350POPC   C4B40294   0.704  25.186   7.650
 6351POPC   NC340295  21.377  39.979   9.450
 6351POPC   PO440296  21.369  40.056   9.150
 6351POPC   GL140297  21.384  40.001   8.850
 6351POPC   GL240298  21.402  40.090   8.850
 6351POPC   C1A40299  21.424  40.053   8.550
 6351POPC   D2A40300  21.422  40.031   8.250
 6351POPC   C3A40301  21.391  39.961   7.950
 6351POPC   C4A40302  21.381  40.040   7.650
 6351POPC   C1B40303  21.369  40.265   8.550
 6351POPC   C2B40304  21.327  40.215   8.250
 6351POPC   C3B40305  21.404  40.246   7.950
 6351POPC   C4B40306  21.354  40.270   7.650
 6352POPC   NC340307   8.998   9.766   9.450
 6352POPC   PO440308   8.960   9.735   9.150
 6352POPC   GL140309   8.979   9.740   8.850
 6352POPC   GL240310   8.969   9.871   8.850
 6352POPC   C1A40311   8.971   9.739   8.550
 6352POPC   D2A40312   8.977   9.737   8.250
 6352POPC   C3A40313   8.991   9.780   7.950
 6352POPC   C4A40314   8.959   9.769   7.650
 6352POPC   C1B40315   8.919   9.933   8.550
 6352POPC   C2B40316   8.878  10.023   8.250
 6352POPC   C3B40317   8.904  10.020   7.950
 6352POPC   C4B40318   8.863   9.971   7.650
 6353POPC   NC340319  40.008  41.559   9.450
 6353POPC   PO440320  40.013  41.556   9.150
 6353POPC   GL140321  40.012  41.605   8.850
 6353POPC   GL240322  40.146  41.578   8.850
 6353POPC   C1A40323  39.992  41.511   8.550
 6353POPC   D2A40324  40.036  41.512   8.250
 6353POPC   C3A40325  39.970  41.534   7.950
 6353POPC   C4A40326  40.038  41.587   7.650
 6353POPC   C1B40327  40.255  41.652   8.550
 6353POPC   C2B40328  40.232  41.582   8.250
 6353POPC   C3B40329  40.228  41.631   7.950
 6353POPC   C4B40330  40.229  41.617   7.650
 6354POPC   NC340331  17.503  37.639   9.450
 6354POPC   PO440332  17.516  37.661   9.150
 6354POPC   GL140333  17.556  37.680   8.850
 6354POPC   GL240334  17.648  37.619   8.850
 6354POPC   C1A40335  17.515  37.717   8.550
 6354POPC   D2A40336  17.459  37.712   8.250
 6354POPC   C3A40337  17.462  37.717   7.950
 6354POPC   C4A40338  17.498  37.685   7.650
 6354POPC   C1B40339  17.738  37.568   8.550
 6354POPC   C2B40340  17.782  37.593   8.250
 6354POPC   C3B40341  17.793  37.606   7.950
 6354POPC   C4B40342  17.704  37.635   7.650
 6355POPC   NC340343   4.303  36.910   9.450
 6355POPC   PO440344   4.290  36.895   9.150
 6355POPC   GL140345   4.272  36.895   8.850
 6355POPC   GL240346   4.309  37.028   8.850
 6355POPC   C1A40347   4.302  36.861   8.550
 6355POPC   D2A40348   4.292  36.871   8.250
 6355POPC   C3A40349   4.289  36.906   7.950
 6355POPC   C4A40350   4.299  36.889   7.650
 6355POPC   C1B40351   4.375  37.103   8.550
 6355POPC   C2B40352   4.315  37.163   8.250
 6355POPC   C3B40353   4.312  37.192   7.950
 6355POPC   C4B40354   4.385  37.179   7.650
 6356POPC   NC340355  19.068  20.571   9.450
 6356POPC   PO440356  19.096  20.584   9.150
 6356POPC   GL140357  19.088  20.579   8.850
 6356POPC   GL240358  19.184  20.683   8.850
 6356POPC   C1A40359  19.042  20.650   8.550
 6356POPC   D2A40360  19.052  20.629   8.250
 6356POPC   C3A40361  19.077  20.620   7.950
 6356POPC   C4A40362  19.079  20.622   7.650
 6356POPC   C1B40363  19.278  20.758   8.550
 6356POPC   C2B40364  19.226  20.751   8.250
 6356POPC   C3B40365  19.247  20.784   7.950
 6356POPC   C4B40366  19.273  20.796   7.650
 6357POPC   NC340367   8.924  22.966   9.450
 6357POPC   PO440368   9.022  22.929   9.150
 6357POPC   GL140369   8.937  22.929   8.850
 6357POPC   GL240370   9.127  22.977   8.850
 6357POPC   C1A40371   8.935  22.986   8.550
 6357POPC   D2A40372   8.980  22.920   8.250
 6357POPC   C3A40373   8.968  22.945   7.950
 6357POPC   C4A40374   8.971  22.983   7.650
 6357POPC   C1B40375   9.218  23.002   8.550
 6357POPC   C2B40376   9.252  23.038   8.250
 6357POPC   C3B40377   9.254  22.998   7.950
 6357POPC   C4B40378   9.236  23.019   7.650
 6358POPC   NC340379   9.021   5.096   9.450
 6358POPC   PO440380   8.949   5.122   9.150
 6358POPC   GL140381   9.003   5.047   8.850
 6358POPC   GL240382   8.916   4.978   8.850
 6358POPC   C1A40383   8.944   5.051   8.550
 6358POPC   D2A40384   9.011   5.141   8.250
 6358POPC   C3A40385   8.970   5.134   7.950
 6358POPC   C4A40386   8.955   5.053   7.650
 6358POPC   C1B40387   8.741   4.951   8.550
 6358POPC   C2B40388   8.754   4.994   8.250
 6358POPC   C3B40389   8.737   4.934   7.950
 6358POPC   C4B40390   8.744   4.979   7.650
 6359POPC   NC340391  12.119  43.151   9.450
 6359POPC   PO440392  12.107  43.110   9.150
 6359POPC   GL140393  12.047  43.117   8.850
 6359POPC   GL240394  12.180  42.954   8.850
 6359POPC   C1A40395  12.084  43.126   8.550
 6359POPC   D2A40396  12.057  43.117   8.250
 6359POPC   C3A40397  12.078  43.064   7.950
 6359POPC   C4A40398  12.057  43.105   7.650
 6359POPC   C1B40399  12.247  42.869   8.550
 6359POPC   C2B40400  12.170  42.933   8.250
 6359POPC   C3B40401  12.170  42.936   7.950
 6359POPC   C4B40402  12.169  42.923   7.650
 6360POPC   NC340403  36.889  29.148   9.450
 6360POPC   PO440404  36.930  29.174   9.150
 6360POPC   GL140405  36.896  29.153   8.850
 6360POPC   GL240406  36.876  29.287   8.850
 6360POPC   C1A40407  36.949  29.147   8.550
 6360POPC   D2A40408  36.895  29.108   8.250
 6360POPC   C3A40409  36.940  29.120   7.950
 6360POPC   C4A40410  36.927  29.169   7.650
 6360POPC   C1B40411  36.949  29.367   8.550
 6360POPC   C2B40412  36.940  29.418   8.250
 6360POPC   C3B40413  36.916  29.436   7.950
 6360POPC   C4B40414  36.910  29.363   7.650
 6361POPC   NC340415   5.882  29.145   9.450
 6361POPC   PO440416   5.837  29.188   9.150
 6361POPC   GL140417   5.862  29.133   8.850
 6361POPC   GL240418   5.852  29.069   8.850
 6361POPC   C1A40419   5.824  29.163   8.550
 6361POPC   D2A40420   5.855  29.115   8.250
 6361POPC   C3A40421   5.827  29.157   7.950
 6361POPC   C4A40422   5.900  29.103   7.650
 6361POPC   C1B40423   5.822  28.871   8.550
 6361POPC   C2B40424   5.872  28.852   8.250
 6361POPC   C3B40425   5.862  28.857   7.950
 6361POPC   C4B40426   5.813  28.909   7.650
 6362POPC   NC340427  43.871  19.809   9.450
 6362POPC   PO440428  43.930  19.807   9.150
 6362POPC   GL140429  43.856  19.835   8.850
 6362POPC   GL240430  43.814  19.757   8.850
 6362POPC   C1A40431  43.877  19.849   8.550
 6362POPC   D2A40432  43.885  19.858   8.250
 6362POPC   C3A40433  43.865  19.839   7.950
 6362POPC   C4A40434  43.860  19.854   7.650
 6362POPC   C1B40435  43.705  19.640   8.550
 6362POPC   C2B40436  43.687  19.709   8.250
 6362POPC   C3B40437  43.655  19.697   7.950
 6362POPC   C4B40438  43.697  19.727   7.650
 6363POPC   NC340439  20.652  19.861   9.450
 6363POPC   PO440440  20.656  19.803   9.150
 6363POPC   GL140441  20.651  19.787   8.850
 6363POPC   GL240442  20.514  19.769   8.850
 6363POPC   C1A40443  20.631  19.856   8.550
 6363POPC   D2A40444  20.610  19.829   8.250
 6363POPC   C3A40445  20.580  19.800   7.950
 6363POPC   C4A40446  20.610  19.865   7.650
 6363POPC   C1B40447  20.387  19.683   8.550
 6363POPC   C2B40448  20.410  19.660   8.250
 6363POPC   C3B40449  20.448  19.642   7.950
 6363POPC   C4B40450  20.464  19.682   7.650
 6364POPC   NC340451   3.517  17.482   9.450
 6364POPC   PO440452   3.512  17.547   9.150
 6364POPC   GL140453   3.557  17.487   8.850
 6364POPC   GL240454   3.491  17.348   8.850
 6364POPC   C1A40455   3.532  17.556   8.550
 6364POPC   D2A40456   3.518  17.514   8.250
 6364POPC   C3A40457   3.516  17.489   7.950
 6364POPC   C4A40458   3.567  17.517   7.650
 6364POPC   C1B40459   3.497  17.213   8.550
 6364POPC   C2B40460   3.465  17.218   8.250
 6364POPC   C3B40461   3.538  17.278   7.950
 6364POPC   C4B40462   3.473  17.284   7.650
 6365POPC   NC340463  35.380  23.758   9.450
 6365POPC   PO440464  35.370  23.679   9.150
 6365POPC   GL140465  35.353  23.755   8.850
 6365POPC   GL240466  35.291  23.599   8.850
 6365POPC   C1A40467  35.370  23.700   8.550
 6365POPC   D2A40468  35.346  23.672   8.250
 6365POPC   C3A40469  35.319  23.717   7.950
 6365POPC   C4A40470  35.367  23.680   7.650
 6365POPC   C1B40471  35.203  23.458   8.550
 6365POPC   C2B40472  35.275  23.481   8.250
 6365POPC   C3B40473  35.208  23.499   7.950
 6365POPC   C4B40474  35.243  23.511   7.650
 6366POPC   NC340475  29.146  39.185   9.450
 6366POPC   PO440476  29.133  39.265   9.150
 6366POPC   GL140477  29.106  39.218   8.850
 6366POPC   GL240478  29.098  39.140   8.850
 6366POPC   C1A40479  29.176  39.196   8.550
 6366POPC   D2A40480  29.128  39.188   8.250
 6366POPC   C3A40481  29.095  39.261   7.950
 6366POPC   C4A40482  29.155  39.238   7.650
 6366POPC   C1B40483  29.030  39.069   8.550
 6366POPC   C2B40484  28.957  39.067   8.250
 6366POPC   C3B40485  28.997  38.979   7.950
 6366POPC   C4B40486  29.033  39.035   7.650
 6367POPC   NC340487  41.604  23.715   9.450
 6367POPC   PO440488  41.577  23.711   9.150
 6367POPC   GL140489  41.591  23.762   8.850
 6367POPC   GL240490  41.550  23.593   8.850
 6367POPC   C1A40491  41.583  23.709   8.550
 6367POPC   D2A40492  41.567  23.670   8.250
 6367POPC   C3A40493  41.514  23.667   7.950
 6367POPC   C4A40494  41.515  23.690   7.650
 6367POPC   C1B40495  41.449  23.472   8.550
 6367POPC   C2B40496  41.500  23.447   8.250
 6367POPC   C3B40497  41.480  23.507   7.950
 6367POPC   C4B40498  41.494  23.443   7.650
 6368POPC   NC340499   5.854  12.069   9.450
 6368POPC   PO440500   5.858  12.108   9.150
 6368POPC   GL140501   5.860  12.118   8.850
 6368POPC   GL240502   5.953  12.147   8.850
 6368POPC   C1A40503   5.829  12.122   8.550
 6368POPC   D2A40504   5.885  12.052   8.250
 6368POPC   C3A40505   5.878  12.125   7.950
 6368POPC   C4A40506   5.824  12.079   7.650
 6368POPC   C1B40507   6.010  12.210   8.550
 6368POPC   C2B40508   6.094  12.256   8.250
 6368POPC   C3B40509   6.034  12.265   7.950
 6368POPC   C4B40510   6.004  12.283   7.650
 6369POPC   NC340511  19.065   5.099   9.450
 6369POPC   PO440512  19.051   5.116   9.150
 6369POPC   GL140513  19.053   5.047   8.850
 6369POPC   GL240514  19.024   5.218   8.850
 6369POPC   C1A40515  19.060   5.110   8.550
 6369POPC   D2A40516  19.095   5.081   8.250
 6369POPC   C3A40517  19.021   5.130   7.950
 6369POPC   C4A40518  19.049   5.129   7.650
 6369POPC   C1B40519  18.937   5.351   8.550
 6369POPC   C2B40520  18.877   5.307   8.250
 6369POPC   C3B40521  18.908   5.340   7.950
 6369POPC   C4B40522  18.926   5.284   7.650
 6370POPC   NC340523  12.895  21.426   9.450
 6370POPC   PO440524  12.825  21.371   9.150
 6370POPC   GL140525  12.829  21.343   8.850
 6370POPC   GL240526  12.994  21.392   8.850
 6370POPC   C1A40527  12.822  21.406   8.550
 6370POPC   D2A40528  12.803  21.348   8.250
 6370POPC   C3A40529  12.880  21.401   7.950
 6370POPC   C4A40530  12.862  21.401   7.650
 6370POPC   C1B40531  13.112  21.460   8.550
 6370POPC   C2B40532  13.086  21.473   8.250
 6370POPC   C3B40533  13.100  21.437   7.950
 6370POPC   C4B40534  13.073  21.455   7.650
 6371POPC   NC340535  44.646  20.660   9.450
 6371POPC   PO440536  44.636  20.625   9.150
 6371POPC   GL140537  44.698  20.574   8.850
 6371POPC   GL240538  44.678  20.547   8.850
 6371POPC   C1A40539  44.711  20.578   8.550
 6371POPC   D2A40540  44.665  20.623   8.250
 6371POPC   C3A40541  44.669  20.563   7.950
 6371POPC   C4A40542  44.644  20.649   7.650
 6371POPC   C1B40543  44.759  20.378   8.550
 6371POPC   C2B40544  44.748  20.407   8.250
 6371POPC   C3B40545  44.750  20.418   7.950
 6371POPC   C4B40546  44.782  20.372   7.650
 6372POPC   NC340547  34.528  31.502   9.450
 6372POPC   PO440548  34.623  31.492   9.150
 6372POPC   GL140549  34.555  31.436   8.850
 6372POPC   GL240550  34.636  31.531   8.850
 6372POPC   C1A40551  34.609  31.520   8.550
 6372POPC   D2A40552  34.566  31.427   8.250
 6372POPC   C3A40553  34.623  31.487   7.950
 6372POPC   C4A40554  34.589  31.510   7.650
 6372POPC   C1B40555  34.771  31.650   8.550
 6372POPC   C2B40556  34.756  31.653   8.250
 6372POPC   C3B40557  34.806  31.631   7.950
 6372POPC   C4B40558  34.827  31.649   7.650
 6373POPC   NC340559  22.157  44.639   9.450
 6373POPC   PO440560  22.144  44.695   9.150
 6373POPC   GL140561  22.120  44.656   8.850
 6373POPC   GL240562  22.214  44.540   8.850
 6373POPC   C1A40563  22.181  44.645   8.550
 6373POPC   D2A40564  22.139  44.663   8.250
 6373POPC   C3A40565  22.206  44.707   7.950
 6373POPC   C4A40566  22.131  44.690   7.650
 6373POPC   C1B40567  22.230  44.390   8.550
 6373POPC   C2B40568  22.238  44.439   8.250
 6373POPC   C3B40569  22.250  44.389   7.950
 6373POPC   C4B40570  22.245  44.377   7.650
 6374POPC   NC340571  11.305   6.665   9.450
 6374POPC   PO440572  11.308   6.648   9.150
 6374POPC   GL140573  11.260   6.684   8.850
 6374POPC   GL240574  11.293   6.786   8.850
 6374POPC   C1A40575  11.256   6.668   8.550
 6374POPC   D2A40576  11.342   6.603   8.250
 6374POPC   C3A40577  11.315   6.657   7.950
 6374POPC   C4A40578  11.338   6.611   7.650
 6374POPC   C1B40579  11.179   6.878   8.550
 6374POPC   C2B40580  11.194   6.844   8.250
 6374POPC   C3B40581  11.228   6.847   7.950
 6374POPC   C4B40582  11.205   6.840   7.650
 6375POPC   NC340583  20.634  17.551   9.450
 6375POPC   PO440584  20.570  17.540   9.150
 6375POPC   GL140585  20.580  17.495   8.850
 6375POPC   GL240586  20.666  17.672   8.850
 6375POPC   C1A40587  20.634  17.530   8.550
 6375POPC   D2A40588  20.642  17.506   8.250
 6375POPC   C3A40589  20.645  17.556   7.950
 6375POPC   C4A40590  20.659  17.478   7.650
 6375POPC   C1B40591  20.673  17.751   8.550
 6375POPC   C2B40592  20.636  17.767   8.250
 6375POPC   C3B40593  20.710  17.747   7.950
 6375POPC   C4B40594  20.712  17.752   7.650
 6376POPC   NC340595  24.520  22.956   9.450
 6376POPC   PO440596  24.537  22.986   9.150
 6376POPC   GL140597  24.503  22.897   8.850
 6376POPC   GL240598  24.580  23.063   8.850
 6376POPC   C1A40599  24.512  22.891   8.550
 6376POPC   D2A40600  24.453  22.923   8.250
 6376POPC   C3A40601  24.442  22.888   7.950
 6376POPC   C4A40602  24.492  22.951   7.650
 6376POPC   C1B40603  24.632  23.210   8.550
 6376POPC   C2B40604  24.542  23.190   8.250
 6376POPC   C3B40605  24.628  23.180   7.950
 6376POPC   C4B40606  24.603  23.138   7.650
 6377POPC   NC340607   2.790   1.947   9.450
 6377POPC   PO440608   2.743   1.998   9.150
 6377POPC   GL140609   2.787   1.989   8.850
 6377POPC   GL240610   2.721   2.062   8.850
 6377POPC   C1A40611   2.749   2.025   8.550
 6377POPC   D2A40612   2.757   1.991   8.250
 6377POPC   C3A40613   2.787   1.947   7.950
 6377POPC   C4A40614   2.725   1.993   7.650
 6377POPC   C1B40615   2.646   2.200   8.550
 6377POPC   C2B40616   2.576   2.154   8.250
 6377POPC   C3B40617   2.646   2.211   7.950
 6377POPC   C4B40618   2.627   2.177   7.650
 6378POPC   NC340619   5.909  11.308   9.450
 6378POPC   PO440620   5.902  11.303   9.150
 6378POPC   GL140621   5.858  11.271   8.850
 6378POPC   GL240622   5.929  11.157   8.850
 6378POPC   C1A40623   5.848  11.280   8.550
 6378POPC   D2A40624   5.858  11.250   8.250
 6378POPC   C3A40625   5.827  11.275   7.950
 6378POPC   C4A40626   5.865  11.297   7.650
 6378POPC   C1B40627   5.990  11.081   8.550
 6378POPC   C2B40628   6.022  11.051   8.250
 6378POPC   C3B40629   5.951  11.033   7.950
 6378POPC   C4B40630   5.978  11.125   7.650
 6379POPC   NC340631  41.537  19.093   5.550
 6379POPC   PO440632  41.586  19.050   5.850
 6379POPC   GL140633  41.509  19.052   6.150
 6379POPC   GL240634  41.469  18.996   6.150
 6379POPC   C1A40635  41.517  19.009   6.450
 6379POPC   D2A40636  41.541  19.096   6.750
 6379POPC   C3A40637  41.582  19.015   7.050
 6379POPC   C4A40638  41.568  19.012   7.350
 6379POPC   C1B40639  41.341  18.972   6.450
 6379POPC   C2B40640  41.378  18.991   6.750
 6379POPC   C3B40641  41.295  18.956   7.050
 6379POPC   C4B40642  41.311  18.932   7.350
 6380POPC   NC340643  39.239  20.600   5.550
 6380POPC   PO440644  39.202  20.572   5.850
 6380POPC   GL140645  39.252  20.564   6.150
 6380POPC   GL240646  39.351  20.533   6.150
 6380POPC   C1A40647  39.266  20.603   6.450
 6380POPC   D2A40648  39.198  20.587   6.750
 6380POPC   C3A40649  39.238  20.641   7.050
 6380POPC   C4A40650  39.234  20.599   7.350
 6380POPC   C1B40651  39.384  20.403   6.450
 6380POPC   C2B40652  39.364  20.438   6.750
 6380POPC   C3B40653  39.348  20.380   7.050
 6380POPC   C4B40654  39.403  20.432   7.350
 6381POPC   NC340655  44.693  24.458   5.550
 6381POPC   PO440656  44.712  24.466   5.850
 6381POPC   GL140657  44.617  24.533   6.150
 6381POPC   GL240658  44.787  24.374   6.150
 6381POPC   C1A40659  44.710  24.539   6.450
 6381POPC   D2A40660  44.684  24.449   6.750
 6381POPC   C3A40661  44.688  24.538   7.050
 6381POPC   C4A40662  44.631  24.517   7.350
 6381POPC   C1B40663  44.841  24.348   6.450
 6381POPC   C2B40664  44.867  24.322   6.750
 6381POPC   C3B40665  44.855  24.309   7.050
 6381POPC   C4B40666  44.805  24.282   7.350
 6382POPC   NC340667  43.129  22.908   5.550
 6382POPC   PO440668  43.098  22.937   5.850
 6382POPC   GL140669  43.147  22.968   6.150
 6382POPC   GL240670  43.104  23.005   6.150
 6382POPC   C1A40671  43.083  22.891   6.450
 6382POPC   D2A40672  43.143  22.980   6.750
 6382POPC   C3A40673  43.088  22.960   7.050
 6382POPC   C4A40674  43.113  22.938   7.350
 6382POPC   C1B40675  42.985  23.178   6.450
 6382POPC   C2B40676  43.006  23.171   6.750
 6382POPC   C3B40677  43.022  23.158   7.050
 6382POPC   C4B40678  43.043  23.127   7.350
 6383POPC   NC340679  26.808  44.700   5.550
 6383POPC   PO440680  26.850  44.619   5.850
 6383POPC   GL140681  26.836  44.682   6.150
 6383POPC   GL240682  26.715  44.627   6.150
 6383POPC   C1A40683  26.778  44.704   6.450
 6383POPC   D2A40684  26.812  44.668   6.750
 6383POPC   C3A40685  26.855  44.664   7.050
 6383POPC   C4A40686  26.805  44.650   7.350
 6383POPC   C1B40687  26.631  44.532   6.450
 6383POPC   C2B40688  26.625  44.538   6.750
 6383POPC   C3B40689  26.633  44.464   7.050
 6383POPC   C4B40690  26.582  44.524   7.350
 6384POPC   NC340691  35.350  33.807   5.550
 6384POPC   PO440692  35.306  33.832   5.850
 6384POPC   GL140693  35.326  33.753   6.150
 6384POPC   GL240694  35.271  33.789   6.150
 6384POPC   C1A40695  35.373  33.797   6.450
 6384POPC   D2A40696  35.366  33.830   6.750
 6384POPC   C3A40697  35.352  33.844   7.050
 6384POPC   C4A40698  35.317  33.809   7.350
 6384POPC   C1B40699  35.122  33.801   6.450
 6384POPC   C2B40700  35.065  33.743   6.750
 6384POPC   C3B40701  35.132  33.803   7.050
 6384POPC   C4B40702  35.091  33.809   7.350
 6385POPC   NC340703   6.613  22.151   5.550
 6385POPC   PO440704   6.663  22.121   5.850
 6385POPC   GL140705   6.674  22.154   6.150
 6385POPC   GL240706   6.722  22.082   6.150
 6385POPC   C1A40707   6.617  22.123   6.450
 6385POPC   D2A40708   6.608  22.184   6.750
 6385POPC   C3A40709   6.624  22.205   7.050
 6385POPC   C4A40710   6.611  22.211   7.350
 6385POPC   C1B40711   6.882  22.058   6.450
 6385POPC   C2B40712   6.846  22.088   6.750
 6385POPC   C3B40713   6.908  22.084   7.050
 6385POPC   C4B40714   6.891  22.031   7.350
 6386POPC   NC340715   9.018  32.984   5.550
 6386POPC   PO440716   8.933  33.060   5.850
 6386POPC   GL140717   8.951  33.073   6.150
 6386POPC   GL240718   9.070  32.945   6.150
 6386POPC   C1A40719   8.953  33.025   6.450
 6386POPC   D2A40720   8.939  32.991   6.750
 6386POPC   C3A40721   8.992  33.066   7.050
 6386POPC   C4A40722   8.951  33.063   7.350
 6386POPC   C1B40723   9.151  32.820   6.450
 6386POPC   C2B40724   9.095  32.842   6.750
 6386POPC   C3B40725   9.104  32.825   7.050
 6386POPC   C4B40726   9.083  32.809   7.350
 6387POPC   NC340727  11.347  12.862   5.550
 6387POPC   PO440728  11.288  12.853   5.850
 6387POPC   GL140729  11.286  12.844   6.150
 6387POPC   GL240730  11.451  12.871   6.150
 6387POPC   C1A40731  11.256  12.828   6.450
 6387POPC   D2A40732  11.287  12.859   6.750
 6387POPC   C3A40733  11.272  12.829   7.050
 6387POPC   C4A40734  11.264  12.846   7.350
 6387POPC   C1B40735  11.519  12.920   6.450
 6387POPC   C2B40736  11.503  12.850   6.750
 6387POPC   C3B40737  11.578  12.897   7.050
 6387POPC   C4B40738  11.498  12.888   7.350
 6388POPC   NC340739   1.198  37.651   5.550
 6388POPC   PO440740   1.213  37.721   5.850
 6388POPC   GL140741   1.199  37.702   6.150
 6388POPC   GL240742   1.298  37.797   6.150
 6388POPC   C1A40743   1.192  37.688   6.450
 6388POPC   D2A40744   1.263  37.724   6.750
 6388POPC   C3A40745   1.170  37.661   7.050
 6388POPC   C4A40746   1.190  37.713   7.350
 6388POPC   C1B40747   1.335  37.935   6.450
 6388POPC   C2B40748   1.351  37.874   6.750
 6388POPC   C3B40749   1.287  37.886   7.050
 6388POPC   C4B40750   1.320  37.875   7.350
 6389POPC   NC340751   1.970  27.638   5.550
 6389POPC   PO440752   1.955  27.619   5.850
 6389POPC   GL140753   1.956  27.581   6.150
 6389POPC   GL240754   1.878  27.594   6.150
 6389POPC   C1A40755   2.017  27.618   6.450
 6389POPC   D2A40756   1.981  27.573   6.750
 6389POPC   C3A40757   2.031  27.546   7.050
 6389POPC   C4A40758   2.008  27.634   7.350
 6389POPC   C1B40759   1.763  27.569   6.450
 6389POPC   C2B40760   1.789  27.513   6.750
 6389POPC   C3B40761   1.740  27.508   7.050
 6389POPC   C4B40762   1.738  27.508   7.350
 6390POPC   NC340763  36.153   5.112   5.550
 6390POPC   PO440764  36.116   5.059   5.850
 6390POPC   GL140765  36.080   5.058   6.150
 6390POPC   GL240766  36.196   4.984   6.150
 6390POPC   C1A40767  36.107   5.080   6.450
 6390POPC   D2A40768  36.083   5.121   6.750
 6390POPC   C3A40769  36.104   5.127   7.050
 6390POPC   C4A40770  36.172   5.106   7.350
 6390POPC   C1B40771  36.169   4.852   6.450
 6390POPC   C2B40772  36.166   4.871   6.750
 6390POPC   C3B40773  36.192   4.862   7.050
 6390POPC   C4B40774  36.219   4.822   7.350
 6391POPC   NC340775  43.062  19.068   5.550
 6391POPC   PO440776  43.124  19.041   5.850
 6391POPC   GL140777  43.092  19.099   6.150
 6391POPC   GL240778  43.177  19.136   6.150
 6391POPC   C1A40779  43.068  19.082   6.450
 6391POPC   D2A40780  43.140  19.076   6.750
 6391POPC   C3A40781  43.098  19.064   7.050
 6391POPC   C4A40782  43.158  19.101   7.350
 6391POPC   C1B40783  43.349  19.187   6.450
 6391POPC   C2B40784  43.284  19.199   6.750
 6391POPC   C3B40785  43.292  19.165   7.050
 6391POPC   C4B40786  43.366  19.127   7.350
 6392POPC   NC340787  24.467  43.898   5.550
 6392POPC   PO440788  24.452  43.871   5.850
 6392POPC   GL140789  24.518  43.930   6.150
 6392POPC   GL240790  24.380  43.895   6.150
 6392POPC   C1A40791  24.496  43.933   6.450
 6392POPC   D2A40792  24.451  43.897   6.750
 6392POPC   C3A40793  24.538  43.869   7.050
 6392POPC   C4A40794  24.537  43.880   7.350
 6392POPC   C1B40795  24.202  43.926   6.450
 6392POPC   C2B40796  24.200  43.852   6.750
 6392POPC   C3B40797  24.260  43.851   7.050
 6392POPC   C4B40798  24.263  43.924   7.350
 6393POPC   NC340799  39.270  19.855   5.550
 6393POPC   PO440800  39.206  19.859   5.850
 6393POPC   GL140801  39.243  19.791   6.150
 6393POPC   GL240802  39.072  19.801   6.150
 6393POPC   C1A40803  39.278  19.798   6.450
 6393POPC   D2A40804  39.236  19.809   6.750
 6393POPC   C3A40805  39.210  19.849   7.050
 6393POPC   C4A40806  39.208  19.849   7.350
 6393POPC   C1B40807  38.956  19.769   6.450
 6393POPC   C2B40808  38.987  19.749   6.750
 6393POPC   C3B40809  38.975  19.780   7.050
 6393POPC   C4B40810  38.944  19.748   7.350
 6394POPC   NC340811   1.209  39.194   5.550
 6394POPC   PO440812   1.204  39.229   5.850
 6394POPC   GL140813   1.175  39.215   6.150
 6394POPC   GL240814   1.210  39.301   6.150
 6394POPC   C1A40815   1.209  39.264   6.450
 6394POPC   D2A40816   1.172  39.226   6.750
 6394POPC   C3A40817   1.172  39.192   7.050
 6394POPC   C4A40818   1.220  39.275   7.350
 6394POPC   C1B40819   1.262  39.452   6.450
 6394POPC   C2B40820   1.306  39.453   6.750
 6394POPC   C3B40821   1.250  39.511   7.050
 6394POPC   C4B40822   1.325  39.479   7.350
 6395POPC   NC340823   3.579  36.877   5.550
 6395POPC   PO440824   3.492  36.905   5.850
 6395POPC   GL140825   3.503  36.858   6.150
 6395POPC   GL240826   3.459  36.956   6.150
 6395POPC   C1A40827   3.504  36.890   6.450
 6395POPC   D2A40828   3.546  36.929   6.750
 6395POPC   C3A40829   3.508  36.927   7.050
 6395POPC   C4A40830   3.520  36.856   7.350
 6395POPC   C1B40831   3.413  37.106   6.450
 6395POPC   C2B40832   3.385  37.061   6.750
 6395POPC   C3B40833   3.346  37.094   7.050
 6395POPC   C4B40834   3.428  37.075   7.350
 6396POPC   NC340835  15.969  31.512   5.550
 6396POPC   PO440836  15.965  31.426   5.850
 6396POPC   GL140837  15.949  31.467   6.150
 6396POPC   GL240838  16.089  31.440   6.150
 6396POPC   C1A40839  15.964  31.507   6.450
 6396POPC   D2A40840  15.995  31.432   6.750
 6396POPC   C3A40841  15.947  31.476   7.050
 6396POPC   C4A40842  15.957  31.490   7.350
 6396POPC   C1B40843  16.206  31.516   6.450
 6396POPC   C2B40844  16.166  31.516   6.750
 6396POPC   C3B40845  16.240  31.503   7.050
 6396POPC   C4B40846  16.171  31.480   7.350
 6397POPC   NC340847  12.086  17.465   5.550
 6397POPC   PO440848  12.104  17.534   5.850
 6397POPC   GL140849  12.057  17.492   6.150
 6397POPC   GL240850  12.213  17.419   6.150
 6397POPC   C1A40851  12.075  17.522   6.450
 6397POPC   D2A40852  12.038  17.540   6.750
 6397POPC   C3A40853  12.032  17.504   7.050
 6397POPC   C4A40854  12.091  17.551   7.350
 6397POPC   C1B40855  12.275  17.376   6.450
 6397POPC   C2B40856  12.299  17.411   6.750
 6397POPC   C3B40857  12.267  17.404   7.050
 6397POPC   C4B40858  12.290  17.376   7.350
 6398POPC   NC340859   5.136  34.604   5.550
 6398POPC   PO440860   5.045  34.603   5.850
 6398POPC   GL140861   5.129  34.560   6.150
 6398POPC   GL240862   5.015  34.591   6.150
 6398POPC   C1A40863   5.135  34.550   6.450
 6398POPC   D2A40864   5.095  34.601   6.750
 6398POPC   C3A40865   5.122  34.617   7.050
 6398POPC   C4A40866   5.084  34.563   7.350
 6398POPC   C1B40867   4.830  34.674   6.450
 6398POPC   C2B40868   4.819  34.616   6.750
 6398POPC   C3B40869   4.840  34.589   7.050
 6398POPC   C4B40870   4.858  34.670   7.350
 6399POPC   NC340871  29.116   0.456   5.550
 6399POPC   PO440872  29.166   0.395   5.850
 6399POPC   GL140873  29.156   0.446   6.150
 6399POPC   GL240874  29.004   0.560   6.150
 6399POPC   C1A40875  29.116   0.467   6.450
 6399POPC   D2A40876  29.139   0.431   6.750
 6399POPC   C3A40877  29.132   0.419   7.050
 6399POPC   C4A40878  29.128   0.424   7.350
 6399POPC   C1B40879  28.925   0.537   6.450
 6399POPC   C2B40880  28.940   0.541   6.750
 6399POPC   C3B40881  28.920   0.597   7.050
 6399POPC   C4B40882  28.979   0.624   7.350
 6400POPC   NC340883  27.643  28.389   5.550
 6400POPC   PO440884  27.615  28.327   5.850
 6400POPC   GL140885  27.626  28.320   6.150
 6400POPC   GL240886  27.652  28.205   6.150
 6400POPC   C1A40887  27.633  28.391   6.450
 6400POPC   D2A40888  27.622  28.370   6.750
 6400POPC   C3A40889  27.569  28.320   7.050
 6400POPC   C4A40890  27.615  28.417   7.350
 6400POPC   C1B40891  27.651  28.103   6.450
 6400POPC   C2B40892  27.645  28.107   6.750
 6400POPC   C3B40893  27.657  28.155   7.050
 6400POPC   C4B40894  27.644  28.182   7.350
 6401POPC   NC340895  41.522   5.913   5.550
 6401POPC   PO440896  41.530   5.837   5.850
 6401POPC   GL140897  41.513   5.836   6.150
 6401POPC   GL240898  41.731   5.928   6.150
 6401POPC   C1A40899  41.511   5.915   6.450
 6401POPC   D2A40900  41.549   5.843   6.750
 6401POPC   C3A40901  41.547   5.912   7.050
 6401POPC   C4A40902  41.564   5.917   7.350
 6401POPC   C1B40903  41.794   5.962   6.450
 6401POPC   C2B40904  41.769   5.897   6.750
 6401POPC   C3B40905  41.805   5.956   7.050
 6401POPC   C4B40906  41.817   5.895   7.350
 6402POPC   NC340907   2.730  36.079   5.550
 6402POPC   PO440908   2.781  36.141   5.850
 6402POPC   GL140909   2.800  36.144   6.150
 6402POPC   GL240910   2.766  36.236   6.150
 6402POPC   C1A40911   2.794  36.129   6.450
 6402POPC   D2A40912   2.751  36.127   6.750
 6402POPC   C3A40913   2.770  36.135   7.050
 6402POPC   C4A40914   2.770  36.162   7.350
 6402POPC   C1B40915   2.787  36.420   6.450
 6402POPC   C2B40916   2.773  36.329   6.750
 6402POPC   C3B40917   2.840  36.386   7.050
 6402POPC   C4B40918   2.817  36.379   7.350
 6403POPC   NC340919  26.048  35.335   5.550
 6403POPC   PO440920  26.002  35.316   5.850
 6403POPC   GL140921  26.046  35.317   6.150
 6403POPC   GL240922  26.108  35.259   6.150
 6403POPC   C1A40923  26.004  35.348   6.450
 6403POPC   D2A40924  26.010  35.339   6.750
 6403POPC   C3A40925  26.025  35.368   7.050
 6403POPC   C4A40926  26.009  35.376   7.350
 6403POPC   C1B40927  26.264  35.219   6.450
 6403POPC   C2B40928  26.283  35.203   6.750
 6403POPC   C3B40929  26.283  35.202   7.050
 6403POPC   C4B40930  26.235  35.275   7.350
 6404POPC   NC340931  27.581  31.461   5.550
 6404POPC   PO440932  27.572  31.495   5.850
 6404POPC   GL140933  27.586  31.480   6.150
 6404POPC   GL240934  27.470  31.483   6.150
 6404POPC   C1A40935  27.580  31.461   6.450
 6404POPC   D2A40936  27.617  31.426   6.750
 6404POPC   C3A40937  27.564  31.465   7.050
 6404POPC   C4A40938  27.638  31.488   7.350
 6404POPC   C1B40939  27.348  31.450   6.450
 6404POPC   C2B40940  27.315  31.486   6.750
 6404POPC   C3B40941  27.296  31.468   7.050
 6404POPC   C4B40942  27.315  31.437   7.350
 6405POPC   NC340943  15.163  14.422   5.550
 6405POPC   PO440944  15.189  14.439   5.850
 6405POPC   GL140945  15.206  14.378   6.150
 6405POPC   GL240946  15.186  14.546   6.150
 6405POPC   C1A40947  15.188  14.394   6.450
 6405POPC   D2A40948  15.168  14.450   6.750
 6405POPC   C3A40949  15.206  14.359   7.050
 6405POPC   C4A40950  15.148  14.377   7.350
 6405POPC   C1B40951  15.311  14.672   6.450
 6405POPC   C2B40952  15.296  14.607   6.750
 6405POPC   C3B40953  15.262  14.654   7.050
 6405POPC   C4B40954  15.243  14.683   7.350
 6406POPC   NC340955   0.407  31.449   5.550
 6406POPC   PO440956   0.457  31.515   5.850
 6406POPC   GL140957   0.390  31.443   6.150
 6406POPC   GL240958   0.521  31.497   6.150
 6406POPC   C1A40959   0.418  31.515   6.450
 6406POPC   D2A40960   0.478  31.467   6.750
 6406POPC   C3A40961   0.445  31.500   7.050
 6406POPC   C4A40962   0.392  31.470   7.350
 6406POPC   C1B40963   0.622  31.590   6.450
 6406POPC   C2B40964   0.685  31.635   6.750
 6406POPC   C3B40965   0.631  31.586   7.050
 6406POPC   C4B40966   0.666  31.626   7.350
 6407POPC   NC340967  32.225  17.500   5.550
 6407POPC   PO440968  32.278  17.466   5.850
 6407POPC   GL140969  32.294  17.539   6.150
 6407POPC   GL240970  32.356  17.505   6.150
 6407POPC   C1A40971  32.256  17.509   6.450
 6407POPC   D2A40972  32.243  17.497   6.750
 6407POPC   C3A40973  32.271  17.490   7.050
 6407POPC   C4A40974  32.219  17.551   7.350
 6407POPC   C1B40975  32.527  17.544   6.450
 6407POPC   C2B40976  32.490  17.517   6.750
 6407POPC   C3B40977  32.511  17.575   7.050
 6407POPC   C4B40978  32.486  17.490   7.350
 6408POPC   NC340979   8.166  29.944   5.550
 6408POPC   PO440980   8.210  29.877   5.850
 6408POPC   GL140981   8.215  29.919   6.150
 6408POPC   GL240982   8.325  29.988   6.150
 6408POPC   C1A40983   8.198  29.961   6.450
 6408POPC   D2A40984   8.191  29.968   6.750
 6408POPC   C3A40985   8.216  29.957   7.050
 6408POPC   C4A40986   8.157  29.922   7.350
 6408POPC   C1B40987   8.424  30.007   6.450
 6408POPC   C2B40988   8.468  30.034   6.750
 6408POPC   C3B40989   8.377  30.056   7.050
 6408POPC   C4B40990   8.460  29.999   7.350
 6409POPC   NC340991  32.261  13.603   5.550
 6409POPC   PO440992  32.267  13.657   5.850
 6409POPC   GL140993  32.275  13.656   6.150
 6409POPC   GL240994  32.346  13.624   6.150
 6409POPC   C1A40995  32.237  13.668   6.450
 6409POPC   D2A40996  32.264  13.578   6.750
 6409POPC   C3A40997  32.293  13.670   7.050
 6409POPC   C4A40998  32.287  13.665   7.350
 6409POPC   C1B40999  32.502  13.662   6.450
 6409POPC   C2B41000  32.512  13.698   6.750
 6409POPC   C3B41001  32.460  13.691   7.050
 6409POPC   C4B41002  32.512  13.643   7.350
 6410POPC   NC341003   8.163  44.630   5.550
 6410POPC   PO441004   8.175  44.707   5.850
 6410POPC   GL141005   8.190  44.623   6.150
 6410POPC   GL241006   8.285  44.544   6.150
 6410POPC   C1A41007   8.168  44.687   6.450
 6410POPC   D2A41008   8.175  44.706   6.750
 6410POPC   C3A41009   8.172  44.705   7.050
 6410POPC   C4A41010   8.205  44.635   7.350
 6410POPC   C1B41011   8.291  44.452   6.450
 6410POPC   C2B41012   8.300  44.448   6.750
 6410POPC   C3B41013   8.326  44.417   7.050
 6410POPC   C4B41014   8.343  44.411   7.350
 6411POPC   NC341015  13.665   8.222   5.550
 6411POPC   PO441016  13.619   8.165   5.850
 6411POPC   GL141017  13.656   8.199   6.150
 6411POPC   GL241018  13.686   8.037   6.150
 6411POPC   C1A41019  13.674   8.210   6.450
 6411POPC   D2A41020  13.608   8.205   6.750
 6411POPC   C3A41021  13.619   8.234   7.050
 6411POPC   C4A41022  13.610   8.222   7.350
 6411POPC   C1B41023  13.763   7.973   6.450
 6411POPC   C2B41024  13.741   7.918   6.750
 6411POPC   C3B41025  13.685   7.950   7.050
 6411POPC   C4B41026  13.742   7.968   7.350
 6412POPC   NC341027  11.331  39.199   5.550
 6412POPC   PO441028  11.323  39.237   5.850
 6412POPC   GL141029  11.266  39.254   6.150
 6412POPC   GL241030  11.128  39.176   6.150
 6412POPC   C1A41031  11.346  39.264   6.450
 6412POPC   D2A41032  11.263  39.213   6.750
 6412POPC   C3A41033  11.268  39.245   7.050
 6412POPC   C4A41034  11.268  39.239   7.350
 6412POPC   C1B41035  11.011  39.233   6.450
 6412POPC   C2B41036  11.048  39.151   6.750
 6412POPC   C3B41037  11.006  39.146   7.050
 6412POPC   C4B41038  11.032  39.139   7.350
 6413POPC   NC341039  36.145  40.027   5.550
 6413POPC   PO441040  36.142  40.009   5.850
 6413POPC   GL141041  36.131  40.051   6.150
 6413POPC   GL241042  36.245  40.048   6.150
 6413POPC   C1A41043  36.103  40.012   6.450
 6413POPC   D2A41044  36.090  40.036   6.750
 6413POPC   C3A41045  36.154  39.960   7.050
 6413POPC   C4A41046  36.094  39.984   7.350
 6413POPC   C1B41047  36.297  40.190   6.450
 6413POPC   C2B41048  36.327  40.156   6.750
 6413POPC   C3B41049  36.290  40.196   7.050
 6413POPC   C4B41050  36.378  40.177   7.350
 6414POPC   NC341051  36.901  23.737   5.550
 6414POPC   PO441052  36.868  23.692   5.850
 6414POPC   GL141053  36.924  23.692   6.150
 6414POPC   GL241054  37.003  23.625   6.150
 6414POPC   C1A41055  36.912  23.698   6.450
 6414POPC   D2A41056  36.856  23.762   6.750
 6414POPC   C3A41057  36.922  23.702   7.050
 6414POPC   C4A41058  36.890  23.724   7.350
 6414POPC   C1B41059  37.079  23.588   6.450
 6414POPC   C2B41060  37.106  23.534   6.750
 6414POPC   C3B41061  37.064  23.496   7.050
 6414POPC   C4B41062  37.041  23.512   7.350
 6415POPC   NC341063  36.901  42.292   5.550
 6415POPC   PO441064  36.909  42.357   5.850
 6415POPC   GL141065  36.891  42.369   6.150
 6415POPC   GL241066  36.865  42.436   6.150
 6415POPC   C1A41067  36.861  42.382   6.450
 6415POPC   D2A41068  36.930  42.318   6.750
 6415POPC   C3A41069  36.854  42.304   7.050
 6415POPC   C4A41070  36.864  42.379   7.350
 6415POPC   C1B41071  36.885  42.595   6.450
 6415POPC   C2B41072  36.865  42.565   6.750
 6415POPC   C3B41073  36.900  42.600   7.050
 6415POPC   C4B41074  36.855  42.593   7.350
 6416POPC   NC341075  22.189   3.546   5.550
 6416POPC   PO441076  22.131   3.570   5.850
 6416POPC   GL141077  22.210   3.531   6.150
 6416POPC   GL241078  22.036   3.444   6.150
 6416POPC   C1A41079  22.132   3.560   6.450
 6416POPC   D2A41080  22.124   3.526   6.750
 6416POPC   C3A41081  22.201   3.541   7.050
 6416POPC   C4A41082  22.209   3.583   7.350
 6416POPC   C1B41083  21.983   3.376   6.450
 6416POPC   C2B41084  21.996   3.379   6.750
 6416POPC   C3B41085  21.977   3.418   7.050
 6416POPC   C4B41086  21.955   3.448   7.350
 6417POPC   NC341087  31.517  25.228   5.550
 6417POPC   PO441088  31.438  25.254   5.850
 6417POPC   GL141089  31.441  25.289   6.150
 6417POPC   GL241090  31.320  25.318   6.150
 6417POPC   C1A41091  31.426  25.312   6.450
 6417POPC   D2A41092  31.446  25.218   6.750
 6417POPC   C3A41093  31.445  25.220   7.050
 6417POPC   C4A41094  31.457  25.265   7.350
 6417POPC   C1B41095  31.208  25.268   6.450
 6417POPC   C2B41096  31.227  25.330   6.750
 6417POPC   C3B41097  31.223  25.275   7.050
 6417POPC   C4B41098  31.197  25.331   7.350
 6418POPC   NC341099  24.491   2.803   5.550
 6418POPC   PO441100  24.500   2.754   5.850
 6418POPC   GL141101  24.513   2.738   6.150
 6418POPC   GL241102  24.365   2.783   6.150
 6418POPC   C1A41103  24.535   2.797   6.450
 6418POPC   D2A41104  24.446   2.778   6.750
 6418POPC   C3A41105  24.535   2.768   7.050
 6418POPC   C4A41106  24.476   2.753   7.350
 6418POPC   C1B41107  24.198   2.756   6.450
 6418POPC   C2B41108  24.274   2.776   6.750
 6418POPC   C3B41109  24.205   2.801   7.050
 6418POPC   C4B41110  24.262   2.794   7.350
 6419POPC   NC341111  12.108  40.757   5.550
 6419POPC   PO441112  12.115  40.742   5.850
 6419POPC   GL141113  12.118  40.733   6.150
 6419POPC   GL241114  11.936  40.753   6.150
 6419POPC   C1A41115  12.113  40.781   6.450
 6419POPC   D2A41116  12.118  40.779   6.750
 6419POPC   C3A41117  12.123  40.744   7.050
 6419POPC   C4A41118  12.036  40.828   7.350
 6419POPC   C1B41119  11.879  40.606   6.450
 6419POPC   C2B41120  11.866  40.684   6.750
 6419POPC   C3B41121  11.854  40.671   7.050
 6419POPC   C4B41122  11.912  40.615   7.350
 6420POPC   NC341123  36.867  37.646   5.550
 6420POPC   PO441124  36.915  37.698   5.850
 6420POPC   GL141125  36.916  37.663   6.150
 6420POPC   GL241126  37.016  37.679   6.150
 6420POPC   C1A41127  36.895  37.677   6.450
 6420POPC   D2A41128  36.900  37.636   6.750
 6420POPC   C3A41129  36.870  37.708   7.050
 6420POPC   C4A41130  36.936  37.650   7.350
 6420POPC   C1B41131  37.122  37.758   6.450
 6420POPC   C2B41132  37.115  37.719   6.750
 6420POPC   C3B41133  37.161  37.718   7.050
 6420POPC   C4B41134  37.189  37.712   7.350
 6421POPC   NC341135   0.396  18.310   5.550
 6421POPC   PO441136   0.453  18.264   5.850
 6421POPC   GL141137   0.428  18.262   6.150
 6421POPC   GL241138   0.312  18.311   6.150
 6421POPC   C1A41139   0.465  18.250   6.450
 6421POPC   D2A41140   0.432  18.333   6.750
 6421POPC   C3A41141   0.459  18.313   7.050
 6421POPC   C4A41142   0.453  18.266   7.350
 6421POPC   C1B41143   0.275  18.377   6.450
 6421POPC   C2B41144   0.236  18.425   6.750
 6421POPC   C3B41145   0.185  18.435   7.050
 6421POPC   C4B41146   0.257  18.425   7.350
 6422POPC   NC341147  16.746   5.137   5.550
 6422POPC   PO441148  16.709   5.085   5.850
 6422POPC   GL141149  16.762   5.075   6.150
 6422POPC   GL241150  16.769   5.210   6.150
 6422POPC   C1A41151  16.754   5.134   6.450
 6422POPC   D2A41152  16.758   5.113   6.750
 6422POPC   C3A41153  16.702   5.052   7.050
 6422POPC   C4A41154  16.710   5.121   7.350
 6422POPC   C1B41155  16.704   5.364   6.450
 6422POPC   C2B41156  16.662   5.313   6.750
 6422POPC   C3B41157  16.724   5.334   7.050
 6422POPC   C4B41158  16.720   5.381   7.350
 6423POPC   NC341159   7.419   3.539   5.550
 6423POPC   PO441160   7.414   3.501   5.850
 6423POPC   GL141161   7.468   3.572   6.150
 6423POPC   GL241162   7.576   3.542   6.150
 6423POPC   C1A41163   7.409   3.543   6.450
 6423POPC   D2A41164   7.432   3.591   6.750
 6423POPC   C3A41165   7.381   3.576   7.050
 6423POPC   C4A41166   7.388   3.540   7.350
 6423POPC   C1B41167   7.670   3.507   6.450
 6423POPC   C2B41168   7.666   3.594   6.750
 6423POPC   C3B41169   7.623   3.549   7.050
 6423POPC   C4B41170   7.671   3.518   7.350
 6424POPC   NC341171  16.773  35.306   5.550
 6424POPC   PO441172  16.757  35.363   5.850
 6424POPC   GL141173  16.740  35.327   6.150
 6424POPC   GL241174  16.759  35.423   6.150
 6424POPC   C1A41175  16.702  35.346   6.450
 6424POPC   D2A41176  16.730  35.323   6.750
 6424POPC   C3A41177  16.780  35.312   7.050
 6424POPC   C4A41178  16.725  35.376   7.350
 6424POPC   C1B41179  16.790  35.621   6.450
 6424POPC   C2B41180  16.808  35.567   6.750
 6424POPC   C3B41181  16.775  35.590   7.050
 6424POPC   C4B41182  16.834  35.560   7.350
 6425POPC   NC341183  33.777  23.728   5.550
 6425POPC   PO441184  33.810  23.745   5.850
 6425POPC   GL141185  33.788  23.676   6.150
 6425POPC   GL241186  33.931  23.624   6.150
 6425POPC   C1A41187  33.794  23.694   6.450
 6425POPC   D2A41188  33.845  23.715   6.750
 6425POPC   C3A41189  33.772  23.755   7.050
 6425POPC   C4A41190  33.801  23.750   7.350
 6425POPC   C1B41191  33.960  23.568   6.450
 6425POPC   C2B41192  33.955  23.591   6.750
 6425POPC   C3B41193  33.964  23.519   7.050
 6425POPC   C4B41194  34.027  23.535   7.350
 6426POPC   NC341195  17.491  26.862   5.550
 6426POPC   PO441196  17.534  26.865   5.850
 6426POPC   GL141197  17.538  26.777   6.150
 6426POPC   GL241198  17.388  26.698   6.150
 6426POPC   C1A41199  17.519  26.866   6.450
 6426POPC   D2A41200  17.531  26.813   6.750
 6426POPC   C3A41201  17.475  26.790   7.050
 6426POPC   C4A41202  17.504  26.830   7.350
 6426POPC   C1B41203  17.366  26.612   6.450
 6426POPC   C2B41204  17.312  26.611   6.750
 6426POPC   C3B41205  17.381  26.619   7.050
 6426POPC   C4B41206  17.299  26.614   7.350
 6427POPC   NC341207  14.408  39.272   5.550
 6427POPC   PO441208  14.407  39.219   5.850
 6427POPC   GL141209  14.358  39.261   6.150
 6427POPC   GL241210  14.495  39.264   6.150
 6427POPC   C1A41211  14.376  39.264   6.450
 6427POPC   D2A41212  14.387  39.279   6.750
 6427POPC   C3A41213  14.440  39.208   7.050
 6427POPC   C4A41214  14.421  39.258   7.350
 6427POPC   C1B41215  14.620  39.419   6.450
 6427POPC   C2B41216  14.599  39.418   6.750
 6427POPC   C3B41217  14.603  39.405   7.050
 6427POPC   C4B41218  14.562  39.396   7.350
 6428POPC   NC341219  44.655   3.527   5.550
 6428POPC   PO441220  44.630   3.549   5.850
 6428POPC   GL141221  44.664   3.557   6.150
 6428POPC   GL241222  44.686   3.625   6.150
 6428POPC   C1A41223  44.620   3.529   6.450
 6428POPC   D2A41224  44.709   3.529   6.750
 6428POPC   C3A41225  44.686   3.549   7.050
 6428POPC   C4A41226  44.696   3.528   7.350
 6428POPC   C1B41227  44.602   3.747   6.450
 6428POPC   C2B41228  44.595   3.763   6.750
 6428POPC   C3B41229  44.673   3.754   7.050
 6428POPC   C4B41230  44.664   3.794   7.350
 6429POPC   NC341231  20.590  37.724   5.550
 6429POPC   PO441232  20.640  37.639   5.850
 6429POPC   GL141233  20.602  37.718   6.150
 6429POPC   GL241234  20.466  37.583   6.150
 6429POPC   C1A41235  20.631  37.641   6.450
 6429POPC   D2A41236  20.574  37.654   6.750
 6429POPC   C3A41237  20.582  37.675   7.050
 6429POPC   C4A41238  20.567  37.634   7.350
 6429POPC   C1B41239  20.419  37.503   6.450
 6429POPC   C2B41240  20.389  37.539   6.750
 6429POPC   C3B41241  20.428  37.471   7.050
 6429POPC   C4B41242  20.378  37.511   7.350
 6430POPC   NC341243  41.607  27.641   5.550
 6430POPC   PO441244  41.535  27.640   5.850
 6430POPC   GL141245  41.532  27.581   6.150
 6430POPC   GL241246  41.648  27.528   6.150
 6430POPC   C1A41247  41.526  27.563   6.450
 6430POPC   D2A41248  41.544  27.551   6.750
 6430POPC   C3A41249  41.555  27.618   7.050
 6430POPC   C4A41250  41.603  27.615   7.350
 6430POPC   C1B41251  41.717  27.425   6.450
 6430POPC   C2B41252  41.724  27.354   6.750
 6430POPC   C3B41253  41.705  27.387   7.050
 6430POPC   C4B41254  41.705  27.358   7.350
 6431POPC   NC341255  21.419  40.797   5.550
 6431POPC   PO441256  21.340  40.800   5.850
 6431POPC   GL141257  21.433  40.751   6.150
 6431POPC   GL241258  21.421  40.679   6.150
 6431POPC   C1A41259  21.388  40.742   6.450
 6431POPC   D2A41260  21.395  40.810   6.750
 6431POPC   C3A41261  21.369  40.814   7.050
 6431POPC   C4A41262  21.358  40.784   7.350
 6431POPC   C1B41263  21.342  40.530   6.450
 6431POPC   C2B41264  21.354  40.584   6.750
 6431POPC   C3B41265  21.321  40.571   7.050
 6431POPC   C4B41266  21.396  40.530   7.350
 6432POPC   NC341267  37.694  30.691   5.550
 6432POPC   PO441268  37.646  30.740   5.850
 6432POPC   GL141269  37.640  30.730   6.150
 6432POPC   GL241270  37.723  30.590   6.150
 6432POPC   C1A41271  37.664  30.680   6.450
 6432POPC   D2A41272  37.661  30.704   6.750
 6432POPC   C3A41273  37.712  30.734   7.050
 6432POPC   C4A41274  37.659  30.666   7.350
 6432POPC   C1B41275  37.656  30.424   6.450
 6432POPC   C2B41276  37.634  30.401   6.750
 6432POPC   C3B41277  37.687  30.455   7.050
 6432POPC   C4B41278  37.694  30.425   7.350
 6433POPC   NC341279  22.151  29.920   5.550
 6433POPC   PO441280  22.171  29.880   5.850
 6433POPC   GL141281  22.157  29.876   6.150
 6433POPC   GL241282  22.156  30.045   6.150
 6433POPC   C1A41283  22.152  29.956   6.450
 6433POPC   D2A41284  22.180  29.906   6.750
 6433POPC   C3A41285  22.159  29.903   7.050
 6433POPC   C4A41286  22.211  29.951   7.350
 6433POPC   C1B41287  22.138  30.206   6.450
 6433POPC   C2B41288  22.108  30.219   6.750
 6433POPC   C3B41289  22.141  30.168   7.050
 6433POPC   C4B41290  22.200  30.164   7.350
 6434POPC   NC341291  24.443  18.251   5.550
 6434POPC   PO441292  24.529  18.323   5.850
 6434POPC   GL141293  24.535  18.302   6.150
 6434POPC   GL241294  24.401  18.254   6.150
 6434POPC   C1A41295  24.483  18.269   6.450
 6434POPC   D2A41296  24.514  18.301   6.750
 6434POPC   C3A41297  24.538  18.267   7.050
 6434POPC   C4A41298  24.461  18.255   7.350
 6434POPC   C1B41299  24.243  18.245   6.450
 6434POPC   C2B41300  24.282  18.217   6.750
 6434POPC   C3B41301  24.267  18.216   7.050
 6434POPC   C4B41302  24.198  18.233   7.350
 6435POPC   NC341303   0.423  30.670   5.550
 6435POPC   PO441304   0.466  30.702   5.850
 6435POPC   GL141305   0.471  30.687   6.150
 6435POPC   GL241306   0.286  30.673   6.150
 6435POPC   C1A41307   0.473  30.723   6.450
 6435POPC   D2A41308   0.479  30.650   6.750
 6435POPC   C3A41309   0.471  30.664   7.050
 6435POPC   C4A41310   0.455  30.664   7.350
 6435POPC   C1B41311   0.178  30.659   6.450
 6435POPC   C2B41312   0.169  30.620   6.750
 6435POPC   C3B41313   0.153  30.643   7.050
 6435POPC   C4B41314   0.160  30.616   7.350
 6436POPC   NC341315  36.948   1.984   5.550
 6436POPC   PO441316  36.901   1.982   5.850
 6436POPC   GL141317  36.929   1.950   6.150
 6436POPC   GL241318  36.940   2.065   6.150
 6436POPC   C1A41319  36.860   1.985   6.450
 6436POPC   D2A41320  36.908   1.946   6.750
 6436POPC   C3A41321  36.915   1.953   7.050
 6436POPC   C4A41322  36.931   1.999   7.350
 6436POPC   C1B41323  36.996   2.222   6.450
 6436POPC   C2B41324  37.015   2.240   6.750
 6436POPC   C3B41325  37.038   2.215   7.050
 6436POPC   C4B41326  36.980   2.263   7.350
 6437POPC   NC341327  14.366  41.594   5.550
 6437POPC   PO441328  14.385  41.528   5.850
 6437POPC   GL141329  14.384  41.571   6.150
 6437POPC   GL241330  14.414  41.707   6.150
 6437POPC   C1A41331  14.363  41.571   6.450
 6437POPC   D2A41332  14.413  41.597   6.750
 6437POPC   C3A41333  14.364  41.599   7.050
 6437POPC   C4A41334  14.406  41.555   7.350
 6437POPC   C1B41335  14.485  41.821   6.450
 6437POPC   C2B41336  14.503  41.741   6.750
 6437POPC   C3B41337  14.528  41.751   7.050
 6437POPC   C4B41338  14.506  41.752   7.350
 6438POPC   NC341339  26.011  43.878   5.550
 6438POPC   PO441340  26.061  43.885   5.850
 6438POPC   GL141341  26.013  43.927   6.150
 6438POPC   GL241342  25.884  43.901   6.150
 6438POPC   C1A41343  26.019  43.841   6.450
 6438POPC   D2A41344  26.009  43.926   6.750
 6438POPC   C3A41345  26.054  43.923   7.050
 6438POPC   C4A41346  25.996  43.881   7.350
 6438POPC   C1B41347  25.833  43.909   6.450
 6438POPC   C2B41348  25.828  43.906   6.750
 6438POPC   C3B41349  25.757  43.911   7.050
 6438POPC   C4B41350  25.788  43.973   7.350
 6439POPC   NC341351  31.457   5.097   5.550
 6439POPC   PO441352  31.465   5.119   5.850
 6439POPC   GL141353  31.488   5.071   6.150
 6439POPC   GL241354  31.493   4.964   6.150
 6439POPC   C1A41355  31.515   5.050   6.450
 6439POPC   D2A41356  31.431   5.073   6.750
 6439POPC   C3A41357  31.423   5.108   7.050
 6439POPC   C4A41358  31.501   5.110   7.350
 6439POPC   C1B41359  31.529   4.832   6.450
 6439POPC   C2B41360  31.526   4.819   6.750
 6439POPC   C3B41361  31.475   4.866   7.050
 6439POPC   C4B41362  31.502   4.810   7.350
 6440POPC   NC341363  22.202  14.392   5.550
 6440POPC   PO441364  22.171  14.405   5.850
 6440POPC   GL141365  22.181  14.452   6.150
 6440POPC   GL241366  22.043  14.354   6.150
 6440POPC   C1A41367  22.211  14.408   6.450
 6440POPC   D2A41368  22.190  14.391   6.750
 6440POPC   C3A41369  22.172  14.400   7.050
 6440POPC   C4A41370  22.165  14.398   7.350
 6440POPC   C1B41371  21.947  14.184   6.450
 6440POPC   C2B41372  22.013  14.227   6.750
 6440POPC   C3B41373  21.994  14.199   7.050
 6440POPC   C4B41374  22.008  14.266   7.350
 6441POPC   NC341375   4.268   1.957   5.550
 6441POPC   PO441376   4.353   1.971   5.850
 6441POPC   GL141377   4.340   2.017   6.150
 6441POPC   GL241378   4.258   2.153   6.150
 6441POPC   C1A41379   4.320   1.970   6.450
 6441POPC   D2A41380   4.347   1.980   6.750
 6441POPC   C3A41381   4.352   1.954   7.050
 6441POPC   C4A41382   4.361   1.949   7.350
 6441POPC   C1B41383   4.179   2.206   6.450
 6441POPC   C2B41384   4.239   2.266   6.750
 6441POPC   C3B41385   4.206   2.237   7.050
 6441POPC   C4B41386   4.199   2.263   7.350
 6442POPC   NC341387  33.803  36.165   5.550
 6442POPC   PO441388  33.750  36.090   5.850
 6442POPC   GL141389  33.834  36.139   6.150
 6442POPC   GL241390  33.865  36.208   6.150
 6442POPC   C1A41391  33.777  36.078   6.450
 6442POPC   D2A41392  33.801  36.099   6.750
 6442POPC   C3A41393  33.765  36.123   7.050
 6442POPC   C4A41394  33.784  36.145   7.350
 6442POPC   C1B41395  33.919  36.392   6.450
 6442POPC   C2B41396  33.939  36.364   6.750
 6442POPC   C3B41397  33.942  36.356   7.050
 6442POPC   C4B41398  33.871  36.321   7.350
 6443POPC   NC341399  26.076  28.399   5.550
 6443POPC   PO441400  26.034  28.362   5.850
 6443POPC   GL141401  26.035  28.337   6.150
 6443POPC   GL241402  26.040  28.231   6.150
 6443POPC   C1A41403  26.031  28.396   6.450
 6443POPC   D2A41404  26.016  28.400   6.750
 6443POPC   C3A41405  26.003  28.319   7.050
 6443POPC   C4A41406  26.045  28.323   7.350
 6443POPC   C1B41407  26.042  28.120   6.450
 6443POPC   C2B41408  26.087  28.137   6.750
 6443POPC   C3B41409  26.009  28.090   7.050
 6443POPC   C4B41410  26.096  28.138   7.350
 6444POPC   NC341411  20.655  42.377   5.550
 6444POPC   PO441412  20.587  42.346   5.850
 6444POPC   GL141413  20.562  42.296   6.150
 6444POPC   GL241414  20.712  42.238   6.150
 6444POPC   C1A41415  20.603  42.381   6.450
 6444POPC   D2A41416  20.614  42.290   6.750
 6444POPC   C3A41417  20.568  42.370   7.050
 6444POPC   C4A41418  20.644  42.371   7.350
 6444POPC   C1B41419  20.837  42.248   6.450
 6444POPC   C2B41420  20.796  42.209   6.750
 6444POPC   C3B41421  20.827  42.238   7.050
 6444POPC   C4B41422  20.811  42.215   7.350
 6445POPC   NC341423  23.744  21.431   5.550
 6445POPC   PO441424  23.736  21.348   5.850
 6445POPC   GL141425  23.761  21.358   6.150
 6445POPC   GL241426  23.743  21.266   6.150
 6445POPC   C1A41427  23.760  21.432   6.450
 6445POPC   D2A41428  23.753  21.374   6.750
 6445POPC   C3A41429  23.760  21.387   7.050
 6445POPC   C4A41430  23.744  21.397   7.350
 6445POPC   C1B41431  23.788  21.168   6.450
 6445POPC   C2B41432  23.781  21.149   6.750
 6445POPC   C3B41433  23.782  21.199   7.050
 6445POPC   C4B41434  23.806  21.180   7.350
 6446POPC   NC341435  43.149  15.214   5.550
 6446POPC   PO441436  43.080  15.173   5.850
 6446POPC   GL141437  43.082  15.169   6.150
 6446POPC   GL241438  42.960  15.081   6.150
 6446POPC   C1A41439  43.079  15.171   6.450
 6446POPC   D2A41440  43.105  15.145   6.750
 6446POPC   C3A41441  43.132  15.150   7.050
 6446POPC   C4A41442  43.121  15.205   7.350
 6446POPC   C1B41443  42.913  15.081   6.450
 6446POPC   C2B41444  42.926  15.069   6.750
 6446POPC   C3B41445  42.899  15.040   7.050
 6446POPC   C4B41446  42.936  15.017   7.350
 6447POPC   NC341447  12.120  14.370   5.550
 6447POPC   PO441448  12.102  14.429   5.850
 6447POPC   GL141449  12.062  14.431   6.150
 6447POPC   GL241450  11.992  14.337   6.150
 6447POPC   C1A41451  12.103  14.430   6.450
 6447POPC   D2A41452  12.065  14.362   6.750
 6447POPC   C3A41453  12.034  14.422   7.050
 6447POPC   C4A41454  12.035  14.399   7.350
 6447POPC   C1B41455  11.896  14.207   6.450
 6447POPC   C2B41456  11.892  14.240   6.750
 6447POPC   C3B41457  11.955  14.214   7.050
 6447POPC   C4B41458  11.942  14.153   7.350
 6448POPC   NC341459   9.719   0.424   5.550
 6448POPC   PO441460   9.782   0.476   5.850
 6448POPC   GL141461   9.755   0.418   6.150
 6448POPC   GL241462   9.803   0.326   6.150
 6448POPC   C1A41463   9.708   0.389   6.450
 6448POPC   D2A41464   9.731   0.434   6.750
 6448POPC   C3A41465   9.708   0.483   7.050
 6448POPC   C4A41466   9.793   0.422   7.350
 6448POPC   C1B41467   9.926   0.286   6.450
 6448POPC   C2B41468   9.922   0.295   6.750
 6448POPC   C3B41469   9.981   0.272   7.050
 6448POPC   C4B41470   9.938   0.273   7.350
 6449POPC   NC341471  33.837  19.066   5.550
 6449POPC   PO441472  33.816  19.023   5.850
 6449POPC   GL141473  33.823  19.027   6.150
 6449POPC   GL241474  33.922  19.078   6.150
 6449POPC   C1A41475  33.828  19.044   6.450
 6449POPC   D2A41476  33.832  19.036   6.750
 6449POPC   C3A41477  33.794  19.101   7.050
 6449POPC   C4A41478  33.771  19.086   7.350
 6449POPC   C1B41479  34.016  19.205   6.450
 6449POPC   C2B41480  34.010  19.131   6.750
 6449POPC   C3B41481  34.053  19.140   7.050
 6449POPC   C4B41482  34.025  19.155   7.350
 6450POPC   NC341483  37.672  15.921   5.550
 6450POPC   PO441484  37.642  15.990   5.850
 6450POPC   GL141485  37.706  15.925   6.150
 6450POPC   GL241486  37.715  15.802   6.150
 6450POPC   C1A41487  37.642  15.909   6.450
 6450POPC   D2A41488  37.701  15.971   6.750
 6450POPC   C3A41489  37.682  15.906   7.050
 6450POPC   C4A41490  37.644  15.916   7.350
 6450POPC   C1B41491  37.855  15.789   6.450
 6450POPC   C2B41492  37.801  15.707   6.750
 6450POPC   C3B41493  37.841  15.728   7.050
 6450POPC   C4B41494  37.824  15.765   7.350
 6451POPC   NC341495   7.399  19.058   5.550
 6451POPC   PO441496   7.374  19.091   5.850
 6451POPC   GL141497   7.436  19.051   6.150
 6451POPC   GL241498   7.520  19.076   6.150
 6451POPC   C1A41499   7.377  19.059   6.450
 6451POPC   D2A41500   7.395  19.047   6.750
 6451POPC   C3A41501   7.407  19.076   7.050
 6451POPC   C4A41502   7.397  19.010   7.350
 6451POPC   C1B41503   7.661  19.043   6.450
 6451POPC   C2B41504   7.624  19.074   6.750
 6451POPC   C3B41505   7.693  19.093   7.050
 6451POPC   C4B41506   7.659  19.031   7.350
 6452POPC   NC341507   7.380  43.092   5.550
 6452POPC   PO441508   7.386  43.074   5.850
 6452POPC   GL141509   7.456  43.148   6.150
 6452POPC   GL241510   7.402  43.241   6.150
 6452POPC   C1A41511   7.409  43.075   6.450
 6452POPC   D2A41512   7.425  43.130   6.750
 6452POPC   C3A41513   7.436  43.087   7.050
 6452POPC   C4A41514   7.393  43.144   7.350
 6452POPC   C1B41515   7.511  43.318   6.450
 6452POPC   C2B41516   7.471  43.384   6.750
 6452POPC   C3B41517   7.489  43.312   7.050
 6452POPC   C4B41518   7.442  43.311   7.350
 6453POPC   NC341519  36.107  21.394   5.550
 6453POPC   PO441520  36.123  21.361   5.850
 6453POPC   GL141521  36.159  21.393   6.150
 6453POPC   GL241522  36.135  21.470   6.150
 6453POPC   C1A41523  36.082  21.433   6.450
 6453POPC   D2A41524  36.167  21.360   6.750
 6453POPC   C3A41525  36.172  21.342   7.050
 6453POPC   C4A41526  36.105  21.369   7.350
 6453POPC   C1B41527  36.093  21.582   6.450
 6453POPC   C2B41528  36.050  21.621   6.750
 6453POPC   C3B41529  36.020  21.642   7.050
 6453POPC   C4B41530  36.083  21.584   7.350
 6454POPC   NC341531  12.125  16.682   5.550
 6454POPC   PO441532  12.053  16.692   5.850
 6454POPC   GL141533  12.078  16.766   6.150
 6454POPC   GL241534  12.156  16.861   6.150
 6454POPC   C1A41535  12.054  16.771   6.450
 6454POPC   D2A41536  12.117  16.684   6.750
 6454POPC   C3A41537  12.102  16.722   7.050
 6454POPC   C4A41538  12.061  16.685   7.350
 6454POPC   C1B41539  12.111  17.004   6.450
 6454POPC   C2B41540  12.183  16.973   6.750
 6454POPC   C3B41541  12.110  16.958   7.050
 6454POPC   C4B41542  12.185  16.933   7.350
 6455POPC   NC341543  17.458  36.879   5.550
 6455POPC   PO441544  17.508  36.936   5.850
 6455POPC   GL141545  17.538  36.920   6.150
 6455POPC   GL241546  17.404  37.029   6.150
 6455POPC   C1A41547  17.483  36.943   6.450
 6455POPC   D2A41548  17.538  36.953   6.750
 6455POPC   C3A41549  17.469  36.871   7.050
 6455POPC   C4A41550  17.546  36.932   7.350
 6455POPC   C1B41551  17.288  37.063   6.450
 6455POPC   C2B41552  17.279  37.106   6.750
 6455POPC   C3B41553  17.358  37.025   7.050
 6455POPC   C4B41554  17.348  37.043   7.350
 6456POPC   NC341555  18.243  16.757   5.550
 6456POPC   PO441556  18.239  16.750   5.850
 6456POPC   GL141557  18.312  16.687   6.150
 6456POPC   GL241558  18.142  16.770   6.150
 6456POPC   C1A41559  18.306  16.772   6.450
 6456POPC   D2A41560  18.330  16.709   6.750
 6456POPC   C3A41561  18.243  16.722   7.050
 6456POPC   C4A41562  18.250  16.747   7.350
 6456POPC   C1B41563  18.098  16.829   6.450
 6456POPC   C2B41564  18.102  16.845   6.750
 6456POPC   C3B41565  18.115  16.917   7.050
 6456POPC   C4B41566  18.074  16.874   7.350
 6457POPC   NC341567   7.395  25.291   5.550
 6457POPC   PO441568   7.397  25.254   5.850
 6457POPC   GL141569   7.450  25.291   6.150
 6457POPC   GL241570   7.345  25.116   6.150
 6457POPC   C1A41571   7.427  25.239   6.450
 6457POPC   D2A41572   7.381  25.278   6.750
 6457POPC   C3A41573   7.467  25.311   7.050
 6457POPC   C4A41574   7.397  25.312   7.350
 6457POPC   C1B41575   7.343  25.012   6.450
 6457POPC   C2B41576   7.323  25.055   6.750
 6457POPC   C3B41577   7.309  25.020   7.050
 6457POPC   C4B41578   7.355  25.068   7.350
 6458POPC   NC341579  22.118  43.878   5.550
 6458POPC   PO441580  22.142  43.933   5.850
 6458POPC   GL141581  22.197  43.900   6.150
 6458POPC   GL241582  22.176  43.779   6.150
 6458POPC   C1A41583  22.178  43.869   6.450
 6458POPC   D2A41584  22.204  43.894   6.750
 6458POPC   C3A41585  22.139  43.893   7.050
 6458POPC   C4A41586  22.190  43.881   7.350
 6458POPC   C1B41587  22.305  43.700   6.450
 6458POPC   C2B41588  22.236  43.619   6.750
 6458POPC   C3B41589  22.247  43.686   7.050
 6458POPC   C4B41590  22.280  43.657   7.350
 6459POPC   NC341591  36.910  26.049   5.550
 6459POPC   PO441592  36.890  26.021   5.850
 6459POPC   GL141593  36.933  26.010   6.150
 6459POPC   GL241594  36.813  26.037   6.150
 6459POPC   C1A41595  36.924  26.013   6.450
 6459POPC   D2A41596  36.902  26.054   6.750
 6459POPC   C3A41597  36.866  26.080   7.050
 6459POPC   C4A41598  36.891  26.046   7.350
 6459POPC   C1B41599  36.672  26.121   6.450
 6459POPC   C2B41600  36.703  26.118   6.750
 6459POPC   C3B41601  36.716  26.169   7.050
 6459POPC   C4B41602  36.656  26.122   7.350
 6460POPC   NC341603   5.913  33.047   5.550
 6460POPC   PO441604   5.880  33.070   5.850
 6460POPC   GL141605   5.893  32.996   6.150
 6460POPC   GL241606   6.001  33.119   6.150
 6460POPC   C1A41607   5.907  32.987   6.450
 6460POPC   D2A41608   5.829  33.054   6.750
 6460POPC   C3A41609   5.915  32.994   7.050
 6460POPC   C4A41610   5.879  33.026   7.350
 6460POPC   C1B41611   6.082  33.223   6.450
 6460POPC   C2B41612   6.094  33.224   6.750
 6460POPC   C3B41613   6.106  33.215   7.050
 6460POPC   C4B41614   6.028  33.195   7.350
 6461POPC   NC341615  27.628   9.785   5.550
 6461POPC   PO441616  27.606   9.720   5.850
 6461POPC   GL141617  27.557   9.715   6.150
 6461POPC   GL241618  27.740   9.722   6.150
 6461POPC   C1A41619  27.632   9.794   6.450
 6461POPC   D2A41620  27.580   9.709   6.750
 6461POPC   C3A41621  27.577   9.780   7.050
 6461POPC   C4A41622  27.572   9.707   7.350
 6461POPC   C1B41623  27.812   9.830   6.450
 6461POPC   C2B41624  27.815   9.794   6.750
 6461POPC   C3B41625  27.803   9.809   7.050
 6461POPC   C4B41626  27.794   9.751   7.350
 6462POPC   NC341627   0.420  17.540   5.550
 6462POPC   PO441628   0.416  17.514   5.850
 6462POPC   GL141629   0.460  17.519   6.150
 6462POPC   GL241630   0.547  17.497   6.150
 6462POPC   C1A41631   0.389  17.511   6.450
 6462POPC   D2A41632   0.399  17.491   6.750
 6462POPC   C3A41633   0.459  17.478   7.050
 6462POPC   C4A41634   0.481  17.520   7.350
 6462POPC   C1B41635   0.733  17.503   6.450
 6462POPC   C2B41636   0.701  17.490   6.750
 6462POPC   C3B41637   0.684  17.491   7.050
 6462POPC   C4B41638   0.642  17.475   7.350
 6463POPC   NC341639  40.790  43.882   5.550
 6463POPC   PO441640  40.780  43.866   5.850
 6463POPC   GL141641  40.797  43.900   6.150
 6463POPC   GL241642  40.831  43.999   6.150
 6463POPC   C1A41643  40.817  43.882   6.450
 6463POPC   D2A41644  40.804  43.930   6.750
 6463POPC   C3A41645  40.741  43.890   7.050
 6463POPC   C4A41646  40.748  43.883   7.350
 6463POPC   C1B41647  40.942  44.026   6.450
 6463POPC   C2B41648  40.948  44.013   6.750
 6463POPC   C3B41649  40.945  44.024   7.050
 6463POPC   C4B41650  40.974  44.009   7.350
 6464POPC   NC341651  37.680  24.467   5.550
 6464POPC   PO441652  37.706  24.456   5.850
 6464POPC   GL141653  37.699  24.452   6.150
 6464POPC   GL241654  37.677  24.371   6.150
 6464POPC   C1A41655  37.633  24.446   6.450
 6464POPC   D2A41656  37.632  24.534   6.750
 6464POPC   C3A41657  37.647  24.460   7.050
 6464POPC   C4A41658  37.630  24.463   7.350
 6464POPC   C1B41659  37.652  24.279   6.450
 6464POPC   C2B41660  37.684  24.268   6.750
 6464POPC   C3B41661  37.667  24.202   7.050
 6464POPC   C4B41662  37.612  24.278   7.350
 6465POPC   NC341663  24.470  30.742   5.550
 6465POPC   PO441664  24.451  30.744   5.850
 6465POPC   GL141665  24.510  30.733   6.150
 6465POPC   GL241666  24.394  30.634   6.150
 6465POPC   C1A41667  24.526  30.705   6.450
 6465POPC   D2A41668  24.539  30.685   6.750
 6465POPC   C3A41669  24.492  30.727   7.050
 6465POPC   C4A41670  24.504  30.686   7.350
 6465POPC   C1B41671  24.384  30.514   6.450
 6465POPC   C2B41672  24.324  30.466   6.750
 6465POPC   C3B41673  24.315  30.469   7.050
 6465POPC   C4B41674  24.367  30.473   7.350
 6466POPC   NC341675  42.357  19.084   5.550
 6466POPC   PO441676  42.324  19.076   5.850
 6466POPC   GL141677  42.359  19.068   6.150
 6466POPC   GL241678  42.360  19.172   6.150
 6466POPC   C1A41679  42.329  19.061   6.450
 6466POPC   D2A41680  42.366  19.037   6.750
 6466POPC   C3A41681  42.376  19.097   7.050
 6466POPC   C4A41682  42.300  19.013   7.350
 6466POPC   C1B41683  42.426  19.274   6.450
 6466POPC   C2B41684  42.488  19.277   6.750
 6466POPC   C3B41685  42.435  19.247   7.050
 6466POPC   C4B41686  42.505  19.268   7.350
 6467POPC   NC341687   9.783  33.057   5.550
 6467POPC   PO441688   9.734  33.053   5.850
 6467POPC   GL141689   9.778  32.986   6.150
 6467POPC   GL241690   9.688  33.163   6.150
 6467POPC   C1A41691   9.702  33.039   6.450
 6467POPC   D2A41692   9.776  32.981   6.750
 6467POPC   C3A41693   9.752  33.068   7.050
 6467POPC   C4A41694   9.748  33.009   7.350
 6467POPC   C1B41695   9.554  33.241   6.450
 6467POPC   C2B41696   9.532  33.160   6.750
 6467POPC   C3B41697   9.623  33.185   7.050
 6467POPC   C4B41698   9.586  33.203   7.350
 6468POPC   NC341699   9.707  42.380   5.550
 6468POPC   PO441700   9.699  42.353   5.850
 6468POPC   GL141701   9.711  42.372   6.150
 6468POPC   GL241702   9.726  42.438   6.150
 6468POPC   C1A41703   9.720  42.286   6.450
 6468POPC   D2A41704   9.735  42.356   6.750
 6468POPC   C3A41705   9.769  42.362   7.050
 6468POPC   C4A41706   9.745  42.350   7.350
 6468POPC   C1B41707   9.751  42.625   6.450
 6468POPC   C2B41708   9.695  42.556   6.750
 6468POPC   C3B41709   9.718  42.578   7.050
 6468POPC   C4B41710   9.697  42.560   7.350
 6469POPC   NC341711  12.072  23.749   5.550
 6469POPC   PO441712  12.069  23.742   5.850
 6469POPC   GL141713  12.092  23.666   6.150
 6469POPC   GL241714  11.999  23.663   6.150
 6469POPC   C1A41715  12.107  23.676   6.450
 6469POPC   D2A41716  12.117  23.763   6.750
 6469POPC   C3A41717  12.110  23.707   7.050
 6469POPC   C4A41718  12.029  23.748   7.350
 6469POPC   C1B41719  11.885  23.566   6.450
 6469POPC   C2B41720  11.849  23.527   6.750
 6469POPC   C3B41721  11.841  23.605   7.050
 6469POPC   C4B41722  11.919  23.544   7.350
 6470POPC   NC341723  14.382  36.885   5.550
 6470POPC   PO441724  14.384  36.858   5.850
 6470POPC   GL141725  14.417  36.953   6.150
 6470POPC   GL241726  14.417  36.828   6.150
 6470POPC   C1A41727  14.379  36.940   6.450
 6470POPC   D2A41728  14.358  36.888   6.750
 6470POPC   C3A41729  14.433  36.936   7.050
 6470POPC   C4A41730  14.450  36.880   7.350
 6470POPC   C1B41731  14.462  36.628   6.450
 6470POPC   C2B41732  14.520  36.691   6.750
 6470POPC   C3B41733  14.530  36.686   7.050
 6470POPC   C4B41734  14.532  36.636   7.350
 6471POPC   NC341735  31.492  36.175   5.550
 6471POPC   PO441736  31.491  36.116   5.850
 6471POPC   GL141737  31.487  36.101   6.150
 6471POPC   GL241738  31.337  36.114   6.150
 6471POPC   C1A41739  31.439  36.146   6.450
 6471POPC   D2A41740  31.503  36.173   6.750
 6471POPC   C3A41741  31.486  36.162   7.050
 6471POPC   C4A41742  31.476  36.161   7.350
 6471POPC   C1B41743  31.232  36.092   6.450
 6471POPC   C2B41744  31.177  36.127   6.750
 6471POPC   C3B41745  31.266  36.174   7.050
 6471POPC   C4B41746  31.261  36.130   7.350
 6472POPC   NC341747   3.550  17.480   5.550
 6472POPC   PO441748   3.503  17.549   5.850
 6472POPC   GL141749   3.550  17.517   6.150
 6472POPC   GL241750   3.512  17.412   6.150
 6472POPC   C1A41751   3.540  17.514   6.450
 6472POPC   D2A41752   3.499  17.457   6.750
 6472POPC   C3A41753   3.557  17.517   7.050
 6472POPC   C4A41754   3.492  17.470   7.350
 6472POPC   C1B41755   3.593  17.245   6.450
 6472POPC   C2B41756   3.610  17.212   6.750
 6472POPC   C3B41757   3.534  17.255   7.050
 6472POPC   C4B41758   3.549  17.255   7.350
 6473POPC   NC341759   3.575   8.990   5.550
 6473POPC   PO441760   3.506   8.975   5.850
 6473POPC   GL141761   3.557   8.931   6.150
 6473POPC   GL241762   3.472   8.849   6.150
 6473POPC   C1A41763   3.502   8.987   6.450
 6473POPC   D2A41764   3.497   9.016   6.750
 6473POPC   C3A41765   3.564   9.018   7.050
 6473POPC   C4A41766   3.551   8.987   7.350
 6473POPC   C1B41767   3.450   8.751   6.450
 6473POPC   C2B41768   3.451   8.784   6.750
 6473POPC   C3B41769   3.431   8.753   7.050
 6473POPC   C4B41770   3.363   8.795   7.350
 6474POPC   NC341771  12.103  33.058   5.550
 6474POPC   PO441772  12.053  33.001   5.850
 6474POPC   GL141773  12.092  33.003   6.150
 6474POPC   GL241774  12.148  33.026   6.150
 6474POPC   C1A41775  12.079  33.040   6.450
 6474POPC   D2A41776  12.120  32.980   6.750
 6474POPC   C3A41777  12.051  32.986   7.050
 6474POPC   C4A41778  12.042  33.019   7.350
 6474POPC   C1B41779  12.277  33.122   6.450
 6474POPC   C2B41780  12.340  33.063   6.750
 6474POPC   C3B41781  12.356  33.039   7.050
 6474POPC   C4B41782  12.356  33.054   7.350
 6475POPC   NC341783  22.113  22.207   5.550
 6475POPC   PO441784  22.123  22.204   5.850
 6475POPC   GL141785  22.162  22.130   6.150
 6475POPC   GL241786  22.324  22.167   6.150
 6475POPC   C1A41787  22.188  22.138   6.450
 6475POPC   D2A41788  22.192  22.139   6.750
 6475POPC   C3A41789  22.136  22.157   7.050
 6475POPC   C4A41790  22.198  22.128   7.350
 6475POPC   C1B41791  22.415  22.051   6.450
 6475POPC   C2B41792  22.368  22.136   6.750
 6475POPC   C3B41793  22.440  22.108   7.050
 6475POPC   C4B41794  22.397  22.071   7.350
 6476POPC   NC341795  40.037   0.463   5.550
 6476POPC   PO441796  39.992   0.435   5.850
 6476POPC   GL141797  39.995   0.455   6.150
 6476POPC   GL241798  40.048   0.604   6.150
 6476POPC   C1A41799  40.047   0.439   6.450
 6476POPC   D2A41800  39.962   0.391   6.750
 6476POPC   C3A41801  39.999   0.463   7.050
 6476POPC   C4A41802  39.991   0.441   7.350
 6476POPC   C1B41803  40.032   0.716   6.450
 6476POPC   C2B41804  40.058   0.662   6.750
 6476POPC   C3B41805  40.013   0.721   7.050
 6476POPC   C4B41806  40.006   0.685   7.350
 6477POPC   NC341807  29.931  26.073   5.550
 6477POPC   PO441808  29.939  26.040   5.850
 6477POPC   GL141809  29.879  26.077   6.150
 6477POPC   GL241810  29.835  26.074   6.150
 6477POPC   C1A41811  29.921  26.053   6.450
 6477POPC   D2A41812  29.938  26.006   6.750
 6477POPC   C3A41813  29.933  26.025   7.050
 6477POPC   C4A41814  29.929  26.045   7.350
 6477POPC   C1B41815  29.702  26.135   6.450
 6477POPC   C2B41816  29.676  26.211   6.750
 6477POPC   C3B41817  29.681  26.145   7.050
 6477POPC   C4B41818  29.682  26.124   7.350
 6478POPC   NC341819  40.829  12.826   5.550
 6478POPC   PO441820  40.784  12.892   5.850
 6478POPC   GL141821  40.794  12.844   6.150
 6478POPC   GL241822  40.656  12.930   6.150
 6478POPC   C1A41823  40.808  12.826   6.450
 6478POPC   D2A41824  40.805  12.832   6.750
 6478POPC   C3A41825  40.811  12.843   7.050
 6478POPC   C4A41826  40.822  12.872   7.350
 6478POPC   C1B41827  40.578  13.020   6.450
 6478POPC   C2B41828  40.574  13.009   6.750
 6478POPC   C3B41829  40.554  12.953   7.050
 6478POPC   C4B41830  40.613  13.027   7.350
 6479POPC   NC341831  26.783  29.129   5.550
 6479POPC   PO441832  26.819  29.104   5.850
 6479POPC   GL141833  26.811  29.116   6.150
 6479POPC   GL241834  26.899  29.085   6.150
 6479POPC   C1A41835  26.814  29.156   6.450
 6479POPC   D2A41836  26.793  29.145   6.750
 6479POPC   C3A41837  26.826  29.155   7.050
 6479POPC   C4A41838  26.822  29.137   7.350
 6479POPC   C1B41839  27.019  29.024   6.450
 6479POPC   C2B41840  27.085  29.076   6.750
 6479POPC   C3B41841  27.056  29.069   7.050
 6479POPC   C4B41842  27.060  29.080   7.350
 6480POPC   NC341843   2.783  28.354   5.550
 6480POPC   PO441844   2.732  28.417   5.850
 6480POPC   GL141845   2.814  28.368   6.150
 6480POPC   GL241846   2.789  28.218   6.150
 6480POPC   C1A41847   2.742  28.338   6.450
 6480POPC   D2A41848   2.785  28.336   6.750
 6480POPC   C3A41849   2.755  28.386   7.050
 6480POPC   C4A41850   2.769  28.378   7.350
 6480POPC   C1B41851   2.840  28.155   6.450
 6480POPC   C2B41852   2.906  28.131   6.750
 6480POPC   C3B41853   2.875  28.182   7.050
 6480POPC   C4B41854   2.912  28.172   7.350
 6481POPC   NC341855   9.789   4.285   5.550
 6481POPC   PO441856   9.795   4.335   5.850
 6481POPC   GL141857   9.790   4.340   6.150
 6481POPC   GL241858   9.691   4.412   6.150
 6481POPC   C1A41859   9.761   4.280   6.450
 6481POPC   D2A41860   9.729   4.350   6.750
 6481POPC   C3A41861   9.725   4.309   7.050
 6481POPC   C4A41862   9.752   4.304   7.350
 6481POPC   C1B41863   9.710   4.535   6.450
 6481POPC   C2B41864   9.635   4.504   6.750
 6481POPC   C3B41865   9.691   4.599   7.050
 6481POPC   C4B41866   9.642   4.543   7.350
 6482POPC   NC341867  13.594  29.109   5.550
 6482POPC   PO441868  13.661  29.108   5.850
 6482POPC   GL141869  13.632  29.146   6.150
 6482POPC   GL241870  13.541  29.063   6.150
 6482POPC   C1A41871  13.614  29.098   6.450
 6482POPC   D2A41872  13.669  29.131   6.750
 6482POPC   C3A41873  13.658  29.096   7.050
 6482POPC   C4A41874  13.674  29.137   7.350
 6482POPC   C1B41875  13.344  29.058   6.450
 6482POPC   C2B41876  13.394  29.079   6.750
 6482POPC   C3B41877  13.398  29.087   7.050
 6482POPC   C4B41878  13.388  29.060   7.350
 6483POPC   NC341879   5.062  36.171   5.550
 6483POPC   PO441880   5.063  36.124   5.850
 6483POPC   GL141881   5.046  36.176   6.150
 6483POPC   GL241882   5.006  36.171   6.150
 6483POPC   C1A41883   5.104  36.112   6.450
 6483POPC   D2A41884   5.075  36.137   6.750
 6483POPC   C3A41885   5.062  36.164   7.050
 6483POPC   C4A41886   5.106  36.157   7.350
 6483POPC   C1B41887   4.843  36.224   6.450
 6483POPC   C2B41888   4.925  36.237   6.750
 6483POPC   C3B41889   4.875  36.292   7.050
 6483POPC   C4B41890   4.897  36.304   7.350
 6484POPC   NC341891  19.870  26.013   5.550
 6484POPC   PO441892  19.824  26.063   5.850
 6484POPC   GL141893  19.860  25.995   6.150
 6484POPC   GL241894  19.912  25.991   6.150
 6484POPC   C1A41895  19.821  26.062   6.450
 6484POPC   D2A41896  19.824  26.085   6.750
 6484POPC   C3A41897  19.828  26.085   7.050
 6484POPC   C4A41898  19.791  26.017   7.350
 6484POPC   C1B41899  20.090  25.997   6.450
 6484POPC   C2B41900  20.038  26.057   6.750
 6484POPC   C3B41901  20.091  26.007   7.050
 6484POPC   C4B41902  20.039  25.996   7.350
 6485POPC   NC341903  19.797  29.935   5.550
 6485POPC   PO441904  19.823  29.964   5.850
 6485POPC   GL141905  19.828  29.929   6.150
 6485POPC   GL241906  19.796  30.059   6.150
 6485POPC   C1A41907  19.850  29.896   6.450
 6485POPC   D2A41908  19.858  29.933   6.750
 6485POPC   C3A41909  19.828  29.892   7.050
 6485POPC   C4A41910  19.824  29.946   7.350
 6485POPC   C1B41911  19.709  30.116   6.450
 6485POPC   C2B41912  19.699  30.150   6.750
 6485POPC   C3B41913  19.653  30.080   7.050
 6485POPC   C4B41914  19.631  30.145   7.350
 6486POPC   NC341915  21.370  27.549   5.550
 6486POPC   PO441916  21.382  27.611   5.850
 6486POPC   GL141917  21.349  27.579   6.150
 6486POPC   GL241918  21.404  27.715   6.150
 6486POPC   C1A41919  21.352  27.591   6.450
 6486POPC   D2A41920  21.346  27.601   6.750
 6486POPC   C3A41921  21.353  27.577   7.050
 6486POPC   C4A41922  21.373  27.632   7.350
 6486POPC   C1B41923  21.408  27.878   6.450
 6486POPC   C2B41924  21.473  27.837   6.750
 6486POPC   C3B41925  21.461  27.795   7.050
 6486POPC   C4B41926  21.440  27.873   7.350
 6487POPC   NC341927   6.603  40.804   5.550
 6487POPC   PO441928   6.653  40.803   5.850
 6487POPC   GL141929   6.642  40.756   6.150
 6487POPC   GL241930   6.706  40.925   6.150
 6487POPC   C1A41931   6.656  40.746   6.450
 6487POPC   D2A41932   6.693  40.774   6.750
 6487POPC   C3A41933   6.684  40.827   7.050
 6487POPC   C4A41934   6.693  40.748   7.350
 6487POPC   C1B41935   6.661  41.052   6.450
 6487POPC   C2B41936   6.658  41.026   6.750
 6487POPC   C3B41937   6.700  40.980   7.050
 6487POPC   C4B41938   6.722  41.002   7.350
 6488POPC   NC341939  34.623  43.106   5.550
 6488POPC   PO441940  34.602  43.078   5.850
 6488POPC   GL141941  34.621  43.139   6.150
 6488POPC   GL241942  34.503  43.216   6.150
 6488POPC   C1A41943  34.550  43.156   6.450
 6488POPC   D2A41944  34.562  43.133   6.750
 6488POPC   C3A41945  34.567  43.152   7.050
 6488POPC   C4A41946  34.611  43.112   7.350
 6488POPC   C1B41947  34.460  43.382   6.450
 6488POPC   C2B41948  34.493  43.286   6.750
 6488POPC   C3B41949  34.467  43.328   7.050
 6488POPC   C4B41950  34.489  43.346   7.350
 6489POPC   NC341951  33.830  29.128   5.550
 6489POPC   PO441952  33.767  29.145   5.850
 6489POPC   GL141953  33.752  29.156   6.150
 6489POPC   GL241954  33.863  29.038   6.150
 6489POPC   C1A41955  33.823  29.167   6.450
 6489POPC   D2A41956  33.808  29.099   6.750
 6489POPC   C3A41957  33.831  29.111   7.050
 6489POPC   C4A41958  33.844  29.133   7.350
 6489POPC   C1B41959  34.010  28.975   6.450
 6489POPC   C2B41960  34.031  28.988   6.750
 6489POPC   C3B41961  33.968  28.968   7.050
 6489POPC   C4B41962  33.965  29.042   7.350
 6490POPC   NC341963  25.308  20.573   5.550
 6490POPC   PO441964  25.283  20.649   5.850
 6490POPC   GL141965  25.256  20.654   6.150
 6490POPC   GL241966  25.118  20.701   6.150
 6490POPC   C1A41967  25.243  20.635   6.450
 6490POPC   D2A41968  25.218  20.652   6.750
 6490POPC   C3A41969  25.305  20.641   7.050
 6490POPC   C4A41970  25.249  20.655   7.350
 6490POPC   C1B41971  25.066  20.739   6.450
 6490POPC   C2B41972  25.069  20.736   6.750
 6490POPC   C3B41973  25.085  20.748   7.050
 6490POPC   C4B41974  25.030  20.753   7.350
 6491POPC   NC341975  13.657  27.550   5.550
 6491POPC   PO441976  13.592  27.577   5.850
 6491POPC   GL141977  13.578  27.611   6.150
 6491POPC   GL241978  13.697  27.423   6.150
 6491POPC   C1A41979  13.647  27.582   6.450
 6491POPC   D2A41980  13.582  27.585   6.750
 6491POPC   C3A41981  13.635  27.621   7.050
 6491POPC   C4A41982  13.640  27.580   7.350
 6491POPC   C1B41983  13.690  27.365   6.450
 6491POPC   C2B41984  13.666  27.369   6.750
 6491POPC   C3B41985  13.652  27.377   7.050
 6491POPC   C4B41986  13.662  27.349   7.350
 6492POPC   NC341987  26.051   1.241   5.550
 6492POPC   PO441988  26.069   1.211   5.850
 6492POPC   GL141989  26.025   1.208   6.150
 6492POPC   GL241990  26.167   1.300   6.150
 6492POPC   C1A41991  26.043   1.258   6.450
 6492POPC   D2A41992  26.025   1.221   6.750
 6492POPC   C3A41993  25.995   1.231   7.050
 6492POPC   C4A41994  26.089   1.185   7.350
 6492POPC   C1B41995  26.219   1.357   6.450
 6492POPC   C2B41996  26.291   1.344   6.750
 6492POPC   C3B41997  26.214   1.319   7.050
 6492POPC   C4B41998  26.231   1.337   7.350
 6493POPC   NC341999   1.961  39.198   5.550
 6493POPC   PO442000   2.004  39.243   5.850
 6493POPC   GL142001   1.972  39.187   6.150
 6493POPC   GL242002   1.931  39.202   6.150
 6493POPC   C1A42003   2.014  39.258   6.450
 6493POPC   D2A42004   1.986  39.203   6.750
 6493POPC   C3A42005   2.007  39.237   7.050
 6493POPC   C4A42006   1.994  39.216   7.350
 6493POPC   C1B42007   1.767  39.051   6.450
 6493POPC   C2B42008   1.774  39.060   6.750
 6493POPC   C3B42009   1.776  39.066   7.050
 6493POPC   C4B42010   1.833  39.063   7.350
 6494POPC   NC342011  11.304  16.694   5.550
 6494POPC   PO442012  11.326  16.760   5.850
 6494POPC   GL142013  11.257  16.715   6.150
 6494POPC   GL242014  11.257  16.820   6.150
 6494POPC   C1A42015  11.318  16.734   6.450
 6494POPC   D2A42016  11.257  16.746   6.750
 6494POPC   C3A42017  11.343  16.756   7.050
 6494POPC   C4A42018  11.340  16.748   7.350
 6494POPC   C1B42019  11.193  16.970   6.450
 6494POPC   C2B42020  11.166  16.960   6.750
 6494POPC   C3B42021  11.254  16.994   7.050
 6494POPC   C4B42022  11.189  16.946   7.350
 6495POPC   NC342023  28.371  11.335   5.550
 6495POPC   PO442024  28.378  11.252   5.850
 6495POPC   GL142025  28.321  11.328   6.150
 6495POPC   GL242026  28.470  11.377   6.150
 6495POPC   C1A42027  28.329  11.303   6.450
 6495POPC   D2A42028  28.412  11.274   6.750
 6495POPC   C3A42029  28.355  11.267   7.050
 6495POPC   C4A42030  28.361  11.325   7.350
 6495POPC   C1B42031  28.611  11.413   6.450
 6495POPC   C2B42032  28.513  11.410   6.750
 6495POPC   C3B42033  28.598  11.498   7.050
 6495POPC   C4B42034  28.522  11.496   7.350
 6496POPC   NC342035  26.812  30.744   5.550
 6496POPC   PO442036  26.810  30.741   5.850
 6496POPC   GL142037  26.805  30.689   6.150
 6496POPC   GL242038  26.723  30.834   6.150
 6496POPC   C1A42039  26.782  30.649   6.450
 6496POPC   D2A42040  26.829  30.673   6.750
 6496POPC   C3A42041  26.782  30.689   7.050
 6496POPC   C4A42042  26.842  30.729   7.350
 6496POPC   C1B42043  26.733  30.934   6.450
 6496POPC   C2B42044  26.687  30.928   6.750
 6496POPC   C3B42045  26.683  30.950   7.050
 6496POPC   C4B42046  26.698  30.938   7.350
 6497POPC   NC342047  34.609  21.435   5.550
 6497POPC   PO442048  34.546  21.425   5.850
 6497POPC   GL142049  34.539  21.393   6.150
 6497POPC   GL242050  34.520  21.488   6.150
 6497POPC   C1A42051  34.550  21.403   6.450
 6497POPC   D2A42052  34.613  21.385   6.750
 6497POPC   C3A42053  34.563  21.429   7.050
 6497POPC   C4A42054  34.543  21.345   7.350
 6497POPC   C1B42055  34.349  21.523   6.450
 6497POPC   C2B42056  34.376  21.565   6.750
 6497POPC   C3B42057  34.394  21.581   7.050
 6497POPC   C4B42058  34.387  21.553   7.350
 6498POPC   NC342059   3.565  30.683   5.550
 6498POPC   PO442060   3.538  30.724   5.850
 6498POPC   GL142061   3.570  30.702   6.150
 6498POPC   GL242062   3.618  30.780   6.150
 6498POPC   C1A42063   3.521  30.686   6.450
 6498POPC   D2A42064   3.574  30.650   6.750
 6498POPC   C3A42065   3.591  30.661   7.050
 6498POPC   C4A42066   3.494  30.729   7.350
 6498POPC   C1B42067   3.675  30.949   6.450
 6498POPC   C2B42068   3.689  30.967   6.750
 6498POPC   C3B42069   3.646  30.964   7.050
 6498POPC   C4B42070   3.616  30.892   7.350
 6499POPC   NC342071  13.601  26.860   5.550
 6499POPC   PO442072  13.676  26.863   5.850
 6499POPC   GL142073  13.631  26.867   6.150
 6499POPC   GL242074  13.694  26.932   6.150
 6499POPC   C1A42075  13.609  26.854   6.450
 6499POPC   D2A42076  13.634  26.791   6.750
 6499POPC   C3A42077  13.664  26.796   7.050
 6499POPC   C4A42078  13.633  26.858   7.350
 6499POPC   C1B42079  13.709  27.023   6.450
 6499POPC   C2B42080  13.643  27.059   6.750
 6499POPC   C3B42081  13.709  27.088   7.050
 6499POPC   C4B42082  13.707  27.097   7.350
 6500POPC   NC342083  29.893  22.152   5.550
 6500POPC   PO442084  29.922  22.138   5.850
 6500POPC   GL142085  29.966  22.174   6.150
 6500POPC   GL242086  29.986  22.006   6.150
 6500POPC   C1A42087  29.925  22.158   6.450
 6500POPC   D2A42088  29.933  22.185   6.750
 6500POPC   C3A42089  29.917  22.211   7.050
 6500POPC   C4A42090  29.898  22.188   7.350
 6500POPC   C1B42091  30.007  21.939   6.450
 6500POPC   C2B42092  30.018  21.895   6.750
 6500POPC   C3B42093  30.069  21.924   7.050
 6500POPC   C4B42094  30.074  21.902   7.350
 6501POPC   NC342095  21.389  38.418   5.550
 6501POPC   PO442096  21.401  38.496   5.850
 6501POPC   GL142097  21.367  38.407   6.150
 6501POPC   GL242098  21.370  38.370   6.150
 6501POPC   C1A42099  21.421  38.482   6.450
 6501POPC   D2A42100  21.356  38.441   6.750
 6501POPC   C3A42101  21.373  38.478   7.050
 6501POPC   C4A42102  21.387  38.475   7.350
 6501POPC   C1B42103  21.396  38.165   6.450
 6501POPC   C2B42104  21.361  38.160   6.750
 6501POPC   C3B42105  21.392  38.235   7.050
 6501POPC   C4B42106  21.389  38.245   7.350
 6502POPC   NC342107  36.103   1.169   5.550
 6502POPC   PO442108  36.135   1.225   5.850
 6502POPC   GL142109  36.080   1.177   6.150
 6502POPC   GL242110  36.233   1.286   6.150
 6502POPC   C1A42111  36.087   1.170   6.450
 6502POPC   D2A42112  36.157   1.241   6.750
 6502POPC   C3A42113  36.110   1.171   7.050
 6502POPC   C4A42114  36.174   1.207   7.350
 6502POPC   C1B42115  36.278   1.449   6.450
 6502POPC   C2B42116  36.251   1.417   6.750
 6502POPC   C3B42117  36.211   1.426   7.050
 6502POPC   C4B42118  36.281   1.449   7.350
 6503POPC   NC342119  26.000  39.194   5.550
 6503POPC   PO442120  26.035  39.275   5.850
 6503POPC   GL142121  26.066  39.237   6.150
 6503POPC   GL242122  26.091  39.394   6.150
 6503POPC   C1A42123  26.085  39.241   6.450
 6503POPC   D2A42124  25.993  39.244   6.750
 6503POPC   C3A42125  26.055  39.228   7.050
 6503POPC   C4A42126  26.088  39.194   7.350
 6503POPC   C1B42127  26.055  39.512   6.450
 6503POPC   C2B42128  26.046  39.529   6.750
 6503POPC   C3B42129  26.032  39.496   7.050
 6503POPC   C4B42130  26.086  39.447   7.350
 6504POPC   NC342131  19.869   1.999   5.550
 6504POPC   PO442132  19.805   1.995   5.850
 6504POPC   GL142133  19.798   2.037   6.150
 6504POPC   GL242134  19.889   1.910   6.150
 6504POPC   C1A42135  19.813   1.996   6.450
 6504POPC   D2A42136  19.864   1.945   6.750
 6504POPC   C3A42137  19.813   1.970   7.050
 6504POPC   C4A42138  19.881   1.955   7.350
 6504POPC   C1B42139  19.969   1.764   6.450
 6504POPC   C2B42140  20.015   1.816   6.750
 6504POPC   C3B42141  19.964   1.827   7.050
 6504POPC   C4B42142  19.951   1.820   7.350
 6505POPC   NC342143  35.367  20.580   5.550
 6505POPC   PO442144  35.393  20.585   5.850
 6505POPC   GL142145  35.307  20.582   6.150
 6505POPC   GL242146  35.515  20.557   6.150
 6505POPC   C1A42147  35.314  20.653   6.450
 6505POPC   D2A42148  35.395  20.622   6.750
 6505POPC   C3A42149  35.366  20.624   7.050
 6505POPC   C4A42150  35.309  20.657   7.350
 6505POPC   C1B42151  35.552  20.525   6.450
 6505POPC   C2B42152  35.547  20.527   6.750
 6505POPC   C3B42153  35.609  20.577   7.050
 6505POPC   C4B42154  35.629  20.501   7.350
 6506POPC   NC342155  28.337  35.354   5.550
 6506POPC   PO442156  28.390  35.389   5.850
 6506POPC   GL142157  28.397  35.303   6.150
 6506POPC   GL242158  28.262  35.290   6.150
 6506POPC   C1A42159  28.395  35.308   6.450
 6506POPC   D2A42160  28.381  35.312   6.750
 6506POPC   C3A42161  28.381  35.332   7.050
 6506POPC   C4A42162  28.384  35.379   7.350
 6506POPC   C1B42163  28.205  35.119   6.450
 6506POPC   C2B42164  28.187  35.108   6.750
 6506POPC   C3B42165  28.274  35.095   7.050
 6506POPC   C4B42166  28.179  35.176   7.350
 6507POPC   NC342167  20.608  36.922   5.550
 6507POPC   PO442168  20.603  36.904   5.850
 6507POPC   GL142169  20.644  36.882   6.150
 6507POPC   GL242170  20.625  37.015   6.150
 6507POPC   C1A42171  20.600  36.872   6.450
 6507POPC   D2A42172  20.604  36.904   6.750
 6507POPC   C3A42173  20.573  36.910   7.050
 6507POPC   C4A42174  20.653  36.877   7.350
 6507POPC   C1B42175  20.713  37.125   6.450
 6507POPC   C2B42176  20.683  37.172   6.750
 6507POPC   C3B42177  20.732  37.144   7.050
 6507POPC   C4B42178  20.742  37.096   7.350
 6508POPC   NC342179   2.812   2.804   5.550
 6508POPC   PO442180   2.759   2.809   5.850
 6508POPC   GL142181   2.802   2.766   6.150
 6508POPC   GL242182   2.858   2.717   6.150
 6508POPC   C1A42183   2.814   2.789   6.450
 6508POPC   D2A42184   2.740   2.772   6.750
 6508POPC   C3A42185   2.791   2.733   7.050
 6508POPC   C4A42186   2.750   2.732   7.350
 6508POPC   C1B42187   2.987   2.594   6.450
 6508POPC   C2B42188   2.919   2.652   6.750
 6508POPC   C3B42189   2.999   2.633   7.050
 6508POPC   C4B42190   2.947   2.595   7.350
 6509POPC   NC342191   9.747  20.656   5.550
 6509POPC   PO442192   9.720  20.626   5.850
 6509POPC   GL142193   9.760  20.655   6.150
 6509POPC   GL242194   9.690  20.727   6.150
 6509POPC   C1A42195   9.776  20.568   6.450
 6509POPC   D2A42196   9.709  20.639   6.750
 6509POPC   C3A42197   9.762  20.595   7.050
 6509POPC   C4A42198   9.703  20.581   7.350
 6509POPC   C1B42199   9.627  20.777   6.450
 6509POPC   C2B42200   9.611  20.821   6.750
 6509POPC   C3B42201   9.633  20.800   7.050
 6509POPC   C4B42202   9.632  20.784   7.350
 6510POPC   NC342203  21.395  16.728   5.550
 6510POPC   PO442204  21.425  16.705   5.850
 6510POPC   GL142205  21.414  16.773   6.150
 6510POPC   GL242206  21.344  16.670   6.150
 6510POPC   C1A42207  21.361  16.776   6.450
 6510POPC   D2A42208  21.394  16.748   6.750
 6510POPC   C3A42209  21.404  16.772   7.050
 6510POPC   C4A42210  21.401  16.780   7.350
 6510POPC   C1B42211  21.224  16.526   6.450
 6510POPC   C2B42212  21.168  16.585   6.750
 6510POPC   C3B42213  21.215  16.536   7.050
 6510POPC   C4B42214  21.160  16.567   7.350
 6511POPC   NC342215  37.725   8.246   5.550
 6511POPC   PO442216  37.697   8.167   5.850
 6511POPC   GL142217  37.706   8.155   6.150
 6511POPC   GL242218  37.757   8.056   6.150
 6511POPC   C1A42219  37.691   8.163   6.450
 6511POPC   D2A42220  37.695   8.202   6.750
 6511POPC   C3A42221  37.724   8.223   7.050
 6511POPC   C4A42222  37.713   8.197   7.350
 6511POPC   C1B42223  37.762   7.944   6.450
 6511POPC   C2B42224  37.765   7.999   6.750
 6511POPC   C3B42225  37.759   7.988   7.050
 6511POPC   C4B42226  37.797   7.915   7.350
 6512POPC   NC342227  35.316  32.257   5.550
 6512POPC   PO442228  35.333  32.288   5.850
 6512POPC   GL142229  35.306  32.290   6.150
 6512POPC   GL242230  35.223  32.193   6.150
 6512POPC   C1A42231  35.389  32.253   6.450
 6512POPC   D2A42232  35.328  32.222   6.750
 6512POPC   C3A42233  35.332  32.261   7.050
 6512POPC   C4A42234  35.323  32.210   7.350
 6512POPC   C1B42235  35.113  32.256   6.450
 6512POPC   C2B42236  35.149  32.271   6.750
 6512POPC   C3B42237  35.104  32.213   7.050
 6512POPC   C4B42238  35.117  32.214   7.350
 6513POPC   NC342239  16.724  36.876   5.550
 6513POPC   PO442240  16.771  36.939   5.850
 6513POPC   GL142241  16.762  36.922   6.150
 6513POPC   GL242242  16.904  36.863   6.150
 6513POPC   C1A42243  16.746  36.912   6.450
 6513POPC   D2A42244  16.703  36.936   6.750
 6513POPC   C3A42245  16.720  36.926   7.050
 6513POPC   C4A42246  16.750  36.907   7.350
 6513POPC   C1B42247  17.005  36.867   6.450
 6513POPC   C2B42248  16.951  36.942   6.750
 6513POPC   C3B42249  16.990  36.907   7.050
 6513POPC   C4B42250  17.010  36.913   7.350
 6514POPC   NC342251  25.311  19.038   5.550
 6514POPC   PO442252  25.246  19.011   5.850
 6514POPC   GL142253  25.267  19.041   6.150
 6514POPC   GL242254  25.193  19.131   6.150
 6514POPC   C1A42255  25.289  19.109   6.450
 6514POPC   D2A42256  25.244  19.089   6.750
 6514POPC   C3A42257  25.237  19.061   7.050
 6514POPC   C4A42258  25.294  19.054   7.350
 6514POPC   C1B42259  25.082  19.174   6.450
 6514POPC   C2B42260  25.105  19.181   6.750
 6514POPC   C3B42261  25.070  19.178   7.050
 6514POPC   C4B42262  25.052  19.236   7.350
 6515POPC   NC342263  26.773  35.368   5.550
 6515POPC   PO442264  26.821  35.371   5.850
 6515POPC   GL142265  26.773  35.357   6.150
 6515POPC   GL242266  26.706  35.267   6.150
 6515POPC   C1A42267  26.793  35.341   6.450
 6515POPC   D2A42268  26.826  35.321   6.750
 6515POPC   C3A42269  26.816  35.322   7.050
 6515POPC   C4A42270  26.819  35.361   7.350
 6515POPC   C1B42271  26.653  35.112   6.450
 6515POPC   C2B42272  26.698  35.125   6.750
 6515POPC   C3B42273  26.657  35.181   7.050
 6515POPC   C4B42274  26.645  35.128   7.350
 6516POPC   NC342275  17.473   8.173   5.550
 6516POPC   PO442276  17.479   8.176   5.850
 6516POPC   GL142277  17.517   8.157   6.150
 6516POPC   GL242278  17.430   8.144   6.150
 6516POPC   C1A42279  17.538   8.151   6.450
 6516POPC   D2A42280  17.550   8.160   6.750
 6516POPC   C3A42281  17.541   8.163   7.050
 6516POPC   C4A42282  17.524   8.244   7.350
 6516POPC   C1B42283  17.302   8.003   6.450
 6516POPC   C2B42284  17.360   8.089   6.750
 6516POPC   C3B42285  17.317   7.993   7.050
 6516POPC   C4B42286  17.276   8.060   7.350
 6517POPC   NC342287  14.418  36.090   5.550
 6517POPC   PO442288  14.422  36.118   5.850
 6517POPC   GL142289  14.383  36.095   6.150
 6517POPC   GL242290  14.516  36.230   6.150
 6517POPC   C1A42291  14.399  36.140   6.450
 6517POPC   D2A42292  14.430  36.099   6.750
 6517POPC   C3A42293  14.383  36.164   7.050
 6517POPC   C4A42294  14.448  36.166   7.350
 6517POPC   C1B42295  14.602  36.332   6.450
 6517POPC   C2B42296  14.580  36.359   6.750
 6517POPC   C3B42297  14.524  36.286   7.050
 6517POPC   C4B42298  14.590  36.285   7.350
 6518POPC   NC342299  23.757   6.690   5.550
 6518POPC   PO442300  23.672   6.651   5.850
 6518POPC   GL142301  23.692   6.601   6.150
 6518POPC   GL242302  23.629   6.711   6.150
 6518POPC   C1A42303  23.756   6.670   6.450
 6518POPC   D2A42304  23.713   6.641   6.750
 6518POPC   C3A42305  23.671   6.664   7.050
 6518POPC   C4A42306  23.759   6.629   7.350
 6518POPC   C1B42307  23.644   6.909   6.450
 6518POPC   C2B42308  23.648   6.823   6.750
 6518POPC   C3B42309  23.616   6.828   7.050
 6518POPC   C4B42310  23.585   6.842   7.350
 6519POPC   NC342311   3.508   5.836   5.550
 6519POPC   PO442312   3.529   5.833   5.850
 6519POPC   GL142313   3.503   5.917   6.150
 6519POPC   GL242314   3.495   5.962   6.150
 6519POPC   C1A42315   3.564   5.831   6.450
 6519POPC   D2A42316   3.508   5.859   6.750
 6519POPC   C3A42317   3.517   5.840   7.050
 6519POPC   C4A42318   3.573   5.896   7.350
 6519POPC   C1B42319   3.507   6.112   6.450
 6519POPC   C2B42320   3.448   6.062   6.750
 6519POPC   C3B42321   3.483   6.102   7.050
 6519POPC   C4B42322   3.447   6.080   7.350
 6520POPC   NC342323   1.979  31.493   5.550
 6520POPC   PO442324   2.009  31.477   5.850
 6520POPC   GL142325   2.016  31.464   6.150
 6520POPC   GL242326   2.109  31.603   6.150
 6520POPC   C1A42327   1.973  31.492   6.450
 6520POPC   D2A42328   2.013  31.513   6.750
 6520POPC   C3A42329   2.024  31.473   7.050
 6520POPC   C4A42330   1.995  31.517   7.350
 6520POPC   C1B42331   2.143  31.621   6.450
 6520POPC   C2B42332   2.191  31.648   6.750
 6520POPC   C3B42333   2.168  31.664   7.050
 6520POPC   C4B42334   2.172  31.697   7.350
 6521POPC   NC342335  11.284  20.592   5.550
 6521POPC   PO442336  11.332  20.605   5.850
 6521POPC   GL142337  11.327  20.616   6.150
 6521POPC   GL242338  11.246  20.560   6.150
 6521POPC   C1A42339  11.261  20.651   6.450
 6521POPC   D2A42340  11.307  20.589   6.750
 6521POPC   C3A42341  11.250  20.566   7.050
 6521POPC   C4A42342  11.280  20.624   7.350
 6521POPC   C1B42343  11.168  20.444   6.450
 6521POPC   C2B42344  11.110  20.462   6.750
 6521POPC   C3B42345  11.085  20.412   7.050
 6521POPC   C4B42346  11.158  20.415   7.350
 6522POPC   NC342347   7.436   1.968   5.550
 6522POPC   PO442348   7.396   1.996   5.850
 6522POPC   GL142349   7.407   1.979   6.150
 6522POPC   GL242350   7.578   2.035   6.150
 6522POPC   C1A42351   7.398   2.013   6.450
 6522POPC   D2A42352   7.430   2.020   6.750
 6522POPC   C3A42353   7.406   2.002   7.050
 6522POPC   C4A42354   7.451   1.956   7.350
 6522POPC   C1B42355   7.648   2.004   6.450
 6522POPC   C2B42356   7.670   2.013   6.750
 6522POPC   C3B42357   7.658   2.050   7.050
 6522POPC   C4B42358   7.696   2.028   7.350
 6523POPC   NC342359  25.261  35.310   5.550
 6523POPC   PO442360  25.227  35.369   5.850
 6523POPC   GL142361  25.273  35.370   6.150
 6523POPC   GL242362  25.141  35.412   6.150
 6523POPC   C1A42363  25.258  35.330   6.450
 6523POPC   D2A42364  25.218  35.314   6.750
 6523POPC   C3A42365  25.218  35.358   7.050
 6523POPC   C4A42366  25.257  35.312   7.350
 6523POPC   C1B42367  25.091  35.478   6.450
 6523POPC   C2B42368  25.072  35.519   6.750
 6523POPC   C3B42369  25.035  35.447   7.050
 6523POPC   C4B42370  25.083  35.480   7.350
 6524POPC   NC342371   7.386   1.252   5.550
 6524POPC   PO442372   7.419   1.205   5.850
 6524POPC   GL142373   7.399   1.221   6.150
 6524POPC   GL242374   7.526   1.354   6.150
 6524POPC   C1A42375   7.464   1.207   6.450
 6524POPC   D2A42376   7.376   1.232   6.750
 6524POPC   C3A42377   7.391   1.226   7.050
 6524POPC   C4A42378   7.381   1.198   7.350
 6524POPC   C1B42379   7.570   1.455   6.450
 6524POPC   C2B42380   7.523   1.444   6.750
 6524POPC   C3B42381   7.499   1.417   7.050
 6524POPC   C4B42382   7.573   1.429   7.350
 6525POPC   NC342383   8.962  19.030   5.550
 6525POPC   PO442384   8.943  19.071   5.850
 6525POPC   GL142385   9.001  19.067   6.150
 6525POPC   GL242386   8.876  19.016   6.150
 6525POPC   C1A42387   8.933  19.043   6.450
 6525POPC   D2A42388   8.974  19.064   6.750
 6525POPC   C3A42389   8.934  19.027   7.050
 6525POPC   C4A42390   8.970  19.055   7.350
 6525POPC   C1B42391   8.706  19.062   6.450
 6525POPC   C2B42392   8.674  19.053   6.750
 6525POPC   C3B42393   8.752  19.090   7.050
 6525POPC   C4B42394   8.734  19.085   7.350
 6526POPC   NC342395  27.627  26.802   5.550
 6526POPC   PO442396  27.606  26.842   5.850
 6526POPC   GL142397  27.614  26.791   6.150
 6526POPC   GL242398  27.722  26.888   6.150
 6526POPC   C1A42399  27.579  26.825   6.450
 6526POPC   D2A42400  27.596  26.833   6.750
 6526POPC   C3A42401  27.596  26.797   7.050
 6526POPC   C4A42402  27.585  26.863   7.350
 6526POPC   C1B42403  27.829  26.895   6.450
 6526POPC   C2B42404  27.811  26.900   6.750
 6526POPC   C3B42405  27.817  26.936   7.050
 6526POPC   C4B42406  27.834  26.961   7.350
 6527POPC   NC342407  43.106   3.509   5.550
 6527POPC   PO442408  43.066   3.525   5.850
 6527POPC   GL142409  43.096   3.501   6.150
 6527POPC   GL242410  43.138   3.657   6.150
 6527POPC   C1A42411  43.118   3.524   6.450
 6527POPC   D2A42412  43.153   3.518   6.750
 6527POPC   C3A42413  43.102   3.500   7.050
 6527POPC   C4A42414  43.141   3.553   7.350
 6527POPC   C1B42415  43.234   3.748   6.450
 6527POPC   C2B42416  43.191   3.723   6.750
 6527POPC   C3B42417  43.267   3.741   7.050
 6527POPC   C4B42418  43.225   3.726   7.350
 6528POPC   NC342419   9.735  26.011   5.550
 6528POPC   PO442420   9.795  26.036   5.850
 6528POPC   GL142421   9.699  26.038   6.150
 6528POPC   GL242422   9.747  25.881   6.150
 6528POPC   C1A42423   9.700  26.035   6.450
 6528POPC   D2A42424   9.764  26.078   6.750
 6528POPC   C3A42425   9.793  26.024   7.050
 6528POPC   C4A42426   9.790  26.066   7.350
 6528POPC   C1B42427   9.718  25.789   6.450
 6528POPC   C2B42428   9.703  25.756   6.750
 6528POPC   C3B42429   9.757  25.785   7.050
 6528POPC   C4B42430   9.761  25.837   7.350
 6529POPC   NC342431  19.014  17.468   5.550
 6529POPC   PO442432  19.025  17.524   5.850
 6529POPC   GL142433  19.045  17.555   6.150
 6529POPC   GL242434  18.976  17.448   6.150
 6529POPC   C1A42435  19.071  17.526   6.450
 6529POPC   D2A42436  19.030  17.469   6.750
 6529POPC   C3A42437  19.048  17.527   7.050
 6529POPC   C4A42438  19.042  17.460   7.350
 6529POPC   C1B42439  18.858  17.475   6.450
 6529POPC   C2B42440  18.859  17.458   6.750
 6529POPC   C3B42441  18.791  17.455   7.050
 6529POPC   C4B42442  18.774  17.520   7.350
 6530POPC   NC342443   3.549  26.067   5.550
 6530POPC   PO442444   3.557  26.076   5.850
 6530POPC   GL142445   3.527  26.088   6.150
 6530POPC   GL242446   3.617  26.198   6.150
 6530POPC   C1A42447   3.508  26.064   6.450
 6530POPC   D2A42448   3.532  26.022   6.750
 6530POPC   C3A42449   3.515  26.028   7.050
 6530POPC   C4A42450   3.559  26.000   7.350
 6530POPC   C1B42451   3.629  26.313   6.450
 6530POPC   C2B42452   3.580  26.333   6.750
 6530POPC   C3B42453   3.569  26.274   7.050
 6530POPC   C4B42454   3.627  26.297   7.350
 6531POPC   NC342455  22.947   2.807   5.550
 6531POPC   PO442456  22.975   2.804   5.850
 6531POPC   GL142457  22.954   2.727   6.150
 6531POPC   GL242458  22.909   2.901   6.150
 6531POPC   C1A42459  22.928   2.791   6.450
 6531POPC   D2A42460  22.939   2.736   6.750
 6531POPC   C3A42461  22.985   2.794   7.050
 6531POPC   C4A42462  22.913   2.793   7.350
 6531POPC   C1B42463  22.861   2.971   6.450
 6531POPC   C2B42464  22.896   3.047   6.750
 6531POPC   C3B42465  22.947   3.018   7.050
 6531POPC   C4B42466  22.857   2.987   7.350
 6532POPC   NC342467  19.018   5.071   5.550
 6532POPC   PO442468  19.035   5.076   5.850
 6532POPC   GL142469  19.044   5.050   6.150
 6532POPC   GL242470  19.134   4.939   6.150
 6532POPC   C1A42471  19.107   5.091   6.450
 6532POPC   D2A42472  19.093   5.140   6.750
 6532POPC   C3A42473  19.057   5.112   7.050
 6532POPC   C4A42474  19.057   5.109   7.350
 6532POPC   C1B42475  19.172   4.838   6.450
 6532POPC   C2B42476  19.176   4.825   6.750
 6532POPC   C3B42477  19.195   4.810   7.050
 6532POPC   C4B42478  19.172   4.897   7.350
 6533POPC   NC342479   6.613  24.443   5.550
 6533POPC   PO442480   6.645  24.535   5.850
 6533POPC   GL142481   6.663  24.510   6.150
 6533POPC   GL242482   6.692  24.631   6.150
 6533POPC   C1A42483   6.675  24.499   6.450
 6533POPC   D2A42484   6.662  24.497   6.750
 6533POPC   C3A42485   6.679  24.492   7.050
 6533POPC   C4A42486   6.633  24.455   7.350
 6533POPC   C1B42487   6.779  24.683   6.450
 6533POPC   C2B42488   6.773  24.673   6.750
 6533POPC   C3B42489   6.730  24.734   7.050
 6533POPC   C4B42490   6.783  24.682   7.350
 6534POPC   NC342491   8.936  34.600   5.550
 6534POPC   PO442492   8.963  34.573   5.850
 6534POPC   GL142493   8.989  34.616   6.150
 6534POPC   GL242494   9.010  34.731   6.150
 6534POPC   C1A42495   8.929  34.562   6.450
 6534POPC   D2A42496   9.018  34.625   6.750
 6534POPC   C3A42497   8.959  34.530   7.050
 6534POPC   C4A42498   8.949  34.560   7.350
 6534POPC   C1B42499   9.028  34.834   6.450
 6534POPC   C2B42500   9.063  34.846   6.750
 6534POPC   C3B42501   9.005  34.859   7.050
 6534POPC   C4B42502   9.027  34.841   7.350
 6535POPC   NC342503   0.452  33.807   5.550
 6535POPC   PO442504   0.471  33.756   5.850
 6535POPC   GL142505   0.465  33.767   6.150
 6535POPC   GL242506   0.355  33.963   6.150
 6535POPC   C1A42507   0.395  33.798   6.450
 6535POPC   D2A42508   0.471  33.836   6.750
 6535POPC   C3A42509   0.465  33.797   7.050
 6535POPC   C4A42510   0.487  33.822   7.350
 6535POPC   C1B42511   0.333  34.023   6.450
 6535POPC   C2B42512   0.333  34.062   6.750
 6535POPC   C3B42513   0.307  34.033   7.050
 6535POPC   C4B42514   0.356  34.012   7.350
 6536POPC   NC342515  17.494   1.958   5.550
 6536POPC   PO442516  17.541   2.004   5.850
 6536POPC   GL142517  17.481   2.006   6.150
 6536POPC   GL242518  17.464   1.892   6.150
 6536POPC   C1A42519  17.518   1.946   6.450
 6536POPC   D2A42520  17.532   1.998   6.750
 6536POPC   C3A42521  17.484   2.011   7.050
 6536POPC   C4A42522  17.520   1.987   7.350
 6536POPC   C1B42523  17.457   1.709   6.450
 6536POPC   C2B42524  17.487   1.713   6.750
 6536POPC   C3B42525  17.487   1.753   7.050
 6536POPC   C4B42526  17.533   1.750   7.350
 6537POPC   NC342527   4.319  29.960   5.550
 6537POPC   PO442528   4.365  29.959   5.850
 6537POPC   GL142529   4.353  29.890   6.150
 6537POPC   GL242530   4.286  29.784   6.150
 6537POPC   C1A42531   4.284  29.891   6.450
 6537POPC   D2A42532   4.322  29.954   6.750
 6537POPC   C3A42533   4.358  29.939   7.050
 6537POPC   C4A42534   4.311  29.915   7.350
 6537POPC   C1B42535   4.151  29.747   6.450
 6537POPC   C2B42536   4.162  29.737   6.750
 6537POPC   C3B42537   4.168  29.743   7.050
 6537POPC   C4B42538   4.170  29.686   7.350
 6538POPC   NC342539  30.727  13.586   5.550
 6538POPC   PO442540  30.721  13.626   5.850
 6538POPC   GL142541  30.734  13.592   6.150
 6538POPC   GL242542  30.830  13.619   6.150
 6538POPC   C1A42543  30.687  13.617   6.450
 6538POPC   D2A42544  30.724  13.672   6.750
 6538POPC   C3A42545  30.716  13.627   7.050
 6538POPC   C4A42546  30.668  13.645   7.350
 6538POPC   C1B42547  30.909  13.510   6.450
 6538POPC   C2B42548  30.967  13.531   6.750
 6538POPC   C3B42549  30.907  13.581   7.050
 6538POPC   C4B42550  30.977  13.571   7.350
 6539POPC   NC342551   2.028  33.780   5.550
 6539POPC   PO442552   1.941  33.818   5.850
 6539POPC   GL142553   1.989  33.772   6.150
 6539POPC   GL242554   1.850  33.817   6.150
 6539POPC   C1A42555   1.970  33.780   6.450
 6539POPC   D2A42556   2.016  33.799   6.750
 6539POPC   C3A42557   1.970  33.835   7.050
 6539POPC   C4A42558   2.019  33.780   7.350
 6539POPC   C1B42559   1.787  33.928   6.450
 6539POPC   C2B42560   1.806  33.896   6.750
 6539POPC   C3B42561   1.804  33.870   7.050
 6539POPC   C4B42562   1.811  33.917   7.350
 6540POPC   NC342563  15.183  43.866   5.550
 6540POPC   PO442564  15.166  43.902   5.850
 6540POPC   GL142565  15.152  43.876   6.150
 6540POPC   GL242566  15.291  43.945   6.150
 6540POPC   C1A42567  15.226  43.914   6.450
 6540POPC   D2A42568  15.206  43.892   6.750
 6540POPC   C3A42569  15.198  43.880   7.050
 6540POPC   C4A42570  15.164  43.885   7.350
 6540POPC   C1B42571  15.415  43.977   6.450
 6540POPC   C2B42572  15.379  43.996   6.750
 6540POPC   C3B42573  15.419  43.950   7.050
 6540POPC   C4B42574  15.430  43.967   7.350
 6541POPC   NC342575  20.620  30.703   5.550
 6541POPC   PO442576  20.625  30.726   5.850
 6541POPC   GL142577  20.562  30.685   6.150
 6541POPC   GL242578  20.580  30.624   6.150
 6541POPC   C1A42579  20.590  30.662   6.450
 6541POPC   D2A42580  20.592  30.655   6.750
 6541POPC   C3A42581  20.599  30.691   7.050
 6541POPC   C4A42582  20.561  30.699   7.350
 6541POPC   C1B42583  20.484  30.493   6.450
 6541POPC   C2B42584  20.518  30.520   6.750
 6541POPC   C3B42585  20.466  30.448   7.050
 6541POPC   C4B42586  20.505  30.500   7.350
 6542POPC   NC342587  34.609  26.024   5.550
 6542POPC   PO442588  34.577  25.998   5.850
 6542POPC   GL142589  34.625  26.051   6.150
 6542POPC   GL242590  34.587  25.919   6.150
 6542POPC   C1A42591  34.599  26.046   6.450
 6542POPC   D2A42592  34.615  26.046   6.750
 6542POPC   C3A42593  34.626  26.076   7.050
 6542POPC   C4A42594  34.532  26.029   7.350
 6542POPC   C1B42595  34.482  25.793   6.450
 6542POPC   C2B42596  34.497  25.827   6.750
 6542POPC   C3B42597  34.481  25.844   7.050
 6542POPC   C4B42598  34.543  25.757   7.350
 6543POPC   NC342599  29.148  38.479   5.550
 6543POPC   PO442600  29.190  38.452   5.850
 6543POPC   GL142601  29.179  38.504   6.150
 6543POPC   GL242602  29.115  38.620   6.150
 6543POPC   C1A42603  29.117  38.431   6.450
 6543POPC   D2A42604  29.096  38.446   6.750
 6543POPC   C3A42605  29.112  38.411   7.050
 6543POPC   C4A42606  29.140  38.494   7.350
 6543POPC   C1B42607  29.154  38.704   6.450
 6543POPC   C2B42608  29.144  38.683   6.750
 6543POPC   C3B42609  29.165  38.692   7.050
 6543POPC   C4B42610  29.191  38.696   7.350
 6544POPC   NC342611   6.643  33.793   5.550
 6544POPC   PO442612   6.602  33.799   5.850
 6544POPC   GL142613   6.599  33.832   6.150
 6544POPC   GL242614   6.537  33.927   6.150
 6544POPC   C1A42615   6.683  33.840   6.450
 6544POPC   D2A42616   6.620  33.783   6.750
 6544POPC   C3A42617   6.609  33.816   7.050
 6544POPC   C4A42618   6.681  33.814   7.350
 6544POPC   C1B42619   6.446  33.961   6.450
 6544POPC   C2B42620   6.446  33.931   6.750
 6544POPC   C3B42621   6.462  33.945   7.050
 6544POPC   C4B42622   6.497  33.978   7.350
 6545POPC   NC342623  31.473  43.122   5.550
 6545POPC   PO442624  31.434  43.073   5.850
 6545POPC   GL142625  31.494  43.122   6.150
 6545POPC   GL242626  31.413  43.031   6.150
 6545POPC   C1A42627  31.464  43.062   6.450
 6545POPC   D2A42628  31.431  43.122   6.750
 6545POPC   C3A42629  31.464  43.148   7.050
 6545POPC   C4A42630  31.464  43.114   7.350
 6545POPC   C1B42631  31.287  42.965   6.450
 6545POPC   C2B42632  31.285  42.915   6.750
 6545POPC   C3B42633  31.250  42.966   7.050
 6545POPC   C4B42634  31.297  42.904   7.350
 6546POPC   NC342635  29.908  33.020   5.550
 6546POPC   PO442636  29.915  33.051   5.850
 6546POPC   GL142637  29.876  33.072   6.150
 6546POPC   GL242638  29.816  32.892   6.150
 6546POPC   C1A42639  29.931  33.045   6.450
 6546POPC   D2A42640  29.905  33.019   6.750
 6546POPC   C3A42641  29.895  32.988   7.050
 6546POPC   C4A42642  29.944  33.015   7.350
 6546POPC   C1B42643  29.717  32.801   6.450
 6546POPC   C2B42644  29.739  32.798   6.750
 6546POPC   C3B42645  29.778  32.882   7.050
 6546POPC   C4B42646  29.791  32.851   7.350
 6547POPC   NC342647  42.299   1.171   5.550
 6547POPC   PO442648  42.383   1.183   5.850
 6547POPC   GL142649  42.297   1.203   6.150
 6547POPC   GL242650  42.467   1.220   6.150
 6547POPC   C1A42651  42.375   1.183   6.450
 6547POPC   D2A42652  42.362   1.221   6.750
 6547POPC   C3A42653  42.355   1.232   7.050
 6547POPC   C4A42654  42.366   1.203   7.350
 6547POPC   C1B42655  42.559   1.210   6.450
 6547POPC   C2B42656  42.576   1.248   6.750
 6547POPC   C3B42657  42.565   1.231   7.050
 6547POPC   C4B42658  42.617   1.286   7.350
 6548POPC   NC342659  34.574  25.241   5.550
 6548POPC   PO442660  34.578  25.298   5.850
 6548POPC   GL142661  34.623  25.241   6.150
 6548POPC   GL242662  34.421  25.249   6.150
 6548POPC   C1A42663  34.538  25.310   6.450
 6548POPC   D2A42664  34.600  25.280   6.750
 6548POPC   C3A42665  34.584  25.307   7.050
 6548POPC   C4A42666  34.612  25.259   7.350
 6548POPC   C1B42667  34.289  25.284   6.450
 6548POPC   C2B42668  34.317  25.207   6.750
 6548POPC   C3B42669  34.289  25.300   7.050
 6548POPC   C4B42670  34.337  25.246   7.350
 6549POPC   NC342671  43.844   5.908   5.550
 6549POPC   PO442672  43.886   5.847   5.850
 6549POPC   GL142673  43.896   5.888   6.150
 6549POPC   GL242674  43.924   5.996   6.150
 6549POPC   C1A42675  43.915   5.907   6.450
 6549POPC   D2A42676  43.858   5.877   6.750
 6549POPC   C3A42677  43.914   5.893   7.050
 6549POPC   C4A42678  43.868   5.881   7.350
 6549POPC   C1B42679  43.957   6.129   6.450
 6549POPC   C2B42680  43.964   6.089   6.750
 6549POPC   C3B42681  43.895   6.124   7.050
 6549POPC   C4B42682  43.909   6.096   7.350
 6550POPC   NC342683   5.087   1.253   5.550
 6550POPC   PO442684   5.062   1.219   5.850
 6550POPC   GL142685   5.074   1.181   6.150
 6550POPC   GL242686   5.147   1.302   6.150
 6550POPC   C1A42687   5.051   1.194   6.450
 6550POPC   D2A42688   5.115   1.237   6.750
 6550POPC   C3A42689   5.108   1.259   7.050
 6550POPC   C4A42690   5.114   1.208   7.350
 6550POPC   C1B42691   5.133   1.450   6.450
 6550POPC   C2B42692   5.137   1.418   6.750
 6550POPC   C3B42693   5.082   1.499   7.050
 6550POPC   C4B42694   5.135   1.504   7.350
 6551POPC   NC342695   3.511  36.109   5.550
 6551POPC   PO442696   3.559  36.142   5.850
 6551POPC   GL142697   3.497  36.080   6.150
 6551POPC   GL242698   3.608  36.215   6.150
 6551POPC   C1A42699   3.584  36.082   6.450
 6551POPC   D2A42700   3.531  36.108   6.750
 6551POPC   C3A42701   3.541  36.149   7.050
 6551POPC   C4A42702   3.495  36.082   7.350
 6551POPC   C1B42703   3.812  36.217   6.450
 6551POPC   C2B42704   3.775  36.258   6.750
 6551POPC   C3B42705   3.731  36.262   7.050
 6551POPC   C4B42706   3.750  36.201   7.350
 6552POPC   NC342707   8.933   6.659   5.550
 6552POPC   PO442708   8.972   6.598   5.850
 6552POPC   GL142709   9.008   6.629   6.150
 6552POPC   GL242710   9.084   6.623   6.150
 6552POPC   C1A42711   8.977   6.603   6.450
 6552POPC   D2A42712   8.947   6.692   6.750
 6552POPC   C3A42713   8.968   6.647   7.050
 6552POPC   C4A42714   8.940   6.675   7.350
 6552POPC   C1B42715   9.225   6.701   6.450
 6552POPC   C2B42716   9.211   6.642   6.750
 6552POPC   C3B42717   9.174   6.678   7.050
 6552POPC   C4B42718   9.173   6.678   7.350
 6553POPC   NC342719  12.883  42.365   5.550
 6553POPC   PO442720  12.833  42.373   5.850
 6553POPC   GL142721  12.874  42.296   6.150
 6553POPC   GL242722  12.906  42.206   6.150
 6553POPC   C1A42723  12.869  42.319   6.450
 6553POPC   D2A42724  12.847  42.354   6.750
 6553POPC   C3A42725  12.897  42.361   7.050
 6553POPC   C4A42726  12.831  42.371   7.350
 6553POPC   C1B42727  12.929  42.135   6.450
 6553POPC   C2B42728  12.869  42.062   6.750
 6553POPC   C3B42729  12.915  42.054   7.050
 6553POPC   C4B42730  12.948  42.106   7.350
 6554POPC   NC342731  22.151  16.781   5.550
 6554POPC   PO442732  22.164  16.772   5.850
 6554POPC   GL142733  22.141  16.708   6.150
 6554POPC   GL242734  22.124  16.673   6.150
 6554POPC   C1A42735  22.122  16.711   6.450
 6554POPC   D2A42736  22.161  16.705   6.750
 6554POPC   C3A42737  22.164  16.748   7.050
 6554POPC   C4A42738  22.112  16.750   7.350
 6554POPC   C1B42739  22.048  16.522   6.450
 6554POPC   C2B42740  22.015  16.489   6.750
 6554POPC   C3B42741  22.040  16.540   7.050
 6554POPC   C4B42742  22.062  16.531   7.350
 6555POPC   NC342743  20.650   8.980   5.550
 6555POPC   PO442744  20.628   8.955   5.850
 6555POPC   GL142745  20.622   8.933   6.150
 6555POPC   GL242746  20.766   9.008   6.150
 6555POPC   C1A42747  20.646   9.005   6.450
 6555POPC   D2A42748  20.576   8.941   6.750
 6555POPC   C3A42749  20.618   8.929   7.050
 6555POPC   C4A42750  20.617   8.973   7.350
 6555POPC   C1B42751  20.809   9.021   6.450
 6555POPC   C2B42752  20.888   9.050   6.750
 6555POPC   C3B42753  20.852   8.984   7.050
 6555POPC   C4B42754  20.902   8.975   7.350
 6556POPC   NC342755  12.866  24.450   5.550
 6556POPC   PO442756  12.813  24.451   5.850
 6556POPC   GL142757  12.857  24.459   6.150
 6556POPC   GL242758  12.774  24.384   6.150
 6556POPC   C1A42759  12.835  24.467   6.450
 6556POPC   D2A42760  12.859  24.450   6.750
 6556POPC   C3A42761  12.877  24.517   7.050
 6556POPC   C4A42762  12.811  24.453   7.350
 6556POPC   C1B42763  12.686  24.342   6.450
 6556POPC   C2B42764  12.712  24.293   6.750
 6556POPC   C3B42765  12.680  24.355   7.050
 6556POPC   C4B42766  12.656  24.321   7.350
 6557POPC   NC342767  43.913  12.867   5.550
 6557POPC   PO442768  43.893  12.811   5.850
 6557POPC   GL142769  43.910  12.894   6.150
 6557POPC   GL242770  43.914  12.969   6.150
 6557POPC   C1A42771  43.906  12.882   6.450
 6557POPC   D2A42772  43.855  12.876   6.750
 6557POPC   C3A42773  43.862  12.837   7.050
 6557POPC   C4A42774  43.865  12.896   7.350
 6557POPC   C1B42775  44.050  13.045   6.450
 6557POPC   C2B42776  43.999  13.094   6.750
 6557POPC   C3B42777  44.051  13.097   7.050
 6557POPC   C4B42778  44.050  13.017   7.350
 6558POPC   NC342779  34.601   4.310   5.550
 6558POPC   PO442780  34.582   4.273   5.850
 6558POPC   GL142781  34.606   4.326   6.150
 6558POPC   GL242782  34.684   4.337   6.150
 6558POPC   C1A42783  34.598   4.283   6.450
 6558POPC   D2A42784  34.535   4.353   6.750
 6558POPC   C3A42785  34.560   4.269   7.050
 6558POPC   C4A42786  34.611   4.331   7.350
 6558POPC   C1B42787  34.824   4.414   6.450
 6558POPC   C2B42788  34.820   4.402   6.750
 6558POPC   C3B42789  34.791   4.367   7.050
 6558POPC   C4B42790  34.770   4.383   7.350
 6559POPC   NC342791  34.571   7.431   5.550
 6559POPC   PO442792  34.574   7.388   5.850
 6559POPC   GL142793  34.560   7.456   6.150
 6559POPC   GL242794  34.502   7.307   6.150
 6559POPC   C1A42795  34.600   7.396   6.450
 6559POPC   D2A42796  34.533   7.408   6.750
 6559POPC   C3A42797  34.528   7.427   7.050
 6559POPC   C4A42798  34.579   7.410   7.350
 6559POPC   C1B42799  34.441   7.286   6.450
 6559POPC   C2B42800  34.406   7.277   6.750
 6559POPC   C3B42801  34.406   7.231   7.050
 6559POPC   C4B42802  34.438   7.230   7.350
 6560POPC   NC342803  17.490  14.402   5.550
 6560POPC   PO442804  17.503  14.384   5.850
 6560POPC   GL142805  17.487  14.369   6.150
 6560POPC   GL242806  17.586  14.280   6.150
 6560POPC   C1A42807  17.500  14.366   6.450
 6560POPC   D2A42808  17.488  14.445   6.750
 6560POPC   C3A42809  17.516  14.433   7.050
 6560POPC   C4A42810  17.477  14.403   7.350
 6560POPC   C1B42811  17.641  14.234   6.450
 6560POPC   C2B42812  17.654  14.145   6.750
 6560POPC   C3B42813  17.641  14.156   7.050
 6560POPC   C4B42814  17.666  14.196   7.350
 6561POPC   NC342815  10.534  38.453   5.550
 6561POPC   PO442816  10.499  38.410   5.850
 6561POPC   GL142817  10.528  38.416   6.150
 6561POPC   GL242818  10.594  38.507   6.150
 6561POPC   C1A42819  10.511  38.469   6.450
 6561POPC   D2A42820  10.488  38.466   6.750
 6561POPC   C3A42821  10.570  38.446   7.050
 6561POPC   C4A42822  10.488  38.466   7.350
 6561POPC   C1B42823  10.804  38.496   6.450
 6561POPC   C2B42824  10.742  38.499   6.750
 6561POPC   C3B42825  10.745  38.580   7.050
 6561POPC   C4B42826  10.809  38.505   7.350
 6562POPC   NC342827   5.820  10.511   5.550
 6562POPC   PO442828   5.889  10.549   5.850
 6562POPC   GL142829   5.908  10.492   6.150
 6562POPC   GL242830   5.791  10.466   6.150
 6562POPC   C1A42831   5.914  10.489   6.450
 6562POPC   D2A42832   5.887  10.530   6.750
 6562POPC   C3A42833   5.832  10.549   7.050
 6562POPC   C4A42834   5.891  10.494   7.350
 6562POPC   C1B42835   5.720  10.284   6.450
 6562POPC   C2B42836   5.749  10.365   6.750
 6562POPC   C3B42837   5.760  10.331   7.050
 6562POPC   C4B42838   5.743  10.353   7.350
 6563POPC   NC342839   8.938  17.479   5.550
 6563POPC   PO442840   9.018  17.556   5.850
 6563POPC   GL142841   8.962  17.508   6.150
 6563POPC   GL242842   8.915  17.394   6.150
 6563POPC   C1A42843   9.014  17.505   6.450
 6563POPC   D2A42844   9.006  17.504   6.750
 6563POPC   C3A42845   8.931  17.469   7.050
 6563POPC   C4A42846   8.989  17.468   7.350
 6563POPC   C1B42847   8.909  17.233   6.450
 6563POPC   C2B42848   8.869  17.250   6.750
 6563POPC   C3B42849   8.927  17.239   7.050
 6563POPC   C4B42850   8.864  17.233   7.350
 6564POPC   NC342851  40.786   4.355   5.550
 6564POPC   PO442852  40.755   4.313   5.850
 6564POPC   GL142853  40.829   4.348   6.150
 6564POPC   GL242854  40.703   4.429   6.150
 6564POPC   C1A42855  40.750   4.324   6.450
 6564POPC   D2A42856  40.775   4.337   6.750
 6564POPC   C3A42857  40.762   4.352   7.050
 6564POPC   C4A42858  40.795   4.305   7.350
 6564POPC   C1B42859  40.710   4.580   6.450
 6564POPC   C2B42860  40.701   4.572   6.750
 6564POPC   C3B42861  40.660   4.535   7.050
 6564POPC   C4B42862  40.720   4.520   7.350
 6565POPC   NC342863  34.546  14.370   5.550
 6565POPC   PO442864  34.569  14.370   5.850
 6565POPC   GL142865  34.552  14.418   6.150
 6565POPC   GL242866  34.514  14.309   6.150
 6565POPC   C1A42867  34.549  14.405   6.450
 6565POPC   D2A42868  34.559  14.426   6.750
 6565POPC   C3A42869  34.618  14.429   7.050
 6565POPC   C4A42870  34.548  14.369   7.350
 6565POPC   C1B42871  34.482  14.209   6.450
 6565POPC   C2B42872  34.451  14.158   6.750
 6565POPC   C3B42873  34.425  14.224   7.050
 6565POPC   C4B42874  34.406  14.241   7.350
 6566POPC   NC342875   6.598  39.235   5.550
 6566POPC   PO442876   6.606  39.280   5.850
 6566POPC   GL142877   6.616  39.261   6.150
 6566POPC   GL242878   6.534  39.196   6.150
 6566POPC   C1A42879   6.656  39.237   6.450
 6566POPC   D2A42880   6.647  39.215   6.750
 6566POPC   C3A42881   6.690  39.223   7.050
 6566POPC   C4A42882   6.624  39.248   7.350
 6566POPC   C1B42883   6.353  39.222   6.450
 6566POPC   C2B42884   6.346  39.239   6.750
 6566POPC   C3B42885   6.362  39.255   7.050
 6566POPC   C4B42886   6.380  39.229   7.350
 6567POPC   NC342887   5.892  36.099   5.550
 6567POPC   PO442888   5.897  36.136   5.850
 6567POPC   GL142889   5.859  36.124   6.150
 6567POPC   GL242890   5.858  35.985   6.150
 6567POPC   C1A42891   5.873  36.124   6.450
 6567POPC   D2A42892   5.831  36.095   6.750
 6567POPC   C3A42893   5.899  36.169   7.050
 6567POPC   C4A42894   5.840  36.177   7.350
 6567POPC   C1B42895   5.872  35.892   6.450
 6567POPC   C2B42896   5.943  35.887   6.750
 6567POPC   C3B42897   5.878  35.921   7.050
 6567POPC   C4B42898   5.891  35.884   7.350
 6568POPC   NC342899  20.624  19.877   5.550
 6568POPC   PO442900  20.606  19.839   5.850
 6568POPC   GL142901  20.615  19.853   6.150
 6568POPC   GL242902  20.753  19.807   6.150
 6568POPC   C1A42903  20.610  19.802   6.450
 6568POPC   D2A42904  20.603  19.845   6.750
 6568POPC   C3A42905  20.591  19.841   7.050
 6568POPC   C4A42906  20.635  19.874   7.350
 6568POPC   C1B42907  20.838  19.816   6.450
 6568POPC   C2B42908  20.896  19.809   6.750
 6568POPC   C3B42909  20.874  19.777   7.050
 6568POPC   C4B42910  20.812  19.833   7.350
 6569POPC   NC342911   2.721  29.905   5.550
 6569POPC   PO442912   2.736  29.880   5.850
 6569POPC   GL142913   2.758  29.881   6.150
 6569POPC   GL242914   2.805  30.091   6.150
 6569POPC   C1A42915   2.809  29.907   6.450
 6569POPC   D2A42916   2.755  29.882   6.750
 6569POPC   C3A42917   2.740  29.952   7.050
 6569POPC   C4A42918   2.755  29.914   7.350
 6569POPC   C1B42919   2.743  30.206   6.450
 6569POPC   C2B42920   2.736  30.177   6.750
 6569POPC   C3B42921   2.744  30.154   7.050
 6569POPC   C4B42922   2.731  30.198   7.350
 6570POPC   NC342923  24.518   6.637   5.550
 6570POPC   PO442924  24.504   6.618   5.850
 6570POPC   GL142925  24.472   6.677   6.150
 6570POPC   GL242926  24.607   6.715   6.150
 6570POPC   C1A42927  24.456   6.647   6.450
 6570POPC   D2A42928  24.532   6.645   6.750
 6570POPC   C3A42929  24.481   6.644   7.050
 6570POPC   C4A42930  24.507   6.631   7.350
 6570POPC   C1B42931  24.732   6.661   6.450
 6570POPC   C2B42932  24.731   6.674   6.750
 6570POPC   C3B42933  24.774   6.750   7.050
 6570POPC   C4B42934  24.781   6.660   7.350
 6571POPC   NC342935  41.593  29.875   5.550
 6571POPC   PO442936  41.596  29.914   5.850
 6571POPC   GL142937  41.532  29.938   6.150
 6571POPC   GL242938  41.675  29.859   6.150
 6571POPC   C1A42939  41.511  29.947   6.450
 6571POPC   D2A42940  41.576  29.897   6.750
 6571POPC   C3A42941  41.543  29.960   7.050
 6571POPC   C4A42942  41.599  29.912   7.350
 6571POPC   C1B42943  41.820  29.907   6.450
 6571POPC   C2B42944  41.853  29.895   6.750
 6571POPC   C3B42945  41.810  29.836   7.050
 6571POPC   C4B42946  41.760  29.825   7.350
 6572POPC   NC342947  43.132  15.963   5.550
 6572POPC   PO442948  43.105  15.957   5.850
 6572POPC   GL142949  43.152  15.939   6.150
 6572POPC   GL242950  43.182  15.856   6.150
 6572POPC   C1A42951  43.104  15.910   6.450
 6572POPC   D2A42952  43.120  15.956   6.750
 6572POPC   C3A42953  43.136  15.919   7.050
 6572POPC   C4A42954  43.072  16.004   7.350
 6572POPC   C1B42955  43.280  15.729   6.450
 6572POPC   C2B42956  43.229  15.796   6.750
 6572POPC   C3B42957  43.218  15.742   7.050
 6572POPC   C4B42958  43.215  15.708   7.350
 6573POPC   NC342959  12.115  44.639   5.550
 6573POPC   PO442960  12.095  44.655   5.850
 6573POPC   GL142961  12.085  44.705   6.150
 6573POPC   GL242962  12.080  44.797   6.150
 6573POPC   C1A42963  12.092  44.654   6.450
 6573POPC   D2A42964  12.075  44.693   6.750
 6573POPC   C3A42965  12.057  44.682   7.050
 6573POPC   C4A42966  12.049  44.656   7.350
 6573POPC   C1B42967  11.998  44.860   6.450
 6573POPC   C2B42968  12.076  44.946   6.750
 6573POPC   C3B42969  11.989  44.878   7.050
 6573POPC   C4B42970  11.989  44.878   7.350
 6574POPC   NC342971   4.273  19.102   5.550
 6574POPC   PO442972   4.344  19.032   5.850
 6574POPC   GL142973   4.313  19.072   6.150
 6574POPC   GL242974   4.298  18.975   6.150
 6574POPC   C1A42975   4.320  19.023   6.450
 6574POPC   D2A42976   4.312  19.039   6.750
 6574POPC   C3A42977   4.363  19.039   7.050
 6574POPC   C4A42978   4.310  19.070   7.350
 6574POPC   C1B42979   4.316  18.859   6.450
 6574POPC   C2B42980   4.252  18.765   6.750
 6574POPC   C3B42981   4.266  18.761   7.050
 6574POPC   C4B42982   4.274  18.784   7.350
 6575POPC   NC342983  38.498  36.882   5.550
 6575POPC   PO442984  38.426  36.876   5.850
 6575POPC   GL142985  38.499  36.901   6.150
 6575POPC   GL242986  38.545  37.060   6.150
 6575POPC   C1A42987  38.493  36.897   6.450
 6575POPC   D2A42988  38.467  36.943   6.750
 6575POPC   C3A42989  38.425  36.884   7.050
 6575POPC   C4A42990  38.412  36.937   7.350
 6575POPC   C1B42991  38.540  37.184   6.450
 6575POPC   C2B42992  38.512  37.116   6.750
 6575POPC   C3B42993  38.547  37.130   7.050
 6575POPC   C4B42994  38.526  37.126   7.350
 6576POPC   NC342995  16.700  19.884   5.550
 6576POPC   PO442996  16.717  19.860   5.850
 6576POPC   GL142997  16.773  19.821   6.150
 6576POPC   GL242998  16.628  19.683   6.150
 6576POPC   C1A42999  16.708  19.857   6.450
 6576POPC   D2A43000  16.702  19.818   6.750
 6576POPC   C3A43001  16.690  19.812   7.050
 6576POPC   C4A43002  16.736  19.836   7.350
 6576POPC   C1B43003  16.578  19.581   6.450
 6576POPC   C2B43004  16.579  19.588   6.750
 6576POPC   C3B43005  16.672  19.632   7.050
 6576POPC   C4B43006  16.637  19.644   7.350
 6577POPC   NC343007   2.022  26.848   5.550
 6577POPC   PO443008   1.967  26.790   5.850
 6577POPC   GL143009   1.994  26.852   6.150
 6577POPC   GL243010   2.130  26.865   6.150
 6577POPC   C1A43011   1.947  26.858   6.450
 6577POPC   D2A43012   2.006  26.785   6.750
 6577POPC   C3A43013   1.982  26.802   7.050
 6577POPC   C4A43014   2.032  26.777   7.350
 6577POPC   C1B43015   2.201  26.904   6.450
 6577POPC   C2B43016   2.242  26.875   6.750
 6577POPC   C3B43017   2.226  26.878   7.050
 6577POPC   C4B43018   2.215  26.924   7.350
 6578POPC   NC343019  19.857  38.500   5.550
 6578POPC   PO443020  19.856  38.474   5.850
 6578POPC   GL143021  19.872  38.407   6.150
 6578POPC   GL243022  19.895  38.293   6.150
 6578POPC   C1A43023  19.877  38.456   6.450
 6578POPC   D2A43024  19.807  38.431   6.750
 6578POPC   C3A43025  19.875  38.426   7.050
 6578POPC   C4A43026  19.814  38.406   7.350
 6578POPC   C1B43027  19.917  38.197   6.450
 6578POPC   C2B43028  19.915  38.230   6.750
 6578POPC   C3B43029  19.932  38.258   7.050
 6578POPC   C4B43030  19.975  38.252   7.350
 6579POPC   NC343031  26.805  29.899   5.550
 6579POPC   PO443032  26.786  29.897   5.850
 6579POPC   GL143033  26.854  29.953   6.150
 6579POPC   GL243034  26.930  29.983   6.150
 6579POPC   C1A43035  26.821  29.888   6.450
 6579POPC   D2A43036  26.816  29.943   6.750
 6579POPC   C3A43037  26.783  29.946   7.050
 6579POPC   C4A43038  26.783  29.915   7.350
 6579POPC   C1B43039  27.072  29.998   6.450
 6579POPC   C2B43040  27.018  30.072   6.750
 6579POPC   C3B43041  27.037  30.075   7.050
 6579POPC   C4B43042  27.040  30.030   7.350
 6580POPC   NC343043  31.439   9.733   5.550
 6580POPC   PO443044  31.456   9.741   5.850
 6580POPC   GL143045  31.512   9.718   6.150
 6580POPC   GL243046  31.508   9.655   6.150
 6580POPC   C1A43047  31.507   9.722   6.450
 6580POPC   D2A43048  31.433   9.706   6.750
 6580POPC   C3A43049  31.453   9.790   7.050
 6580POPC   C4A43050  31.451   9.715   7.350
 6580POPC   C1B43051  31.596   9.555   6.450
 6580POPC   C2B43052  31.661   9.534   6.750
 6580POPC   C3B43053  31.570   9.561   7.050
 6580POPC   C4B43054  31.661   9.594   7.350
 6581POPC   NC343055   5.076  29.958   5.550
 6581POPC   PO443056   5.097  29.940   5.850
 6581POPC   GL143057   5.046  29.891   6.150
 6581POPC   GL243058   5.163  30.001   6.150
 6581POPC   C1A43059   5.091  29.901   6.450
 6581POPC   D2A43060   5.046  29.927   6.750
 6581POPC   C3A43061   5.116  29.900   7.050
 6581POPC   C4A43062   5.093  29.957   7.350
 6581POPC   C1B43063   5.297  30.128   6.450
 6581POPC   C2B43064   5.227  30.102   6.750
 6581POPC   C3B43065   5.238  30.119   7.050
 6581POPC   C4B43066   5.252  30.064   7.350
 6582POPC   NC343067  19.851  36.156   5.550
 6582POPC   PO443068  19.787  36.096   5.850
 6582POPC   GL143069  19.804  36.139   6.150
 6582POPC   GL243070  19.690  36.209   6.150
 6582POPC   C1A43071  19.862  36.146   6.450
 6582POPC   D2A43072  19.874  36.154   6.750
 6582POPC   C3A43073  19.812  36.169   7.050
 6582POPC   C4A43074  19.787  36.080   7.350
 6582POPC   C1B43075  19.627  36.266   6.450
 6582POPC   C2B43076  19.586  36.239   6.750
 6582POPC   C3B43077  19.614  36.226   7.050
 6582POPC   C4B43078  19.585  36.264   7.350
 6583POPC   NC343079  12.847  32.256   5.550
 6583POPC   PO443080  12.808  32.203   5.850
 6583POPC   GL143081  12.846  32.241   6.150
 6583POPC   GL243082  12.855  32.162   6.150
 6583POPC   C1A43083  12.891  32.216   6.450
 6583POPC   D2A43084  12.831  32.204   6.750
 6583POPC   C3A43085  12.845  32.203   7.050
 6583POPC   C4A43086  12.823  32.236   7.350
 6583POPC   C1B43087  12.778  31.961   6.450
 6583POPC   C2B43088  12.794  31.957   6.750
 6583POPC   C3B43089  12.848  32.048   7.050
 6583POPC   C4B43090  12.787  31.994   7.350
 6584POPC   NC343091  12.827  43.875   5.550
 6584POPC   PO443092  12.832  43.851   5.850
 6584POPC   GL143093  12.816  43.897   6.150
 6584POPC   GL243094  12.990  43.916   6.150
 6584POPC   C1A43095  12.807  43.900   6.450
 6584POPC   D2A43096  12.865  43.856   6.750
 6584POPC   C3A43097  12.812  43.837   7.050
 6584POPC   C4A43098  12.828  43.935   7.350
 6584POPC   C1B43099  13.092  44.056   6.450
 6584POPC   C2B43100  13.021  44.033   6.750
 6584POPC   C3B43101  13.079  43.967   7.050
 6584POPC   C4B43102  13.022  44.037   7.350
 6585POPC   NC343103  30.741  39.979   5.550
 6585POPC   PO443104  30.685  40.000   5.850
 6585POPC   GL143105  30.742  40.050   6.150
 6585POPC   GL243106  30.746  39.902   6.150
 6585POPC   C1A43107  30.695  40.002   6.450
 6585POPC   D2A43108  30.652  40.023   6.750
 6585POPC   C3A43109  30.743  40.056   7.050
 6585POPC   C4A43110  30.728  40.051   7.350
 6585POPC   C1B43111  30.765  39.740   6.450
 6585POPC   C2B43112  30.774  39.722   6.750
 6585POPC   C3B43113  30.729  39.808   7.050
 6585POPC   C4B43114  30.754  39.755   7.350
 6586POPC   NC343115   9.754  40.042   5.550
 6586POPC   PO443116   9.795  39.989   5.850
 6586POPC   GL143117   9.795  40.050   6.150
 6586POPC   GL243118   9.695  40.112   6.150
 6586POPC   C1A43119   9.780  39.995   6.450
 6586POPC   D2A43120   9.764  39.998   6.750
 6586POPC   C3A43121   9.750  40.054   7.050
 6586POPC   C4A43122   9.724  40.050   7.350
 6586POPC   C1B43123   9.570  40.184   6.450
 6586POPC   C2B43124   9.617  40.188   6.750
 6586POPC   C3B43125   9.602  40.224   7.050
 6586POPC   C4B43126   9.638  40.242   7.350
 6587POPC   NC343127  13.582  13.665   5.550
 6587POPC   PO443128  13.629  13.672   5.850
 6587POPC   GL143129  13.656  13.610   6.150
 6587POPC   GL243130  13.533  13.603   6.150
 6587POPC   C1A43131  13.668  13.582   6.450
 6587POPC   D2A43132  13.579  13.610   6.750
 6587POPC   C3A43133  13.586  13.619   7.050
 6587POPC   C4A43134  13.662  13.582   7.350
 6587POPC   C1B43135  13.445  13.550   6.450
 6587POPC   C2B43136  13.448  13.547   6.750
 6587POPC   C3B43137  13.433  13.558   7.050
 6587POPC   C4B43138  13.410  13.543   7.350
 6588POPC   NC343139  29.188   4.322   5.550
 6588POPC   PO443140  29.118   4.275   5.850
 6588POPC   GL143141  29.126   4.296   6.150
 6588POPC   GL243142  29.090   4.455   6.150
 6588POPC   C1A43143  29.165   4.340   6.450
 6588POPC   D2A43144  29.111   4.331   6.750
 6588POPC   C3A43145  29.149   4.359   7.050
 6588POPC   C4A43146  29.127   4.320   7.350
 6588POPC   C1B43147  29.076   4.576   6.450
 6588POPC   C2B43148  28.996   4.504   6.750
 6588POPC   C3B43149  29.073   4.490   7.050
 6588POPC   C4B43150  29.076   4.541   7.350
 6589POPC   NC343151   4.307  15.144   5.550
 6589POPC   PO443152   4.312  15.224   5.850
 6589POPC   GL143153   4.324  15.130   6.150
 6589POPC   GL243154   4.253  15.209   6.150
 6589POPC   C1A43155   4.271  15.180   6.450
 6589POPC   D2A43156   4.286  15.188   6.750
 6589POPC   C3A43157   4.362  15.211   7.050
 6589POPC   C4A43158   4.314  15.204   7.350
 6589POPC   C1B43159   4.106  15.312   6.450
 6589POPC   C2B43160   4.087  15.280   6.750
 6589POPC   C3B43161   4.063  15.348   7.050
 6589POPC   C4B43162   4.153  15.316   7.350
 6590POPC   NC343163  29.925   5.836   5.550
 6590POPC   PO443164  29.892   5.825   5.850
 6590POPC   GL143165  29.875   5.876   6.150
 6590POPC   GL243166  29.808   5.826   6.150
 6590POPC   C1A43167  29.899   5.820   6.450
 6590POPC   D2A43168  29.882   5.888   6.750
 6590POPC   C3A43169  29.872   5.872   7.050
 6590POPC   C4A43170  29.909   5.894   7.350
 6590POPC   C1B43171  29.706   5.719   6.450
 6590POPC   C2B43172  29.754   5.731   6.750
 6590POPC   C3B43173  29.697   5.699   7.050
 6590POPC   C4B43174  29.692   5.702   7.350
 6591POPC   NC343175   8.212   8.938   5.550
 6591POPC   PO443176   8.162   8.998   5.850
 6591POPC   GL143177   8.159   8.937   6.150
 6591POPC   GL243178   8.286   8.922   6.150
 6591POPC   C1A43179   8.220   8.935   6.450
 6591POPC   D2A43180   8.151   8.930   6.750
 6591POPC   C3A43181   8.171   8.979   7.050
 6591POPC   C4A43182   8.171   8.937   7.350
 6591POPC   C1B43183   8.410   8.944   6.450
 6591POPC   C2B43184   8.437   8.892   6.750
 6591POPC   C3B43185   8.449   8.965   7.050
 6591POPC   C4B43186   8.475   8.917   7.350
 6592POPC   NC343187  44.702  28.338   5.550
 6592POPC   PO443188  44.644  28.320   5.850
 6592POPC   GL143189  44.708  28.344   6.150
 6592POPC   GL243190  44.512  28.320   6.150
 6592POPC   C1A43191  44.636  28.385   6.450
 6592POPC   D2A43192  44.679  28.368   6.750
 6592POPC   C3A43193  44.638  28.383   7.050
 6592POPC   C4A43194  44.664  28.409   7.350
 6592POPC   C1B43195  44.427  28.218   6.450
 6592POPC   C2B43196  44.464  28.252   6.750
 6592POPC   C3B43197  44.438  28.198   7.050
 6592POPC   C4B43198  44.470  28.211   7.350
 6593POPC   NC343199  24.521  44.613   5.550
 6593POPC   PO443200  24.508  44.666   5.850
 6593POPC   GL143201  24.502  44.688   6.150
 6593POPC   GL243202  24.421  44.580   6.150
 6593POPC   C1A43203  24.496  44.694   6.450
 6593POPC   D2A43204  24.458  44.620   6.750
 6593POPC   C3A43205  24.490  44.650   7.050
 6593POPC   C4A43206  24.520  44.633   7.350
 6593POPC   C1B43207  24.249  44.471   6.450
 6593POPC   C2B43208  24.278  44.497   6.750
 6593POPC   C3B43209  24.291  44.521   7.050
 6593POPC   C4B43210  24.310  44.451   7.350
 6594POPC   NC343211  36.872   0.485   5.550
 6594POPC   PO443212  36.892   0.445   5.850
 6594POPC   GL143213  36.927   0.444   6.150
 6594POPC   GL243214  36.818   0.432   6.150
 6594POPC   C1A43215  36.889   0.406   6.450
 6594POPC   D2A43216  36.934   0.474   6.750
 6594POPC   C3A43217  36.936   0.468   7.050
 6594POPC   C4A43218  36.903   0.406   7.350
 6594POPC   C1B43219  36.624   0.479   6.450
 6594POPC   C2B43220  36.681   0.492   6.750
 6594POPC   C3B43221  36.619   0.426   7.050
 6594POPC   C4B43222  36.626   0.452   7.350
 6595POPC   NC343223  44.633  25.219   5.550
 6595POPC   PO443224  44.615  25.222   5.850
 6595POPC   GL143225  44.671  25.315   6.150
 6595POPC   GL243226  44.631  25.363   6.150
 6595POPC   C1A43227  44.686  25.217   6.450
 6595POPC   D2A43228  44.664  25.260   6.750
 6595POPC   C3A43229  44.649  25.308   7.050
 6595POPC   C4A43230  44.650  25.225   7.350
 6595POPC   C1B43231  44.629  25.511   6.450
 6595POPC   C2B43232  44.669  25.505   6.750
 6595POPC   C3B43233  44.679  25.466   7.050
 6595POPC   C4B43234  44.646  25.484   7.350
 6596POPC   NC343235  41.510  34.616   5.550
 6596POPC   PO443236  41.586  34.611   5.850
 6596POPC   GL143237  41.600  34.544   6.150
 6596POPC   GL243238  41.566  34.710   6.150
 6596POPC   C1A43239  41.562  34.591   6.450
 6596POPC   D2A43240  41.571  34.526   6.750
 6596POPC   C3A43241  41.583  34.554   7.050
 6596POPC   C4A43242  41.605  34.606   7.350
 6596POPC   C1B43243  41.638  34.823   6.450
 6596POPC   C2B43244  41.609  34.782   6.750
 6596POPC   C3B43245  41.596  34.773   7.050
 6596POPC   C4B43246  41.647  34.846   7.350
 6597POPC   NC343247   7.435   4.313   5.550
 6597POPC   PO443248   7.404   4.341   5.850
 6597POPC   GL143249   7.387   4.347   6.150
 6597POPC   GL243250   7.448   4.196   6.150
 6597POPC   C1A43251   7.427   4.345   6.450
 6597POPC   D2A43252   7.398   4.339   6.750
 6597POPC   C3A43253   7.374   4.361   7.050
 6597POPC   C4A43254   7.402   4.271   7.350
 6597POPC   C1B43255   7.474   4.050   6.450
 6597POPC   C2B43256   7.489   4.085   6.750
 6597POPC   C3B43257   7.484   4.055   7.050
 6597POPC   C4B43258   7.451   4.028   7.350
 6598POPC   NC343259  40.758  20.617   5.550
 6598POPC   PO443260  40.792  20.593   5.850
 6598POPC   GL143261  40.739  20.635   6.150
 6598POPC   GL243262  40.751  20.737   6.150
 6598POPC   C1A43263  40.792  20.637   6.450
 6598POPC   D2A43264  40.809  20.627   6.750
 6598POPC   C3A43265  40.791  20.615   7.050
 6598POPC   C4A43266  40.808  20.606   7.350
 6598POPC   C1B43267  40.622  20.814   6.450
 6598POPC   C2B43268  40.606  20.821   6.750
 6598POPC   C3B43269  40.663  20.843   7.050
 6598POPC   C4B43270  40.659  20.849   7.350
 6599POPC   NC343271  26.845  24.457   5.550
 6599POPC   PO443272  26.781  24.475   5.850
 6599POPC   GL143273  26.805  24.473   6.150
 6599POPC   GL243274  26.937  24.522   6.150
 6599POPC   C1A43275  26.773  24.525   6.450
 6599POPC   D2A43276  26.848  24.484   6.750
 6599POPC   C3A43277  26.866  24.530   7.050
 6599POPC   C4A43278  26.779  24.470   7.350
 6599POPC   C1B43279  27.057  24.535   6.450
 6599POPC   C2B43280  27.063  24.513   6.750
 6599POPC   C3B43281  27.027  24.483   7.050
 6599POPC   C4B43282  27.043  24.477   7.350
 6600POPC   NC343283  38.449  26.039   5.550
 6600POPC   PO443284  38.477  26.078   5.850
 6600POPC   GL143285  38.504  25.999   6.150
 6600POPC   GL243286  38.374  26.017   6.150
 6600POPC   C1A43287  38.406  26.011   6.450
 6600POPC   D2A43288  38.411  26.076   6.750
 6600POPC   C3A43289  38.416  26.072   7.050
 6600POPC   C4A43290  38.435  26.090   7.350
 6600POPC   C1B43291  38.185  26.081   6.450
 6600POPC   C2B43292  38.253  26.073   6.750
 6600POPC   C3B43293  38.162  26.076   7.050
 6600POPC   C4B43294  38.239  26.038   7.350
 6601POPC   NC343295  32.990  15.908   5.550
 6601POPC   PO443296  33.062  15.942   5.850
 6601POPC   GL143297  32.984  15.967   6.150
 6601POPC   GL243298  33.099  15.945   6.150
 6601POPC   C1A43299  33.048  15.916   6.450
 6601POPC   D2A43300  33.054  15.918   6.750
 6601POPC   C3A43301  32.985  15.997   7.050
 6601POPC   C4A43302  33.028  15.915   7.350
 6601POPC   C1B43303  33.289  15.858   6.450
 6601POPC   C2B43304  33.269  15.910   6.750
 6601POPC   C3B43305  33.299  15.910   7.050
 6601POPC   C4B43306  33.257  15.824   7.350
 6602POPC   NC343307  37.656  19.807   5.550
 6602POPC   PO443308  37.660  19.881   5.850
 6602POPC   GL143309  37.649  19.816   6.150
 6602POPC   GL243310  37.642  19.890   6.150
 6602POPC   C1A43311  37.717  19.860   6.450
 6602POPC   D2A43312  37.670  19.839   6.750
 6602POPC   C3A43313  37.634  19.854   7.050
 6602POPC   C4A43314  37.635  19.813   7.350
 6602POPC   C1B43315  37.530  20.047   6.450
 6602POPC   C2B43316  37.542  20.008   6.750
 6602POPC   C3B43317  37.500  19.982   7.050
 6602POPC   C4B43318  37.526  20.026   7.350
 6603POPC   NC343319   5.859  18.252   5.550
 6603POPC   PO443320   5.874  18.238   5.850
 6603POPC   GL143321   5.855  18.319   6.150
 6603POPC   GL243322   5.791  18.140   6.150
 6603POPC   C1A43323   5.852  18.324   6.450
 6603POPC   D2A43324   5.859  18.314   6.750
 6603POPC   C3A43325   5.874  18.238   7.050
 6603POPC   C4A43326   5.828  18.278   7.350
 6603POPC   C1B43327   5.736  18.076   6.450
 6603POPC   C2B43328   5.734  18.093   6.750
 6603POPC   C3B43329   5.711  18.085   7.050
 6603POPC   C4B43330   5.712  18.069   7.350
 6604POPC   NC343331   2.034   4.356   5.550
 6604POPC   PO443332   1.964   4.330   5.850
 6604POPC   GL143333   1.967   4.316   6.150
 6604POPC   GL243334   2.051   4.422   6.150
 6604POPC   C1A43335   2.006   4.285   6.450
 6604POPC   D2A43336   1.994   4.332   6.750
 6604POPC   C3A43337   1.979   4.307   7.050
 6604POPC   C4A43338   1.949   4.292   7.350
 6604POPC   C1B43339   2.204   4.479   6.450
 6604POPC   C2B43340   2.115   4.496   6.750
 6604POPC   C3B43341   2.132   4.483   7.050
 6604POPC   C4B43342   2.160   4.464   7.350
 6605POPC   NC343343  12.107  43.145   5.550
 6605POPC   PO443344  12.060  43.145   5.850
 6605POPC   GL143345  12.082  43.081   6.150
 6605POPC   GL243346  12.230  43.123   6.150
 6605POPC   C1A43347  12.076  43.128   6.450
 6605POPC   D2A43348  12.049  43.068   6.750
 6605POPC   C3A43349  12.102  43.114   7.050
 6605POPC   C4A43350  12.047  43.106   7.350
 6605POPC   C1B43351  12.326  43.234   6.450
 6605POPC   C2B43352  12.264  43.238   6.750
 6605POPC   C3B43353  12.342  43.268   7.050
 6605POPC   C4B43354  12.265  43.210   7.350
 6606POPC   NC343355  19.021  23.745   5.550
 6606POPC   PO443356  19.078  23.763   5.850
 6606POPC   GL143357  19.060  23.743   6.150
 6606POPC   GL243358  18.945  23.706   6.150
 6606POPC   C1A43359  19.081  23.762   6.450
 6606POPC   D2A43360  19.036  23.679   6.750
 6606POPC   C3A43361  19.038  23.706   7.050
 6606POPC   C4A43362  19.026  23.728   7.350
 6606POPC   C1B43363  18.802  23.747   6.450
 6606POPC   C2B43364  18.828  23.768   6.750
 6606POPC   C3B43365  18.786  23.770   7.050
 6606POPC   C4B43366  18.773  23.779   7.350
 6607POPC   NC343367  22.202   7.440   5.550
 6607POPC   PO443368  22.194   7.388   5.850
 6607POPC   GL143369  22.166   7.396   6.150
 6607POPC   GL243370  22.322   7.512   6.150
 6607POPC   C1A43371  22.153   7.398   6.450
 6607POPC   D2A43372  22.129   7.403   6.750
 6607POPC   C3A43373  22.208   7.464   7.050
 6607POPC   C4A43374  22.183   7.380   7.350
 6607POPC   C1B43375  22.402   7.513   6.450
 6607POPC   C2B43376  22.409   7.572   6.750
 6607POPC   C3B43377  22.420   7.568   7.050
 6607POPC   C4B43378  22.371   7.563   7.350
 6608POPC   NC343379  14.402  25.312   5.550
 6608POPC   PO443380  14.443  25.304   5.850
 6608POPC   GL143381  14.381  25.246   6.150
 6608POPC   GL243382  14.460  25.332   6.150
 6608POPC   C1A43383  14.451  25.293   6.450
 6608POPC   D2A43384  14.414  25.219   6.750
 6608POPC   C3A43385  14.356  25.302   7.050
 6608POPC   C4A43386  14.378  25.245   7.350
 6608POPC   C1B43387  14.472  25.520   6.450
 6608POPC   C2B43388  14.501  25.507   6.750
 6608POPC   C3B43389  14.495  25.449   7.050
 6608POPC   C4B43390  14.543  25.503   7.350
 6609POPC   NC343391  19.870   3.551   5.550
 6609POPC   PO443392  19.819   3.532   5.850
 6609POPC   GL143393  19.833   3.579   6.150
 6609POPC   GL243394  19.973   3.541   6.150
 6609POPC   C1A43395  19.853   3.507   6.450
 6609POPC   D2A43396  19.807   3.565   6.750
 6609POPC   C3A43397  19.860   3.582   7.050
 6609POPC   C4A43398  19.873   3.554   7.350
 6609POPC   C1B43399  20.076   3.567   6.450
 6609POPC   C2B43400  20.123   3.519   6.750
 6609POPC   C3B43401  20.122   3.490   7.050
 6609POPC   C4B43402  20.104   3.564   7.350
 6610POPC   NC343403  39.232   5.892   5.550
 6610POPC   PO443404  39.226   5.872   5.850
 6610POPC   GL143405  39.198   5.822   6.150
 6610POPC   GL243406  39.146   5.955   6.150
 6610POPC   C1A43407  39.195   5.914   6.450
 6610POPC   D2A43408  39.241   5.882   6.750
 6610POPC   C3A43409  39.279   5.832   7.050
 6610POPC   C4A43410  39.196   5.913   7.350
 6610POPC   C1B43411  39.133   6.155   6.450
 6610POPC   C2B43412  39.135   6.120   6.750
 6610POPC   C3B43413  39.138   6.070   7.050
 6610POPC   C4B43414  39.148   6.152   7.350
 6611POPC   NC343415  34.571  42.353   5.550
 6611POPC   PO443416  34.568  42.376   5.850
 6611POPC   GL143417  34.535  42.307   6.150
 6611POPC   GL243418  34.567  42.169   6.150
 6611POPC   C1A43419  34.606  42.359   6.450
 6611POPC   D2A43420  34.619  42.303   6.750
 6611POPC   C3A43421  34.532  42.321   7.050
 6611POPC   C4A43422  34.614  42.299   7.350
 6611POPC   C1B43423  34.570  42.057   6.450
 6611POPC   C2B43424  34.655  42.077   6.750
 6611POPC   C3B43425  34.569  42.133   7.050
 6611POPC   C4B43426  34.623  42.065   7.350
 6612POPC   NC343427  38.467  21.436   5.550
 6612POPC   PO443428  38.446  21.339   5.850
 6612POPC   GL143429  38.480  21.369   6.150
 6612POPC   GL243430  38.458  21.309   6.150
 6612POPC   C1A43431  38.439  21.383   6.450
 6612POPC   D2A43432  38.442  21.398   6.750
 6612POPC   C3A43433  38.482  21.362   7.050
 6612POPC   C4A43434  38.468  21.362   7.350
 6612POPC   C1B43435  38.370  21.188   6.450
 6612POPC   C2B43436  38.409  21.166   6.750
 6612POPC   C3B43437  38.349  21.101   7.050
 6612POPC   C4B43438  38.355  21.105   7.350
 6613POPC   NC343439  44.711   8.215   5.550
 6613POPC   PO443440  44.652   8.163   5.850
 6613POPC   GL143441  44.618   8.240   6.150
 6613POPC   GL243442  44.586   8.284   6.150
 6613POPC   C1A43443  44.656   8.224   6.450
 6613POPC   D2A43444  44.672   8.161   6.750
 6613POPC   C3A43445  44.631   8.186   7.050
 6613POPC   C4A43446  44.645   8.150   7.350
 6613POPC   C1B43447  44.459   8.368   6.450
 6613POPC   C2B43448  44.462   8.393   6.750
 6613POPC   C3B43449  44.487   8.375   7.050
 6613POPC   C4B43450  44.519   8.383   7.350
 6614POPC   NC343451   1.949  26.049   5.550
 6614POPC   PO443452   1.957  26.002   5.850
 6614POPC   GL143453   2.038  25.999   6.150
 6614POPC   GL243454   2.065  25.966   6.150
 6614POPC   C1A43455   1.944  26.028   6.450
 6614POPC   D2A43456   1.948  26.020   6.750
 6614POPC   C3A43457   1.941  26.064   7.050
 6614POPC   C4A43458   2.039  26.039   7.350
 6614POPC   C1B43459   2.251  25.864   6.450
 6614POPC   C2B43460   2.172  25.883   6.750
 6614POPC   C3B43461   2.246  25.930   7.050
 6614POPC   C4B43462   2.191  25.900   7.350
 6615POPC   NC343463   8.159   5.868   5.550
 6615POPC   PO443464   8.220   5.833   5.850
 6615POPC   GL143465   8.184   5.890   6.150
 6615POPC   GL243466   8.202   5.971   6.150
 6615POPC   C1A43467   8.241   5.892   6.450
 6615POPC   D2A43468   8.163   5.892   6.750
 6615POPC   C3A43469   8.236   5.866   7.050
 6615POPC   C4A43470   8.181   5.847   7.350
 6615POPC   C1B43471   8.207   6.072   6.450
 6615POPC   C2B43472   8.238   6.151   6.750
 6615POPC   C3B43473   8.266   6.066   7.050
 6615POPC   C4B43474   8.279   6.086   7.350
 6616POPC   NC343475  36.939  34.587   5.550
 6616POPC   PO443476  36.867  34.542   5.850
 6616POPC   GL143477  36.951  34.593   6.150
 6616POPC   GL243478  36.869  34.658   6.150
 6616POPC   C1A43479  36.898  34.559   6.450
 6616POPC   D2A43480  36.940  34.571   6.750
 6616POPC   C3A43481  36.915  34.552   7.050
 6616POPC   C4A43482  36.945  34.564   7.350
 6616POPC   C1B43483  36.796  34.835   6.450
 6616POPC   C2B43484  36.770  34.813   6.750
 6616POPC   C3B43485  36.824  34.759   7.050
 6616POPC   C4B43486  36.763  34.853   7.350
 6617POPC   NC343487  19.843   8.203   5.550
 6617POPC   PO443488  19.835   8.182   5.850
 6617POPC   GL143489  19.880   8.213   6.150
 6617POPC   GL243490  19.861   8.351   6.150
 6617POPC   C1A43491  19.797   8.185   6.450
 6617POPC   D2A43492  19.795   8.236   6.750
 6617POPC   C3A43493  19.809   8.165   7.050
 6617POPC   C4A43494  19.841   8.203   7.350
 6617POPC   C1B43495  19.814   8.416   6.450
 6617POPC   C2B43496  19.774   8.405   6.750
 6617POPC   C3B43497  19.769   8.408   7.050
 6617POPC   C4B43498  19.857   8.461   7.350
 6618POPC   NC343499  40.768   3.520   5.550
 6618POPC   PO443500  40.749   3.559   5.850
 6618POPC   GL143501  40.752   3.535   6.150
 6618POPC   GL243502  40.658   3.426   6.150
 6618POPC   C1A43503  40.820   3.542   6.450
 6618POPC   D2A43504  40.763   3.552   6.750
 6618POPC   C3A43505  40.757   3.498   7.050
 6618POPC   C4A43506  40.779   3.498   7.350
 6618POPC   C1B43507  40.612   3.376   6.450
 6618POPC   C2B43508  40.606   3.446   6.750
 6618POPC   C3B43509  40.614   3.440   7.050
 6618POPC   C4B43510  40.599   3.388   7.350
 6619POPC   NC343511   9.713  14.390   5.550
 6619POPC   PO443512   9.780  14.371   5.850
 6619POPC   GL143513   9.710  14.396   6.150
 6619POPC   GL243514   9.822  14.495   6.150
 6619POPC   C1A43515   9.700  14.356   6.450
 6619POPC   D2A43516   9.710  14.367   6.750
 6619POPC   C3A43517   9.734  14.388   7.050
 6619POPC   C4A43518   9.761  14.425   7.350
 6619POPC   C1B43519   9.930  14.497   6.450
 6619POPC   C2B43520   9.975  14.582   6.750
 6619POPC   C3B43521   9.928  14.508   7.050
 6619POPC   C4B43522   9.948  14.542   7.350
 6620POPC   NC343523  28.388   9.766   5.550
 6620POPC   PO443524  28.386   9.795   5.850
 6620POPC   GL143525  28.416   9.705   6.150
 6620POPC   GL243526  28.374   9.829   6.150
 6620POPC   C1A43527  28.385   9.698   6.450
 6620POPC   D2A43528  28.401   9.762   6.750
 6620POPC   C3A43529  28.384   9.780   7.050
 6620POPC   C4A43530  28.353   9.740   7.350
 6620POPC   C1B43531  28.389  10.031   6.450
 6620POPC   C2B43532  28.380  10.024   6.750
 6620POPC   C3B43533  28.336  10.019   7.050
 6620POPC   C4B43534  28.352  10.038   7.350
 6621POPC   NC343535  31.425  19.858   5.550
 6621POPC   PO443536  31.512  19.853   5.850
 6621POPC   GL143537  31.492  19.793   6.150
 6621POPC   GL243538  31.450  19.978   6.150
 6621POPC   C1A43539  31.464  19.845   6.450
 6621POPC   D2A43540  31.430  19.807   6.750
 6621POPC   C3A43541  31.426  19.809   7.050
 6621POPC   C4A43542  31.425  19.788   7.350
 6621POPC   C1B43543  31.448  20.120   6.450
 6621POPC   C2B43544  31.373  20.086   6.750
 6621POPC   C3B43545  31.388  20.063   7.050
 6621POPC   C4B43546  31.379  20.052   7.350
 6622POPC   NC343547  22.935  23.718   5.550
 6622POPC   PO443548  22.915  23.671   5.850
 6622POPC   GL143549  22.917  23.740   6.150
 6622POPC   GL243550  22.939  23.793   6.150
 6622POPC   C1A43551  22.972  23.753   6.450
 6622POPC   D2A43552  22.929  23.730   6.750
 6622POPC   C3A43553  22.975  23.694   7.050
 6622POPC   C4A43554  22.905  23.670   7.350
 6622POPC   C1B43555  22.952  23.957   6.450
 6622POPC   C2B43556  22.929  23.930   6.750
 6622POPC   C3B43557  22.985  23.989   7.050
 6622POPC   C4B43558  22.990  23.919   7.350
 6623POPC   NC343559  35.328  42.301   5.550
 6623POPC   PO443560  35.376  42.323   5.850
 6623POPC   GL143561  35.382  42.310   6.150
 6623POPC   GL243562  35.473  42.300   6.150
 6623POPC   C1A43563  35.317  42.360   6.450
 6623POPC   D2A43564  35.390  42.330   6.750
 6623POPC   C3A43565  35.356  42.319   7.050
 6623POPC   C4A43566  35.372  42.316   7.350
 6623POPC   C1B43567  35.561  42.365   6.450
 6623POPC   C2B43568  35.562  42.359   6.750
 6623POPC   C3B43569  35.560  42.314   7.050
 6623POPC   C4B43570  35.581  42.316   7.350
 6624POPC   NC343571  26.796  42.359   5.550
 6624POPC   PO443572  26.850  42.286   5.850
 6624POPC   GL143573  26.811  42.348   6.150
 6624POPC   GL243574  26.737  42.238   6.150
 6624POPC   C1A43575  26.791  42.355   6.450
 6624POPC   D2A43576  26.803  42.297   6.750
 6624POPC   C3A43577  26.833  42.366   7.050
 6624POPC   C4A43578  26.834  42.291   7.350
 6624POPC   C1B43579  26.679  42.098   6.450
 6624POPC   C2B43580  26.709  42.171   6.750
 6624POPC   C3B43581  26.683  42.160   7.050
 6624POPC   C4B43582  26.670  42.169   7.350
 6625POPC   NC343583  11.270  26.841   5.550
 6625POPC   PO443584  11.323  26.791   5.850
 6625POPC   GL143585  11.288  26.840   6.150
 6625POPC   GL243586  11.321  26.706   6.150
 6625POPC   C1A43587  11.344  26.836   6.450
 6625POPC   D2A43588  11.272  26.841   6.750
 6625POPC   C3A43589  11.258  26.771   7.050
 6625POPC   C4A43590  11.328  26.819   7.350
 6625POPC   C1B43591  11.374  26.575   6.450
 6625POPC   C2B43592  11.394  26.567   6.750
 6625POPC   C3B43593  11.311  26.549   7.050
 6625POPC   C4B43594  11.315  26.553   7.350
 6626POPC   NC343595  36.099  25.307   5.550
 6626POPC   PO443596  36.128  25.310   5.850
 6626POPC   GL143597  36.136  25.226   6.150
 6626POPC   GL243598  36.047  25.431   6.150
 6626POPC   C1A43599  36.164  25.252   6.450
 6626POPC   D2A43600  36.092  25.224   6.750
 6626POPC   C3A43601  36.170  25.270   7.050
 6626POPC   C4A43602  36.110  25.272   7.350
 6626POPC   C1B43603  36.092  25.541   6.450
 6626POPC   C2B43604  35.994  25.548   6.750
 6626POPC   C3B43605  36.074  25.525   7.050
 6626POPC   C4B43606  36.016  25.466   7.350
 6627POPC   NC343607  22.938   5.057   5.550
 6627POPC   PO443608  22.916   5.097   5.850
 6627POPC   GL143609  22.943   5.053   6.150
 6627POPC   GL243610  22.960   5.164   6.150
 6627POPC   C1A43611  22.936   5.136   6.450
 6627POPC   D2A43612  22.913   5.070   6.750
 6627POPC   C3A43613  22.919   5.091   7.050
 6627POPC   C4A43614  22.932   5.045   7.350
 6627POPC   C1B43615  22.990   5.343   6.450
 6627POPC   C2B43616  23.023   5.310   6.750
 6627POPC   C3B43617  23.008   5.325   7.050
 6627POPC   C4B43618  23.018   5.322   7.350
 6628POPC   NC343619   4.287  36.154   5.550
 6628POPC   PO443620   4.283  36.105   5.850
 6628POPC   GL143621   4.310  36.110   6.150
 6628POPC   GL243622   4.171  36.103   6.150
 6628POPC   C1A43623   4.273  36.088   6.450
 6628POPC   D2A43624   4.307  36.105   6.750
 6628POPC   C3A43625   4.319  36.136   7.050
 6628POPC   C4A43626   4.312  36.149   7.350
 6628POPC   C1B43627   4.139  36.033   6.450
 6628POPC   C2B43628   4.101  35.947   6.750
 6628POPC   C3B43629   4.104  35.979   7.050
 6628POPC   C4B43630   4.107  35.961   7.350
 6629POPC   NC343631  44.628  12.099   5.550
 6629POPC   PO443632  44.619  12.122   5.850
 6629POPC   GL143633  44.704  12.116   6.150
 6629POPC   GL243634  44.743  12.137   6.150
 6629POPC   C1A43635  44.618  12.114   6.450
 6629POPC   D2A43636  44.651  12.069   6.750
 6629POPC   C3A43637  44.627  12.109   7.050
 6629POPC   C4A43638  44.674  12.111   7.350
 6629POPC   C1B43639  44.847  12.262   6.450
 6629POPC   C2B43640  44.820  12.249   6.750
 6629POPC   C3B43641  44.848  12.277   7.050
 6629POPC   C4B43642  44.848  12.228   7.350
 6630POPC   NC343643  19.073  34.545   5.550
 6630POPC   PO443644  19.093  34.529   5.850
 6630POPC   GL143645  19.055  34.538   6.150
 6630POPC   GL243646  18.975  34.602   6.150
 6630POPC   C1A43647  19.086  34.548   6.450
 6630POPC   D2A43648  19.081  34.535   6.750
 6630POPC   C3A43649  19.034  34.555   7.050
 6630POPC   C4A43650  19.024  34.611   7.350
 6630POPC   C1B43651  18.830  34.689   6.450
 6630POPC   C2B43652  18.882  34.670   6.750
 6630POPC   C3B43653  18.868  34.664   7.050
 6630POPC   C4B43654  18.833  34.719   7.350
 6631POPC   NC343655  27.559   1.165   5.550
 6631POPC   PO443656  27.634   1.181   5.850
 6631POPC   GL143657  27.595   1.234   6.150
 6631POPC   GL243658  27.725   1.153   6.150
 6631POPC   C1A43659  27.560   1.238   6.450
 6631POPC   D2A43660  27.626   1.174   6.750
 6631POPC   C3A43661  27.618   1.220   7.050
 6631POPC   C4A43662  27.616   1.229   7.350
 6631POPC   C1B43663  27.844   1.082   6.450
 6631POPC   C2B43664  27.801   1.128   6.750
 6631POPC   C3B43665  27.792   1.126   7.050
 6631POPC   C4B43666  27.778   1.131   7.350
 6632POPC   NC343667  21.425   1.261   5.550
 6632POPC   PO443668  21.392   1.223   5.850
 6632POPC   GL143669  21.354   1.193   6.150
 6632POPC   GL243670  21.478   1.159   6.150
 6632POPC   C1A43671  21.412   1.208   6.450
 6632POPC   D2A43672  21.391   1.255   6.750
 6632POPC   C3A43673  21.427   1.219   7.050
 6632POPC   C4A43674  21.370   1.173   7.350
 6632POPC   C1B43675  21.585   1.157   6.450
 6632POPC   C2B43676  21.597   1.173   6.750
 6632POPC   C3B43677  21.658   1.139   7.050
 6632POPC   C4B43678  21.620   1.171   7.350
 6633POPC   NC343679  10.568  39.266   5.550
 6633POPC   PO443680  10.541  39.232   5.850
 6633POPC   GL143681  10.522  39.199   6.150
 6633POPC   GL243682  10.408  39.183   6.150
 6633POPC   C1A43683  10.517  39.269   6.450
 6633POPC   D2A43684  10.511  39.261   6.750
 6633POPC   C3A43685  10.568  39.233   7.050
 6633POPC   C4A43686  10.541  39.237   7.350
 6633POPC   C1B43687  10.284  39.196   6.450
 6633POPC   C2B43688  10.269  39.198   6.750
 6633POPC   C3B43689  10.257  39.214   7.050
 6633POPC   C4B43690  10.232  39.174   7.350
 6634POPC   NC343691  14.450  39.958   5.550
 6634POPC   PO443692  14.377  40.022   5.850
 6634POPC   GL143693  14.439  40.048   6.150
 6634POPC   GL243694  14.259  40.042   6.150
 6634POPC   C1A43695  14.379  40.019   6.450
 6634POPC   D2A43696  14.371  40.000   6.750
 6634POPC   C3A43697  14.430  39.976   7.050
 6634POPC   C4A43698  14.358  40.047   7.350
 6634POPC   C1B43699  14.109  39.949   6.450
 6634POPC   C2B43700  14.193  39.948   6.750
 6634POPC   C3B43701  14.198  40.008   7.050
 6634POPC   C4B43702  14.197  39.993   7.350
 6635POPC   NC343703  11.337  40.032   5.550
 6635POPC   PO443704  11.328  40.039   5.850
 6635POPC   GL143705  11.271  39.989   6.150
 6635POPC   GL243706  11.265  39.929   6.150
 6635POPC   C1A43707  11.303  39.974   6.450
 6635POPC   D2A43708  11.324  40.045   6.750
 6635POPC   C3A43709  11.284  39.999   7.050
 6635POPC   C4A43710  11.343  40.004   7.350
 6635POPC   C1B43711  11.206  39.780   6.450
 6635POPC   C2B43712  11.162  39.765   6.750
 6635POPC   C3B43713  11.165  39.740   7.050
 6635POPC   C4B43714  11.256  39.778   7.350
 6636POPC   NC343715  27.620  38.438   5.550
 6636POPC   PO443716  27.556  38.505   5.850
 6636POPC   GL143717  27.624  38.458   6.150
 6636POPC   GL243718  27.740  38.407   6.150
 6636POPC   C1A43719  27.598  38.479   6.450
 6636POPC   D2A43720  27.629  38.453   6.750
 6636POPC   C3A43721  27.558  38.475   7.050
 6636POPC   C4A43722  27.566  38.497   7.350
 6636POPC   C1B43723  27.818  38.398   6.450
 6636POPC   C2B43724  27.801  38.438   6.750
 6636POPC   C3B43725  27.794  38.430   7.050
 6636POPC   C4B43726  27.794  38.443   7.350
 6637POPC   NC343727  13.595  40.804   5.550
 6637POPC   PO443728  13.608  40.750   5.850
 6637POPC   GL143729  13.583  40.800   6.150
 6637POPC   GL243730  13.576  40.647   6.150
 6637POPC   C1A43731  13.628  40.799   6.450
 6637POPC   D2A43732  13.634  40.799   6.750
 6637POPC   C3A43733  13.676  40.754   7.050
 6637POPC   C4A43734  13.631  40.806   7.350
 6637POPC   C1B43735  13.530  40.560   6.450
 6637POPC   C2B43736  13.554  40.584   6.750
 6637POPC   C3B43737  13.550  40.546   7.050
 6637POPC   C4B43738  13.563  40.512   7.350
 6638POPC   NC343739  28.328  19.856   5.550
 6638POPC   PO443740  28.405  19.841   5.850
 6638POPC   GL143741  28.327  19.798   6.150
 6638POPC   GL243742  28.214  19.836   6.150
 6638POPC   C1A43743  28.385  19.824   6.450
 6638POPC   D2A43744  28.404  19.833   6.750
 6638POPC   C3A43745  28.406  19.852   7.050
 6638POPC   C4A43746  28.348  19.801   7.350
 6638POPC   C1B43747  28.170  19.826   6.450
 6638POPC   C2B43748  28.076  19.770   6.750
 6638POPC   C3B43749  28.167  19.802   7.050
 6638POPC   C4B43750  28.111  19.772   7.350
 6639POPC   NC343751  32.243  23.665   5.550
 6639POPC   PO443752  32.236  23.668   5.850
 6639POPC   GL143753  32.239  23.686   6.150
 6639POPC   GL243754  32.137  23.799   6.150
 6639POPC   C1A43755  32.232  23.739   6.450
 6639POPC   D2A43756  32.246  23.745   6.750
 6639POPC   C3A43757  32.241  23.707   7.050
 6639POPC   C4A43758  32.226  23.664   7.350
 6639POPC   C1B43759  32.086  23.855   6.450
 6639POPC   C2B43760  32.038  23.928   6.750
 6639POPC   C3B43761  32.065  23.849   7.050
 6639POPC   C4B43762  32.094  23.859   7.350
 6640POPC   NC343763  36.150   3.528   5.550
 6640POPC   PO443764  36.146   3.578   5.850
 6640POPC   GL143765  36.115   3.494   6.150
 6640POPC   GL243766  36.293   3.521   6.150
 6640POPC   C1A43767  36.126   3.499   6.450
 6640POPC   D2A43768  36.101   3.496   6.750
 6640POPC   C3A43769  36.130   3.527   7.050
 6640POPC   C4A43770  36.127   3.499   7.350
 6640POPC   C1B43771  36.344   3.469   6.450
 6640POPC   C2B43772  36.349   3.411   6.750
 6640POPC   C3B43773  36.370   3.436   7.050
 6640POPC   C4B43774  36.340   3.435   7.350
 6641POPC   NC343775  12.856  37.672   5.550
 6641POPC   PO443776  12.875  37.708   5.850
 6641POPC   GL143777  12.842  37.653   6.150
 6641POPC   GL243778  12.899  37.591   6.150
 6641POPC   C1A43779  12.901  37.642   6.450
 6641POPC   D2A43780  12.852  37.715   6.750
 6641POPC   C3A43781  12.878  37.690   7.050
 6641POPC   C4A43782  12.802  37.649   7.350
 6641POPC   C1B43783  12.878  37.417   6.450
 6641POPC   C2B43784  12.845  37.430   6.750
 6641POPC   C3B43785  12.847  37.468   7.050
 6641POPC   C4B43786  12.873  37.404   7.350
 6642POPC   NC343787   9.729   2.791   5.550
 6642POPC   PO443788   9.736   2.781   5.850
 6642POPC   GL143789   9.705   2.791   6.150
 6642POPC   GL243790   9.694   2.648   6.150
 6642POPC   C1A43791   9.719   2.768   6.450
 6642POPC   D2A43792   9.759   2.738   6.750
 6642POPC   C3A43793   9.734   2.721   7.050
 6642POPC   C4A43794   9.782   2.758   7.350
 6642POPC   C1B43795   9.617   2.558   6.450
 6642POPC   C2B43796   9.609   2.544   6.750
 6642POPC   C3B43797   9.648   2.491   7.050
 6642POPC   C4B43798   9.681   2.493   7.350
 6643POPC   NC343799   7.372  40.823   5.550
 6643POPC   PO443800   7.406  40.809   5.850
 6643POPC   GL143801   7.466  40.793   6.150
 6643POPC   GL243802   7.329  40.732   6.150
 6643POPC   C1A43803   7.430  40.811   6.450
 6643POPC   D2A43804   7.397  40.737   6.750
 6643POPC   C3A43805   7.375  40.799   7.050
 6643POPC   C4A43806   7.456  40.791   7.350
 6643POPC   C1B43807   7.239  40.611   6.450
 6643POPC   C2B43808   7.280  40.550   6.750
 6643POPC   C3B43809   7.238  40.577   7.050
 6643POPC   C4B43810   7.250  40.558   7.350
 6644POPC   NC343811   5.047  43.106   5.550
 6644POPC   PO443812   5.058  43.069   5.850
 6644POPC   GL143813   5.124  43.116   6.150
 6644POPC   GL243814   5.154  43.246   6.150
 6644POPC   C1A43815   5.122  43.069   6.450
 6644POPC   D2A43816   5.061  43.145   6.750
 6644POPC   C3A43817   5.126  43.114   7.050
 6644POPC   C4A43818   5.078  43.147   7.350
 6644POPC   C1B43819   5.241  43.335   6.450
 6644POPC   C2B43820   5.271  43.299   6.750
 6644POPC   C3B43821   5.253  43.274   7.050
 6644POPC   C4B43822   5.220  43.268   7.350
 6645POPC   NC343823  22.133   2.786   5.550
 6645POPC   PO443824  22.194   2.806   5.850
 6645POPC   GL143825  22.140   2.729   6.150
 6645POPC   GL243826  22.136   2.865   6.150
 6645POPC   C1A43827  22.121   2.723   6.450
 6645POPC   D2A43828  22.202   2.808   6.750
 6645POPC   C3A43829  22.116   2.806   7.050
 6645POPC   C4A43830  22.158   2.723   7.350
 6645POPC   C1B43831  22.043   3.033   6.450
 6645POPC   C2B43832  22.039   2.989   6.750
 6645POPC   C3B43833  22.120   3.004   7.050
 6645POPC   C4B43834  22.133   3.048   7.350
 6646POPC   NC343835   8.976  30.705   5.550
 6646POPC   PO443836   9.011  30.688   5.850
 6646POPC   GL143837   8.965  30.659   6.150
 6646POPC   GL243838   8.919  30.634   6.150
 6646POPC   C1A43839   8.970  30.703   6.450
 6646POPC   D2A43840   8.978  30.687   6.750
 6646POPC   C3A43841   9.008  30.677   7.050
 6646POPC   C4A43842   8.986  30.651   7.350
 6646POPC   C1B43843   8.844  30.454   6.450
 6646POPC   C2B43844   8.878  30.522   6.750
 6646POPC   C3B43845   8.848  30.536   7.050
 6646POPC   C4B43846   8.785  30.485   7.350
 6647POPC   NC343847  18.293  26.781   5.550
 6647POPC   PO443848  18.286  26.817   5.850
 6647POPC   GL143849  18.269  26.832   6.150
 6647POPC   GL243850  18.406  26.902   6.150
 6647POPC   C1A43851  18.267  26.806   6.450
 6647POPC   D2A43852  18.289  26.867   6.750
 6647POPC   C3A43853  18.329  26.824   7.050
 6647POPC   C4A43854  18.252  26.847   7.350
 6647POPC   C1B43855  18.498  26.889   6.450
 6647POPC   C2B43856  18.454  26.958   6.750
 6647POPC   C3B43857  18.511  26.950   7.050
 6647POPC   C4B43858  18.543  26.964   7.350
 6648POPC   NC343859  12.858  36.095   5.550
 6648POPC   PO443860  12.811  36.093   5.850
 6648POPC   GL143861  12.852  36.098   6.150
 6648POPC   GL243862  12.999  36.238   6.150
 6648POPC   C1A43863  12.807  36.092   6.450
 6648POPC   D2A43864  12.893  36.121   6.750
 6648POPC   C3A43865  12.828  36.175   7.050
 6648POPC   C4A43866  12.892  36.085   7.350
 6648POPC   C1B43867  13.070  36.265   6.450
 6648POPC   C2B43868  13.040  36.302   6.750
 6648POPC   C3B43869  13.107  36.301   7.050
 6648POPC   C4B43870  13.092  36.248   7.350
 6649POPC   NC343871  40.813  22.979   5.550
 6649POPC   PO443872  40.763  22.918   5.850
 6649POPC   GL143873  40.805  22.987   6.150
 6649POPC   GL243874  40.923  22.873   6.150
 6649POPC   C1A43875  40.742  22.965   6.450
 6649POPC   D2A43876  40.822  22.967   6.750
 6649POPC   C3A43877  40.754  22.932   7.050
 6649POPC   C4A43878  40.821  22.966   7.350
 6649POPC   C1B43879  40.956  22.844   6.450
 6649POPC   C2B43880  41.001  22.843   6.750
 6649POPC   C3B43881  40.973  22.825   7.050
 6649POPC   C4B43882  40.953  22.814   7.350
 6650POPC   NC343883  28.332   3.575   5.550
 6650POPC   PO443884  28.390   3.518   5.850
 6650POPC   GL143885  28.357   3.518   6.150
 6650POPC   GL243886  28.301   3.632   6.150
 6650POPC   C1A43887  28.372   3.534   6.450
 6650POPC   D2A43888  28.381   3.530   6.750
 6650POPC   C3A43889  28.392   3.520   7.050
 6650POPC   C4A43890  28.386   3.574   7.350
 6650POPC   C1B43891  28.263   3.794   6.450
 6650POPC   C2B43892  28.295   3.772   6.750
 6650POPC   C3B43893  28.288   3.771   7.050
 6650POPC   C4B43894  28.275   3.780   7.350
 6651POPC   NC343895  15.968  32.288   5.550
 6651POPC   PO443896  15.923  32.237   5.850
 6651POPC   GL143897  15.948  32.295   6.150
 6651POPC   GL243898  15.803  32.205   6.150
 6651POPC   C1A43899  15.905  32.232   6.450
 6651POPC   D2A43900  15.917  32.223   6.750
 6651POPC   C3A43901  16.002  32.275   7.050
 6651POPC   C4A43902  15.949  32.281   7.350
 6651POPC   C1B43903  15.672  32.185   6.450
 6651POPC   C2B43904  15.711  32.253   6.750
 6651POPC   C3B43905  15.728  32.244   7.050
 6651POPC   C4B43906  15.711  32.207   7.350
 6652POPC   NC343907   6.616   1.211   5.550
 6652POPC   PO443908   6.682   1.196   5.850
 6652POPC   GL143909   6.612   1.249   6.150
 6652POPC   GL243910   6.585   1.097   6.150
 6652POPC   C1A43911   6.631   1.195   6.450
 6652POPC   D2A43912   6.677   1.206   6.750
 6652POPC   C3A43913   6.677   1.228   7.050
 6652POPC   C4A43914   6.635   1.204   7.350
 6652POPC   C1B43915   6.431   1.046   6.450
 6652POPC   C2B43916   6.494   1.039   6.750
 6652POPC   C3B43917   6.468   1.021   7.050
 6652POPC   C4B43918   6.443   0.993   7.350
 6653POPC   NC343919   5.866   8.932   5.550
 6653POPC   PO443920   5.859   8.990   5.850
 6653POPC   GL143921   5.877   9.020   6.150
 6653POPC   GL243922   5.967   8.969   6.150
 6653POPC   C1A43923   5.840   9.000   6.450
 6653POPC   D2A43924   5.843   9.019   6.750
 6653POPC   C3A43925   5.846   8.965   7.050
 6653POPC   C4A43926   5.837   8.961   7.350
 6653POPC   C1B43927   6.100   8.909   6.450
 6653POPC   C2B43928   6.049   8.917   6.750
 6653POPC   C3B43929   6.117   8.838   7.050
 6653POPC   C4B43930   6.138   8.854   7.350
 6654POPC   NC343931  32.990  41.515   5.550
 6654POPC   PO443932  33.054  41.531   5.850
 6654POPC   GL143933  32.989  41.587   6.150
 6654POPC   GL243934  32.886  41.643   6.150
 6654POPC   C1A43935  33.031  41.511   6.450
 6654POPC   D2A43936  32.983  41.604   6.750
 6654POPC   C3A43937  32.986  41.575   7.050
 6654POPC   C4A43938  33.016  41.577   7.350
 6654POPC   C1B43939  32.818  41.647   6.450
 6654POPC   C2B43940  32.836  41.654   6.750
 6654POPC   C3B43941  32.774  41.685   7.050
 6654POPC   C4B43942  32.798  41.617   7.350
 6655POPC   NC343943  41.589  30.703   5.550
 6655POPC   PO443944  41.566  30.720   5.850
 6655POPC   GL143945  41.522  30.680   6.150
 6655POPC   GL243946  41.710  30.752   6.150
 6655POPC   C1A43947  41.579  30.653   6.450
 6655POPC   D2A43948  41.557  30.728   6.750
 6655POPC   C3A43949  41.589  30.713   7.050
 6655POPC   C4A43950  41.524  30.703   7.350
 6655POPC   C1B43951  41.755  30.787   6.450
 6655POPC   C2B43952  41.806  30.749   6.750
 6655POPC   C3B43953  41.815  30.787   7.050
 6655POPC   C4B43954  41.784  30.842   7.350
 6656POPC   NC343955  15.186  30.710   5.550
 6656POPC   PO443956  15.178  30.730   5.850
 6656POPC   GL143957  15.182  30.727   6.150
 6656POPC   GL243958  15.111  30.553   6.150
 6656POPC   C1A43959  15.141  30.710   6.450
 6656POPC   D2A43960  15.168  30.720   6.750
 6656POPC   C3A43961  15.214  30.732   7.050
 6656POPC   C4A43962  15.204  30.657   7.350
 6656POPC   C1B43963  15.047  30.494   6.450
 6656POPC   C2B43964  15.087  30.496   6.750
 6656POPC   C3B43965  15.075  30.466   7.050
 6656POPC   C4B43966  15.058  30.484   7.350
 6657POPC   NC343967  33.811   7.380   5.550
 6657POPC   PO443968  33.785   7.464   5.850
 6657POPC   GL143969  33.829   7.389   6.150
 6657POPC   GL243970  33.828   7.327   6.150
 6657POPC   C1A43971  33.845   7.373   6.450
 6657POPC   D2A43972  33.830   7.464   6.750
 6657POPC   C3A43973  33.821   7.376   7.050
 6657POPC   C4A43974  33.765   7.462   7.350
 6657POPC   C1B43975  33.777   7.154   6.450
 6657POPC   C2B43976  33.784   7.197   6.750
 6657POPC   C3B43977  33.741   7.171   7.050
 6657POPC   C4B43978  33.824   7.151   7.350
 6658POPC   NC343979  28.327  39.972   5.550
 6658POPC   PO443980  28.330  40.028   5.850
 6658POPC   GL143981  28.391  39.967   6.150
 6658POPC   GL243982  28.313  39.837   6.150
 6658POPC   C1A43983  28.337  39.972   6.450
 6658POPC   D2A43984  28.396  40.024   6.750
 6658POPC   C3A43985  28.398  39.998   7.050
 6658POPC   C4A43986  28.334  40.019   7.350
 6658POPC   C1B43987  28.271  39.767   6.450
 6658POPC   C2B43988  28.266  39.754   6.750
 6658POPC   C3B43989  28.343  39.758   7.050
 6658POPC   C4B43990  28.275  39.807   7.350
 6659POPC   NC343991  17.553  27.638   5.550
 6659POPC   PO443992  17.474  27.634   5.850
 6659POPC   GL143993  17.550  27.581   6.150
 6659POPC   GL243994  17.574  27.750   6.150
 6659POPC   C1A43995  17.553  27.640   6.450
 6659POPC   D2A43996  17.501  27.558   6.750
 6659POPC   C3A43997  17.536  27.567   7.050
 6659POPC   C4A43998  17.478  27.632   7.350
 6659POPC   C1B43999  17.543  27.799   6.450
 6659POPC   C2B44000  17.535  27.838   6.750
 6659POPC   C3B44001  17.568  27.816   7.050
 6659POPC   C4B44002  17.608  27.843   7.350
 6660POPC   NC344003  40.826  26.021   5.550
 6660POPC   PO444004  40.791  26.021   5.850
 6660POPC   GL144005  40.780  26.055   6.150
 6660POPC   GL244006  40.926  26.007   6.150
 6660POPC   C1A44007  40.779  26.055   6.450
 6660POPC   D2A44008  40.784  26.058   6.750
 6660POPC   C3A44009  40.734  26.024   7.050
 6660POPC   C4A44010  40.782  26.001   7.350
 6660POPC   C1B44011  40.954  25.898   6.450
 6660POPC   C2B44012  41.004  25.887   6.750
 6660POPC   C3B44013  40.996  25.895   7.050
 6660POPC   C4B44014  40.966  25.931   7.350
 6661POPC   NC344015  36.933  20.584   5.550
 6661POPC   PO444016  36.911  20.656   5.850
 6661POPC   GL144017  36.857  20.580   6.150
 6661POPC   GL244018  36.860  20.491   6.150
 6661POPC   C1A44019  36.887  20.631   6.450
 6661POPC   D2A44020  36.907  20.606   6.750
 6661POPC   C3A44021  36.911  20.606   7.050
 6661POPC   C4A44022  36.893  20.586   7.350
 6661POPC   C1B44023  36.742  20.424   6.450
 6661POPC   C2B44024  36.785  20.424   6.750
 6661POPC   C3B44025  36.765  20.402   7.050
 6661POPC   C4B44026  36.799  20.425   7.350
 6662POPC   NC344027   5.841  38.446   5.550
 6662POPC   PO444028   5.885  38.494   5.850
 6662POPC   GL144029   5.837  38.464   6.150
 6662POPC   GL244030   6.028  38.418   6.150
 6662POPC   C1A44031   5.877  38.486   6.450
 6662POPC   D2A44032   5.885  38.426   6.750
 6662POPC   C3A44033   5.917  38.494   7.050
 6662POPC   C4A44034   5.862  38.493   7.350
 6662POPC   C1B44035   6.049  38.389   6.450
 6662POPC   C2B44036   6.060  38.326   6.750
 6662POPC   C3B44037   6.100  38.327   7.050
 6662POPC   C4B44038   6.055  38.367   7.350
 6663POPC   NC344039  24.482  14.447   5.550
 6663POPC   PO444040  24.456  14.383   5.850
 6663POPC   GL144041  24.483  14.421   6.150
 6663POPC   GL244042  24.574  14.458   6.150
 6663POPC   C1A44043  24.455  14.376   6.450
 6663POPC   D2A44044  24.515  14.428   6.750
 6663POPC   C3A44045  24.530  14.370   7.050
 6663POPC   C4A44046  24.474  14.432   7.350
 6663POPC   C1B44047  24.731  14.382   6.450
 6663POPC   C2B44048  24.764  14.405   6.750
 6663POPC   C3B44049  24.769  14.399   7.050
 6663POPC   C4B44050  24.690  14.433   7.350
 6664POPC   NC344051   2.030   1.982   5.550
 6664POPC   PO444052   2.013   1.961   5.850
 6664POPC   GL144053   2.000   1.958   6.150
 6664POPC   GL244054   2.111   2.001   6.150
 6664POPC   C1A44055   1.946   2.033   6.450
 6664POPC   D2A44056   1.978   1.940   6.750
 6664POPC   C3A44057   1.998   2.020   7.050
 6664POPC   C4A44058   1.980   2.032   7.350
 6664POPC   C1B44059   2.251   1.949   6.450
 6664POPC   C2B44060   2.259   1.940   6.750
 6664POPC   C3B44061   2.234   1.940   7.050
 6664POPC   C4B44062   2.213   2.000   7.350
 6665POPC   NC344063  35.319   4.287   5.550
 6665POPC   PO444064  35.313   4.305   5.850
 6665POPC   GL144065  35.389   4.326   6.150
 6665POPC   GL244066  35.282   4.429   6.150
 6665POPC   C1A44067  35.387   4.298   6.450
 6665POPC   D2A44068  35.345   4.271   6.750
 6665POPC   C3A44069  35.391   4.312   7.050
 6665POPC   C4A44070  35.393   4.277   7.350
 6665POPC   C1B44071  35.132   4.470   6.450
 6665POPC   C2B44072  35.180   4.449   6.750
 6665POPC   C3B44073  35.112   4.455   7.050
 6665POPC   C4B44074  35.125   4.420   7.350
 6666POPC   NC344075  18.331  19.848   5.550
 6666POPC   PO444076  18.287  19.818   5.850
 6666POPC   GL144077  18.253  19.879   6.150
 6666POPC   GL244078  18.321  19.689   6.150
 6666POPC   C1A44079  18.306  19.836   6.450
 6666POPC   D2A44080  18.270  19.823   6.750
 6666POPC   C3A44081  18.308  19.833   7.050
 6666POPC   C4A44082  18.280  19.863   7.350
 6666POPC   C1B44083  18.316  19.554   6.450
 6666POPC   C2B44084  18.324  19.633   6.750
 6666POPC   C3B44085  18.318  19.614   7.050
 6666POPC   C4B44086  18.360  19.635   7.350
 6667POPC   NC344087  29.174   6.664   5.550
 6667POPC   PO444088  29.123   6.635   5.850
 6667POPC   GL144089  29.188   6.627   6.150
 6667POPC   GL244090  29.276   6.582   6.150
 6667POPC   C1A44091  29.121   6.622   6.450
 6667POPC   D2A44092  29.139   6.694   6.750
 6667POPC   C3A44093  29.187   6.692   7.050
 6667POPC   C4A44094  29.123   6.621   7.350
 6667POPC   C1B44095  29.376   6.660   6.450
 6667POPC   C2B44096  29.441   6.633   6.750
 6667POPC   C3B44097  29.400   6.585   7.050
 6667POPC   C4B44098  29.395   6.568   7.350
 6668POPC   NC344099  34.587  31.456   5.550
 6668POPC   PO444100  34.568  31.458   5.850
 6668POPC   GL144101  34.602  31.521   6.150
 6668POPC   GL244102  34.600  31.636   6.150
 6668POPC   C1A44103  34.606  31.485   6.450
 6668POPC   D2A44104  34.613  31.499   6.750
 6668POPC   C3A44105  34.548  31.503   7.050
 6668POPC   C4A44106  34.542  31.503   7.350
 6668POPC   C1B44107  34.554  31.679   6.450
 6668POPC   C2B44108  34.493  31.738   6.750
 6668POPC   C3B44109  34.567  31.676   7.050
 6668POPC   C4B44110  34.499  31.717   7.350
 6669POPC   NC344111  30.699  17.460   5.550
 6669POPC   PO444112  30.661  17.544   5.850
 6669POPC   GL144113  30.655  17.509   6.150
 6669POPC   GL244114  30.732  17.636   6.150
 6669POPC   C1A44115  30.704  17.480   6.450
 6669POPC   D2A44116  30.739  17.515   6.750
 6669POPC   C3A44117  30.699  17.507   7.050
 6669POPC   C4A44118  30.736  17.487   7.350
 6669POPC   C1B44119  30.735  17.712   6.450
 6669POPC   C2B44120  30.713  17.738   6.750
 6669POPC   C3B44121  30.732  17.740   7.050
 6669POPC   C4B44122  30.733  17.750   7.350
 6670POPC   NC344123   2.786  18.318   5.550
 6670POPC   PO444124   2.786  18.236   5.850
 6670POPC   GL144125   2.805  18.282   6.150
 6670POPC   GL244126   2.833  18.195   6.150
 6670POPC   C1A44127   2.755  18.318   6.450
 6670POPC   D2A44128   2.776  18.323   6.750
 6670POPC   C3A44129   2.795  18.320   7.050
 6670POPC   C4A44130   2.792  18.257   7.350
 6670POPC   C1B44131   2.923  18.093   6.450
 6670POPC   C2B44132   2.983  18.087   6.750
 6670POPC   C3B44133   2.899  18.152   7.050
 6670POPC   C4B44134   2.922  18.093   7.350
 6671POPC   NC344135  33.844  13.648   5.550
 6671POPC   PO444136  33.849  13.588   5.850
 6671POPC   GL144137  33.782  13.678   6.150
 6671POPC   GL244138  33.681  13.672   6.150
 6671POPC   C1A44139  33.838  13.658   6.450
 6671POPC   D2A44140  33.850  13.629   6.750
 6671POPC   C3A44141  33.806  13.636   7.050
 6671POPC   C4A44142  33.838  13.617   7.350
 6671POPC   C1B44143  33.548  13.773   6.450
 6671POPC   C2B44144  33.616  13.725   6.750
 6671POPC   C3B44145  33.575  13.763   7.050
 6671POPC   C4B44146  33.544  13.761   7.350
 6672POPC   NC344147  22.978  37.645   5.550
 6672POPC   PO444148  22.980  37.716   5.850
 6672POPC   GL144149  22.961  37.666   6.150
 6672POPC   GL244150  22.819  37.571   6.150
 6672POPC   C1A44151  22.924  37.702   6.450
 6672POPC   D2A44152  22.909  37.653   6.750
 6672POPC   C3A44153  22.950  37.673   7.050
 6672POPC   C4A44154  22.973  37.687   7.350
 6672POPC   C1B44155  22.839  37.462   6.450
 6672POPC   C2B44156  22.791  37.454   6.750
 6672POPC   C3B44157  22.764  37.453   7.050
 6672POPC   C4B44158  22.813  37.507   7.350
 6673POPC   NC344159  22.971  27.606   5.550
 6673POPC   PO444160  22.970  27.571   5.850
 6673POPC   GL144161  22.984  27.597   6.150
 6673POPC   GL244162  22.892  27.683   6.150
 6673POPC   C1A44163  22.899  27.626   6.450
 6673POPC   D2A44164  22.976  27.570   6.750
 6673POPC   C3A44165  22.909  27.557   7.050
 6673POPC   C4A44166  22.889  27.548   7.350
 6673POPC   C1B44167  22.912  27.810   6.450
 6673POPC   C2B44168  22.891  27.873   6.750
 6673POPC   C3B44169  22.839  27.859   7.050
 6673POPC   C4B44170  22.845  27.848   7.350
 6674POPC   NC344171   6.596  41.577   5.550
 6674POPC   PO444172   6.652  41.589   5.850
 6674POPC   GL144173   6.677  41.596   6.150
 6674POPC   GL244174   6.507  41.479   6.150
 6674POPC   C1A44175   6.654  41.558   6.450
 6674POPC   D2A44176   6.664  41.545   6.750
 6674POPC   C3A44177   6.660  41.538   7.050
 6674POPC   C4A44178   6.655  41.536   7.350
 6674POPC   C1B44179   6.369  41.529   6.450
 6674POPC   C2B44180   6.440  41.435   6.750
 6674POPC   C3B44181   6.397  41.454   7.050
 6674POPC   C4B44182   6.443  41.435   7.350
 6675POPC   NC344183  18.308  39.958   5.550
 6675POPC   PO444184  18.233  39.996   5.850
 6675POPC   GL144185  18.318  39.972   6.150
 6675POPC   GL244186  18.125  39.998   6.150
 6675POPC   C1A44187  18.289  40.050   6.450
 6675POPC   D2A44188  18.261  39.979   6.750
 6675POPC   C3A44189  18.288  40.034   7.050
 6675POPC   C4A44190  18.272  40.036   7.350
 6675POPC   C1B44191  18.075  39.969   6.450
 6675POPC   C2B44192  17.986  39.967   6.750
 6675POPC   C3B44193  18.035  40.003   7.050
 6675POPC   C4B44194  18.045  39.964   7.350
 6676POPC   NC344195  12.862  15.949   5.550
 6676POPC   PO444196  12.865  15.985   5.850
 6676POPC   GL144197  12.889  15.981   6.150
 6676POPC   GL244198  12.754  15.829   6.150
 6676POPC   C1A44199  12.883  15.961   6.450
 6676POPC   D2A44200  12.864  15.998   6.750
 6676POPC   C3A44201  12.880  15.992   7.050
 6676POPC   C4A44202  12.853  15.950   7.350
 6676POPC   C1B44203  12.693  15.781   6.450
 6676POPC   C2B44204  12.745  15.764   6.750
 6676POPC   C3B44205  12.753  15.758   7.050
 6676POPC   C4B44206  12.706  15.702   7.350
 6677POPC   NC344207   5.136   9.773   5.550
 6677POPC   PO444208   5.113   9.758   5.850
 6677POPC   GL144209   5.091   9.713   6.150
 6677POPC   GL244210   5.203   9.701   6.150
 6677POPC   C1A44211   5.082   9.719   6.450
 6677POPC   D2A44212   5.053   9.729   6.750
 6677POPC   C3A44213   5.131   9.719   7.050
 6677POPC   C4A44214   5.104   9.710   7.350
 6677POPC   C1B44215   5.365   9.742   6.450
 6677POPC   C2B44216   5.323   9.770   6.750
 6677POPC   C3B44217   5.330   9.733   7.050
 6677POPC   C4B44218   5.371   9.777   7.350
 6678POPC   NC344219  40.785  44.622   5.550
 6678POPC   PO444220  40.798  44.647   5.850
 6678POPC   GL144221  40.756  44.657   6.150
 6678POPC   GL244222  40.806  44.524   6.150
 6678POPC   C1A44223  40.757  44.694   6.450
 6678POPC   D2A44224  40.776  44.623   6.750
 6678POPC   C3A44225  40.788  44.703   7.050
 6678POPC   C4A44226  40.778  44.648   7.350
 6678POPC   C1B44227  40.729  44.419   6.450
 6678POPC   C2B44228  40.814  44.415   6.750
 6678POPC   C3B44229  40.723  44.374   7.050
 6678POPC   C4B44230  40.736  44.452   7.350
 6679POPC   NC344231  15.990  12.032   5.550
 6679POPC   PO444232  15.908  12.086   5.850
 6679POPC   GL144233  15.979  12.085   6.150
 6679POPC   GL244234  15.953  11.988   6.150
 6679POPC   C1A44235  15.936  12.039   6.450
 6679POPC   D2A44236  15.997  12.101   6.750
 6679POPC   C3A44237  15.964  12.050   7.050
 6679POPC   C4A44238  15.923  12.054   7.350
 6679POPC   C1B44239  16.052  11.885   6.450
 6679POPC   C2B44240  16.018  11.815   6.750
 6679POPC   C3B44241  15.989  11.820   7.050
 6679POPC   C4B44242  15.993  11.862   7.350
 6680POPC   NC344243  10.507  33.002   5.550
 6680POPC   PO444244  10.561  33.015   5.850
 6680POPC   GL144245  10.550  33.053   6.150
 6680POPC   GL244246  10.639  33.108   6.150
 6680POPC   C1A44247  10.489  33.072   6.450
 6680POPC   D2A44248  10.569  33.004   6.750
 6680POPC   C3A44249  10.515  33.034   7.050
 6680POPC   C4A44250  10.485  33.008   7.350
 6680POPC   C1B44251  10.688  33.232   6.450
 6680POPC   C2B44252  10.660  33.195   6.750
 6680POPC   C3B44253  10.671  33.225   7.050
 6680POPC   C4B44254  10.749  33.214   7.350
 6681POPC   NC344255   8.152   5.078   5.550
 6681POPC   PO444256   8.210   5.087   5.850
 6681POPC   GL144257   8.219   5.085   6.150
 6681POPC   GL244258   8.300   4.965   6.150
 6681POPC   C1A44259   8.227   5.049   6.450
 6681POPC   D2A44260   8.206   5.049   6.750
 6681POPC   C3A44261   8.165   5.124   7.050
 6681POPC   C4A44262   8.241   5.077   7.350
 6681POPC   C1B44263   8.331   4.884   6.450
 6681POPC   C2B44264   8.352   4.870   6.750
 6681POPC   C3B44265   8.327   4.876   7.050
 6681POPC   C4B44266   8.348   4.897   7.350
 6682POPC   NC344267   2.742  32.981   5.550
 6682POPC   PO444268   2.734  32.988   5.850
 6682POPC   GL144269   2.795  33.047   6.150
 6682POPC   GL244270   2.723  32.925   6.150
 6682POPC   C1A44271   2.773  33.041   6.450
 6682POPC   D2A44272   2.799  33.000   6.750
 6682POPC   C3A44273   2.716  33.053   7.050
 6682POPC   C4A44274   2.764  33.050   7.350
 6682POPC   C1B44275   2.622  32.836   6.450
 6682POPC   C2B44276   2.618  32.824   6.750
 6682POPC   C3B44277   2.604  32.856   7.050
 6682POPC   C4B44278   2.579  32.799   7.350
 6683POPC   NC344279  15.179  33.835   5.550
 6683POPC   PO444280  15.153  33.766   5.850
 6683POPC   GL144281  15.202  33.833   6.150
 6683POPC   GL244282  15.218  33.908   6.150
 6683POPC   C1A44283  15.189  33.822   6.450
 6683POPC   D2A44284  15.208  33.846   6.750
 6683POPC   C3A44285  15.210  33.816   7.050
 6683POPC   C4A44286  15.131  33.793   7.350
 6683POPC   C1B44287  15.163  34.034   6.450
 6683POPC   C2B44288  15.162  34.014   6.750
 6683POPC   C3B44289  15.163  34.057   7.050
 6683POPC   C4B44290  15.215  34.000   7.350
 6684POPC   NC344291  32.993  14.414   5.550
 6684POPC   PO444292  33.011  14.380   5.850
 6684POPC   GL144293  32.986  14.430   6.150
 6684POPC   GL244294  32.908  14.404   6.150
 6684POPC   C1A44295  32.994  14.396   6.450
 6684POPC   D2A44296  33.042  14.417   6.750
 6684POPC   C3A44297  33.021  14.380   7.050
 6684POPC   C4A44298  33.065  14.371   7.350
 6684POPC   C1B44299  32.761  14.538   6.450
 6684POPC   C2B44300  32.775  14.540   6.750
 6684POPC   C3B44301  32.799  14.493   7.050
 6684POPC   C4B44302  32.838  14.540   7.350
 6685POPC   NC344303  20.588  33.044   5.550
 6685POPC   PO444304  20.566  33.027   5.850
 6685POPC   GL144305  20.642  33.026   6.150
 6685POPC   GL244306  20.479  33.079   6.150
 6685POPC   C1A44307  20.624  33.024   6.450
 6685POPC   D2A44308  20.632  33.037   6.750
 6685POPC   C3A44309  20.654  33.027   7.050
 6685POPC   C4A44310  20.645  33.039   7.350
 6685POPC   C1B44311  20.411  33.203   6.450
 6685POPC   C2B44312  20.437  33.150   6.750
 6685POPC   C3B44313  20.374  33.142   7.050
 6685POPC   C4B44314  20.350  33.127   7.350
 6686POPC   NC344315   5.059  37.720   5.550
 6686POPC   PO444316   5.089  37.679   5.850
 6686POPC   GL144317   5.052  37.680   6.150
 6686POPC   GL244318   5.171  37.736   6.150
 6686POPC   C1A44319   5.046  37.638   6.450
 6686POPC   D2A44320   5.111  37.702   6.750
 6686POPC   C3A44321   5.086  37.710   7.050
 6686POPC   C4A44322   5.138  37.721   7.350
 6686POPC   C1B44323   5.321  37.712   6.450
 6686POPC   C2B44324   5.348  37.733   6.750
 6686POPC   C3B44325   5.332  37.747   7.050
 6686POPC   C4B44326   5.309  37.723   7.350
 6687POPC   NC344327   2.746  10.548   5.550
 6687POPC   PO444328   2.815  10.571   5.850
 6687POPC   GL144329   2.793  10.557   6.150
 6687POPC   GL244330   2.684  10.598   6.150
 6687POPC   C1A44331   2.738  10.491   6.450
 6687POPC   D2A44332   2.807  10.511   6.750
 6687POPC   C3A44333   2.805  10.504   7.050
 6687POPC   C4A44334   2.740  10.541   7.350
 6687POPC   C1B44335   2.540  10.616   6.450
 6687POPC   C2B44336   2.576  10.689   6.750
 6687POPC   C3B44337   2.560  10.640   7.050
 6687POPC   C4B44338   2.518  10.642   7.350
 6688POPC   NC344339   5.105  26.047   5.550
 6688POPC   PO444340   5.095  26.018   5.850
 6688POPC   GL144341   5.127  26.077   6.150
 6688POPC   GL244342   5.070  25.887   6.150
 6688POPC   C1A44343   5.095  26.080   6.450
 6688POPC   D2A44344   5.135  26.079   6.750
 6688POPC   C3A44345   5.054  26.086   7.050
 6688POPC   C4A44346   5.056  26.090   7.350
 6688POPC   C1B44347   5.044  25.775   6.450
 6688POPC   C2B44348   5.036  25.829   6.750
 6688POPC   C3B44349   5.069  25.797   7.050
 6688POPC   C4B44350   5.055  25.785   7.350
 6689POPC   NC344351  23.683  29.945   5.550
 6689POPC   PO444352  23.691  29.962   5.850
 6689POPC   GL144353  23.715  29.965   6.150
 6689POPC   GL244354  23.869  29.884   6.150
 6689POPC   C1A44355  23.730  29.872   6.450
 6689POPC   D2A44356  23.736  29.934   6.750
 6689POPC   C3A44357  23.669  29.914   7.050
 6689POPC   C4A44358  23.728  29.921   7.350
 6689POPC   C1B44359  23.948  29.874   6.450
 6689POPC   C2B44360  23.983  29.887   6.750
 6689POPC   C3B44361  23.938  29.930   7.050
 6689POPC   C4B44362  23.958  29.940   7.350
 6690POPC   NC344363  13.600  20.594   5.550
 6690POPC   PO444364  13.669  20.629   5.850
 6690POPC   GL144365  13.581  20.658   6.150
 6690POPC   GL244366  13.756  20.527   6.150
 6690POPC   C1A44367  13.643  20.592   6.450
 6690POPC   D2A44368  13.613  20.641   6.750
 6690POPC   C3A44369  13.606  20.639   7.050
 6690POPC   C4A44370  13.590  20.640   7.350
 6690POPC   C1B44371  13.839  20.440   6.450
 6690POPC   C2B44372  13.769  20.447   6.750
 6690POPC   C3B44373  13.805  20.464   7.050
 6690POPC   C4B44374  13.815  20.446   7.350
 6691POPC   NC344375  39.234   3.562   5.550
 6691POPC   PO444376  39.212   3.531   5.850
 6691POPC   GL144377  39.216   3.528   6.150
 6691POPC   GL244378  39.136   3.395   6.150
 6691POPC   C1A44379  39.197   3.499   6.450
 6691POPC   D2A44380  39.204   3.538   6.750
 6691POPC   C3A44381  39.218   3.541   7.050
 6691POPC   C4A44382  39.205   3.555   7.350
 6691POPC   C1B44383  39.143   3.344   6.450
 6691POPC   C2B44384  39.094   3.346   6.750
 6691POPC   C3B44385  39.129   3.284   7.050
 6691POPC   C4B44386  39.090   3.326   7.350
 6692POPC   NC344387  21.353  35.351   5.550
 6692POPC   PO444388  21.399  35.373   5.850
 6692POPC   GL144389  21.392  35.388   6.150
 6692POPC   GL244390  21.271  35.347   6.150
 6692POPC   C1A44391  21.369  35.390   6.450
 6692POPC   D2A44392  21.341  35.347   6.750
 6692POPC   C3A44393  21.360  35.313   7.050
 6692POPC   C4A44394  21.385  35.392   7.350
 6692POPC   C1B44395  21.104  35.261   6.450
 6692POPC   C2B44396  21.098  35.310   6.750
 6692POPC   C3B44397  21.171  35.350   7.050
 6692POPC   C4B44398  21.109  35.290   7.350
 6693POPC   NC344399  41.528   7.452   5.550
 6693POPC   PO444400  41.576   7.449   5.850
 6693POPC   GL144401  41.535   7.395   6.150
 6693POPC   GL244402  41.465   7.279   6.150
 6693POPC   C1A44403  41.548   7.433   6.450
 6693POPC   D2A44404  41.525   7.458   6.750
 6693POPC   C3A44405  41.534   7.392   7.050
 6693POPC   C4A44406  41.566   7.423   7.350
 6693POPC   C1B44407  41.397   7.197   6.450
 6693POPC   C2B44408  41.396   7.164   6.750
 6693POPC   C3B44409  41.418   7.244   7.050
 6693POPC   C4B44410  41.426   7.167   7.350
 6694POPC   NC344411   1.219  15.222   5.550
 6694POPC   PO444412   1.254  15.172   5.850
 6694POPC   GL144413   1.215  15.215   6.150
 6694POPC   GL244414   1.185  15.062   6.150
 6694POPC   C1A44415   1.249  15.134   6.450
 6694POPC   D2A44416   1.203  15.141   6.750
 6694POPC   C3A44417   1.174  15.160   7.050
 6694POPC   C4A44418   1.207  15.175   7.350
 6694POPC   C1B44419   1.245  14.969   6.450
 6694POPC   C2B44420   1.205  14.933   6.750
 6694POPC   C3B44421   1.272  14.921   7.050
 6694POPC   C4B44422   1.233  14.967   7.350
 6695POPC   NC344423  30.702  20.638   5.550
 6695POPC   PO444424  30.729  20.629   5.850
 6695POPC   GL144425  30.664  20.585   6.150
 6695POPC   GL244426  30.599  20.560   6.150
 6695POPC   C1A44427  30.691  20.631   6.450
 6695POPC   D2A44428  30.732  20.594   6.750
 6695POPC   C3A44429  30.697  20.581   7.050
 6695POPC   C4A44430  30.722  20.652   7.350
 6695POPC   C1B44431  30.490  20.509   6.450
 6695POPC   C2B44432  30.439  20.495   6.750
 6695POPC   C3B44433  30.499  20.542   7.050
 6695POPC   C4B44434  30.468  20.577   7.350
 6696POPC   NC344435  12.048  38.476   5.550
 6696POPC   PO444436  12.079  38.447   5.850
 6696POPC   GL144437  12.066  38.454   6.150
 6696POPC   GL244438  12.226  38.428   6.150
 6696POPC   C1A44439  12.116  38.406   6.450
 6696POPC   D2A44440  12.096  38.459   6.750
 6696POPC   C3A44441  12.089  38.481   7.050
 6696POPC   C4A44442  12.065  38.455   7.350
 6696POPC   C1B44443  12.320  38.345   6.450
 6696POPC   C2B44444  12.303  38.339   6.750
 6696POPC   C3B44445  12.238  38.327   7.050
 6696POPC   C4B44446  12.295  38.274   7.350
 6697POPC   NC344447   6.693  20.652   5.550
 6697POPC   PO444448   6.674  20.583   5.850
 6697POPC   GL144449   6.660  20.575   6.150
 6697POPC   GL244450   6.612  20.524   6.150
 6697POPC   C1A44451   6.650  20.595   6.450
 6697POPC   D2A44452   6.665  20.655   6.750
 6697POPC   C3A44453   6.643  20.651   7.050
 6697POPC   C4A44454   6.656  20.634   7.350
 6697POPC   C1B44455   6.538  20.345   6.450
 6697POPC   C2B44456   6.558  20.362   6.750
 6697POPC   C3B44457   6.527  20.369   7.050
 6697POPC   C4B44458   6.587  20.406   7.350
 6698POPC   NC344459  43.101  43.144   5.550
 6698POPC   PO444460  43.159  43.159   5.850
 6698POPC   GL144461  43.134  43.135   6.150
 6698POPC   GL244462  43.117  42.968   6.150
 6698POPC   C1A44463  43.092  43.085   6.450
 6698POPC   D2A44464  43.097  43.143   6.750
 6698POPC   C3A44465  43.122  43.151   7.050
 6698POPC   C4A44466  43.139  43.087   7.350
 6698POPC   C1B44467  43.196  42.891   6.450
 6698POPC   C2B44468  43.225  42.853   6.750
 6698POPC   C3B44469  43.196  42.841   7.050
 6698POPC   C4B44470  43.219  42.853   7.350
 6699POPC   NC344471  36.102   5.911   5.550
 6699POPC   PO444472  36.082   5.886   5.850
 6699POPC   GL144473  36.105   5.875   6.150
 6699POPC   GL244474  36.229   5.837   6.150
 6699POPC   C1A44475  36.133   5.886   6.450
 6699POPC   D2A44476  36.082   5.875   6.750
 6699POPC   C3A44477  36.151   5.829   7.050
 6699POPC   C4A44478  36.090   5.859   7.350
 6699POPC   C1B44479  36.340   5.773   6.450
 6699POPC   C2B44480  36.319   5.735   6.750
 6699POPC   C3B44481  36.328   5.723   7.050
 6699POPC   C4B44482  36.320   5.734   7.350
 6700POPC   NC344483  30.715   6.599   5.550
 6700POPC   PO444484  30.735   6.624   5.850
 6700POPC   GL144485  30.678   6.683   6.150
 6700POPC   GL244486  30.828   6.736   6.150
 6700POPC   C1A44487  30.659   6.651   6.450
 6700POPC   D2A44488  30.694   6.688   6.750
 6700POPC   C3A44489  30.706   6.651   7.050
 6700POPC   C4A44490  30.723   6.627   7.350
 6700POPC   C1B44491  30.895   6.752   6.450
 6700POPC   C2B44492  30.888   6.755   6.750
 6700POPC   C3B44493  30.903   6.759   7.050
 6700POPC   C4B44494  30.874   6.780   7.350
 6701POPC   NC344495  37.695   2.034   5.550
 6701POPC   PO444496  37.714   1.990   5.850
 6701POPC   GL144497  37.657   2.008   6.150
 6701POPC   GL244498  37.623   2.068   6.150
 6701POPC   C1A44499  37.673   1.996   6.450
 6701POPC   D2A44500  37.715   1.988   6.750
 6701POPC   C3A44501  37.723   1.988   7.050
 6701POPC   C4A44502  37.686   1.991   7.350
 6701POPC   C1B44503  37.700   2.273   6.450
 6701POPC   C2B44504  37.634   2.265   6.750
 6701POPC   C3B44505  37.619   2.252   7.050
 6701POPC   C4B44506  37.636   2.224   7.350
 6702POPC   NC344507  41.551  43.855   5.550
 6702POPC   PO444508  41.569  43.838   5.850
 6702POPC   GL144509  41.583  43.850   6.150
 6702POPC   GL244510  41.531  43.801   6.150
 6702POPC   C1A44511  41.556  43.839   6.450
 6702POPC   D2A44512  41.529  43.862   6.750
 6702POPC   C3A44513  41.543  43.890   7.050
 6702POPC   C4A44514  41.553  43.929   7.350
 6702POPC   C1B44515  41.488  43.650   6.450
 6702POPC   C2B44516  41.424  43.631   6.750
 6702POPC   C3B44517  41.472  43.633   7.050
 6702POPC   C4B44518  41.468  43.697   7.350
 6703POPC   NC344519  36.092  14.355   5.550
 6703POPC   PO444520  36.153  14.430   5.850
 6703POPC   GL144521  36.158  14.382   6.150
 6703POPC   GL244522  36.050  14.269   6.150
 6703POPC   C1A44523  36.156  14.402   6.450
 6703POPC   D2A44524  36.120  14.409   6.750
 6703POPC   C3A44525  36.117  14.376   7.050
 6703POPC   C4A44526  36.128  14.354   7.350
 6703POPC   C1B44527  35.965  14.230   6.450
 6703POPC   C2B44528  35.943  14.234   6.750
 6703POPC   C3B44529  35.959  14.262   7.050
 6703POPC   C4B44530  35.907  14.187   7.350
 6704POPC   NC344531   5.834   2.800   5.550
 6704POPC   PO444532   5.877   2.773   5.850
 6704POPC   GL144533   5.872   2.723   6.150
 6704POPC   GL244534   5.936   2.688   6.150
 6704POPC   C1A44535   5.827   2.789   6.450
 6704POPC   D2A44536   5.858   2.759   6.750
 6704POPC   C3A44537   5.874   2.788   7.050
 6704POPC   C4A44538   5.854   2.722   7.350
 6704POPC   C1B44539   5.960   2.587   6.450
 6704POPC   C2B44540   6.025   2.553   6.750
 6704POPC   C3B44541   5.982   2.555   7.050
 6704POPC   C4B44542   6.018   2.507   7.350
 6705POPC   NC344543   6.616   0.438   5.550
 6705POPC   PO444544   6.604   0.415   5.850
 6705POPC   GL144545   6.647   0.441   6.150
 6705POPC   GL244546   6.788   0.514   6.150
 6705POPC   C1A44547   6.637   0.390   6.450
 6705POPC   D2A44548   6.657   0.438   6.750
 6705POPC   C3A44549   6.616   0.406   7.050
 6705POPC   C4A44550   6.678   0.472   7.350
 6705POPC   C1B44551   6.907   0.574   6.450
 6705POPC   C2B44552   6.874   0.559   6.750
 6705POPC   C3B44553   6.851   0.556   7.050
 6705POPC   C4B44554   6.842   0.608   7.350
 6706POPC   NC344555  19.876  41.531   5.550
 6706POPC   PO444556  19.789  41.582   5.850
 6706POPC   GL144557  19.839  41.522   6.150
 6706POPC   GL244558  19.827  41.630   6.150
 6706POPC   C1A44559  19.790  41.577   6.450
 6706POPC   D2A44560  19.803  41.540   6.750
 6706POPC   C3A44561  19.823  41.563   7.050
 6706POPC   C4A44562  19.806  41.572   7.350
 6706POPC   C1B44563  19.942  41.776   6.450
 6706POPC   C2B44564  19.872  41.771   6.750
 6706POPC   C3B44565  19.947  41.841   7.050
 6706POPC   C4B44566  19.949  41.756   7.350
 6707POPC   NC344567  44.710  20.594   5.550
 6707POPC   PO444568  44.666  20.618   5.850
 6707POPC   GL144569  44.623  20.613   6.150
 6707POPC   GL244570  44.795  20.569   6.150
 6707POPC   C1A44571  44.665  20.649   6.450
 6707POPC   D2A44572  44.635  20.588   6.750
 6707POPC   C3A44573  44.709  20.588   7.050
 6707POPC   C4A44574  44.655  20.621   7.350
 6707POPC   C1B44575  44.936  20.612   6.450
 6707POPC   C2B44576  44.879  20.622   6.750
 6707POPC   C3B44577  44.926  20.610   7.050
 6707POPC   C4B44578  44.902  20.576   7.350
 6708POPC   NC344579  24.499  36.872   5.550
 6708POPC   PO444580  24.475  36.886   5.850
 6708POPC   GL144581  24.531  36.944   6.150
 6708POPC   GL244582  24.391  36.810   6.150
 6708POPC   C1A44583  24.501  36.886   6.450
 6708POPC   D2A44584  24.470  36.925   6.750
 6708POPC   C3A44585  24.504  36.944   7.050
 6708POPC   C4A44586  24.485  36.874   7.350
 6708POPC   C1B44587  24.304  36.722   6.450
 6708POPC   C2B44588  24.289  36.749   6.750
 6708POPC   C3B44589  24.319  36.710   7.050
 6708POPC   C4B44590  24.289  36.724   7.350
 6709POPC   NC344591   9.001  33.802   5.550
 6709POPC   PO444592   8.983  33.828   5.850
 6709POPC   GL144593   9.009  33.764   6.150
 6709POPC   GL244594   9.086  33.817   6.150
 6709POPC   C1A44595   9.003  33.801   6.450
 6709POPC   D2A44596   8.935  33.772   6.750
 6709POPC   C3A44597   9.017  33.777   7.050
 6709POPC   C4A44598   9.017  33.797   7.350
 6709POPC   C1B44599   9.236  33.877   6.450
 6709POPC   C2B44600   9.245  33.846   6.750
 6709POPC   C3B44601   9.226  33.943   7.050
 6709POPC   C4B44602   9.170  33.869   7.350
 6710POPC   NC344603   5.878   8.208   5.550
 6710POPC   PO444604   5.874   8.214   5.850
 6710POPC   GL144605   5.889   8.232   6.150
 6710POPC   GL244606   5.990   8.094   6.150
 6710POPC   C1A44607   5.865   8.163   6.450
 6710POPC   D2A44608   5.867   8.168   6.750
 6710POPC   C3A44609   5.842   8.230   7.050
 6710POPC   C4A44610   5.898   8.203   7.350
 6710POPC   C1B44611   6.084   8.104   6.450
 6710POPC   C2B44612   6.061   8.105   6.750
 6710POPC   C3B44613   6.050   8.083   7.050
 6710POPC   C4B44614   6.079   8.021   7.350
 6711POPC   NC344615   1.992  20.623   5.550
 6711POPC   PO444616   2.015  20.652   5.850
 6711POPC   GL144617   2.010  20.651   6.150
 6711POPC   GL244618   2.012  20.700   6.150
 6711POPC   C1A44619   1.955  20.615   6.450
 6711POPC   D2A44620   1.941  20.592   6.750
 6711POPC   C3A44621   1.988  20.631   7.050
 6711POPC   C4A44622   2.011  20.620   7.350
 6711POPC   C1B44623   2.051  20.823   6.450
 6711POPC   C2B44624   2.046  20.880   6.750
 6711POPC   C3B44625   2.061  20.841   7.050
 6711POPC   C4B44626   2.048  20.890   7.350
 6712POPC   NC344627  33.837   3.575   5.550
 6712POPC   PO444628  33.834   3.588   5.850
 6712POPC   GL144629  33.794   3.582   6.150
 6712POPC   GL244630  33.701   3.492   6.150
 6712POPC   C1A44631  33.752   3.535   6.450
 6712POPC   D2A44632  33.791   3.586   6.750
 6712POPC   C3A44633  33.774   3.551   7.050
 6712POPC   C4A44634  33.801   3.512   7.350
 6712POPC   C1B44635  33.549   3.406   6.450
 6712POPC   C2B44636  33.557   3.422   6.750
 6712POPC   C3B44637  33.605   3.418   7.050
 6712POPC   C4B44638  33.534   3.400   7.350
 6713POPC   NC344639   9.758  22.911   5.550
 6713POPC   PO444640   9.705  22.970   5.850
 6713POPC   GL144641   9.731  22.889   6.150
 6713POPC   GL244642   9.843  22.856   6.150
 6713POPC   C1A44643   9.776  22.956   6.450
 6713POPC   D2A44644   9.725  22.959   6.750
 6713POPC   C3A44645   9.789  22.962   7.050
 6713POPC   C4A44646   9.738  22.946   7.350
 6713POPC   C1B44647   9.852  22.691   6.450
 6713POPC   C2B44648   9.879  22.741   6.750
 6713POPC   C3B44649   9.889  22.721   7.050
 6713POPC   C4B44650   9.832  22.737   7.350
 6714POPC   NC344651  32.251   4.294   5.550
 6714POPC   PO444652  32.236   4.323   5.850
 6714POPC   GL144653  32.213   4.325   6.150
 6714POPC   GL244654  32.233   4.187   6.150
 6714POPC   C1A44655  32.200   4.317   6.450
 6714POPC   D2A44656  32.260   4.354   6.750
 6714POPC   C3A44657  32.203   4.362   7.050
 6714POPC   C4A44658  32.294   4.349   7.350
 6714POPC   C1B44659  32.175   4.031   6.450
 6714POPC   C2B44660  32.231   4.075   6.750
 6714POPC   C3B44661  32.241   4.059   7.050
 6714POPC   C4B44662  32.212   4.072   7.350
 6715POPC   NC344663  36.153  17.549   5.550
 6715POPC   PO444664  36.127  17.535   5.850
 6715POPC   GL144665  36.119  17.528   6.150
 6715POPC   GL244666  35.957  17.553   6.150
 6715POPC   C1A44667  36.115  17.480   6.450
 6715POPC   D2A44668  36.127  17.513   6.750
 6715POPC   C3A44669  36.119  17.502   7.050
 6715POPC   C4A44670  36.157  17.529   7.350
 6715POPC   C1B44671  35.883  17.519   6.450
 6715POPC   C2B44672  35.880  17.531   6.750
 6715POPC   C3B44673  35.847  17.546   7.050
 6715POPC   C4B44674  35.881  17.534   7.350
 6716POPC   NC344675  13.659  43.097   5.550
 6716POPC   PO444676  13.593  43.155   5.850
 6716POPC   GL144677  13.622  43.094   6.150
 6716POPC   GL244678  13.561  43.262   6.150
 6716POPC   C1A44679  13.601  43.153   6.450
 6716POPC   D2A44680  13.613  43.155   6.750
 6716POPC   C3A44681  13.601  43.102   7.050
 6716POPC   C4A44682  13.600  43.080   7.350
 6716POPC   C1B44683  13.518  43.306   6.450
 6716POPC   C2B44684  13.503  43.314   6.750
 6716POPC   C3B44685  13.478  43.342   7.050
 6716POPC   C4B44686  13.529  43.320   7.350
 6717POPC   NC344687   3.528  41.581   5.550
 6717POPC   PO444688   3.589  41.600   5.850
 6717POPC   GL144689   3.534  41.511   6.150
 6717POPC   GL244690   3.469  41.683   6.150
 6717POPC   C1A44691   3.543  41.525   6.450
 6717POPC   D2A44692   3.494  41.521   6.750
 6717POPC   C3A44693   3.537  41.540   7.050
 6717POPC   C4A44694   3.506  41.546   7.350
 6717POPC   C1B44695   3.420  41.747   6.450
 6717POPC   C2B44696   3.375  41.752   6.750
 6717POPC   C3B44697   3.335  41.746   7.050
 6717POPC   C4B44698   3.358  41.713   7.350
 6718POPC   NC344699   1.188  26.787   5.550
 6718POPC   PO444700   1.227  26.860   5.850
 6718POPC   GL144701   1.171  26.832   6.150
 6718POPC   GL244702   1.137  26.799   6.150
 6718POPC   C1A44703   1.209  26.805   6.450
 6718POPC   D2A44704   1.258  26.771   6.750
 6718POPC   C3A44705   1.214  26.822   7.050
 6718POPC   C4A44706   1.177  26.789   7.350
 6718POPC   C1B44707   0.956  26.725   6.450
 6718POPC   C2B44708   0.954  26.771   6.750
 6718POPC   C3B44709   1.026  26.700   7.050
 6718POPC   C4B44710   0.995  26.764   7.350
 6719POPC   NC344711  10.541  22.933   5.550
 6719POPC   PO444712  10.477  22.904   5.850
 6719POPC   GL144713  10.529  22.955   6.150
 6719POPC   GL244714  10.448  22.828   6.150
 6719POPC   C1A44715  10.501  22.939   6.450
 6719POPC   D2A44716  10.485  22.943   6.750
 6719POPC   C3A44717  10.532  22.942   7.050
 6719POPC   C4A44718  10.570  22.899   7.350
 6719POPC   C1B44719  10.365  22.703   6.450
 6719POPC   C2B44720  10.323  22.761   6.750
 6719POPC   C3B44721  10.411  22.761   7.050
 6719POPC   C4B44722  10.324  22.718   7.350
 6720POPC   NC344723  19.015   4.329   5.550
 6720POPC   PO444724  19.017   4.325   5.850
 6720POPC   GL144725  19.101   4.313   6.150
 6720POPC   GL244726  18.910   4.288   6.150
 6720POPC   C1A44727  19.107   4.302   6.450
 6720POPC   D2A44728  19.013   4.336   6.750
 6720POPC   C3A44729  19.065   4.337   7.050
 6720POPC   C4A44730  19.066   4.361   7.350
 6720POPC   C1B44731  18.844   4.266   6.450
 6720POPC   C2B44732  18.829   4.301   6.750
 6720POPC   C3B44733  18.823   4.308   7.050
 6720POPC   C4B44734  18.822   4.246   7.350
 6721POPC   NC344735  19.073  30.648   5.550
 6721POPC   PO444736  19.046  30.663   5.850
 6721POPC   GL144737  19.096  30.706   6.150
 6721POPC   GL244738  19.100  30.561   6.150
 6721POPC   C1A44739  19.086  30.741   6.450
 6721POPC   D2A44740  19.063  30.688   6.750
 6721POPC   C3A44741  19.083  30.665   7.050
 6721POPC   C4A44742  19.080  30.678   7.350
 6721POPC   C1B44743  19.090  30.483   6.450
 6721POPC   C2B44744  19.094  30.485   6.750
 6721POPC   C3B44745  19.033  30.437   7.050
 6721POPC   C4B44746  19.006  30.473   7.350
 6722POPC   NC344747  43.141   4.344   5.550
 6722POPC   PO444748  43.122   4.357   5.850
 6722POPC   GL144749  43.103   4.296   6.150
 6722POPC   GL244750  43.210   4.371   6.150
 6722POPC   C1A44751  43.087   4.294   6.450
 6722POPC   D2A44752  43.103   4.329   6.750
 6722POPC   C3A44753  43.100   4.327   7.050
 6722POPC   C4A44754  43.117   4.285   7.350
 6722POPC   C1B44755  43.252   4.470   6.450
 6722POPC   C2B44756  43.262   4.523   6.750
 6722POPC   C3B44757  43.252   4.453   7.050
 6722POPC   C4B44758  43.241   4.463   7.350
 6723POPC   NC344759  38.494   3.590   5.550
 6723POPC   PO444760  38.453   3.514   5.850
 6723POPC   GL144761  38.455   3.578   6.150
 6723POPC   GL244762  38.403   3.404   6.150
 6723POPC   C1A44763  38.481   3.574   6.450
 6723POPC   D2A44764  38.419   3.494   6.750
 6723POPC   C3A44765  38.445   3.573   7.050
 6723POPC   C4A44766  38.462   3.501   7.350
 6723POPC   C1B44767  38.245   3.326   6.450
 6723POPC   C2B44768  38.328   3.348   6.750
 6723POPC   C3B44769  38.318   3.406   7.050
 6723POPC   C4B44770  38.286   3.314   7.350
 6724POPC   NC344771  39.278  37.689   5.550
 6724POPC   PO444772  39.227  37.694   5.850
 6724POPC   GL144773  39.209  37.632   6.150
 6724POPC   GL244774  39.204  37.759   6.150
 6724POPC   C1A44775  39.272  37.643   6.450
 6724POPC   D2A44776  39.190  37.680   6.750
 6724POPC   C3A44777  39.229  37.679   7.050
 6724POPC   C4A44778  39.272  37.643   7.350
 6724POPC   C1B44779  39.189  37.914   6.450
 6724POPC   C2B44780  39.159  37.929   6.750
 6724POPC   C3B44781  39.218  37.908   7.050
 6724POPC   C4B44782  39.179  37.907   7.350
 6725POPC   NC344783  15.130  38.426   5.550
 6725POPC   PO444784  15.160  38.441   5.850
 6725POPC   GL144785  15.200  38.466   6.150
 6725POPC   GL244786  15.205  38.520   6.150
 6725POPC   C1A44787  15.177  38.474   6.450
 6725POPC   D2A44788  15.205  38.462   6.750
 6725POPC   C3A44789  15.219  38.427   7.050
 6725POPC   C4A44790  15.134  38.467   7.350
 6725POPC   C1B44791  15.331  38.671   6.450
 6725POPC   C2B44792  15.320  38.722   6.750
 6725POPC   C3B44793  15.242  38.687   7.050
 6725POPC   C4B44794  15.239  38.697   7.350
 6726POPC   NC344795   1.232   2.754   5.550
 6726POPC   PO444796   1.195   2.763   5.850
 6726POPC   GL144797   1.205   2.788   6.150
 6726POPC   GL244798   1.247   2.843   6.150
 6726POPC   C1A44799   1.222   2.740   6.450
 6726POPC   D2A44800   1.206   2.782   6.750
 6726POPC   C3A44801   1.227   2.794   7.050
 6726POPC   C4A44802   1.198   2.771   7.350
 6726POPC   C1B44803   1.410   2.951   6.450
 6726POPC   C2B44804   1.348   2.935   6.750
 6726POPC   C3B44805   1.350   2.914   7.050
 6726POPC   C4B44806   1.399   2.972   7.350
 6727POPC   NC344807  22.978   7.447   5.550
 6727POPC   PO444808  22.928   7.379   5.850
 6727POPC   GL144809  22.965   7.443   6.150
 6727POPC   GL244810  22.937   7.583   6.150
 6727POPC   C1A44811  22.980   7.418   6.450
 6727POPC   D2A44812  22.986   7.414   6.750
 6727POPC   C3A44813  22.938   7.414   7.050
 6727POPC   C4A44814  22.973   7.431   7.350
 6727POPC   C1B44815  22.913   7.696   6.450
 6727POPC   C2B44816  22.951   7.661   6.750
 6727POPC   C3B44817  22.942   7.684   7.050
 6727POPC   C4B44818  23.004   7.710   7.350
 6728POPC   NC344819   9.777  21.383   5.550
 6728POPC   PO444820   9.743  21.393   5.850
 6728POPC   GL144821   9.723  21.388   6.150
 6728POPC   GL244822   9.652  21.313   6.150
 6728POPC   C1A44823   9.737  21.369   6.450
 6728POPC   D2A44824   9.740  21.396   6.750
 6728POPC   C3A44825   9.727  21.347   7.050
 6728POPC   C4A44826   9.706  21.408   7.350
 6728POPC   C1B44827   9.559  21.319   6.450
 6728POPC   C2B44828   9.534  21.305   6.750
 6728POPC   C3B44829   9.551  21.300   7.050
 6728POPC   C4B44830   9.507  21.272   7.350
 6729POPC   NC344831   4.287  39.196   5.550
 6729POPC   PO444832   4.282  39.278   5.850
 6729POPC   GL144833   4.287  39.197   6.150
 6729POPC   GL244834   4.202  39.154   6.150
 6729POPC   C1A44835   4.348  39.227   6.450
 6729POPC   D2A44836   4.336  39.278   6.750
 6729POPC   C3A44837   4.333  39.188   7.050
 6729POPC   C4A44838   4.341  39.255   7.350
 6729POPC   C1B44839   4.210  39.037   6.450
 6729POPC   C2B44840   4.172  39.016   6.750
 6729POPC   C3B44841   4.136  38.996   7.050
 6729POPC   C4B44842   4.209  38.989   7.350
 6730POPC   NC344843  32.209   5.045   5.550
 6730POPC   PO444844  32.274   5.112   5.850
 6730POPC   GL144845  32.281   5.099   6.150
 6730POPC   GL244846  32.138   5.131   6.150
 6730POPC   C1A44847  32.224   5.077   6.450
 6730POPC   D2A44848  32.276   5.066   6.750
 6730POPC   C3A44849  32.225   5.126   7.050
 6730POPC   C4A44850  32.260   5.052   7.350
 6730POPC   C1B44851  32.057   5.225   6.450
 6730POPC   C2B44852  32.052   5.222   6.750
 6730POPC   C3B44853  31.995   5.257   7.050
 6730POPC   C4B44854  32.052   5.188   7.350
 6731POPC   NC344855   5.871   1.170   5.550
 6731POPC   PO444856   5.853   1.176   5.850
 6731POPC   GL144857   5.898   1.197   6.150
 6731POPC   GL244858   6.011   1.208   6.150
 6731POPC   C1A44859   5.844   1.224   6.450
 6731POPC   D2A44860   5.897   1.229   6.750
 6731POPC   C3A44861   5.910   1.251   7.050
 6731POPC   C4A44862   5.914   1.255   7.350
 6731POPC   C1B44863   6.138   1.100   6.450
 6731POPC   C2B44864   6.117   1.075   6.750
 6731POPC   C3B44865   6.120   1.094   7.050
 6731POPC   C4B44866   6.064   1.139   7.350
 6732POPC   NC344867  13.654  37.631   5.550
 6732POPC   PO444868  13.677  37.709   5.850
 6732POPC   GL144869  13.598  37.704   6.150
 6732POPC   GL244870  13.643  37.810   6.150
 6732POPC   C1A44871  13.643  37.652   6.450
 6732POPC   D2A44872  13.650  37.704   6.750
 6732POPC   C3A44873  13.621  37.661   7.050
 6732POPC   C4A44874  13.629  37.670   7.350
 6732POPC   C1B44875  13.668  37.937   6.450
 6732POPC   C2B44876  13.658  37.896   6.750
 6732POPC   C3B44877  13.670  37.963   7.050
 6732POPC   C4B44878  13.631  37.929   7.350
 6733POPC   NC344879  42.286  33.057   5.550
 6733POPC   PO444880  42.356  33.014   5.850
 6733POPC   GL144881  42.338  32.984   6.150
 6733POPC   GL244882  42.444  32.960   6.150
 6733POPC   C1A44883  42.286  33.054   6.450
 6733POPC   D2A44884  42.335  33.061   6.750
 6733POPC   C3A44885  42.360  33.035   7.050
 6733POPC   C4A44886  42.291  32.991   7.350
 6733POPC   C1B44887  42.522  32.873   6.450
 6733POPC   C2B44888  42.481  32.830   6.750
 6733POPC   C3B44889  42.448  32.830   7.050
 6733POPC   C4B44890  42.535  32.847   7.350
 6734POPC   NC344891  17.548  38.418   5.550
 6734POPC   PO444892  17.496  38.415   5.850
 6734POPC   GL144893  17.512  38.464   6.150
 6734POPC   GL244894  17.580  38.348   6.150
 6734POPC   C1A44895  17.498  38.500   6.450
 6734POPC   D2A44896  17.485  38.438   6.750
 6734POPC   C3A44897  17.460  38.415   7.050
 6734POPC   C4A44898  17.507  38.482   7.350
 6734POPC   C1B44899  17.623  38.205   6.450
 6734POPC   C2B44900  17.585  38.246   6.750
 6734POPC   C3B44901  17.613  38.219   7.050
 6734POPC   C4B44902  17.595  38.243   7.350
 6735POPC   NC344903  20.606  12.847   5.550
 6735POPC   PO444904  20.633  12.864   5.850
 6735POPC   GL144905  20.570  12.821   6.150
 6735POPC   GL244906  20.514  12.751   6.150
 6735POPC   C1A44907  20.565  12.831   6.450
 6735POPC   D2A44908  20.641  12.901   6.750
 6735POPC   C3A44909  20.655  12.887   7.050
 6735POPC   C4A44910  20.571  12.845   7.350
 6735POPC   C1B44911  20.524  12.673   6.450
 6735POPC   C2B44912  20.537  12.672   6.750
 6735POPC   C3B44913  20.516  12.601   7.050
 6735POPC   C4B44914  20.498  12.600   7.350
 6736POPC   NC344915  23.751   3.591   5.550
 6736POPC   PO444916  23.754   3.518   5.850
 6736POPC   GL144917  23.711   3.553   6.150
 6736POPC   GL244918  23.617   3.611   6.150
 6736POPC   C1A44919  23.735   3.509   6.450
 6736POPC   D2A44920  23.725   3.554   6.750
 6736POPC   C3A44921  23.756   3.569   7.050
 6736POPC   C4A44922  23.682   3.499   7.350
 6736POPC   C1B44923  23.465   3.648   6.450
 6736POPC   C2B44924  23.539   3.725   6.750
 6736POPC   C3B44925  23.480   3.723   7.050
 6736POPC   C4B44926  23.533   3.700   7.350
 6737POPC   NC344927  21.351  13.637   5.550
 6737POPC   PO444928  21.406  13.645   5.850
 6737POPC   GL144929  21.364  13.597   6.150
 6737POPC   GL244930  21.367  13.742   6.150
 6737POPC   C1A44931  21.408  13.634   6.450
 6737POPC   D2A44932  21.378  13.616   6.750
 6737POPC   C3A44933  21.401  13.671   7.050
 6737POPC   C4A44934  21.425  13.621   7.350
 6737POPC   C1B44935  21.450  13.872   6.450
 6737POPC   C2B44936  21.423  13.840   6.750
 6737POPC   C3B44937  21.399  13.856   7.050
 6737POPC   C4B44938  21.428  13.899   7.350
 6738POPC   NC344939   5.140  32.277   5.550
 6738POPC   PO444940   5.106  32.280   5.850
 6738POPC   GL144941   5.119  32.268   6.150
 6738POPC   GL244942   5.062  32.155   6.150
 6738POPC   C1A44943   5.129  32.207   6.450
 6738POPC   D2A44944   5.071  32.268   6.750
 6738POPC   C3A44945   5.073  32.284   7.050
 6738POPC   C4A44946   5.045  32.205   7.350
 6738POPC   C1B44947   5.087  31.991   6.450
 6738POPC   C2B44948   5.082  32.008   6.750
 6738POPC   C3B44949   5.103  32.035   7.050
 6738POPC   C4B44950   5.127  31.962   7.350
 6739POPC   NC344951  14.451  12.802   5.550
 6739POPC   PO444952  14.364  12.869   5.850
 6739POPC   GL144953  14.442  12.849   6.150
 6739POPC   GL244954  14.396  12.693   6.150
 6739POPC   C1A44955  14.377  12.816   6.450
 6739POPC   D2A44956  14.419  12.858   6.750
 6739POPC   C3A44957  14.407  12.880   7.050
 6739POPC   C4A44958  14.369  12.870   7.350
 6739POPC   C1B44959  14.405  12.614   6.450
 6739POPC   C2B44960  14.362  12.637   6.750
 6739POPC   C3B44961  14.348  12.568   7.050
 6739POPC   C4B44962  14.419  12.627   7.350
 6740POPC   NC344963   5.895  20.593   5.550
 6740POPC   PO444964   5.850  20.653   5.850
 6740POPC   GL144965   5.903  20.644   6.150
 6740POPC   GL244966   5.918  20.509   6.150
 6740POPC   C1A44967   5.869  20.581   6.450
 6740POPC   D2A44968   5.887  20.646   6.750
 6740POPC   C3A44969   5.882  20.659   7.050
 6740POPC   C4A44970   5.821  20.652   7.350
 6740POPC   C1B44971   6.069  20.479   6.450
 6740POPC   C2B44972   6.083  20.381   6.750
 6740POPC   C3B44973   5.995  20.427   7.050
 6740POPC   C4B44974   6.060  20.429   7.350
 6741POPC   NC344975  13.586  33.766   5.550
 6741POPC   PO444976  13.604  33.792   5.850
 6741POPC   GL144977  13.601  33.825   6.150
 6741POPC   GL244978  13.682  33.630   6.150
 6741POPC   C1A44979  13.636  33.766   6.450
 6741POPC   D2A44980  13.637  33.766   6.750
 6741POPC   C3A44981  13.585  33.769   7.050
 6741POPC   C4A44982  13.677  33.770   7.350
 6741POPC   C1B44983  13.658  33.527   6.450
 6741POPC   C2B44984  13.642  33.543   6.750
 6741POPC   C3B44985  13.652  33.583   7.050
 6741POPC   C4B44986  13.623  33.535   7.350
 6742POPC   NC344987  36.150  12.103   5.550
 6742POPC   PO444988  36.163  12.102   5.850
 6742POPC   GL144989  36.153  12.085   6.150
 6742POPC   GL244990  36.200  11.922   6.150
 6742POPC   C1A44991  36.165  12.039   6.450
 6742POPC   D2A44992  36.143  12.054   6.750
 6742POPC   C3A44993  36.083  12.040   7.050
 6742POPC   C4A44994  36.120  12.083   7.350
 6742POPC   C1B44995  36.245  11.822   6.450
 6742POPC   C2B44996  36.174  11.789   6.750
 6742POPC   C3B44997  36.238  11.841   7.050
 6742POPC   C4B44998  36.218  11.802   7.350
 6743POPC   NC344999  26.052   2.757   5.550
 6743POPC   PO445000  26.073   2.766   5.850
 6743POPC   GL145001  26.088   2.790   6.150
 6743POPC   GL245002  25.938   2.764   6.150
 6743POPC   C1A45003  26.018   2.792   6.450
 6743POPC   D2A45004  26.036   2.759   6.750
 6743POPC   C3A45005  26.028   2.749   7.050
 6743POPC   C4A45006  26.091   2.811   7.350
 6743POPC   C1B45007  25.835   2.819   6.450
 6743POPC   C2B45008  25.816   2.863   6.750
 6743POPC   C3B45009  25.853   2.869   7.050
 6743POPC   C4B45010  25.774   2.881   7.350
 6744POPC   NC345011  35.396  43.890   5.550
 6744POPC   PO445012  35.346  43.890   5.850
 6744POPC   GL145013  35.391  43.899   6.150
 6744POPC   GL245014  35.317  43.796   6.150
 6744POPC   C1A45015  35.389  43.842   6.450
 6744POPC   D2A45016  35.372  43.871   6.750
 6744POPC   C3A45017  35.314  43.863   7.050
 6744POPC   C4A45018  35.319  43.911   7.350
 6744POPC   C1B45019  35.202  43.684   6.450
 6744POPC   C2B45020  35.229  43.728   6.750
 6744POPC   C3B45021  35.242  43.725   7.050
 6744POPC   C4B45022  35.169  43.729   7.350
 6745POPC   NC345023   8.972  13.676   5.550
 6745POPC   PO445024   8.926  13.641   5.850
 6745POPC   GL145025   9.005  13.633   6.150
 6745POPC   GL245026   9.058  13.625   6.150
 6745POPC   C1A45027   8.994  13.648   6.450
 6745POPC   D2A45028   8.969  13.605   6.750
 6745POPC   C3A45029   8.947  13.650   7.050
 6745POPC   C4A45030   8.993  13.654   7.350
 6745POPC   C1B45031   9.228  13.689   6.450
 6745POPC   C2B45032   9.171  13.717   6.750
 6745POPC   C3B45033   9.249  13.690   7.050
 6745POPC   C4B45034   9.173  13.728   7.350
 6746POPC   NC345035   5.115  21.336   5.550
 6746POPC   PO445036   5.108  21.390   5.850
 6746POPC   GL145037   5.044  21.346   6.150
 6746POPC   GL245038   5.205  21.369   6.150
 6746POPC   C1A45039   5.122  21.411   6.450
 6746POPC   D2A45040   5.097  21.355   6.750
 6746POPC   C3A45041   5.134  21.367   7.050
 6746POPC   C4A45042   5.070  21.395   7.350
 6746POPC   C1B45043   5.320  21.363   6.450
 6746POPC   C2B45044   5.332  21.310   6.750
 6746POPC   C3B45045   5.368  21.365   7.050
 6746POPC   C4B45046   5.343  21.317   7.350
 6747POPC   NC345047  36.909   3.508   5.550
 6747POPC   PO445048  36.936   3.563   5.850
 6747POPC   GL145049  36.935   3.533   6.150
 6747POPC   GL245050  37.032   3.459   6.150
 6747POPC   C1A45051  36.946   3.492   6.450
 6747POPC   D2A45052  36.928   3.543   6.750
 6747POPC   C3A45053  36.940   3.513   7.050
 6747POPC   C4A45054  36.930   3.533   7.350
 6747POPC   C1B45055  37.085   3.478   6.450
 6747POPC   C2B45056  37.171   3.472   6.750
 6747POPC   C3B45057  37.174   3.404   7.050
 6747POPC   C4B45058  37.129   3.420   7.350
 6748POPC   NC345059   8.998  43.858   5.550
 6748POPC   PO445060   8.943  43.930   5.850
 6748POPC   GL145061   8.957  43.916   6.150
 6748POPC   GL245062   9.085  43.977   6.150
 6748POPC   C1A45063   9.020  43.845   6.450
 6748POPC   D2A45064   9.004  43.883   6.750
 6748POPC   C3A45065   9.019  43.870   7.050
 6748POPC   C4A45066   8.985  43.909   7.350
 6748POPC   C1B45067   9.126  44.139   6.450
 6748POPC   C2B45068   9.135  44.129   6.750
 6748POPC   C3B45069   9.076  44.132   7.050
 6748POPC   C4B45070   9.095  44.047   7.350
 6749POPC   NC345071  42.324  15.984   5.550
 6749POPC   PO445072  42.335  15.949   5.850
 6749POPC   GL145073  42.362  15.949   6.150
 6749POPC   GL245074  42.262  15.918   6.150
 6749POPC   C1A45075  42.333  15.964   6.450
 6749POPC   D2A45076  42.301  15.998   6.750
 6749POPC   C3A45077  42.381  15.951   7.050
 6749POPC   C4A45078  42.332  15.985   7.350
 6749POPC   C1B45079  42.173  15.796   6.450
 6749POPC   C2B45080  42.105  15.737   6.750
 6749POPC   C3B45081  42.148  15.809   7.050
 6749POPC   C4B45082  42.105  15.758   7.350
 6750POPC   NC345083  28.392  38.460   5.550
 6750POPC   PO445084  28.333  38.406   5.850
 6750POPC   GL145085  28.405  38.498   6.150
 6750POPC   GL245086  28.272  38.375   6.150
 6750POPC   C1A45087  28.418  38.439   6.450
 6750POPC   D2A45088  28.397  38.406   6.750
 6750POPC   C3A45089  28.417  38.462   7.050
 6750POPC   C4A45090  28.396  38.432   7.350
 6750POPC   C1B45091  28.175  38.325   6.450
 6750POPC   C2B45092  28.144  38.304   6.750
 6750POPC   C3B45093  28.181  38.372   7.050
 6750POPC   C4B45094  28.143  38.296   7.350
 6751POPC   NC345095  19.048  26.089   5.550
 6751POPC   PO445096  19.107  26.044   5.850
 6751POPC   GL145097  19.053  25.993   6.150
 6751POPC   GL245098  19.091  25.959   6.150
 6751POPC   C1A45099  19.083  25.996   6.450
 6751POPC   D2A45100  19.024  26.048   6.750
 6751POPC   C3A45101  19.081  26.023   7.050
 6751POPC   C4A45102  19.024  26.004   7.350
 6751POPC   C1B45103  19.133  25.788   6.450
 6751POPC   C2B45104  19.171  25.780   6.750
 6751POPC   C3B45105  19.142  25.811   7.050
 6751POPC   C4B45106  19.134  25.838   7.350
 6752POPC   NC345107  36.114  37.681   5.550
 6752POPC   PO445108  36.162  37.651   5.850
 6752POPC   GL145109  36.107  37.715   6.150
 6752POPC   GL245110  36.246  37.732   6.150
 6752POPC   C1A45111  36.085  37.650   6.450
 6752POPC   D2A45112  36.161  37.633   6.750
 6752POPC   C3A45113  36.172  37.641   7.050
 6752POPC   C4A45114  36.111  37.684   7.350
 6752POPC   C1B45115  36.415  37.687   6.450
 6752POPC   C2B45116  36.410  37.686   6.750
 6752POPC   C3B45117  36.397  37.650   7.050
 6752POPC   C4B45118  36.408  37.727   7.350
 6753POPC   NC345119  40.735  43.150   5.550
 6753POPC   PO445120  40.814  43.131   5.850
 6753POPC   GL145121  40.751  43.069   6.150
 6753POPC   GL245122  40.741  43.001   6.150
 6753POPC   C1A45123  40.806  43.088   6.450
 6753POPC   D2A45124  40.790  43.140   6.750
 6753POPC   C3A45125  40.741  43.085   7.050
 6753POPC   C4A45126  40.801  43.092   7.350
 6753POPC   C1B45127  40.650  42.864   6.450
 6753POPC   C2B45128  40.698  42.849   6.750
 6753POPC   C3B45129  40.610  42.940   7.050
 6753POPC   C4B45130  40.671  42.912   7.350
 6754POPC   NC345131  43.114  16.757   5.550
 6754POPC   PO445132  43.076  16.710   5.850
 6754POPC   GL145133  43.146  16.764   6.150
 6754POPC   GL245134  43.036  16.840   6.150
 6754POPC   C1A45135  43.124  16.740   6.450
 6754POPC   D2A45136  43.077  16.729   6.750
 6754POPC   C3A45137  43.111  16.728   7.050
 6754POPC   C4A45138  43.094  16.715   7.350
 6754POPC   C1B45139  43.033  16.937   6.450
 6754POPC   C2B45140  43.012  16.934   6.750
 6754POPC   C3B45141  43.008  16.967   7.050
 6754POPC   C4B45142  43.013  16.932   7.350
 6755POPC   NC345143  26.834   9.783   5.550
 6755POPC   PO445144  26.808   9.753   5.850
 6755POPC   GL145145  26.862   9.785   6.150
 6755POPC   GL245146  26.908   9.867   6.150
 6755POPC   C1A45147  26.773   9.763   6.450
 6755POPC   D2A45148  26.830   9.790   6.750
 6755POPC   C3A45149  26.834   9.764   7.050
 6755POPC   C4A45150  26.800   9.756   7.350
 6755POPC   C1B45151  27.048   9.860   6.450
 6755POPC   C2B45152  27.037   9.927   6.750
 6755POPC   C3B45153  27.037   9.930   7.050
 6755POPC   C4B45154  26.981   9.906   7.350
 6756POPC   NC345155  32.198  22.145   5.550
 6756POPC   PO445156  32.208  22.126   5.850
 6756POPC   GL145157  32.288  22.144   6.150
 6756POPC   GL245158  32.224  22.293   6.150
 6756POPC   C1A45159  32.249  22.152   6.450
 6756POPC   D2A45160  32.253  22.134   6.750
 6756POPC   C3A45161  32.239  22.156   7.050
 6756POPC   C4A45162  32.230  22.166   7.350
 6756POPC   C1B45163  32.251  22.394   6.450
 6756POPC   C2B45164  32.286  22.447   6.750
 6756POPC   C3B45165  32.257  22.400   7.050
 6756POPC   C4B45166  32.298  22.412   7.350
 6757POPC   NC345167  39.277  39.983   5.550
 6757POPC   PO445168  39.192  40.045   5.850
 6757POPC   GL145169  39.272  39.984   6.150
 6757POPC   GL245170  39.317  39.910   6.150
 6757POPC   C1A45171  39.266  40.040   6.450
 6757POPC   D2A45172  39.238  40.044   6.750
 6757POPC   C3A45173  39.191  39.978   7.050
 6757POPC   C4A45174  39.198  40.006   7.350
 6757POPC   C1B45175  39.340  39.804   6.450
 6757POPC   C2B45176  39.366  39.833   6.750
 6757POPC   C3B45177  39.378  39.825   7.050
 6757POPC   C4B45178  39.348  39.755   7.350
 6758POPC   NC345179  41.578   9.728   5.550
 6758POPC   PO445180  41.529   9.776   5.850
 6758POPC   GL145181  41.561   9.769   6.150
 6758POPC   GL245182  41.648   9.868   6.150
 6758POPC   C1A45183  41.587   9.724   6.450
 6758POPC   D2A45184  41.594   9.735   6.750
 6758POPC   C3A45185  41.533   9.785   7.050
 6758POPC   C4A45186  41.534   9.714   7.350
 6758POPC   C1B45187  41.685   9.923   6.450
 6758POPC   C2B45188  41.696   9.938   6.750
 6758POPC   C3B45189  41.671   9.974   7.050
 6758POPC   C4B45190  41.716   9.943   7.350
 6759POPC   NC345191  39.992  24.480   5.550
 6759POPC   PO445192  39.974  24.466   5.850
 6759POPC   GL145193  40.033  24.458   6.150
 6759POPC   GL245194  39.933  24.485   6.150
 6759POPC   C1A45195  40.031  24.521   6.450
 6759POPC   D2A45196  40.024  24.469   6.750
 6759POPC   C3A45197  39.958  24.477   7.050
 6759POPC   C4A45198  39.983  24.443   7.350
 6759POPC   C1B45199  39.768  24.584   6.450
 6759POPC   C2B45200  39.767  24.582   6.750
 6759POPC   C3B45201  39.814  24.516   7.050
 6759POPC   C4B45202  39.763  24.574   7.350
 6760POPC   NC345203  12.115  22.209   5.550
 6760POPC   PO445204  12.063  22.141   5.850
 6760POPC   GL145205  12.064  22.121   6.150
 6760POPC   GL245206  12.035  22.042   6.150
 6760POPC   C1A45207  12.124  22.202   6.450
 6760POPC   D2A45208  12.119  22.153   6.750
 6760POPC   C3A45209  12.075  22.145   7.050
 6760POPC   C4A45210  12.036  22.187   7.350
 6760POPC   C1B45211  12.053  21.893   6.450
 6760POPC   C2B45212  12.047  21.869   6.750
 6760POPC   C3B45213  12.042  21.915   7.050
 6760POPC   C4B45214  12.080  21.917   7.350
 6761POPC   NC345215   7.413  16.718   5.550
 6761POPC   PO445216   7.468  16.768   5.850
 6761POPC   GL145217   7.382  16.749   6.150
 6761POPC   GL245218   7.336  16.681   6.150
 6761POPC   C1A45219   7.454  16.713   6.450
 6761POPC   D2A45220   7.379  16.777   6.750
 6761POPC   C3A45221   7.459  16.696   7.050
 6761POPC   C4A45222   7.413  16.735   7.350
 6761POPC   C1B45223   7.151  16.695   6.450
 6761POPC   C2B45224   7.158  16.675   6.750
 6761POPC   C3B45225   7.162  16.656   7.050
 6761POPC   C4B45226   7.161  16.644   7.350
 6762POPC   NC345227  28.366  36.091   5.550
 6762POPC   PO445228  28.326  36.177   5.850
 6762POPC   GL145229  28.390  36.092   6.150
 6762POPC   GL245230  28.397  36.252   6.150
 6762POPC   C1A45231  28.391  36.135   6.450
 6762POPC   D2A45232  28.338  36.098   6.750
 6762POPC   C3A45233  28.323  36.156   7.050
 6762POPC   C4A45234  28.368  36.160   7.350
 6762POPC   C1B45235  28.374  36.388   6.450
 6762POPC   C2B45236  28.335  36.374   6.750
 6762POPC   C3B45237  28.407  36.378   7.050
 6762POPC   C4B45238  28.346  36.415   7.350
 6763POPC   NC345239  36.910   5.903   5.550
 6763POPC   PO445240  36.918   5.900   5.850
 6763POPC   GL145241  36.857   5.835   6.150
 6763POPC   GL245242  36.772   5.859   6.150
 6763POPC   C1A45243  36.948   5.855   6.450
 6763POPC   D2A45244  36.941   5.860   6.750
 6763POPC   C3A45245  36.911   5.867   7.050
 6763POPC   C4A45246  36.904   5.877   7.350
 6763POPC   C1B45247  36.695   5.857   6.450
 6763POPC   C2B45248  36.683   5.814   6.750
 6763POPC   C3B45249  36.686   5.844   7.050
 6763POPC   C4B45250  36.667   5.876   7.350
 6764POPC   NC345251  40.764  29.878   5.550
 6764POPC   PO445252  40.791  29.937   5.850
 6764POPC   GL145253  40.779  29.878   6.150
 6764POPC   GL245254  40.659  29.895   6.150
 6764POPC   C1A45255  40.756  29.958   6.450
 6764POPC   D2A45256  40.781  29.965   6.750
 6764POPC   C3A45257  40.828  29.943   7.050
 6764POPC   C4A45258  40.829  29.923   7.350
 6764POPC   C1B45259  40.529  29.911   6.450
 6764POPC   C2B45260  40.515  29.891   6.750
 6764POPC   C3B45261  40.545  29.898   7.050
 6764POPC   C4B45262  40.514  29.896   7.350
 6765POPC   NC345263  42.363  34.528   5.550
 6765POPC   PO445264  42.345  34.574   5.850
 6765POPC   GL145265  42.381  34.548   6.150
 6765POPC   GL245266  42.398  34.490   6.150
 6765POPC   C1A45267  42.344  34.623   6.450
 6765POPC   D2A45268  42.372  34.532   6.750
 6765POPC   C3A45269  42.286  34.556   7.050
 6765POPC   C4A45270  42.354  34.612   7.350
 6765POPC   C1B45271  42.533  34.404   6.450
 6765POPC   C2B45272  42.557  34.389   6.750
 6765POPC   C3B45273  42.531  34.406   7.050
 6765POPC   C4B45274  42.513  34.439   7.350
 6766POPC   NC345275   3.515  32.214   5.550
 6766POPC   PO445276   3.526  32.282   5.850
 6766POPC   GL145277   3.589  32.219   6.150
 6766POPC   GL245278   3.595  32.400   6.150
 6766POPC   C1A45279   3.558  32.253   6.450
 6766POPC   D2A45280   3.589  32.244   6.750
 6766POPC   C3A45281   3.571  32.259   7.050
 6766POPC   C4A45282   3.508  32.238   7.350
 6766POPC   C1B45283   3.710  32.461   6.450
 6766POPC   C2B45284   3.644  32.498   6.750
 6766POPC   C3B45285   3.666  32.501   7.050
 6766POPC   C4B45286   3.723  32.481   7.350
 6767POPC   NC345287  42.303  11.302   5.550
 6767POPC   PO445288  42.322  11.261   5.850
 6767POPC   GL145289  42.294  11.301   6.150
 6767POPC   GL245290  42.496  11.310   6.150
 6767POPC   C1A45291  42.371  11.294   6.450
 6767POPC   D2A45292  42.366  11.345   6.750
 6767POPC   C3A45293  42.346  11.336   7.050
 6767POPC   C4A45294  42.344  11.288   7.350
 6767POPC   C1B45295  42.586  11.330   6.450
 6767POPC   C2B45296  42.618  11.400   6.750
 6767POPC   C3B45297  42.542  11.347   7.050
 6767POPC   C4B45298  42.535  11.351   7.350
 6768POPC   NC345299   9.786   9.702   5.550
 6768POPC   PO445300   9.746   9.708   5.850
 6768POPC   GL145301   9.768   9.751   6.150
 6768POPC   GL245302   9.668   9.823   6.150
 6768POPC   C1A45303   9.717   9.720   6.450
 6768POPC   D2A45304   9.730   9.771   6.750
 6768POPC   C3A45305   9.784   9.782   7.050
 6768POPC   C4A45306   9.794   9.797   7.350
 6768POPC   C1B45307   9.570   9.899   6.450
 6768POPC   C2B45308   9.529   9.911   6.750
 6768POPC   C3B45309   9.550   9.852   7.050
 6768POPC   C4B45310   9.549   9.848   7.350
 6769POPC   NC345311  31.424  39.966   5.550
 6769POPC   PO445312  31.492  39.990   5.850
 6769POPC   GL145313  31.508  39.998   6.150
 6769POPC   GL245314  31.385  40.088   6.150
 6769POPC   C1A45315  31.440  40.036   6.450
 6769POPC   D2A45316  31.516  40.023   6.750
 6769POPC   C3A45317  31.437  40.051   7.050
 6769POPC   C4A45318  31.482  40.044   7.350
 6769POPC   C1B45319  31.311  40.177   6.450
 6769POPC   C2B45320  31.280  40.149   6.750
 6769POPC   C3B45321  31.232  40.188   7.050
 6769POPC   C4B45322  31.238  40.109   7.350
 6770POPC   NC345323  42.303   1.978   5.550
 6770POPC   PO445324  42.321   2.036   5.850
 6770POPC   GL145325  42.302   2.032   6.150
 6770POPC   GL245326  42.314   2.129   6.150
 6770POPC   C1A45327  42.319   1.962   6.450
 6770POPC   D2A45328  42.379   2.022   6.750
 6770POPC   C3A45329  42.381   1.996   7.050
 6770POPC   C4A45330  42.375   2.020   7.350
 6770POPC   C1B45331  42.221   2.232   6.450
 6770POPC   C2B45332  42.287   2.209   6.750
 6770POPC   C3B45333  42.304   2.228   7.050
 6770POPC   C4B45334  42.226   2.259   7.350
 6771POPC   NC345335  38.465  24.530   5.550
 6771POPC   PO445336  38.429  24.517   5.850
 6771POPC   GL145337  38.459  24.514   6.150
 6771POPC   GL245338  38.618  24.453   6.150
 6771POPC   C1A45339  38.433  24.535   6.450
 6771POPC   D2A45340  38.505  24.532   6.750
 6771POPC   C3A45341  38.413  24.441   7.050
 6771POPC   C4A45342  38.463  24.471   7.350
 6771POPC   C1B45343  38.723  24.479   6.450
 6771POPC   C2B45344  38.707  24.492   6.750
 6771POPC   C3B45345  38.693  24.509   7.050
 6771POPC   C4B45346  38.691  24.527   7.350
 6772POPC   NC345347   2.723  26.039   5.550
 6772POPC   PO445348   2.718  26.038   5.850
 6772POPC   GL145349   2.814  26.085   6.150
 6772POPC   GL245350   2.644  25.948   6.150
 6772POPC   C1A45351   2.724  26.011   6.450
 6772POPC   D2A45352   2.808  26.002   6.750
 6772POPC   C3A45353   2.777  26.009   7.050
 6772POPC   C4A45354   2.785  26.000   7.350
 6772POPC   C1B45355   2.559  25.846   6.450
 6772POPC   C2B45356   2.579  25.916   6.750
 6772POPC   C3B45357   2.582  25.899   7.050
 6772POPC   C4B45358   2.543  25.849   7.350
 6773POPC   NC345359  12.121  19.068   5.550
 6773POPC   PO445360  12.069  19.030   5.850
 6773POPC   GL145361  12.061  19.047   6.150
 6773POPC   GL245362  12.194  19.169   6.150
 6773POPC   C1A45363  12.087  19.074   6.450
 6773POPC   D2A45364  12.037  19.057   6.750
 6773POPC   C3A45365  12.065  19.098   7.050
 6773POPC   C4A45366  12.087  19.013   7.350
 6773POPC   C1B45367  12.257  19.186   6.450
 6773POPC   C2B45368  12.269  19.243   6.750
 6773POPC   C3B45369  12.279  19.248   7.050
 6773POPC   C4B45370  12.222  19.224   7.350
 6774POPC   NC345371   7.453  41.562   5.550
 6774POPC   PO445372   7.438  41.604   5.850
 6774POPC   GL145373   7.446  41.517   6.150
 6774POPC   GL245374   7.499  41.633   6.150
 6774POPC   C1A45375   7.429  41.531   6.450
 6774POPC   D2A45376   7.468  41.536   6.750
 6774POPC   C3A45377   7.376  41.514   7.050
 6774POPC   C4A45378   7.381  41.509   7.350
 6774POPC   C1B45379   7.625  41.689   6.450
 6774POPC   C2B45380   7.636  41.602   6.750
 6774POPC   C3B45381   7.651  41.628   7.050
 6774POPC   C4B45382   7.667  41.620   7.350
 6775POPC   NC345383  22.192  21.386   5.550
 6775POPC   PO445384  22.181  21.402   5.850
 6775POPC   GL145385  22.172  21.350   6.150
 6775POPC   GL245386  22.042  21.402   6.150
 6775POPC   C1A45387  22.138  21.398   6.450
 6775POPC   D2A45388  22.181  21.402   6.750
 6775POPC   C3A45389  22.141  21.396   7.050
 6775POPC   C4A45390  22.120  21.413   7.350
 6775POPC   C1B45391  21.916  21.422   6.450
 6775POPC   C2B45392  21.901  21.341   6.750
 6775POPC   C3B45393  21.874  21.429   7.050
 6775POPC   C4B45394  21.907  21.360   7.350
 6776POPC   NC345395  40.759  39.974   5.550
 6776POPC   PO445396  40.818  39.986   5.850
 6776POPC   GL145397  40.785  40.020   6.150
 6776POPC   GL245398  40.916  40.087   6.150
 6776POPC   C1A45399  40.810  40.049   6.450
 6776POPC   D2A45400  40.781  39.991   6.750
 6776POPC   C3A45401  40.739  39.971   7.050
 6776POPC   C4A45402  40.771  39.983   7.350
 6776POPC   C1B45403  40.940  40.165   6.450
 6776POPC   C2B45404  40.977  40.188   6.750
 6776POPC   C3B45405  40.999  40.190   7.050
 6776POPC   C4B45406  40.934  40.143   7.350
 6777POPC   NC345407  19.858  13.597   5.550
 6777POPC   PO445408  19.800  13.647   5.850
 6777POPC   GL145409  19.793  13.628   6.150
 6777POPC   GL245410  19.688  13.618   6.150
 6777POPC   C1A45411  19.874  13.669   6.450
 6777POPC   D2A45412  19.835  13.580   6.750
 6777POPC   C3A45413  19.785  13.597   7.050
 6777POPC   C4A45414  19.790  13.593   7.350
 6777POPC   C1B45415  19.624  13.688   6.450
 6777POPC   C2B45416  19.622  13.659   6.750
 6777POPC   C3B45417  19.553  13.655   7.050
 6777POPC   C4B45418  19.606  13.653   7.350
 6778POPC   NC345419  10.484  12.055   5.550
 6778POPC   PO445420  10.568  12.072   5.850
 6778POPC   GL145421  10.485  12.122   6.150
 6778POPC   GL245422  10.623  11.986   6.150
 6778POPC   C1A45423  10.514  12.080   6.450
 6778POPC   D2A45424  10.532  12.115   6.750
 6778POPC   C3A45425  10.483  12.046   7.050
 6778POPC   C4A45426  10.530  12.087   7.350
 6778POPC   C1B45427  10.674  11.913   6.450
 6778POPC   C2B45428  10.670  11.901   6.750
 6778POPC   C3B45429  10.637  11.861   7.050
 6778POPC   C4B45430  10.706  11.917   7.350
 6779POPC   NC345431  22.155  28.388   5.550
 6779POPC   PO445432  22.201  28.352   5.850
 6779POPC   GL145433  22.137  28.371   6.150
 6779POPC   GL245434  22.075  28.262   6.150
 6779POPC   C1A45435  22.122  28.411   6.450
 6779POPC   D2A45436  22.146  28.337   6.750
 6779POPC   C3A45437  22.184  28.341   7.050
 6779POPC   C4A45438  22.194  28.380   7.350
 6779POPC   C1B45439  22.015  28.168   6.450
 6779POPC   C2B45440  21.984  28.136   6.750
 6779POPC   C3B45441  22.027  28.168   7.050
 6779POPC   C4B45442  21.989  28.197   7.350
 6780POPC   NC345443   5.096  27.548   5.550
 6780POPC   PO445444   5.082  27.558   5.850
 6780POPC   GL145445   5.092  27.560   6.150
 6780POPC   GL245446   5.019  27.505   6.150
 6780POPC   C1A45447   5.046  27.575   6.450
 6780POPC   D2A45448   5.048  27.641   6.750
 6780POPC   C3A45449   5.044  27.611   7.050
 6780POPC   C4A45450   5.139  27.607   7.350
 6780POPC   C1B45451   4.956  27.346   6.450
 6780POPC   C2B45452   4.987  27.431   6.750
 6780POPC   C3B45453   4.950  27.414   7.050
 6780POPC   C4B45454   4.981  27.339   7.350
 6781POPC   NC345455  29.132  41.596   5.550
 6781POPC   PO445456  29.095  41.522   5.850
 6781POPC   GL145457  29.103  41.558   6.150
 6781POPC   GL245458  29.075  41.647   6.150
 6781POPC   C1A45459  29.148  41.535   6.450
 6781POPC   D2A45460  29.146  41.568   6.750
 6781POPC   C3A45461  29.147  41.591   7.050
 6781POPC   C4A45462  29.121  41.590   7.350
 6781POPC   C1B45463  28.955  41.756   6.450
 6781POPC   C2B45464  28.973  41.758   6.750
 6781POPC   C3B45465  28.969  41.719   7.050
 6781POPC   C4B45466  29.015  41.744   7.350
 6782POPC   NC345467  12.125  15.957   5.550
 6782POPC   PO445468  12.052  15.959   5.850
 6782POPC   GL145469  12.089  15.987   6.150
 6782POPC   GL245470  11.923  15.898   6.150
 6782POPC   C1A45471  12.067  15.991   6.450
 6782POPC   D2A45472  12.097  15.929   6.750
 6782POPC   C3A45473  12.076  15.954   7.050
 6782POPC   C4A45474  12.051  15.916   7.350
 6782POPC   C1B45475  11.829  15.886   6.450
 6782POPC   C2B45476  11.836  15.889   6.750
 6782POPC   C3B45477  11.825  15.866   7.050
 6782POPC   C4B45478  11.868  15.914   7.350
 6783POPC   NC345479  19.041   6.624   5.550
 6783POPC   PO445480  19.039   6.603   5.850
 6783POPC   GL145481  19.052   6.641   6.150
 6783POPC   GL245482  19.185   6.580   6.150
 6783POPC   C1A45483  19.010   6.604   6.450
 6783POPC   D2A45484  19.072   6.657   6.750
 6783POPC   C3A45485  19.019   6.616   7.050
 6783POPC   C4A45486  19.082   6.650   7.350
 6783POPC   C1B45487  19.259   6.456   6.450
 6783POPC   C2B45488  19.230   6.434   6.750
 6783POPC   C3B45489  19.173   6.438   7.050
 6783POPC   C4B45490  19.185   6.415   7.350
 6784POPC   NC345491  26.028  40.823   5.550
 6784POPC   PO445492  26.055  40.775   5.850
 6784POPC   GL145493  26.040  40.764   6.150
 6784POPC   GL245494  26.005  40.903   6.150
 6784POPC   C1A45495  26.090  40.782   6.450
 6784POPC   D2A45496  26.066  40.772   6.750
 6784POPC   C3A45497  26.090  40.742   7.050
 6784POPC   C4A45498  26.026  40.733   7.350
 6784POPC   C1B45499  25.874  40.943   6.450
 6784POPC   C2B45500  25.858  40.935   6.750
 6784POPC   C3B45501  25.916  40.938   7.050
 6784POPC   C4B45502  25.839  40.936   7.350
 6785POPC   NC345503  17.515  15.945   5.550
 6785POPC   PO445504  17.547  15.919   5.850
 6785POPC   GL145505  17.506  15.992   6.150
 6785POPC   GL245506  17.643  16.042   6.150
 6785POPC   C1A45507  17.502  16.000   6.450
 6785POPC   D2A45508  17.530  15.962   6.750
 6785POPC   C3A45509  17.515  15.965   7.050
 6785POPC   C4A45510  17.512  15.977   7.350
 6785POPC   C1B45511  17.679  16.083   6.450
 6785POPC   C2B45512  17.718  16.117   6.750
 6785POPC   C3B45513  17.713  16.155   7.050
 6785POPC   C4B45514  17.724  16.151   7.350
 6786POPC   NC345515   6.689  40.003   5.550
 6786POPC   PO445516   6.687  39.993   5.850
 6786POPC   GL145517   6.663  39.971   6.150
 6786POPC   GL245518   6.595  40.112   6.150
 6786POPC   C1A45519   6.614  39.981   6.450
 6786POPC   D2A45520   6.598  40.010   6.750
 6786POPC   C3A45521   6.611  39.988   7.050
 6786POPC   C4A45522   6.663  40.021   7.350
 6786POPC   C1B45523   6.593  40.262   6.450
 6786POPC   C2B45524   6.648  40.290   6.750
 6786POPC   C3B45525   6.557  40.288   7.050
 6786POPC   C4B45526   6.580  40.288   7.350
 6787POPC   NC345527  30.718  36.147   5.550
 6787POPC   PO445528  30.691  36.170   5.850
 6787POPC   GL145529  30.715  36.104   6.150
 6787POPC   GL245530  30.786  36.196   6.150
 6787POPC   C1A45531  30.701  36.084   6.450
 6787POPC   D2A45532  30.697  36.157   6.750
 6787POPC   C3A45533  30.721  36.141   7.050
 6787POPC   C4A45534  30.699  36.169   7.350
 6787POPC   C1B45535  30.816  36.291   6.450
 6787POPC   C2B45536  30.892  36.293   6.750
 6787POPC   C3B45537  30.820  36.376   7.050
 6787POPC   C4B45538  30.798  36.348   7.350
 6788POPC   NC345539  33.777  11.259   5.550
 6788POPC   PO445540  33.814  11.279   5.850
 6788POPC   GL145541  33.780  11.331   6.150
 6788POPC   GL245542  33.855  11.245   6.150
 6788POPC   C1A45543  33.755  11.342   6.450
 6788POPC   D2A45544  33.844  11.280   6.750
 6788POPC   C3A45545  33.803  11.296   7.050
 6788POPC   C4A45546  33.785  11.307   7.350
 6788POPC   C1B45547  33.977  11.138   6.450
 6788POPC   C2B45548  33.958  11.109   6.750
 6788POPC   C3B45549  33.987  11.153   7.050
 6788POPC   C4B45550  33.962  11.098   7.350
 6789POPC   NC345551   0.400  10.503   5.550
 6789POPC   PO445552   0.451  10.570   5.850
 6789POPC   GL145553   0.462  10.546   6.150
 6789POPC   GL245554   0.321  10.420   6.150
 6789POPC   C1A45555   0.460  10.482   6.450
 6789POPC   D2A45556   0.470  10.540   6.750
 6789POPC   C3A45557   0.402  10.507   7.050
 6789POPC   C4A45558   0.413  10.528   7.350
 6789POPC   C1B45559   0.176  10.442   6.450
 6789POPC   C2B45560   0.257  10.427   6.750
 6789POPC   C3B45561   0.206  10.425   7.050
 6789POPC   C4B45562   0.195  10.392   7.350
 6790POPC   NC345563   7.381  33.062   5.550
 6790POPC   PO445564   7.380  33.046   5.850
 6790POPC   GL145565   7.399  32.990   6.150
 6790POPC   GL245566   7.381  32.906   6.150
 6790POPC   C1A45567   7.444  33.019   6.450
 6790POPC   D2A45568   7.445  33.068   6.750
 6790POPC   C3A45569   7.454  33.003   7.050
 6790POPC   C4A45570   7.433  33.028   7.350
 6790POPC   C1B45571   7.427  32.758   6.450
 6790POPC   C2B45572   7.360  32.809   6.750
 6790POPC   C3B45573   7.375  32.810   7.050
 6790POPC   C4B45574   7.395  32.734   7.350
 6791POPC   NC345575   2.770  33.783   5.550
 6791POPC   PO445576   2.792  33.806   5.850
 6791POPC   GL145577   2.813  33.804   6.150
 6791POPC   GL245578   2.829  33.963   6.150
 6791POPC   C1A45579   2.749  33.825   6.450
 6791POPC   D2A45580   2.780  33.801   6.750
 6791POPC   C3A45581   2.789  33.787   7.050
 6791POPC   C4A45582   2.779  33.834   7.350
 6791POPC   C1B45583   2.825  34.009   6.450
 6791POPC   C2B45584   2.774  34.032   6.750
 6791POPC   C3B45585   2.805  34.028   7.050
 6791POPC   C4B45586   2.766  34.084   7.350
 6792POPC   NC345587   8.957  32.199   5.550
 6792POPC   PO445588   8.994  32.251   5.850
 6792POPC   GL145589   8.977  32.224   6.150
 6792POPC   GL245590   9.072  32.359   6.150
 6792POPC   C1A45591   8.998  32.211   6.450
 6792POPC   D2A45592   8.989  32.254   6.750
 6792POPC   C3A45593   8.953  32.234   7.050
 6792POPC   C4A45594   9.009  32.290   7.350
 6792POPC   C1B45595   9.208  32.393   6.450
 6792POPC   C2B45596   9.138  32.386   6.750
 6792POPC   C3B45597   9.133  32.381   7.050
 6792POPC   C4B45598   9.160  32.337   7.350
 6793POPC   NC345599   8.197  42.377   5.550
 6793POPC   PO445600   8.150  42.289   5.850
 6793POPC   GL145601   8.218  42.361   6.150
 6793POPC   GL245602   8.279  42.322   6.150
 6793POPC   C1A45603   8.242  42.347   6.450
 6793POPC   D2A45604   8.158  42.381   6.750
 6793POPC   C3A45605   8.203  42.341   7.050
 6793POPC   C4A45606   8.186  42.330   7.350
 6793POPC   C1B45607   8.436  42.357   6.450
 6793POPC   C2B45608   8.433  42.347   6.750
 6793POPC   C3B45609   8.401  42.325   7.050
 6793POPC   C4B45610   8.425  42.376   7.350
 6794POPC   NC345611  15.983  13.624   5.550
 6794POPC   PO445612  15.955  13.668   5.850
 6794POPC   GL145613  15.987  13.630   6.150
 6794POPC   GL245614  15.931  13.735   6.150
 6794POPC   C1A45615  15.943  13.647   6.450
 6794POPC   D2A45616  15.969  13.609   6.750
 6794POPC   C3A45617  16.004  13.671   7.050
 6794POPC   C4A45618  16.003  13.591   7.350
 6794POPC   C1B45619  15.959  13.836   6.450
 6794POPC   C2B45620  15.924  13.920   6.750
 6794POPC   C3B45621  15.916  13.883   7.050
 6794POPC   C4B45622  15.971  13.854   7.350
 6795POPC   NC345623  22.917  42.337   5.550
 6795POPC   PO445624  22.970  42.360   5.850
 6795POPC   GL145625  22.973  42.347   6.150
 6795POPC   GL245626  22.863  42.458   6.150
 6795POPC   C1A45627  22.940  42.285   6.450
 6795POPC   D2A45628  22.922  42.312   6.750
 6795POPC   C3A45629  22.983  42.321   7.050
 6795POPC   C4A45630  22.921  42.374   7.350
 6795POPC   C1B45631  22.815  42.557   6.450
 6795POPC   C2B45632  22.741  42.572   6.750
 6795POPC   C3B45633  22.816  42.488   7.050
 6795POPC   C4B45634  22.764  42.534   7.350
 6796POPC   NC345635  29.884  11.289   5.550
 6796POPC   PO445636  29.900  11.272   5.850
 6796POPC   GL145637  29.913  11.315   6.150
 6796POPC   GL245638  29.778  11.330   6.150
 6796POPC   C1A45639  29.923  11.298   6.450
 6796POPC   D2A45640  29.877  11.299   6.750
 6796POPC   C3A45641  29.938  11.278   7.050
 6796POPC   C4A45642  29.951  11.339   7.350
 6796POPC   C1B45643  29.696  11.221   6.450
 6796POPC   C2B45644  29.661  11.278   6.750
 6796POPC   C3B45645  29.646  11.316   7.050
 6796POPC   C4B45646  29.663  11.242   7.350
 6797POPC   NC345647  19.812  33.028   5.550
 6797POPC   PO445648  19.816  33.018   5.850
 6797POPC   GL145649  19.861  32.994   6.150
 6797POPC   GL245650  19.825  33.171   6.150
 6797POPC   C1A45651  19.785  33.046   6.450
 6797POPC   D2A45652  19.858  32.999   6.750
 6797POPC   C3A45653  19.792  33.066   7.050
 6797POPC   C4A45654  19.786  33.010   7.350
 6797POPC   C1B45655  19.911  33.280   6.450
 6797POPC   C2B45656  19.871  33.304   6.750
 6797POPC   C3B45657  19.879  33.268   7.050
 6797POPC   C4B45658  19.843  33.276   7.350
 6798POPC   NC345659  42.285  26.770   5.550
 6798POPC   PO445660  42.375  26.785   5.850
 6798POPC   GL145661  42.373  26.862   6.150
 6798POPC   GL245662  42.385  26.949   6.150
 6798POPC   C1A45663  42.306  26.769   6.450
 6798POPC   D2A45664  42.313  26.777   6.750
 6798POPC   C3A45665  42.347  26.807   7.050
 6798POPC   C4A45666  42.365  26.863   7.350
 6798POPC   C1B45667  42.342  27.110   6.450
 6798POPC   C2B45668  42.412  27.100   6.750
 6798POPC   C3B45669  42.389  27.026   7.050
 6798POPC   C4B45670  42.400  27.087   7.350
 6799POPC   NC345671  39.234  36.890   5.550
 6799POPC   PO445672  39.216  36.879   5.850
 6799POPC   GL145673  39.239  36.888   6.150
 6799POPC   GL245674  39.348  36.893   6.150
 6799POPC   C1A45675  39.210  36.858   6.450
 6799POPC   D2A45676  39.215  36.886   6.750
 6799POPC   C3A45677  39.204  36.873   7.050
 6799POPC   C4A45678  39.278  36.929   7.350
 6799POPC   C1B45679  39.522  36.961   6.450
 6799POPC   C2B45680  39.455  36.889   6.750
 6799POPC   C3B45681  39.528  36.934   7.050
 6799POPC   C4B45682  39.499  36.909   7.350
 6800POPC   NC345683  20.588  21.362   5.550
 6800POPC   PO445684  20.611  21.355   5.850
 6800POPC   GL145685  20.650  21.368   6.150
 6800POPC   GL245686  20.542  21.255   6.150
 6800POPC   C1A45687  20.601  21.427   6.450
 6800POPC   D2A45688  20.645  21.421   6.750
 6800POPC   C3A45689  20.656  21.363   7.050
 6800POPC   C4A45690  20.630  21.340   7.350
 6800POPC   C1B45691  20.430  21.136   6.450
 6800POPC   C2B45692  20.468  21.143   6.750
 6800POPC   C3B45693  20.454  21.210   7.050
 6800POPC   C4B45694  20.494  21.160   7.350
 6801POPC   NC345695  36.939   6.689   5.550
 6801POPC   PO445696  36.901   6.632   5.850
 6801POPC   GL145697  36.926   6.675   6.150
 6801POPC   GL245698  36.795   6.579   6.150
 6801POPC   C1A45699  36.947   6.626   6.450
 6801POPC   D2A45700  36.854   6.627   6.750
 6801POPC   C3A45701  36.919   6.605   7.050
 6801POPC   C4A45702  36.938   6.641   7.350
 6801POPC   C1B45703  36.701   6.449   6.450
 6801POPC   C2B45704  36.774   6.424   6.750
 6801POPC   C3B45705  36.735   6.467   7.050
 6801POPC   C4B45706  36.752   6.465   7.350
 6802POPC   NC345707  24.455   2.037   5.550
 6802POPC   PO445708  24.441   1.950   5.850
 6802POPC   GL145709  24.507   1.983   6.150
 6802POPC   GL245710  24.646   1.976   6.150
 6802POPC   C1A45711  24.517   1.970   6.450
 6802POPC   D2A45712  24.502   2.025   6.750
 6802POPC   C3A45713  24.469   1.942   7.050
 6802POPC   C4A45714  24.478   1.971   7.350
 6802POPC   C1B45715  24.741   1.985   6.450
 6802POPC   C2B45716  24.779   1.984   6.750
 6802POPC   C3B45717  24.777   1.954   7.050
 6802POPC   C4B45718  24.755   1.996   7.350
 6803POPC   NC345719  12.841  41.589   5.550
 6803POPC   PO445720  12.863  41.510   5.850
 6803POPC   GL145721  12.844  41.544   6.150
 6803POPC   GL245722  12.775  41.630   6.150
 6803POPC   C1A45723  12.808  41.568   6.450
 6803POPC   D2A45724  12.889  41.604   6.750
 6803POPC   C3A45725  12.892  41.538   7.050
 6803POPC   C4A45726  12.870  41.549   7.350
 6803POPC   C1B45727  12.639  41.653   6.450
 6803POPC   C2B45728  12.676  41.640   6.750
 6803POPC   C3B45729  12.583  41.675   7.050
 6803POPC   C4B45730  12.662  41.663   7.350
 6804POPC   NC345731  39.276  43.149   5.550
 6804POPC   PO445732  39.249  43.124   5.850
 6804POPC   GL145733  39.241  43.139   6.150
 6804POPC   GL245734  39.151  43.128   6.150
 6804POPC   C1A45735  39.252  43.069   6.450
 6804POPC   D2A45736  39.250  43.133   6.750
 6804POPC   C3A45737  39.223  43.158   7.050
 6804POPC   C4A45738  39.208  43.109   7.350
 6804POPC   C1B45739  38.948  43.126   6.450
 6804POPC   C2B45740  38.995  43.167   6.750
 6804POPC   C3B45741  38.989  43.135   7.050
 6804POPC   C4B45742  38.984  43.109   7.350
 6805POPC   NC345743  12.840  23.664   5.550
 6805POPC   PO445744  12.850  23.672   5.850
 6805POPC   GL145745  12.875  23.685   6.150
 6805POPC   GL245746  12.816  23.833   6.150
 6805POPC   C1A45747  12.828  23.727   6.450
 6805POPC   D2A45748  12.896  23.748   6.750
 6805POPC   C3A45749  12.849  23.745   7.050
 6805POPC   C4A45750  12.822  23.687   7.350
 6805POPC   C1B45751  12.727  23.897   6.450
 6805POPC   C2B45752  12.695  23.879   6.750
 6805POPC   C3B45753  12.699  23.934   7.050
 6805POPC   C4B45754  12.719  23.899   7.350
 6806POPC   NC345755  23.756  36.135   5.550
 6806POPC   PO445756  23.718  36.128   5.850
 6806POPC   GL145757  23.747  36.110   6.150
 6806POPC   GL245758  23.580  36.158   6.150
 6806POPC   C1A45759  23.667  36.095   6.450
 6806POPC   D2A45760  23.723  36.113   6.750
 6806POPC   C3A45761  23.736  36.109   7.050
 6806POPC   C4A45762  23.670  36.152   7.350
 6806POPC   C1B45763  23.461  36.311   6.450
 6806POPC   C2B45764  23.500  36.285   6.750
 6806POPC   C3B45765  23.498  36.280   7.050
 6806POPC   C4B45766  23.489  36.227   7.350
 6807POPC   NC345767   5.112   3.494   5.550
 6807POPC   PO445768   5.063   3.510   5.850
 6807POPC   GL145769   5.117   3.507   6.150
 6807POPC   GL245770   5.163   3.572   6.150
 6807POPC   C1A45771   5.070   3.588   6.450
 6807POPC   D2A45772   5.127   3.566   6.750
 6807POPC   C3A45773   5.117   3.543   7.050
 6807POPC   C4A45774   5.095   3.527   7.350
 6807POPC   C1B45775   5.338   3.685   6.450
 6807POPC   C2B45776   5.322   3.682   6.750
 6807POPC   C3B45777   5.328   3.654   7.050
 6807POPC   C4B45778   5.302   3.644   7.350
 6808POPC   NC345779  44.690   7.440   5.550
 6808POPC   PO445780  44.675   7.389   5.850
 6808POPC   GL145781  44.668   7.409   6.150
 6808POPC   GL245782  44.682   7.511   6.150
 6808POPC   C1A45783  44.692   7.447   6.450
 6808POPC   D2A45784  44.658   7.432   6.750
 6808POPC   C3A45785  44.656   7.453   7.050
 6808POPC   C4A45786  44.621   7.373   7.350
 6808POPC   C1B45787  44.807   7.635   6.450
 6808POPC   C2B45788  44.726   7.677   6.750
 6808POPC   C3B45789  44.760   7.649   7.050
 6808POPC   C4B45790  44.742   7.643   7.350
 6809POPC   NC345791   7.388  14.389   5.550
 6809POPC   PO445792   7.437  14.440   5.850
 6809POPC   GL145793   7.391  14.422   6.150
 6809POPC   GL245794   7.511  14.281   6.150
 6809POPC   C1A45795   7.470  14.370   6.450
 6809POPC   D2A45796   7.424  14.412   6.750
 6809POPC   C3A45797   7.449  14.451   7.050
 6809POPC   C4A45798   7.416  14.398   7.350
 6809POPC   C1B45799   7.546  14.198   6.450
 6809POPC   C2B45800   7.519  14.133   6.750
 6809POPC   C3B45801   7.548  14.202   7.050
 6809POPC   C4B45802   7.529  14.172   7.350
 6810POPC   NC345803  21.394   5.830   5.550
 6810POPC   PO445804  21.362   5.864   5.850
 6810POPC   GL145805  21.433   5.879   6.150
 6810POPC   GL245806  21.436   5.795   6.150
 6810POPC   C1A45807  21.377   5.827   6.450
 6810POPC   D2A45808  21.426   5.854   6.750
 6810POPC   C3A45809  21.427   5.821   7.050
 6810POPC   C4A45810  21.357   5.876   7.350
 6810POPC   C1B45811  21.498   5.641   6.450
 6810POPC   C2B45812  21.543   5.674   6.750
 6810POPC   C3B45813  21.505   5.713   7.050
 6810POPC   C4B45814  21.571   5.631   7.350
 6811POPC   NC345815   3.588  39.191   5.550
 6811POPC   PO445816   3.580  39.199   5.850
 6811POPC   GL145817   3.571  39.182   6.150
 6811POPC   GL245818   3.637  39.144   6.150
 6811POPC   C1A45819   3.583  39.228   6.450
 6811POPC   D2A45820   3.583  39.264   6.750
 6811POPC   C3A45821   3.511  39.270   7.050
 6811POPC   C4A45822   3.526  39.249   7.350
 6811POPC   C1B45823   3.781  39.075   6.450
 6811POPC   C2B45824   3.751  39.143   6.750
 6811POPC   C3B45825   3.806  39.135   7.050
 6811POPC   C4B45826   3.744  39.095   7.350
 6812POPC   NC345827  40.832  36.939   5.550
 6812POPC   PO445828  40.798  36.854   5.850
 6812POPC   GL145829  40.744  36.873   6.150
 6812POPC   GL245830  40.860  37.011   6.150
 6812POPC   C1A45831  40.759  36.937   6.450
 6812POPC   D2A45832  40.804  36.907   6.750
 6812POPC   C3A45833  40.823  36.933   7.050
 6812POPC   C4A45834  40.782  36.947   7.350
 6812POPC   C1B45835  41.012  37.016   6.450
 6812POPC   C2B45836  40.929  37.052   6.750
 6812POPC   C3B45837  41.010  37.109   7.050
 6812POPC   C4B45838  41.011  37.082   7.350
 6813POPC   NC345839  41.581  33.053   5.550
 6813POPC   PO445840  41.531  33.008   5.850
 6813POPC   GL145841  41.537  32.974   6.150
 6813POPC   GL245842  41.553  33.197   6.150
 6813POPC   C1A45843  41.530  33.017   6.450
 6813POPC   D2A45844  41.580  33.058   6.750
 6813POPC   C3A45845  41.537  33.025   7.050
 6813POPC   C4A45846  41.583  33.011   7.350
 6813POPC   C1B45847  41.576  33.248   6.450
 6813POPC   C2B45848  41.533  33.317   6.750
 6813POPC   C3B45849  41.591  33.300   7.050
 6813POPC   C4B45850  41.544  33.240   7.350
 6814POPC   NC345851  20.563   1.997   5.550
 6814POPC   PO445852  20.625   2.024   5.850
 6814POPC   GL145853  20.608   1.994   6.150
 6814POPC   GL245854  20.748   1.926   6.150
 6814POPC   C1A45855  20.605   1.972   6.450
 6814POPC   D2A45856  20.635   2.010   6.750
 6814POPC   C3A45857  20.650   1.992   7.050
 6814POPC   C4A45858  20.656   2.018   7.350
 6814POPC   C1B45859  20.752   1.865   6.450
 6814POPC   C2B45860  20.783   1.815   6.750
 6814POPC   C3B45861  20.819   1.830   7.050
 6814POPC   C4B45862  20.758   1.787   7.350
 6815POPC   NC345863   7.433  42.324   5.550
 6815POPC   PO445864   7.460  42.330   5.850
 6815POPC   GL145865   7.454  42.329   6.150
 6815POPC   GL245866   7.281  42.265   6.150
 6815POPC   C1A45867   7.427  42.367   6.450
 6815POPC   D2A45868   7.398  42.329   6.750
 6815POPC   C3A45869   7.438  42.363   7.050
 6815POPC   C4A45870   7.416  42.365   7.350
 6815POPC   C1B45871   7.203  42.191   6.450
 6815POPC   C2B45872   7.247  42.207   6.750
 6815POPC   C3B45873   7.185  42.161   7.050
 6815POPC   C4B45874   7.220  42.160   7.350
 6816POPC   NC345875  25.289  21.362   5.550
 6816POPC   PO445876  25.267  21.433   5.850
 6816POPC   GL145877  25.252  21.387   6.150
 6816POPC   GL245878  25.126  21.292   6.150
 6816POPC   C1A45879  25.244  21.415   6.450
 6816POPC   D2A45880  25.289  21.412   6.750
 6816POPC   C3A45881  25.251  21.417   7.050
 6816POPC   C4A45882  25.240  21.359   7.350
 6816POPC   C1B45883  25.075  21.291   6.450
 6816POPC   C2B45884  25.027  21.248   6.750
 6816POPC   C3B45885  25.067  21.305   7.050
 6816POPC   C4B45886  25.068  21.309   7.350
 6817POPC   NC345887  29.181   5.891   5.550
 6817POPC   PO445888  29.101   5.835   5.850
 6817POPC   GL145889  29.125   5.844   6.150
 6817POPC   GL245890  29.236   5.771   6.150
 6817POPC   C1A45891  29.189   5.882   6.450
 6817POPC   D2A45892  29.168   5.895   6.750
 6817POPC   C3A45893  29.158   5.851   7.050
 6817POPC   C4A45894  29.103   5.827   7.350
 6817POPC   C1B45895  29.366   5.677   6.450
 6817POPC   C2B45896  29.305   5.684   6.750
 6817POPC   C3B45897  29.298   5.705   7.050
 6817POPC   C4B45898  29.322   5.663   7.350
 6818POPC   NC345899  38.408   4.331   5.550
 6818POPC   PO445900  38.411   4.351   5.850
 6818POPC   GL145901  38.488   4.366   6.150
 6818POPC   GL245902  38.415   4.392   6.150
 6818POPC   C1A45903  38.416   4.281   6.450
 6818POPC   D2A45904  38.503   4.323   6.750
 6818POPC   C3A45905  38.471   4.338   7.050
 6818POPC   C4A45906  38.453   4.356   7.350
 6818POPC   C1B45907  38.314   4.536   6.450
 6818POPC   C2B45908  38.270   4.516   6.750
 6818POPC   C3B45909  38.279   4.528   7.050
 6818POPC   C4B45910  38.302   4.564   7.350
 6819POPC   NC345911   1.228   8.168   5.550
 6819POPC   PO445912   1.246   8.230   5.850
 6819POPC   GL145913   1.257   8.234   6.150
 6819POPC   GL245914   1.353   8.126   6.150
 6819POPC   C1A45915   1.184   8.220   6.450
 6819POPC   D2A45916   1.169   8.221   6.750
 6819POPC   C3A45917   1.225   8.205   7.050
 6819POPC   C4A45918   1.227   8.208   7.350
 6819POPC   C1B45919   1.440   8.123   6.450
 6819POPC   C2B45920   1.418   8.077   6.750
 6819POPC   C3B45921   1.479   8.120   7.050
 6819POPC   C4B45922   1.442   8.043   7.350
 6820POPC   NC345923  42.348  22.954   5.550
 6820POPC   PO445924  42.326  22.927   5.850
 6820POPC   GL145925  42.372  22.933   6.150
 6820POPC   GL245926  42.339  22.824   6.150
 6820POPC   C1A45927  42.307  22.987   6.450
 6820POPC   D2A45928  42.301  22.923   6.750
 6820POPC   C3A45929  42.373  22.964   7.050
 6820POPC   C4A45930  42.310  22.981   7.350
 6820POPC   C1B45931  42.335  22.652   6.450
 6820POPC   C2B45932  42.376  22.679   6.750
 6820POPC   C3B45933  42.381  22.685   7.050
 6820POPC   C4B45934  42.423  22.699   7.350
 6821POPC   NC345935   8.179  33.023   5.550
 6821POPC   PO445936   8.213  33.021   5.850
 6821POPC   GL145937   8.214  33.028   6.150
 6821POPC   GL245938   8.131  33.008   6.150
 6821POPC   C1A45939   8.198  32.987   6.450
 6821POPC   D2A45940   8.208  33.019   6.750
 6821POPC   C3A45941   8.153  33.007   7.050
 6821POPC   C4A45942   8.147  33.005   7.350
 6821POPC   C1B45943   7.985  32.872   6.450
 6821POPC   C2B45944   7.997  32.888   6.750
 6821POPC   C3B45945   7.962  32.882   7.050
 6821POPC   C4B45946   8.023  32.860   7.350
 6822POPC   NC345947  40.041  26.053   5.550
 6822POPC   PO445948  39.996  26.079   5.850
 6822POPC   GL145949  39.968  26.012   6.150
 6822POPC   GL245950  40.036  25.970   6.150
 6822POPC   C1A45951  40.027  26.008   6.450
 6822POPC   D2A45952  40.025  26.028   6.750
 6822POPC   C3A45953  40.015  25.994   7.050
 6822POPC   C4A45954  40.051  26.073   7.350
 6822POPC   C1B45955  40.163  25.804   6.450
 6822POPC   C2B45956  40.142  25.869   6.750
 6822POPC   C3B45957  40.120  25.818   7.050
 6822POPC   C4B45958  40.155  25.791   7.350
 6823POPC   NC345959  11.320   2.021   5.550
 6823POPC   PO445960  11.316   2.035   5.850
 6823POPC   GL145961  11.258   2.029   6.150
 6823POPC   GL245962  11.426   1.983   6.150
 6823POPC   C1A45963  11.315   2.020   6.450
 6823POPC   D2A45964  11.301   1.979   6.750
 6823POPC   C3A45965  11.255   1.986   7.050
 6823POPC   C4A45966  11.302   1.962   7.350
 6823POPC   C1B45967  11.497   2.011   6.450
 6823POPC   C2B45968  11.504   2.020   6.750
 6823POPC   C3B45969  11.538   2.003   7.050
 6823POPC   C4B45970  11.576   2.042   7.350
 6824POPC   NC345971  11.305  40.828   5.550
 6824POPC   PO445972  11.250  40.805   5.850
 6824POPC   GL145973  11.336  40.759   6.150
 6824POPC   GL245974  11.165  40.710   6.150
 6824POPC   C1A45975  11.349  40.787   6.450
 6824POPC   D2A45976  11.282  40.826   6.750
 6824POPC   C3A45977  11.317  40.826   7.050
 6824POPC   C4A45978  11.319  40.784   7.350
 6824POPC   C1B45979  11.039  40.650   6.450
 6824POPC   C2B45980  11.050  40.621   6.750
 6824POPC   C3B45981  11.077  40.713   7.050
 6824POPC   C4B45982  11.111  40.705   7.350
 6825POPC   NC345983  32.265  40.028   5.550
 6825POPC   PO445984  32.290  39.994   5.850
 6825POPC   GL145985  32.256  40.040   6.150
 6825POPC   GL245986  32.383  40.086   6.150
 6825POPC   C1A45987  32.260  40.043   6.450
 6825POPC   D2A45988  32.265  40.018   6.750
 6825POPC   C3A45989  32.275  40.041   7.050
 6825POPC   C4A45990  32.289  40.014   7.350
 6825POPC   C1B45991  32.394  40.191   6.450
 6825POPC   C2B45992  32.456  40.213   6.750
 6825POPC   C3B45993  32.445  40.163   7.050
 6825POPC   C4B45994  32.395  40.148   7.350
 6826POPC   NC345995  29.904  25.259   5.550
 6826POPC   PO445996  29.961  25.243   5.850
 6826POPC   GL145997  29.933  25.239   6.150
 6826POPC   GL245998  29.834  25.262   6.150
 6826POPC   C1A45999  29.953  25.224   6.450
 6826POPC   D2A46000  29.898  25.229   6.750
 6826POPC   C3A46001  29.899  25.279   7.050
 6826POPC   C4A46002  29.941  25.304   7.350
 6826POPC   C1B46003  29.709  25.219   6.450
 6826POPC   C2B46004  29.696  25.162   6.750
 6826POPC   C3B46005  29.729  25.168   7.050
 6826POPC   C4B46006  29.676  25.175   7.350
 6827POPC   NC346007  42.369  21.430   5.550
 6827POPC   PO446008  42.331  21.376   5.850
 6827POPC   GL146009  42.380  21.425   6.150
 6827POPC   GL246010  42.246  21.293   6.150
 6827POPC   C1A46011  42.285  21.374   6.450
 6827POPC   D2A46012  42.318  21.365   6.750
 6827POPC   C3A46013  42.357  21.426   7.050
 6827POPC   C4A46014  42.301  21.340   7.350
 6827POPC   C1B46015  42.160  21.202   6.450
 6827POPC   C2B46016  42.181  21.216   6.750
 6827POPC   C3B46017  42.119  21.225   7.050
 6827POPC   C4B46018  42.170  21.187   7.350
 6828POPC   NC346019  23.705   8.202   5.550
 6828POPC   PO446020  23.743   8.215   5.850
 6828POPC   GL146021  23.694   8.240   6.150
 6828POPC   GL246022  23.653   8.055   6.150
 6828POPC   C1A46023  23.750   8.198   6.450
 6828POPC   D2A46024  23.727   8.188   6.750
 6828POPC   C3A46025  23.707   8.216   7.050
 6828POPC   C4A46026  23.686   8.199   7.350
 6828POPC   C1B46027  23.584   7.984   6.450
 6828POPC   C2B46028  23.539   8.037   6.750
 6828POPC   C3B46029  23.584   8.053   7.050
 6828POPC   C4B46030  23.543   8.007   7.350
 6829POPC   NC346031  36.861  17.480   5.550
 6829POPC   PO446032  36.943  17.496   5.850
 6829POPC   GL146033  36.949  17.532   6.150
 6829POPC   GL246034  36.859  17.570   6.150
 6829POPC   C1A46035  36.953  17.481   6.450
 6829POPC   D2A46036  36.945  17.503   6.750
 6829POPC   C3A46037  36.928  17.504   7.050
 6829POPC   C4A46038  36.912  17.499   7.350
 6829POPC   C1B46039  36.733  17.740   6.450
 6829POPC   C2B46040  36.770  17.762   6.750
 6829POPC   C3B46041  36.796  17.748   7.050
 6829POPC   C4B46042  36.746  17.733   7.350
 6830POPC   NC346043  29.166  30.740   5.550
 6830POPC   PO446044  29.114  30.740   5.850
 6830POPC   GL146045  29.187  30.702   6.150
 6830POPC   GL246046  29.201  30.804   6.150
 6830POPC   C1A46047  29.161  30.664   6.450
 6830POPC   D2A46048  29.126  30.736   6.750
 6830POPC   C3A46049  29.180  30.730   7.050
 6830POPC   C4A46050  29.180  30.671   7.350
 6830POPC   C1B46051  29.154  30.910   6.450
 6830POPC   C2B46052  29.134  30.937   6.750
 6830POPC   C3B46053  29.181  30.955   7.050
 6830POPC   C4B46054  29.206  30.949   7.350
 6831POPC   NC346055  26.808  20.652   5.550
 6831POPC   PO446056  26.855  20.646   5.850
 6831POPC   GL146057  26.833  20.593   6.150
 6831POPC   GL246058  26.862  20.467   6.150
 6831POPC   C1A46059  26.836  20.639   6.450
 6831POPC   D2A46060  26.865  20.645   6.750
 6831POPC   C3A46061  26.804  20.600   7.050
 6831POPC   C4A46062  26.847  20.611   7.350
 6831POPC   C1B46063  26.891  20.343   6.450
 6831POPC   C2B46064  26.935  20.404   6.750
 6831POPC   C3B46065  26.916  20.393   7.050
 6831POPC   C4B46066  26.955  20.376   7.350
 6832POPC   NC346067  26.053  27.551   5.550
 6832POPC   PO446068  26.044  27.570   5.850
 6832POPC   GL146069  26.019  27.637   6.150
 6832POPC   GL246070  26.023  27.756   6.150
 6832POPC   C1A46071  26.035  27.612   6.450
 6832POPC   D2A46072  26.053  27.563   6.750
 6832POPC   C3A46073  26.030  27.558   7.050
 6832POPC   C4A46074  26.039  27.642   7.350
 6832POPC   C1B46075  26.019  27.821   6.450
 6832POPC   C2B46076  26.033  27.887   6.750
 6832POPC   C3B46077  25.977  27.878   7.050
 6832POPC   C4B46078  26.053  27.886   7.350
 6833POPC   NC346079  22.194  11.290   5.550
 6833POPC   PO446080  22.126  11.325   5.850
 6833POPC   GL146081  22.198  11.273   6.150
 6833POPC   GL246082  22.311  11.264   6.150
 6833POPC   C1A46083  22.171  11.308   6.450
 6833POPC   D2A46084  22.208  11.297   6.750
 6833POPC   C3A46085  22.139  11.279   7.050
 6833POPC   C4A46086  22.113  11.315   7.350
 6833POPC   C1B46087  22.459  11.266   6.450
 6833POPC   C2B46088  22.388  11.264   6.750
 6833POPC   C3B46089  22.452  11.240   7.050
 6833POPC   C4B46090  22.450  11.242   7.350
 6834POPC   NC346091  14.438   2.017   5.550
 6834POPC   PO446092  14.396   2.033   5.850
 6834POPC   GL146093  14.357   1.959   6.150
 6834POPC   GL246094  14.375   1.822   6.150
 6834POPC   C1A46095  14.359   1.974   6.450
 6834POPC   D2A46096  14.358   2.001   6.750
 6834POPC   C3A46097  14.387   2.028   7.050
 6834POPC   C4A46098  14.379   1.964   7.350
 6834POPC   C1B46099  14.316   1.780   6.450
 6834POPC   C2B46100  14.347   1.758   6.750
 6834POPC   C3B46101  14.335   1.726   7.050
 6834POPC   C4B46102  14.384   1.703   7.350
 6835POPC   NC346103  33.826  27.605   5.550
 6835POPC   PO446104  33.796  27.576   5.850
 6835POPC   GL146105  33.835  27.620   6.150
 6835POPC   GL246106  33.916  27.621   6.150
 6835POPC   C1A46107  33.776  27.593   6.450
 6835POPC   D2A46108  33.777  27.557   6.750
 6835POPC   C3A46109  33.814  27.616   7.050
 6835POPC   C4A46110  33.830  27.582   7.350
 6835POPC   C1B46111  34.007  27.573   6.450
 6835POPC   C2B46112  34.018  27.562   6.750
 6835POPC   C3B46113  34.096  27.620   7.050
 6835POPC   C4B46114  34.027  27.611   7.350
 6836POPC   NC346115  20.579   2.742   5.550
 6836POPC   PO446116  20.622   2.780   5.850
 6836POPC   GL146117  20.591   2.791   6.150
 6836POPC   GL246118  20.531   2.861   6.150
 6836POPC   C1A46119  20.615   2.730   6.450
 6836POPC   D2A46120  20.611   2.770   6.750
 6836POPC   C3A46121  20.615   2.801   7.050
 6836POPC   C4A46122  20.594   2.778   7.350
 6836POPC   C1B46123  20.408   2.928   6.450
 6836POPC   C2B46124  20.370   2.957   6.750
 6836POPC   C3B46125  20.421   2.950   7.050
 6836POPC   C4B46126  20.368   2.876   7.350
 6837POPC   NC346127  44.677   8.987   5.550
 6837POPC   PO446128  44.640   8.957   5.850
 6837POPC   GL146129  44.665   8.992   6.150
 6837POPC   GL246130  44.519   8.960   6.150
 6837POPC   C1A46131  44.633   8.961   6.450
 6837POPC   D2A46132  44.686   8.932   6.750
 6837POPC   C3A46133  44.679   8.983   7.050
 6837POPC   C4A46134  44.635   8.968   7.350
 6837POPC   C1B46135  44.458   9.067   6.450
 6837POPC   C2B46136  44.414   9.062   6.750
 6837POPC   C3B46137  44.408   9.061   7.050
 6837POPC   C4B46138  44.383   9.037   7.350
 6838POPC   NC346139  39.966  15.988   5.550
 6838POPC   PO446140  39.984  15.962   5.850
 6838POPC   GL146141  40.022  15.937   6.150
 6838POPC   GL246142  40.056  15.919   6.150
 6838POPC   C1A46143  40.043  15.963   6.450
 6838POPC   D2A46144  39.961  15.956   6.750
 6838POPC   C3A46145  39.982  15.927   7.050
 6838POPC   C4A46146  39.979  15.937   7.350
 6838POPC   C1B46147  40.192  15.792   6.450
 6838POPC   C2B46148  40.238  15.816   6.750
 6838POPC   C3B46149  40.224  15.786   7.050
 6838POPC   C4B46150  40.150  15.821   7.350
 6839POPC   NC346151  16.716  10.563   5.550
 6839POPC   PO446152  16.701  10.520   5.850
 6839POPC   GL146153  16.708  10.488   6.150
 6839POPC   GL246154  16.577  10.492   6.150
 6839POPC   C1A46155  16.724  10.568   6.450
 6839POPC   D2A46156  16.706  10.568   6.750
 6839POPC   C3A46157  16.726  10.513   7.050
 6839POPC   C4A46158  16.716  10.558   7.350
 6839POPC   C1B46159  16.497  10.439   6.450
 6839POPC   C2B46160  16.513  10.427   6.750
 6839POPC   C3B46161  16.532  10.430   7.050
 6839POPC   C4B46162  16.510  10.432   7.350
 6840POPC   NC346163  17.488   9.739   5.550
 6840POPC   PO446164  17.479   9.757   5.850
 6840POPC   GL146165  17.530   9.768   6.150
 6840POPC   GL246166  17.372   9.741   6.150
 6840POPC   C1A46167  17.498   9.698   6.450
 6840POPC   D2A46168  17.500   9.785   6.750
 6840POPC   C3A46169  17.500   9.708   7.050
 6840POPC   C4A46170  17.535   9.734   7.350
 6840POPC   C1B46171  17.306   9.774   6.450
 6840POPC   C2B46172  17.285   9.774   6.750
 6840POPC   C3B46173  17.253   9.763   7.050
 6840POPC   C4B46174  17.241   9.790   7.350
 6841POPC   NC346175  34.561  22.169   5.550
 6841POPC   PO446176  34.620  22.156   5.850
 6841POPC   GL146177  34.590  22.174   6.150
 6841POPC   GL246178  34.583  22.241   6.150
 6841POPC   C1A46179  34.537  22.211   6.450
 6841POPC   D2A46180  34.592  22.179   6.750
 6841POPC   C3A46181  34.587  22.207   7.050
 6841POPC   C4A46182  34.545  22.165   7.350
 6841POPC   C1B46183  34.665  22.363   6.450
 6841POPC   C2B46184  34.640  22.365   6.750
 6841POPC   C3B46185  34.618  22.364   7.050
 6841POPC   C4B46186  34.606  22.424   7.350
 6842POPC   NC346187  19.842  33.839   5.550
 6842POPC   PO446188  19.820  33.783   5.850
 6842POPC   GL146189  19.879  33.757   6.150
 6842POPC   GL246190  19.712  33.798   6.150
 6842POPC   C1A46191  19.794  33.795   6.450
 6842POPC   D2A46192  19.817  33.829   6.750
 6842POPC   C3A46193  19.823  33.809   7.050
 6842POPC   C4A46194  19.828  33.840   7.350
 6842POPC   C1B46195  19.625  33.857   6.450
 6842POPC   C2B46196  19.542  33.836   6.750
 6842POPC   C3B46197  19.600  33.810   7.050
 6842POPC   C4B46198  19.595  33.823   7.350
 6843POPC   NC346199  10.539  12.805   5.550
 6843POPC   PO446200  10.500  12.884   5.850
 6843POPC   GL146201  10.477  12.884   6.150
 6843POPC   GL246202  10.403  12.835   6.150
 6843POPC   C1A46203  10.480  12.828   6.450
 6843POPC   D2A46204  10.569  12.837   6.750
 6843POPC   C3A46205  10.563  12.887   7.050
 6843POPC   C4A46206  10.533  12.809   7.350
 6843POPC   C1B46207  10.321  12.834   6.450
 6843POPC   C2B46208  10.311  12.883   6.750
 6843POPC   C3B46209  10.241  12.838   7.050
 6843POPC   C4B46210  10.267  12.867   7.350
 6844POPC   NC346211  26.827  26.808   5.550
 6844POPC   PO446212  26.782  26.775   5.850
 6844POPC   GL146213  26.813  26.867   6.150
 6844POPC   GL246214  26.705  26.882   6.150
 6844POPC   C1A46215  26.835  26.864   6.450
 6844POPC   D2A46216  26.776  26.831   6.750
 6844POPC   C3A46217  26.838  26.783   7.050
 6844POPC   C4A46218  26.815  26.813   7.350
 6844POPC   C1B46219  26.525  26.917   6.450
 6844POPC   C2B46220  26.539  26.916   6.750
 6844POPC   C3B46221  26.579  26.881   7.050
 6844POPC   C4B46222  26.555  26.821   7.350
 6845POPC   NC346223   7.467  19.853   5.550
 6845POPC   PO446224   7.384  19.832   5.850
 6845POPC   GL146225   7.374  19.877   6.150
 6845POPC   GL246226   7.512  19.904   6.150
 6845POPC   C1A46227   7.379  19.860   6.450
 6845POPC   D2A46228   7.464  19.865   6.750
 6845POPC   C3A46229   7.438  19.860   7.050
 6845POPC   C4A46230   7.412  19.832   7.350
 6845POPC   C1B46231   7.640  19.986   6.450
 6845POPC   C2B46232   7.610  19.927   6.750
 6845POPC   C3B46233   7.594  19.952   7.050
 6845POPC   C4B46234   7.645  19.975   7.350
 6846POPC   NC346235  42.366  29.160   5.550
 6846POPC   PO446236  42.323  29.109   5.850
 6846POPC   GL146237  42.288  29.097   6.150
 6846POPC   GL246238  42.297  28.997   6.150
 6846POPC   C1A46239  42.361  29.117   6.450
 6846POPC   D2A46240  42.356  29.167   6.750
 6846POPC   C3A46241  42.362  29.178   7.050
 6846POPC   C4A46242  42.356  29.131   7.350
 6846POPC   C1B46243  42.365  28.856   6.450
 6846POPC   C2B46244  42.346  28.887   6.750
 6846POPC   C3B46245  42.385  28.859   7.050
 6846POPC   C4B46246  42.377  28.925   7.350
 6847POPC   NC346247  32.260  33.820   5.550
 6847POPC   PO446248  32.294  33.814   5.850
 6847POPC   GL146249  32.246  33.840   6.150
 6847POPC   GL246250  32.313  33.737   6.150
 6847POPC   C1A46251  32.236  33.846   6.450
 6847POPC   D2A46252  32.298  33.811   6.750
 6847POPC   C3A46253  32.205  33.795   7.050
 6847POPC   C4A46254  32.210  33.772   7.350
 6847POPC   C1B46255  32.488  33.658   6.450
 6847POPC   C2B46256  32.423  33.614   6.750
 6847POPC   C3B46257  32.403  33.692   7.050
 6847POPC   C4B46258  32.404  33.677   7.350
 6848POPC   NC346259   0.461  34.616   5.550
 6848POPC   PO446260   0.436  34.612   5.850
 6848POPC   GL146261   0.412  34.528   6.150
 6848POPC   GL246262   0.462  34.447   6.150
 6848POPC   C1A46263   0.449  34.527   6.450
 6848POPC   D2A46264   0.415  34.597   6.750
 6848POPC   C3A46265   0.483  34.623   7.050
 6848POPC   C4A46266   0.454  34.608   7.350
 6848POPC   C1B46267   0.621  34.381   6.450
 6848POPC   C2B46268   0.622  34.392   6.750
 6848POPC   C3B46269   0.546  34.406   7.050
 6848POPC   C4B46270   0.600  34.414   7.350
 6849POPC   NC346271   9.014  36.874   5.550
 6849POPC   PO446272   9.019  36.862   5.850
 6849POPC   GL146273   8.929  36.929   6.150
 6849POPC   GL246274   8.883  36.750   6.150
 6849POPC   C1A46275   8.961  36.906   6.450
 6849POPC   D2A46276   8.962  36.946   6.750
 6849POPC   C3A46277   8.966  36.913   7.050
 6849POPC   C4A46278   8.924  36.912   7.350
 6849POPC   C1B46279   8.846  36.699   6.450
 6849POPC   C2B46280   8.793  36.734   6.750
 6849POPC   C3B46281   8.830  36.673   7.050
 6849POPC   C4B46282   8.836  36.651   7.350
 6850POPC   NC346283   4.360  35.351   5.550
 6850POPC   PO446284   4.365  35.361   5.850
 6850POPC   GL146285   4.345  35.375   6.150
 6850POPC   GL246286   4.432  35.383   6.150
 6850POPC   C1A46287   4.301  35.363   6.450
 6850POPC   D2A46288   4.269  35.382   6.750
 6850POPC   C3A46289   4.367  35.386   7.050
 6850POPC   C4A46290   4.367  35.378   7.350
 6850POPC   C1B46291   4.601  35.438   6.450
 6850POPC   C2B46292   4.550  35.445   6.750
 6850POPC   C3B46293   4.588  35.488   7.050
 6850POPC   C4B46294   4.593  35.431   7.350
 6851POPC   NC346295  20.574   5.087   5.550
 6851POPC   PO446296  20.568   5.140   5.850
 6851POPC   GL146297  20.598   5.084   6.150
 6851POPC   GL246298  20.680   5.167   6.150
 6851POPC   C1A46299  20.624   5.093   6.450
 6851POPC   D2A46300  20.609   5.052   6.750
 6851POPC   C3A46301  20.598   5.136   7.050
 6851POPC   C4A46302  20.600   5.093   7.350
 6851POPC   C1B46303  20.757   5.298   6.450
 6851POPC   C2B46304  20.781   5.292   6.750
 6851POPC   C3B46305  20.771   5.301   7.050
 6851POPC   C4B46306  20.774   5.272   7.350
 6852POPC   NC346307  40.809  19.033   5.550
 6852POPC   PO446308  40.790  19.045   5.850
 6852POPC   GL146309  40.807  19.011   6.150
 6852POPC   GL246310  40.684  18.991   6.150
 6852POPC   C1A46311  40.756  19.037   6.450
 6852POPC   D2A46312  40.810  19.047   6.750
 6852POPC   C3A46313  40.820  19.070   7.050
 6852POPC   C4A46314  40.739  19.035   7.350
 6852POPC   C1B46315  40.578  18.977   6.450
 6852POPC   C2B46316  40.563  18.992   6.750
 6852POPC   C3B46317  40.517  18.938   7.050
 6852POPC   C4B46318  40.524  18.954   7.350
 6853POPC   NC346319  39.279  15.224   5.550
 6853POPC   PO446320  39.252  15.206   5.850
 6853POPC   GL146321  39.234  15.218   6.150
 6853POPC   GL246322  39.273  15.270   6.150
 6853POPC   C1A46323  39.248  15.167   6.450
 6853POPC   D2A46324  39.240  15.188   6.750
 6853POPC   C3A46325  39.239  15.198   7.050
 6853POPC   C4A46326  39.261  15.132   7.350
 6853POPC   C1B46327  39.295  15.402   6.450
 6853POPC   C2B46328  39.273  15.417   6.750
 6853POPC   C3B46329  39.237  15.400   7.050
 6853POPC   C4B46330  39.226  15.393   7.350
 6854POPC   NC346331  43.934  19.866   5.550
 6854POPC   PO446332  43.840  19.873   5.850
 6854POPC   GL146333  43.869  19.796   6.150
 6854POPC   GL246334  44.038  19.845   6.150
 6854POPC   C1A46335  43.848  19.860   6.450
 6854POPC   D2A46336  43.856  19.803   6.750
 6854POPC   C3A46337  43.911  19.812   7.050
 6854POPC   C4A46338  43.899  19.829   7.350
 6854POPC   C1B46339  44.082  19.932   6.450
 6854POPC   C2B46340  44.140  19.877   6.750
 6854POPC   C3B46341  44.154  19.883   7.050
 6854POPC   C4B46342  44.100  19.866   7.350
 6855POPC   NC346343  28.333   5.866   5.550
 6855POPC   PO446344  28.342   5.903   5.850
 6855POPC   GL146345  28.361   5.837   6.150
 6855POPC   GL246346  28.537   5.862   6.150
 6855POPC   C1A46347  28.354   5.895   6.450
 6855POPC   D2A46348  28.357   5.877   6.750
 6855POPC   C3A46349  28.379   5.910   7.050
 6855POPC   C4A46350  28.354   5.820   7.350
 6855POPC   C1B46351  28.602   5.817   6.450
 6855POPC   C2B46352  28.610   5.830   6.750
 6855POPC   C3B46353  28.631   5.854   7.050
 6855POPC   C4B46354  28.657   5.793   7.350
 6856POPC   NC346355  28.331  22.896   5.550
 6856POPC   PO446356  28.381  22.913   5.850
 6856POPC   GL146357  28.343  22.888   6.150
 6856POPC   GL246358  28.404  23.003   6.150
 6856POPC   C1A46359  28.351  22.928   6.450
 6856POPC   D2A46360  28.354  22.907   6.750
 6856POPC   C3A46361  28.354  22.954   7.050
 6856POPC   C4A46362  28.323  22.939   7.350
 6856POPC   C1B46363  28.500  23.171   6.450
 6856POPC   C2B46364  28.503  23.091   6.750
 6856POPC   C3B46365  28.540  23.138   7.050
 6856POPC   C4B46366  28.488  23.155   7.350
 6857POPC   NC346367  35.361   7.466   5.550
 6857POPC   PO446368  35.365   7.411   5.850
 6857POPC   GL146369  35.371   7.404   6.150
 6857POPC   GL246370  35.284   7.342   6.150
 6857POPC   C1A46371  35.384   7.400   6.450
 6857POPC   D2A46372  35.371   7.446   6.750
 6857POPC   C3A46373  35.316   7.425   7.050
 6857POPC   C4A46374  35.387   7.375   7.350
 6857POPC   C1B46375  35.279   7.198   6.450
 6857POPC   C2B46376  35.305   7.209   6.750
 6857POPC   C3B46377  35.228   7.137   7.050
 6857POPC   C4B46378  35.259   7.180   7.350
 6858POPC   NC346379  28.400  30.742   5.550
 6858POPC   PO446380  28.357  30.651   5.850
 6858POPC   GL146381  28.365  30.703   6.150
 6858POPC   GL246382  28.453  30.685   6.150
 6858POPC   C1A46383  28.373  30.667   6.450
 6858POPC   D2A46384  28.393  30.691   6.750
 6858POPC   C3A46385  28.388  30.716   7.050
 6858POPC   C4A46386  28.341  30.746   7.350
 6858POPC   C1B46387  28.579  30.722   6.450
 6858POPC   C2B46388  28.585  30.742   6.750
 6858POPC   C3B46389  28.636  30.793   7.050
 6858POPC   C4B46390  28.625  30.722   7.350
 6859POPC   NC346391  20.589  22.971   5.550
 6859POPC   PO446392  20.598  22.911   5.850
 6859POPC   GL146393  20.585  22.891   6.150
 6859POPC   GL246394  20.549  22.831   6.150
 6859POPC   C1A46395  20.639  22.896   6.450
 6859POPC   D2A46396  20.659  22.979   6.750
 6859POPC   C3A46397  20.565  22.937   7.050
 6859POPC   C4A46398  20.609  22.892   7.350
 6859POPC   C1B46399  20.539  22.670   6.450
 6859POPC   C2B46400  20.513  22.730   6.750
 6859POPC   C3B46401  20.599  22.656   7.050
 6859POPC   C4B46402  20.582  22.663   7.350
 6860POPC   NC346403  12.116  15.171   5.550
 6860POPC   PO446404  12.086  15.208   5.850
 6860POPC   GL146405  12.083  15.205   6.150
 6860POPC   GL246406  12.179  15.161   6.150
 6860POPC   C1A46407  12.060  15.146   6.450
 6860POPC   D2A46408  12.058  15.174   6.750
 6860POPC   C3A46409  12.052  15.207   7.050
 6860POPC   C4A46410  12.121  15.222   7.350
 6860POPC   C1B46411  12.270  15.092   6.450
 6860POPC   C2B46412  12.269  15.138   6.750
 6860POPC   C3B46413  12.287  15.076   7.050
 6860POPC   C4B46414  12.331  15.108   7.350
 6861POPC   NC346415  27.612  12.043   5.550
 6861POPC   PO446416  27.597  12.056   5.850
 6861POPC   GL146417  27.637  12.099   6.150
 6861POPC   GL246418  27.628  11.922   6.150
 6861POPC   C1A46419  27.555  12.125   6.450
 6861POPC   D2A46420  27.572  12.031   6.750
 6861POPC   C3A46421  27.623  12.028   7.050
 6861POPC   C4A46422  27.641  12.126   7.350
 6861POPC   C1B46423  27.638  11.784   6.450
 6861POPC   C2B46424  27.631  11.875   6.750
 6861POPC   C3B46425  27.637  11.811   7.050
 6861POPC   C4B46426  27.642  11.860   7.350
 6862POPC   NC346427  20.630   3.523   5.550
 6862POPC   PO446428  20.620   3.568   5.850
 6862POPC   GL146429  20.600   3.498   6.150
 6862POPC   GL246430  20.605   3.408   6.150
 6862POPC   C1A46431  20.570   3.536   6.450
 6862POPC   D2A46432  20.640   3.567   6.750
 6862POPC   C3A46433  20.576   3.513   7.050
 6862POPC   C4A46434  20.645   3.515   7.350
 6862POPC   C1B46435  20.552   3.328   6.450
 6862POPC   C2B46436  20.642   3.337   6.750
 6862POPC   C3B46437  20.642   3.296   7.050
 6862POPC   C4B46438  20.571   3.341   7.350
 6863POPC   NC346439  31.433  10.569   5.550
 6863POPC   PO446440  31.479  10.485   5.850
 6863POPC   GL146441  31.515  10.518   6.150
 6863POPC   GL246442  31.315  10.497   6.150
 6863POPC   C1A46443  31.478  10.534   6.450
 6863POPC   D2A46444  31.468  10.506   6.750
 6863POPC   C3A46445  31.472  10.490   7.050
 6863POPC   C4A46446  31.425  10.499   7.350
 6863POPC   C1B46447  31.240  10.479   6.450
 6863POPC   C2B46448  31.269  10.452   6.750
 6863POPC   C3B46449  31.243  10.505   7.050
 6863POPC   C4B46450  31.195  10.495   7.350
 6864POPC   NC346451  34.588  33.772   5.550
 6864POPC   PO446452  34.620  33.788   5.850
 6864POPC   GL146453  34.621  33.770   6.150
 6864POPC   GL246454  34.602  33.903   6.150
 6864POPC   C1A46455  34.612  33.786   6.450
 6864POPC   D2A46456  34.571  33.838   6.750
 6864POPC   C3A46457  34.584  33.835   7.050
 6864POPC   C4A46458  34.594  33.769   7.350
 6864POPC   C1B46459  34.618  34.041   6.450
 6864POPC   C2B46460  34.605  34.097   6.750
 6864POPC   C3B46461  34.542  34.005   7.050
 6864POPC   C4B46462  34.627  34.096   7.350
 6865POPC   NC346463   6.678  36.122   5.550
 6865POPC   PO446464   6.598  36.177   5.850
 6865POPC   GL146465   6.623  36.174   6.150
 6865POPC   GL246466   6.695  36.007   6.150
 6865POPC   C1A46467   6.613  36.164   6.450
 6865POPC   D2A46468   6.690  36.094   6.750
 6865POPC   C3A46469   6.688  36.098   7.050
 6865POPC   C4A46470   6.632  36.168   7.350
 6865POPC   C1B46471   6.784  35.941   6.450
 6865POPC   C2B46472   6.716  35.941   6.750
 6865POPC   C3B46473   6.758  35.886   7.050
 6865POPC   C4B46474   6.712  35.940   7.350
 6866POPC   NC346475  28.323  28.410   5.550
 6866POPC   PO446476  28.329  28.377   5.850
 6866POPC   GL146477  28.322  28.323   6.150
 6866POPC   GL246478  28.431  28.225   6.150
 6866POPC   C1A46479  28.324  28.375   6.450
 6866POPC   D2A46480  28.331  28.338   6.750
 6866POPC   C3A46481  28.337  28.402   7.050
 6866POPC   C4A46482  28.379  28.391   7.350
 6866POPC   C1B46483  28.534  28.162   6.450
 6866POPC   C2B46484  28.492  28.170   6.750
 6866POPC   C3B46485  28.494  28.184   7.050
 6866POPC   C4B46486  28.546  28.201   7.350
 6867POPC   NC346487  24.528   1.261   5.550
 6867POPC   PO446488  24.520   1.234   5.850
 6867POPC   GL146489  24.450   1.181   6.150
 6867POPC   GL246490  24.545   1.129   6.150
 6867POPC   C1A46491  24.475   1.247   6.450
 6867POPC   D2A46492  24.477   1.230   6.750
 6867POPC   C3A46493  24.495   1.262   7.050
 6867POPC   C4A46494  24.470   1.213   7.350
 6867POPC   C1B46495  24.535   0.924   6.450
 6867POPC   C2B46496  24.495   0.979   6.750
 6867POPC   C3B46497  24.484   0.952   7.050
 6867POPC   C4B46498  24.501   0.970   7.350
 6868POPC   NC346499  43.108  40.803   5.550
 6868POPC   PO446500  43.081  40.823   5.850
 6868POPC   GL146501  43.090  40.792   6.150
 6868POPC   GL246502  43.269  40.790   6.150
 6868POPC   C1A46503  43.097  40.796   6.450
 6868POPC   D2A46504  43.135  40.778   6.750
 6868POPC   C3A46505  43.146  40.781   7.050
 6868POPC   C4A46506  43.120  40.760   7.350
 6868POPC   C1B46507  43.310  40.891   6.450
 6868POPC   C2B46508  43.314  40.921   6.750
 6868POPC   C3B46509  43.353  40.897   7.050
 6868POPC   C4B46510  43.354  40.846   7.350
 6869POPC   NC346511  33.769  16.741   5.550
 6869POPC   PO446512  33.794  16.722   5.850
 6869POPC   GL146513  33.779  16.736   6.150
 6869POPC   GL246514  33.930  16.837   6.150
 6869POPC   C1A46515  33.774  16.697   6.450
 6869POPC   D2A46516  33.774  16.737   6.750
 6869POPC   C3A46517  33.757  16.736   7.050
 6869POPC   C4A46518  33.810  16.765   7.350
 6869POPC   C1B46519  33.955  16.920   6.450
 6869POPC   C2B46520  33.958  16.901   6.750
 6869POPC   C3B46521  33.996  16.906   7.050
 6869POPC   C4B46522  33.966  16.875   7.350
 6870POPC   NC346523  29.902  43.927   5.550
 6870POPC   PO446524  29.970  43.919   5.850
 6870POPC   GL146525  29.928  43.909   6.150
 6870POPC   GL246526  29.845  43.893   6.150
 6870POPC   C1A46527  29.943  43.855   6.450
 6870POPC   D2A46528  29.920  43.857   6.750
 6870POPC   C3A46529  29.894  43.883   7.050
 6870POPC   C4A46530  29.925  43.840   7.350
 6870POPC   C1B46531  29.666  43.913   6.450
 6870POPC   C2B46532  29.709  43.940   6.750
 6870POPC   C3B46533  29.650  43.880   7.050
 6870POPC   C4B46534  29.645  43.904   7.350
 6871POPC   NC346535  36.880  43.156   5.550
 6871POPC   PO446536  36.948  43.146   5.850
 6871POPC   GL146537  36.933  43.121   6.150
 6871POPC   GL246538  36.765  43.103   6.150
 6871POPC   C1A46539  36.922  43.125   6.450
 6871POPC   D2A46540  36.855  43.156   6.750
 6871POPC   C3A46541  36.860  43.074   7.050
 6871POPC   C4A46542  36.942  43.105   7.350
 6871POPC   C1B46543  36.670  43.183   6.450
 6871POPC   C2B46544  36.688  43.210   6.750
 6871POPC   C3B46545  36.616  43.129   7.050
 6871POPC   C4B46546  36.697  43.163   7.350
 6872POPC   NC346547  30.686  39.243   5.550
 6872POPC   PO446548  30.682  39.253   5.850
 6872POPC   GL146549  30.746  39.199   6.150
 6872POPC   GL246550  30.606  39.310   6.150
 6872POPC   C1A46551  30.711  39.222   6.450
 6872POPC   D2A46552  30.698  39.276   6.750
 6872POPC   C3A46553  30.663  39.278   7.050
 6872POPC   C4A46554  30.669  39.260   7.350
 6872POPC   C1B46555  30.505  39.383   6.450
 6872POPC   C2B46556  30.509  39.400   6.750
 6872POPC   C3B46557  30.468  39.371   7.050
 6872POPC   C4B46558  30.531  39.341   7.350
 6873POPC   NC346559   8.221  19.856   5.550
 6873POPC   PO446560   8.150  19.867   5.850
 6873POPC   GL146561   8.192  19.842   6.150
 6873POPC   GL246562   8.238  19.942   6.150
 6873POPC   C1A46563   8.157  19.859   6.450
 6873POPC   D2A46564   8.149  19.883   6.750
 6873POPC   C3A46565   8.173  19.875   7.050
 6873POPC   C4A46566   8.187  19.823   7.350
 6873POPC   C1B46567   8.359  20.013   6.450
 6873POPC   C2B46568   8.400  20.021   6.750
 6873POPC   C3B46569   8.414  19.984   7.050
 6873POPC   C4B46570   8.374  19.982   7.350
 6874POPC   NC346571  31.463  17.505   5.550
 6874POPC   PO446572  31.455  17.499   5.850
 6874POPC   GL146573  31.515  17.498   6.150
 6874POPC   GL246574  31.410  17.604   6.150
 6874POPC   C1A46575  31.521  17.468   6.450
 6874POPC   D2A46576  31.460  17.481   6.750
 6874POPC   C3A46577  31.519  17.520   7.050
 6874POPC   C4A46578  31.452  17.495   7.350
 6874POPC   C1B46579  31.302  17.675   6.450
 6874POPC   C2B46580  31.324  17.673   6.750
 6874POPC   C3B46581  31.313  17.726   7.050
 6874POPC   C4B46582  31.283  17.729   7.350
 6875POPC   NC346583   2.777   9.756   5.550
 6875POPC   PO446584   2.807   9.717   5.850
 6875POPC   GL146585   2.740   9.774   6.150
 6875POPC   GL246586   2.823   9.647   6.150
 6875POPC   C1A46587   2.805   9.719   6.450
 6875POPC   D2A46588   2.758   9.717   6.750
 6875POPC   C3A46589   2.805   9.736   7.050
 6875POPC   C4A46590   2.723   9.755   7.350
 6875POPC   C1B46591   2.939   9.565   6.450
 6875POPC   C2B46592   2.931   9.637   6.750
 6875POPC   C3B46593   3.007   9.615   7.050
 6875POPC   C4B46594   2.952   9.595   7.350
 6876POPC   NC346595   7.459   2.740   5.550
 6876POPC   PO446596   7.401   2.723   5.850
 6876POPC   GL146597   7.449   2.787   6.150
 6876POPC   GL246598   7.542   2.890   6.150
 6876POPC   C1A46599   7.404   2.740   6.450
 6876POPC   D2A46600   7.469   2.788   6.750
 6876POPC   C3A46601   7.394   2.744   7.050
 6876POPC   C4A46602   7.376   2.743   7.350
 6876POPC   C1B46603   7.605   2.975   6.450
 6876POPC   C2B46604   7.576   2.996   6.750
 6876POPC   C3B46605   7.594   2.929   7.050
 6876POPC   C4B46606   7.580   2.920   7.350
 6877POPC   NC346607  27.569  33.830   5.550
 6877POPC   PO446608  27.642  33.768   5.850
 6877POPC   GL146609  27.614  33.847   6.150
 6877POPC   GL246610  27.662  33.891   6.150
 6877POPC   C1A46611  27.607  33.788   6.450
 6877POPC   D2A46612  27.589  33.815   6.750
 6877POPC   C3A46613  27.615  33.840   7.050
 6877POPC   C4A46614  27.543  33.793   7.350
 6877POPC   C1B46615  27.637  34.038   6.450
 6877POPC   C2B46616  27.673  34.046   6.750
 6877POPC   C3B46617  27.690  34.056   7.050
 6877POPC   C4B46618  27.691  34.080   7.350
 6878POPC   NC346619  30.671  41.540   5.550
 6878POPC   PO446620  30.673  41.595   5.850
 6878POPC   GL146621  30.746  41.515   6.150
 6878POPC   GL246622  30.623  41.616   6.150
 6878POPC   C1A46623  30.671  41.517   6.450
 6878POPC   D2A46624  30.719  41.598   6.750
 6878POPC   C3A46625  30.699  41.583   7.050
 6878POPC   C4A46626  30.699  41.526   7.350
 6878POPC   C1B46627  30.576  41.786   6.450
 6878POPC   C2B46628  30.588  41.815   6.750
 6878POPC   C3B46629  30.574  41.740   7.050
 6878POPC   C4B46630  30.520  41.778   7.350
 6879POPC   NC346631  19.811   4.362   5.550
 6879POPC   PO446632  19.806   4.285   5.850
 6879POPC   GL146633  19.863   4.342   6.150
 6879POPC   GL246634  19.788   4.414   6.150
 6879POPC   C1A46635  19.787   4.346   6.450
 6879POPC   D2A46636  19.846   4.309   6.750
 6879POPC   C3A46637  19.836   4.288   7.050
 6879POPC   C4A46638  19.823   4.287   7.350
 6879POPC   C1B46639  19.717   4.525   6.450
 6879POPC   C2B46640  19.775   4.582   6.750
 6879POPC   C3B46641  19.783   4.535   7.050
 6879POPC   C4B46642  19.714   4.505   7.350
 6880POPC   NC346643   1.180  29.941   5.550
 6880POPC   PO446644   1.243  29.885   5.850
 6880POPC   GL146645   1.235  29.929   6.150
 6880POPC   GL246646   1.302  29.970   6.150
 6880POPC   C1A46647   1.179  29.898   6.450
 6880POPC   D2A46648   1.239  29.930   6.750
 6880POPC   C3A46649   1.233  29.893   7.050
 6880POPC   C4A46650   1.189  29.968   7.350
 6880POPC   C1B46651   1.433  29.932   6.450
 6880POPC   C2B46652   1.446  29.919   6.750
 6880POPC   C3B46653   1.493  29.904   7.050
 6880POPC   C4B46654   1.432  29.941   7.350
 6881POPC   NC346655  23.727   7.372   5.550
 6881POPC   PO446656  23.719   7.371   5.850
 6881POPC   GL146657  23.679   7.443   6.150
 6881POPC   GL246658  23.712   7.557   6.150
 6881POPC   C1A46659  23.666   7.438   6.450
 6881POPC   D2A46660  23.671   7.440   6.750
 6881POPC   C3A46661  23.757   7.375   7.050
 6881POPC   C4A46662  23.730   7.439   7.350
 6881POPC   C1B46663  23.593   7.667   6.450
 6881POPC   C2B46664  23.590   7.606   6.750
 6881POPC   C3B46665  23.609   7.612   7.050
 6881POPC   C4B46666  23.618   7.705   7.350
 6882POPC   NC346667  13.612  44.680   5.550
 6882POPC   PO446668  13.628  44.708   5.850
 6882POPC   GL146669  13.616  44.702   6.150
 6882POPC   GL246670  13.758  44.610   6.150
 6882POPC   C1A46671  13.660  44.658   6.450
 6882POPC   D2A46672  13.597  44.671   6.750
 6882POPC   C3A46673  13.619  44.693   7.050
 6882POPC   C4A46674  13.669  44.662   7.350
 6882POPC   C1B46675  13.800  44.539   6.450
 6882POPC   C2B46676  13.814  44.548   6.750
 6882POPC   C3B46677  13.838  44.544   7.050
 6882POPC   C4B46678  13.818  44.581   7.350
 6883POPC   NC346679   2.724  38.428   5.550
 6883POPC   PO446680   2.790  38.421   5.850
 6883POPC   GL146681   2.734  38.419   6.150
 6883POPC   GL246682   2.885  38.402   6.150
 6883POPC   C1A46683   2.789  38.430   6.450
 6883POPC   D2A46684   2.787  38.415   6.750
 6883POPC   C3A46685   2.758  38.496   7.050
 6883POPC   C4A46686   2.718  38.410   7.350
 6883POPC   C1B46687   2.997  38.372   6.450
 6883POPC   C2B46688   2.969  38.363   6.750
 6883POPC   C3B46689   2.996  38.370   7.050
 6883POPC   C4B46690   2.967  38.369   7.350
 6884POPC   NC346691  39.185  23.738   5.550
 6884POPC   PO446692  39.211  23.728   5.850
 6884POPC   GL146693  39.241  23.722   6.150
 6884POPC   GL246694  39.360  23.793   6.150
 6884POPC   C1A46695  39.215  23.734   6.450
 6884POPC   D2A46696  39.184  23.732   6.750
 6884POPC   C3A46697  39.203  23.726   7.050
 6884POPC   C4A46698  39.193  23.689   7.350
 6884POPC   C1B46699  39.344  23.905   6.450
 6884POPC   C2B46700  39.375  23.955   6.750
 6884POPC   C3B46701  39.435  23.920   7.050
 6884POPC   C4B46702  39.434  23.858   7.350
 6885POPC   NC346703  40.780  10.495   5.550
 6885POPC   PO446704  40.795  10.508   5.850
 6885POPC   GL146705  40.738  10.478   6.150
 6885POPC   GL246706  40.852  10.666   6.150
 6885POPC   C1A46707  40.763  10.542   6.450
 6885POPC   D2A46708  40.770  10.555   6.750
 6885POPC   C3A46709  40.745  10.553   7.050
 6885POPC   C4A46710  40.774  10.561   7.350
 6885POPC   C1B46711  40.817  10.737   6.450
 6885POPC   C2B46712  40.834  10.773   6.750
 6885POPC   C3B46713  40.799  10.807   7.050
 6885POPC   C4B46714  40.803  10.807   7.350
 6886POPC   NC346715  27.574  39.255   5.550
 6886POPC   PO446716  27.618  39.247   5.850
 6886POPC   GL146717  27.636  39.246   6.150
 6886POPC   GL246718  27.743  39.156   6.150
 6886POPC   C1A46719  27.548  39.207   6.450
 6886POPC   D2A46720  27.625  39.210   6.750
 6886POPC   C3A46721  27.545  39.204   7.050
 6886POPC   C4A46722  27.568  39.205   7.350
 6886POPC   C1B46723  27.867  39.166   6.450
 6886POPC   C2B46724  27.770  39.125   6.750
 6886POPC   C3B46725  27.796  39.112   7.050
 6886POPC   C4B46726  27.783  39.090   7.350
 6887POPC   NC346727  43.119  13.653   5.550
 6887POPC   PO446728  43.115  13.603   5.850
 6887POPC   GL146729  43.078  13.642   6.150
 6887POPC   GL246730  43.002  13.549   6.150
 6887POPC   C1A46731  43.135  13.615   6.450
 6887POPC   D2A46732  43.139  13.663   6.750
 6887POPC   C3A46733  43.133  13.662   7.050
 6887POPC   C4A46734  43.099  13.592   7.350
 6887POPC   C1B46735  42.852  13.528   6.450
 6887POPC   C2B46736  42.862  13.479   6.750
 6887POPC   C3B46737  42.866  13.483   7.050
 6887POPC   C4B46738  42.924  13.507   7.350
 6888POPC   NC346739   9.704  19.799   5.550
 6888POPC   PO446740   9.792  19.863   5.850
 6888POPC   GL146741   9.795  19.875   6.150
 6888POPC   GL246742   9.793  19.743   6.150
 6888POPC   C1A46743   9.736  19.806   6.450
 6888POPC   D2A46744   9.737  19.877   6.750
 6888POPC   C3A46745   9.729  19.844   7.050
 6888POPC   C4A46746   9.716  19.848   7.350
 6888POPC   C1B46747   9.823  19.573   6.450
 6888POPC   C2B46748   9.777  19.556   6.750
 6888POPC   C3B46749   9.782  19.636   7.050
 6888POPC   C4B46750   9.790  19.574   7.350
 6889POPC   NC346751  25.277   1.956   5.550
 6889POPC   PO446752  25.282   1.967   5.850
 6889POPC   GL146753  25.217   1.975   6.150
 6889POPC   GL246754  25.226   1.929   6.150
 6889POPC   C1A46755  25.258   1.951   6.450
 6889POPC   D2A46756  25.262   2.014   6.750
 6889POPC   C3A46757  25.234   1.942   7.050
 6889POPC   C4A46758  25.285   1.976   7.350
 6889POPC   C1B46759  25.152   1.733   6.450
 6889POPC   C2B46760  25.082   1.821   6.750
 6889POPC   C3B46761  25.151   1.751   7.050
 6889POPC   C4B46762  25.093   1.817   7.350
 6890POPC   NC346763  34.542  34.529   5.550
 6890POPC   PO446764  34.585  34.532   5.850
 6890POPC   GL146765  34.539  34.616   6.150
 6890POPC   GL246766  34.498  34.661   6.150
 6890POPC   C1A46767  34.622  34.527   6.450
 6890POPC   D2A46768  34.595  34.579   6.750
 6890POPC   C3A46769  34.611  34.596   7.050
 6890POPC   C4A46770  34.571  34.587   7.350
 6890POPC   C1B46771  34.319  34.689   6.450
 6890POPC   C2B46772  34.376  34.703   6.750
 6890POPC   C3B46773  34.297  34.705   7.050
 6890POPC   C4B46774  34.308  34.670   7.350
 6891POPC   NC346775  31.506  35.314   5.550
 6891POPC   PO446776  31.437  35.382   5.850
 6891POPC   GL146777  31.475  35.381   6.150
 6891POPC   GL246778  31.344  35.467   6.150
 6891POPC   C1A46779  31.449  35.344   6.450
 6891POPC   D2A46780  31.502  35.371   6.750
 6891POPC   C3A46781  31.456  35.308   7.050
 6891POPC   C4A46782  31.511  35.340   7.350
 6891POPC   C1B46783  31.313  35.577   6.450
 6891POPC   C2B46784  31.257  35.516   6.750
 6891POPC   C3B46785  31.267  35.544   7.050
 6891POPC   C4B46786  31.310  35.566   7.350
 6892POPC   NC346787   5.060  29.105   5.550
 6892POPC   PO446788   5.103  29.179   5.850
 6892POPC   GL146789   5.087  29.128   6.150
 6892POPC   GL246790   5.055  29.236   6.150
 6892POPC   C1A46791   5.095  29.182   6.450
 6892POPC   D2A46792   5.130  29.105   6.750
 6892POPC   C3A46793   5.075  29.151   7.050
 6892POPC   C4A46794   5.101  29.188   7.350
 6892POPC   C1B46795   5.082  29.397   6.450
 6892POPC   C2B46796   5.114  29.405   6.750
 6892POPC   C3B46797   5.095  29.403   7.050
 6892POPC   C4B46798   5.058  29.423   7.350
 6893POPC   NC346799  40.803  25.293   5.550
 6893POPC   PO446800  40.779  25.217   5.850
 6893POPC   GL146801  40.803  25.226   6.150
 6893POPC   GL246802  40.899  25.253   6.150
 6893POPC   C1A46803  40.802  25.253   6.450
 6893POPC   D2A46804  40.777  25.254   6.750
 6893POPC   C3A46805  40.779  25.218   7.050
 6893POPC   C4A46806  40.801  25.252   7.350
 6893POPC   C1B46807  40.955  25.184   6.450
 6893POPC   C2B46808  41.027  25.130   6.750
 6893POPC   C3B46809  40.963  25.126   7.050
 6893POPC   C4B46810  40.967  25.096   7.350
 6894POPC   NC346811  40.747  13.602   5.550
 6894POPC   PO446812  40.813  13.649   5.850
 6894POPC   GL146813  40.754  13.617   6.150
 6894POPC   GL246814  40.911  13.640   6.150
 6894POPC   C1A46815  40.811  13.608   6.450
 6894POPC   D2A46816  40.752  13.640   6.750
 6894POPC   C3A46817  40.772  13.648   7.050
 6894POPC   C4A46818  40.785  13.643   7.350
 6894POPC   C1B46819  41.044  13.787   6.450
 6894POPC   C2B46820  41.014  13.753   6.750
 6894POPC   C3B46821  40.997  13.719   7.050
 6894POPC   C4B46822  41.006  13.782   7.350
 6895POPC   NC346823   8.945  40.739   5.550
 6895POPC   PO446824   9.014  40.754   5.850
 6895POPC   GL146825   8.940  40.809   6.150
 6895POPC   GL246826   9.032  40.864   6.150
 6895POPC   C1A46827   9.001  40.770   6.450
 6895POPC   D2A46828   8.995  40.771   6.750
 6895POPC   C3A46829   9.012  40.777   7.050
 6895POPC   C4A46830   8.982  40.822   7.350
 6895POPC   C1B46831   9.047  41.013   6.450
 6895POPC   C2B46832   9.096  41.064   6.750
 6895POPC   C3B46833   9.076  40.978   7.050
 6895POPC   C4B46834   9.043  41.054   7.350
 6896POPC   NC346835  36.143  42.315   5.550
 6896POPC   PO446836  36.122  42.307   5.850
 6896POPC   GL146837  36.128  42.359   6.150
 6896POPC   GL246838  36.147  42.214   6.150
 6896POPC   C1A46839  36.110  42.346   6.450
 6896POPC   D2A46840  36.144  42.382   6.750
 6896POPC   C3A46841  36.161  42.382   7.050
 6896POPC   C4A46842  36.091  42.344   7.350
 6896POPC   C1B46843  36.286  42.093   6.450
 6896POPC   C2B46844  36.248  42.149   6.750
 6896POPC   C3B46845  36.246  42.145   7.050
 6896POPC   C4B46846  36.188  42.123   7.350
 6897POPC   NC346847  24.510  31.456   5.550
 6897POPC   PO446848  24.446  31.483   5.850
 6897POPC   GL146849  24.499  31.485   6.150
 6897POPC   GL246850  24.485  31.618   6.150
 6897POPC   C1A46851  24.487  31.485   6.450
 6897POPC   D2A46852  24.512  31.426   6.750
 6897POPC   C3A46853  24.492  31.447   7.050
 6897POPC   C4A46854  24.447  31.450   7.350
 6897POPC   C1B46855  24.344  31.734   6.450
 6897POPC   C2B46856  24.421  31.706   6.750
 6897POPC   C3B46857  24.422  31.691   7.050
 6897POPC   C4B46858  24.375  31.744   7.350
 6898POPC   NC346859   7.371  44.691   5.550
 6898POPC   PO446860   7.452  44.646   5.850
 6898POPC   GL146861   7.413  44.648   6.150
 6898POPC   GL246862   7.563  44.559   6.150
 6898POPC   C1A46863   7.439  44.643   6.450
 6898POPC   D2A46864   7.380  44.683   6.750
 6898POPC   C3A46865   7.402  44.677   7.050
 6898POPC   C4A46866   7.425  44.616   7.350
 6898POPC   C1B46867   7.663  44.487   6.450
 6898POPC   C2B46868   7.604  44.547   6.750
 6898POPC   C3B46869   7.601  44.508   7.050
 6898POPC   C4B46870   7.658  44.467   7.350
 6899POPC   NC346871  40.014  26.808   5.550
 6899POPC   PO446872  40.035  26.787   5.850
 6899POPC   GL146873  40.011  26.857   6.150
 6899POPC   GL246874  39.967  26.977   6.150
 6899POPC   C1A46875  39.979  26.785   6.450
 6899POPC   D2A46876  40.016  26.814   6.750
 6899POPC   C3A46877  39.984  26.811   7.050
 6899POPC   C4A46878  40.056  26.856   7.350
 6899POPC   C1B46879  39.907  27.046   6.450
 6899POPC   C2B46880  39.926  27.104   6.750
 6899POPC   C3B46881  39.934  27.036   7.050
 6899POPC   C4B46882  39.992  27.074   7.350
 6900POPC   NC346883  12.031  11.336   5.550
 6900POPC   PO446884  12.092  11.293   5.850
 6900POPC   GL146885  12.068  11.336   6.150
 6900POPC   GL246886  12.184  11.232   6.150
 6900POPC   C1A46887  12.073  11.271   6.450
 6900POPC   D2A46888  12.037  11.337   6.750
 6900POPC   C3A46889  12.045  11.285   7.050
 6900POPC   C4A46890  12.106  11.263   7.350
 6900POPC   C1B46891  12.299  11.202   6.450
 6900POPC   C2B46892  12.290  11.271   6.750
 6900POPC   C3B46893  12.300  11.277   7.050
 6900POPC   C4B46894  12.361  11.259   7.350
 6901POPC   NC346895   5.064  38.443   5.550
 6901POPC   PO446896   5.115  38.418   5.850
 6901POPC   GL146897   5.129  38.421   6.150
 6901POPC   GL246898   5.253  38.462   6.150
 6901POPC   C1A46899   5.051  38.498   6.450
 6901POPC   D2A46900   5.121  38.477   6.750
 6901POPC   C3A46901   5.113  38.478   7.050
 6901POPC   C4A46902   5.066  38.448   7.350
 6901POPC   C1B46903   5.382  38.406   6.450
 6901POPC   C2B46904   5.286  38.381   6.750
 6901POPC   C3B46905   5.337  38.393   7.050
 6901POPC   C4B46906   5.361  38.360   7.350
 6902POPC   NC346907  17.551   0.418   5.550
 6902POPC   PO446908  17.541   0.399   5.850
 6902POPC   GL146909  17.509   0.485   6.150
 6902POPC   GL246910  17.672   0.454   6.150
 6902POPC   C1A46911  17.530   0.431   6.450
 6902POPC   D2A46912  17.546   0.414   6.750
 6902POPC   C3A46913  17.462   0.480   7.050
 6902POPC   C4A46914  17.510   0.455   7.350
 6902POPC   C1B46915  17.712   0.494   6.450
 6902POPC   C2B46916  17.744   0.539   6.750
 6902POPC   C3B46917  17.700   0.565   7.050
 6902POPC   C4B46918  17.738   0.483   7.350
 6903POPC   NC346919  27.611  25.218   5.550
 6903POPC   PO446920  27.562  25.233   5.850
 6903POPC   GL146921  27.549  25.311   6.150
 6903POPC   GL246922  27.663  25.311   6.150
 6903POPC   C1A46923  27.623  25.285   6.450
 6903POPC   D2A46924  27.569  25.312   6.750
 6903POPC   C3A46925  27.591  25.227   7.050
 6903POPC   C4A46926  27.634  25.263   7.350
 6903POPC   C1B46927  27.802  25.368   6.450
 6903POPC   C2B46928  27.776  25.443   6.750
 6903POPC   C3B46929  27.805  25.445   7.050
 6903POPC   C4B46930  27.800  25.388   7.350
 6904POPC   NC346931  34.578  15.160   5.550
 6904POPC   PO446932  34.584  15.139   5.850
 6904POPC   GL146933  34.621  15.183   6.150
 6904POPC   GL246934  34.673  15.016   6.150
 6904POPC   C1A46935  34.526  15.229   6.450
 6904POPC   D2A46936  34.596  15.157   6.750
 6904POPC   C3A46937  34.621  15.206   7.050
 6904POPC   C4A46938  34.564  15.176   7.350
 6904POPC   C1B46939  34.696  14.992   6.450
 6904POPC   C2B46940  34.708  14.910   6.750
 6904POPC   C3B46941  34.649  14.979   7.050
 6904POPC   C4B46942  34.712  14.918   7.350
 6905POPC   NC346943  19.069  37.715   5.550
 6905POPC   PO446944  19.104  37.725   5.850
 6905POPC   GL146945  19.041  37.721   6.150
 6905POPC   GL246946  18.951  37.660   6.150
 6905POPC   C1A46947  19.016  37.638   6.450
 6905POPC   D2A46948  19.013  37.709   6.750
 6905POPC   C3A46949  19.097  37.684   7.050
 6905POPC   C4A46950  19.011  37.685   7.350
 6905POPC   C1B46951  18.824  37.553   6.450
 6905POPC   C2B46952  18.857  37.516   6.750
 6905POPC   C3B46953  18.849  37.528   7.050
 6905POPC   C4B46954  18.822  37.539   7.350
 6906POPC   NC346955  23.701  20.590   5.550
 6906POPC   PO446956  23.704  20.580   5.850
 6906POPC   GL146957  23.746  20.606   6.150
 6906POPC   GL246958  23.851  20.613   6.150
 6906POPC   C1A46959  23.731  20.590   6.450
 6906POPC   D2A46960  23.685  20.596   6.750
 6906POPC   C3A46961  23.723  20.597   7.050
 6906POPC   C4A46962  23.761  20.630   7.350
 6906POPC   C1B46963  23.927  20.551   6.450
 6906POPC   C2B46964  23.932  20.535   6.750
 6906POPC   C3B46965  23.930  20.540   7.050
 6906POPC   C4B46966  23.916  20.479   7.350
 6907POPC   NC346967  14.373  22.955   5.550
 6907POPC   PO446968  14.449  22.985   5.850
 6907POPC   GL146969  14.398  22.962   6.150
 6907POPC   GL246970  14.382  23.082   6.150
 6907POPC   C1A46971  14.389  22.892   6.450
 6907POPC   D2A46972  14.439  22.965   6.750
 6907POPC   C3A46973  14.370  22.938   7.050
 6907POPC   C4A46974  14.417  22.980   7.350
 6907POPC   C1B46975  14.296  23.197   6.450
 6907POPC   C2B46976  14.286  23.129   6.750
 6907POPC   C3B46977  14.280  23.198   7.050
 6907POPC   C4B46978  14.310  23.173   7.350
 6908POPC   NC346979  36.859  26.813   5.550
 6908POPC   PO446980  36.865  26.806   5.850
 6908POPC   GL146981  36.882  26.784   6.150
 6908POPC   GL246982  36.950  26.677   6.150
 6908POPC   C1A46983  36.909  26.866   6.450
 6908POPC   D2A46984  36.935  26.854   6.750
 6908POPC   C3A46985  36.881  26.851   7.050
 6908POPC   C4A46986  36.942  26.813   7.350
 6908POPC   C1B46987  37.012  26.623   6.450
 6908POPC   C2B46988  37.041  26.591   6.750
 6908POPC   C3B46989  36.997  26.605   7.050
 6908POPC   C4B46990  37.043  26.644   7.350
 6909POPC   NC346991   5.062  20.582   5.550
 6909POPC   PO446992   5.061  20.563   5.850
 6909POPC   GL146993   5.094  20.601   6.150
 6909POPC   GL246994   5.113  20.494   6.150
 6909POPC   C1A46995   5.101  20.581   6.450
 6909POPC   D2A46996   5.143  20.619   6.750
 6909POPC   C3A46997   5.049  20.617   7.050
 6909POPC   C4A46998   5.044  20.623   7.350
 6909POPC   C1B46999   5.176  20.341   6.450
 6909POPC   C2B47000   5.180  20.319   6.750
 6909POPC   C3B47001   5.125  20.379   7.050
 6909POPC   C4B47002   5.133  20.333   7.350
 6910POPC   NC347003  26.029  24.478   5.550
 6910POPC   PO447004  26.078  24.471   5.850
 6910POPC   GL147005  26.057  24.487   6.150
 6910POPC   GL247006  26.151  24.582   6.150
 6910POPC   C1A47007  26.085  24.517   6.450
 6910POPC   D2A47008  26.069  24.517   6.750
 6910POPC   C3A47009  26.024  24.472   7.050
 6910POPC   C4A47010  26.009  24.440   7.350
 6910POPC   C1B47011  26.210  24.684   6.450
 6910POPC   C2B47012  26.217  24.685   6.750
 6910POPC   C3B47013  26.275  24.667   7.050
 6910POPC   C4B47014  26.190  24.682   7.350
 6911POPC   NC347015  22.119  35.310   5.550
 6911POPC   PO447016  22.210  35.338   5.850
 6911POPC   GL147017  22.113  35.316   6.150
 6911POPC   GL247018  22.086  35.500   6.150
 6911POPC   C1A47019  22.194  35.359   6.450
 6911POPC   D2A47020  22.122  35.359   6.750
 6911POPC   C3A47021  22.138  35.349   7.050
 6911POPC   C4A47022  22.168  35.338   7.350
 6911POPC   C1B47023  21.995  35.588   6.450
 6911POPC   C2B47024  22.018  35.532   6.750
 6911POPC   C3B47025  22.055  35.583   7.050
 6911POPC   C4B47026  22.019  35.508   7.350
 6912POPC   NC347027  29.958   7.374   5.550
 6912POPC   PO447028  29.932   7.397   5.850
 6912POPC   GL147029  29.894   7.423   6.150
 6912POPC   GL247030  30.031   7.490   6.150
 6912POPC   C1A47031  29.890   7.420   6.450
 6912POPC   D2A47032  29.883   7.390   6.750
 6912POPC   C3A47033  29.895   7.437   7.050
 6912POPC   C4A47034  29.943   7.453   7.350
 6912POPC   C1B47035  30.099   7.560   6.450
 6912POPC   C2B47036  30.147   7.521   6.750
 6912POPC   C3B47037  30.114   7.531   7.050
 6912POPC   C4B47038  30.096   7.563   7.350
 6913POPC   NC347039  22.937   9.725   5.550
 6913POPC   PO447040  22.915   9.747   5.850
 6913POPC   GL147041  22.914   9.702   6.150
 6913POPC   GL247042  22.883   9.821   6.150
 6913POPC   C1A47043  22.919   9.727   6.450
 6913POPC   D2A47044  22.914   9.729   6.750
 6913POPC   C3A47045  22.936   9.752   7.050
 6913POPC   C4A47046  22.931   9.771   7.350
 6913POPC   C1B47047  22.830  10.013   6.450
 6913POPC   C2B47048  22.864   9.958   6.750
 6913POPC   C3B47049  22.902   9.971   7.050
 6913POPC   C4B47050  22.896   9.979   7.350
 6914POPC   NC347051  31.457  22.954   5.550
 6914POPC   PO447052  31.473  22.956   5.850
 6914POPC   GL147053  31.428  22.967   6.150
 6914POPC   GL247054  31.565  22.882   6.150
 6914POPC   C1A47055  31.481  22.922   6.450
 6914POPC   D2A47056  31.447  22.904   6.750
 6914POPC   C3A47057  31.465  22.919   7.050
 6914POPC   C4A47058  31.483  22.942   7.350
 6914POPC   C1B47059  31.718  22.809   6.450
 6914POPC   C2B47060  31.620  22.785   6.750
 6914POPC   C3B47061  31.699  22.806   7.050
 6914POPC   C4B47062  31.659  22.777   7.350
 6915POPC   NC347063  19.803  23.756   5.550
 6915POPC   PO447064  19.836  23.719   5.850
 6915POPC   GL147065  19.830  23.681   6.150
 6915POPC   GL247066  19.931  23.694   6.150
 6915POPC   C1A47067  19.879  23.694   6.450
 6915POPC   D2A47068  19.832  23.686   6.750
 6915POPC   C3A47069  19.788  23.754   7.050
 6915POPC   C4A47070  19.840  23.754   7.350
 6915POPC   C1B47071  20.076  23.735   6.450
 6915POPC   C2B47072  20.104  23.734   6.750
 6915POPC   C3B47073  20.043  23.706   7.050
 6915POPC   C4B47074  20.115  23.688   7.350
 6916POPC   NC347075  34.624  12.034   5.550
 6916POPC   PO447076  34.609  12.032   5.850
 6916POPC   GL147077  34.590  12.096   6.150
 6916POPC   GL247078  34.579  12.208   6.150
 6916POPC   C1A47079  34.533  12.065   6.450
 6916POPC   D2A47080  34.530  12.050   6.750
 6916POPC   C3A47081  34.542  12.050   7.050
 6916POPC   C4A47082  34.530  12.073   7.350
 6916POPC   C1B47083  34.533  12.347   6.450
 6916POPC   C2B47084  34.541  12.346   6.750
 6916POPC   C3B47085  34.456  12.293   7.050
 6916POPC   C4B47086  34.532  12.284   7.350
 6917POPC   NC347087   3.530  40.753   5.550
 6917POPC   PO447088   3.581  40.735   5.850
 6917POPC   GL147089   3.554  40.747   6.150
 6917POPC   GL247090   3.614  40.709   6.150
 6917POPC   C1A47091   3.556  40.832   6.450
 6917POPC   D2A47092   3.577  40.756   6.750
 6917POPC   C3A47093   3.590  40.800   7.050
 6917POPC   C4A47094   3.512  40.745   7.350
 6917POPC   C1B47095   3.675  40.554   6.450
 6917POPC   C2B47096   3.716  40.611   6.750
 6917POPC   C3B47097   3.707  40.630   7.050
 6917POPC   C4B47098   3.686  40.635   7.350
 6918POPC   NC347099  12.049   2.772   5.550
 6918POPC   PO447100  12.058   2.815   5.850
 6918POPC   GL147101  12.033   2.765   6.150
 6918POPC   GL247102  12.025   2.909   6.150
 6918POPC   C1A47103  12.096   2.797   6.450
 6918POPC   D2A47104  12.064   2.774   6.750
 6918POPC   C3A47105  12.055   2.759   7.050
 6918POPC   C4A47106  12.079   2.730   7.350
 6918POPC   C1B47107  12.026   3.023   6.450
 6918POPC   C2B47108  12.096   3.011   6.750
 6918POPC   C3B47109  12.060   3.012   7.050
 6918POPC   C4B47110  12.091   3.005   7.350
 6919POPC   NC347111  29.134   8.996   5.550
 6919POPC   PO447112  29.172   8.971   5.850
 6919POPC   GL147113  29.123   8.952   6.150
 6919POPC   GL247114  29.058   9.134   6.150
 6919POPC   C1A47115  29.165   8.926   6.450
 6919POPC   D2A47116  29.168   8.950   6.750
 6919POPC   C3A47117  29.108   8.966   7.050
 6919POPC   C4A47118  29.130   8.997   7.350
 6919POPC   C1B47119  29.107   9.213   6.450
 6919POPC   C2B47120  29.093   9.247   6.750
 6919POPC   C3B47121  29.104   9.175   7.050
 6919POPC   C4B47122  29.073   9.167   7.350
 6920POPC   NC347123   8.242  25.303   5.550
 6920POPC   PO447124   8.187  25.247   5.850
 6920POPC   GL147125   8.149  25.229   6.150
 6920POPC   GL247126   8.164  25.110   6.150
 6920POPC   C1A47127   8.179  25.305   6.450
 6920POPC   D2A47128   8.222  25.250   6.750
 6920POPC   C3A47129   8.212  25.310   7.050
 6920POPC   C4A47130   8.239  25.258   7.350
 6920POPC   C1B47131   8.160  25.065   6.450
 6920POPC   C2B47132   8.099  25.026   6.750
 6920POPC   C3B47133   8.116  24.994   7.050
 6920POPC   C4B47134   8.095  25.028   7.350
 6921POPC   NC347135  29.934  40.806   5.550
 6921POPC   PO447136  29.906  40.818   5.850
 6921POPC   GL147137  29.946  40.747   6.150
 6921POPC   GL247138  29.992  40.941   6.150
 6921POPC   C1A47139  29.930  40.790   6.450
 6921POPC   D2A47140  29.909  40.832   6.750
 6921POPC   C3A47141  29.942  40.829   7.050
 6921POPC   C4A47142  29.931  40.750   7.350
 6921POPC   C1B47143  30.043  40.998   6.450
 6921POPC   C2B47144  29.953  41.040   6.750
 6921POPC   C3B47145  30.015  41.040   7.050
 6921POPC   C4B47146  29.946  40.994   7.350
 6922POPC   NC347147   1.257   6.674   5.550
 6922POPC   PO447148   1.231   6.666   5.850
 6922POPC   GL147149   1.210   6.654   6.150
 6922POPC   GL247150   1.365   6.605   6.150
 6922POPC   C1A47151   1.183   6.633   6.450
 6922POPC   D2A47152   1.213   6.681   6.750
 6922POPC   C3A47153   1.164   6.616   7.050
 6922POPC   C4A47154   1.227   6.656   7.350
 6922POPC   C1B47155   1.414   6.663   6.450
 6922POPC   C2B47156   1.422   6.577   6.750
 6922POPC   C3B47157   1.495   6.593   7.050
 6922POPC   C4B47158   1.463   6.673   7.350
 6923POPC   NC347159   5.903  29.955   5.550
 6923POPC   PO447160   5.912  29.954   5.850
 6923POPC   GL147161   5.902  29.956   6.150
 6923POPC   GL247162   5.835  30.006   6.150
 6923POPC   C1A47163   5.839  29.923   6.450
 6923POPC   D2A47164   5.904  29.887   6.750
 6923POPC   C3A47165   5.877  29.951   7.050
 6923POPC   C4A47166   5.859  29.929   7.350
 6923POPC   C1B47167   5.671  30.117   6.450
 6923POPC   C2B47168   5.664  30.121   6.750
 6923POPC   C3B47169   5.751  30.080   7.050
 6923POPC   C4B47170   5.695  30.113   7.350
 6924POPC   NC347171  24.513  13.671   5.550
 6924POPC   PO447172  24.533  13.578   5.850
 6924POPC   GL147173  24.471  13.588   6.150
 6924POPC   GL247174  24.469  13.767   6.150
 6924POPC   C1A47175  24.535  13.639   6.450
 6924POPC   D2A47176  24.443  13.660   6.750
 6924POPC   C3A47177  24.473  13.587   7.050
 6924POPC   C4A47178  24.515  13.585   7.350
 6924POPC   C1B47179  24.440  13.910   6.450
 6924POPC   C2B47180  24.409  13.909   6.750
 6924POPC   C3B47181  24.378  13.883   7.050
 6924POPC   C4B47182  24.372  13.837   7.350
 6925POPC   NC347183  22.125  30.699   5.550
 6925POPC   PO447184  22.130  30.692   5.850
 6925POPC   GL147185  22.162  30.663   6.150
 6925POPC   GL247186  22.188  30.634   6.150
 6925POPC   C1A47187  22.203  30.650   6.450
 6925POPC   D2A47188  22.148  30.730   6.750
 6925POPC   C3A47189  22.206  30.648   7.050
 6925POPC   C4A47190  22.179  30.659   7.350
 6925POPC   C1B47191  22.251  30.446   6.450
 6925POPC   C2B47192  22.285  30.443   6.750
 6925POPC   C3B47193  22.304  30.508   7.050
 6925POPC   C4B47194  22.306  30.427   7.350
 6926POPC   NC347195  21.425  29.955   5.550
 6926POPC   PO447196  21.338  29.873   5.850
 6926POPC   GL147197  21.418  29.960   6.150
 6926POPC   GL247198  21.342  29.807   6.150
 6926POPC   C1A47199  21.368  29.916   6.450
 6926POPC   D2A47200  21.401  29.908   6.750
 6926POPC   C3A47201  21.411  29.917   7.050
 6926POPC   C4A47202  21.364  29.941   7.350
 6926POPC   C1B47203  21.298  29.667   6.450
 6926POPC   C2B47204  21.311  29.718   6.750
 6926POPC   C3B47205  21.306  29.696   7.050
 6926POPC   C4B47206  21.330  29.695   7.350
 6927POPC   NC347207  21.389  31.486   5.550
 6927POPC   PO447208  21.403  31.470   5.850
 6927POPC   GL147209  21.371  31.498   6.150
 6927POPC   GL247210  21.388  31.370   6.150
 6927POPC   C1A47211  21.386  31.462   6.450
 6927POPC   D2A47212  21.341  31.502   6.750
 6927POPC   C3A47213  21.423  31.516   7.050
 6927POPC   C4A47214  21.370  31.459   7.350
 6927POPC   C1B47215  21.378  31.188   6.450
 6927POPC   C2B47216  21.363  31.222   6.750
 6927POPC   C3B47217  21.392  31.261   7.050
 6927POPC   C4B47218  21.400  31.231   7.350
 6928POPC   NC347219  43.842   0.416   5.550
 6928POPC   PO447220  43.881   0.475   5.850
 6928POPC   GL147221  43.921   0.426   6.150
 6928POPC   GL247222  43.730   0.410   6.150
 6928POPC   C1A47223  43.845   0.399   6.450
 6928POPC   D2A47224  43.935   0.394   6.750
 6928POPC   C3A47225  43.926   0.412   7.050
 6928POPC   C4A47226  43.879   0.417   7.350
 6928POPC   C1B47227  43.657   0.456   6.450
 6928POPC   C2B47228  43.651   0.398   6.750
 6928POPC   C3B47229  43.640   0.435   7.050
 6928POPC   C4B47230  43.634   0.481   7.350
 6929POPC   NC347231  10.538  40.813   5.550
 6929POPC   PO447232  10.489  40.736   5.850
 6929POPC   GL147233  10.536  40.747   6.150
 6929POPC   GL247234  10.617  40.738   6.150
 6929POPC   C1A47235  10.553  40.794   6.450
 6929POPC   D2A47236  10.474  40.801   6.750
 6929POPC   C3A47237  10.517  40.762   7.050
 6929POPC   C4A47238  10.564  40.791   7.350
 6929POPC   C1B47239  10.802  40.710   6.450
 6929POPC   C2B47240  10.704  40.637   6.750
 6929POPC   C3B47241  10.798  40.668   7.050
 6929POPC   C4B47242  10.755  40.678   7.350
 6930POPC   NC347243  29.918  43.104   5.550
 6930POPC   PO447244  29.938  43.064   5.850
 6930POPC   GL147245  29.909  43.069   6.150
 6930POPC   GL247246  30.062  43.120   6.150
 6930POPC   C1A47247  29.950  43.110   6.450
 6930POPC   D2A47248  29.876  43.142   6.750
 6930POPC   C3A47249  29.905  43.086   7.050
 6930POPC   C4A47250  29.910  43.133   7.350
 6930POPC   C1B47251  30.160  43.154   6.450
 6930POPC   C2B47252  30.159  43.077   6.750
 6930POPC   C3B47253  30.147  43.119   7.050
 6930POPC   C4B47254  30.178  43.149   7.350
 6931POPC   NC347255  30.678   9.788   5.550
 6931POPC   PO447256  30.686   9.791   5.850
 6931POPC   GL147257  30.724   9.738   6.150
 6931POPC   GL247258  30.609   9.645   6.150
 6931POPC   C1A47259  30.698   9.735   6.450
 6931POPC   D2A47260  30.726   9.706   6.750
 6931POPC   C3A47261  30.716   9.700   7.050
 6931POPC   C4A47262  30.738   9.751   7.350
 6931POPC   C1B47263  30.494   9.570   6.450
 6931POPC   C2B47264  30.556   9.577   6.750
 6931POPC   C3B47265  30.519   9.589   7.050
 6931POPC   C4B47266  30.487   9.559   7.350
 6932POPC   NC347267  19.108   9.012   5.550
 6932POPC   PO447268  19.106   8.940   5.850
 6932POPC   GL147269  19.098   9.017   6.150
 6932POPC   GL247270  19.134   8.935   6.150
 6932POPC   C1A47271  19.062   8.982   6.450
 6932POPC   D2A47272  19.023   8.984   6.750
 6932POPC   C3A47273  19.055   8.925   7.050
 6932POPC   C4A47274  19.022   8.944   7.350
 6932POPC   C1B47275  19.281   8.946   6.450
 6932POPC   C2B47276  19.347   9.018   6.750
 6932POPC   C3B47277  19.303   8.985   7.050
 6932POPC   C4B47278  19.294   8.986   7.350
 6933POPC   NC347279  30.714   8.926   5.550
 6933POPC   PO447280  30.709   8.975   5.850
 6933POPC   GL147281  30.677   8.960   6.150
 6933POPC   GL247282  30.568   9.051   6.150
 6933POPC   C1A47283  30.690   8.974   6.450
 6933POPC   D2A47284  30.733   8.957   6.750
 6933POPC   C3A47285  30.722   8.956   7.050
 6933POPC   C4A47286  30.737   8.924   7.350
 6933POPC   C1B47287  30.453   9.144   6.450
 6933POPC   C2B47288  30.489   9.131   6.750
 6933POPC   C3B47289  30.534   9.111   7.050
 6933POPC   C4B47290  30.502   9.083   7.350
 6934POPC   NC347291  21.360  36.177   5.550
 6934POPC   PO447292  21.420  36.101   5.850
 6934POPC   GL147293  21.356  36.165   6.150
 6934POPC   GL247294  21.470  36.011   6.150
 6934POPC   C1A47295  21.417  36.147   6.450
 6934POPC   D2A47296  21.384  36.121   6.750
 6934POPC   C3A47297  21.361  36.107   7.050
 6934POPC   C4A47298  21.338  36.165   7.350
 6934POPC   C1B47299  21.469  35.923   6.450
 6934POPC   C2B47300  21.415  35.879   6.750
 6934POPC   C3B47301  21.410  35.846   7.050
 6934POPC   C4B47302  21.492  35.880   7.350
 6935POPC   NC347303  29.107  44.641   5.550
 6935POPC   PO447304  29.165  44.655   5.850
 6935POPC   GL147305  29.107  44.635   6.150
 6935POPC   GL247306  29.110  44.771   6.150
 6935POPC   C1A47307  29.132  44.675   6.450
 6935POPC   D2A47308  29.115  44.708   6.750
 6935POPC   C3A47309  29.124  44.708   7.050
 6935POPC   C4A47310  29.170  44.644   7.350
 6935POPC   C1B47311  29.120  44.953   6.450
 6935POPC   C2B47312  29.163  44.959   6.750
 6935POPC   C3B47313  29.157  44.869   7.050
 6935POPC   C4B47314  29.143  44.869   7.350
 6936POPC   NC347315  29.953  40.002   5.550
 6936POPC   PO447316  29.965  40.031   5.850
 6936POPC   GL147317  29.877  39.961   6.150
 6936POPC   GL247318  29.880  40.092   6.150
 6936POPC   C1A47319  29.938  40.033   6.450
 6936POPC   D2A47320  29.889  40.008   6.750
 6936POPC   C3A47321  29.951  39.974   7.050
 6936POPC   C4A47322  29.943  40.038   7.350
 6936POPC   C1B47323  29.736  40.170   6.450
 6936POPC   C2B47324  29.788  40.237   6.750
 6936POPC   C3B47325  29.717  40.202   7.050
 6936POPC   C4B47326  29.772  40.218   7.350
 6937POPC   NC347327  21.401  22.898   5.550
 6937POPC   PO447328  21.426  22.910   5.850
 6937POPC   GL147329  21.435  22.968   6.150
 6937POPC   GL247330  21.242  22.852   6.150
 6937POPC   C1A47331  21.348  22.892   6.450
 6937POPC   D2A47332  21.414  22.936   6.750
 6937POPC   C3A47333  21.415  22.902   7.050
 6937POPC   C4A47334  21.379  22.904   7.350
 6937POPC   C1B47335  21.162  22.860   6.450
 6937POPC   C2B47336  21.189  22.860   6.750
 6937POPC   C3B47337  21.181  22.810   7.050
 6937POPC   C4B47338  21.112  22.883   7.350
 6938POPC   NC347339  15.163  43.104   5.550
 6938POPC   PO447340  15.167  43.156   5.850
 6938POPC   GL147341  15.224  43.072   6.150
 6938POPC   GL247342  15.256  43.088   6.150
 6938POPC   C1A47343  15.162  43.103   6.450
 6938POPC   D2A47344  15.225  43.078   6.750
 6938POPC   C3A47345  15.219  43.145   7.050
 6938POPC   C4A47346  15.185  43.081   7.350
 6938POPC   C1B47347  15.450  43.150   6.450
 6938POPC   C2B47348  15.437  43.116   6.750
 6938POPC   C3B47349  15.476  43.142   7.050
 6938POPC   C4B47350  15.414  43.120   7.350
 6939POPC   NC347351  34.565  27.576   5.550
 6939POPC   PO447352  34.596  27.624   5.850
 6939POPC   GL147353  34.539  27.585   6.150
 6939POPC   GL247354  34.486  27.652   6.150
 6939POPC   C1A47355  34.595  27.633   6.450
 6939POPC   D2A47356  34.587  27.634   6.750
 6939POPC   C3A47357  34.528  27.602   7.050
 6939POPC   C4A47358  34.621  27.562   7.350
 6939POPC   C1B47359  34.373  27.662   6.450
 6939POPC   C2B47360  34.331  27.695   6.750
 6939POPC   C3B47361  34.316  27.688   7.050
 6939POPC   C4B47362  34.343  27.659   7.350
 6940POPC   NC347363  26.820  26.070   5.550
 6940POPC   PO447364  26.771  26.067   5.850
 6940POPC   GL147365  26.853  26.032   6.150
 6940POPC   GL247366  26.747  26.159   6.150
 6940POPC   C1A47367  26.797  26.084   6.450
 6940POPC   D2A47368  26.815  25.996   6.750
 6940POPC   C3A47369  26.785  26.029   7.050
 6940POPC   C4A47370  26.838  26.090   7.350
 6940POPC   C1B47371  26.734  26.336   6.450
 6940POPC   C2B47372  26.774  26.288   6.750
 6940POPC   C3B47373  26.744  26.292   7.050
 6940POPC   C4B47374  26.801  26.276   7.350
 6941POPC   NC347375  17.514  24.455   5.550
 6941POPC   PO447376  17.484  24.457   5.850
 6941POPC   GL147377  17.534  24.461   6.150
 6941POPC   GL247378  17.442  24.385   6.150
 6941POPC   C1A47379  17.555  24.461   6.450
 6941POPC   D2A47380  17.495  24.506   6.750
 6941POPC   C3A47381  17.541  24.450   7.050
 6941POPC   C4A47382  17.489  24.476   7.350
 6941POPC   C1B47383  17.329  24.328   6.450
 6941POPC   C2B47384  17.317  24.364   6.750
 6941POPC   C3B47385  17.264  24.342   7.050
 6941POPC   C4B47386  17.330  24.328   7.350
 6942POPC   NC347387  38.476  39.958   5.550
 6942POPC   PO447388  38.405  39.988   5.850
 6942POPC   GL147389  38.409  40.036   6.150
 6942POPC   GL247390  38.351  39.923   6.150
 6942POPC   C1A47391  38.486  40.014   6.450
 6942POPC   D2A47392  38.425  40.056   6.750
 6942POPC   C3A47393  38.486  40.007   7.050
 6942POPC   C4A47394  38.484  40.003   7.350
 6942POPC   C1B47395  38.246  39.789   6.450
 6942POPC   C2B47396  38.268  39.814   6.750
 6942POPC   C3B47397  38.234  39.799   7.050
 6942POPC   C4B47398  38.327  39.786   7.350
 6943POPC   NC347399  22.181  40.786   5.550
 6943POPC   PO447400  22.175  40.747   5.850
 6943POPC   GL147401  22.194  40.803   6.150
 6943POPC   GL247402  22.319  40.739   6.150
 6943POPC   C1A47403  22.136  40.769   6.450
 6943POPC   D2A47404  22.183  40.766   6.750
 6943POPC   C3A47405  22.193  40.817   7.050
 6943POPC   C4A47406  22.210  40.831   7.350
 6943POPC   C1B47407  22.398  40.803   6.450
 6943POPC   C2B47408  22.418  40.805   6.750
 6943POPC   C3B47409  22.428  40.745   7.050
 6943POPC   C4B47410  22.431  40.740   7.350
 6944POPC   NC347411  23.703  33.042   5.550
 6944POPC   PO447412  23.675  32.996   5.850
 6944POPC   GL147413  23.713  32.986   6.150
 6944POPC   GL247414  23.768  32.916   6.150
 6944POPC   C1A47415  23.688  33.074   6.450
 6944POPC   D2A47416  23.665  33.000   6.750
 6944POPC   C3A47417  23.753  33.014   7.050
 6944POPC   C4A47418  23.755  32.984   7.350
 6944POPC   C1B47419  23.681  32.787   6.450
 6944POPC   C2B47420  23.747  32.739   6.750
 6944POPC   C3B47421  23.753  32.789   7.050
 6944POPC   C4B47422  23.703  32.726   7.350
 6945POPC   NC347423   8.186  43.137   5.550
 6945POPC   PO447424   8.226  43.098   5.850
 6945POPC   GL147425   8.231  43.086   6.150
 6945POPC   GL247426   8.248  43.191   6.150
 6945POPC   C1A47427   8.210  43.144   6.450
 6945POPC   D2A47428   8.168  43.090   6.750
 6945POPC   C3A47429   8.148  43.145   7.050
 6945POPC   C4A47430   8.227  43.135   7.350
 6945POPC   C1B47431   8.176  43.377   6.450
 6945POPC   C2B47432   8.175  43.353   6.750
 6945POPC   C3B47433   8.237  43.389   7.050
 6945POPC   C4B47434   8.226  43.402   7.350
 6946POPC   NC347435  33.070   6.617   5.550
 6946POPC   PO447436  33.001   6.693   5.850
 6946POPC   GL147437  33.060   6.661   6.150
 6946POPC   GL247438  32.988   6.785   6.150
 6946POPC   C1A47439  33.064   6.599   6.450
 6946POPC   D2A47440  33.035   6.631   6.750
 6946POPC   C3A47441  32.985   6.609   7.050
 6946POPC   C4A47442  33.008   6.607   7.350
 6946POPC   C1B47443  33.007   6.889   6.450
 6946POPC   C2B47444  33.059   6.857   6.750
 6946POPC   C3B47445  32.991   6.908   7.050
 6946POPC   C4B47446  33.031   6.845   7.350
 6947POPC   NC347447  18.294  19.105   5.550
 6947POPC   PO447448  18.306  19.036   5.850
 6947POPC   GL147449  18.314  19.024   6.150
 6947POPC   GL247450  18.422  18.945   6.150
 6947POPC   C1A47451  18.271  19.106   6.450
 6947POPC   D2A47452  18.274  19.060   6.750
 6947POPC   C3A47453  18.287  19.060   7.050
 6947POPC   C4A47454  18.249  19.089   7.350
 6947POPC   C1B47455  18.470  18.921   6.450
 6947POPC   C2B47456  18.422  18.896   6.750
 6947POPC   C3B47457  18.494  18.940   7.050
 6947POPC   C4B47458  18.488  18.936   7.350
 6948POPC   NC347459  37.631  27.626   5.550
 6948POPC   PO447460  37.708  27.635   5.850
 6948POPC   GL147461  37.652  27.591   6.150
 6948POPC   GL247462  37.800  27.577   6.150
 6948POPC   C1A47463  37.680  27.623   6.450
 6948POPC   D2A47464  37.688  27.551   6.750
 6948POPC   C3A47465  37.689  27.600   7.050
 6948POPC   C4A47466  37.643  27.628   7.350
 6948POPC   C1B47467  37.885  27.523   6.450
 6948POPC   C2B47468  37.937  27.513   6.750
 6948POPC   C3B47469  37.890  27.530   7.050
 6948POPC   C4B47470  37.888  27.503   7.350
 6949POPC   NC347471   5.100  15.910   5.550
 6949POPC   PO447472   5.102  15.911   5.850
 6949POPC   GL147473   5.119  16.003   6.150
 6949POPC   GL247474   5.098  15.798   6.150
 6949POPC   C1A47475   5.054  15.944   6.450
 6949POPC   D2A47476   5.058  15.939   6.750
 6949POPC   C3A47477   5.102  15.951   7.050
 6949POPC   C4A47478   5.061  15.989   7.350
 6949POPC   C1B47479   5.167  15.741   6.450
 6949POPC   C2B47480   5.218  15.682   6.750
 6949POPC   C3B47481   5.232  15.758   7.050
 6949POPC   C4B47482   5.245  15.756   7.350
 6950POPC   NC347483   1.208  15.922   5.550
 6950POPC   PO447484   1.244  15.918   5.850
 6950POPC   GL147485   1.254  15.988   6.150
 6950POPC   GL247486   1.154  16.020   6.150
 6950POPC   C1A47487   1.196  15.925   6.450
 6950POPC   D2A47488   1.262  16.000   6.750
 6950POPC   C3A47489   1.169  15.954   7.050
 6950POPC   C4A47490   1.218  15.951   7.350
 6950POPC   C1B47491   1.002  16.041   6.450
 6950POPC   C2B47492   1.003  16.123   6.750
 6950POPC   C3B47493   1.027  16.115   7.050
 6950POPC   C4B47494   1.040  16.046   7.350
 6951POPC   NC347495  12.098  31.471   5.550
 6951POPC   PO447496  12.061  31.434   5.850
 6951POPC   GL147497  12.081  31.450   6.150
 6951POPC   GL247498  12.149  31.385   6.150
 6951POPC   C1A47499  12.108  31.500   6.450
 6951POPC   D2A47500  12.089  31.485   6.750
 6951POPC   C3A47501  12.119  31.479   7.050
 6951POPC   C4A47502  12.069  31.513   7.350
 6951POPC   C1B47503  12.342  31.342   6.450
 6951POPC   C2B47504  12.253  31.318   6.750
 6951POPC   C3B47505  12.262  31.345   7.050
 6951POPC   C4B47506  12.256  31.404   7.350
 6952POPC   NC347507  40.790   1.205   5.550
 6952POPC   PO447508  40.820   1.234   5.850
 6952POPC   GL147509  40.752   1.263   6.150
 6952POPC   GL247510  40.892   1.201   6.150
 6952POPC   C1A47511  40.773   1.174   6.450
 6952POPC   D2A47512  40.771   1.212   6.750
 6952POPC   C3A47513  40.827   1.200   7.050
 6952POPC   C4A47514  40.795   1.204   7.350
 6952POPC   C1B47515  41.013   1.190   6.450
 6952POPC   C2B47516  41.016   1.239   6.750
 6952POPC   C3B47517  41.046   1.204   7.050
 6952POPC   C4B47518  41.004   1.243   7.350
 6953POPC   NC347519   8.213  26.055   5.550
 6953POPC   PO447520   8.226  26.080   5.850
 6953POPC   GL147521   8.206  26.084   6.150
 6953POPC   GL247522   8.299  25.915   6.150
 6953POPC   C1A47523   8.154  26.036   6.450
 6953POPC   D2A47524   8.159  26.081   6.750
 6953POPC   C3A47525   8.158  26.053   7.050
 6953POPC   C4A47526   8.225  26.057   7.350
 6953POPC   C1B47527   8.374  25.798   6.450
 6953POPC   C2B47528   8.318  25.830   6.750
 6953POPC   C3B47529   8.326  25.849   7.050
 6953POPC   C4B47530   8.324  25.816   7.350
 6954POPC   NC347531  15.154  36.900   5.550
 6954POPC   PO447532  15.222  36.891   5.850
 6954POPC   GL147533  15.214  36.916   6.150
 6954POPC   GL247534  15.215  36.768   6.150
 6954POPC   C1A47535  15.162  36.939   6.450
 6954POPC   D2A47536  15.133  36.921   6.750
 6954POPC   C3A47537  15.135  36.936   7.050
 6954POPC   C4A47538  15.139  36.935   7.350
 6954POPC   C1B47539  15.151  36.674   6.450
 6954POPC   C2B47540  15.217  36.665   6.750
 6954POPC   C3B47541  15.215  36.609   7.050
 6954POPC   C4B47542  15.201  36.696   7.350
 6955POPC   NC347543   8.221  23.759   5.550
 6955POPC   PO447544   8.168  23.746   5.850
 6955POPC   GL147545   8.246  23.710   6.150
 6955POPC   GL247546   8.281  23.620   6.150
 6955POPC   C1A47547   8.191  23.719   6.450
 6955POPC   D2A47548   8.218  23.730   6.750
 6955POPC   C3A47549   8.175  23.700   7.050
 6955POPC   C4A47550   8.183  23.731   7.350
 6955POPC   C1B47551   8.442  23.598   6.450
 6955POPC   C2B47552   8.371  23.590   6.750
 6955POPC   C3B47553   8.390  23.562   7.050
 6955POPC   C4B47554   8.416  23.581   7.350
 6956POPC   NC347555   1.201  29.152   5.550
 6956POPC   PO447556   1.263  29.145   5.850
 6956POPC   GL147557   1.240  29.147   6.150
 6956POPC   GL247558   1.181  29.027   6.150
 6956POPC   C1A47559   1.220  29.122   6.450
 6956POPC   D2A47560   1.228  29.192   6.750
 6956POPC   C3A47561   1.250  29.145   7.050
 6956POPC   C4A47562   1.202  29.144   7.350
 6956POPC   C1B47563   1.076  28.927   6.450
 6956POPC   C2B47564   1.126  28.897   6.750
 6956POPC   C3B47565   1.118  28.920   7.050
 6956POPC   C4B47566   1.117  28.891   7.350
 6957POPC   NC347567  30.683  15.989   5.550
 6957POPC   PO447568  30.650  15.955   5.850
 6957POPC   GL147569  30.671  15.918   6.150
 6957POPC   GL247570  30.862  15.932   6.150
 6957POPC   C1A47571  30.729  15.987   6.450
 6957POPC   D2A47572  30.686  15.913   6.750
 6957POPC   C3A47573  30.699  15.982   7.050
 6957POPC   C4A47574  30.662  15.980   7.350
 6957POPC   C1B47575  30.914  15.943   6.450
 6957POPC   C2B47576  30.944  15.940   6.750
 6957POPC   C3B47577  30.936  15.908   7.050
 6957POPC   C4B47578  30.968  15.895   7.350
 6958POPC   NC347579  24.515  29.939   5.550
 6958POPC   PO447580  24.467  29.965   5.850
 6958POPC   GL147581  24.466  29.887   6.150
 6958POPC   GL247582  24.434  30.015   6.150
 6958POPC   C1A47583  24.523  29.885   6.450
 6958POPC   D2A47584  24.448  29.883   6.750
 6958POPC   C3A47585  24.448  29.906   7.050
 6958POPC   C4A47586  24.493  29.930   7.350
 6958POPC   C1B47587  24.474  30.120   6.450
 6958POPC   C2B47588  24.495  30.139   6.750
 6958POPC   C3B47589  24.422  30.185   7.050
 6958POPC   C4B47590  24.493  30.125   7.350
 6959POPC   NC347591   8.151  24.455   5.550
 6959POPC   PO447592   8.156  24.471   5.850
 6959POPC   GL147593   8.225  24.498   6.150
 6959POPC   GL247594   8.050  24.585   6.150
 6959POPC   C1A47595   8.154  24.446   6.450
 6959POPC   D2A47596   8.179  24.511   6.750
 6959POPC   C3A47597   8.222  24.485   7.050
 6959POPC   C4A47598   8.243  24.450   7.350
 6959POPC   C1B47599   7.961  24.637   6.450
 6959POPC   C2B47600   7.993  24.601   6.750
 6959POPC   C3B47601   7.978  24.594   7.050
 6959POPC   C4B47602   8.013  24.646   7.350
 6960POPC   NC347603  37.723  14.417   5.550
 6960POPC   PO447604  37.713  14.429   5.850
 6960POPC   GL147605  37.657  14.377   6.150
 6960POPC   GL247606  37.516  14.404   6.150
 6960POPC   C1A47607  37.698  14.396   6.450
 6960POPC   D2A47608  37.656  14.437   6.750
 6960POPC   C3A47609  37.667  14.396   7.050
 6960POPC   C4A47610  37.705  14.390   7.350
 6960POPC   C1B47611  37.433  14.303   6.450
 6960POPC   C2B47612  37.451  14.355   6.750
 6960POPC   C3B47613  37.397  14.351   7.050
 6960POPC   C4B47614  37.454  14.304   7.350
 6961POPC   NC347615  18.327  21.400   5.550
 6961POPC   PO447616  18.291  21.386   5.850
 6961POPC   GL147617  18.273  21.423   6.150
 6961POPC   GL247618  18.246  21.286   6.150
 6961POPC   C1A47619  18.265  21.337   6.450
 6961POPC   D2A47620  18.236  21.431   6.750
 6961POPC   C3A47621  18.300  21.395   7.050
 6961POPC   C4A47622  18.238  21.427   7.350
 6961POPC   C1B47623  18.112  21.183   6.450
 6961POPC   C2B47624  18.094  21.235   6.750
 6961POPC   C3B47625  18.156  21.181   7.050
 6961POPC   C4B47626  18.104  21.251   7.350
 6962POPC   NC347627  32.975  37.704   5.550
 6962POPC   PO447628  32.986  37.635   5.850
 6962POPC   GL147629  33.050  37.709   6.150
 6962POPC   GL247630  33.024  37.573   6.150
 6962POPC   C1A47631  32.989  37.643   6.450
 6962POPC   D2A47632  33.066  37.664   6.750
 6962POPC   C3A47633  33.011  37.727   7.050
 6962POPC   C4A47634  33.002  37.685   7.350
 6962POPC   C1B47635  32.900  37.397   6.450
 6962POPC   C2B47636  32.949  37.431   6.750
 6962POPC   C3B47637  32.970  37.414   7.050
 6962POPC   C4B47638  32.977  37.440   7.350
 6963POPC   NC347639   6.650   4.361   5.550
 6963POPC   PO447640   6.617   4.281   5.850
 6963POPC   GL147641   6.657   4.283   6.150
 6963POPC   GL247642   6.725   4.264   6.150
 6963POPC   C1A47643   6.681   4.298   6.450
 6963POPC   D2A47644   6.683   4.310   6.750
 6963POPC   C3A47645   6.667   4.309   7.050
 6963POPC   C4A47646   6.620   4.334   7.350
 6963POPC   C1B47647   6.833   4.124   6.450
 6963POPC   C2B47648   6.857   4.125   6.750
 6963POPC   C3B47649   6.811   4.128   7.050
 6963POPC   C4B47650   6.825   4.207   7.350
 6964POPC   NC347651  37.663  20.601   5.550
 6964POPC   PO447652  37.715  20.579   5.850
 6964POPC   GL147653  37.645  20.581   6.150
 6964POPC   GL247654  37.615  20.462   6.150
 6964POPC   C1A47655  37.723  20.646   6.450
 6964POPC   D2A47656  37.707  20.577   6.750
 6964POPC   C3A47657  37.705  20.633   7.050
 6964POPC   C4A47658  37.648  20.642   7.350
 6964POPC   C1B47659  37.652  20.315   6.450
 6964POPC   C2B47660  37.640  20.372   6.750
 6964POPC   C3B47661  37.676  20.337   7.050
 6964POPC   C4B47662  37.614  20.403   7.350
 6965POPC   NC347663  35.325  10.482   5.550
 6965POPC   PO447664  35.383  10.495   5.850
 6965POPC   GL147665  35.358  10.540   6.150
 6965POPC   GL247666  35.432  10.639   6.150
 6965POPC   C1A47667  35.400  10.546   6.450
 6965POPC   D2A47668  35.351  10.515   6.750
 6965POPC   C3A47669  35.311  10.504   7.050
 6965POPC   C4A47670  35.397  10.539   7.350
 6965POPC   C1B47671  35.531  10.620   6.450
 6965POPC   C2B47672  35.585  10.616   6.750
 6965POPC   C3B47673  35.581  10.650   7.050
 6965POPC   C4B47674  35.596  10.627   7.350
 6966POPC   NC347675  44.698   9.790   5.550
 6966POPC   PO447676  44.707   9.757   5.850
 6966POPC   GL147677  44.623   9.729   6.150
 6966POPC   GL247678  44.562   9.627   6.150
 6966POPC   C1A47679  44.651   9.786   6.450
 6966POPC   D2A47680  44.657   9.727   6.750
 6966POPC   C3A47681  44.712   9.789   7.050
 6966POPC   C4A47682  44.646   9.732   7.350
 6966POPC   C1B47683  44.563   9.562   6.450
 6966POPC   C2B47684  44.564   9.501   6.750
 6966POPC   C3B47685  44.500   9.561   7.050
 6966POPC   C4B47686  44.518   9.534   7.350
 6967POPC   NC347687  12.095  12.027   5.550
 6967POPC   PO447688  12.115  12.112   5.850
 6967POPC   GL147689  12.083  12.092   6.150
 6967POPC   GL247690  12.013  12.221   6.150
 6967POPC   C1A47691  12.056  12.125   6.450
 6967POPC   D2A47692  12.071  12.076   6.750
 6967POPC   C3A47693  12.106  12.072   7.050
 6967POPC   C4A47694  12.026  12.120   7.350
 6967POPC   C1B47695  12.062  12.297   6.450
 6967POPC   C2B47696  12.041  12.313   6.750
 6967POPC   C3B47697  12.066  12.367   7.050
 6967POPC   C4B47698  12.072  12.321   7.350
 6968POPC   NC347699   5.063  25.262   5.550
 6968POPC   PO447700   5.101  25.220   5.850
 6968POPC   GL147701   5.058  25.238   6.150
 6968POPC   GL247702   5.202  25.248   6.150
 6968POPC   C1A47703   5.119  25.244   6.450
 6968POPC   D2A47704   5.113  25.216   6.750
 6968POPC   C3A47705   5.096  25.255   7.050
 6968POPC   C4A47706   5.106  25.293   7.350
 6968POPC   C1B47707   5.368  25.349   6.450
 6968POPC   C2B47708   5.341  25.265   6.750
 6968POPC   C3B47709   5.318  25.277   7.050
 6968POPC   C4B47710   5.311  25.333   7.350
 6969POPC   NC347711  10.523  13.583   5.550
 6969POPC   PO447712  10.486  13.598   5.850
 6969POPC   GL147713  10.516  13.634   6.150
 6969POPC   GL247714  10.615  13.700   6.150
 6969POPC   C1A47715  10.564  13.611   6.450
 6969POPC   D2A47716  10.511  13.597   6.750
 6969POPC   C3A47717  10.486  13.627   7.050
 6969POPC   C4A47718  10.479  13.622   7.350
 6969POPC   C1B47719  10.768  13.729   6.450
 6969POPC   C2B47720  10.785  13.687   6.750
 6969POPC   C3B47721  10.794  13.737   7.050
 6969POPC   C4B47722  10.805  13.702   7.350
 6970POPC   NC347723  27.567  19.099   5.550
 6970POPC   PO447724  27.579  19.062   5.850
 6970POPC   GL147725  27.638  19.071   6.150
 6970POPC   GL247726  27.702  19.015   6.150
 6970POPC   C1A47727  27.614  19.093   6.450
 6970POPC   D2A47728  27.553  19.044   6.750
 6970POPC   C3A47729  27.586  19.037   7.050
 6970POPC   C4A47730  27.545  19.034   7.350
 6970POPC   C1B47731  27.878  19.070   6.450
 6970POPC   C2B47732  27.875  19.024   6.750
 6970POPC   C3B47733  27.877  19.039   7.050
 6970POPC   C4B47734  27.868  19.073   7.350
 6971POPC   NC347735  19.839  21.347   5.550
 6971POPC   PO447736  19.863  21.424   5.850
 6971POPC   GL147737  19.799  21.364   6.150
 6971POPC   GL247738  19.859  21.526   6.150
 6971POPC   C1A47739  19.869  21.353   6.450
 6971POPC   D2A47740  19.876  21.410   6.750
 6971POPC   C3A47741  19.873  21.423   7.050
 6971POPC   C4A47742  19.841  21.406   7.350
 6971POPC   C1B47743  19.871  21.630   6.450
 6971POPC   C2B47744  19.868  21.604   6.750
 6971POPC   C3B47745  19.790  21.636   7.050
 6971POPC   C4B47746  19.812  21.650   7.350
 6972POPC   NC347747  29.952  33.755   5.550
 6972POPC   PO447748  29.970  33.754   5.850
 6972POPC   GL147749  29.917  33.764   6.150
 6972POPC   GL247750  30.027  33.824   6.150
 6972POPC   C1A47751  29.874  33.826   6.450
 6972POPC   D2A47752  29.884  33.780   6.750
 6972POPC   C3A47753  29.907  33.753   7.050
 6972POPC   C4A47754  29.964  33.794   7.350
 6972POPC   C1B47755  30.181  33.794   6.450
 6972POPC   C2B47756  30.131  33.797   6.750
 6972POPC   C3B47757  30.186  33.711   7.050
 6972POPC   C4B47758  30.162  33.724   7.350
 6973POPC   NC347759  20.640  29.153   5.550
 6973POPC   PO447760  20.575  29.125   5.850
 6973POPC   GL147761  20.597  29.118   6.150
 6973POPC   GL247762  20.655  28.995   6.150
 6973POPC   C1A47763  20.604  29.183   6.450
 6973POPC   D2A47764  20.612  29.142   6.750
 6973POPC   C3A47765  20.596  29.101   7.050
 6973POPC   C4A47766  20.596  29.132   7.350
 6973POPC   C1B47767  20.718  28.867   6.450
 6973POPC   C2B47768  20.654  28.914   6.750
 6973POPC   C3B47769  20.676  28.879   7.050
 6973POPC   C4B47770  20.680  28.935   7.350
 6974POPC   NC347771  24.506  11.294   5.550
 6974POPC   PO447772  24.459  11.288   5.850
 6974POPC   GL147773  24.539  11.255   6.150
 6974POPC   GL247774  24.333  11.261   6.150
 6974POPC   C1A47775  24.441  11.323   6.450
 6974POPC   D2A47776  24.452  11.331   6.750
 6974POPC   C3A47777  24.527  11.345   7.050
 6974POPC   C4A47778  24.530  11.332   7.350
 6974POPC   C1B47779  24.209  11.303   6.450
 6974POPC   C2B47780  24.218  11.252   6.750
 6974POPC   C3B47781  24.199  11.316   7.050
 6974POPC   C4B47782  24.239  11.242   7.350
 6975POPC   NC347783  15.210  44.678   5.550
 6975POPC   PO447784  15.192  44.682   5.850
 6975POPC   GL147785  15.146  44.696   6.150
 6975POPC   GL247786  15.065  44.774   6.150
 6975POPC   C1A47787  15.161  44.659   6.450
 6975POPC   D2A47788  15.152  44.704   6.750
 6975POPC   C3A47789  15.204  44.623   7.050
 6975POPC   C4A47790  15.149  44.688   7.350
 6975POPC   C1B47791  14.934  44.753   6.450
 6975POPC   C2B47792  14.918  44.810   6.750
 6975POPC   C3B47793  14.961  44.838   7.050
 6975POPC   C4B47794  14.967  44.758   7.350
 6976POPC   NC347795  20.576  31.511   5.550
 6976POPC   PO447796  20.655  31.457   5.850
 6976POPC   GL147797  20.565  31.498   6.150
 6976POPC   GL247798  20.561  31.608   6.150
 6976POPC   C1A47799  20.638  31.461   6.450
 6976POPC   D2A47800  20.619  31.458   6.750
 6976POPC   C3A47801  20.561  31.437   7.050
 6976POPC   C4A47802  20.569  31.444   7.350
 6976POPC   C1B47803  20.510  31.723   6.450
 6976POPC   C2B47804  20.462  31.649   6.750
 6976POPC   C3B47805  20.423  31.723   7.050
 6976POPC   C4B47806  20.499  31.639   7.350
 6977POPC   NC347807  41.528  44.707   5.550
 6977POPC   PO447808  41.564  44.659   5.850
 6977POPC   GL147809  41.587  44.648   6.150
 6977POPC   GL247810  41.470  44.708   6.150
 6977POPC   C1A47811  41.532  44.696   6.450
 6977POPC   D2A47812  41.575  44.636   6.750
 6977POPC   C3A47813  41.519  44.703   7.050
 6977POPC   C4A47814  41.591  44.642   7.350
 6977POPC   C1B47815  41.353  44.675   6.450
 6977POPC   C2B47816  41.273  44.660   6.750
 6977POPC   C3B47817  41.319  44.679   7.050
 6977POPC   C4B47818  41.318  44.694   7.350
 6978POPC   NC347819  43.117  28.414   5.550
 6978POPC   PO447820  43.132  28.328   5.850
 6978POPC   GL147821  43.075  28.334   6.150
 6978POPC   GL247822  43.159  28.456   6.150
 6978POPC   C1A47823  43.155  28.397   6.450
 6978POPC   D2A47824  43.125  28.355   6.750
 6978POPC   C3A47825  43.110  28.387   7.050
 6978POPC   C4A47826  43.090  28.411   7.350
 6978POPC   C1B47827  43.288  28.612   6.450
 6978POPC   C2B47828  43.236  28.539   6.750
 6978POPC   C3B47829  43.291  28.574   7.050
 6978POPC   C4B47830  43.208  28.591   7.350
 6979POPC   NC347831  32.987  18.325   5.550
 6979POPC   PO447832  33.061  18.319   5.850
 6979POPC   GL147833  33.021  18.257   6.150
 6979POPC   GL247834  32.943  18.428   6.150
 6979POPC   C1A47835  33.040  18.301   6.450
 6979POPC   D2A47836  32.999  18.246   6.750
 6979POPC   C3A47837  32.977  18.246   7.050
 6979POPC   C4A47838  33.040  18.241   7.350
 6979POPC   C1B47839  32.894  18.476   6.450
 6979POPC   C2B47840  32.880  18.500   6.750
 6979POPC   C3B47841  32.853  18.514   7.050
 6979POPC   C4B47842  32.894  18.533   7.350
 6980POPC   NC347843  34.532  39.251   5.550
 6980POPC   PO447844  34.537  39.224   5.850
 6980POPC   GL147845  34.543  39.205   6.150
 6980POPC   GL247846  34.478  39.267   6.150
 6980POPC   C1A47847  34.538  39.195   6.450
 6980POPC   D2A47848  34.594  39.190   6.750
 6980POPC   C3A47849  34.535  39.233   7.050
 6980POPC   C4A47850  34.526  39.207   7.350
 6980POPC   C1B47851  34.359  39.318   6.450
 6980POPC   C2B47852  34.311  39.320   6.750
 6980POPC   C3B47853  34.285  39.285   7.050
 6980POPC   C4B47854  34.289  39.279   7.350
 6981POPC   NC347855  24.469   0.453   5.550
 6981POPC   PO447856  24.453   0.461   5.850
 6981POPC   GL147857  24.520   0.446   6.150
 6981POPC   GL247858  24.393   0.323   6.150
 6981POPC   C1A47859  24.519   0.421   6.450
 6981POPC   D2A47860  24.454   0.428   6.750
 6981POPC   C3A47861  24.521   0.459   7.050
 6981POPC   C4A47862  24.475   0.399   7.350
 6981POPC   C1B47863  24.272   0.261   6.450
 6981POPC   C2B47864  24.228   0.258   6.750
 6981POPC   C3B47865  24.273   0.302   7.050
 6981POPC   C4B47866  24.315   0.308   7.350
 6982POPC   NC347867   9.701  27.572   5.550
 6982POPC   PO447868   9.766  27.633   5.850
 6982POPC   GL147869   9.761  27.578   6.150
 6982POPC   GL247870   9.726  27.746   6.150
 6982POPC   C1A47871   9.712  27.604   6.450
 6982POPC   D2A47872   9.797  27.608   6.750
 6982POPC   C3A47873   9.781  27.544   7.050
 6982POPC   C4A47874   9.705  27.587   7.350
 6982POPC   C1B47875   9.713  27.874   6.450
 6982POPC   C2B47876   9.767  27.855   6.750
 6982POPC   C3B47877   9.718  27.804   7.050
 6982POPC   C4B47878   9.736  27.849   7.350
 6983POPC   NC347879  34.549  38.412   5.550
 6983POPC   PO447880  34.582  38.422   5.850
 6983POPC   GL147881  34.618  38.424   6.150
 6983POPC   GL247882  34.551  38.372   6.150
 6983POPC   C1A47883  34.568  38.423   6.450
 6983POPC   D2A47884  34.587  38.463   6.750
 6983POPC   C3A47885  34.570  38.417   7.050
 6983POPC   C4A47886  34.583  38.426   7.350
 6983POPC   C1B47887  34.476  38.248   6.450
 6983POPC   C2B47888  34.478  38.199   6.750
 6983POPC   C3B47889  34.496  38.199   7.050
 6983POPC   C4B47890  34.528  38.219   7.350
 6984POPC   NC347891  26.776  40.051   5.550
 6984POPC   PO447892  26.804  40.009   5.850
 6984POPC   GL147893  26.861  40.012   6.150
 6984POPC   GL247894  26.681  40.042   6.150
 6984POPC   C1A47895  26.824  39.960   6.450
 6984POPC   D2A47896  26.776  39.961   6.750
 6984POPC   C3A47897  26.854  39.998   7.050
 6984POPC   C4A47898  26.788  40.034   7.350
 6984POPC   C1B47899  26.581  40.038   6.450
 6984POPC   C2B47900  26.585  40.072   6.750
 6984POPC   C3B47901  26.526  40.054   7.050
 6984POPC   C4B47902  26.581  40.093   7.350
 6985POPC   NC347903  12.840   9.757   5.550
 6985POPC   PO447904  12.820   9.717   5.850
 6985POPC   GL147905  12.893   9.728   6.150
 6985POPC   GL247906  12.820   9.618   6.150
 6985POPC   C1A47907  12.808   9.717   6.450
 6985POPC   D2A47908  12.879   9.739   6.750
 6985POPC   C3A47909  12.897   9.751   7.050
 6985POPC   C4A47910  12.901   9.757   7.350
 6985POPC   C1B47911  12.829   9.505   6.450
 6985POPC   C2B47912  12.841   9.473   6.750
 6985POPC   C3B47913  12.841   9.463   7.050
 6985POPC   C4B47914  12.819   9.449   7.350
 6986POPC   NC347915  17.497  37.663   5.550
 6986POPC   PO447916  17.529  37.684   5.850
 6986POPC   GL147917  17.489  37.634   6.150
 6986POPC   GL247918  17.628  37.736   6.150
 6986POPC   C1A47919  17.521  37.712   6.450
 6986POPC   D2A47920  17.463  37.708   6.750
 6986POPC   C3A47921  17.555  37.690   7.050
 6986POPC   C4A47922  17.499  37.681   7.350
 6986POPC   C1B47923  17.748  37.798   6.450
 6986POPC   C2B47924  17.775  37.729   6.750
 6986POPC   C3B47925  17.720  37.779   7.050
 6986POPC   C4B47926  17.728  37.795   7.350
 6987POPC   NC347927  26.854   7.452   5.550
 6987POPC   PO447928  26.838   7.384   5.850
 6987POPC   GL147929  26.785   7.374   6.150
 6987POPC   GL247930  26.725   7.360   6.150
 6987POPC   C1A47931  26.816   7.390   6.450
 6987POPC   D2A47932  26.867   7.427   6.750
 6987POPC   C3A47933  26.769   7.447   7.050
 6987POPC   C4A47934  26.824   7.446   7.350
 6987POPC   C1B47935  26.637   7.224   6.450
 6987POPC   C2B47936  26.701   7.190   6.750
 6987POPC   C3B47937  26.637   7.239   7.050
 6987POPC   C4B47938  26.715   7.196   7.350
 6988POPC   NC347939  23.683  35.315   5.550
 6988POPC   PO447940  23.701  35.367   5.850
 6988POPC   GL147941  23.736  35.328   6.150
 6988POPC   GL247942  23.632  35.466   6.150
 6988POPC   C1A47943  23.734  35.332   6.450
 6988POPC   D2A47944  23.754  35.394   6.750
 6988POPC   C3A47945  23.760  35.318   7.050
 6988POPC   C4A47946  23.764  35.389   7.350
 6988POPC   C1B47947  23.583  35.541   6.450
 6988POPC   C2B47948  23.563  35.620   6.750
 6988POPC   C3B47949  23.639  35.579   7.050
 6988POPC   C4B47950  23.605  35.586   7.350
 6989POPC   NC347951  34.569  33.059   5.550
 6989POPC   PO447952  34.596  33.071   5.850
 6989POPC   GL147953  34.609  33.001   6.150
 6989POPC   GL247954  34.602  33.150   6.150
 6989POPC   C1A47955  34.616  32.977   6.450
 6989POPC   D2A47956  34.622  33.043   6.750
 6989POPC   C3A47957  34.556  33.010   7.050
 6989POPC   C4A47958  34.594  33.008   7.350
 6989POPC   C1B47959  34.668  33.205   6.450
 6989POPC   C2B47960  34.687  33.267   6.750
 6989POPC   C3B47961  34.680  33.232   7.050
 6989POPC   C4B47962  34.666  33.261   7.350
 6990POPC   NC347963   5.858   0.393   5.550
 6990POPC   PO447964   5.850   0.471   5.850
 6990POPC   GL147965   5.827   0.456   6.150
 6990POPC   GL247966   5.981   0.445   6.150
 6990POPC   C1A47967   5.891   0.402   6.450
 6990POPC   D2A47968   5.882   0.423   6.750
 6990POPC   C3A47969   5.857   0.411   7.050
 6990POPC   C4A47970   5.907   0.437   7.350
 6990POPC   C1B47971   6.080   0.414   6.450
 6990POPC   C2B47972   6.134   0.415   6.750
 6990POPC   C3B47973   6.131   0.396   7.050
 6990POPC   C4B47974   6.106   0.481   7.350
 6991POPC   NC347975   1.958   5.114   5.550
 6991POPC   PO447976   1.988   5.094   5.850
 6991POPC   GL147977   1.956   5.073   6.150
 6991POPC   GL247978   1.980   4.962   6.150
 6991POPC   C1A47979   1.948   5.095   6.450
 6991POPC   D2A47980   1.955   5.060   6.750
 6991POPC   C3A47981   2.039   5.076   7.050
 6991POPC   C4A47982   1.977   5.101   7.350
 6991POPC   C1B47983   1.873   4.922   6.450
 6991POPC   C2B47984   1.897   4.908   6.750
 6991POPC   C3B47985   1.845   4.831   7.050
 6991POPC   C4B47986   1.851   4.868   7.350
 6992POPC   NC347987   6.647  43.160   5.550
 6992POPC   PO447988   6.608  43.095   5.850
 6992POPC   GL147989   6.620  43.131   6.150
 6992POPC   GL247990   6.600  43.195   6.150
 6992POPC   C1A47991   6.604  43.100   6.450
 6992POPC   D2A47992   6.610  43.131   6.750
 6992POPC   C3A47993   6.687  43.153   7.050
 6992POPC   C4A47994   6.686  43.106   7.350
 6992POPC   C1B47995   6.503  43.258   6.450
 6992POPC   C2B47996   6.461  43.309   6.750
 6992POPC   C3B47997   6.447  43.270   7.050
 6992POPC   C4B47998   6.531  43.341   7.350
 6993POPC   NC347999  28.401   8.955   5.550
 6993POPC   PO448000  28.408   8.997   5.850
 6993POPC   GL148001  28.408   8.949   6.150
 6993POPC   GL248002  28.412   9.083   6.150
 6993POPC   C1A48003  28.352   8.982   6.450
 6993POPC   D2A48004  28.397   8.982   6.750
 6993POPC   C3A48005  28.372   8.952   7.050
 6993POPC   C4A48006  28.388   8.992   7.350
 6993POPC   C1B48007  28.492   9.216   6.450
 6993POPC   C2B48008  28.461   9.191   6.750
 6993POPC   C3B48009  28.467   9.153   7.050
 6993POPC   C4B48010  28.492   9.173   7.350
 6994POPC   NC348011  43.113   8.989   5.550
 6994POPC   PO448012  43.151   9.020   5.850
 6994POPC   GL148013  43.084   8.949   6.150
 6994POPC   GL248014  43.171   9.055   6.150
 6994POPC   C1A48015  43.122   8.982   6.450
 6994POPC   D2A48016  43.077   8.998   6.750
 6994POPC   C3A48017  43.072   8.928   7.050
 6994POPC   C4A48018  43.113   8.942   7.350
 6994POPC   C1B48019  43.286   9.189   6.450
 6994POPC   C2B48020  43.242   9.159   6.750
 6994POPC   C3B48021  43.278   9.117   7.050
 6994POPC   C4B48022  43.255   9.166   7.350
 6995POPC   NC348023   8.978   1.254   5.550
 6995POPC   PO448024   8.960   1.176   5.850
 6995POPC   GL148025   8.989   1.201   6.150
 6995POPC   GL248026   9.118   1.148   6.150
 6995POPC   C1A48027   9.006   1.168   6.450
 6995POPC   D2A48028   8.952   1.245   6.750
 6995POPC   C3A48029   8.988   1.229   7.050
 6995POPC   C4A48030   8.985   1.191   7.350
 6995POPC   C1B48031   9.256   1.170   6.450
 6995POPC   C2B48032   9.166   1.141   6.750
 6995POPC   C3B48033   9.212   1.146   7.050
 6995POPC   C4B48034   9.208   1.123   7.350
 6996POPC   NC348035  26.033  25.309   5.550
 6996POPC   PO448036  26.055  25.240   5.850
 6996POPC   GL148037  26.030  25.315   6.150
 6996POPC   GL248038  26.179  25.201   6.150
 6996POPC   C1A48039  26.073  25.227   6.450
 6996POPC   D2A48040  26.010  25.229   6.750
 6996POPC   C3A48041  26.008  25.298   7.050
 6996POPC   C4A48042  26.020  25.293   7.350
 6996POPC   C1B48043  26.278  25.185   6.450
 6996POPC   C2B48044  26.222  25.143   6.750
 6996POPC   C3B48045  26.246  25.096   7.050
 6996POPC   C4B48046  26.244  25.115   7.350
 6997POPC   NC348047  33.841   8.175   5.550
 6997POPC   PO448048  33.849   8.228   5.850
 6997POPC   GL148049  33.772   8.149   6.150
 6997POPC   GL248050  33.710   8.169   6.150
 6997POPC   C1A48051  33.779   8.236   6.450
 6997POPC   D2A48052  33.841   8.165   6.750
 6997POPC   C3A48053  33.793   8.189   7.050
 6997POPC   C4A48054  33.762   8.150   7.350
 6997POPC   C1B48055  33.516   8.234   6.450
 6997POPC   C2B48056  33.547   8.160   6.750
 6997POPC   C3B48057  33.565   8.178   7.050
 6997POPC   C4B48058  33.545   8.150   7.350
 6998POPC   NC348059  12.058  30.686   5.550
 6998POPC   PO448060  12.034  30.653   5.850
 6998POPC   GL148061  12.036  30.653   6.150
 6998POPC   GL248062  12.195  30.755   6.150
 6998POPC   C1A48063  12.101  30.691   6.450
 6998POPC   D2A48064  12.065  30.702   6.750
 6998POPC   C3A48065  12.058  30.663   7.050
 6998POPC   C4A48066  12.113  30.680   7.350
 6998POPC   C1B48067  12.204  30.912   6.450
 6998POPC   C2B48068  12.215  30.898   6.750
 6998POPC   C3B48069  12.214  30.910   7.050
 6998POPC   C4B48070  12.276  30.920   7.350
 6999POPC   NC348071  18.276  36.865   5.550
 6999POPC   PO448072  18.290  36.886   5.850
 6999POPC   GL148073  18.267  36.926   6.150
 6999POPC   GL248074  18.125  36.872   6.150
 6999POPC   C1A48075  18.313  36.854   6.450
 6999POPC   D2A48076  18.329  36.905   6.750
 6999POPC   C3A48077  18.304  36.918   7.050
 6999POPC   C4A48078  18.293  36.877   7.350
 6999POPC   C1B48079  18.029  36.802   6.450
 6999POPC   C2B48080  18.047  36.765   6.750
 6999POPC   C3B48081  18.087  36.789   7.050
 6999POPC   C4B48082  18.010  36.790   7.350
 7000POPC   NC348083  28.393  36.898   5.550
 7000POPC   PO448084  28.340  36.925   5.850
 7000POPC   GL148085  28.402  36.928   6.150
 7000POPC   GL248086  28.432  37.003   6.150
 7000POPC   C1A48087  28.393  36.857   6.450
 7000POPC   D2A48088  28.321  36.900   6.750
 7000POPC   C3A48089  28.343  36.945   7.050
 7000POPC   C4A48090  28.411  36.919   7.350
 7000POPC   C1B48091  28.561  37.157   6.450
 7000POPC   C2B48092  28.525  37.153   6.750
 7000POPC   C3B48093  28.486  37.102   7.050
 7000POPC   C4B48094  28.470  37.083   7.350
 7001POPC   NC348095   8.978  24.490   5.550
 7001POPC   PO448096   8.930  24.485   5.850
 7001POPC   GL148097   8.950  24.468   6.150
 7001POPC   GL248098   8.843  24.482   6.150
 7001POPC   C1A48099   8.961  24.461   6.450
 7001POPC   D2A48100   8.968  24.464   6.750
 7001POPC   C3A48101   8.977  24.532   7.050
 7001POPC   C4A48102   9.013  24.465   7.350
 7001POPC   C1B48103   8.728  24.403   6.450
 7001POPC   C2B48104   8.746  24.476   6.750
 7001POPC   C3B48105   8.735  24.472   7.050
 7001POPC   C4B48106   8.686  24.488   7.350
 7002POPC   NC348107  39.205  29.152   5.550
 7002POPC   PO448108  39.267  29.099   5.850
 7002POPC   GL148109  39.214  29.118   6.150
 7002POPC   GL248110  39.223  29.004   6.150
 7002POPC   C1A48111  39.278  29.190   6.450
 7002POPC   D2A48112  39.185  29.160   6.750
 7002POPC   C3A48113  39.198  29.140   7.050
 7002POPC   C4A48114  39.253  29.111   7.350
 7002POPC   C1B48115  39.124  28.915   6.450
 7002POPC   C2B48116  39.165  28.910   6.750
 7002POPC   C3B48117  39.190  28.912   7.050
 7002POPC   C4B48118  39.132  28.899   7.350
 7003POPC   NC348119   8.955  41.607   5.550
 7003POPC   PO448120   8.963  41.557   5.850
 7003POPC   GL148121   9.009  41.587   6.150
 7003POPC   GL248122   8.889  41.657   6.150
 7003POPC   C1A48123   8.948  41.536   6.450
 7003POPC   D2A48124   9.018  41.532   6.750
 7003POPC   C3A48125   8.961  41.554   7.050
 7003POPC   C4A48126   9.014  41.513   7.350
 7003POPC   C1B48127   8.729  41.707   6.450
 7003POPC   C2B48128   8.716  41.634   6.750
 7003POPC   C3B48129   8.787  41.616   7.050
 7003POPC   C4B48130   8.786  41.647   7.350
 7004POPC   NC348131  13.589  36.946   5.550
 7004POPC   PO448132  13.659  36.939   5.850
 7004POPC   GL148133  13.667  36.892   6.150
 7004POPC   GL248134  13.658  36.819   6.150
 7004POPC   C1A48135  13.618  36.860   6.450
 7004POPC   D2A48136  13.637  36.887   6.750
 7004POPC   C3A48137  13.675  36.934   7.050
 7004POPC   C4A48138  13.604  36.915   7.350
 7004POPC   C1B48139  13.565  36.698   6.450
 7004POPC   C2B48140  13.554  36.640   6.750
 7004POPC   C3B48141  13.638  36.666   7.050
 7004POPC   C4B48142  13.635  36.612   7.350
 7005POPC   NC348143  31.451  12.089   5.550
 7005POPC   PO448144  31.469  12.082   5.850
 7005POPC   GL148145  31.494  12.041   6.150
 7005POPC   GL248146  31.493  12.236   6.150
 7005POPC   C1A48147  31.475  12.120   6.450
 7005POPC   D2A48148  31.480  12.029   6.750
 7005POPC   C3A48149  31.424  12.087   7.050
 7005POPC   C4A48150  31.464  12.033   7.350
 7005POPC   C1B48151  31.457  12.366   6.450
 7005POPC   C2B48152  31.453  12.321   6.750
 7005POPC   C3B48153  31.482  12.295   7.050
 7005POPC   C4B48154  31.437  12.319   7.350
 7006POPC   NC348155  18.315  38.481   5.550
 7006POPC   PO448156  18.272  38.460   5.850
 7006POPC   GL148157  18.239  38.411   6.150
 7006POPC   GL248158  18.174  38.422   6.150
 7006POPC   C1A48159  18.279  38.491   6.450
 7006POPC   D2A48160  18.279  38.431   6.750
 7006POPC   C3A48161  18.265  38.493   7.050
 7006POPC   C4A48162  18.285  38.472   7.350
 7006POPC   C1B48163  18.104  38.383   6.450
 7006POPC   C2B48164  18.070  38.374   6.750
 7006POPC   C3B48165  18.049  38.322   7.050
 7006POPC   C4B48166  18.094  38.314   7.350
 7007POPC   NC348167  39.964  23.735   5.550
 7007POPC   PO448168  39.968  23.722   5.850
 7007POPC   GL148169  40.018  23.735   6.150
 7007POPC   GL248170  40.155  23.732   6.150
 7007POPC   C1A48171  39.997  23.741   6.450
 7007POPC   D2A48172  40.022  23.739   6.750
 7007POPC   C3A48173  40.056  23.675   7.050
 7007POPC   C4A48174  39.981  23.737   7.350
 7007POPC   C1B48175  40.274  23.775   6.450
 7007POPC   C2B48176  40.229  23.772   6.750
 7007POPC   C3B48177  40.212  23.784   7.050
 7007POPC   C4B48178  40.241  23.767   7.350
 7008POPC   NC348179  19.840  35.362   5.550
 7008POPC   PO448180  19.794  35.317   5.850
 7008POPC   GL148181  19.826  35.398   6.150
 7008POPC   GL248182  19.838  35.467   6.150
 7008POPC   C1A48183  19.866  35.386   6.450
 7008POPC   D2A48184  19.810  35.325   6.750
 7008POPC   C3A48185  19.805  35.379   7.050
 7008POPC   C4A48186  19.817  35.341   7.350
 7008POPC   C1B48187  19.878  35.559   6.450
 7008POPC   C2B48188  19.956  35.565   6.750
 7008POPC   C3B48189  19.967  35.606   7.050
 7008POPC   C4B48190  19.973  35.551   7.350
 7009POPC   NC348191  31.423  15.149   5.550
 7009POPC   PO448192  31.482  15.156   5.850
 7009POPC   GL148193  31.474  15.209   6.150
 7009POPC   GL248194  31.338  15.095   6.150
 7009POPC   C1A48195  31.452  15.182   6.450
 7009POPC   D2A48196  31.437  15.178   6.750
 7009POPC   C3A48197  31.429  15.225   7.050
 7009POPC   C4A48198  31.453  15.144   7.350
 7009POPC   C1B48199  31.255  15.012   6.450
 7009POPC   C2B48200  31.336  15.035   6.750
 7009POPC   C3B48201  31.313  14.952   7.050
 7009POPC   C4B48202  31.333  15.029   7.350
 7010POPC   NC348203  12.104  26.783   5.550
 7010POPC   PO448204  12.114  26.856   5.850
 7010POPC   GL148205  12.107  26.787   6.150
 7010POPC   GL248206  11.944  26.801   6.150
 7010POPC   C1A48207  12.108  26.777   6.450
 7010POPC   D2A48208  12.026  26.784   6.750
 7010POPC   C3A48209  12.096  26.768   7.050
 7010POPC   C4A48210  12.079  26.852   7.350
 7010POPC   C1B48211  11.785  26.836   6.450
 7010POPC   C2B48212  11.836  26.862   6.750
 7010POPC   C3B48213  11.867  26.832   7.050
 7010POPC   C4B48214  11.846  26.883   7.350
 7011POPC   NC348215  13.609  33.057   5.550
 7011POPC   PO448216  13.645  32.975   5.850
 7011POPC   GL148217  13.640  32.974   6.150
 7011POPC   GL248218  13.489  33.110   6.150
 7011POPC   C1A48219  13.589  33.012   6.450
 7011POPC   D2A48220  13.595  33.037   6.750
 7011POPC   C3A48221  13.628  32.992   7.050
 7011POPC   C4A48222  13.617  33.053   7.350
 7011POPC   C1B48223  13.393  33.156   6.450
 7011POPC   C2B48224  13.481  33.164   6.750
 7011POPC   C3B48225  13.464  33.170   7.050
 7011POPC   C4B48226  13.438  33.168   7.350
 7012POPC   NC348227  37.721  28.373   5.550
 7012POPC   PO448228  37.694  28.371   5.850
 7012POPC   GL148229  37.677  28.394   6.150
 7012POPC   GL248230  37.630  28.304   6.150
 7012POPC   C1A48231  37.659  28.414   6.450
 7012POPC   D2A48232  37.660  28.381   6.750
 7012POPC   C3A48233  37.677  28.381   7.050
 7012POPC   C4A48234  37.671  28.369   7.350
 7012POPC   C1B48235  37.594  28.106   6.450
 7012POPC   C2B48236  37.571  28.190   6.750
 7012POPC   C3B48237  37.528  28.159   7.050
 7012POPC   C4B48238  37.545  28.184   7.350
 7013POPC   NC348239  14.431  29.133   5.550
 7013POPC   PO448240  14.362  29.123   5.850
 7013POPC   GL148241  14.420  29.105   6.150
 7013POPC   GL248242  14.366  29.209   6.150
 7013POPC   C1A48243  14.450  29.171   6.450
 7013POPC   D2A48244  14.361  29.147   6.750
 7013POPC   C3A48245  14.376  29.176   7.050
 7013POPC   C4A48246  14.420  29.109   7.350
 7013POPC   C1B48247  14.291  29.317   6.450
 7013POPC   C2B48248  14.257  29.377   6.750
 7013POPC   C3B48249  14.257  29.393   7.050
 7013POPC   C4B48250  14.237  29.324   7.350
 7014POPC   NC348251  42.374   9.767   5.550
 7014POPC   PO448252  42.326   9.716   5.850
 7014POPC   GL148253  42.375   9.718   6.150
 7014POPC   GL248254  42.400   9.848   6.150
 7014POPC   C1A48255  42.353   9.769   6.450
 7014POPC   D2A48256  42.288   9.767   6.750
 7014POPC   C3A48257  42.301   9.700   7.050
 7014POPC   C4A48258  42.367   9.768   7.350
 7014POPC   C1B48259  42.376   9.989   6.450
 7014POPC   C2B48260  42.415   9.988   6.750
 7014POPC   C3B48261  42.362  10.025   7.050
 7014POPC   C4B48262  42.339   9.963   7.350
 7015POPC   NC348263  31.477  21.414   5.550
 7015POPC   PO448264  31.425  21.352   5.850
 7015POPC   GL148265  31.508  21.374   6.150
 7015POPC   GL248266  31.390  21.387   6.150
 7015POPC   C1A48267  31.487  21.376   6.450
 7015POPC   D2A48268  31.440  21.430   6.750
 7015POPC   C3A48269  31.465  21.404   7.050
 7015POPC   C4A48270  31.498  21.341   7.350
 7015POPC   C1B48271  31.271  21.344   6.450
 7015POPC   C2B48272  31.188  21.393   6.750
 7015POPC   C3B48273  31.201  21.391   7.050
 7015POPC   C4B48274  31.264  21.325   7.350
 7016POPC   NC348275   1.945  15.154   5.550
 7016POPC   PO448276   2.003  15.138   5.850
 7016POPC   GL148277   2.014  15.139   6.150
 7016POPC   GL248278   2.152  15.223   6.150
 7016POPC   C1A48279   1.955  15.169   6.450
 7016POPC   D2A48280   1.976  15.165   6.750
 7016POPC   C3A48281   1.993  15.176   7.050
 7016POPC   C4A48282   2.031  15.161   7.350
 7016POPC   C1B48283   2.258  15.168   6.450
 7016POPC   C2B48284   2.193  15.240   6.750
 7016POPC   C3B48285   2.237  15.219   7.050
 7016POPC   C4B48286   2.215  15.193   7.350
 7017POPC   NC348287  22.197  12.856   5.550
 7017POPC   PO448288  22.179  12.865   5.850
 7017POPC   GL148289  22.126  12.861   6.150
 7017POPC   GL248290  22.173  12.961   6.150
 7017POPC   C1A48291  22.165  12.821   6.450
 7017POPC   D2A48292  22.159  12.873   6.750
 7017POPC   C3A48293  22.152  12.886   7.050
 7017POPC   C4A48294  22.162  12.845   7.350
 7017POPC   C1B48295  22.226  13.064   6.450
 7017POPC   C2B48296  22.201  13.117   6.750
 7017POPC   C3B48297  22.209  13.129   7.050
 7017POPC   C4B48298  22.227  13.106   7.350
 7018POPC   NC348299  14.354  24.521   5.550
 7018POPC   PO448300  14.428  24.457   5.850
 7018POPC   GL148301  14.390  24.465   6.150
 7018POPC   GL248302  14.292  24.646   6.150
 7018POPC   C1A48303  14.410  24.477   6.450
 7018POPC   D2A48304  14.360  24.473   6.750
 7018POPC   C3A48305  14.430  24.488   7.050
 7018POPC   C4A48306  14.446  24.465   7.350
 7018POPC   C1B48307  14.292  24.746   6.450
 7018POPC   C2B48308  14.252  24.669   6.750
 7018POPC   C3B48309  14.311  24.695   7.050
 7018POPC   C4B48310  14.279  24.725   7.350
 7019POPC   NC348311  38.497  22.121   5.550
 7019POPC   PO448312  38.423  22.161   5.850
 7019POPC   GL148313  38.415  22.155   6.150
 7019POPC   GL248314  38.524  22.074   6.150
 7019POPC   C1A48315  38.416  22.167   6.450
 7019POPC   D2A48316  38.464  22.173   6.750
 7019POPC   C3A48317  38.505  22.141   7.050
 7019POPC   C4A48318  38.489  22.149   7.350
 7019POPC   C1B48319  38.605  21.934   6.450
 7019POPC   C2B48320  38.651  21.956   6.750
 7019POPC   C3B48321  38.657  21.988   7.050
 7019POPC   C4B48322  38.596  21.954   7.350
 7020POPC   NC348323   8.214  12.870   5.550
 7020POPC   PO448324   8.158  12.824   5.850
 7020POPC   GL148325   8.174  12.836   6.150
 7020POPC   GL248326   8.085  12.847   6.150
 7020POPC   C1A48327   8.193  12.805   6.450
 7020POPC   D2A48328   8.185  12.896   6.750
 7020POPC   C3A48329   8.234  12.818   7.050
 7020POPC   C4A48330   8.206  12.867   7.350
 7020POPC   C1B48331   7.929  12.924   6.450
 7020POPC   C2B48332   7.953  12.926   6.750
 7020POPC   C3B48333   7.977  12.975   7.050
 7020POPC   C4B48334   7.932  12.953   7.350
 7021POPC   NC348335  29.926  39.258   5.550
 7021POPC   PO448336  29.925  39.233   5.850
 7021POPC   GL148337  29.880  39.256   6.150
 7021POPC   GL248338  29.844  39.332   6.150
 7021POPC   C1A48339  29.893  39.255   6.450
 7021POPC   D2A48340  29.916  39.233   6.750
 7021POPC   C3A48341  29.891  39.236   7.050
 7021POPC   C4A48342  29.874  39.240   7.350
 7021POPC   C1B48343  29.815  39.411   6.450
 7021POPC   C2B48344  29.778  39.502   6.750
 7021POPC   C3B48345  29.852  39.409   7.050
 7021POPC   C4B48346  29.798  39.472   7.350
 7022POPC   NC348347  25.304  19.846   5.550
 7022POPC   PO448348  25.227  19.867   5.850
 7022POPC   GL148349  25.274  19.808   6.150
 7022POPC   GL248350  25.120  19.826   6.150
 7022POPC   C1A48351  25.261  19.819   6.450
 7022POPC   D2A48352  25.283  19.881   6.750
 7022POPC   C3A48353  25.314  19.862   7.050
 7022POPC   C4A48354  25.283  19.824   7.350
 7022POPC   C1B48355  24.975  19.869   6.450
 7022POPC   C2B48356  25.050  19.870   6.750
 7022POPC   C3B48357  25.053  19.854   7.050
 7022POPC   C4B48358  24.995  19.897   7.350
 7023POPC   NC348359   4.319  41.534   5.550
 7023POPC   PO448360   4.307  41.586   5.850
 7023POPC   GL148361   4.271  41.546   6.150
 7023POPC   GL248362   4.304  41.393   6.150
 7023POPC   C1A48363   4.307  41.594   6.450
 7023POPC   D2A48364   4.328  41.543   6.750
 7023POPC   C3A48365   4.304  41.540   7.050
 7023POPC   C4A48366   4.363  41.569   7.350
 7023POPC   C1B48367   4.323  41.271   6.450
 7023POPC   C2B48368   4.298  41.336   6.750
 7023POPC   C3B48369   4.334  41.323   7.050
 7023POPC   C4B48370   4.302  41.357   7.350
 7024POPC   NC348371  43.123  20.563   5.550
 7024POPC   PO448372  43.135  20.638   5.850
 7024POPC   GL148373  43.141  20.637   6.150
 7024POPC   GL248374  43.076  20.531   6.150
 7024POPC   C1A48375  43.095  20.601   6.450
 7024POPC   D2A48376  43.067  20.572   6.750
 7024POPC   C3A48377  43.064  20.567   7.050
 7024POPC   C4A48378  43.128  20.604   7.350
 7024POPC   C1B48379  43.105  20.403   6.450
 7024POPC   C2B48380  43.090  20.394   6.750
 7024POPC   C3B48381  43.092  20.368   7.050
 7024POPC   C4B48382  43.128  20.333   7.350
 7025POPC   NC348383  29.171  34.541   5.550
 7025POPC   PO448384  29.101  34.529   5.850
 7025POPC   GL148385  29.129  34.579   6.150
 7025POPC   GL248386  29.083  34.707   6.150
 7025POPC   C1A48387  29.186  34.536   6.450
 7025POPC   D2A48388  29.106  34.583   6.750
 7025POPC   C3A48389  29.099  34.623   7.050
 7025POPC   C4A48390  29.157  34.530   7.350
 7025POPC   C1B48391  29.093  34.827   6.450
 7025POPC   C2B48392  29.066  34.828   6.750
 7025POPC   C3B48393  29.056  34.773   7.050
 7025POPC   C4B48394  29.099  34.837   7.350
 7026POPC   NC348395   0.398  43.900   5.550
 7026POPC   PO448396   0.472  43.893   5.850
 7026POPC   GL148397   0.471  43.857   6.150
 7026POPC   GL248398   0.456  44.029   6.150
 7026POPC   C1A48399   0.454  43.869   6.450
 7026POPC   D2A48400   0.485  43.856   6.750
 7026POPC   C3A48401   0.483  43.855   7.050
 7026POPC   C4A48402   0.443  43.902   7.350
 7026POPC   C1B48403   0.443  44.161   6.450
 7026POPC   C2B48404   0.386  44.113   6.750
 7026POPC   C3B48405   0.409  44.175   7.050
 7026POPC   C4B48406   0.473  44.109   7.350
 7027POPC   NC348407  32.270  40.754   5.550
 7027POPC   PO448408  32.263  40.804   5.850
 7027POPC   GL148409  32.271  40.739   6.150
 7027POPC   GL248410  32.387  40.818   6.150
 7027POPC   C1A48411  32.263  40.798   6.450
 7027POPC   D2A48412  32.233  40.810   6.750
 7027POPC   C3A48413  32.297  40.831   7.050
 7027POPC   C4A48414  32.212  40.829   7.350
 7027POPC   C1B48415  32.485  40.884   6.450
 7027POPC   C2B48416  32.408  40.884   6.750
 7027POPC   C3B48417  32.476  40.904   7.050
 7027POPC   C4B48418  32.417  40.935   7.350
 7028POPC   NC348419  15.911  21.421   5.550
 7028POPC   PO448420  15.937  21.380   5.850
 7028POPC   GL148421  15.915  21.349   6.150
 7028POPC   GL248422  15.954  21.496   6.150
 7028POPC   C1A48423  15.999  21.360   6.450
 7028POPC   D2A48424  15.955  21.435   6.750
 7028POPC   C3A48425  15.936  21.342   7.050
 7028POPC   C4A48426  15.969  21.365   7.350
 7028POPC   C1B48427  16.035  21.607   6.450
 7028POPC   C2B48428  16.007  21.642   6.750
 7028POPC   C3B48429  16.016  21.592   7.050
 7028POPC   C4B48430  16.092  21.663   7.350
 7029POPC   NC348431  31.467   4.298   5.550
 7029POPC   PO448432  31.470   4.310   5.850
 7029POPC   GL148433  31.432   4.306   6.150
 7029POPC   GL248434  31.535   4.465   6.150
 7029POPC   C1A48435  31.450   4.304   6.450
 7029POPC   D2A48436  31.499   4.305   6.750
 7029POPC   C3A48437  31.459   4.367   7.050
 7029POPC   C4A48438  31.506   4.267   7.350
 7029POPC   C1B48439  31.578   4.549   6.450
 7029POPC   C2B48440  31.564   4.520   6.750
 7029POPC   C3B48441  31.534   4.536   7.050
 7029POPC   C4B48442  31.503   4.552   7.350
 7030POPC   NC348443  14.413   1.190   5.550
 7030POPC   PO448444  14.384   1.208   5.850
 7030POPC   GL148445  14.402   1.247   6.150
 7030POPC   GL248446  14.381   1.358   6.150
 7030POPC   C1A48447  14.381   1.176   6.450
 7030POPC   D2A48448  14.420   1.261   6.750
 7030POPC   C3A48449  14.438   1.214   7.050
 7030POPC   C4A48450  14.430   1.247   7.350
 7030POPC   C1B48451  14.426   1.452   6.450
 7030POPC   C2B48452  14.391   1.498   6.750
 7030POPC   C3B48453  14.361   1.426   7.050
 7030POPC   C4B48454  14.435   1.415   7.350
 7031POPC   NC348455  30.743  19.041   5.550
 7031POPC   PO448456  30.727  19.079   5.850
 7031POPC   GL148457  30.740  19.040   6.150
 7031POPC   GL248458  30.594  19.101   6.150
 7031POPC   C1A48459  30.691  19.091   6.450
 7031POPC   D2A48460  30.701  19.070   6.750
 7031POPC   C3A48461  30.684  19.084   7.050
 7031POPC   C4A48462  30.650  19.108   7.350
 7031POPC   C1B48463  30.468  19.142   6.450
 7031POPC   C2B48464  30.503  19.098   6.750
 7031POPC   C3B48465  30.501  19.164   7.050
 7031POPC   C4B48466  30.502  19.136   7.350
 7032POPC   NC348467  29.887  12.088   5.550
 7032POPC   PO448468  29.966  12.098   5.850
 7032POPC   GL148469  29.911  12.048   6.150
 7032POPC   GL248470  30.048  12.162   6.150
 7032POPC   C1A48471  29.893  12.078   6.450
 7032POPC   D2A48472  29.902  12.041   6.750
 7032POPC   C3A48473  29.960  12.040   7.050
 7032POPC   C4A48474  29.881  12.029   7.350
 7032POPC   C1B48475  30.123  12.214   6.450
 7032POPC   C2B48476  30.150  12.275   6.750
 7032POPC   C3B48477  30.103  12.260   7.050
 7032POPC   C4B48478  30.135  12.210   7.350
 7033POPC   NC348479  40.815  26.819   5.550
 7033POPC   PO448480  40.741  26.867   5.850
 7033POPC   GL148481  40.830  26.812   6.150
 7033POPC   GL248482  40.790  26.743   6.150
 7033POPC   C1A48483  40.771  26.845   6.450
 7033POPC   D2A48484  40.783  26.848   6.750
 7033POPC   C3A48485  40.743  26.783   7.050
 7033POPC   C4A48486  40.763  26.812   7.350
 7033POPC   C1B48487  40.833  26.596   6.450
 7033POPC   C2B48488  40.789  26.542   6.750
 7033POPC   C3B48489  40.817  26.530   7.050
 7033POPC   C4B48490  40.837  26.585   7.350
 7034POPC   NC348491  11.308  29.140   5.550
 7034POPC   PO448492  11.348  29.142   5.850
 7034POPC   GL148493  11.250  29.173   6.150
 7034POPC   GL248494  11.432  29.095   6.150
 7034POPC   C1A48495  11.347  29.138   6.450
 7034POPC   D2A48496  11.278  29.182   6.750
 7034POPC   C3A48497  11.289  29.167   7.050
 7034POPC   C4A48498  11.305  29.144   7.350
 7034POPC   C1B48499  11.492  29.013   6.450
 7034POPC   C2B48500  11.449  28.977   6.750
 7034POPC   C3B48501  11.454  28.970   7.050
 7034POPC   C4B48502  11.473  28.978   7.350
 7035POPC   NC348503  11.272  32.238   5.550
 7035POPC   PO448504  11.329  32.277   5.850
 7035POPC   GL148505  11.285  32.237   6.150
 7035POPC   GL248506  11.214  32.171   6.150
 7035POPC   C1A48507  11.320  32.264   6.450
 7035POPC   D2A48508  11.261  32.214   6.750
 7035POPC   C3A48509  11.277  32.245   7.050
 7035POPC   C4A48510  11.331  32.209   7.350
 7035POPC   C1B48511  11.178  32.075   6.450
 7035POPC   C2B48512  11.128  32.042   6.750
 7035POPC   C3B48513  11.116  32.083   7.050
 7035POPC   C4B48514  11.148  32.050   7.350
 7036POPC   NC348515  23.741  43.929   5.550
 7036POPC   PO448516  23.681  43.932   5.850
 7036POPC   GL148517  23.739  43.918   6.150
 7036POPC   GL248518  23.715  44.019   6.150
 7036POPC   C1A48519  23.756  43.875   6.450
 7036POPC   D2A48520  23.693  43.892   6.750
 7036POPC   C3A48521  23.675  43.928   7.050
 7036POPC   C4A48522  23.739  43.850   7.350
 7036POPC   C1B48523  23.792  44.138   6.450
 7036POPC   C2B48524  23.745  44.170   6.750
 7036POPC   C3B48525  23.753  44.147   7.050
 7036POPC   C4B48526  23.824  44.097   7.350
 7037POPC   NC348527  19.791   7.398   5.550
 7037POPC   PO448528  19.824   7.465   5.850
 7037POPC   GL148529  19.816   7.392   6.150
 7037POPC   GL248530  19.701   7.472   6.150
 7037POPC   C1A48531  19.868   7.463   6.450
 7037POPC   D2A48532  19.879   7.453   6.750
 7037POPC   C3A48533  19.851   7.411   7.050
 7037POPC   C4A48534  19.880   7.431   7.350
 7037POPC   C1B48535  19.583   7.531   6.450
 7037POPC   C2B48536  19.604   7.491   6.750
 7037POPC   C3B48537  19.592   7.515   7.050
 7037POPC   C4B48538  19.610   7.507   7.350
 7038POPC   NC348539  35.341  33.062   5.550
 7038POPC   PO448540  35.303  33.023   5.850
 7038POPC   GL148541  35.368  33.006   6.150
 7038POPC   GL248542  35.351  33.116   6.150
 7038POPC   C1A48543  35.386  32.984   6.450
 7038POPC   D2A48544  35.376  33.064   6.750
 7038POPC   C3A48545  35.304  33.032   7.050
 7038POPC   C4A48546  35.311  33.011   7.350
 7038POPC   C1B48547  35.440  33.228   6.450
 7038POPC   C2B48548  35.462  33.218   6.750
 7038POPC   C3B48549  35.391  33.274   7.050
 7038POPC   C4B48550  35.423  33.301   7.350
 7039POPC   NC348551  21.372  30.738   5.550
 7039POPC   PO448552  21.420  30.741   5.850
 7039POPC   GL148553  21.434  30.704   6.150
 7039POPC   GL248554  21.294  30.683   6.150
 7039POPC   C1A48555  21.377  30.737   6.450
 7039POPC   D2A48556  21.357  30.734   6.750
 7039POPC   C3A48557  21.365  30.691   7.050
 7039POPC   C4A48558  21.427  30.701   7.350
 7039POPC   C1B48559  21.165  30.645   6.450
 7039POPC   C2B48560  21.175  30.620   6.750
 7039POPC   C3B48561  21.092  30.701   7.050
 7039POPC   C4B48562  21.136  30.654   7.350
 7040POPC   NC348563  25.225  44.638   5.550
 7040POPC   PO448564  25.282  44.645   5.850
 7040POPC   GL148565  25.241  44.627   6.150
 7040POPC   GL248566  25.178  44.527   6.150
 7040POPC   C1A48567  25.225  44.671   6.450
 7040POPC   D2A48568  25.254  44.622   6.750
 7040POPC   C3A48569  25.308  44.709   7.050
 7040POPC   C4A48570  25.244  44.646   7.350
 7040POPC   C1B48571  25.167  44.449   6.450
 7040POPC   C2B48572  25.162  44.451   6.750
 7040POPC   C3B48573  25.139  44.380   7.050
 7040POPC   C4B48574  25.195  44.469   7.350
 7041POPC   NC348575  13.608   7.415   5.550
 7041POPC   PO448576  13.614   7.442   5.850
 7041POPC   GL148577  13.647   7.376   6.150
 7041POPC   GL248578  13.563   7.523   6.150
 7041POPC   C1A48579  13.667   7.464   6.450
 7041POPC   D2A48580  13.584   7.419   6.750
 7041POPC   C3A48581  13.650   7.379   7.050
 7041POPC   C4A48582  13.669   7.391   7.350
 7041POPC   C1B48583  13.505   7.648   6.450
 7041POPC   C2B48584  13.569   7.619   6.750
 7041POPC   C3B48585  13.536   7.684   7.050
 7041POPC   C4B48586  13.527   7.604   7.350
 7042POPC   NC348587  14.446  29.966   5.550
 7042POPC   PO448588  14.418  29.948   5.850
 7042POPC   GL148589  14.447  29.930   6.150
 7042POPC   GL248590  14.546  30.017   6.150
 7042POPC   C1A48591  14.396  29.918   6.450
 7042POPC   D2A48592  14.409  29.968   6.750
 7042POPC   C3A48593  14.405  29.926   7.050
 7042POPC   C4A48594  14.434  29.904   7.350
 7042POPC   C1B48595  14.583  30.130   6.450
 7042POPC   C2B48596  14.627  30.119   6.750
 7042POPC   C3B48597  14.614  30.067   7.050
 7042POPC   C4B48598  14.588  30.103   7.350
 7043POPC   NC348599  34.610  18.252   5.550
 7043POPC   PO448600  34.561  18.324   5.850
 7043POPC   GL148601  34.610  18.325   6.150
 7043POPC   GL248602  34.738  18.242   6.150
 7043POPC   C1A48603  34.560  18.309   6.450
 7043POPC   D2A48604  34.588  18.266   6.750
 7043POPC   C3A48605  34.561  18.248   7.050
 7043POPC   C4A48606  34.587  18.257   7.350
 7043POPC   C1B48607  34.831  18.316   6.450
 7043POPC   C2B48608  34.825  18.270   6.750
 7043POPC   C3B48609  34.811  18.341   7.050
 7043POPC   C4B48610  34.822  18.339   7.350
 7044POPC   NC348611  43.129   0.410   5.550
 7044POPC   PO448612  43.148   0.483   5.850
 7044POPC   GL148613  43.114   0.450   6.150
 7044POPC   GL248614  43.059   0.338   6.150
 7044POPC   C1A48615  43.122   0.431   6.450
 7044POPC   D2A48616  43.149   0.430   6.750
 7044POPC   C3A48617  43.142   0.473   7.050
 7044POPC   C4A48618  43.084   0.447   7.350
 7044POPC   C1B48619  43.005   0.283   6.450
 7044POPC   C2B48620  42.944   0.249   6.750
 7044POPC   C3B48621  42.929   0.262   7.050
 7044POPC   C4B48622  42.956   0.264   7.350
 7045POPC   NC348623  39.181  39.274   5.550
 7045POPC   PO448624  39.223  39.197   5.850
 7045POPC   GL148625  39.260  39.254   6.150
 7045POPC   GL248626  39.187  39.342   6.150
 7045POPC   C1A48627  39.194  39.208   6.450
 7045POPC   D2A48628  39.261  39.217   6.750
 7045POPC   C3A48629  39.243  39.256   7.050
 7045POPC   C4A48630  39.194  39.248   7.350
 7045POPC   C1B48631  39.195  39.479   6.450
 7045POPC   C2B48632  39.200  39.454   6.750
 7045POPC   C3B48633  39.210  39.436   7.050
 7045POPC   C4B48634  39.223  39.442   7.350
 7046POPC   NC348635  15.213  26.865   5.550
 7046POPC   PO448636  15.201  26.858   5.850
 7046POPC   GL148637  15.180  26.787   6.150
 7046POPC   GL248638  15.096  26.788   6.150
 7046POPC   C1A48639  15.210  26.773   6.450
 7046POPC   D2A48640  15.136  26.848   6.750
 7046POPC   C3A48641  15.144  26.793   7.050
 7046POPC   C4A48642  15.152  26.864   7.350
 7046POPC   C1B48643  14.913  26.794   6.450
 7046POPC   C2B48644  14.960  26.847   6.750
 7046POPC   C3B48645  14.941  26.827   7.050
 7046POPC   C4B48646  14.959  26.798   7.350
 7047POPC   NC348647  16.691  15.218   5.550
 7047POPC   PO448648  16.717  15.183   5.850
 7047POPC   GL148649  16.729  15.212   6.150
 7047POPC   GL248650  16.674  15.050   6.150
 7047POPC   C1A48651  16.717  15.147   6.450
 7047POPC   D2A48652  16.752  15.185   6.750
 7047POPC   C3A48653  16.706  15.172   7.050
 7047POPC   C4A48654  16.694  15.134   7.350
 7047POPC   C1B48655  16.514  15.028   6.450
 7047POPC   C2B48656  16.564  15.031   6.750
 7047POPC   C3B48657  16.568  15.014   7.050
 7047POPC   C4B48658  16.498  14.990   7.350
 7048POPC   NC348659  35.321  12.080   5.550
 7048POPC   PO448660  35.363  12.123   5.850
 7048POPC   GL148661  35.319  12.089   6.150
 7048POPC   GL248662  35.449  12.148   6.150
 7048POPC   C1A48663  35.312  12.086   6.450
 7048POPC   D2A48664  35.360  12.031   6.750
 7048POPC   C3A48665  35.352  12.040   7.050
 7048POPC   C4A48666  35.328  12.044   7.350
 7048POPC   C1B48667  35.518  12.276   6.450
 7048POPC   C2B48668  35.493  12.259   6.750
 7048POPC   C3B48669  35.505  12.234   7.050
 7048POPC   C4B48670  35.568  12.223   7.350
 7049POPC   NC348671  28.390  33.802   5.550
 7049POPC   PO448672  28.407  33.802   5.850
 7049POPC   GL148673  28.413  33.756   6.150
 7049POPC   GL248674  28.215  33.805   6.150
 7049POPC   C1A48675  28.346  33.846   6.450
 7049POPC   D2A48676  28.346  33.814   6.750
 7049POPC   C3A48677  28.337  33.820   7.050
 7049POPC   C4A48678  28.343  33.823   7.350
 7049POPC   C1B48679  28.109  33.814   6.450
 7049POPC   C2B48680  28.078  33.782   6.750
 7049POPC   C3B48681  28.095  33.797   7.050
 7049POPC   C4B48682  28.091  33.755   7.350
 7050POPC   NC348683  39.998  20.614   5.550
 7050POPC   PO448684  39.970  20.656   5.850
 7050POPC   GL148685  39.960  20.639   6.150
 7050POPC   GL248686  40.013  20.452   6.150
 7050POPC   C1A48687  39.988  20.648   6.450
 7050POPC   D2A48688  39.975  20.570   6.750
 7050POPC   C3A48689  40.037  20.642   7.050
 7050POPC   C4A48690  40.028  20.632   7.350
 7050POPC   C1B48691  39.956  20.361   6.450
 7050POPC   C2B48692  39.970  20.407   6.750
 7050POPC   C3B48693  39.978  20.361   7.050
 7050POPC   C4B48694  39.975  20.316   7.350
 7051POPC   NC348695  19.044   2.795   5.550
 7051POPC   PO448696  19.043   2.806   5.850
 7051POPC   GL148697  19.102   2.785   6.150
 7051POPC   GL248698  19.141   2.675   6.150
 7051POPC   C1A48699  19.065   2.812   6.450
 7051POPC   D2A48700  19.089   2.722   6.750
 7051POPC   C3A48701  19.041   2.769   7.050
 7051POPC   C4A48702  19.035   2.806   7.350
 7051POPC   C1B48703  19.329   2.636   6.450
 7051POPC   C2B48704  19.275   2.708   6.750
 7051POPC   C3B48705  19.271   2.653   7.050
 7051POPC   C4B48706  19.318   2.663   7.350
 7052POPC   NC348707   9.704  22.166   5.550
 7052POPC   PO448708   9.790  22.166   5.850
 7052POPC   GL148709   9.708  22.127   6.150
 7052POPC   GL248710   9.855  22.314   6.150
 7052POPC   C1A48711   9.769  22.128   6.450
 7052POPC   D2A48712   9.761  22.158   6.750
 7052POPC   C3A48713   9.717  22.163   7.050
 7052POPC   C4A48714   9.723  22.116   7.350
 7052POPC   C1B48715   9.847  22.398   6.450
 7052POPC   C2B48716   9.839  22.377   6.750
 7052POPC   C3B48717   9.831  22.343   7.050
 7052POPC   C4B48718   9.851  22.390   7.350
 7053POPC   NC348719  33.030  13.649   5.550
 7053POPC   PO448720  33.070  13.640   5.850
 7053POPC   GL148721  33.028  13.609   6.150
 7053POPC   GL248722  33.154  13.601   6.150
 7053POPC   C1A48723  33.061  13.597   6.450
 7053POPC   D2A48724  33.028  13.608   6.750
 7053POPC   C3A48725  33.045  13.653   7.050
 7053POPC   C4A48726  33.055  13.632   7.350
 7053POPC   C1B48727  33.235  13.530   6.450
 7053POPC   C2B48728  33.257  13.550   6.750
 7053POPC   C3B48729  33.222  13.581   7.050
 7053POPC   C4B48730  33.242  13.589   7.350
 7054POPC   NC348731  43.158   2.786   5.550
 7054POPC   PO448732  43.151   2.748   5.850
 7054POPC   GL148733  43.160   2.768   6.150
 7054POPC   GL248734  42.959   2.833   6.150
 7054POPC   C1A48735  43.101   2.774   6.450
 7054POPC   D2A48736  43.092   2.740   6.750
 7054POPC   C3A48737  43.141   2.764   7.050
 7054POPC   C4A48738  43.103   2.745   7.350
 7054POPC   C1B48739  42.876   2.914   6.450
 7054POPC   C2B48740  42.887   2.929   6.750
 7054POPC   C3B48741  42.904   2.925   7.050
 7054POPC   C4B48742  42.872   2.890   7.350
 7055POPC   NC348743  17.540   1.194   5.550
 7055POPC   PO448744  17.543   1.218   5.850
 7055POPC   GL148745  17.488   1.192   6.150
 7055POPC   GL248746  17.434   1.161   6.150
 7055POPC   C1A48747  17.500   1.233   6.450
 7055POPC   D2A48748  17.467   1.177   6.750
 7055POPC   C3A48749  17.479   1.177   7.050
 7055POPC   C4A48750  17.517   1.184   7.350
 7055POPC   C1B48751  17.325   0.994   6.450
 7055POPC   C2B48752  17.375   1.055   6.750
 7055POPC   C3B48753  17.399   0.989   7.050
 7055POPC   C4B48754  17.376   1.020   7.350
 7056POPC   NC348755  36.925  38.431   5.550
 7056POPC   PO448756  36.878  38.415   5.850
 7056POPC   GL148757  36.920  38.427   6.150
 7056POPC   GL248758  36.793  38.542   6.150
 7056POPC   C1A48759  36.886  38.459   6.450
 7056POPC   D2A48760  36.881  38.440   6.750
 7056POPC   C3A48761  36.902  38.462   7.050
 7056POPC   C4A48762  36.896  38.421   7.350
 7056POPC   C1B48763  36.694  38.617   6.450
 7056POPC   C2B48764  36.694  38.620   6.750
 7056POPC   C3B48765  36.763  38.675   7.050
 7056POPC   C4B48766  36.689  38.639   7.350
 7057POPC   NC348767  43.905   1.985   5.550
 7057POPC   PO448768  43.929   1.987   5.850
 7057POPC   GL148769  43.869   2.003   6.150
 7057POPC   GL248770  44.015   2.080   6.150
 7057POPC   C1A48771  43.912   2.025   6.450
 7057POPC   D2A48772  43.861   2.028   6.750
 7057POPC   C3A48773  43.926   1.976   7.050
 7057POPC   C4A48774  43.869   1.974   7.350
 7057POPC   C1B48775  44.086   2.143   6.450
 7057POPC   C2B48776  44.114   2.077   6.750
 7057POPC   C3B48777  44.153   2.119   7.050
 7057POPC   C4B48778  44.079   2.138   7.350
 7058POPC   NC348779  13.651  32.262   5.550
 7058POPC   PO448780  13.635  32.264   5.850
 7058POPC   GL148781  13.603  32.243   6.150
 7058POPC   GL248782  13.725  32.296   6.150
 7058POPC   C1A48783  13.665  32.207   6.450
 7058POPC   D2A48784  13.651  32.256   6.750
 7058POPC   C3A48785  13.642  32.264   7.050
 7058POPC   C4A48786  13.677  32.208   7.350
 7058POPC   C1B48787  13.840  32.348   6.450
 7058POPC   C2B48788  13.882  32.276   6.750
 7058POPC   C3B48789  13.900  32.362   7.050
 7058POPC   C4B48790  13.888  32.336   7.350
 7059POPC   NC348791  22.193   8.993   5.550
 7059POPC   PO448792  22.160   8.949   5.850
 7059POPC   GL148793  22.139   8.975   6.150
 7059POPC   GL248794  22.269   9.083   6.150
 7059POPC   C1A48795  22.187   8.945   6.450
 7059POPC   D2A48796  22.134   9.005   6.750
 7059POPC   C3A48797  22.132   9.002   7.050
 7059POPC   C4A48798  22.130   8.992   7.350
 7059POPC   C1B48799  22.386   9.143   6.450
 7059POPC   C2B48800  22.326   9.075   6.750
 7059POPC   C3B48801  22.338   9.165   7.050
 7059POPC   C4B48802  22.404   9.139   7.350
 7060POPC   NC348803  26.066   6.595   5.550
 7060POPC   PO448804  26.062   6.599   5.850
 7060POPC   GL148805  26.016   6.667   6.150
 7060POPC   GL248806  26.198   6.621   6.150
 7060POPC   C1A48807  26.011   6.675   6.450
 7060POPC   D2A48808  26.033   6.652   6.750
 7060POPC   C3A48809  26.053   6.630   7.050
 7060POPC   C4A48810  26.050   6.633   7.350
 7060POPC   C1B48811  26.315   6.544   6.450
 7060POPC   C2B48812  26.243   6.583   6.750
 7060POPC   C3B48813  26.243   6.577   7.050
 7060POPC   C4B48814  26.238   6.621   7.350
 7061POPC   NC348815  26.839  18.285   5.550
 7061POPC   PO448816  26.835  18.311   5.850
 7061POPC   GL148817  26.849  18.264   6.150
 7061POPC   GL248818  26.921  18.362   6.150
 7061POPC   C1A48819  26.790  18.315   6.450
 7061POPC   D2A48820  26.785  18.282   6.750
 7061POPC   C3A48821  26.814  18.315   7.050
 7061POPC   C4A48822  26.772  18.277   7.350
 7061POPC   C1B48823  27.084  18.401   6.450
 7061POPC   C2B48824  27.084  18.345   6.750
 7061POPC   C3B48825  27.006  18.407   7.050
 7061POPC   C4B48826  27.065  18.382   7.350
 7062POPC   NC348827  33.060   8.204   5.550
 7062POPC   PO448828  33.026   8.242   5.850
 7062POPC   GL148829  33.039   8.179   6.150
 7062POPC   GL248830  33.152   8.198   6.150
 7062POPC   C1A48831  33.009   8.158   6.450
 7062POPC   D2A48832  33.009   8.208   6.750
 7062POPC   C3A48833  32.985   8.207   7.050
 7062POPC   C4A48834  33.055   8.236   7.350
 7062POPC   C1B48835  33.311   8.150   6.450
 7062POPC   C2B48836  33.271   8.133   6.750
 7062POPC   C3B48837  33.308   8.113   7.050
 7062POPC   C4B48838  33.286   8.147   7.350
 7063POPC   NC348839  25.235  15.229   5.550
 7063POPC   PO448840  25.279  15.217   5.850
 7063POPC   GL148841  25.244  15.186   6.150
 7063POPC   GL248842  25.167  15.140   6.150
 7063POPC   C1A48843  25.262  15.132   6.450
 7063POPC   D2A48844  25.259  15.168   6.750
 7063POPC   C3A48845  25.234  15.214   7.050
 7063POPC   C4A48846  25.248  15.202   7.350
 7063POPC   C1B48847  25.071  15.071   6.450
 7063POPC   C2B48848  25.063  15.065   6.750
 7063POPC   C3B48849  25.010  15.062   7.050
 7063POPC   C4B48850  25.007  15.115   7.350
 7064POPC   NC348851   9.779  10.518   5.550
 7064POPC   PO448852   9.744  10.497   5.850
 7064POPC   GL148853   9.722  10.486   6.150
 7064POPC   GL248854   9.753  10.362   6.150
 7064POPC   C1A48855   9.730  10.506   6.450
 7064POPC   D2A48856   9.715  10.537   6.750
 7064POPC   C3A48857   9.720  10.547   7.050
 7064POPC   C4A48858   9.735  10.500   7.350
 7064POPC   C1B48859   9.788  10.282   6.450
 7064POPC   C2B48860   9.805  10.232   6.750
 7064POPC   C3B48861   9.762  10.296   7.050
 7064POPC   C4B48862   9.783  10.323   7.350
 7065POPC   NC348863  20.596  14.356   5.550
 7065POPC   PO448864  20.615  14.451   5.850
 7065POPC   GL148865  20.623  14.374   6.150
 7065POPC   GL248866  20.668  14.317   6.150
 7065POPC   C1A48867  20.619  14.445   6.450
 7065POPC   D2A48868  20.609  14.432   6.750
 7065POPC   C3A48869  20.605  14.386   7.050
 7065POPC   C4A48870  20.646  14.416   7.350
 7065POPC   C1B48871  20.739  14.179   6.450
 7065POPC   C2B48872  20.748  14.206   6.750
 7065POPC   C3B48873  20.775  14.251   7.050
 7065POPC   C4B48874  20.823  14.249   7.350
 7066POPC   NC348875  41.573  15.940   5.550
 7066POPC   PO448876  41.582  15.934   5.850
 7066POPC   GL148877  41.608  15.950   6.150
 7066POPC   GL248878  41.455  15.872   6.150
 7066POPC   C1A48879  41.588  15.987   6.450
 7066POPC   D2A48880  41.516  15.929   6.750
 7066POPC   C3A48881  41.598  15.910   7.050
 7066POPC   C4A48882  41.526  15.921   7.350
 7066POPC   C1B48883  41.349  15.827   6.450
 7066POPC   C2B48884  41.358  15.830   6.750
 7066POPC   C3B48885  41.358  15.847   7.050
 7066POPC   C4B48886  41.309  15.822   7.350
 7067POPC   NC348887  34.565   2.814   5.550
 7067POPC   PO448888  34.606   2.769   5.850
 7067POPC   GL148889  34.553   2.760   6.150
 7067POPC   GL248890  34.600   2.907   6.150
 7067POPC   C1A48891  34.549   2.736   6.450
 7067POPC   D2A48892  34.576   2.726   6.750
 7067POPC   C3A48893  34.567   2.770   7.050
 7067POPC   C4A48894  34.605   2.733   7.350
 7067POPC   C1B48895  34.656   2.962   6.450
 7067POPC   C2B48896  34.602   3.018   6.750
 7067POPC   C3B48897  34.601   3.041   7.050
 7067POPC   C4B48898  34.592   3.011   7.350
 7068POPC   NC348899  35.374   0.483   5.550
 7068POPC   PO448900  35.382   0.469   5.850
 7068POPC   GL148901  35.314   0.466   6.150
 7068POPC   GL248902  35.469   0.540   6.150
 7068POPC   C1A48903  35.338   0.471   6.450
 7068POPC   D2A48904  35.305   0.409   6.750
 7068POPC   C3A48905  35.351   0.421   7.050
 7068POPC   C4A48906  35.328   0.473   7.350
 7068POPC   C1B48907  35.525   0.622   6.450
 7068POPC   C2B48908  35.457   0.602   6.750
 7068POPC   C3B48909  35.489   0.606   7.050
 7068POPC   C4B48910  35.514   0.598   7.350
 7069POPC   NC348911  41.523  40.771   5.550
 7069POPC   PO448912  41.547  40.767   5.850
 7069POPC   GL148913  41.533  40.797   6.150
 7069POPC   GL248914  41.535  40.942   6.150
 7069POPC   C1A48915  41.590  40.803   6.450
 7069POPC   D2A48916  41.557  40.781   6.750
 7069POPC   C3A48917  41.565  40.824   7.050
 7069POPC   C4A48918  41.581  40.819   7.350
 7069POPC   C1B48919  41.531  41.018   6.450
 7069POPC   C2B48920  41.563  41.077   6.750
 7069POPC   C3B48921  41.511  41.033   7.050
 7069POPC   C4B48922  41.563  40.981   7.350
 7070POPC   NC348923  44.688  17.547   5.550
 7070POPC   PO448924  44.646  17.539   5.850
 7070POPC   GL148925  44.655  17.554   6.150
 7070POPC   GL248926  44.742  17.615   6.150
 7070POPC   C1A48927  44.707  17.545   6.450
 7070POPC   D2A48928  44.656  17.552   6.750
 7070POPC   C3A48929  44.709  17.520   7.050
 7070POPC   C4A48930  44.692  17.554   7.350
 7070POPC   C1B48931  44.757  17.677   6.450
 7070POPC   C2B48932  44.768  17.693   6.750
 7070POPC   C3B48933  44.765  17.751   7.050
 7070POPC   C4B48934  44.816  17.699   7.350
 7071POPC   NC348935   2.734  40.030   5.550
 7071POPC   PO448936   2.754  39.999   5.850
 7071POPC   GL148937   2.814  40.005   6.150
 7071POPC   GL248938   2.925  40.002   6.150
 7071POPC   C1A48939   2.772  40.036   6.450
 7071POPC   D2A48940   2.716  39.975   6.750
 7071POPC   C3A48941   2.815  40.026   7.050
 7071POPC   C4A48942   2.735  40.025   7.350
 7071POPC   C1B48943   3.006  40.091   6.450
 7071POPC   C2B48944   2.971  40.124   6.750
 7071POPC   C3B48945   3.040  40.121   7.050
 7071POPC   C4B48946   3.004  40.058   7.350
 7072POPC   NC348947  41.589   4.274   5.550
 7072POPC   PO448948  41.549   4.282   5.850
 7072POPC   GL148949  41.600   4.330   6.150
 7072POPC   GL248950  41.523   4.420   6.150
 7072POPC   C1A48951  41.562   4.339   6.450
 7072POPC   D2A48952  41.509   4.364   6.750
 7072POPC   C3A48953  41.535   4.273   7.050
 7072POPC   C4A48954  41.539   4.291   7.350
 7072POPC   C1B48955  41.431   4.554   6.450
 7072POPC   C2B48956  41.450   4.514   6.750
 7072POPC   C3B48957  41.466   4.536   7.050
 7072POPC   C4B48958  41.471   4.532   7.350
 7073POPC   NC348959  12.900  30.684   5.550
 7073POPC   PO448960  12.805  30.738   5.850
 7073POPC   GL148961  12.836  30.720   6.150
 7073POPC   GL248962  12.902  30.629   6.150
 7073POPC   C1A48963  12.823  30.740   6.450
 7073POPC   D2A48964  12.878  30.693   6.750
 7073POPC   C3A48965  12.884  30.743   7.050
 7073POPC   C4A48966  12.897  30.667   7.350
 7073POPC   C1B48967  13.026  30.485   6.450
 7073POPC   C2B48968  13.057  30.529   6.750
 7073POPC   C3B48969  13.039  30.485   7.050
 7073POPC   C4B48970  12.974  30.541   7.350
 7074POPC   NC348971  28.366  17.505   5.550
 7074POPC   PO448972  28.340  17.472   5.850
 7074POPC   GL148973  28.383  17.458   6.150
 7074POPC   GL248974  28.521  17.548   6.150
 7074POPC   C1A48975  28.327  17.537   6.450
 7074POPC   D2A48976  28.374  17.493   6.750
 7074POPC   C3A48977  28.368  17.511   7.050
 7074POPC   C4A48978  28.362  17.521   7.350
 7074POPC   C1B48979  28.643  17.548   6.450
 7074POPC   C2B48980  28.607  17.623   6.750
 7074POPC   C3B48981  28.570  17.611   7.050
 7074POPC   C4B48982  28.561  17.560   7.350
 7075POPC   NC348983  10.511   9.699   5.550
 7075POPC   PO448984  10.534   9.746   5.850
 7075POPC   GL148985  10.502   9.772   6.150
 7075POPC   GL248986  10.660   9.788   6.150
 7075POPC   C1A48987  10.560   9.787   6.450
 7075POPC   D2A48988  10.525   9.715   6.750
 7075POPC   C3A48989  10.544   9.785   7.050
 7075POPC   C4A48990  10.569   9.710   7.350
 7075POPC   C1B48991  10.713   9.855   6.450
 7075POPC   C2B48992  10.708   9.855   6.750
 7075POPC   C3B48993  10.715   9.870   7.050
 7075POPC   C4B48994  10.782   9.920   7.350
 7076POPC   NC348995  20.563   8.194   5.550
 7076POPC   PO448996  20.610   8.151   5.850
 7076POPC   GL148997  20.602   8.233   6.150
 7076POPC   GL248998  20.545   8.105   6.150
 7076POPC   C1A48999  20.585   8.237   6.450
 7076POPC   D2A49000  20.657   8.207   6.750
 7076POPC   C3A49001  20.594   8.187   7.050
 7076POPC   C4A49002  20.595   8.148   7.350
 7076POPC   C1B49003  20.525   7.934   6.450
 7076POPC   C2B49004  20.442   8.026   6.750
 7076POPC   C3B49005  20.435   8.011   7.050
 7076POPC   C4B49006  20.474   8.005   7.350
 7077POPC   NC349007  39.203  34.587   5.550
 7077POPC   PO449008  39.257  34.530   5.850
 7077POPC   GL149009  39.211  34.557   6.150
 7077POPC   GL249010  39.359  34.541   6.150
 7077POPC   C1A49011  39.188  34.527   6.450
 7077POPC   D2A49012  39.264  34.620   6.750
 7077POPC   C3A49013  39.205  34.567   7.050
 7077POPC   C4A49014  39.256  34.578   7.350
 7077POPC   C1B49015  39.506  34.541   6.450
 7077POPC   C2B49016  39.516  34.607   6.750
 7077POPC   C3B49017  39.443  34.605   7.050
 7077POPC   C4B49018  39.465  34.571   7.350
 7078POPC   NC349019  39.263  28.339   5.550
 7078POPC   PO449020  39.241  28.388   5.850
 7078POPC   GL149021  39.243  28.352   6.150
 7078POPC   GL249022  39.330  28.273   6.150
 7078POPC   C1A49023  39.276  28.368   6.450
 7078POPC   D2A49024  39.197  28.364   6.750
 7078POPC   C3A49025  39.226  28.326   7.050
 7078POPC   C4A49026  39.210  28.363   7.350
 7078POPC   C1B49027  39.330  28.109   6.450
 7078POPC   C2B49028  39.361  28.116   6.750
 7078POPC   C3B49029  39.385  28.172   7.050
 7078POPC   C4B49030  39.322  28.133   7.350
 7079POPC   NC349031  43.114  10.479   5.550
 7079POPC   PO449032  43.151  10.490   5.850
 7079POPC   GL149033  43.102  10.572   6.150
 7079POPC   GL249034  43.135  10.674   6.150
 7079POPC   C1A49035  43.120  10.536   6.450
 7079POPC   D2A49036  43.089  10.570   6.750
 7079POPC   C3A49037  43.081  10.517   7.050
 7079POPC   C4A49038  43.101  10.481   7.350
 7079POPC   C1B49039  43.076  10.798   6.450
 7079POPC   C2B49040  43.099  10.801   6.750
 7079POPC   C3B49041  43.099  10.743   7.050
 7079POPC   C4B49042  43.064  10.792   7.350
 7080POPC   NC349043  14.399  26.034   5.550
 7080POPC   PO449044  14.362  26.031   5.850
 7080POPC   GL149045  14.424  26.050   6.150
 7080POPC   GL249046  14.540  26.127   6.150
 7080POPC   C1A49047  14.402  26.004   6.450
 7080POPC   D2A49048  14.402  26.084   6.750
 7080POPC   C3A49049  14.409  26.029   7.050
 7080POPC   C4A49050  14.410  25.997   7.350
 7080POPC   C1B49051  14.658  26.152   6.450
 7080POPC   C2B49052  14.687  26.153   6.750
 7080POPC   C3B49053  14.652  26.159   7.050
 7080POPC   C4B49054  14.635  26.104   7.350
 7081POPC   NC349055  41.571  26.815   5.550
 7081POPC   PO449056  41.568  26.776   5.850
 7081POPC   GL149057  41.584  26.844   6.150
 7081POPC   GL249058  41.638  26.776   6.150
 7081POPC   C1A49059  41.602  26.815   6.450
 7081POPC   D2A49060  41.527  26.835   6.750
 7081POPC   C3A49061  41.601  26.844   7.050
 7081POPC   C4A49062  41.561  26.795   7.350
 7081POPC   C1B49063  41.816  26.780   6.450
 7081POPC   C2B49064  41.847  26.866   6.750
 7081POPC   C3B49065  41.787  26.870   7.050
 7081POPC   C4B49066  41.829  26.782   7.350
 7082POPC   NC349067  32.994  34.570   5.550
 7082POPC   PO449068  33.062  34.596   5.850
 7082POPC   GL149069  33.064  34.558   6.150
 7082POPC   GL249070  33.027  34.451   6.150
 7082POPC   C1A49071  32.994  34.569   6.450
 7082POPC   D2A49072  33.054  34.617   6.750
 7082POPC   C3A49073  33.010  34.603   7.050
 7082POPC   C4A49074  32.983  34.579   7.350
 7082POPC   C1B49075  33.011  34.319   6.450
 7082POPC   C2B49076  33.045  34.335   6.750
 7082POPC   C3B49077  33.006  34.293   7.050
 7082POPC   C4B49078  33.032  34.361   7.350
 7083POPC   NC349079  22.185  32.251   5.550
 7083POPC   PO449080  22.170  32.259   5.850
 7083POPC   GL149081  22.137  32.233   6.150
 7083POPC   GL249082  22.153  32.413   6.150
 7083POPC   C1A49083  22.171  32.246   6.450
 7083POPC   D2A49084  22.145  32.289   6.750
 7083POPC   C3A49085  22.182  32.277   7.050
 7083POPC   C4A49086  22.156  32.292   7.350
 7083POPC   C1B49087  22.098  32.463   6.450
 7083POPC   C2B49088  22.152  32.448   6.750
 7083POPC   C3B49089  22.082  32.526   7.050
 7083POPC   C4B49090  22.159  32.519   7.350
 7084POPC   NC349091   1.217  33.825   5.550
 7084POPC   PO449092   1.235  33.812   5.850
 7084POPC   GL149093   1.243  33.762   6.150
 7084POPC   GL249094   1.131  33.834   6.150
 7084POPC   C1A49095   1.229  33.798   6.450
 7084POPC   D2A49096   1.195  33.824   6.750
 7084POPC   C3A49097   1.183  33.800   7.050
 7084POPC   C4A49098   1.255  33.777   7.350
 7084POPC   C1B49099   0.997  33.937   6.450
 7084POPC   C2B49100   1.013  33.908   6.750
 7084POPC   C3B49101   1.028  33.952   7.050
 7084POPC   C4B49102   0.987  33.890   7.350
 7085POPC   NC349103  24.477  19.095   5.550
 7085POPC   PO449104  24.445  19.095   5.850
 7085POPC   GL149105  24.481  19.044   6.150
 7085POPC   GL249106  24.604  19.101   6.150
 7085POPC   C1A49107  24.447  19.083   6.450
 7085POPC   D2A49108  24.514  19.057   6.750
 7085POPC   C3A49109  24.511  19.027   7.050
 7085POPC   C4A49110  24.476  19.076   7.350
 7085POPC   C1B49111  24.766  19.025   6.450
 7085POPC   C2B49112  24.745  19.035   6.750
 7085POPC   C3B49113  24.691  19.102   7.050
 7085POPC   C4B49114  24.785  19.079   7.350
 7086POPC   NC349115  32.271  32.263   5.550
 7086POPC   PO449116  32.205  32.291   5.850
 7086POPC   GL149117  32.249  32.241   6.150
 7086POPC   GL249118  32.398  32.257   6.150
 7086POPC   C1A49119  32.206  32.219   6.450
 7086POPC   D2A49120  32.202  32.269   6.750
 7086POPC   C3A49121  32.259  32.210   7.050
 7086POPC   C4A49122  32.230  32.283   7.350
 7086POPC   C1B49123  32.484  32.225   6.450
 7086POPC   C2B49124  32.495  32.163   6.750
 7086POPC   C3B49125  32.506  32.205   7.050
 7086POPC   C4B49126  32.483  32.147   7.350
 7087POPC   NC349127  26.082  39.969   5.550
 7087POPC   PO449128  26.041  40.022   5.850
 7087POPC   GL149129  26.069  39.973   6.150
 7087POPC   GL249130  26.088  40.120   6.150
 7087POPC   C1A49131  26.025  40.008   6.450
 7087POPC   D2A49132  26.045  40.001   6.750
 7087POPC   C3A49133  26.020  39.995   7.050
 7087POPC   C4A49134  26.055  39.998   7.350
 7087POPC   C1B49135  26.267  40.198   6.450
 7087POPC   C2B49136  26.263  40.157   6.750
 7087POPC   C3B49137  26.235  40.134   7.050
 7087POPC   C4B49138  26.196  40.200   7.350
 7088POPC   NC349139  44.639  18.252   5.550
 7088POPC   PO449140  44.680  18.286   5.850
 7088POPC   GL149141  44.705  18.303   6.150
 7088POPC   GL249142  44.707  18.174   6.150
 7088POPC   C1A49143  44.706  18.271   6.450
 7088POPC   D2A49144  44.650  18.329   6.750
 7088POPC   C3A49145  44.694  18.311   7.050
 7088POPC   C4A49146  44.645  18.307   7.350
 7088POPC   C1B49147  44.654  18.061   6.450
 7088POPC   C2B49148  44.667  18.077   6.750
 7088POPC   C3B49149  44.624  17.993   7.050
 7088POPC   C4B49150  44.632  18.050   7.350
 7089POPC   NC349151  42.361  27.621   5.550
 7089POPC   PO449152  42.362  27.575   5.850
 7089POPC   GL149153  42.313  27.561   6.150
 7089POPC   GL249154  42.322  27.500   6.150
 7089POPC   C1A49155  42.364  27.606   6.450
 7089POPC   D2A49156  42.380  27.546   6.750
 7089POPC   C3A49157  42.344  27.598   7.050
 7089POPC   C4A49158  42.311  27.632   7.350
 7089POPC   C1B49159  42.243  27.319   6.450
 7089POPC   C2B49160  42.279  27.392   6.750
 7089POPC   C3B49161  42.260  27.339   7.050
 7089POPC   C4B49162  42.297  27.315   7.350
 7090POPC   NC349163   4.357  32.289   5.550
 7090POPC   PO449164   4.302  32.236   5.850
 7090POPC   GL149165   4.294  32.287   6.150
 7090POPC   GL249166   4.350  32.367   6.150
 7090POPC   C1A49167   4.367  32.225   6.450
 7090POPC   D2A49168   4.336  32.212   6.750
 7090POPC   C3A49169   4.329  32.213   7.050
 7090POPC   C4A49170   4.364  32.258   7.350
 7090POPC   C1B49171   4.362  32.465   6.450
 7090POPC   C2B49172   4.439  32.489   6.750
 7090POPC   C3B49173   4.453  32.469   7.050
 7090POPC   C4B49174   4.378  32.462   7.350
 7091POPC   NC349175  13.588  12.031   5.550
 7091POPC   PO449176  13.617  12.122   5.850
 7091POPC   GL149177  13.601  12.099   6.150
 7091POPC   GL249178  13.637  11.997   6.150
 7091POPC   C1A49179  13.600  12.053   6.450
 7091POPC   D2A49180  13.615  12.091   6.750
 7091POPC   C3A49181  13.649  12.085   7.050
 7091POPC   C4A49182  13.584  12.059   7.350
 7091POPC   C1B49183  13.657  11.817   6.450
 7091POPC   C2B49184  13.659  11.810   6.750
 7091POPC   C3B49185  13.682  11.837   7.050
 7091POPC   C4B49186  13.706  11.834   7.350
 7092POPC   NC349187  32.975  16.748   5.550
 7092POPC   PO449188  33.043  16.762   5.850
 7092POPC   GL149189  32.985  16.686   6.150
 7092POPC   GL249190  33.068  16.815   6.150
 7092POPC   C1A49191  33.074  16.722   6.450
 7092POPC   D2A49192  33.038  16.749   6.750
 7092POPC   C3A49193  33.014  16.734   7.050
 7092POPC   C4A49194  32.990  16.696   7.350
 7092POPC   C1B49195  33.122  17.016   6.450
 7092POPC   C2B49196  33.067  17.021   6.750
 7092POPC   C3B49197  33.093  17.003   7.050
 7092POPC   C4B49198  33.061  16.984   7.350
 7093POPC   NC349199   9.719  35.357   5.550
 7093POPC   PO449200   9.725  35.377   5.850
 7093POPC   GL149201   9.784  35.316   6.150
 7093POPC   GL249202   9.788  35.486   6.150
 7093POPC   C1A49203   9.709  35.320   6.450
 7093POPC   D2A49204   9.793  35.397   6.750
 7093POPC   C3A49205   9.726  35.334   7.050
 7093POPC   C4A49206   9.774  35.335   7.350
 7093POPC   C1B49207   9.834  35.597   6.450
 7093POPC   C2B49208   9.821  35.588   6.750
 7093POPC   C3B49209   9.813  35.596   7.050
 7093POPC   C4B49210   9.857  35.610   7.350
 7094POPC   NC349211  10.487  40.006   5.550
 7094POPC   PO449212  10.493  40.016   5.850
 7094POPC   GL149213  10.482  40.001   6.150
 7094POPC   GL249214  10.398  40.047   6.150
 7094POPC   C1A49215  10.495  39.961   6.450
 7094POPC   D2A49216  10.477  39.992   6.750
 7094POPC   C3A49217  10.534  40.017   7.050
 7094POPC   C4A49218  10.539  39.963   7.350
 7094POPC   C1B49219  10.232  40.010   6.450
 7094POPC   C2B49220  10.234  39.958   6.750
 7094POPC   C3B49221  10.274  39.984   7.050
 7094POPC   C4B49222  10.272  39.995   7.350
 7095POPC   NC349223  28.328  34.572   5.550
 7095POPC   PO449224  28.355  34.533   5.850
 7095POPC   GL149225  28.413  34.548   6.150
 7095POPC   GL249226  28.246  34.521   6.150
 7095POPC   C1A49227  28.336  34.566   6.450
 7095POPC   D2A49228  28.362  34.590   6.750
 7095POPC   C3A49229  28.366  34.574   7.050
 7095POPC   C4A49230  28.343  34.594   7.350
 7095POPC   C1B49231  28.212  34.369   6.450
 7095POPC   C2B49232  28.210  34.452   6.750
 7095POPC   C3B49233  28.205  34.431   7.050
 7095POPC   C4B49234  28.185  34.376   7.350
 7096POPC   NC349235  10.523  15.176   5.550
 7096POPC   PO449236  10.521  15.148   5.850
 7096POPC   GL149237  10.545  15.142   6.150
 7096POPC   GL249238  10.414  15.073   6.150
 7096POPC   C1A49239  10.518  15.161   6.450
 7096POPC   D2A49240  10.553  15.165   6.750
 7096POPC   C3A49241  10.516  15.132   7.050
 7096POPC   C4A49242  10.541  15.171   7.350
 7096POPC   C1B49243  10.340  14.988   6.450
 7096POPC   C2B49244  10.290  14.987   6.750
 7096POPC   C3B49245  10.340  14.989   7.050
 7096POPC   C4B49246  10.351  15.038   7.350
 7097POPC   NC349247  35.398  28.419   5.550
 7097POPC   PO449248  35.314  28.365   5.850
 7097POPC   GL149249  35.310  28.405   6.150
 7097POPC   GL249250  35.431  28.223   6.150
 7097POPC   C1A49251  35.355  28.324   6.450
 7097POPC   D2A49252  35.305  28.389   6.750
 7097POPC   C3A49253  35.347  28.369   7.050
 7097POPC   C4A49254  35.371  28.385   7.350
 7097POPC   C1B49255  35.485  28.182   6.450
 7097POPC   C2B49256  35.441  28.180   6.750
 7097POPC   C3B49257  35.478  28.141   7.050
 7097POPC   C4B49258  35.444  28.173   7.350
 7098POPC   NC349259  35.384   8.177   5.550
 7098POPC   PO449260  35.304   8.235   5.850
 7098POPC   GL149261  35.334   8.181   6.150
 7098POPC   GL249262  35.435   8.297   6.150
 7098POPC   C1A49263  35.352   8.185   6.450
 7098POPC   D2A49264  35.308   8.170   6.750
 7098POPC   C3A49265  35.345   8.233   7.050
 7098POPC   C4A49266  35.348   8.201   7.350
 7098POPC   C1B49267  35.416   8.474   6.450
 7098POPC   C2B49268  35.375   8.486   6.750
 7098POPC   C3B49269  35.413   8.390   7.050
 7098POPC   C4B49270  35.418   8.480   7.350
 7099POPC   NC349271  41.579  29.095   5.550
 7099POPC   PO449272  41.566  29.107   5.850
 7099POPC   GL149273  41.574  29.095   6.150
 7099POPC   GL249274  41.450  29.175   6.150
 7099POPC   C1A49275  41.560  29.193   6.450
 7099POPC   D2A49276  41.535  29.132   6.750
 7099POPC   C3A49277  41.566  29.147   7.050
 7099POPC   C4A49278  41.607  29.136   7.350
 7099POPC   C1B49279  41.333  29.168   6.450
 7099POPC   C2B49280  41.307  29.158   6.750
 7099POPC   C3B49281  41.259  29.179   7.050
 7099POPC   C4B49282  41.321  29.166   7.350
 7100POPC   NC349283  15.145  31.453   5.550
 7100POPC   PO449284  15.153  31.454   5.850
 7100POPC   GL149285  15.206  31.470   6.150
 7100POPC   GL249286  15.307  31.486   6.150
 7100POPC   C1A49287  15.136  31.522   6.450
 7100POPC   D2A49288  15.219  31.462   6.750
 7100POPC   C3A49289  15.130  31.517   7.050
 7100POPC   C4A49290  15.137  31.471   7.350
 7100POPC   C1B49291  15.451  31.469   6.450
 7100POPC   C2B49292  15.427  31.458   6.750
 7100POPC   C3B49293  15.400  31.468   7.050
 7100POPC   C4B49294  15.381  31.482   7.350
 7101POPC   NC349295  15.160  29.129   5.550
 7101POPC   PO449296  15.154  29.164   5.850
 7101POPC   GL149297  15.200  29.171   6.150
 7101POPC   GL249298  15.200  29.228   6.150
 7101POPC   C1A49299  15.169  29.174   6.450
 7101POPC   D2A49300  15.228  29.101   6.750
 7101POPC   C3A49301  15.148  29.186   7.050
 7101POPC   C4A49302  15.209  29.194   7.350
 7101POPC   C1B49303  15.241  29.407   6.450
 7101POPC   C2B49304  15.221  29.403   6.750
 7101POPC   C3B49305  15.209  29.361   7.050
 7101POPC   C4B49306  15.189  29.387   7.350
 7102POPC   NC349307  20.576   1.239   5.550
 7102POPC   PO449308  20.651   1.190   5.850
 7102POPC   GL149309  20.596   1.173   6.150
 7102POPC   GL249310  20.526   1.335   6.150
 7102POPC   C1A49311  20.586   1.231   6.450
 7102POPC   D2A49312  20.589   1.233   6.750
 7102POPC   C3A49313  20.643   1.262   7.050
 7102POPC   C4A49314  20.608   1.177   7.350
 7102POPC   C1B49315  20.486   1.413   6.450
 7102POPC   C2B49316  20.467   1.403   6.750
 7102POPC   C3B49317  20.497   1.388   7.050
 7102POPC   C4B49318  20.424   1.389   7.350
 7103POPC   NC349319  37.633  41.519   5.550
 7103POPC   PO449320  37.708  41.528   5.850
 7103POPC   GL149321  37.694  41.518   6.150
 7103POPC   GL249322  37.602  41.611   6.150
 7103POPC   C1A49323  37.641  41.588   6.450
 7103POPC   D2A49324  37.686  41.597   6.750
 7103POPC   C3A49325  37.721  41.510   7.050
 7103POPC   C4A49326  37.665  41.535   7.350
 7103POPC   C1B49327  37.491  41.760   6.450
 7103POPC   C2B49328  37.488  41.708   6.750
 7103POPC   C3B49329  37.500  41.672   7.050
 7103POPC   C4B49330  37.466  41.743   7.350
 7104POPC   NC349331  10.502   7.447   5.550
 7104POPC   PO449332  10.487   7.458   5.850
 7104POPC   GL149333  10.480   7.455   6.150
 7104POPC   GL249334  10.504   7.563   6.150
 7104POPC   C1A49335  10.547   7.428   6.450
 7104POPC   D2A49336  10.510   7.469   6.750
 7104POPC   C3A49337  10.503   7.440   7.050
 7104POPC   C4A49338  10.539   7.373   7.350
 7104POPC   C1B49339  10.431   7.628   6.450
 7104POPC   C2B49340  10.418   7.666   6.750
 7104POPC   C3B49341  10.379   7.637   7.050
 7104POPC   C4B49342  10.475   7.631   7.350
 7105POPC   NC349343  43.858  42.305   5.550
 7105POPC   PO449344  43.883  42.294   5.850
 7105POPC   GL149345  43.933  42.366   6.150
 7105POPC   GL249346  43.882  42.438   6.150
 7105POPC   C1A49347  43.873  42.319   6.450
 7105POPC   D2A49348  43.859  42.354   6.750
 7105POPC   C3A49349  43.904  42.334   7.050
 7105POPC   C4A49350  43.859  42.296   7.350
 7105POPC   C1B49351  43.947  42.614   6.450
 7105POPC   C2B49352  43.983  42.628   6.750
 7105POPC   C3B49353  43.924  42.546   7.050
 7105POPC   C4B49354  43.968  42.557   7.350
 7106POPC   NC349355  22.139  20.627   5.550
 7106POPC   PO449356  22.157  20.634   5.850
 7106POPC   GL149357  22.194  20.597   6.150
 7106POPC   GL249358  22.311  20.644   6.150
 7106POPC   C1A49359  22.132  20.611   6.450
 7106POPC   D2A49360  22.134  20.609   6.750
 7106POPC   C3A49361  22.144  20.648   7.050
 7106POPC   C4A49362  22.212  20.572   7.350
 7106POPC   C1B49363  22.429  20.664   6.450
 7106POPC   C2B49364  22.387  20.668   6.750
 7106POPC   C3B49365  22.415  20.686   7.050
 7106POPC   C4B49366  22.411  20.668   7.350
 7107POPC   NC349367  12.045   7.381   5.550
 7107POPC   PO449368  12.040   7.417   5.850
 7107POPC   GL149369  12.084   7.449   6.150
 7107POPC   GL249370  12.223   7.487   6.150
 7107POPC   C1A49371  12.121   7.440   6.450
 7107POPC   D2A49372  12.061   7.448   6.750
 7107POPC   C3A49373  12.046   7.390   7.050
 7107POPC   C4A49374  12.044   7.425   7.350
 7107POPC   C1B49375  12.244   7.584   6.450
 7107POPC   C2B49376  12.328   7.597   6.750
 7107POPC   C3B49377  12.287   7.541   7.050
 7107POPC   C4B49378  12.316   7.547   7.350
 7108POPC   NC349379   3.572  21.391   5.550
 7108POPC   PO449380   3.492  21.412   5.850
 7108POPC   GL149381   3.554  21.381   6.150
 7108POPC   GL249382   3.542  21.493   6.150
 7108POPC   C1A49383   3.507  21.407   6.450
 7108POPC   D2A49384   3.505  21.338   6.750
 7108POPC   C3A49385   3.506  21.384   7.050
 7108POPC   C4A49386   3.558  21.386   7.350
 7108POPC   C1B49387   3.655  21.589   6.450
 7108POPC   C2B49388   3.646  21.587   6.750
 7108POPC   C3B49389   3.655  21.625   7.050
 7108POPC   C4B49390   3.641  21.582   7.350
 7109POPC   NC349391  13.582  38.449   5.550
 7109POPC   PO449392  13.617  38.455   5.850
 7109POPC   GL149393  13.600  38.428   6.150
 7109POPC   GL249394  13.648  38.534   6.150
 7109POPC   C1A49395  13.651  38.429   6.450
 7109POPC   D2A49396  13.598  38.442   6.750
 7109POPC   C3A49397  13.599  38.431   7.050
 7109POPC   C4A49398  13.638  38.417   7.350
 7109POPC   C1B49399  13.620  38.668   6.450
 7109POPC   C2B49400  13.640  38.699   6.750
 7109POPC   C3B49401  13.647  38.726   7.050
 7109POPC   C4B49402  13.645  38.744   7.350
 7110POPC   NC349403  25.999  19.067   5.550
 7110POPC   PO449404  26.033  19.082   5.850
 7110POPC   GL149405  26.085  19.029   6.150
 7110POPC   GL249406  25.978  19.132   6.150
 7110POPC   C1A49407  26.047  19.103   6.450
 7110POPC   D2A49408  26.023  19.009   6.750
 7110POPC   C3A49409  26.065  19.106   7.050
 7110POPC   C4A49410  26.016  19.041   7.350
 7110POPC   C1B49411  25.828  19.236   6.450
 7110POPC   C2B49412  25.853  19.273   6.750
 7110POPC   C3B49413  25.850  19.266   7.050
 7110POPC   C4B49414  25.809  19.218   7.350
 7111POPC   NC349415   5.089  13.662   5.550
 7111POPC   PO449416   5.112  13.667   5.850
 7111POPC   GL149417   5.097  13.651   6.150
 7111POPC   GL249418   5.029  13.727   6.150
 7111POPC   C1A49419   5.057  13.623   6.450
 7111POPC   D2A49420   5.085  13.588   6.750
 7111POPC   C3A49421   5.138  13.614   7.050
 7111POPC   C4A49422   5.059  13.594   7.350
 7111POPC   C1B49423   4.974  13.832   6.450
 7111POPC   C2B49424   4.971  13.811   6.750
 7111POPC   C3B49425   4.996  13.877   7.050
 7111POPC   C4B49426   4.941  13.879   7.350
 7112POPC   NC349427   6.595  30.648   5.550
 7112POPC   PO449428   6.681  30.647   5.850
 7112POPC   GL149429   6.647  30.656   6.150
 7112POPC   GL249430   6.529  30.691   6.150
 7112POPC   C1A49431   6.649  30.689   6.450
 7112POPC   D2A49432   6.625  30.729   6.750
 7112POPC   C3A49433   6.631  30.723   7.050
 7112POPC   C4A49434   6.679  30.745   7.350
 7112POPC   C1B49435   6.426  30.632   6.450
 7112POPC   C2B49436   6.387  30.657   6.750
 7112POPC   C3B49437   6.449  30.638   7.050
 7112POPC   C4B49438   6.428  30.661   7.350
 7113POPC   NC349439  41.584  21.415   5.550
 7113POPC   PO449440  41.509  21.395   5.850
 7113POPC   GL149441  41.554  21.348   6.150
 7113POPC   GL249442  41.608  21.527   6.150
 7113POPC   C1A49443  41.575  21.354   6.450
 7113POPC   D2A49444  41.565  21.387   6.750
 7113POPC   C3A49445  41.512  21.389   7.050
 7113POPC   C4A49446  41.574  21.388   7.350
 7113POPC   C1B49447  41.557  21.634   6.450
 7113POPC   C2B49448  41.547  21.640   6.750
 7113POPC   C3B49449  41.591  21.626   7.050
 7113POPC   C4B49450  41.623  21.598   7.350
 7114POPC   NC349451  12.885  43.090   5.550
 7114POPC   PO449452  12.812  43.103   5.850
 7114POPC   GL149453  12.868  43.146   6.150
 7114POPC   GL249454  12.806  43.052   6.150
 7114POPC   C1A49455  12.807  43.061   6.450
 7114POPC   D2A49456  12.871  43.123   6.750
 7114POPC   C3A49457  12.881  43.113   7.050
 7114POPC   C4A49458  12.887  43.133   7.350
 7114POPC   C1B49459  12.651  42.911   6.450
 7114POPC   C2B49460  12.693  42.979   6.750
 7114POPC   C3B49461  12.713  42.961   7.050
 7114POPC   C4B49462  12.718  42.967   7.350
 7115POPC   NC349463   5.132   4.274   5.550
 7115POPC   PO449464   5.083   4.339   5.850
 7115POPC   GL149465   5.077   4.333   6.150
 7115POPC   GL249466   5.055   4.193   6.150
 7115POPC   C1A49467   5.048   4.321   6.450
 7115POPC   D2A49468   5.127   4.291   6.750
 7115POPC   C3A49469   5.069   4.360   7.050
 7115POPC   C4A49470   5.095   4.347   7.350
 7115POPC   C1B49471   4.921   4.087   6.450
 7115POPC   C2B49472   4.904   4.071   6.750
 7115POPC   C3B49473   4.950   4.141   7.050
 7115POPC   C4B49474   4.923   4.108   7.350
 7116POPC   NC349475   3.561  39.958   5.550
 7116POPC   PO449476   3.495  39.969   5.850
 7116POPC   GL149477   3.557  40.050   6.150
 7116POPC   GL249478   3.630  39.969   6.150
 7116POPC   C1A49479   3.491  40.039   6.450
 7116POPC   D2A49480   3.504  40.019   6.750
 7116POPC   C3A49481   3.579  39.986   7.050
 7116POPC   C4A49482   3.563  39.972   7.350
 7116POPC   C1B49483   3.784  39.935   6.450
 7116POPC   C2B49484   3.803  39.937   6.750
 7116POPC   C3B49485   3.765  39.940   7.050
 7116POPC   C4B49486   3.822  40.025   7.350
 7117POPC   NC349487  10.559   0.402   5.550
 7117POPC   PO449488  10.490   0.389   5.850
 7117POPC   GL149489  10.523   0.439   6.150
 7117POPC   GL249490  10.377   0.370   6.150
 7117POPC   C1A49491  10.554   0.396   6.450
 7117POPC   D2A49492  10.545   0.465   6.750
 7117POPC   C3A49493  10.556   0.468   7.050
 7117POPC   C4A49494  10.574   0.486   7.350
 7117POPC   C1B49495  10.329   0.341   6.450
 7117POPC   C2B49496  10.277   0.355   6.750
 7117POPC   C3B49497  10.295   0.319   7.050
 7117POPC   C4B49498  10.340   0.289   7.350
 7118POPC   NC349499  11.347  24.513   5.550
 7118POPC   PO449500  11.291  24.509   5.850
 7118POPC   GL149501  11.338  24.457   6.150
 7118POPC   GL249502  11.379  24.593   6.150
 7118POPC   C1A49503  11.302  24.449   6.450
 7118POPC   D2A49504  11.319  24.484   6.750
 7118POPC   C3A49505  11.285  24.446   7.050
 7118POPC   C4A49506  11.326  24.539   7.350
 7118POPC   C1B49507  11.422  24.677   6.450
 7118POPC   C2B49508  11.414  24.667   6.750
 7118POPC   C3B49509  11.401  24.695   7.050
 7118POPC   C4B49510  11.474  24.715   7.350
 7119POPC   NC349511   7.382  15.908   5.550
 7119POPC   PO449512   7.372  15.990   5.850
 7119POPC   GL149513   7.374  15.945   6.150
 7119POPC   GL249514   7.490  16.099   6.150
 7119POPC   C1A49515   7.427  15.922   6.450
 7119POPC   D2A49516   7.426  15.942   6.750
 7119POPC   C3A49517   7.399  15.969   7.050
 7119POPC   C4A49518   7.431  15.919   7.350
 7119POPC   C1B49519   7.506  16.224   6.450
 7119POPC   C2B49520   7.517  16.203   6.750
 7119POPC   C3B49521   7.501  16.214   7.050
 7119POPC   C4B49522   7.486  16.210   7.350
 7120POPC   NC349523  36.098  19.054   5.550
 7120POPC   PO449524  36.165  19.053   5.850
 7120POPC   GL149525  36.122  19.090   6.150
 7120POPC   GL249526  36.090  19.115   6.150
 7120POPC   C1A49527  36.157  19.068   6.450
 7120POPC   D2A49528  36.153  19.024   6.750
 7120POPC   C3A49529  36.125  19.069   7.050
 7120POPC   C4A49530  36.145  19.035   7.350
 7120POPC   C1B49531  36.005  19.309   6.450
 7120POPC   C2B49532  36.007  19.284   6.750
 7120POPC   C3B49533  36.013  19.280   7.050
 7120POPC   C4B49534  35.931  19.275   7.350
 7121POPC   NC349535  26.806  22.964   5.550
 7121POPC   PO449536  26.865  22.980   5.850
 7121POPC   GL149537  26.853  22.926   6.150
 7121POPC   GL249538  26.965  22.865   6.150
 7121POPC   C1A49539  26.804  22.911   6.450
 7121POPC   D2A49540  26.773  22.907   6.750
 7121POPC   C3A49541  26.850  22.896   7.050
 7121POPC   C4A49542  26.782  22.918   7.350
 7121POPC   C1B49543  27.080  22.851   6.450
 7121POPC   C2B49544  27.080  22.840   6.750
 7121POPC   C3B49545  27.024  22.777   7.050
 7121POPC   C4B49546  27.064  22.829   7.350
 7122POPC   NC349547  40.057  39.277   5.550
 7122POPC   PO449548  40.008  39.268   5.850
 7122POPC   GL149549  39.962  39.252   6.150
 7122POPC   GL249550  40.122  39.132   6.150
 7122POPC   C1A49551  40.007  39.226   6.450
 7122POPC   D2A49552  40.027  39.261   6.750
 7122POPC   C3A49553  40.047  39.186   7.050
 7122POPC   C4A49554  40.031  39.183   7.350
 7122POPC   C1B49555  40.166  39.043   6.450
 7122POPC   C2B49556  40.149  39.080   6.750
 7122POPC   C3B49557  40.151  39.005   7.050
 7122POPC   C4B49558  40.227  39.078   7.350
 7123POPC   NC349559   0.401  21.427   5.550
 7123POPC   PO449560   0.444  21.365   5.850
 7123POPC   GL149561   0.402  21.403   6.150
 7123POPC   GL249562   0.496  21.265   6.150
 7123POPC   C1A49563   0.425  21.355   6.450
 7123POPC   D2A49564   0.460  21.419   6.750
 7123POPC   C3A49565   0.412  21.343   7.050
 7123POPC   C4A49566   0.460  21.354   7.350
 7123POPC   C1B49567   0.559  21.198   6.450
 7123POPC   C2B49568   0.537  21.137   6.750
 7123POPC   C3B49569   0.603  21.168   7.050
 7123POPC   C4B49570   0.595  21.189   7.350
 7124POPC   NC349571  12.888  20.602   5.550
 7124POPC   PO449572  12.820  20.652   5.850
 7124POPC   GL149573  12.826  20.629   6.150
 7124POPC   GL249574  12.830  20.505   6.150
 7124POPC   C1A49575  12.805  20.621   6.450
 7124POPC   D2A49576  12.845  20.604   6.750
 7124POPC   C3A49577  12.892  20.626   7.050
 7124POPC   C4A49578  12.860  20.583   7.350
 7124POPC   C1B49579  12.773  20.383   6.450
 7124POPC   C2B49580  12.808  20.342   6.750
 7124POPC   C3B49581  12.750  20.421   7.050
 7124POPC   C4B49582  12.786  20.387   7.350
 7125POPC   NC349583  22.175  38.460   5.550
 7125POPC   PO449584  22.125  38.485   5.850
 7125POPC   GL149585  22.191  38.411   6.150
 7125POPC   GL249586  21.998  38.501   6.150
 7125POPC   C1A49587  22.117  38.465   6.450
 7125POPC   D2A49588  22.210  38.483   6.750
 7125POPC   C3A49589  22.210  38.463   7.050
 7125POPC   C4A49590  22.113  38.447   7.350
 7125POPC   C1B49591  21.876  38.474   6.450
 7125POPC   C2B49592  21.917  38.440   6.750
 7125POPC   C3B49593  21.930  38.454   7.050
 7125POPC   C4B49594  21.914  38.461   7.350
 7126POPC   NC349595  41.566  43.069   5.550
 7126POPC   PO449596  41.571  43.098   5.850
 7126POPC   GL149597  41.525  43.078   6.150
 7126POPC   GL249598  41.642  43.004   6.150
 7126POPC   C1A49599  41.539  43.092   6.450
 7126POPC   D2A49600  41.547  43.150   6.750
 7126POPC   C3A49601  41.552  43.078   7.050
 7126POPC   C4A49602  41.536  43.119   7.350
 7126POPC   C1B49603  41.729  43.004   6.450
 7126POPC   C2B49604  41.792  42.950   6.750
 7126POPC   C3B49605  41.809  43.024   7.050
 7126POPC   C4B49606  41.821  42.935   7.350
 7127POPC   NC349607  19.055  36.944   5.550
 7127POPC   PO449608  19.063  36.880   5.850
 7127POPC   GL149609  19.080  36.944   6.150
 7127POPC   GL249610  18.990  36.828   6.150
 7127POPC   C1A49611  19.011  36.933   6.450
 7127POPC   D2A49612  19.090  36.867   6.750
 7127POPC   C3A49613  19.031  36.862   7.050
 7127POPC   C4A49614  19.047  36.869   7.350
 7127POPC   C1B49615  19.001  36.628   6.450
 7127POPC   C2B49616  19.042  36.697   6.750
 7127POPC   C3B49617  19.026  36.615   7.050
 7127POPC   C4B49618  18.982  36.692   7.350
 7128POPC   NC349619  26.787  37.707   5.550
 7128POPC   PO449620  26.845  37.672   5.850
 7128POPC   GL149621  26.828  37.633   6.150
 7128POPC   GL249622  26.757  37.548   6.150
 7128POPC   C1A49623  26.834  37.662   6.450
 7128POPC   D2A49624  26.783  37.720   6.750
 7128POPC   C3A49625  26.841  37.670   7.050
 7128POPC   C4A49626  26.800  37.692   7.350
 7128POPC   C1B49627  26.704  37.461   6.450
 7128POPC   C2B49628  26.728  37.449   6.750
 7128POPC   C3B49629  26.723  37.441   7.050
 7128POPC   C4B49630  26.761  37.476   7.350
 7129POPC   NC349631   5.053  16.770   5.550
 7129POPC   PO449632   5.105  16.690   5.850
 7129POPC   GL149633   5.086  16.717   6.150
 7129POPC   GL249634   5.067  16.814   6.150
 7129POPC   C1A49635   5.139  16.689   6.450
 7129POPC   D2A49636   5.131  16.733   6.750
 7129POPC   C3A49637   5.109  16.757   7.050
 7129POPC   C4A49638   5.081  16.708   7.350
 7129POPC   C1B49639   5.004  16.965   6.450
 7129POPC   C2B49640   5.044  17.024   6.750
 7129POPC   C3B49641   5.002  17.013   7.050
 7129POPC   C4B49642   5.059  16.944   7.350
 7130POPC   NC349643  24.451  23.710   5.550
 7130POPC   PO449644  24.510  23.670   5.850
 7130POPC   GL149645  24.502  23.739   6.150
 7130POPC   GL249646  24.554  23.559   6.150
 7130POPC   C1A49647  24.466  23.722   6.450
 7130POPC   D2A49648  24.485  23.724   6.750
 7130POPC   C3A49649  24.487  23.751   7.050
 7130POPC   C4A49650  24.475  23.701   7.350
 7130POPC   C1B49651  24.626  23.537   6.450
 7130POPC   C2B49652  24.659  23.532   6.750
 7130POPC   C3B49653  24.607  23.471   7.050
 7130POPC   C4B49654  24.636  23.523   7.350
 7131POPC   NC349655  44.692  19.810   5.550
 7131POPC   PO449656  44.616  19.812   5.850
 7131POPC   GL149657  44.669  19.808   6.150
 7131POPC   GL249658  44.725  19.689   6.150
 7131POPC   C1A49659  44.645  19.829   6.450
 7131POPC   D2A49660  44.646  19.874   6.750
 7131POPC   C3A49661  44.621  19.859   7.050
 7131POPC   C4A49662  44.622  19.884   7.350
 7131POPC   C1B49663  44.808  19.662   6.450
 7131POPC   C2B49664  44.815  19.582   6.750
 7131POPC   C3B49665  44.803  19.657   7.050
 7131POPC   C4B49666  44.826  19.587   7.350
 7132POPC   NC349667  29.175   1.975   5.550
 7132POPC   PO449668  29.162   1.996   5.850
 7132POPC   GL149669  29.172   1.975   6.150
 7132POPC   GL249670  29.190   1.864   6.150
 7132POPC   C1A49671  29.174   2.004   6.450
 7132POPC   D2A49672  29.153   2.008   6.750
 7132POPC   C3A49673  29.170   1.982   7.050
 7132POPC   C4A49674  29.119   2.039   7.350
 7132POPC   C1B49675  29.215   1.777   6.450
 7132POPC   C2B49676  29.211   1.758   6.750
 7132POPC   C3B49677  29.161   1.712   7.050
 7132POPC   C4B49678  29.154   1.773   7.350
 7133POPC   NC349679   5.909   5.860   5.550
 7133POPC   PO449680   5.892   5.863   5.850
 7133POPC   GL149681   5.836   5.869   6.150
 7133POPC   GL249682   5.930   5.898   6.150
 7133POPC   C1A49683   5.895   5.874   6.450
 7133POPC   D2A49684   5.839   5.866   6.750
 7133POPC   C3A49685   5.852   5.902   7.050
 7133POPC   C4A49686   5.898   5.877   7.350
 7133POPC   C1B49687   6.044   6.027   6.450
 7133POPC   C2B49688   6.116   5.986   6.750
 7133POPC   C3B49689   6.048   5.978   7.050
 7133POPC   C4B49690   6.099   6.032   7.350
 7134POPC   NC349691   8.924  29.945   5.550
 7134POPC   PO449692   8.936  29.911   5.850
 7134POPC   GL149693   8.983  29.889   6.150
 7134POPC   GL249694   9.068  30.022   6.150
 7134POPC   C1A49695   8.994  29.911   6.450
 7134POPC   D2A49696   8.999  29.883   6.750
 7134POPC   C3A49697   9.000  29.874   7.050
 7134POPC   C4A49698   9.007  29.902   7.350
 7134POPC   C1B49699   9.164  30.058   6.450
 7134POPC   C2B49700   9.215  29.997   6.750
 7134POPC   C3B49701   9.247  30.004   7.050
 7134POPC   C4B49702   9.182  30.057   7.350
 7135POPC   NC349703  17.550  19.868   5.550
 7135POPC   PO449704  17.527  19.863   5.850
 7135POPC   GL149705  17.522  19.788   6.150
 7135POPC   GL249706  17.497  19.718   6.150
 7135POPC   C1A49707  17.492  19.876   6.450
 7135POPC   D2A49708  17.547  19.865   6.750
 7135POPC   C3A49709  17.524  19.871   7.050
 7135POPC   C4A49710  17.467  19.871   7.350
 7135POPC   C1B49711  17.363  19.627   6.450
 7135POPC   C2B49712  17.423  19.651   6.750
 7135POPC   C3B49713  17.369  19.601   7.050
 7135POPC   C4B49714  17.397  19.568   7.350
 7136POPC   NC349715  19.089  35.379   5.550
 7136POPC   PO449716  19.072  35.353   5.850
 7136POPC   GL149717  19.076  35.327   6.150
 7136POPC   GL249718  19.095  35.196   6.150
 7136POPC   C1A49719  19.060  35.377   6.450
 7136POPC   D2A49720  19.067  35.401   6.750
 7136POPC   C3A49721  19.106  35.310   7.050
 7136POPC   C4A49722  19.100  35.304   7.350
 7136POPC   C1B49723  19.208  35.169   6.450
 7136POPC   C2B49724  19.193  35.154   6.750
 7136POPC   C3B49725  19.149  35.136   7.050
 7136POPC   C4B49726  19.164  35.120   7.350
 7137POPC   NC349727   8.240  22.956   5.550
 7137POPC   PO449728   8.171  22.959   5.850
 7137POPC   GL149729   8.158  22.903   6.150
 7137POPC   GL249730   8.148  23.110   6.150
 7137POPC   C1A49731   8.159  22.943   6.450
 7137POPC   D2A49732   8.213  22.923   6.750
 7137POPC   C3A49733   8.157  22.947   7.050
 7137POPC   C4A49734   8.161  22.889   7.350
 7137POPC   C1B49735   8.211  23.151   6.450
 7137POPC   C2B49736   8.137  23.189   6.750
 7137POPC   C3B49737   8.124  23.209   7.050
 7137POPC   C4B49738   8.120  23.216   7.350
 7138POPC   NC349739  19.866   0.449   5.550
 7138POPC   PO449740  19.803   0.388   5.850
 7138POPC   GL149741  19.850   0.458   6.150
 7138POPC   GL249742  19.791   0.357   6.150
 7138POPC   C1A49743  19.848   0.414   6.450
 7138POPC   D2A49744  19.828   0.395   6.750
 7138POPC   C3A49745  19.849   0.398   7.050
 7138POPC   C4A49746  19.863   0.486   7.350
 7138POPC   C1B49747  19.674   0.255   6.450
 7138POPC   C2B49748  19.672   0.217   6.750
 7138POPC   C3B49749  19.696   0.256   7.050
 7138POPC   C4B49750  19.607   0.279   7.350
 7139POPC   NC349751  39.203  19.059   5.550
 7139POPC   PO449752  39.251  19.099   5.850
 7139POPC   GL149753  39.252  19.099   6.150
 7139POPC   GL249754  39.337  18.994   6.150
 7139POPC   C1A49755  39.194  19.042   6.450
 7139POPC   D2A49756  39.227  19.077   6.750
 7139POPC   C3A49757  39.245  19.082   7.050
 7139POPC   C4A49758  39.216  19.020   7.350
 7139POPC   C1B49759  39.405  18.828   6.450
 7139POPC   C2B49760  39.409  18.826   6.750
 7139POPC   C3B49761  39.366  18.826   7.050
 7139POPC   C4B49762  39.400  18.856   7.350
 7140POPC   NC349763  16.000   5.064   5.550
 7140POPC   PO449764  15.945   5.079   5.850
 7140POPC   GL149765  15.943   5.052   6.150
 7140POPC   GL249766  15.788   5.134   6.150
 7140POPC   C1A49767  15.961   5.084   6.450
 7140POPC   D2A49768  15.917   5.044   6.750
 7140POPC   C3A49769  15.940   5.123   7.050
 7140POPC   C4A49770  15.998   5.094   7.350
 7140POPC   C1B49771  15.743   5.128   6.450
 7140POPC   C2B49772  15.749   5.080   6.750
 7140POPC   C3B49773  15.693   5.132   7.050
 7140POPC   C4B49774  15.729   5.143   7.350
 7141POPC   NC349775  21.408   2.005   5.550
 7141POPC   PO449776  21.361   1.952   5.850
 7141POPC   GL149777  21.399   2.032   6.150
 7141POPC   GL249778  21.412   2.142   6.150
 7141POPC   C1A49779  21.360   1.975   6.450
 7141POPC   D2A49780  21.363   1.981   6.750
 7141POPC   C3A49781  21.383   1.959   7.050
 7141POPC   C4A49782  21.425   1.961   7.350
 7141POPC   C1B49783  21.507   2.193   6.450
 7141POPC   C2B49784  21.450   2.232   6.750
 7141POPC   C3B49785  21.477   2.224   7.050
 7141POPC   C4B49786  21.451   2.252   7.350
 7142POPC   NC349787   0.413  39.270   5.550
 7142POPC   PO449788   0.428  39.272   5.850
 7142POPC   GL149789   0.463  39.194   6.150
 7142POPC   GL249790   0.603  39.287   6.150
 7142POPC   C1A49791   0.454  39.263   6.450
 7142POPC   D2A49792   0.468  39.202   6.750
 7142POPC   C3A49793   0.404  39.221   7.050
 7142POPC   C4A49794   0.423  39.184   7.350
 7142POPC   C1B49795   0.694  39.224   6.450
 7142POPC   C2B49796   0.643  39.299   6.750
 7142POPC   C3B49797   0.689  39.247   7.050
 7142POPC   C4B49798   0.688  39.233   7.350
 7143POPC   NC349799  18.273  26.068   5.550
 7143POPC   PO449800  18.250  26.036   5.850
 7143POPC   GL149801  18.284  26.000   6.150
 7143POPC   GL249802  18.287  26.150   6.150
 7143POPC   C1A49803  18.308  26.084   6.450
 7143POPC   D2A49804  18.295  26.081   6.750
 7143POPC   C3A49805  18.255  26.027   7.050
 7143POPC   C4A49806  18.273  26.090   7.350
 7143POPC   C1B49807  18.382  26.242   6.450
 7143POPC   C2B49808  18.350  26.320   6.750
 7143POPC   C3B49809  18.374  26.300   7.050
 7143POPC   C4B49810  18.392  26.286   7.350
 7144POPC   NC349811   5.823  37.715   5.550
 7144POPC   PO449812   5.900  37.693   5.850
 7144POPC   GL149813   5.899  37.672   6.150
 7144POPC   GL249814   5.733  37.708   6.150
 7144POPC   C1A49815   5.881  37.645   6.450
 7144POPC   D2A49816   5.898  37.688   6.750
 7144POPC   C3A49817   5.918  37.658   7.050
 7144POPC   C4A49818   5.873  37.644   7.350
 7144POPC   C1B49819   5.598  37.746   6.450
 7144POPC   C2B49820   5.627  37.766   6.750
 7144POPC   C3B49821   5.615  37.723   7.050
 7144POPC   C4B49822   5.654  37.765   7.350
 7145POPC   NC349823   1.956  12.052   5.550
 7145POPC   PO449824   1.970  12.052   5.850
 7145POPC   GL149825   2.010  12.067   6.150
 7145POPC   GL249826   2.037  12.203   6.150
 7145POPC   C1A49827   2.032  12.073   6.450
 7145POPC   D2A49828   2.014  12.072   6.750
 7145POPC   C3A49829   1.953  12.104   7.050
 7145POPC   C4A49830   1.999  12.031   7.350
 7145POPC   C1B49831   2.150  12.266   6.450
 7145POPC   C2B49832   2.181  12.212   6.750
 7145POPC   C3B49833   2.196  12.251   7.050
 7145POPC   C4B49834   2.166  12.225   7.350
 7146POPC   NC349835  21.431  32.217   5.550
 7146POPC   PO449836  21.435  32.282   5.850
 7146POPC   GL149837  21.422  32.261   6.150
 7146POPC   GL249838  21.308  32.308   6.150
 7146POPC   C1A49839  21.344  32.270   6.450
 7146POPC   D2A49840  21.349  32.203   6.750
 7146POPC   C3A49841  21.431  32.296   7.050
 7146POPC   C4A49842  21.400  32.219   7.350
 7146POPC   C1B49843  21.132  32.349   6.450
 7146POPC   C2B49844  21.142  32.288   6.750
 7146POPC   C3B49845  21.180  32.367   7.050
 7146POPC   C4B49846  21.144  32.382   7.350
 7147POPC   NC349847  33.774  12.060   5.550
 7147POPC   PO449848  33.816  12.043   5.850
 7147POPC   GL149849  33.769  12.105   6.150
 7147POPC   GL249850  33.788  11.937   6.150
 7147POPC   C1A49851  33.846  12.114   6.450
 7147POPC   D2A49852  33.816  12.063   6.750
 7147POPC   C3A49853  33.803  12.102   7.050
 7147POPC   C4A49854  33.755  12.098   7.350
 7147POPC   C1B49855  33.796  11.802   6.450
 7147POPC   C2B49856  33.758  11.796   6.750
 7147POPC   C3B49857  33.741  11.788   7.050
 7147POPC   C4B49858  33.717  11.877   7.350
 7148POPC   NC349859  40.038  29.124   5.550
 7148POPC   PO449860  40.014  29.118   5.850
 7148POPC   GL149861  40.042  29.140   6.150
 7148POPC   GL249862  39.952  29.292   6.150
 7148POPC   C1A49863  40.053  29.190   6.450
 7148POPC   D2A49864  40.034  29.101   6.750
 7148POPC   C3A49865  39.990  29.156   7.050
 7148POPC   C4A49866  40.033  29.121   7.350
 7148POPC   C1B49867  39.950  29.359   6.450
 7148POPC   C2B49868  39.956  29.384   6.750
 7148POPC   C3B49869  39.914  29.371   7.050
 7148POPC   C4B49870  39.955  29.431   7.350
 7149POPC   NC349871  22.960  36.100   5.550
 7149POPC   PO449872  22.889  36.172   5.850
 7149POPC   GL149873  22.907  36.096   6.150
 7149POPC   GL249874  22.834  36.193   6.150
 7149POPC   C1A49875  22.935  36.158   6.450
 7149POPC   D2A49876  22.910  36.087   6.750
 7149POPC   C3A49877  22.900  36.107   7.050
 7149POPC   C4A49878  22.972  36.170   7.350
 7149POPC   C1B49879  22.674  36.242   6.450
 7149POPC   C2B49880  22.675  36.237   6.750
 7149POPC   C3B49881  22.657  36.250   7.050
 7149POPC   C4B49882  22.739  36.240   7.350
 7150POPC   NC349883  19.832  32.255   5.550
 7150POPC   PO449884  19.867  32.256   5.850
 7150POPC   GL149885  19.869  32.245   6.150
 7150POPC   GL249886  19.900  32.345   6.150
 7150POPC   C1A49887  19.844  32.236   6.450
 7150POPC   D2A49888  19.875  32.245   6.750
 7150POPC   C3A49889  19.835  32.270   7.050
 7150POPC   C4A49890  19.811  32.207   7.350
 7150POPC   C1B49891  19.938  32.455   6.450
 7150POPC   C2B49892  19.865  32.494   6.750
 7150POPC   C3B49893  19.934  32.487   7.050
 7150POPC   C4B49894  19.860  32.503   7.350
 7151POPC   NC349895  42.303   5.845   5.550
 7151POPC   PO449896  42.363   5.843   5.850
 7151POPC   GL149897  42.354   5.861   6.150
 7151POPC   GL249898  42.245   5.763   6.150
 7151POPC   C1A49899  42.323   5.877   6.450
 7151POPC   D2A49900  42.292   5.917   6.750
 7151POPC   C3A49901  42.323   5.853   7.050
 7151POPC   C4A49902  42.374   5.844   7.350
 7151POPC   C1B49903  42.219   5.664   6.450
 7151POPC   C2B49904  42.275   5.615   6.750
 7151POPC   C3B49905  42.276   5.672   7.050
 7151POPC   C4B49906  42.243   5.647   7.350
 7152POPC   NC349907  27.629  43.884   5.550
 7152POPC   PO449908  27.634  43.924   5.850
 7152POPC   GL149909  27.601  43.915   6.150
 7152POPC   GL249910  27.536  43.819   6.150
 7152POPC   C1A49911  27.596  43.876   6.450
 7152POPC   D2A49912  27.609  43.845   6.750
 7152POPC   C3A49913  27.604  43.908   7.050
 7152POPC   C4A49914  27.582  43.850   7.350
 7152POPC   C1B49915  27.500  43.691   6.450
 7152POPC   C2B49916  27.479  43.688   6.750
 7152POPC   C3B49917  27.422  43.696   7.050
 7152POPC   C4B49918  27.466  43.700   7.350
 7153POPC   NC349919  26.854  11.319   5.550
 7153POPC   PO449920  26.844  11.313   5.850
 7153POPC   GL149921  26.769  11.297   6.150
 7153POPC   GL249922  26.777  11.360   6.150
 7153POPC   C1A49923  26.829  11.344   6.450
 7153POPC   D2A49924  26.801  11.338   6.750
 7153POPC   C3A49925  26.794  11.298   7.050
 7153POPC   C4A49926  26.856  11.306   7.350
 7153POPC   C1B49927  26.674  11.536   6.450
 7153POPC   C2B49928  26.641  11.531   6.750
 7153POPC   C3B49929  26.641  11.530   7.050
 7153POPC   C4B49930  26.707  11.551   7.350
 7154POPC   NC349931  35.392  35.325   5.550
 7154POPC   PO449932  35.385  35.391   5.850
 7154POPC   GL149933  35.309  35.336   6.150
 7154POPC   GL249934  35.208  35.368   6.150
 7154POPC   C1A49935  35.339  35.305   6.450
 7154POPC   D2A49936  35.334  35.391   6.750
 7154POPC   C3A49937  35.343  35.333   7.050
 7154POPC   C4A49938  35.385  35.367   7.350
 7154POPC   C1B49939  35.102  35.426   6.450
 7154POPC   C2B49940  35.063  35.422   6.750
 7154POPC   C3B49941  35.098  35.433   7.050
 7154POPC   C4B49942  35.067  35.463   7.350
 7155POPC   NC349943  39.998  35.323   5.550
 7155POPC   PO449944  40.027  35.368   5.850
 7155POPC   GL149945  40.019  35.346   6.150
 7155POPC   GL249946  39.986  35.432   6.150
 7155POPC   C1A49947  39.979  35.333   6.450
 7155POPC   D2A49948  40.016  35.334   6.750
 7155POPC   C3A49949  40.034  35.312   7.050
 7155POPC   C4A49950  39.964  35.395   7.350
 7155POPC   C1B49951  40.002  35.581   6.450
 7155POPC   C2B49952  39.998  35.608   6.750
 7155POPC   C3B49953  40.026  35.646   7.050
 7155POPC   C4B49954  40.060  35.623   7.350
 7156POPC   NC349955  16.759  37.654   5.550
 7156POPC   PO449956  16.696  37.631   5.850
 7156POPC   GL149957  16.715  37.688   6.150
 7156POPC   GL249958  16.571  37.607   6.150
 7156POPC   C1A49959  16.702  37.679   6.450
 7156POPC   D2A49960  16.763  37.639   6.750
 7156POPC   C3A49961  16.714  37.718   7.050
 7156POPC   C4A49962  16.778  37.686   7.350
 7156POPC   C1B49963  16.486  37.590   6.450
 7156POPC   C2B49964  16.471  37.599   6.750
 7156POPC   C3B49965  16.526  37.594   7.050
 7156POPC   C4B49966  16.531  37.621   7.350
 7157POPC   NC349967  37.705   1.178   5.550
 7157POPC   PO449968  37.683   1.210   5.850
 7157POPC   GL149969  37.672   1.247   6.150
 7157POPC   GL249970  37.567   1.141   6.150
 7157POPC   C1A49971  37.688   1.257   6.450
 7157POPC   D2A49972  37.657   1.190   6.750
 7157POPC   C3A49973  37.685   1.226   7.050
 7157POPC   C4A49974  37.680   1.248   7.350
 7157POPC   C1B49975  37.416   1.097   6.450
 7157POPC   C2B49976  37.454   1.147   6.750
 7157POPC   C3B49977  37.409   1.120   7.050
 7157POPC   C4B49978  37.451   1.081   7.350
 7158POPC   NC349979   8.170  41.588   5.550
 7158POPC   PO449980   8.178  41.563   5.850
 7158POPC   GL149981   8.216  41.606   6.150
 7158POPC   GL249982   8.333  41.654   6.150
 7158POPC   C1A49983   8.176  41.543   6.450
 7158POPC   D2A49984   8.239  41.581   6.750
 7158POPC   C3A49985   8.191  41.537   7.050
 7158POPC   C4A49986   8.228  41.539   7.350
 7158POPC   C1B49987   8.425  41.654   6.450
 7158POPC   C2B49988   8.414  41.700   6.750
 7158POPC   C3B49989   8.414  41.675   7.050
 7158POPC   C4B49990   8.370  41.628   7.350
 7159POPC   NC349991  13.602  23.731   5.550
 7159POPC   PO449992  13.615  23.725   5.850
 7159POPC   GL149993  13.659  23.712   6.150
 7159POPC   GL249994  13.766  23.668   6.150
 7159POPC   C1A49995  13.659  23.711   6.450
 7159POPC   D2A49996  13.639  23.684   6.750
 7159POPC   C3A49997  13.646  23.761   7.050
 7159POPC   C4A49998  13.666  23.711   7.350
 7159POPC   C1B49999  13.849  23.570   6.450
 7159POPC   C2B50000  13.831  23.526   6.750
 7159POPC   C3B50001  13.792  23.572   7.050
 7159POPC   C4B50002  13.839  23.524   7.350
 7160POPC   NC350003   1.249  19.024   5.550
 7160POPC   PO450004   1.232  19.106   5.850
 7160POPC   GL150005   1.171  19.043   6.150
 7160POPC   GL250006   1.133  18.933   6.150
 7160POPC   C1A50007   1.220  19.046   6.450
 7160POPC   D2A50008   1.186  19.059   6.750
 7160POPC   C3A50009   1.251  19.036   7.050
 7160POPC   C4A50010   1.215  19.053   7.350
 7160POPC   C1B50011   1.074  18.916   6.450
 7160POPC   C2B50012   1.037  18.897   6.750
 7160POPC   C3B50013   1.074  18.902   7.050
 7160POPC   C4B50014   1.074  18.910   7.350
 7161POPC   NC350015  12.892   8.206   5.550
 7161POPC   PO450016  12.817   8.173   5.850
 7161POPC   GL150017  12.895   8.168   6.150
 7161POPC   GL250018  12.946   8.174   6.150
 7161POPC   C1A50019  12.809   8.223   6.450
 7161POPC   D2A50020  12.817   8.242   6.750
 7161POPC   C3A50021  12.894   8.186   7.050
 7161POPC   C4A50022  12.859   8.217   7.350
 7161POPC   C1B50023  13.151   8.226   6.450
 7161POPC   C2B50024  13.151   8.164   6.750
 7161POPC   C3B50025  13.075   8.196   7.050
 7161POPC   C4B50026  13.107   8.236   7.350
 7162POPC   NC350027  31.462   5.831   5.550
 7162POPC   PO450028  31.522   5.837   5.850
 7162POPC   GL150029  31.487   5.847   6.150
 7162POPC   GL250030  31.570   5.976   6.150
 7162POPC   C1A50031  31.433   5.877   6.450
 7162POPC   D2A50032  31.481   5.902   6.750
 7162POPC   C3A50033  31.481   5.853   7.050
 7162POPC   C4A50034  31.458   5.888   7.350
 7162POPC   C1B50035  31.590   6.063   6.450
 7162POPC   C2B50036  31.603   6.059   6.750
 7162POPC   C3B50037  31.597   6.112   7.050
 7162POPC   C4B50038  31.563   6.080   7.350
 7163POPC   NC350039  28.408   1.969   5.550
 7163POPC   PO450040  28.398   2.029   5.850
 7163POPC   GL150041  28.333   1.997   6.150
 7163POPC   GL250042  28.367   2.098   6.150
 7163POPC   C1A50043  28.397   2.013   6.450
 7163POPC   D2A50044  28.413   1.958   6.750
 7163POPC   C3A50045  28.417   2.005   7.050
 7163POPC   C4A50046  28.331   2.022   7.350
 7163POPC   C1B50047  28.376   2.277   6.450
 7163POPC   C2B50048  28.372   2.267   6.750
 7163POPC   C3B50049  28.288   2.220   7.050
 7163POPC   C4B50050  28.312   2.271   7.350
 7164POPC   NC350051  30.654   8.166   5.550
 7164POPC   PO450052  30.686   8.244   5.850
 7164POPC   GL150053  30.665   8.152   6.150
 7164POPC   GL250054  30.565   8.158   6.150
 7164POPC   C1A50055  30.736   8.216   6.450
 7164POPC   D2A50056  30.668   8.185   6.750
 7164POPC   C3A50057  30.683   8.240   7.050
 7164POPC   C4A50058  30.688   8.240   7.350
 7164POPC   C1B50059  30.512   8.116   6.450
 7164POPC   C2B50060  30.485   8.114   6.750
 7164POPC   C3B50061  30.476   8.034   7.050
 7164POPC   C4B50062  30.506   8.090   7.350
 7165POPC   NC350063  18.257  35.399   5.550
 7165POPC   PO450064  18.265  35.311   5.850
 7165POPC   GL150065  18.263  35.364   6.150
 7165POPC   GL250066  18.354  35.291   6.150
 7165POPC   C1A50067  18.310  35.313   6.450
 7165POPC   D2A50068  18.239  35.308   6.750
 7165POPC   C3A50069  18.261  35.308   7.050
 7165POPC   C4A50070  18.315  35.400   7.350
 7165POPC   C1B50071  18.533  35.263   6.450
 7165POPC   C2B50072  18.548  35.236   6.750
 7165POPC   C3B50073  18.480  35.280   7.050
 7165POPC   C4B50074  18.510  35.236   7.350
 7166POPC   NC350075  24.514   4.305   5.550
 7166POPC   PO450076  24.471   4.307   5.850
 7166POPC   GL150077  24.514   4.342   6.150
 7166POPC   GL250078  24.426   4.220   6.150
 7166POPC   C1A50079  24.474   4.354   6.450
 7166POPC   D2A50080  24.493   4.295   6.750
 7166POPC   C3A50081  24.499   4.358   7.050
 7166POPC   C4A50082  24.446   4.333   7.350
 7166POPC   C1B50083  24.334   4.106   6.450
 7166POPC   C2B50084  24.318   4.101   6.750
 7166POPC   C3B50085  24.335   4.175   7.050
 7166POPC   C4B50086  24.298   4.095   7.350
 7167POPC   NC350087  40.832  41.520   5.550
 7167POPC   PO450088  40.826  41.583   5.850
 7167POPC   GL150089  40.808  41.593   6.150
 7167POPC   GL250090  40.819  41.408   6.150
 7167POPC   C1A50091  40.767  41.515   6.450
 7167POPC   D2A50092  40.816  41.578   6.750
 7167POPC   C3A50093  40.785  41.545   7.050
 7167POPC   C4A50094  40.760  41.526   7.350
 7167POPC   C1B50095  40.841  41.351   6.450
 7167POPC   C2B50096  40.840  41.284   6.750
 7167POPC   C3B50097  40.808  41.273   7.050
 7167POPC   C4B50098  40.809  41.295   7.350
 7168POPC   NC350099  40.816  18.255   5.550
 7168POPC   PO450100  40.832  18.299   5.850
 7168POPC   GL150101  40.749  18.273   6.150
 7168POPC   GL250102  40.859  18.205   6.150
 7168POPC   C1A50103  40.830  18.299   6.450
 7168POPC   D2A50104  40.777  18.235   6.750
 7168POPC   C3A50105  40.804  18.296   7.050
 7168POPC   C4A50106  40.795  18.319   7.350
 7168POPC   C1B50107  41.008  18.222   6.450
 7168POPC   C2B50108  40.968  18.220   6.750
 7168POPC   C3B50109  41.007  18.190   7.050
 7168POPC   C4B50110  41.032  18.143   7.350
 7169POPC   NC350111   8.246  33.785   5.550
 7169POPC   PO450112   8.189  33.758   5.850
 7169POPC   GL150113   8.178  33.814   6.150
 7169POPC   GL250114   8.346  33.729   6.150
 7169POPC   C1A50115   8.199  33.754   6.450
 7169POPC   D2A50116   8.188  33.777   6.750
 7169POPC   C3A50117   8.170  33.847   7.050
 7169POPC   C4A50118   8.203  33.753   7.350
 7169POPC   C1B50119   8.467  33.733   6.450
 7169POPC   C2B50120   8.411  33.718   6.750
 7169POPC   C3B50121   8.400  33.719   7.050
 7169POPC   C4B50122   8.411  33.753   7.350
 7170POPC   NC350123  27.564   4.308   5.550
 7170POPC   PO450124  27.609   4.304   5.850
 7170POPC   GL150125  27.561   4.289   6.150
 7170POPC   GL250126  27.689   4.213   6.150
 7170POPC   C1A50127  27.631   4.355   6.450
 7170POPC   D2A50128  27.605   4.366   6.750
 7170POPC   C3A50129  27.589   4.311   7.050
 7170POPC   C4A50130  27.560   4.310   7.350
 7170POPC   C1B50131  27.751   4.107   6.450
 7170POPC   C2B50132  27.758   4.159   6.750
 7170POPC   C3B50133  27.744   4.070   7.050
 7170POPC   C4B50134  27.765   4.101   7.350
 7171POPC   NC350135  27.550   0.483   5.550
 7171POPC   PO450136  27.599   0.408   5.850
 7171POPC   GL150137  27.635   0.466   6.150
 7171POPC   GL250138  27.517   0.422   6.150
 7171POPC   C1A50139  27.637   0.460   6.450
 7171POPC   D2A50140  27.605   0.428   6.750
 7171POPC   C3A50141  27.562   0.453   7.050
 7171POPC   C4A50142  27.544   0.483   7.350
 7171POPC   C1B50143  27.365   0.289   6.450
 7171POPC   C2B50144  27.415   0.280   6.750
 7171POPC   C3B50145  27.332   0.368   7.050
 7171POPC   C4B50146  27.403   0.375   7.350
 7172POPC   NC350147  38.489  22.903   5.550
 7172POPC   PO450148  38.463  22.972   5.850
 7172POPC   GL150149  38.444  22.978   6.150
 7172POPC   GL250150  38.394  22.875   6.150
 7172POPC   C1A50151  38.443  22.966   6.450
 7172POPC   D2A50152  38.433  22.932   6.750
 7172POPC   C3A50153  38.459  22.894   7.050
 7172POPC   C4A50154  38.431  22.948   7.350
 7172POPC   C1B50155  38.279  22.753   6.450
 7172POPC   C2B50156  38.264  22.791   6.750
 7172POPC   C3B50157  38.261  22.787   7.050
 7172POPC   C4B50158  38.326  22.730   7.350
 7173POPC   NC350159  43.107  43.895   5.550
 7173POPC   PO450160  43.093  43.858   5.850
 7173POPC   GL150161  43.158  43.872   6.150
 7173POPC   GL250162  43.199  43.940   6.150
 7173POPC   C1A50163  43.095  43.933   6.450
 7173POPC   D2A50164  43.093  43.843   6.750
 7173POPC   C3A50165  43.136  43.879   7.050
 7173POPC   C4A50166  43.091  43.842   7.350
 7173POPC   C1B50167  43.291  44.074   6.450
 7173POPC   C2B50168  43.304  44.083   6.750
 7173POPC   C3B50169  43.294  44.133   7.050
 7173POPC   C4B50170  43.240  44.088   7.350
 7174POPC   NC350171  39.986  43.085   5.550
 7174POPC   PO450172  40.050  43.114   5.850
 7174POPC   GL150173  40.056  43.114   6.150
 7174POPC   GL250174  40.117  43.230   6.150
 7174POPC   C1A50175  40.049  43.134   6.450
 7174POPC   D2A50176  40.055  43.107   6.750
 7174POPC   C3A50177  39.996  43.148   7.050
 7174POPC   C4A50178  39.963  43.156   7.350
 7174POPC   C1B50179  40.168  43.302   6.450
 7174POPC   C2B50180  40.104  43.312   6.750
 7174POPC   C3B50181  40.158  43.353   7.050
 7174POPC   C4B50182  40.194  43.326   7.350
 7175POPC   NC350183   3.511  19.060   5.550
 7175POPC   PO450184   3.520  19.018   5.850
 7175POPC   GL150185   3.588  19.090   6.150
 7175POPC   GL250186   3.654  19.026   6.150
 7175POPC   C1A50187   3.537  19.021   6.450
 7175POPC   D2A50188   3.576  19.047   6.750
 7175POPC   C3A50189   3.525  19.108   7.050
 7175POPC   C4A50190   3.527  19.081   7.350
 7175POPC   C1B50191   3.827  18.981   6.450
 7175POPC   C2B50192   3.801  18.993   6.750
 7175POPC   C3B50193   3.771  19.052   7.050
 7175POPC   C4B50194   3.741  19.003   7.350
 7176POPC   NC350195  20.633  16.732   5.550
 7176POPC   PO450196  20.562  16.699   5.850
 7176POPC   GL150197  20.603  16.745   6.150
 7176POPC   GL250198  20.505  16.663   6.150
 7176POPC   C1A50199  20.615  16.729   6.450
 7176POPC   D2A50200  20.599  16.682   6.750
 7176POPC   C3A50201  20.605  16.739   7.050
 7176POPC   C4A50202  20.633  16.696   7.350
 7176POPC   C1B50203  20.351  16.677   6.450
 7176POPC   C2B50204  20.363  16.702   6.750
 7176POPC   C3B50205  20.376  16.709   7.050
 7176POPC   C4B50206  20.397  16.698   7.350
 7177POPC   NC350207  33.800  43.074   5.550
 7177POPC   PO450208  33.829  43.110   5.850
 7177POPC   GL150209  33.780  43.078   6.150
 7177POPC   GL250210  33.742  43.194   6.150
 7177POPC   C1A50211  33.795  43.141   6.450
 7177POPC   D2A50212  33.751  43.123   6.750
 7177POPC   C3A50213  33.769  43.082   7.050
 7177POPC   C4A50214  33.839  43.147   7.350
 7177POPC   C1B50215  33.578  43.238   6.450
 7177POPC   C2B50216  33.597  43.230   6.750
 7177POPC   C3B50217  33.576  43.323   7.050
 7177POPC   C4B50218  33.577  43.234   7.350
 7178POPC   NC350219  43.153  33.784   5.550
 7178POPC   PO450220  43.108  33.796   5.850
 7178POPC   GL150221  43.116  33.807   6.150
 7178POPC   GL250222  43.124  33.682   6.150
 7178POPC   C1A50223  43.099  33.782   6.450
 7178POPC   D2A50224  43.083  33.812   6.750
 7178POPC   C3A50225  43.080  33.790   7.050
 7178POPC   C4A50226  43.146  33.816   7.350
 7178POPC   C1B50227  43.068  33.557   6.450
 7178POPC   C2B50228  43.055  33.593   6.750
 7178POPC   C3B50229  43.086  33.575   7.050
 7178POPC   C4B50230  43.037  33.534   7.350
 7179POPC   NC350231  28.344  23.693   5.550
 7179POPC   PO450232  28.406  23.700   5.850
 7179POPC   GL150233  28.321  23.687   6.150
 7179POPC   GL250234  28.483  23.796   6.150
 7179POPC   C1A50235  28.396  23.708   6.450
 7179POPC   D2A50236  28.389  23.708   6.750
 7179POPC   C3A50237  28.383  23.722   7.050
 7179POPC   C4A50238  28.349  23.743   7.350
 7179POPC   C1B50239  28.647  23.745   6.450
 7179POPC   C2B50240  28.633  23.794   6.750
 7179POPC   C3B50241  28.648  23.825   7.050
 7179POPC   C4B50242  28.657  23.810   7.350
 7180POPC   NC350243  14.363   8.998   5.550
 7180POPC   PO450244  14.421   8.971   5.850
 7180POPC   GL150245  14.452   8.936   6.150
 7180POPC   GL250246  14.532   8.983   6.150
 7180POPC   C1A50247  14.373   8.998   6.450
 7180POPC   D2A50248  14.406   8.983   6.750
 7180POPC   C3A50249  14.440   8.986   7.050
 7180POPC   C4A50250  14.452   8.959   7.350
 7180POPC   C1B50251  14.622   8.929   6.450
 7180POPC   C2B50252  14.629   8.954   6.750
 7180POPC   C3B50253  14.662   8.961   7.050
 7180POPC   C4B50254  14.633   8.963   7.350
 7181POPC   NC350255  26.069  17.555   5.550
 7181POPC   PO450256  26.029  17.506   5.850
 7181POPC   GL150257  26.032  17.497   6.150
 7181POPC   GL250258  26.086  17.354   6.150
 7181POPC   C1A50259  26.010  17.551   6.450
 7181POPC   D2A50260  26.049  17.530   6.750
 7181POPC   C3A50261  26.044  17.472   7.050
 7181POPC   C4A50262  26.033  17.501   7.350
 7181POPC   C1B50263  26.152  17.302   6.450
 7181POPC   C2B50264  26.137  17.253   6.750
 7181POPC   C3B50265  26.177  17.306   7.050
 7181POPC   C4B50266  26.150  17.280   7.350
 7182POPC   NC350267  21.400  43.113   5.550
 7182POPC   PO450268  21.403  43.127   5.850
 7182POPC   GL150269  21.366  43.070   6.150
 7182POPC   GL250270  21.247  43.157   6.150
 7182POPC   C1A50271  21.351  43.076   6.450
 7182POPC   D2A50272  21.371  43.121   6.750
 7182POPC   C3A50273  21.387  43.086   7.050
 7182POPC   C4A50274  21.346  43.125   7.350
 7182POPC   C1B50275  21.242  43.310   6.450
 7182POPC   C2B50276  21.203  43.254   6.750
 7182POPC   C3B50277  21.157  43.300   7.050
 7182POPC   C4B50278  21.218  43.318   7.350
 7183POPC   NC350279   1.187  40.805   5.550
 7183POPC   PO450280   1.187  40.734   5.850
 7183POPC   GL150281   1.225  40.748   6.150
 7183POPC   GL250282   1.189  40.661   6.150
 7183POPC   C1A50283   1.176  40.791   6.450
 7183POPC   D2A50284   1.183  40.746   6.750
 7183POPC   C3A50285   1.258  40.770   7.050
 7183POPC   C4A50286   1.235  40.785   7.350
 7183POPC   C1B50287   1.234  40.514   6.450
 7183POPC   C2B50288   1.293  40.508   6.750
 7183POPC   C3B50289   1.300  40.569   7.050
 7183POPC   C4B50290   1.236  40.579   7.350
 7184POPC   NC350291  12.833   1.961   5.550
 7184POPC   PO450292  12.818   2.037   5.850
 7184POPC   GL150293  12.871   2.024   6.150
 7184POPC   GL250294  12.863   2.079   6.150
 7184POPC   C1A50295  12.844   1.991   6.450
 7184POPC   D2A50296  12.833   2.036   6.750
 7184POPC   C3A50297  12.864   1.942   7.050
 7184POPC   C4A50298  12.823   2.013   7.350
 7184POPC   C1B50299  12.790   2.194   6.450
 7184POPC   C2B50300  12.820   2.251   6.750
 7184POPC   C3B50301  12.868   2.221   7.050
 7184POPC   C4B50302  12.809   2.256   7.350
 7185POPC   NC350303   5.070  12.832   5.550
 7185POPC   PO450304   5.128  12.862   5.850
 7185POPC   GL150305   5.099  12.899   6.150
 7185POPC   GL250306   5.003  12.770   6.150
 7185POPC   C1A50307   5.110  12.805   6.450
 7185POPC   D2A50308   5.136  12.877   6.750
 7185POPC   C3A50309   5.102  12.838   7.050
 7185POPC   C4A50310   5.089  12.851   7.350
 7185POPC   C1B50311   4.969  12.570   6.450
 7185POPC   C2B50312   4.987  12.629   6.750
 7185POPC   C3B50313   5.009  12.623   7.050
 7185POPC   C4B50314   4.973  12.584   7.350
 7186POPC   NC350315  36.149  16.727   5.550
 7186POPC   PO450316  36.119  16.739   5.850
 7186POPC   GL150317  36.099  16.754   6.150
 7186POPC   GL250318  36.169  16.642   6.150
 7186POPC   C1A50319  36.096  16.700   6.450
 7186POPC   D2A50320  36.157  16.759   6.750
 7186POPC   C3A50321  36.105  16.777   7.050
 7186POPC   C4A50322  36.107  16.770   7.350
 7186POPC   C1B50323  36.253  16.520   6.450
 7186POPC   C2B50324  36.208  16.477   6.750
 7186POPC   C3B50325  36.199  16.518   7.050
 7186POPC   C4B50326  36.222  16.480   7.350
 7187POPC   NC350327  14.415   8.201   5.550
 7187POPC   PO450328  14.393   8.218   5.850
 7187POPC   GL150329  14.375   8.160   6.150
 7187POPC   GL250330  14.386   8.065   6.150
 7187POPC   C1A50331  14.426   8.147   6.450
 7187POPC   D2A50332  14.421   8.172   6.750
 7187POPC   C3A50333  14.392   8.208   7.050
 7187POPC   C4A50334  14.369   8.153   7.350
 7187POPC   C1B50335  14.434   7.921   6.450
 7187POPC   C2B50336  14.417   7.940   6.750
 7187POPC   C3B50337  14.474   7.944   7.050
 7187POPC   C4B50338  14.402   7.975   7.350
 7188POPC   NC350339  26.076   0.449   5.550
 7188POPC   PO450340  26.028   0.473   5.850
 7188POPC   GL150341  26.074   0.450   6.150
 7188POPC   GL250342  26.082   0.550   6.150
 7188POPC   C1A50343  26.066   0.457   6.450
 7188POPC   D2A50344  26.076   0.460   6.750
 7188POPC   C3A50345  26.014   0.432   7.050
 7188POPC   C4A50346  26.053   0.447   7.350
 7188POPC   C1B50347  26.017   0.711   6.450
 7188POPC   C2B50348  26.002   0.693   6.750
 7188POPC   C3B50349  25.985   0.727   7.050
 7188POPC   C4B50350  26.077   0.686   7.350
 7189POPC   NC350351   4.363   3.525   5.550
 7189POPC   PO450352   4.272   3.525   5.850
 7189POPC   GL150353   4.271   3.579   6.150
 7189POPC   GL250354   4.302   3.690   6.150
 7189POPC   C1A50355   4.365   3.510   6.450
 7189POPC   D2A50356   4.288   3.557   6.750
 7189POPC   C3A50357   4.358   3.524   7.050
 7189POPC   C4A50358   4.282   3.564   7.350
 7189POPC   C1B50359   4.224   3.827   6.450
 7189POPC   C2B50360   4.210   3.803   6.750
 7189POPC   C3B50361   4.299   3.801   7.050
 7189POPC   C4B50362   4.300   3.749   7.350
 7190POPC   NC350363  40.774   2.792   5.550
 7190POPC   PO450364  40.821   2.729   5.850
 7190POPC   GL150365  40.819   2.802   6.150
 7190POPC   GL250366  40.782   2.614   6.150
 7190POPC   C1A50367  40.736   2.755   6.450
 7190POPC   D2A50368  40.742   2.781   6.750
 7190POPC   C3A50369  40.741   2.793   7.050
 7190POPC   C4A50370  40.748   2.749   7.350
 7190POPC   C1B50371  40.827   2.547   6.450
 7190POPC   C2B50372  40.820   2.514   6.750
 7190POPC   C3B50373  40.812   2.468   7.050
 7190POPC   C4B50374  40.778   2.537   7.350
 7191POPC   NC350375  10.482  44.662   5.550
 7191POPC   PO450376  10.561  44.630   5.850
 7191POPC   GL150377  10.479  44.635   6.150
 7191POPC   GL250378  10.452  44.680   6.150
 7191POPC   C1A50379  10.542  44.628   6.450
 7191POPC   D2A50380  10.556  44.652   6.750
 7191POPC   C3A50381  10.482  44.664   7.050
 7191POPC   C4A50382  10.505  44.656   7.350
 7191POPC   C1B50383  10.292  44.754   6.450
 7191POPC   C2B50384  10.248  44.719   6.750
 7191POPC   C3B50385  10.321  44.781   7.050
 7191POPC   C4B50386  10.266  44.708   7.350
 7192POPC   NC350387   5.111  19.881   5.550
 7192POPC   PO450388   5.110  19.883   5.850
 7192POPC   GL150389   5.079  19.862   6.150
 7192POPC   GL250390   5.063  19.676   6.150
 7192POPC   C1A50391   5.136  19.851   6.450
 7192POPC   D2A50392   5.053  19.808   6.750
 7192POPC   C3A50393   5.120  19.883   7.050
 7192POPC   C4A50394   5.107  19.873   7.350
 7192POPC   C1B50395   5.057  19.551   6.450
 7192POPC   C2B50396   5.044  19.561   6.750
 7192POPC   C3B50397   5.058  19.608   7.050
 7192POPC   C4B50398   5.062  19.568   7.350
 7193POPC   NC350399   9.781  25.219   5.550
 7193POPC   PO450400   9.736  25.293   5.850
 7193POPC   GL150401   9.721  25.221   6.150
 7193POPC   GL250402   9.585  25.316   6.150
 7193POPC   C1A50403   9.797  25.299   6.450
 7193POPC   D2A50404   9.778  25.263   6.750
 7193POPC   C3A50405   9.739  25.262   7.050
 7193POPC   C4A50406   9.728  25.297   7.350
 7193POPC   C1B50407   9.494  25.330   6.450
 7193POPC   C2B50408   9.477  25.349   6.750
 7193POPC   C3B50409   9.512  25.344   7.050
 7193POPC   C4B50410   9.513  25.377   7.350
 7194POPC   NC350411  17.550  35.399   5.550
 7194POPC   PO450412  17.518  35.333   5.850
 7194POPC   GL150413  17.526  35.306   6.150
 7194POPC   GL250414  17.446  35.261   6.150
 7194POPC   C1A50415  17.484  35.325   6.450
 7194POPC   D2A50416  17.481  35.342   6.750
 7194POPC   C3A50417  17.498  35.344   7.050
 7194POPC   C4A50418  17.476  35.367   7.350
 7194POPC   C1B50419  17.340  35.242   6.450
 7194POPC   C2B50420  17.347  35.227   6.750
 7194POPC   C3B50421  17.310  35.220   7.050
 7194POPC   C4B50422  17.311  35.199   7.350
 7195POPC   NC350423  26.846  19.051   5.550
 7195POPC   PO450424  26.806  19.047   5.850
 7195POPC   GL150425  26.866  19.075   6.150
 7195POPC   GL250426  26.681  19.036   6.150
 7195POPC   C1A50427  26.859  19.010   6.450
 7195POPC   D2A50428  26.770  19.043   6.750
 7195POPC   C3A50429  26.774  19.071   7.050
 7195POPC   C4A50430  26.776  19.063   7.350
 7195POPC   C1B50431  26.596  18.982   6.450
 7195POPC   C2B50432  26.573  18.955   6.750
 7195POPC   C3B50433  26.624  18.902   7.050
 7195POPC   C4B50434  26.575  18.993   7.350
 7196POPC   NC350435   5.094  18.247   5.550
 7196POPC   PO450436   5.073  18.323   5.850
 7196POPC   GL150437   5.079  18.309   6.150
 7196POPC   GL250438   5.042  18.384   6.150
 7196POPC   C1A50439   5.080  18.324   6.450
 7196POPC   D2A50440   5.140  18.314   6.750
 7196POPC   C3A50441   5.126  18.265   7.050
 7196POPC   C4A50442   5.098  18.264   7.350
 7196POPC   C1B50443   4.911  18.442   6.450
 7196POPC   C2B50444   4.872  18.494   6.750
 7196POPC   C3B50445   4.951  18.461   7.050
 7196POPC   C4B50446   4.869  18.408   7.350
 7197POPC   NC350447  16.723  22.901   5.550
 7197POPC   PO450448  16.699  22.965   5.850
 7197POPC   GL150449  16.727  22.973   6.150
 7197POPC   GL250450  16.785  22.840   6.150
 7197POPC   C1A50451  16.701  22.904   6.450
 7197POPC   D2A50452  16.685  22.981   6.750
 7197POPC   C3A50453  16.701  22.951   7.050
 7197POPC   C4A50454  16.776  22.977   7.350
 7197POPC   C1B50455  16.904  22.789   6.450
 7197POPC   C2B50456  16.936  22.807   6.750
 7197POPC   C3B50457  16.952  22.724   7.050
 7197POPC   C4B50458  16.923  22.773   7.350
 7198POPC   NC350459  20.579  32.293   5.550
 7198POPC   PO450460  20.562  32.207   5.850
 7198POPC   GL150461  20.639  32.279   6.150
 7198POPC   GL250462  20.585  32.390   6.150
 7198POPC   C1A50463  20.566  32.201   6.450
 7198POPC   D2A50464  20.602  32.218   6.750
 7198POPC   C3A50465  20.628  32.206   7.050
 7198POPC   C4A50466  20.587  32.248   7.350
 7198POPC   C1B50467  20.589  32.472   6.450
 7198POPC   C2B50468  20.538  32.459   6.750
 7198POPC   C3B50469  20.535  32.467   7.050
 7198POPC   C4B50470  20.556  32.489   7.350
 7199POPC   NC350471  14.373  32.976   5.550
 7199POPC   PO450472  14.362  33.070   5.850
 7199POPC   GL150473  14.431  33.070   6.150
 7199POPC   GL250474  14.564  32.969   6.150
 7199POPC   C1A50475  14.450  33.049   6.450
 7199POPC   D2A50476  14.413  32.998   6.750
 7199POPC   C3A50477  14.402  32.982   7.050
 7199POPC   C4A50478  14.395  33.027   7.350
 7199POPC   C1B50479  14.666  33.027   6.450
 7199POPC   C2B50480  14.624  32.998   6.750
 7199POPC   C3B50481  14.602  32.945   7.050
 7199POPC   C4B50482  14.659  33.007   7.350
 7200POPC   NC350483  16.733   2.799   5.550
 7200POPC   PO450484  16.751   2.767   5.850
 7200POPC   GL150485  16.698   2.777   6.150
 7200POPC   GL250486  16.772   2.676   6.150
 7200POPC   C1A50487  16.713   2.797   6.450
 7200POPC   D2A50488  16.735   2.777   6.750
 7200POPC   C3A50489  16.758   2.765   7.050
 7200POPC   C4A50490  16.761   2.781   7.350
 7200POPC   C1B50491  16.904   2.609   6.450
 7200POPC   C2B50492  16.915   2.534   6.750
 7200POPC   C3B50493  16.863   2.540   7.050
 7200POPC   C4B50494  16.878   2.567   7.350
 7201POPC   NC350495   8.195  28.389   5.550
 7201POPC   PO450496   8.154  28.321   5.850
 7201POPC   GL150497   8.164  28.331   6.150
 7201POPC   GL250498   8.025  28.412   6.150
 7201POPC   C1A50499   8.182  28.319   6.450
 7201POPC   D2A50500   8.170  28.376   6.750
 7201POPC   C3A50501   8.195  28.352   7.050
 7201POPC   C4A50502   8.187  28.332   7.350
 7201POPC   C1B50503   7.962  28.364   6.450
 7201POPC   C2B50504   7.962  28.432   6.750
 7201POPC   C3B50505   7.941  28.433   7.050
 7201POPC   C4B50506   7.927  28.439   7.350
 7202POPC   NC350507  15.223  25.260   5.550
 7202POPC   PO450508  15.217  25.295   5.850
 7202POPC   GL150509  15.142  25.260   6.150
 7202POPC   GL250510  15.099  25.312   6.150
 7202POPC   C1A50511  15.154  25.236   6.450
 7202POPC   D2A50512  15.197  25.260   6.750
 7202POPC   C3A50513  15.185  25.303   7.050
 7202POPC   C4A50514  15.173  25.245   7.350
 7202POPC   C1B50515  14.962  25.419   6.450
 7202POPC   C2B50516  15.048  25.457   6.750
 7202POPC   C3B50517  15.022  25.462   7.050
 7202POPC   C4B50518  14.974  25.417   7.350
 7203POPC   NC350519  31.487  22.204   5.550
 7203POPC   PO450520  31.449  22.157   5.850
 7203POPC   GL150521  31.431  22.184   6.150
 7203POPC   GL250522  31.510  22.256   6.150
 7203POPC   C1A50523  31.449  22.141   6.450
 7203POPC   D2A50524  31.481  22.165   6.750
 7203POPC   C3A50525  31.469  22.179   7.050
 7203POPC   C4A50526  31.434  22.192   7.350
 7203POPC   C1B50527  31.429  22.381   6.450
 7203POPC   C2B50528  31.522  22.459   6.750
 7203POPC   C3B50529  31.438  22.405   7.050
 7203POPC   C4B50530  31.457  22.426   7.350
 7204POPC   NC350531   1.999  32.236   5.550
 7204POPC   PO450532   1.975  32.249   5.850
 7204POPC   GL150533   2.000  32.238   6.150
 7204POPC   GL250534   2.075  32.147   6.150
 7204POPC   C1A50535   1.994  32.292   6.450
 7204POPC   D2A50536   1.958  32.213   6.750
 7204POPC   C3A50537   1.997  32.283   7.050
 7204POPC   C4A50538   2.018  32.297   7.350
 7204POPC   C1B50539   2.160  32.058   6.450
 7204POPC   C2B50540   2.201  32.043   6.750
 7204POPC   C3B50541   2.135  32.058   7.050
 7204POPC   C4B50542   2.156  32.073   7.350
 7205POPC   NC350543  10.543  37.726   5.550
 7205POPC   PO450544  10.510  37.705   5.850
 7205POPC   GL150545  10.487  37.659   6.150
 7205POPC   GL250546  10.351  37.688   6.150
 7205POPC   C1A50547  10.511  37.684   6.450
 7205POPC   D2A50548  10.531  37.676   6.750
 7205POPC   C3A50549  10.487  37.658   7.050
 7205POPC   C4A50550  10.532  37.664   7.350
 7205POPC   C1B50551  10.271  37.628   6.450
 7205POPC   C2B50552  10.296  37.673   6.750
 7205POPC   C3B50553  10.268  37.677   7.050
 7205POPC   C4B50554  10.270  37.641   7.350
 7206POPC   NC350555  31.476  14.358   5.550
 7206POPC   PO450556  31.451  14.398   5.850
 7206POPC   GL150557  31.502  14.356   6.150
 7206POPC   GL250558  31.600  14.335   6.150
 7206POPC   C1A50559  31.483  14.369   6.450
 7206POPC   D2A50560  31.516  14.398   6.750
 7206POPC   C3A50561  31.507  14.431   7.050
 7206POPC   C4A50562  31.422  14.392   7.350
 7206POPC   C1B50563  31.735  14.294   6.450
 7206POPC   C2B50564  31.696  14.312   6.750
 7206POPC   C3B50565  31.683  14.321   7.050
 7206POPC   C4B50566  31.661  14.301   7.350
 7207POPC   NC350567  33.797  40.776   5.550
 7207POPC   PO450568  33.808  40.766   5.850
 7207POPC   GL150569  33.789  40.773   6.150
 7207POPC   GL250570  33.812  40.923   6.150
 7207POPC   C1A50571  33.784  40.806   6.450
 7207POPC   D2A50572  33.814  40.735   6.750
 7207POPC   C3A50573  33.826  40.802   7.050
 7207POPC   C4A50574  33.753  40.780   7.350
 7207POPC   C1B50575  33.845  41.045   6.450
 7207POPC   C2B50576  33.847  41.049   6.750
 7207POPC   C3B50577  33.817  40.996   7.050
 7207POPC   C4B50578  33.796  41.005   7.350
 7208POPC   NC350579  44.682   0.471   5.550
 7208POPC   PO450580  44.690   0.465   5.850
 7208POPC   GL150581  44.677   0.415   6.150
 7208POPC   GL250582  44.802   0.423   6.150
 7208POPC   C1A50583  44.657   0.471   6.450
 7208POPC   D2A50584  44.694   0.397   6.750
 7208POPC   C3A50585  44.672   0.458   7.050
 7208POPC   C4A50586  44.708   0.436   7.350
 7208POPC   C1B50587  44.906   0.395   6.450
 7208POPC   C2B50588  44.863   0.456   6.750
 7208POPC   C3B50589  44.908   0.439   7.050
 7208POPC   C4B50590  44.867   0.425   7.350
 7209POPC   NC350591  24.483  24.518   5.550
 7209POPC   PO450592  24.491  24.530   5.850
 7209POPC   GL150593  24.516  24.525   6.150
 7209POPC   GL250594  24.469  24.579   6.150
 7209POPC   C1A50595  24.507  24.515   6.450
 7209POPC   D2A50596  24.480  24.462   6.750
 7209POPC   C3A50597  24.462  24.492   7.050
 7209POPC   C4A50598  24.490  24.456   7.350
 7209POPC   C1B50599  24.442  24.706   6.450
 7209POPC   C2B50600  24.401  24.759   6.750
 7209POPC   C3B50601  24.384  24.702   7.050
 7209POPC   C4B50602  24.430  24.696   7.350
 7210POPC   NC350603  21.420  34.534   5.550
 7210POPC   PO450604  21.377  34.577   5.850
 7210POPC   GL150605  21.383  34.532   6.150
 7210POPC   GL250606  21.482  34.713   6.150
 7210POPC   C1A50607  21.427  34.585   6.450
 7210POPC   D2A50608  21.386  34.583   6.750
 7210POPC   C3A50609  21.424  34.612   7.050
 7210POPC   C4A50610  21.399  34.567   7.350
 7210POPC   C1B50611  21.565  34.777   6.450
 7210POPC   C2B50612  21.523  34.827   6.750
 7210POPC   C3B50613  21.572  34.770   7.050
 7210POPC   C4B50614  21.509  34.766   7.350
 7211POPC   NC350615   7.433  39.209   5.550
 7211POPC   PO450616   7.376  39.236   5.850
 7211POPC   GL150617   7.421  39.188   6.150
 7211POPC   GL250618   7.534  39.159   6.150
 7211POPC   C1A50619   7.459  39.194   6.450
 7211POPC   D2A50620   7.469  39.210   6.750
 7211POPC   C3A50621   7.392  39.214   7.050
 7211POPC   C4A50622   7.461  39.253   7.350
 7211POPC   C1B50623   7.592  38.990   6.450
 7211POPC   C2B50624   7.517  39.036   6.750
 7211POPC   C3B50625   7.585  39.060   7.050
 7211POPC   C4B50626   7.594  39.007   7.350
 7212POPC   NC350627  26.043  29.146   5.550
 7212POPC   PO450628  26.067  29.190   5.850
 7212POPC   GL150629  26.035  29.176   6.150
 7212POPC   GL250630  26.150  29.213   6.150
 7212POPC   C1A50631  26.019  29.125   6.450
 7212POPC   D2A50632  26.027  29.183   6.750
 7212POPC   C3A50633  26.058  29.152   7.050
 7212POPC   C4A50634  26.028  29.188   7.350
 7212POPC   C1B50635  26.275  29.283   6.450
 7212POPC   C2B50636  26.269  29.334   6.750
 7212POPC   C3B50637  26.292  29.270   7.050
 7212POPC   C4B50638  26.289  29.285   7.350
 7213POPC   NC350639   0.410  12.809   5.550
 7213POPC   PO450640   0.482  12.881   5.850
 7213POPC   GL150641   0.421  12.890   6.150
 7213POPC   GL250642   0.374  12.962   6.150
 7213POPC   C1A50643   0.414  12.852   6.450
 7213POPC   D2A50644   0.471  12.802   6.750
 7213POPC   C3A50645   0.446  12.902   7.050
 7213POPC   C4A50646   0.451  12.823   7.350
 7213POPC   C1B50647   0.267  13.021   6.450
 7213POPC   C2B50648   0.287  12.983   6.750
 7213POPC   C3B50649   0.217  12.978   7.050
 7213POPC   C4B50650   0.286  13.006   7.350
 7214POPC   NC350651  20.591   6.667   5.550
 7214POPC   PO450652  20.593   6.619   5.850
 7214POPC   GL150653  20.657   6.618   6.150
 7214POPC   GL250654  20.441   6.598   6.150
 7214POPC   C1A50655  20.632   6.646   6.450
 7214POPC   D2A50656  20.599   6.636   6.750
 7214POPC   C3A50657  20.622   6.617   7.050
 7214POPC   C4A50658  20.569   6.630   7.350
 7214POPC   C1B50659  20.382   6.691   6.450
 7214POPC   C2B50660  20.320   6.664   6.750
 7214POPC   C3B50661  20.393   6.622   7.050
 7214POPC   C4B50662  20.398   6.620   7.350
 7215POPC   NC350663   9.766  37.653   5.550
 7215POPC   PO450664   9.740  37.707   5.850
 7215POPC   GL150665   9.761  37.713   6.150
 7215POPC   GL250666   9.631  37.609   6.150
 7215POPC   C1A50667   9.740  37.669   6.450
 7215POPC   D2A50668   9.701  37.641   6.750
 7215POPC   C3A50669   9.777  37.703   7.050
 7215POPC   C4A50670   9.717  37.688   7.350
 7215POPC   C1B50671   9.524  37.514   6.450
 7215POPC   C2B50672   9.568  37.536   6.750
 7215POPC   C3B50673   9.542  37.452   7.050
 7215POPC   C4B50674   9.620  37.550   7.350
 7216POPC   NC350675  36.891  44.700   5.550
 7216POPC   PO450676  36.948  44.654   5.850
 7216POPC   GL150677  36.934  44.661   6.150
 7216POPC   GL250678  36.975  44.611   6.150
 7216POPC   C1A50679  36.914  44.682   6.450
 7216POPC   D2A50680  36.881  44.706   6.750
 7216POPC   C3A50681  36.882  44.709   7.050
 7216POPC   C4A50682  36.924  44.644   7.350
 7216POPC   C1B50683  37.069  44.466   6.450
 7216POPC   C2B50684  37.059  44.429   6.750
 7216POPC   C3B50685  37.041  44.426   7.050
 7216POPC   C4B50686  37.089  44.414   7.350
 7217POPC   NC350687  42.370  12.874   5.550
 7217POPC   PO450688  42.288  12.831   5.850
 7217POPC   GL150689  42.377  12.871   6.150
 7217POPC   GL250690  42.246  12.914   6.150
 7217POPC   C1A50691  42.371  12.878   6.450
 7217POPC   D2A50692  42.358  12.884   6.750
 7217POPC   C3A50693  42.292  12.891   7.050
 7217POPC   C4A50694  42.328  12.878   7.350
 7217POPC   C1B50695  42.101  12.975   6.450
 7217POPC   C2B50696  42.090  12.920   6.750
 7217POPC   C3B50697  42.139  12.917   7.050
 7217POPC   C4B50698  42.141  12.996   7.350
 7218POPC   NC350699  11.325   5.143   5.550
 7218POPC   PO450700  11.279   5.112   5.850
 7218POPC   GL150701  11.283   5.091   6.150
 7218POPC   GL250702  11.282   4.995   6.150
 7218POPC   C1A50703  11.342   5.131   6.450
 7218POPC   D2A50704  11.280   5.110   6.750
 7218POPC   C3A50705  11.268   5.079   7.050
 7218POPC   C4A50706  11.310   5.108   7.350
 7218POPC   C1B50707  11.148   4.879   6.450
 7218POPC   C2B50708  11.239   4.826   6.750
 7218POPC   C3B50709  11.184   4.913   7.050
 7218POPC   C4B50710  11.222   4.836   7.350
 7219POPC   NC350711  16.682  30.687   5.550
 7219POPC   PO450712  16.704  30.709   5.850
 7219POPC   GL150713  16.718  30.686   6.150
 7219POPC   GL250714  16.733  30.773   6.150
 7219POPC   C1A50715  16.747  30.721   6.450
 7219POPC   D2A50716  16.759  30.715   6.750
 7219POPC   C3A50717  16.780  30.738   7.050
 7219POPC   C4A50718  16.729  30.739   7.350
 7219POPC   C1B50719  16.855  30.974   6.450
 7219POPC   C2B50720  16.783  30.906   6.750
 7219POPC   C3B50721  16.830  30.888   7.050
 7219POPC   C4B50722  16.764  30.903   7.350
 7220POPC   NC350723   5.867   4.348   5.550
 7220POPC   PO450724   5.872   4.298   5.850
 7220POPC   GL150725   5.871   4.278   6.150
 7220POPC   GL250726   5.852   4.429   6.150
 7220POPC   C1A50727   5.902   4.312   6.450
 7220POPC   D2A50728   5.898   4.359   6.750
 7220POPC   C3A50729   5.841   4.308   7.050
 7220POPC   C4A50730   5.894   4.284   7.350
 7220POPC   C1B50731   5.875   4.578   6.450
 7220POPC   C2B50732   5.845   4.585   6.750
 7220POPC   C3B50733   5.880   4.574   7.050
 7220POPC   C4B50734   5.896   4.570   7.350
 7221POPC   NC350735  44.642  32.261   5.550
 7221POPC   PO450736  44.677  32.286   5.850
 7221POPC   GL150737  44.645  32.222   6.150
 7221POPC   GL250738  44.560  32.296   6.150
 7221POPC   C1A50739  44.655  32.264   6.450
 7221POPC   D2A50740  44.660  32.251   6.750
 7221POPC   C3A50741  44.704  32.276   7.050
 7221POPC   C4A50742  44.708  32.292   7.350
 7221POPC   C1B50743  44.439  32.373   6.450
 7221POPC   C2B50744  44.423  32.361   6.750
 7221POPC   C3B50745  44.446  32.405   7.050
 7221POPC   C4B50746  44.421  32.339   7.350
 7222POPC   NC350747  35.396  29.893   5.550
 7222POPC   PO450748  35.335  29.926   5.850
 7222POPC   GL150749  35.352  29.915   6.150
 7222POPC   GL250750  35.238  29.986   6.150
 7222POPC   C1A50751  35.361  29.958   6.450
 7222POPC   D2A50752  35.389  29.899   6.750
 7222POPC   C3A50753  35.396  29.917   7.050
 7222POPC   C4A50754  35.397  29.955   7.350
 7222POPC   C1B50755  35.112  30.018   6.450
 7222POPC   C2B50756  35.177  30.031   6.750
 7222POPC   C3B50757  35.163  30.009   7.050
 7222POPC   C4B50758  35.088  30.026   7.350
 7223POPC   NC350759  40.762  42.291   5.550
 7223POPC   PO450760  40.737  42.286   5.850
 7223POPC   GL150761  40.830  42.324   6.150
 7223POPC   GL250762  40.772  42.177   6.150
 7223POPC   C1A50763  40.797  42.333   6.450
 7223POPC   D2A50764  40.800  42.380   6.750
 7223POPC   C3A50765  40.820  42.367   7.050
 7223POPC   C4A50766  40.830  42.381   7.350
 7223POPC   C1B50767  40.844  42.101   6.450
 7223POPC   C2B50768  40.830  42.072   6.750
 7223POPC   C3B50769  40.809  42.083   7.050
 7223POPC   C4B50770  40.827  42.086   7.350
 7224POPC   NC350771  44.687   5.881   5.550
 7224POPC   PO450772  44.689   5.834   5.850
 7224POPC   GL150773  44.662   5.831   6.150
 7224POPC   GL250774  44.527   5.898   6.150
 7224POPC   C1A50775  44.698   5.891   6.450
 7224POPC   D2A50776  44.647   5.859   6.750
 7224POPC   C3A50777  44.688   5.886   7.050
 7224POPC   C4A50778  44.701   5.879   7.350
 7224POPC   C1B50779  44.444   5.847   6.450
 7224POPC   C2B50780  44.439   5.876   6.750
 7224POPC   C3B50781  44.425   5.881   7.050
 7224POPC   C4B50782  44.396   5.871   7.350
 7225POPC   NC350783  38.442  32.296   5.550
 7225POPC   PO450784  38.407  32.211   5.850
 7225POPC   GL150785  38.422  32.245   6.150
 7225POPC   GL250786  38.397  32.326   6.150
 7225POPC   C1A50787  38.457  32.206   6.450
 7225POPC   D2A50788  38.421  32.238   6.750
 7225POPC   C3A50789  38.406  32.224   7.050
 7225POPC   C4A50790  38.502  32.219   7.350
 7225POPC   C1B50791  38.280  32.471   6.450
 7225POPC   C2B50792  38.294  32.395   6.750
 7225POPC   C3B50793  38.293  32.389   7.050
 7225POPC   C4B50794  38.301  32.455   7.350
 7226POPC   NC350795  30.658  19.847   5.550
 7226POPC   PO450796  30.683  19.811   5.850
 7226POPC   GL150797  30.675  19.814   6.150
 7226POPC   GL250798  30.559  19.857   6.150
 7226POPC   C1A50799  30.666  19.883   6.450
 7226POPC   D2A50800  30.674  19.849   6.750
 7226POPC   C3A50801  30.680  19.877   7.050
 7226POPC   C4A50802  30.698  19.789   7.350
 7226POPC   C1B50803  30.414  19.790   6.450
 7226POPC   C2B50804  30.450  19.814   6.750
 7226POPC   C3B50805  30.494  19.784   7.050
 7226POPC   C4B50806  30.489  19.788   7.350
 7227POPC   NC350807   0.457  16.743   5.550
 7227POPC   PO450808   0.418  16.775   5.850
 7227POPC   GL150809   0.430  16.705   6.150
 7227POPC   GL250810   0.518  16.646   6.150
 7227POPC   C1A50811   0.418  16.707   6.450
 7227POPC   D2A50812   0.441  16.744   6.750
 7227POPC   C3A50813   0.474  16.696   7.050
 7227POPC   C4A50814   0.389  16.682   7.350
 7227POPC   C1B50815   0.705  16.643   6.450
 7227POPC   C2B50816   0.682  16.637   6.750
 7227POPC   C3B50817   0.671  16.610   7.050
 7227POPC   C4B50818   0.689  16.568   7.350
 7228POPC   NC350819  44.693  43.934   5.550
 7228POPC   PO450820  44.620  43.876   5.850
 7228POPC   GL150821  44.708  43.905   6.150
 7228POPC   GL250822  44.809  43.858   6.150
 7228POPC   C1A50823  44.658  43.861   6.450
 7228POPC   D2A50824  44.629  43.881   6.750
 7228POPC   C3A50825  44.626  43.898   7.050
 7228POPC   C4A50826  44.682  43.868   7.350
 7228POPC   C1B50827  44.846  43.802   6.450
 7228POPC   C2B50828  44.924  43.755   6.750
 7228POPC   C3B50829  44.940  43.828   7.050
 7228POPC   C4B50830  44.859  43.742   7.350
 7229POPC   NC350831  17.496   6.678   5.550
 7229POPC   PO450832  17.502   6.686   5.850
 7229POPC   GL150833  17.520   6.603   6.150
 7229POPC   GL250834  17.545   6.552   6.150
 7229POPC   C1A50835  17.488   6.617   6.450
 7229POPC   D2A50836  17.537   6.595   6.750
 7229POPC   C3A50837  17.540   6.657   7.050
 7229POPC   C4A50838  17.490   6.626   7.350
 7229POPC   C1B50839  17.662   6.461   6.450
 7229POPC   C2B50840  17.689   6.466   6.750
 7229POPC   C3B50841  17.651   6.504   7.050
 7229POPC   C4B50842  17.718   6.409   7.350
 7230POPC   NC350843  19.808  31.520   5.550
 7230POPC   PO450844  19.818  31.453   5.850
 7230POPC   GL150845  19.795  31.460   6.150
 7230POPC   GL250846  19.852  31.409   6.150
 7230POPC   C1A50847  19.875  31.495   6.450
 7230POPC   D2A50848  19.792  31.521   6.750
 7230POPC   C3A50849  19.788  31.449   7.050
 7230POPC   C4A50850  19.812  31.456   7.350
 7230POPC   C1B50851  19.948  31.252   6.450
 7230POPC   C2B50852  19.981  31.219   6.750
 7230POPC   C3B50853  19.958  31.214   7.050
 7230POPC   C4B50854  19.985  31.254   7.350
 7231POPC   NC350855  19.051  19.038   5.550
 7231POPC   PO450856  19.010  19.105   5.850
 7231POPC   GL150857  19.096  19.084   6.150
 7231POPC   GL250858  18.977  19.060   6.150
 7231POPC   C1A50859  19.034  19.061   6.450
 7231POPC   D2A50860  19.077  19.027   6.750
 7231POPC   C3A50861  19.038  19.050   7.050
 7231POPC   C4A50862  19.032  19.045   7.350
 7231POPC   C1B50863  18.802  19.073   6.450
 7231POPC   C2B50864  18.859  19.104   6.750
 7231POPC   C3B50865  18.830  19.102   7.050
 7231POPC   C4B50866  18.829  19.122   7.350
 7232POPC   NC350867   0.407   8.160   5.550
 7232POPC   PO450868   0.478   8.149   5.850
 7232POPC   GL150869   0.412   8.237   6.150
 7232POPC   GL250870   0.591   8.302   6.150
 7232POPC   C1A50871   0.412   8.200   6.450
 7232POPC   D2A50872   0.408   8.147   6.750
 7232POPC   C3A50873   0.459   8.243   7.050
 7232POPC   C4A50874   0.423   8.169   7.350
 7232POPC   C1B50875   0.646   8.314   6.450
 7232POPC   C2B50876   0.702   8.305   6.750
 7232POPC   C3B50877   0.605   8.343   7.050
 7232POPC   C4B50878   0.676   8.337   7.350
 7233POPC   NC350879  23.750  37.697   5.550
 7233POPC   PO450880  23.738  37.670   5.850
 7233POPC   GL150881  23.721  37.654   6.150
 7233POPC   GL250882  23.579  37.692   6.150
 7233POPC   C1A50883  23.722  37.647   6.450
 7233POPC   D2A50884  23.699  37.686   6.750
 7233POPC   C3A50885  23.674  37.698   7.050
 7233POPC   C4A50886  23.738  37.676   7.350
 7233POPC   C1B50887  23.437  37.618   6.450
 7233POPC   C2B50888  23.473  37.687   6.750
 7233POPC   C3B50889  23.425  37.639   7.050
 7233POPC   C4B50890  23.444  37.689   7.350
 7234POPC   NC350891  15.969   2.007   5.550
 7234POPC   PO450892  15.952   2.031   5.850
 7234POPC   GL150893  15.984   2.037   6.150
 7234POPC   GL250894  15.939   1.829   6.150
 7234POPC   C1A50895  16.005   1.946   6.450
 7234POPC   D2A50896  15.948   1.992   6.750
 7234POPC   C3A50897  16.001   2.033   7.050
 7234POPC   C4A50898  16.001   1.940   7.350
 7234POPC   C1B50899  16.005   1.764   6.450
 7234POPC   C2B50900  15.972   1.712   6.750
 7234POPC   C3B50901  15.941   1.744   7.050
 7234POPC   C4B50902  15.974   1.738   7.350
 7235POPC   NC350903  44.709  41.606   5.550
 7235POPC   PO450904  44.671  41.586   5.850
 7235POPC   GL150905  44.661  41.592   6.150
 7235POPC   GL250906  44.727  41.415   6.150
 7235POPC   C1A50907  44.688  41.521   6.450
 7235POPC   D2A50908  44.626  41.529   6.750
 7235POPC   C3A50909  44.660  41.530   7.050
 7235POPC   C4A50910  44.695  41.573   7.350
 7235POPC   C1B50911  44.700  41.290   6.450
 7235POPC   C2B50912  44.715  41.285   6.750
 7235POPC   C3B50913  44.735  41.319   7.050
 7235POPC   C4B50914  44.734  41.320   7.350
 7236POPC   NC350915  10.533  22.178   5.550
 7236POPC   PO450916  10.494  22.158   5.850
 7236POPC   GL150917  10.562  22.132   6.150
 7236POPC   GL250918  10.497  22.089   6.150
 7236POPC   C1A50919  10.487  22.153   6.450
 7236POPC   D2A50920  10.519  22.154   6.750
 7236POPC   C3A50921  10.492  22.194   7.050
 7236POPC   C4A50922  10.529  22.170   7.350
 7236POPC   C1B50923  10.443  21.920   6.450
 7236POPC   C2B50924  10.378  21.961   6.750
 7236POPC   C3B50925  10.401  21.928   7.050
 7236POPC   C4B50926  10.424  21.993   7.350
 7237POPC   NC350927  25.270  22.131   5.550
 7237POPC   PO450928  25.236  22.138   5.850
 7237POPC   GL150929  25.260  22.172   6.150
 7237POPC   GL250930  25.154  22.129   6.150
 7237POPC   C1A50931  25.306  22.194   6.450
 7237POPC   D2A50932  25.298  22.143   6.750
 7237POPC   C3A50933  25.298  22.114   7.050
 7237POPC   C4A50934  25.276  22.134   7.350
 7237POPC   C1B50935  24.971  22.186   6.450
 7237POPC   C2B50936  25.036  22.127   6.750
 7237POPC   C3B50937  24.993  22.142   7.050
 7237POPC   C4B50938  24.976  22.220   7.350
 7238POPC   NC350939  29.957  23.670   5.550
 7238POPC   PO450940  29.936  23.752   5.850
 7238POPC   GL150941  29.911  23.727   6.150
 7238POPC   GL250942  30.068  23.826   6.150
 7238POPC   C1A50943  29.888  23.735   6.450
 7238POPC   D2A50944  29.917  23.717   6.750
 7238POPC   C3A50945  29.911  23.750   7.050
 7238POPC   C4A50946  29.962  23.750   7.350
 7238POPC   C1B50947  30.112  23.885   6.450
 7238POPC   C2B50948  30.117  23.864   6.750
 7238POPC   C3B50949  30.145  23.884   7.050
 7238POPC   C4B50950  30.094  23.866   7.350
 7239POPC   NC350951  33.846  30.660   5.550
 7239POPC   PO450952  33.798  30.710   5.850
 7239POPC   GL150953  33.781  30.740   6.150
 7239POPC   GL250954  33.723  30.803   6.150
 7239POPC   C1A50955  33.803  30.696   6.450
 7239POPC   D2A50956  33.804  30.661   6.750
 7239POPC   C3A50957  33.751  30.711   7.050
 7239POPC   C4A50958  33.755  30.732   7.350
 7239POPC   C1B50959  33.656  30.916   6.450
 7239POPC   C2B50960  33.645  30.864   6.750
 7239POPC   C3B50961  33.661  30.895   7.050
 7239POPC   C4B50962  33.669  30.937   7.350
 7240POPC   NC350963  16.759   4.272   5.550
 7240POPC   PO450964  16.704   4.307   5.850
 7240POPC   GL150965  16.702   4.323   6.150
 7240POPC   GL250966  16.789   4.170   6.150
 7240POPC   C1A50967  16.721   4.366   6.450
 7240POPC   D2A50968  16.684   4.321   6.750
 7240POPC   C3A50969  16.748   4.304   7.050
 7240POPC   C4A50970  16.731   4.304   7.350
 7240POPC   C1B50971  16.742   4.071   6.450
 7240POPC   C2B50972  16.797   4.071   6.750
 7240POPC   C3B50973  16.779   4.088   7.050
 7240POPC   C4B50974  16.718   4.053   7.350
 7241POPC   NC350975  27.580  17.534   5.550
 7241POPC   PO450976  27.620  17.490   5.850
 7241POPC   GL150977  27.595  17.493   6.150
 7241POPC   GL250978  27.704  17.424   6.150
 7241POPC   C1A50979  27.563  17.526   6.450
 7241POPC   D2A50980  27.617  17.481   6.750
 7241POPC   C3A50981  27.602  17.470   7.050
 7241POPC   C4A50982  27.618  17.547   7.350
 7241POPC   C1B50983  27.869  17.448   6.450
 7241POPC   C2B50984  27.813  17.443   6.750
 7241POPC   C3B50985  27.838  17.370   7.050
 7241POPC   C4B50986  27.867  17.456   7.350
 7242POPC   NC350987  36.104  40.826   5.550
 7242POPC   PO450988  36.107  40.809   5.850
 7242POPC   GL150989  36.098  40.775   6.150
 7242POPC   GL250990  36.273  40.827   6.150
 7242POPC   C1A50991  36.102  40.761   6.450
 7242POPC   D2A50992  36.103  40.747   6.750
 7242POPC   C3A50993  36.090  40.827   7.050
 7242POPC   C4A50994  36.141  40.786   7.350
 7242POPC   C1B50995  36.413  40.817   6.450
 7242POPC   C2B50996  36.342  40.773   6.750
 7242POPC   C3B50997  36.408  40.808   7.050
 7242POPC   C4B50998  36.393  40.734   7.350
 7243POPC   NC350999  26.840   5.062   5.550
 7243POPC   PO451000  26.826   5.075   5.850
 7243POPC   GL151001  26.806   5.139   6.150
 7243POPC   GL251002  26.680   5.025   6.150
 7243POPC   C1A51003  26.779   5.133   6.450
 7243POPC   D2A51004  26.809   5.081   6.750
 7243POPC   C3A51005  26.806   5.052   7.050
 7243POPC   C4A51006  26.849   5.117   7.350
 7243POPC   C1B51007  26.542   4.991   6.450
 7243POPC   C2B51008  26.584   4.988   6.750
 7243POPC   C3B51009  26.576   5.041   7.050
 7243POPC   C4B51010  26.560   5.083   7.350
 7244POPC   NC351011  29.932  16.739   5.550
 7244POPC   PO451012  29.930  16.702   5.850
 7244POPC   GL151013  29.914  16.719   6.150
 7244POPC   GL251014  29.897  16.566   6.150
 7244POPC   C1A51015  29.944  16.723   6.450
 7244POPC   D2A51016  29.913  16.756   6.750
 7244POPC   C3A51017  29.968  16.753   7.050
 7244POPC   C4A51018  29.943  16.684   7.350
 7244POPC   C1B51019  29.885  16.527   6.450
 7244POPC   C2B51020  29.849  16.442   6.750
 7244POPC   C3B51021  29.809  16.450   7.050
 7244POPC   C4B51022  29.871  16.513   7.350
 7245POPC   NC351023  40.819  37.707   5.550
 7245POPC   PO451024  40.736  37.657   5.850
 7245POPC   GL151025  40.825  37.639   6.150
 7245POPC   GL251026  40.807  37.774   6.150
 7245POPC   C1A51027  40.773  37.703   6.450
 7245POPC   D2A51028  40.790  37.643   6.750
 7245POPC   C3A51029  40.762  37.718   7.050
 7245POPC   C4A51030  40.778  37.682   7.350
 7245POPC   C1B51031  40.719  37.945   6.450
 7245POPC   C2B51032  40.777  37.962   6.750
 7245POPC   C3B51033  40.686  37.960   7.050
 7245POPC   C4B51034  40.771  37.937   7.350
 7246POPC   NC351035   8.944  31.455   5.550
 7246POPC   PO451036   8.983  31.475   5.850
 7246POPC   GL151037   8.967  31.459   6.150
 7246POPC   GL251038   8.920  31.346   6.150
 7246POPC   C1A51039   8.976  31.429   6.450
 7246POPC   D2A51040   9.004  31.436   6.750
 7246POPC   C3A51041   8.977  31.512   7.050
 7246POPC   C4A51042   8.939  31.517   7.350
 7246POPC   C1B51043   8.901  31.256   6.450
 7246POPC   C2B51044   8.955  31.187   6.750
 7246POPC   C3B51045   8.906  31.216   7.050
 7246POPC   C4B51046   8.931  31.263   7.350
 7247POPC   NC351047   6.647  26.776   5.550
 7247POPC   PO451048   6.610  26.778   5.850
 7247POPC   GL151049   6.683  26.827   6.150
 7247POPC   GL251050   6.571  26.724   6.150
 7247POPC   C1A51051   6.671  26.832   6.450
 7247POPC   D2A51052   6.633  26.841   6.750
 7247POPC   C3A51053   6.671  26.776   7.050
 7247POPC   C4A51054   6.614  26.832   7.350
 7247POPC   C1B51055   6.485  26.562   6.450
 7247POPC   C2B51056   6.532  26.557   6.750
 7247POPC   C3B51057   6.516  26.643   7.050
 7247POPC   C4B51058   6.526  26.629   7.350
 7248POPC   NC351059   5.906  33.793   5.550
 7248POPC   PO451060   5.919  33.755   5.850
 7248POPC   GL151061   5.861  33.756   6.150
 7248POPC   GL251062   6.029  33.787   6.150
 7248POPC   C1A51063   5.916  33.767   6.450
 7248POPC   D2A51064   5.844  33.758   6.750
 7248POPC   C3A51065   5.835  33.754   7.050
 7248POPC   C4A51066   5.860  33.764   7.350
 7248POPC   C1B51067   6.160  33.802   6.450
 7248POPC   C2B51068   6.076  33.739   6.750
 7248POPC   C3B51069   6.142  33.806   7.050
 7248POPC   C4B51070   6.165  33.789   7.350
 7249POPC   NC351071  20.581  20.585   5.550
 7249POPC   PO451072  20.569  20.657   5.850
 7249POPC   GL151073  20.629  20.602   6.150
 7249POPC   GL251074  20.707  20.699   6.150
 7249POPC   C1A51075  20.597  20.655   6.450
 7249POPC   D2A51076  20.601  20.633   6.750
 7249POPC   C3A51077  20.637  20.567   7.050
 7249POPC   C4A51078  20.637  20.594   7.350
 7249POPC   C1B51079  20.855  20.735   6.450
 7249POPC   C2B51080  20.847  20.760   6.750
 7249POPC   C3B51081  20.828  20.708   7.050
 7249POPC   C4B51082  20.808  20.767   7.350
 7250POPC   NC351083   2.037  28.352   5.550
 7250POPC   PO451084   2.006  28.325   5.850
 7250POPC   GL151085   1.954  28.384   6.150
 7250POPC   GL251086   2.102  28.407   6.150
 7250POPC   C1A51087   1.946  28.320   6.450
 7250POPC   D2A51088   1.941  28.332   6.750
 7250POPC   C3A51089   2.010  28.363   7.050
 7250POPC   C4A51090   2.009  28.338   7.350
 7250POPC   C1B51091   2.204  28.512   6.450
 7250POPC   C2B51092   2.178  28.478   6.750
 7250POPC   C3B51093   2.252  28.523   7.050
 7250POPC   C4B51094   2.177  28.504   7.350
 7251POPC   NC351095   8.242   1.180   5.550
 7251POPC   PO451096   8.243   1.259   5.850
 7251POPC   GL151097   8.235   1.209   6.150
 7251POPC   GL251098   8.111   1.147   6.150
 7251POPC   C1A51099   8.160   1.243   6.450
 7251POPC   D2A51100   8.235   1.240   6.750
 7251POPC   C3A51101   8.161   1.165   7.050
 7251POPC   C4A51102   8.236   1.192   7.350
 7251POPC   C1B51103   7.941   1.106   6.450
 7251POPC   C2B51104   8.011   1.102   6.750
 7251POPC   C3B51105   7.974   1.152   7.050
 7251POPC   C4B51106   7.975   1.064   7.350
 7252POPC   NC351107   1.995  36.128   5.550
 7252POPC   PO451108   2.029  36.153   5.850
 7252POPC   GL151109   2.037  36.139   6.150
 7252POPC   GL251110   2.128  36.080   6.150
 7252POPC   C1A51111   2.034  36.158   6.450
 7252POPC   D2A51112   1.965  36.118   6.750
 7252POPC   C3A51113   1.963  36.108   7.050
 7252POPC   C4A51114   1.949  36.080   7.350
 7252POPC   C1B51115   2.254  36.065   6.450
 7252POPC   C2B51116   2.227  36.062   6.750
 7252POPC   C3B51117   2.273  36.106   7.050
 7252POPC   C4B51118   2.262  36.054   7.350
 7253POPC   NC351119   2.769   8.945   5.550
 7253POPC   PO451120   2.728   9.018   5.850
 7253POPC   GL151121   2.725   8.933   6.150
 7253POPC   GL251122   2.845   8.844   6.150
 7253POPC   C1A51123   2.725   8.926   6.450
 7253POPC   D2A51124   2.734   8.974   6.750
 7253POPC   C3A51125   2.763   8.990   7.050
 7253POPC   C4A51126   2.751   8.988   7.350
 7253POPC   C1B51127   2.967   8.767   6.450
 7253POPC   C2B51128   2.976   8.800   6.750
 7253POPC   C3B51129   2.929   8.826   7.050
 7253POPC   C4B51130   2.951   8.778   7.350
 7254POPC   NC351131   0.407  19.076   5.550
 7254POPC   PO451132   0.444  19.084   5.850
 7254POPC   GL151133   0.486  19.107   6.150
 7254POPC   GL251134   0.318  19.161   6.150
 7254POPC   C1A51135   0.438  19.013   6.450
 7254POPC   D2A51136   0.406  19.092   6.750
 7254POPC   C3A51137   0.425  19.064   7.050
 7254POPC   C4A51138   0.460  19.093   7.350
 7254POPC   C1B51139   0.231  19.207   6.450
 7254POPC   C2B51140   0.257  19.228   6.750
 7254POPC   C3B51141   0.247  19.233   7.050
 7254POPC   C4B51142   0.230  19.264   7.350
 7255POPC   NC351143  18.263   2.780   5.550
 7255POPC   PO451144  18.284   2.776   5.850
 7255POPC   GL151145  18.281   2.726   6.150
 7255POPC   GL251146  18.395   2.793   6.150
 7255POPC   C1A51147  18.285   2.813   6.450
 7255POPC   D2A51148  18.277   2.746   6.750
 7255POPC   C3A51149  18.235   2.752   7.050
 7255POPC   C4A51150  18.249   2.782   7.350
 7255POPC   C1B51151  18.483   2.945   6.450
 7255POPC   C2B51152  18.505   2.874   6.750
 7255POPC   C3B51153  18.474   2.868   7.050
 7255POPC   C4B51154  18.482   2.879   7.350
 7256POPC   NC351155   1.942  35.400   5.550
 7256POPC   PO451156   2.035  35.370   5.850
 7256POPC   GL151157   1.994  35.339   6.150
 7256POPC   GL251158   1.879  35.265   6.150
 7256POPC   C1A51159   2.014  35.345   6.450
 7256POPC   D2A51160   1.951  35.305   6.750
 7256POPC   C3A51161   2.007  35.339   7.050
 7256POPC   C4A51162   1.946  35.358   7.350
 7256POPC   C1B51163   1.867  35.164   6.450
 7256POPC   C2B51164   1.818  35.137   6.750
 7256POPC   C3B51165   1.895  35.156   7.050
 7256POPC   C4B51166   1.802  35.129   7.350
 7257POPC   NC351167  35.359  41.571   5.550
 7257POPC   PO451168  35.392  41.597   5.850
 7257POPC   GL151169  35.321  41.542   6.150
 7257POPC   GL251170  35.405  41.678   6.150
 7257POPC   C1A51171  35.321  41.561   6.450
 7257POPC   D2A51172  35.364  41.580   6.750
 7257POPC   C3A51173  35.332  41.584   7.050
 7257POPC   C4A51174  35.393  41.556   7.350
 7257POPC   C1B51175  35.483  41.726   6.450
 7257POPC   C2B51176  35.534  41.766   6.750
 7257POPC   C3B51177  35.543  41.782   7.050
 7257POPC   C4B51178  35.520  41.727   7.350
 7258POPC   NC351179  19.831  15.920   5.550
 7258POPC   PO451180  19.834  15.980   5.850
 7258POPC   GL151181  19.852  15.974   6.150
 7258POPC   GL251182  19.675  15.981   6.150
 7258POPC   C1A51183  19.842  15.934   6.450
 7258POPC   D2A51184  19.859  15.922   6.750
 7258POPC   C3A51185  19.793  15.936   7.050
 7258POPC   C4A51186  19.787  15.935   7.350
 7258POPC   C1B51187  19.569  16.117   6.450
 7258POPC   C2B51188  19.583  16.098   6.750
 7258POPC   C3B51189  19.639  16.063   7.050
 7258POPC   C4B51190  19.657  16.034   7.350
 7259POPC   NC351191   8.957  36.128   5.550
 7259POPC   PO451192   8.954  36.172   5.850
 7259POPC   GL151193   8.936  36.148   6.150
 7259POPC   GL251194   8.986  35.953   6.150
 7259POPC   C1A51195   8.973  36.172   6.450
 7259POPC   D2A51196   8.975  36.164   6.750
 7259POPC   C3A51197   8.932  36.136   7.050
 7259POPC   C4A51198   8.929  36.114   7.350
 7259POPC   C1B51199   8.979  35.840   6.450
 7259POPC   C2B51200   8.921  35.884   6.750
 7259POPC   C3B51201   8.975  35.829   7.050
 7259POPC   C4B51202   8.955  35.859   7.350
 7260POPC   NC351203  32.249   9.726   5.550
 7260POPC   PO451204  32.253   9.767   5.850
 7260POPC   GL151205  32.203   9.705   6.150
 7260POPC   GL251206  32.239   9.902   6.150
 7260POPC   C1A51207  32.238   9.757   6.450
 7260POPC   D2A51208  32.220   9.755   6.750
 7260POPC   C3A51209  32.269   9.796   7.050
 7260POPC   C4A51210  32.222   9.714   7.350
 7260POPC   C1B51211  32.202   9.960   6.450
 7260POPC   C2B51212  32.224  10.036   6.750
 7260POPC   C3B51213  32.151  10.035   7.050
 7260POPC   C4B51214  32.159   9.972   7.350
 7261POPC   NC351215  23.678  28.391   5.550
 7261POPC   PO451216  23.696  28.325   5.850
 7261POPC   GL151217  23.734  28.408   6.150
 7261POPC   GL251218  23.565  28.437   6.150
 7261POPC   C1A51219  23.733  28.360   6.450
 7261POPC   D2A51220  23.751  28.363   6.750
 7261POPC   C3A51221  23.691  28.407   7.050
 7261POPC   C4A51222  23.671  28.342   7.350
 7261POPC   C1B51223  23.475  28.463   6.450
 7261POPC   C2B51224  23.459  28.484   6.750
 7261POPC   C3B51225  23.485  28.416   7.050
 7261POPC   C4B51226  23.520  28.420   7.350
 7262POPC   NC351227  39.193  26.076   5.550
 7262POPC   PO451228  39.233  26.075   5.850
 7262POPC   GL151229  39.200  26.008   6.150
 7262POPC   GL251230  39.237  26.199   6.150
 7262POPC   C1A51231  39.264  25.999   6.450
 7262POPC   D2A51232  39.235  26.022   6.750
 7262POPC   C3A51233  39.239  26.087   7.050
 7262POPC   C4A51234  39.242  26.019   7.350
 7262POPC   C1B51235  39.215  26.270   6.450
 7262POPC   C2B51236  39.224  26.326   6.750
 7262POPC   C3B51237  39.183  26.271   7.050
 7262POPC   C4B51238  39.243  26.300   7.350
 7263POPC   NC351239  19.797  37.650   5.550
 7263POPC   PO451240  19.823  37.714   5.850
 7263POPC   GL151241  19.836  37.722   6.150
 7263POPC   GL251242  19.822  37.750   6.150
 7263POPC   C1A51243  19.801  37.641   6.450
 7263POPC   D2A51244  19.851  37.688   6.750
 7263POPC   C3A51245  19.840  37.697   7.050
 7263POPC   C4A51246  19.846  37.719   7.350
 7263POPC   C1B51247  19.749  37.964   6.450
 7263POPC   C2B51248  19.787  37.956   6.750
 7263POPC   C3B51249  19.762  37.889   7.050
 7263POPC   C4B51250  19.776  37.951   7.350
 7264POPC   NC351251  31.435  15.933   5.550
 7264POPC   PO451252  31.481  15.937   5.850
 7264POPC   GL151253  31.514  15.931   6.150
 7264POPC   GL251254  31.326  16.025   6.150
 7264POPC   C1A51255  31.502  15.952   6.450
 7264POPC   D2A51256  31.492  15.984   6.750
 7264POPC   C3A51257  31.437  15.998   7.050
 7264POPC   C4A51258  31.433  15.986   7.350
 7264POPC   C1B51259  31.279  16.037   6.450
 7264POPC   C2B51260  31.220  16.090   6.750
 7264POPC   C3B51261  31.225  16.042   7.050
 7264POPC   C4B51262  31.234  16.050   7.350
 7265POPC   NC351263  18.286   5.139   5.550
 7265POPC   PO451264  18.280   5.072   5.850
 7265POPC   GL151265  18.308   5.096   6.150
 7265POPC   GL251266  18.335   5.247   6.150
 7265POPC   C1A51267  18.276   5.057   6.450
 7265POPC   D2A51268  18.263   5.139   6.750
 7265POPC   C3A51269  18.290   5.078   7.050
 7265POPC   C4A51270  18.287   5.061   7.350
 7265POPC   C1B51271  18.343   5.317   6.450
 7265POPC   C2B51272  18.363   5.367   6.750
 7265POPC   C3B51273  18.321   5.308   7.050
 7265POPC   C4B51274  18.320   5.305   7.350
 7266POPC   NC351275  19.855  16.763   5.550
 7266POPC   PO451276  19.806  16.706   5.850
 7266POPC   GL151277  19.879  16.686   6.150
 7266POPC   GL251278  19.700  16.662   6.150
 7266POPC   C1A51279  19.843  16.706   6.450
 7266POPC   D2A51280  19.884  16.687   6.750
 7266POPC   C3A51281  19.795  16.730   7.050
 7266POPC   C4A51282  19.878  16.754   7.350
 7266POPC   C1B51283  19.565  16.670   6.450
 7266POPC   C2B51284  19.640  16.688   6.750
 7266POPC   C3B51285  19.635  16.658   7.050
 7266POPC   C4B51286  19.580  16.629   7.350
 7267POPC   NC351287  33.808  21.401   5.550
 7267POPC   PO451288  33.771  21.355   5.850
 7267POPC   GL151289  33.844  21.369   6.150
 7267POPC   GL251290  33.851  21.497   6.150
 7267POPC   C1A51291  33.844  21.348   6.450
 7267POPC   D2A51292  33.808  21.426   6.750
 7267POPC   C3A51293  33.832  21.386   7.050
 7267POPC   C4A51294  33.795  21.431   7.350
 7267POPC   C1B51295  33.948  21.577   6.450
 7267POPC   C2B51296  33.906  21.586   6.750
 7267POPC   C3B51297  33.922  21.594   7.050
 7267POPC   C4B51298  33.938  21.659   7.350
 7268POPC   NC351299   8.928  43.064   5.550
 7268POPC   PO451300   8.977  43.073   5.850
 7268POPC   GL151301   9.018  43.100   6.150
 7268POPC   GL251302   9.069  43.036   6.150
 7268POPC   C1A51303   8.949  43.136   6.450
 7268POPC   D2A51304   8.993  43.107   6.750
 7268POPC   C3A51305   8.926  43.084   7.050
 7268POPC   C4A51306   8.999  43.135   7.350
 7268POPC   C1B51307   9.102  42.940   6.450
 7268POPC   C2B51308   9.152  42.926   6.750
 7268POPC   C3B51309   9.109  42.884   7.050
 7268POPC   C4B51310   9.152  42.897   7.350
 7269POPC   NC351311  20.604  12.033   5.550
 7269POPC   PO451312  20.627  12.105   5.850
 7269POPC   GL151313  20.646  12.105   6.150
 7269POPC   GL251314  20.504  12.203   6.150
 7269POPC   C1A51315  20.624  12.100   6.450
 7269POPC   D2A51316  20.633  12.087   6.750
 7269POPC   C3A51317  20.563  12.092   7.050
 7269POPC   C4A51318  20.611  12.114   7.350
 7269POPC   C1B51319  20.415  12.255   6.450
 7269POPC   C2B51320  20.453  12.295   6.750
 7269POPC   C3B51321  20.440  12.274   7.050
 7269POPC   C4B51322  20.465  12.299   7.350
 7270POPC   NC351323  10.573  32.236   5.550
 7270POPC   PO451324  10.564  32.281   5.850
 7270POPC   GL151325  10.513  32.246   6.150
 7270POPC   GL251326  10.601  32.287   6.150
 7270POPC   C1A51327  10.560  32.215   6.450
 7270POPC   D2A51328  10.537  32.285   6.750
 7270POPC   C3A51329  10.570  32.269   7.050
 7270POPC   C4A51330  10.481  32.228   7.350
 7270POPC   C1B51331  10.784  32.246   6.450
 7270POPC   C2B51332  10.789  32.256   6.750
 7270POPC   C3B51333  10.760  32.244   7.050
 7270POPC   C4B51334  10.823  32.293   7.350
 7271POPC   NC351335  18.323   1.197   5.550
 7271POPC   PO451336  18.293   1.195   5.850
 7271POPC   GL151337  18.254   1.200   6.150
 7271POPC   GL251338  18.122   1.142   6.150
 7271POPC   C1A51339  18.317   1.209   6.450
 7271POPC   D2A51340  18.263   1.247   6.750
 7271POPC   C3A51341  18.312   1.178   7.050
 7271POPC   C4A51342  18.248   1.192   7.350
 7271POPC   C1B51343  18.026   1.161   6.450
 7271POPC   C2B51344  18.030   1.111   6.750
 7271POPC   C3B51345  18.064   1.138   7.050
 7271POPC   C4B51346  18.060   1.167   7.350
 7272POPC   NC351347  25.295   2.728   5.550
 7272POPC   PO451348  25.309   2.796   5.850
 7272POPC   GL151349  25.299   2.789   6.150
 7272POPC   GL251350  25.269   2.853   6.150
 7272POPC   C1A51351  25.280   2.774   6.450
 7272POPC   D2A51352  25.258   2.776   6.750
 7272POPC   C3A51353  25.261   2.723   7.050
 7272POPC   C4A51354  25.263   2.731   7.350
 7272POPC   C1B51355  25.372   3.046   6.450
 7272POPC   C2B51356  25.313   2.965   6.750
 7272POPC   C3B51357  25.321   2.969   7.050
 7272POPC   C4B51358  25.311   3.000   7.350
 7273POPC   NC351359  33.769  19.864   5.550
 7273POPC   PO451360  33.780  19.880   5.850
 7273POPC   GL151361  33.836  19.794   6.150
 7273POPC   GL251362  33.866  19.704   6.150
 7273POPC   C1A51363  33.786  19.872   6.450
 7273POPC   D2A51364  33.817  19.786   6.750
 7273POPC   C3A51365  33.814  19.865   7.050
 7273POPC   C4A51366  33.769  19.858   7.350
 7273POPC   C1B51367  33.867  19.634   6.450
 7273POPC   C2B51368  33.854  19.616   6.750
 7273POPC   C3B51369  33.865  19.600   7.050
 7273POPC   C4B51370  33.822  19.612   7.350
 7274POPC   NC351371  24.475   9.011   5.550
 7274POPC   PO451372  24.533   8.966   5.850
 7274POPC   GL151373  24.456   9.012   6.150
 7274POPC   GL251374  24.642   8.954   6.150
 7274POPC   C1A51375  24.460   9.011   6.450
 7274POPC   D2A51376  24.471   9.022   6.750
 7274POPC   C3A51377  24.450   8.962   7.050
 7274POPC   C4A51378  24.523   8.943   7.350
 7274POPC   C1B51379  24.781   9.048   6.450
 7274POPC   C2B51380  24.709   9.072   6.750
 7274POPC   C3B51381  24.770   8.980   7.050
 7274POPC   C4B51382  24.711   9.007   7.350
 7275POPC   NC351383  11.267  33.005   5.550
 7275POPC   PO451384  11.271  33.005   5.850
 7275POPC   GL151385  11.299  32.992   6.150
 7275POPC   GL251386  11.227  32.933   6.150
 7275POPC   C1A51387  11.303  33.066   6.450
 7275POPC   D2A51388  11.285  33.033   6.750
 7275POPC   C3A51389  11.283  33.047   7.050
 7275POPC   C4A51390  11.345  33.066   7.350
 7275POPC   C1B51391  11.153  32.828   6.450
 7275POPC   C2B51392  11.173  32.844   6.750
 7275POPC   C3B51393  11.214  32.765   7.050
 7275POPC   C4B51394  11.131  32.851   7.350
 7276POPC   NC351395  26.005   1.972   5.550
 7276POPC   PO451396  26.008   2.029   5.850
 7276POPC   GL151397  26.038   1.991   6.150
 7276POPC   GL251398  26.067   2.112   6.150
 7276POPC   C1A51399  26.058   2.010   6.450
 7276POPC   D2A51400  26.005   1.985   6.750
 7276POPC   C3A51401  26.078   2.020   7.050
 7276POPC   C4A51402  26.043   2.029   7.350
 7276POPC   C1B51403  26.072   2.198   6.450
 7276POPC   C2B51404  26.033   2.260   6.750
 7276POPC   C3B51405  26.106   2.265   7.050
 7276POPC   C4B51406  26.081   2.232   7.350
 7277POPC   NC351407  37.693   7.428   5.550
 7277POPC   PO451408  37.684   7.376   5.850
 7277POPC   GL151409  37.673   7.403   6.150
 7277POPC   GL251410  37.785   7.465   6.150
 7277POPC   C1A51411  37.721   7.427   6.450
 7277POPC   D2A51412  37.636   7.403   6.750
 7277POPC   C3A51413  37.695   7.445   7.050
 7277POPC   C4A51414  37.728   7.471   7.350
 7277POPC   C1B51415  37.970   7.466   6.450
 7277POPC   C2B51416  37.961   7.413   6.750
 7277POPC   C3B51417  37.949   7.440   7.050
 7277POPC   C4B51418  37.903   7.422   7.350
 7278POPC   NC351419  39.206  14.385   5.550
 7278POPC   PO451420  39.254  14.426   5.850
 7278POPC   GL151421  39.211  14.370   6.150
 7278POPC   GL251422  39.319  14.546   6.150
 7278POPC   C1A51423  39.252  14.429   6.450
 7278POPC   D2A51424  39.255  14.423   6.750
 7278POPC   C3A51425  39.243  14.432   7.050
 7278POPC   C4A51426  39.249  14.395   7.350
 7278POPC   C1B51427  39.398  14.618   6.450
 7278POPC   C2B51428  39.349  14.615   6.750
 7278POPC   C3B51429  39.359  14.596   7.050
 7278POPC   C4B51430  39.365  14.594   7.350
 7279POPC   NC351431  19.103  25.271   5.550
 7279POPC   PO451432  19.103  25.277   5.850
 7279POPC   GL151433  19.066  25.225   6.150
 7279POPC   GL251434  19.083  25.347   6.150
 7279POPC   C1A51435  19.018  25.243   6.450
 7279POPC   D2A51436  19.068  25.234   6.750
 7279POPC   C3A51437  19.102  25.258   7.050
 7279POPC   C4A51438  19.027  25.315   7.350
 7279POPC   C1B51439  19.174  25.506   6.450
 7279POPC   C2B51440  19.183  25.433   6.750
 7279POPC   C3B51441  19.178  25.461   7.050
 7279POPC   C4B51442  19.202  25.452   7.350
 7280POPC   NC351443   2.017  16.005   5.550
 7280POPC   PO451444   2.029  15.942   5.850
 7280POPC   GL151445   1.989  15.927   6.150
 7280POPC   GL251446   2.096  15.916   6.150
 7280POPC   C1A51447   1.941  15.940   6.450
 7280POPC   D2A51448   1.958  15.957   6.750
 7280POPC   C3A51449   1.988  15.938   7.050
 7280POPC   C4A51450   1.958  15.931   7.350
 7280POPC   C1B51451   2.243  15.855   6.450
 7280POPC   C2B51452   2.201  15.941   6.750
 7280POPC   C3B51453   2.224  15.862   7.050
 7280POPC   C4B51454   2.268  15.933   7.350
 7281POPC   NC351455   8.177  35.393   5.550
 7281POPC   PO451456   8.181  35.351   5.850
 7281POPC   GL151457   8.183  35.330   6.150
 7281POPC   GL251458   8.191  35.511   6.150
 7281POPC   C1A51459   8.214  35.362   6.450
 7281POPC   D2A51460   8.207  35.314   6.750
 7281POPC   C3A51461   8.208  35.324   7.050
 7281POPC   C4A51462   8.225  35.326   7.350
 7281POPC   C1B51463   8.237  35.555   6.450
 7281POPC   C2B51464   8.240  35.565   6.750
 7281POPC   C3B51465   8.216  35.628   7.050
 7281POPC   C4B51466   8.194  35.641   7.350
 7282POPC   NC351467  19.039  20.650   5.550
 7282POPC   PO451468  19.032  20.622   5.850
 7282POPC   GL151469  19.044  20.620   6.150
 7282POPC   GL251470  19.195  20.674   6.150
 7282POPC   C1A51471  19.054  20.612   6.450
 7282POPC   D2A51472  19.015  20.586   6.750
 7282POPC   C3A51473  19.035  20.649   7.050
 7282POPC   C4A51474  19.107  20.642   7.350
 7282POPC   C1B51475  19.253  20.758   6.450
 7282POPC   C2B51476  19.230  20.778   6.750
 7282POPC   C3B51477  19.275  20.759   7.050
 7282POPC   C4B51478  19.258  20.738   7.350
 7283POPC   NC351479  30.685  24.540   5.550
 7283POPC   PO451480  30.647  24.521   5.850
 7283POPC   GL151481  30.719  24.507   6.150
 7283POPC   GL251482  30.579  24.555   6.150
 7283POPC   C1A51483  30.743  24.466   6.450
 7283POPC   D2A51484  30.668  24.479   6.750
 7283POPC   C3A51485  30.687  24.528   7.050
 7283POPC   C4A51486  30.688  24.445   7.350
 7283POPC   C1B51487  30.490  24.568   6.450
 7283POPC   C2B51488  30.496  24.531   6.750
 7283POPC   C3B51489  30.454  24.526   7.050
 7283POPC   C4B51490  30.409  24.477   7.350
 7284POPC   NC351491  23.689  33.799   5.550
 7284POPC   PO451492  23.705  33.842   5.850
 7284POPC   GL151493  23.666  33.775   6.150
 7284POPC   GL251494  23.812  33.760   6.150
 7284POPC   C1A51495  23.741  33.767   6.450
 7284POPC   D2A51496  23.678  33.780   6.750
 7284POPC   C3A51497  23.748  33.806   7.050
 7284POPC   C4A51498  23.748  33.766   7.350
 7284POPC   C1B51499  23.926  33.761   6.450
 7284POPC   C2B51500  23.943  33.782   6.750
 7284POPC   C3B51501  23.976  33.728   7.050
 7284POPC   C4B51502  23.931  33.691   7.350
 7285POPC   NC351503  32.274  33.010   5.550
 7285POPC   PO451504  32.263  33.039   5.850
 7285POPC   GL151505  32.279  32.998   6.150
 7285POPC   GL251506  32.188  33.183   6.150
 7285POPC   C1A51507  32.225  33.020   6.450
 7285POPC   D2A51508  32.256  33.069   6.750
 7285POPC   C3A51509  32.241  33.056   7.050
 7285POPC   C4A51510  32.293  33.048   7.350
 7285POPC   C1B51511  32.204  33.282   6.450
 7285POPC   C2B51512  32.169  33.269   6.750
 7285POPC   C3B51513  32.134  33.294   7.050
 7285POPC   C4B51514  32.135  33.314   7.350
 7286POPC   NC351515   4.302  14.433   5.550
 7286POPC   PO451516   4.314  14.451   5.850
 7286POPC   GL151517   4.323  14.418   6.150
 7286POPC   GL251518   4.300  14.489   6.150
 7286POPC   C1A51519   4.317  14.357   6.450
 7286POPC   D2A51520   4.275  14.446   6.750
 7286POPC   C3A51521   4.344  14.414   7.050
 7286POPC   C4A51522   4.310  14.370   7.350
 7286POPC   C1B51523   4.293  14.648   6.450
 7286POPC   C2B51524   4.287  14.609   6.750
 7286POPC   C3B51525   4.323  14.617   7.050
 7286POPC   C4B51526   4.299  14.691   7.350
 7287POPC   NC351527  37.652  33.063   5.550
 7287POPC   PO451528  37.721  33.006   5.850
 7287POPC   GL151529  37.632  33.065   6.150
 7287POPC   GL251530  37.804  33.086   6.150
 7287POPC   C1A51531  37.714  32.974   6.450
 7287POPC   D2A51532  37.715  33.018   6.750
 7287POPC   C3A51533  37.655  33.034   7.050
 7287POPC   C4A51534  37.652  33.025   7.350
 7287POPC   C1B51535  37.971  33.054   6.450
 7287POPC   C2B51536  37.918  33.044   6.750
 7287POPC   C3B51537  37.961  33.081   7.050
 7287POPC   C4B51538  37.976  33.076   7.350
 7288POPC   NC351539  40.052  21.428   5.550
 7288POPC   PO451540  40.034  21.376   5.850
 7288POPC   GL151541  40.041  21.379   6.150
 7288POPC   GL251542  40.153  21.353   6.150
 7288POPC   C1A51543  40.041  21.425   6.450
 7288POPC   D2A51544  40.053  21.427   6.750
 7288POPC   C3A51545  39.962  21.423   7.050
 7288POPC   C4A51546  40.021  21.434   7.350
 7288POPC   C1B51547  40.258  21.290   6.450
 7288POPC   C2B51548  40.211  21.256   6.750
 7288POPC   C3B51549  40.266  21.223   7.050
 7288POPC   C4B51550  40.240  21.250   7.350
 7289POPC   NC351551  12.071   0.455   5.550
 7289POPC   PO451552  12.071   0.432   5.850
 7289POPC   GL151553  12.079   0.464   6.150
 7289POPC   GL251554  11.982   0.454   6.150
 7289POPC   C1A51555  12.065   0.446   6.450
 7289POPC   D2A51556  12.048   0.482   6.750
 7289POPC   C3A51557  12.026   0.458   7.050
 7289POPC   C4A51558  12.051   0.416   7.350
 7289POPC   C1B51559  11.870   0.494   6.450
 7289POPC   C2B51560  11.797   0.497   6.750
 7289POPC   C3B51561  11.800   0.509   7.050
 7289POPC   C4B51562  11.825   0.527   7.350
 7290POPC   NC351563   8.147  21.431   5.550
 7290POPC   PO451564   8.218  21.394   5.850
 7290POPC   GL151565   8.199  21.391   6.150
 7290POPC   GL251566   8.209  21.256   6.150
 7290POPC   C1A51567   8.231  21.354   6.450
 7290POPC   D2A51568   8.151  21.340   6.750
 7290POPC   C3A51569   8.156  21.376   7.050
 7290POPC   C4A51570   8.155  21.369   7.350
 7290POPC   C1B51571   8.154  21.188   6.450
 7290POPC   C2B51572   8.136  21.150   6.750
 7290POPC   C3B51573   8.103  21.110   7.050
 7290POPC   C4B51574   8.172  21.138   7.350
 7291POPC   NC351575  38.416  17.477   5.550
 7291POPC   PO451576  38.454  17.473   5.850
 7291POPC   GL151577  38.412  17.467   6.150
 7291POPC   GL251578  38.484  17.614   6.150
 7291POPC   C1A51579  38.504  17.484   6.450
 7291POPC   D2A51580  38.446  17.549   6.750
 7291POPC   C3A51581  38.479  17.503   7.050
 7291POPC   C4A51582  38.444  17.494   7.350
 7291POPC   C1B51583  38.426  17.709   6.450
 7291POPC   C2B51584  38.506  17.715   6.750
 7291POPC   C3B51585  38.461  17.792   7.050
 7291POPC   C4B51586  38.473  17.772   7.350
 7292POPC   NC351587  13.587  22.172   5.550
 7292POPC   PO451588  13.642  22.162   5.850
 7292POPC   GL151589  13.666  22.128   6.150
 7292POPC   GL251590  13.700  22.004   6.150
 7292POPC   C1A51591  13.624  22.195   6.450
 7292POPC   D2A51592  13.668  22.166   6.750
 7292POPC   C3A51593  13.602  22.167   7.050
 7292POPC   C4A51594  13.657  22.129   7.350
 7292POPC   C1B51595  13.754  21.931   6.450
 7292POPC   C2B51596  13.729  21.959   6.750
 7292POPC   C3B51597  13.715  21.959   7.050
 7292POPC   C4B51598  13.683  21.926   7.350
 7293POPC   NC351599  39.223  16.755   5.550
 7293POPC   PO451600  39.208  16.692   5.850
 7293POPC   GL151601  39.192  16.726   6.150
 7293POPC   GL251602  39.210  16.564   6.150
 7293POPC   C1A51603  39.249  16.749   6.450
 7293POPC   D2A51604  39.277  16.764   6.750
 7293POPC   C3A51605  39.266  16.764   7.050
 7293POPC   C4A51606  39.233  16.707   7.350
 7293POPC   C1B51607  39.225  16.451   6.450
 7293POPC   C2B51608  39.277  16.508   6.750
 7293POPC   C3B51609  39.299  16.524   7.050
 7293POPC   C4B51610  39.293  16.507   7.350
 7294POPC   NC351611  29.100  16.723   5.550
 7294POPC   PO451612  29.118  16.749   5.850
 7294POPC   GL151613  29.129  16.772   6.150
 7294POPC   GL251614  29.247  16.652   6.150
 7294POPC   C1A51615  29.129  16.759   6.450
 7294POPC   D2A51616  29.097  16.683   6.750
 7294POPC   C3A51617  29.118  16.767   7.050
 7294POPC   C4A51618  29.168  16.746   7.350
 7294POPC   C1B51619  29.331  16.520   6.450
 7294POPC   C2B51620  29.290  16.544   6.750
 7294POPC   C3B51621  29.306  16.535   7.050
 7294POPC   C4B51622  29.354  16.591   7.350
 7295POPC   NC351623  11.277   8.240   5.550
 7295POPC   PO451624  11.334   8.198   5.850
 7295POPC   GL151625  11.290   8.188   6.150
 7295POPC   GL251626  11.158   8.261   6.150
 7295POPC   C1A51627  11.324   8.203   6.450
 7295POPC   D2A51628  11.269   8.232   6.750
 7295POPC   C3A51629  11.261   8.187   7.050
 7295POPC   C4A51630  11.318   8.185   7.350
 7295POPC   C1B51631  11.029   8.225   6.450
 7295POPC   C2B51632  11.062   8.218   6.750
 7295POPC   C3B51633  11.037   8.237   7.050
 7295POPC   C4B51634  11.073   8.219   7.350
 7296POPC   NC351635  21.428  15.141   5.550
 7296POPC   PO451636  21.393  15.136   5.850
 7296POPC   GL151637  21.400  15.139   6.150
 7296POPC   GL251638  21.400  15.327   6.150
 7296POPC   C1A51639  21.364  15.176   6.450
 7296POPC   D2A51640  21.360  15.229   6.750
 7296POPC   C3A51641  21.338  15.163   7.050
 7296POPC   C4A51642  21.426  15.145   7.350
 7296POPC   C1B51643  21.355  15.412   6.450
 7296POPC   C2B51644  21.363  15.457   6.750
 7296POPC   C3B51645  21.295  15.419   7.050
 7296POPC   C4B51646  21.368  15.422   7.350
 7297POPC   NC351647  22.175  27.605   5.550
 7297POPC   PO451648  22.171  27.552   5.850
 7297POPC   GL151649  22.115  27.597   6.150
 7297POPC   GL251650  22.195  27.451   6.150
 7297POPC   C1A51651  22.140  27.593   6.450
 7297POPC   D2A51652  22.157  27.550   6.750
 7297POPC   C3A51653  22.178  27.632   7.050
 7297POPC   C4A51654  22.141  27.561   7.350
 7297POPC   C1B51655  22.146  27.323   6.450
 7297POPC   C2B51656  22.142  27.379   6.750
 7297POPC   C3B51657  22.195  27.332   7.050
 7297POPC   C4B51658  22.187  27.297   7.350
 7298POPC   NC351659  29.115  40.026   5.550
 7298POPC   PO451660  29.194  39.984   5.850
 7298POPC   GL151661  29.180  40.038   6.150
 7298POPC   GL251662  29.160  40.178   6.150
 7298POPC   C1A51663  29.154  40.011   6.450
 7298POPC   D2A51664  29.163  39.984   6.750
 7298POPC   C3A51665  29.145  39.974   7.050
 7298POPC   C4A51666  29.138  40.022   7.350
 7298POPC   C1B51667  29.085  40.276   6.450
 7298POPC   C2B51668  29.073  40.224   6.750
 7298POPC   C3B51669  29.124  40.235   7.050
 7298POPC   C4B51670  29.108  40.265   7.350
 7299POPC   NC351671  24.525  22.970   5.550
 7299POPC   PO451672  24.503  22.926   5.850
 7299POPC   GL151673  24.529  22.957   6.150
 7299POPC   GL251674  24.606  23.074   6.150
 7299POPC   C1A51675  24.501  22.952   6.450
 7299POPC   D2A51676  24.483  22.973   6.750
 7299POPC   C3A51677  24.481  22.953   7.050
 7299POPC   C4A51678  24.528  22.928   7.350
 7299POPC   C1B51679  24.653  23.083   6.450
 7299POPC   C2B51680  24.635  23.165   6.750
 7299POPC   C3B51681  24.681  23.165   7.050
 7299POPC   C4B51682  24.637  23.167   7.350
 7300POPC   NC351683  26.017  36.950   5.550
 7300POPC   PO451684  26.078  36.930   5.850
 7300POPC   GL151685  26.015  36.910   6.150
 7300POPC   GL251686  26.125  36.795   6.150
 7300POPC   C1A51687  26.023  36.917   6.450
 7300POPC   D2A51688  26.074  36.877   6.750
 7300POPC   C3A51689  26.076  36.951   7.050
 7300POPC   C4A51690  26.023  36.903   7.350
 7300POPC   C1B51691  26.266  36.725   6.450
 7300POPC   C2B51692  26.224  36.806   6.750
 7300POPC   C3B51693  26.209  36.778   7.050
 7300POPC   C4B51694  26.287  36.823   7.350
 7301POPC   NC351695   7.445  29.155   5.550
 7301POPC   PO451696   7.443  29.114   5.850
 7301POPC   GL151697   7.468  29.115   6.150
 7301POPC   GL251698   7.315  29.268   6.150
 7301POPC   C1A51699   7.414  29.172   6.450
 7301POPC   D2A51700   7.462  29.102   6.750
 7301POPC   C3A51701   7.426  29.147   7.050
 7301POPC   C4A51702   7.426  29.144   7.350
 7301POPC   C1B51703   7.284  29.370   6.450
 7301POPC   C2B51704   7.256  29.385   6.750
 7301POPC   C3B51705   7.317  29.355   7.050
 7301POPC   C4B51706   7.300  29.385   7.350
 7302POPC   NC351707  34.601  23.667   5.550
 7302POPC   PO451708  34.539  23.753   5.850
 7302POPC   GL151709  34.607  23.747   6.150
 7302POPC   GL251710  34.716  23.790   6.150
 7302POPC   C1A51711  34.546  23.723   6.450
 7302POPC   D2A51712  34.571  23.672   6.750
 7302POPC   C3A51713  34.567  23.697   7.050
 7302POPC   C4A51714  34.528  23.740   7.350
 7302POPC   C1B51715  34.788  23.728   6.450
 7302POPC   C2B51716  34.798  23.769   6.750
 7302POPC   C3B51717  34.798  23.736   7.050
 7302POPC   C4B51718  34.774  23.729   7.350
 7303POPC   NC351719  14.354  30.746   5.550
 7303POPC   PO451720  14.393  30.722   5.850
 7303POPC   GL151721  14.422  30.677   6.150
 7303POPC   GL251722  14.561  30.748   6.150
 7303POPC   C1A51723  14.403  30.701   6.450
 7303POPC   D2A51724  14.356  30.650   6.750
 7303POPC   C3A51725  14.355  30.691   7.050
 7303POPC   C4A51726  14.443  30.698   7.350
 7303POPC   C1B51727  14.640  30.737   6.450
 7303POPC   C2B51728  14.625  30.786   6.750
 7303POPC   C3B51729  14.616  30.760   7.050
 7303POPC   C4B51730  14.652  30.802   7.350
 7304POPC   NC351731  23.667  27.604   5.550
 7304POPC   PO451732  23.712  27.636   5.850
 7304POPC   GL151733  23.739  27.583   6.150
 7304POPC   GL251734  23.763  27.732   6.150
 7304POPC   C1A51735  23.722  27.552   6.450
 7304POPC   D2A51736  23.689  27.548   6.750
 7304POPC   C3A51737  23.678  27.641   7.050
 7304POPC   C4A51738  23.759  27.619   7.350
 7304POPC   C1B51739  23.828  27.825   6.450
 7304POPC   C2B51740  23.870  27.767   6.750
 7304POPC   C3B51741  23.879  27.850   7.050
 7304POPC   C4B51742  23.786  27.767   7.350
 7305POPC   NC351743  31.499  26.780   5.550
 7305POPC   PO451744  31.492  26.859   5.850
 7305POPC   GL151745  31.432  26.840   6.150
 7305POPC   GL251746  31.564  26.921   6.150
 7305POPC   C1A51747  31.476  26.775   6.450
 7305POPC   D2A51748  31.519  26.861   6.750
 7305POPC   C3A51749  31.479  26.829   7.050
 7305POPC   C4A51750  31.474  26.820   7.350
 7305POPC   C1B51751  31.685  27.023   6.450
 7305POPC   C2B51752  31.710  26.960   6.750
 7305POPC   C3B51753  31.666  26.982   7.050
 7305POPC   C4B51754  31.650  26.985   7.350
 7306POPC   NC351755  33.778  26.844   5.550
 7306POPC   PO451756  33.814  26.771   5.850
 7306POPC   GL151757  33.828  26.814   6.150
 7306POPC   GL251758  33.674  26.924   6.150
 7306POPC   C1A51759  33.759  26.848   6.450
 7306POPC   D2A51760  33.793  26.797   6.750
 7306POPC   C3A51761  33.773  26.770   7.050
 7306POPC   C4A51762  33.800  26.785   7.350
 7306POPC   C1B51763  33.615  26.997   6.450
 7306POPC   C2B51764  33.606  26.983   6.750
 7306POPC   C3B51765  33.602  26.958   7.050
 7306POPC   C4B51766  33.629  26.923   7.350
 7307POPC   NC351767  19.038   1.257   5.550
 7307POPC   PO451768  19.023   1.200   5.850
 7307POPC   GL151769  19.013   1.174   6.150
 7307POPC   GL251770  19.114   1.318   6.150
 7307POPC   C1A51771  19.093   1.183   6.450
 7307POPC   D2A51772  19.079   1.171   6.750
 7307POPC   C3A51773  19.025   1.208   7.050
 7307POPC   C4A51774  19.030   1.248   7.350
 7307POPC   C1B51775  19.157   1.424   6.450
 7307POPC   C2B51776  19.171   1.401   6.750
 7307POPC   C3B51777  19.205   1.409   7.050
 7307POPC   C4B51778  19.204   1.417   7.350
 7308POPC   NC351779   8.243  14.452   5.550
 7308POPC   PO451780   8.224  14.441   5.850
 7308POPC   GL151781   8.154  14.388   6.150
 7308POPC   GL251782   8.122  14.328   6.150
 7308POPC   C1A51783   8.193  14.378   6.450
 7308POPC   D2A51784   8.197  14.360   6.750
 7308POPC   C3A51785   8.174  14.363   7.050
 7308POPC   C4A51786   8.193  14.390   7.350
 7308POPC   C1B51787   8.081  14.204   6.450
 7308POPC   C2B51788   8.077  14.182   6.750
 7308POPC   C3B51789   8.044  14.174   7.050
 7308POPC   C4B51790   8.008  14.254   7.350
 7309POPC   NC351791  43.840   8.206   5.550
 7309POPC   PO451792  43.847   8.150   5.850
 7309POPC   GL151793  43.854   8.155   6.150
 7309POPC   GL251794  43.903   8.104   6.150
 7309POPC   C1A51795  43.885   8.165   6.450
 7309POPC   D2A51796  43.852   8.172   6.750
 7309POPC   C3A51797  43.843   8.238   7.050
 7309POPC   C4A51798  43.850   8.228   7.350
 7309POPC   C1B51799  43.940   8.003   6.450
 7309POPC   C2B51800  43.985   7.936   6.750
 7309POPC   C3B51801  44.022   7.974   7.050
 7309POPC   C4B51802  43.965   7.953   7.350
 7310POPC   NC351803  40.053  33.786   5.550
 7310POPC   PO451804  40.004  33.849   5.850
 7310POPC   GL151805  40.000  33.818   6.150
 7310POPC   GL251806  39.871  33.871   6.150
 7310POPC   C1A51807  39.972  33.792   6.450
 7310POPC   D2A51808  39.967  33.784   6.750
 7310POPC   C3A51809  39.976  33.848   7.050
 7310POPC   C4A51810  39.961  33.810   7.350
 7310POPC   C1B51811  39.822  33.895   6.450
 7310POPC   C2B51812  39.789  33.945   6.750
 7310POPC   C3B51813  39.734  33.914   7.050
 7310POPC   C4B51814  39.760  33.895   7.350
 7311POPC   NC351815  22.140  17.504   5.550
 7311POPC   PO451816  22.162  17.500   5.850
 7311POPC   GL151817  22.161  17.513   6.150
 7311POPC   GL251818  22.167  17.644   6.150
 7311POPC   C1A51819  22.126  17.513   6.450
 7311POPC   D2A51820  22.208  17.552   6.750
 7311POPC   C3A51821  22.130  17.461   7.050
 7311POPC   C4A51822  22.142  17.541   7.350
 7311POPC   C1B51823  22.231  17.800   6.450
 7311POPC   C2B51824  22.212  17.803   6.750
 7311POPC   C3B51825  22.203  17.791   7.050
 7311POPC   C4B51826  22.150  17.763   7.350
 7312POPC   NC351827  29.128  40.741   5.550
 7312POPC   PO451828  29.131  40.769   5.850
 7312POPC   GL151829  29.130  40.779   6.150
 7312POPC   GL251830  29.046  40.909   6.150
 7312POPC   C1A51831  29.106  40.788   6.450
 7312POPC   D2A51832  29.191  40.737   6.750
 7312POPC   C3A51833  29.104  40.829   7.050
 7312POPC   C4A51834  29.117  40.811   7.350
 7312POPC   C1B51835  29.038  41.005   6.450
 7312POPC   C2B51836  29.009  41.030   6.750
 7312POPC   C3B51837  28.964  41.035   7.050
 7312POPC   C4B51838  28.970  40.957   7.350
 7313POPC   NC351839  43.929  33.757   5.550
 7313POPC   PO451840  43.911  33.820   5.850
 7313POPC   GL151841  43.854  33.816   6.150
 7313POPC   GL251842  43.847  33.903   6.150
 7313POPC   C1A51843  43.890  33.818   6.450
 7313POPC   D2A51844  43.840  33.824   6.750
 7313POPC   C3A51845  43.893  33.764   7.050
 7313POPC   C4A51846  43.855  33.778   7.350
 7313POPC   C1B51847  43.926  34.037   6.450
 7313POPC   C2B51848  43.934  34.071   6.750
 7313POPC   C3B51849  43.853  34.039   7.050
 7313POPC   C4B51850  43.909  34.098   7.350
 7314POPC   NC351851  25.218   4.334   5.550
 7314POPC   PO451852  25.306   4.341   5.850
 7314POPC   GL151853  25.255   4.312   6.150
 7314POPC   GL251854  25.302   4.194   6.150
 7314POPC   C1A51855  25.267   4.343   6.450
 7314POPC   D2A51856  25.298   4.361   6.750
 7314POPC   C3A51857  25.235   4.359   7.050
 7314POPC   C4A51858  25.235   4.277   7.350
 7314POPC   C1B51859  25.287   4.063   6.450
 7314POPC   C2B51860  25.296   4.071   6.750
 7314POPC   C3B51861  25.303   4.081   7.050
 7314POPC   C4B51862  25.353   4.055   7.350
 7315POPC   NC351863  34.619  22.919   5.550
 7315POPC   PO451864  34.604  22.896   5.850
 7315POPC   GL151865  34.605  22.971   6.150
 7315POPC   GL251866  34.607  22.789   6.150
 7315POPC   C1A51867  34.625  22.900   6.450
 7315POPC   D2A51868  34.573  22.919   6.750
 7315POPC   C3A51869  34.591  22.943   7.050
 7315POPC   C4A51870  34.577  22.986   7.350
 7315POPC   C1B51871  34.675  22.715   6.450
 7315POPC   C2B51872  34.645  22.746   6.750
 7315POPC   C3B51873  34.620  22.668   7.050
 7315POPC   C4B51874  34.708  22.714   7.350
 7316POPC   NC351875   0.457  38.469   5.550
 7316POPC   PO451876   0.411  38.412   5.850
 7316POPC   GL151877   0.435  38.433   6.150
 7316POPC   GL251878   0.318  38.358   6.150
 7316POPC   C1A51879   0.446  38.498   6.450
 7316POPC   D2A51880   0.475  38.423   6.750
 7316POPC   C3A51881   0.401  38.472   7.050
 7316POPC   C4A51882   0.471  38.448   7.350
 7316POPC   C1B51883   0.283  38.288   6.450
 7316POPC   C2B51884   0.253  38.275   6.750
 7316POPC   C3B51885   0.238  38.316   7.050
 7316POPC   C4B51886   0.285  38.282   7.350
 7317POPC   NC351887  11.339  35.379   5.550
 7317POPC   PO451888  11.258  35.366   5.850
 7317POPC   GL151889  11.335  35.304   6.150
 7317POPC   GL251890  11.249  35.506   6.150
 7317POPC   C1A51891  11.304  35.375   6.450
 7317POPC   D2A51892  11.335  35.393   6.750
 7317POPC   C3A51893  11.254  35.362   7.050
 7317POPC   C4A51894  11.288  35.321   7.350
 7317POPC   C1B51895  11.290  35.627   6.450
 7317POPC   C2B51896  11.335  35.552   6.750
 7317POPC   C3B51897  11.261  35.615   7.050
 7317POPC   C4B51898  11.295  35.629   7.350
 7318POPC   NC351899  44.689  21.416   5.550
 7318POPC   PO451900  44.621  21.338   5.850
 7318POPC   GL151901  44.687  21.422   6.150
 7318POPC   GL251902  44.807  21.341   6.150
 7318POPC   C1A51903  44.628  21.391   6.450
 7318POPC   D2A51904  44.690  21.433   6.750
 7318POPC   C3A51905  44.680  21.408   7.050
 7318POPC   C4A51906  44.661  21.375   7.350
 7318POPC   C1B51907  44.895  21.278   6.450
 7318POPC   C2B51908  44.946  21.311   6.750
 7318POPC   C3B51909  44.934  21.328   7.050
 7318POPC   C4B51910  44.855  21.331   7.350
 7319POPC   NC351911  15.187  12.107   5.550
 7319POPC   PO451912  15.219  12.079   5.850
 7319POPC   GL151913  15.200  12.073   6.150
 7319POPC   GL251914  15.304  11.998   6.150
 7319POPC   C1A51915  15.138  12.086   6.450
 7319POPC   D2A51916  15.161  12.069   6.750
 7319POPC   C3A51917  15.173  12.094   7.050
 7319POPC   C4A51918  15.228  12.030   7.350
 7319POPC   C1B51919  15.320  11.927   6.450
 7319POPC   C2B51920  15.375  11.880   6.750
 7319POPC   C3B51921  15.357  11.906   7.050
 7319POPC   C4B51922  15.310  11.909   7.350
 7320POPC   NC351923  12.883  29.928   5.550
 7320POPC   PO451924  12.884  29.905   5.850
 7320POPC   GL151925  12.876  29.941   6.150
 7320POPC   GL251926  12.990  30.011   6.150
 7320POPC   C1A51927  12.862  29.940   6.450
 7320POPC   D2A51928  12.854  29.887   6.750
 7320POPC   C3A51929  12.868  29.921   7.050
 7320POPC   C4A51930  12.894  29.920   7.350
 7320POPC   C1B51931  13.091  30.075   6.450
 7320POPC   C2B51932  13.091  30.036   6.750
 7320POPC   C3B51933  13.046  30.103   7.050
 7320POPC   C4B51934  13.035  30.092   7.350
 7321POPC   NC351935  41.595  18.243   5.550
 7321POPC   PO451936  41.563  18.283   5.850
 7321POPC   GL151937  41.527  18.330   6.150
 7321POPC   GL251938  41.480  18.394   6.150
 7321POPC   C1A51939  41.528  18.313   6.450
 7321POPC   D2A51940  41.551  18.276   6.750
 7321POPC   C3A51941  41.547  18.297   7.050
 7321POPC   C4A51942  41.594  18.295   7.350
 7321POPC   C1B51943  41.377  18.434   6.450
 7321POPC   C2B51944  41.389  18.452   6.750
 7321POPC   C3B51945  41.421  18.443   7.050
 7321POPC   C4B51946  41.381  18.517   7.350
 7322POPC   NC351947  29.119   8.175   5.550
 7322POPC   PO451948  29.127   8.190   5.850
 7322POPC   GL151949  29.137   8.205   6.150
 7322POPC   GL251950  29.012   8.226   6.150
 7322POPC   C1A51951  29.128   8.177   6.450
 7322POPC   D2A51952  29.183   8.226   6.750
 7322POPC   C3A51953  29.118   8.192   7.050
 7322POPC   C4A51954  29.187   8.224   7.350
 7322POPC   C1B51955  28.909   8.331   6.450
 7322POPC   C2B51956  28.909   8.273   6.750
 7322POPC   C3B51957  28.925   8.285   7.050
 7322POPC   C4B51958  28.934   8.264   7.350
 7323POPC   NC351959   1.978  41.588   5.550
 7323POPC   PO451960   2.000  41.582   5.850
 7323POPC   GL151961   1.990  41.570   6.150
 7323POPC   GL251962   2.094  41.416   6.150
 7323POPC   C1A51963   1.974  41.544   6.450
 7323POPC   D2A51964   1.975  41.596   6.750
 7323POPC   C3A51965   1.980  41.574   7.050
 7323POPC   C4A51966   2.008  41.580   7.350
 7323POPC   C1B51967   2.101  41.344   6.450
 7323POPC   C2B51968   2.162  41.362   6.750
 7323POPC   C3B51969   2.108  41.345   7.050
 7323POPC   C4B51970   2.163  41.323   7.350
 7324POPC   NC351971  23.664  19.823   5.550
 7324POPC   PO451972  23.712  19.881   5.850
 7324POPC   GL151973  23.682  19.811   6.150
 7324POPC   GL251974  23.750  19.958   6.150
 7324POPC   C1A51975  23.673  19.849   6.450
 7324POPC   D2A51976  23.694  19.869   6.750
 7324POPC   C3A51977  23.737  19.860   7.050
 7324POPC   C4A51978  23.687  19.804   7.350
 7324POPC   C1B51979  23.710  20.107   6.450
 7324POPC   C2B51980  23.697  20.089   6.750
 7324POPC   C3B51981  23.697  20.099   7.050
 7324POPC   C4B51982  23.726  20.114   7.350
 7325POPC   NC351983   5.125   2.760   5.550
 7325POPC   PO451984   5.115   2.782   5.850
 7325POPC   GL151985   5.128   2.760   6.150
 7325POPC   GL251986   5.204   2.789   6.150
 7325POPC   C1A51987   5.057   2.743   6.450
 7325POPC   D2A51988   5.106   2.784   6.750
 7325POPC   C3A51989   5.137   2.726   7.050
 7325POPC   C4A51990   5.072   2.753   7.350
 7325POPC   C1B51991   5.296   2.873   6.450
 7325POPC   C2B51992   5.356   2.809   6.750
 7325POPC   C3B51993   5.326   2.863   7.050
 7325POPC   C4B51994   5.315   2.891   7.350
 7326POPC   NC351995   1.171  43.132   5.550
 7326POPC   PO451996   1.259  43.137   5.850
 7326POPC   GL151997   1.260  43.119   6.150
 7326POPC   GL251998   1.175  43.240   6.150
 7326POPC   C1A51999   1.207  43.158   6.450
 7326POPC   D2A52000   1.194  43.152   6.750
 7326POPC   C3A52001   1.249  43.157   7.050
 7326POPC   C4A52002   1.223  43.158   7.350
 7326POPC   C1B52003   1.061  43.282   6.450
 7326POPC   C2B52004   1.116  43.281   6.750
 7326POPC   C3B52005   1.083  43.303   7.050
 7326POPC   C4B52006   1.069  43.305   7.350
 7327POPC   NC352007  28.325  24.534   5.550
 7327POPC   PO452008  28.347  24.513   5.850
 7327POPC   GL152009  28.415  24.476   6.150
 7327POPC   GL252010  28.317  24.605   6.150
 7327POPC   C1A52011  28.364  24.492   6.450
 7327POPC   D2A52012  28.378  24.511   6.750
 7327POPC   C3A52013  28.348  24.472   7.050
 7327POPC   C4A52014  28.358  24.465   7.350
 7327POPC   C1B52015  28.217  24.654   6.450
 7327POPC   C2B52016  28.215  24.635   6.750
 7327POPC   C3B52017  28.152  24.690   7.050
 7327POPC   C4B52018  28.182  24.619   7.350
 7328POPC   NC352019  43.106   1.254   5.550
 7328POPC   PO452020  43.148   1.229   5.850
 7328POPC   GL152021  43.123   1.198   6.150
 7328POPC   GL252022  43.262   1.173   6.150
 7328POPC   C1A52023  43.157   1.201   6.450
 7328POPC   D2A52024  43.136   1.247   6.750
 7328POPC   C3A52025  43.131   1.167   7.050
 7328POPC   C4A52026  43.130   1.176   7.350
 7328POPC   C1B52027  43.311   1.143   6.450
 7328POPC   C2B52028  43.312   1.081   6.750
 7328POPC   C3B52029  43.355   1.150   7.050
 7328POPC   C4B52030  43.370   1.093   7.350
 7329POPC   NC352031  43.897  24.504   5.550
 7329POPC   PO452032  43.925  24.485   5.850
 7329POPC   GL152033  43.903  24.531   6.150
 7329POPC   GL252034  43.928  24.409   6.150
 7329POPC   C1A52035  43.915  24.533   6.450
 7329POPC   D2A52036  43.854  24.490   6.750
 7329POPC   C3A52037  43.898  24.456   7.050
 7329POPC   C4A52038  43.839  24.512   7.350
 7329POPC   C1B52039  44.060  24.301   6.450
 7329POPC   C2B52040  44.062  24.293   6.750
 7329POPC   C3B52041  44.033  24.296   7.050
 7329POPC   C4B52042  44.063  24.305   7.350
 7330POPC   NC352043  26.786   8.225   5.550
 7330POPC   PO452044  26.786   8.182   5.850
 7330POPC   GL152045  26.838   8.220   6.150
 7330POPC   GL252046  26.753   8.240   6.150
 7330POPC   C1A52047  26.825   8.237   6.450
 7330POPC   D2A52048  26.810   8.211   6.750
 7330POPC   C3A52049  26.822   8.159   7.050
 7330POPC   C4A52050  26.833   8.165   7.350
 7330POPC   C1B52051  26.635   8.363   6.450
 7330POPC   C2B52052  26.656   8.351   6.750
 7330POPC   C3B52053  26.603   8.367   7.050
 7330POPC   C4B52054  26.617   8.297   7.350
 7331POPC   NC352055  22.935  44.682   5.550
 7331POPC   PO452056  22.901  44.668   5.850
 7331POPC   GL152057  22.960  44.702   6.150
 7331POPC   GL252058  22.945  44.800   6.150
 7331POPC   C1A52059  22.918  44.709   6.450
 7331POPC   D2A52060  22.956  44.637   6.750
 7331POPC   C3A52061  22.942  44.617   7.050
 7331POPC   C4A52062  22.919  44.678   7.350
 7331POPC   C1B52063  22.873  44.863   6.450
 7331POPC   C2B52064  22.856  44.928   6.750
 7331POPC   C3B52065  22.873  44.866   7.050
 7331POPC   C4B52066  22.921  44.877   7.350
 7332POPC   NC352067  29.905  31.474   5.550
 7332POPC   PO452068  29.886  31.472   5.850
 7332POPC   GL152069  29.924  31.493   6.150
 7332POPC   GL252070  30.060  31.451   6.150
 7332POPC   C1A52071  29.904  31.423   6.450
 7332POPC   D2A52072  29.920  31.472   6.750
 7332POPC   C3A52073  29.875  31.427   7.050
 7332POPC   C4A52074  29.953  31.452   7.350
 7332POPC   C1B52075  30.119  31.393   6.450
 7332POPC   C2B52076  30.142  31.351   6.750
 7332POPC   C3B52077  30.167  31.405   7.050
 7332POPC   C4B52078  30.162  31.323   7.350
 7333POPC   NC352079  32.281  19.790   5.550
 7333POPC   PO452080  32.216  19.873   5.850
 7333POPC   GL152081  32.233  19.828   6.150
 7333POPC   GL252082  32.356  19.778   6.150
 7333POPC   C1A52083  32.254  19.803   6.450
 7333POPC   D2A52084  32.253  19.835   6.750
 7333POPC   C3A52085  32.278  19.788   7.050
 7333POPC   C4A52086  32.227  19.841   7.350
 7333POPC   C1B52087  32.421  19.699   6.450
 7333POPC   C2B52088  32.433  19.743   6.750
 7333POPC   C3B52089  32.487  19.717   7.050
 7333POPC   C4B52090  32.455  19.708   7.350
 7334POPC   NC352091  15.146  39.196   5.550
 7334POPC   PO452092  15.137  39.218   5.850
 7334POPC   GL152093  15.227  39.239   6.150
 7334POPC   GL252094  15.200  39.324   6.150
 7334POPC   C1A52095  15.200  39.233   6.450
 7334POPC   D2A52096  15.180  39.224   6.750
 7334POPC   C3A52097  15.173  39.257   7.050
 7334POPC   C4A52098  15.130  39.201   7.350
 7334POPC   C1B52099  15.233  39.458   6.450
 7334POPC   C2B52100  15.312  39.425   6.750
 7334POPC   C3B52101  15.298  39.481   7.050
 7334POPC   C4B52102  15.255  39.445   7.350
 7335POPC   NC352103  28.369  32.997   5.550
 7335POPC   PO452104  28.394  33.025   5.850
 7335POPC   GL152105  28.320  33.054   6.150
 7335POPC   GL252106  28.535  32.960   6.150
 7335POPC   C1A52107  28.345  33.069   6.450
 7335POPC   D2A52108  28.396  33.061   6.750
 7335POPC   C3A52109  28.367  33.046   7.050
 7335POPC   C4A52110  28.406  32.984   7.350
 7335POPC   C1B52111  28.564  32.985   6.450
 7335POPC   C2B52112  28.655  32.904   6.750
 7335POPC   C3B52113  28.562  32.938   7.050
 7335POPC   C4B52114  28.622  32.977   7.350
 7336POPC   NC352115  11.309   1.183   5.550
 7336POPC   PO452116  11.267   1.201   5.850
 7336POPC   GL152117  11.256   1.172   6.150
 7336POPC   GL252118  11.408   1.100   6.150
 7336POPC   C1A52119  11.342   1.232   6.450
 7336POPC   D2A52120  11.257   1.185   6.750
 7336POPC   C3A52121  11.303   1.208   7.050
 7336POPC   C4A52122  11.252   1.167   7.350
 7336POPC   C1B52123  11.489   1.060   6.450
 7336POPC   C2B52124  11.450   1.058   6.750
 7336POPC   C3B52125  11.430   1.052   7.050
 7336POPC   C4B52126  11.408   0.965   7.350
 7337POPC   NC352127  29.920  18.258   5.550
 7337POPC   PO452128  29.933  18.305   5.850
 7337POPC   GL152129  29.944  18.287   6.150
 7337POPC   GL252130  30.076  18.240   6.150
 7337POPC   C1A52131  29.872  18.279   6.450
 7337POPC   D2A52132  29.939  18.252   6.750
 7337POPC   C3A52133  29.881  18.256   7.050
 7337POPC   C4A52134  29.951  18.287   7.350
 7337POPC   C1B52135  30.115  18.167   6.450
 7337POPC   C2B52136  30.129  18.216   6.750
 7337POPC   C3B52137  30.126  18.144   7.050
 7337POPC   C4B52138  30.137  18.152   7.350
 7338POPC   NC352139  36.140   6.660   5.550
 7338POPC   PO452140  36.162   6.650   5.850
 7338POPC   GL152141  36.161   6.662   6.150
 7338POPC   GL252142  35.997   6.738   6.150
 7338POPC   C1A52143  36.142   6.630   6.450
 7338POPC   D2A52144  36.093   6.623   6.750
 7338POPC   C3A52145  36.124   6.643   7.050
 7338POPC   C4A52146  36.148   6.664   7.350
 7338POPC   C1B52147  35.906   6.807   6.450
 7338POPC   C2B52148  35.881   6.783   6.750
 7338POPC   C3B52149  35.895   6.820   7.050
 7338POPC   C4B52150  35.885   6.731   7.350
 7339POPC   NC352151  21.350  17.545   5.550
 7339POPC   PO452152  21.405  17.482   5.850
 7339POPC   GL152153  21.363  17.554   6.150
 7339POPC   GL252154  21.220  17.465   6.150
 7339POPC   C1A52155  21.399  17.468   6.450
 7339POPC   D2A52156  21.393  17.495   6.750
 7339POPC   C3A52157  21.424  17.460   7.050
 7339POPC   C4A52158  21.422  17.505   7.350
 7339POPC   C1B52159  21.087  17.497   6.450
 7339POPC   C2B52160  21.136  17.545   6.750
 7339POPC   C3B52161  21.113  17.511   7.050
 7339POPC   C4B52162  21.166  17.520   7.350
 7340POPC   NC352163  26.000  10.490   5.550
 7340POPC   PO452164  26.026  10.535   5.850
 7340POPC   GL152165  26.036  10.548   6.150
 7340POPC   GL252166  26.115  10.514   6.150
 7340POPC   C1A52167  26.006  10.487   6.450
 7340POPC   D2A52168  26.030  10.504   6.750
 7340POPC   C3A52169  26.061  10.550   7.050
 7340POPC   C4A52170  26.078  10.538   7.350
 7340POPC   C1B52171  26.283  10.602   6.450
 7340POPC   C2B52172  26.262  10.578   6.750
 7340POPC   C3B52173  26.274  10.564   7.050
 7340POPC   C4B52174  26.300  10.578   7.350
 7341POPC   NC352175   6.629  15.159   5.550
 7341POPC   PO452176   6.625  15.140   5.850
 7341POPC   GL152177   6.690  15.142   6.150
 7341POPC   GL252178   6.728  15.263   6.150
 7341POPC   C1A52179   6.690  15.171   6.450
 7341POPC   D2A52180   6.617  15.165   6.750
 7341POPC   C3A52181   6.643  15.227   7.050
 7341POPC   C4A52182   6.654  15.204   7.350
 7341POPC   C1B52183   6.835  15.217   6.450
 7341POPC   C2B52184   6.836  15.267   6.750
 7341POPC   C3B52185   6.856  15.262   7.050
 7341POPC   C4B52186   6.882  15.265   7.350
 7342POPC   NC352187  21.369   5.085   5.550
 7342POPC   PO452188  21.409   5.111   5.850
 7342POPC   GL152189  21.365   5.074   6.150
 7342POPC   GL252190  21.365   4.985   6.150
 7342POPC   C1A52191  21.400   5.115   6.450
 7342POPC   D2A52192  21.371   5.088   6.750
 7342POPC   C3A52193  21.344   5.139   7.050
 7342POPC   C4A52194  21.420   5.063   7.350
 7342POPC   C1B52195  21.317   4.872   6.450
 7342POPC   C2B52196  21.289   4.905   6.750
 7342POPC   C3B52197  21.273   4.831   7.050
 7342POPC   C4B52198  21.241   4.841   7.350
 7343POPC   NC352199  33.837  39.969   5.550
 7343POPC   PO452200  33.807  40.048   5.850
 7343POPC   GL152201  33.790  39.993   6.150
 7343POPC   GL252202  33.720  39.866   6.150
 7343POPC   C1A52203  33.776  39.987   6.450
 7343POPC   D2A52204  33.804  40.040   6.750
 7343POPC   C3A52205  33.815  40.044   7.050
 7343POPC   C4A52206  33.815  40.045   7.350
 7343POPC   C1B52207  33.642  39.793   6.450
 7343POPC   C2B52208  33.700  39.807   6.750
 7343POPC   C3B52209  33.713  39.758   7.050
 7343POPC   C4B52210  33.704  39.763   7.350
 7344POPC   NC352211  39.206  32.246   5.550
 7344POPC   PO452212  39.228  32.293   5.850
 7344POPC   GL152213  39.272  32.227   6.150
 7344POPC   GL252214  39.156  32.321   6.150
 7344POPC   C1A52215  39.207  32.272   6.450
 7344POPC   D2A52216  39.201  32.237   6.750
 7344POPC   C3A52217  39.215  32.276   7.050
 7344POPC   C4A52218  39.210  32.269   7.350
 7344POPC   C1B52219  39.061  32.464   6.450
 7344POPC   C2B52220  39.069  32.483   6.750
 7344POPC   C3B52221  39.055  32.445   7.050
 7344POPC   C4B52222  39.103  32.446   7.350
 7345POPC   NC352223  29.897  37.651   5.550
 7345POPC   PO452224  29.964  37.676   5.850
 7345POPC   GL152225  29.903  37.709   6.150
 7345POPC   GL252226  29.772  37.700   6.150
 7345POPC   C1A52227  29.925  37.678   6.450
 7345POPC   D2A52228  29.894  37.693   6.750
 7345POPC   C3A52229  29.947  37.665   7.050
 7345POPC   C4A52230  29.943  37.701   7.350
 7345POPC   C1B52231  29.717  37.721   6.450
 7345POPC   C2B52232  29.642  37.739   6.750
 7345POPC   C3B52233  29.626  37.735   7.050
 7345POPC   C4B52234  29.708  37.733   7.350
 7346POPC   NC352235   3.588  35.308   5.550
 7346POPC   PO452236   3.492  35.385   5.850
 7346POPC   GL152237   3.589  35.335   6.150
 7346POPC   GL252238   3.641  35.481   6.150
 7346POPC   C1A52239   3.524  35.353   6.450
 7346POPC   D2A52240   3.506  35.320   6.750
 7346POPC   C3A52241   3.568  35.327   7.050
 7346POPC   C4A52242   3.557  35.308   7.350
 7346POPC   C1B52243   3.717  35.486   6.450
 7346POPC   C2B52244   3.726  35.539   6.750
 7346POPC   C3B52245   3.726  35.549   7.050
 7346POPC   C4B52246   3.717  35.527   7.350
 7347POPC   NC352247  40.738  39.244   5.550
 7347POPC   PO452248  40.744  39.184   5.850
 7347POPC   GL152249  40.778  39.184   6.150
 7347POPC   GL252250  40.683  39.149   6.150
 7347POPC   C1A52251  40.748  39.184   6.450
 7347POPC   D2A52252  40.773  39.281   6.750
 7347POPC   C3A52253  40.780  39.248   7.050
 7347POPC   C4A52254  40.786  39.240   7.350
 7347POPC   C1B52255  40.524  39.148   6.450
 7347POPC   C2B52256  40.592  39.107   6.750
 7347POPC   C3B52257  40.573  39.166   7.050
 7347POPC   C4B52258  40.562  39.119   7.350
 7348POPC   NC352259  24.497  17.514   5.550
 7348POPC   PO452260  24.457  17.488   5.850
 7348POPC   GL152261  24.534  17.519   6.150
 7348POPC   GL252262  24.405  17.348   6.150
 7348POPC   C1A52263  24.451  17.533   6.450
 7348POPC   D2A52264  24.496  17.511   6.750
 7348POPC   C3A52265  24.516  17.545   7.050
 7348POPC   C4A52266  24.447  17.468   7.350
 7348POPC   C1B52267  24.364  17.263   6.450
 7348POPC   C2B52268  24.425  17.296   6.750
 7348POPC   C3B52269  24.329  17.298   7.050
 7348POPC   C4B52270  24.406  17.272   7.350
 7349POPC   NC352271   4.335  26.768   5.550
 7349POPC   PO452272   4.356  26.809   5.850
 7349POPC   GL152273   4.308  26.786   6.150
 7349POPC   GL252274   4.249  26.722   6.150
 7349POPC   C1A52275   4.285  26.813   6.450
 7349POPC   D2A52276   4.271  26.793   6.750
 7349POPC   C3A52277   4.315  26.823   7.050
 7349POPC   C4A52278   4.295  26.825   7.350
 7349POPC   C1B52279   4.214  26.612   6.450
 7349POPC   C2B52280   4.260  26.566   6.750
 7349POPC   C3B52281   4.288  26.598   7.050
 7349POPC   C4B52282   4.236  26.568   7.350
 7350POPC   NC352283  20.590  10.573   5.550
 7350POPC   PO452284  20.638  10.539   5.850
 7350POPC   GL152285  20.620  10.569   6.150
 7350POPC   GL252286  20.697  10.516   6.150
 7350POPC   C1A52287  20.612  10.549   6.450
 7350POPC   D2A52288  20.584  10.507   6.750
 7350POPC   C3A52289  20.610  10.501   7.050
 7350POPC   C4A52290  20.647  10.568   7.350
 7350POPC   C1B52291  20.829  10.547   6.450
 7350POPC   C2B52292  20.832  10.587   6.750
 7350POPC   C3B52293  20.851  10.536   7.050
 7350POPC   C4B52294  20.838  10.530   7.350
 7351POPC   NC352295  40.040  32.226   5.550
 7351POPC   PO452296  40.051  32.199   5.850
 7351POPC   GL152297  40.034  32.275   6.150
 7351POPC   GL252298  39.844  32.200   6.150
 7351POPC   C1A52299  40.034  32.221   6.450
 7351POPC   D2A52300  40.048  32.228   6.750
 7351POPC   C3A52301  39.994  32.250   7.050
 7351POPC   C4A52302  40.014  32.277   7.350
 7351POPC   C1B52303  39.724  32.161   6.450
 7351POPC   C2B52304  39.790  32.227   6.750
 7351POPC   C3B52305  39.784  32.183   7.050
 7351POPC   C4B52306  39.720  32.185   7.350
 7352POPC   NC352307   9.709  23.714   5.550
 7352POPC   PO452308   9.761  23.762   5.850
 7352POPC   GL152309   9.712  23.670   6.150
 7352POPC   GL252310   9.799  23.830   6.150
 7352POPC   C1A52311   9.748  23.716   6.450
 7352POPC   D2A52312   9.731  23.721   6.750
 7352POPC   C3A52313   9.761  23.697   7.050
 7352POPC   C4A52314   9.728  23.721   7.350
 7352POPC   C1B52315   9.891  23.932   6.450
 7352POPC   C2B52316   9.977  23.840   6.750
 7352POPC   C3B52317   9.901  23.921   7.050
 7352POPC   C4B52318   9.943  23.865   7.350
 7353POPC   NC352319  43.160   1.940   5.550
 7353POPC   PO452320  43.077   1.968   5.850
 7353POPC   GL152321  43.061   1.983   6.150
 7353POPC   GL252322  43.236   2.024   6.150
 7353POPC   C1A52323  43.135   2.037   6.450
 7353POPC   D2A52324  43.111   1.956   6.750
 7353POPC   C3A52325  43.071   1.969   7.050
 7353POPC   C4A52326  43.068   1.967   7.350
 7353POPC   C1B52327  43.387   2.088   6.450
 7353POPC   C2B52328  43.345   2.061   6.750
 7353POPC   C3B52329  43.371   2.085   7.050
 7353POPC   C4B52330  43.334   2.053   7.350
 7354POPC   NC352331  29.112  43.150   5.550
 7354POPC   PO452332  29.135  43.137   5.850
 7354POPC   GL152333  29.112  43.110   6.150
 7354POPC   GL252334  29.015  43.133   6.150
 7354POPC   C1A52335  29.186  43.134   6.450
 7354POPC   D2A52336  29.186  43.070   6.750
 7354POPC   C3A52337  29.182  43.133   7.050
 7354POPC   C4A52338  29.158  43.099   7.350
 7354POPC   C1B52339  28.860  43.099   6.450
 7354POPC   C2B52340  28.918  43.063   6.750
 7354POPC   C3B52341  28.900  43.081   7.050
 7354POPC   C4B52342  28.942  43.097   7.350
 7355POPC   NC352343  15.209  21.433   5.550
 7355POPC   PO452344  15.187  21.424   5.850
 7355POPC   GL152345  15.163  21.433   6.150
 7355POPC   GL252346  15.204  21.312   6.150
 7355POPC   C1A52347  15.188  21.345   6.450
 7355POPC   D2A52348  15.212  21.356   6.750
 7355POPC   C3A52349  15.166  21.379   7.050
 7355POPC   C4A52350  15.210  21.345   7.350
 7355POPC   C1B52351  15.212  21.158   6.450
 7355POPC   C2B52352  15.246  21.146   6.750
 7355POPC   C3B52353  15.246  21.151   7.050
 7355POPC   C4B52354  15.228  21.180   7.350
 7356POPC   NC352355   2.792   5.855   5.550
 7356POPC   PO452356   2.808   5.819   5.850
 7356POPC   GL152357   2.775   5.853   6.150
 7356POPC   GL252358   2.759   5.738   6.150
 7356POPC   C1A52359   2.734   5.857   6.450
 7356POPC   D2A52360   2.728   5.891   6.750
 7356POPC   C3A52361   2.810   5.843   7.050
 7356POPC   C4A52362   2.776   5.864   7.350
 7356POPC   C1B52363   2.696   5.600   6.450
 7356POPC   C2B52364   2.654   5.638   6.750
 7356POPC   C3B52365   2.636   5.637   7.050
 7356POPC   C4B52366   2.730   5.632   7.350
 7357POPC   NC352367  40.818   0.453   5.550
 7357POPC   PO452368  40.827   0.447   5.850
 7357POPC   GL152369  40.765   0.424   6.150
 7357POPC   GL252370  40.772   0.356   6.150
 7357POPC   C1A52371  40.832   0.400   6.450
 7357POPC   D2A52372  40.767   0.439   6.750
 7357POPC   C3A52373  40.752   0.445   7.050
 7357POPC   C4A52374  40.758   0.450   7.350
 7357POPC   C1B52375  40.764   0.225   6.450
 7357POPC   C2B52376  40.717   0.208   6.750
 7357POPC   C3B52377  40.776   0.188   7.050
 7357POPC   C4B52378  40.729   0.140   7.350
 7358POPC   NC352379   2.786  37.633   5.550
 7358POPC   PO452380   2.774  37.664   5.850
 7358POPC   GL152381   2.763  37.645   6.150
 7358POPC   GL252382   2.728  37.613   6.150
 7358POPC   C1A52383   2.736  37.665   6.450
 7358POPC   D2A52384   2.754  37.692   6.750
 7358POPC   C3A52385   2.793  37.656   7.050
 7358POPC   C4A52386   2.720  37.715   7.350
 7358POPC   C1B52387   2.608  37.477   6.450
 7358POPC   C2B52388   2.569  37.473   6.750
 7358POPC   C3B52389   2.583  37.517   7.050
 7358POPC   C4B52390   2.568  37.463   7.350
 7359POPC   NC352391  36.866  41.524   5.550
 7359POPC   PO452392  36.923  41.535   5.850
 7359POPC   GL152393  36.863  41.522   6.150
 7359POPC   GL252394  36.883  41.488   6.150
 7359POPC   C1A52395  36.941  41.582   6.450
 7359POPC   D2A52396  36.915  41.591   6.750
 7359POPC   C3A52397  36.931  41.561   7.050
 7359POPC   C4A52398  36.914  41.548   7.350
 7359POPC   C1B52399  36.757  41.383   6.450
 7359POPC   C2B52400  36.766  41.345   6.750
 7359POPC   C3B52401  36.801  41.307   7.050
 7359POPC   C4B52402  36.766  41.357   7.350
 7360POPC   NC352403  27.580  25.991   5.550
 7360POPC   PO452404  27.642  26.090   5.850
 7360POPC   GL152405  27.576  26.047   6.150
 7360POPC   GL252406  27.558  25.922   6.150
 7360POPC   C1A52407  27.613  26.064   6.450
 7360POPC   D2A52408  27.579  26.066   6.750
 7360POPC   C3A52409  27.595  26.066   7.050
 7360POPC   C4A52410  27.558  26.044   7.350
 7360POPC   C1B52411  27.454  25.857   6.450
 7360POPC   C2B52412  27.470  25.822   6.750
 7360POPC   C3B52413  27.444  25.829   7.050
 7360POPC   C4B52414  27.501  25.789   7.350
 7361POPC   NC352415   8.983  12.043   5.550
 7361POPC   PO452416   8.988  12.096   5.850
 7361POPC   GL152417   8.993  12.027   6.150
 7361POPC   GL252418   8.900  12.098   6.150
 7361POPC   C1A52419   8.924  12.121   6.450
 7361POPC   D2A52420   8.942  12.121   6.750
 7361POPC   C3A52421   9.019  12.105   7.050
 7361POPC   C4A52422   9.011  12.029   7.350
 7361POPC   C1B52423   8.712  12.191   6.450
 7361POPC   C2B52424   8.752  12.194   6.750
 7361POPC   C3B52425   8.709  12.129   7.050
 7361POPC   C4B52426   8.765  12.191   7.350
 7362POPC   NC352427  12.071  21.377   5.550
 7362POPC   PO452428  12.085  21.409   5.850
 7362POPC   GL152429  12.066  21.405   6.150
 7362POPC   GL252430  12.154  21.264   6.150
 7362POPC   C1A52431  12.124  21.387   6.450
 7362POPC   D2A52432  12.077  21.394   6.750
 7362POPC   C3A52433  12.032  21.391   7.050
 7362POPC   C4A52434  12.074  21.346   7.350
 7362POPC   C1B52435  12.168  21.120   6.450
 7362POPC   C2B52436  12.173  21.170   6.750
 7362POPC   C3B52437  12.153  21.122   7.050
 7362POPC   C4B52438  12.092  21.142   7.350
 7363POPC   NC352439  15.172  12.886   5.550
 7363POPC   PO452440  15.147  12.870   5.850
 7363POPC   GL152441  15.219  12.875   6.150
 7363POPC   GL252442  15.349  12.905   6.150
 7363POPC   C1A52443  15.138  12.866   6.450
 7363POPC   D2A52444  15.176  12.900   6.750
 7363POPC   C3A52445  15.158  12.834   7.050
 7363POPC   C4A52446  15.215  12.899   7.350
 7363POPC   C1B52447  15.469  12.863   6.450
 7363POPC   C2B52448  15.422  12.935   6.750
 7363POPC   C3B52449  15.376  12.890   7.050
 7363POPC   C4B52450  15.460  12.944   7.350
 7364POPC   NC352451  43.927  43.839   5.550
 7364POPC   PO452452  43.878  43.874   5.850
 7364POPC   GL152453  43.930  43.932   6.150
 7364POPC   GL252454  43.808  43.869   6.150
 7364POPC   C1A52455  43.935  43.839   6.450
 7364POPC   D2A52456  43.844  43.868   6.750
 7364POPC   C3A52457  43.864  43.858   7.050
 7364POPC   C4A52458  43.912  43.842   7.350
 7364POPC   C1B52459  43.705  43.756   6.450
 7364POPC   C2B52460  43.692  43.745   6.750
 7364POPC   C3B52461  43.621  43.731   7.050
 7364POPC   C4B52462  43.699  43.770   7.350
 7365POPC   NC352463  42.362  25.237   5.550
 7365POPC   PO452464  42.300  25.282   5.850
 7365POPC   GL152465  42.379  25.283   6.150
 7365POPC   GL252466  42.431  25.241   6.150
 7365POPC   C1A52467  42.354  25.225   6.450
 7365POPC   D2A52468  42.309  25.257   6.750
 7365POPC   C3A52469  42.362  25.257   7.050
 7365POPC   C4A52470  42.368  25.237   7.350
 7365POPC   C1B52471  42.586  25.341   6.450
 7365POPC   C2B52472  42.581  25.269   6.750
 7365POPC   C3B52473  42.590  25.274   7.050
 7365POPC   C4B52474  42.596  25.265   7.350
 7366POPC   NC352475  41.510  12.811   5.550
 7366POPC   PO452476  41.518  12.819   5.850
 7366POPC   GL152477  41.573  12.890   6.150
 7366POPC   GL252478  41.522  12.964   6.150
 7366POPC   C1A52479  41.569  12.888   6.450
 7366POPC   D2A52480  41.594  12.891   6.750
 7366POPC   C3A52481  41.607  12.806   7.050
 7366POPC   C4A52482  41.561  12.839   7.350
 7366POPC   C1B52483  41.536  13.123   6.450
 7366POPC   C2B52484  41.530  13.128   6.750
 7366POPC   C3B52485  41.515  13.088   7.050
 7366POPC   C4B52486  41.503  13.119   7.350
 7367POPC   NC352487  22.961  34.571   5.550
 7367POPC   PO452488  22.987  34.544   5.850
 7367POPC   GL152489  22.971  34.528   6.150
 7367POPC   GL252490  22.834  34.724   6.150
 7367POPC   C1A52491  22.899  34.576   6.450
 7367POPC   D2A52492  22.922  34.586   6.750
 7367POPC   C3A52493  22.900  34.538   7.050
 7367POPC   C4A52494  22.935  34.597   7.350
 7367POPC   C1B52495  22.837  34.790   6.450
 7367POPC   C2B52496  22.834  34.833   6.750
 7367POPC   C3B52497  22.823  34.813   7.050
 7367POPC   C4B52498  22.807  34.798   7.350
 7368POPC   NC352499  36.933  32.240   5.550
 7368POPC   PO452500  36.895  32.296   5.850
 7368POPC   GL152501  36.884  32.297   6.150
 7368POPC   GL252502  37.065  32.222   6.150
 7368POPC   C1A52503  36.910  32.250   6.450
 7368POPC   D2A52504  36.918  32.243   6.750
 7368POPC   C3A52505  36.881  32.206   7.050
 7368POPC   C4A52506  36.855  32.224   7.350
 7368POPC   C1B52507  37.191  32.217   6.450
 7368POPC   C2B52508  37.196  32.178   6.750
 7368POPC   C3B52509  37.112  32.193   7.050
 7368POPC   C4B52510  37.174  32.221   7.350
 7369POPC   NC352511  24.493  28.412   5.550
 7369POPC   PO452512  24.461  28.322   5.850
 7369POPC   GL152513  24.474  28.345   6.150
 7369POPC   GL252514  24.388  28.306   6.150
 7369POPC   C1A52515  24.520  28.406   6.450
 7369POPC   D2A52516  24.530  28.393   6.750
 7369POPC   C3A52517  24.501  28.339   7.050
 7369POPC   C4A52518  24.474  28.406   7.350
 7369POPC   C1B52519  24.328  28.228   6.450
 7369POPC   C2B52520  24.319  28.204   6.750
 7369POPC   C3B52521  24.350  28.156   7.050
 7369POPC   C4B52522  24.276  28.231   7.350
 7370POPC   NC352523  23.673  26.000   5.550
 7370POPC   PO452524  23.740  26.025   5.850
 7370POPC   GL152525  23.709  26.064   6.150
 7370POPC   GL252526  23.772  26.123   6.150
 7370POPC   C1A52527  23.703  26.081   6.450
 7370POPC   D2A52528  23.692  26.052   6.750
 7370POPC   C3A52529  23.718  26.081   7.050
 7370POPC   C4A52530  23.762  26.080   7.350
 7370POPC   C1B52531  23.974  26.150   6.450
 7370POPC   C2B52532  23.942  26.207   6.750
 7370POPC   C3B52533  23.906  26.201   7.050
 7370POPC   C4B52534  23.938  26.157   7.350
 7371POPC   NC352535  20.629  22.155   5.550
 7371POPC   PO452536  20.605  22.153   5.850
 7371POPC   GL152537  20.606  22.142   6.150
 7371POPC   GL252538  20.594  22.285   6.150
 7371POPC   C1A52539  20.647  22.146   6.450
 7371POPC   D2A52540  20.565  22.184   6.750
 7371POPC   C3A52541  20.656  22.127   7.050
 7371POPC   C4A52542  20.626  22.121   7.350
 7371POPC   C1B52543  20.483  22.357   6.450
 7371POPC   C2B52544  20.461  22.352   6.750
 7371POPC   C3B52545  20.507  22.352   7.050
 7371POPC   C4B52546  20.477  22.391   7.350
 7372POPC   NC352547  28.395   6.694   5.550
 7372POPC   PO452548  28.320   6.656   5.850
 7372POPC   GL152549  28.384   6.598   6.150
 7372POPC   GL252550  28.242   6.554   6.150
 7372POPC   C1A52551  28.335   6.631   6.450
 7372POPC   D2A52552  28.411   6.622   6.750
 7372POPC   C3A52553  28.396   6.602   7.050
 7372POPC   C4A52554  28.418   6.609   7.350
 7372POPC   C1B52555  28.170   6.467   6.450
 7372POPC   C2B52556  28.194   6.535   6.750
 7372POPC   C3B52557  28.197   6.490   7.050
 7372POPC   C4B52558  28.173   6.502   7.350
 7373POPC   NC352559   6.685  29.955   5.550
 7373POPC   PO452560   6.654  29.962   5.850
 7373POPC   GL152561   6.612  29.877   6.150
 7373POPC   GL252562   6.635  30.025   6.150
 7373POPC   C1A52563   6.632  29.953   6.450
 7373POPC   D2A52564   6.621  29.903   6.750
 7373POPC   C3A52565   6.654  29.901   7.050
 7373POPC   C4A52566   6.676  29.947   7.350
 7373POPC   C1B52567   6.724  30.208   6.450
 7373POPC   C2B52568   6.765  30.163   6.750
 7373POPC   C3B52569   6.716  30.128   7.050
 7373POPC   C4B52570   6.687  30.110   7.350
 7374POPC   NC352571   4.289   9.759   5.550
 7374POPC   PO452572   4.357   9.729   5.850
 7374POPC   GL152573   4.292   9.727   6.150
 7374POPC   GL252574   4.190   9.760   6.150
 7374POPC   C1A52575   4.335   9.789   6.450
 7374POPC   D2A52576   4.281   9.722   6.750
 7374POPC   C3A52577   4.356   9.721   7.050
 7374POPC   C4A52578   4.290   9.699   7.350
 7374POPC   C1B52579   4.023   9.712   6.450
 7374POPC   C2B52580   4.027   9.758   6.750
 7374POPC   C3B52581   4.022   9.736   7.050
 7374POPC   C4B52582   4.080   9.779   7.350
 7375POPC   NC352583  12.863  33.048   5.550
 7375POPC   PO452584  12.865  32.987   5.850
 7375POPC   GL152585  12.807  33.001   6.150
 7375POPC   GL252586  12.940  33.132   6.150
 7375POPC   C1A52587  12.898  33.032   6.450
 7375POPC   D2A52588  12.845  32.976   6.750
 7375POPC   C3A52589  12.851  33.055   7.050
 7375POPC   C4A52590  12.847  33.031   7.350
 7375POPC   C1B52591  13.082  33.128   6.450
 7375POPC   C2B52592  13.073  33.160   6.750
 7375POPC   C3B52593  13.078  33.181   7.050
 7375POPC   C4B52594  13.084  33.185   7.350
 7376POPC   NC352595  29.162  11.282   5.550
 7376POPC   PO452596  29.156  11.257   5.850
 7376POPC   GL152597  29.158  11.333   6.150
 7376POPC   GL252598  29.206  11.442   6.150
 7376POPC   C1A52599  29.099  11.283   6.450
 7376POPC   D2A52600  29.133  11.349   6.750
 7376POPC   C3A52601  29.137  11.282   7.050
 7376POPC   C4A52602  29.144  11.265   7.350
 7376POPC   C1B52603  29.240  11.493   6.450
 7376POPC   C2B52604  29.209  11.558   6.750
 7376POPC   C3B52605  29.213  11.534   7.050
 7376POPC   C4B52606  29.216  11.497   7.350
 7377POPC   NC352607   1.173  42.301   5.550
 7377POPC   PO452608   1.191  42.363   5.850
 7377POPC   GL152609   1.178  42.286   6.150
 7377POPC   GL252610   1.150  42.428   6.150
 7377POPC   C1A52611   1.263  42.366   6.450
 7377POPC   D2A52612   1.245  42.321   6.750
 7377POPC   C3A52613   1.217  42.287   7.050
 7377POPC   C4A52614   1.257  42.312   7.350
 7377POPC   C1B52615   1.134  42.522   6.450
 7377POPC   C2B52616   1.096  42.523   6.750
 7377POPC   C3B52617   1.052  42.590   7.050
 7377POPC   C4B52618   1.115  42.545   7.350
 7378POPC   NC352619  39.979  37.659   5.550
 7378POPC   PO452620  40.055  37.703   5.850
 7378POPC   GL152621  40.057  37.636   6.150
 7378POPC   GL252622  40.007  37.528   6.150
 7378POPC   C1A52623  39.974  37.654   6.450
 7378POPC   D2A52624  40.010  37.693   6.750
 7378POPC   C3A52625  39.986  37.704   7.050
 7378POPC   C4A52626  39.958  37.712   7.350
 7378POPC   C1B52627  40.071  37.445   6.450
 7378POPC   C2B52628  39.991  37.470   6.750
 7378POPC   C3B52629  40.015  37.433   7.050
 7378POPC   C4B52630  40.015  37.424   7.350
 7379POPC   NC352631  29.909  38.474   5.550
 7379POPC   PO452632  29.921  38.422   5.850
 7379POPC   GL152633  29.954  38.405   6.150
 7379POPC   GL252634  29.803  38.336   6.150
 7379POPC   C1A52635  29.878  38.417   6.450
 7379POPC   D2A52636  29.944  38.492   6.750
 7379POPC   C3A52637  29.903  38.412   7.050
 7379POPC   C4A52638  29.900  38.459   7.350
 7379POPC   C1B52639  29.787  38.306   6.450
 7379POPC   C2B52640  29.728  38.266   6.750
 7379POPC   C3B52641  29.718  38.253   7.050
 7379POPC   C4B52642  29.798  38.224   7.350
 7380POPC   NC352643  22.930  12.851   5.550
 7380POPC   PO452644  22.920  12.861   5.850
 7380POPC   GL152645  22.949  12.890   6.150
 7380POPC   GL252646  23.011  12.962   6.150
 7380POPC   C1A52647  22.978  12.809   6.450
 7380POPC   D2A52648  22.945  12.847   6.750
 7380POPC   C3A52649  22.917  12.825   7.050
 7380POPC   C4A52650  22.957  12.815   7.350
 7380POPC   C1B52651  23.144  13.011   6.450
 7380POPC   C2B52652  23.094  13.070   6.750
 7380POPC   C3B52653  23.127  13.015   7.050
 7380POPC   C4B52654  23.155  13.005   7.350
 7381POPC   NC352655  10.550  43.851   5.550
 7381POPC   PO452656  10.541  43.862   5.850
 7381POPC   GL152657  10.534  43.893   6.150
 7381POPC   GL252658  10.420  43.773   6.150
 7381POPC   C1A52659  10.526  43.896   6.450
 7381POPC   D2A52660  10.491  43.849   6.750
 7381POPC   C3A52661  10.518  43.839   7.050
 7381POPC   C4A52662  10.534  43.892   7.350
 7381POPC   C1B52663  10.380  43.728   6.450
 7381POPC   C2B52664  10.295  43.749   6.750
 7381POPC   C3B52665  10.382  43.758   7.050
 7381POPC   C4B52666  10.303  43.724   7.350
 7382POPC   NC352667  29.181   9.738   5.550
 7382POPC   PO452668  29.120   9.714   5.850
 7382POPC   GL152669  29.136   9.730   6.150
 7382POPC   GL252670  28.986   9.829   6.150
 7382POPC   C1A52671  29.119   9.788   6.450
 7382POPC   D2A52672  29.177   9.732   6.750
 7382POPC   C3A52673  29.120   9.713   7.050
 7382POPC   C4A52674  29.123   9.767   7.350
 7382POPC   C1B52675  28.875   9.838   6.450
 7382POPC   C2B52676  28.921   9.853   6.750
 7382POPC   C3B52677  28.894   9.890   7.050
 7382POPC   C4B52678  28.904   9.906   7.350
 7383POPC   NC352679  23.708   5.886   5.550
 7383POPC   PO452680  23.732   5.870   5.850
 7383POPC   GL152681  23.735   5.917   6.150
 7383POPC   GL252682  23.633   5.976   6.150
 7383POPC   C1A52683  23.730   5.904   6.450
 7383POPC   D2A52684  23.704   5.852   6.750
 7383POPC   C3A52685  23.687   5.834   7.050
 7383POPC   C4A52686  23.694   5.828   7.350
 7383POPC   C1B52687  23.551   5.996   6.450
 7383POPC   C2B52688  23.455   6.039   6.750
 7383POPC   C3B52689  23.466   6.043   7.050
 7383POPC   C4B52690  23.484   6.023   7.350
 7384POPC   NC352691  43.149   5.092   5.550
 7384POPC   PO452692  43.106   5.046   5.850
 7384POPC   GL152693  43.158   5.120   6.150
 7384POPC   GL252694  42.998   5.195   6.150
 7384POPC   C1A52695  43.084   5.046   6.450
 7384POPC   D2A52696  43.112   5.121   6.750
 7384POPC   C3A52697  43.121   5.045   7.050
 7384POPC   C4A52698  43.102   5.062   7.350
 7384POPC   C1B52699  42.930   5.257   6.450
 7384POPC   C2B52700  42.999   5.275   6.750
 7384POPC   C3B52701  42.911   5.267   7.050
 7384POPC   C4B52702  42.911   5.318   7.350
 7385POPC   NC352703   7.406  36.134   5.550
 7385POPC   PO452704   7.410  36.115   5.850
 7385POPC   GL152705   7.421  36.143   6.150
 7385POPC   GL252706   7.343  36.222   6.150
 7385POPC   C1A52707   7.404  36.177   6.450
 7385POPC   D2A52708   7.451  36.115   6.750
 7385POPC   C3A52709   7.435  36.123   7.050
 7385POPC   C4A52710   7.453  36.114   7.350
 7385POPC   C1B52711   7.291  36.299   6.450
 7385POPC   C2B52712   7.253  36.313   6.750
 7385POPC   C3B52713   7.218  36.273   7.050
 7385POPC   C4B52714   7.308  36.368   7.350
 7386POPC   NC352715  31.464  13.673   5.550
 7386POPC   PO452716  31.429  13.665   5.850
 7386POPC   GL152717  31.476  13.595   6.150
 7386POPC   GL252718  31.301  13.658   6.150
 7386POPC   C1A52719  31.438  13.632   6.450
 7386POPC   D2A52720  31.433  13.633   6.750
 7386POPC   C3A52721  31.459  13.605   7.050
 7386POPC   C4A52722  31.516  13.614   7.350
 7386POPC   C1B52723  31.205  13.588   6.450
 7386POPC   C2B52724  31.268  13.632   6.750
 7386POPC   C3B52725  31.238  13.640   7.050
 7386POPC   C4B52726  31.202  13.562   7.350
 7387POPC   NC352727  22.971  15.911   5.550
 7387POPC   PO452728  22.954  15.968   5.850
 7387POPC   GL152729  22.967  15.952   6.150
 7387POPC   GL252730  22.870  15.800   6.150
 7387POPC   C1A52731  22.926  15.963   6.450
 7387POPC   D2A52732  22.890  15.934   6.750
 7387POPC   C3A52733  22.958  15.980   7.050
 7387POPC   C4A52734  22.953  15.972   7.350
 7387POPC   C1B52735  22.863  15.672   6.450
 7387POPC   C2B52736  22.835  15.665   6.750
 7387POPC   C3B52737  22.906  15.718   7.050
 7387POPC   C4B52738  22.841  15.747   7.350
 7388POPC   NC352739  42.295  28.418   5.550
 7388POPC   PO452740  42.336  28.363   5.850
 7388POPC   GL152741  42.326  28.324   6.150
 7388POPC   GL252742  42.226  28.348   6.150
 7388POPC   C1A52743  42.339  28.388   6.450
 7388POPC   D2A52744  42.361  28.394   6.750
 7388POPC   C3A52745  42.335  28.390   7.050
 7388POPC   C4A52746  42.321  28.406   7.350
 7388POPC   C1B52747  42.093  28.328   6.450
 7388POPC   C2B52748  42.068  28.316   6.750
 7388POPC   C3B52749  42.142  28.333   7.050
 7388POPC   C4B52750  42.062  28.342   7.350
 7389POPC   NC352751  36.854  36.145   5.550
 7389POPC   PO452752  36.892  36.088   5.850
 7389POPC   GL152753  36.866  36.113   6.150
 7389POPC   GL252754  36.872  36.225   6.150
 7389POPC   C1A52755  36.885  36.078   6.450
 7389POPC   D2A52756  36.936  36.138   6.750
 7389POPC   C3A52757  36.950  36.169   7.050
 7389POPC   C4A52758  36.910  36.172   7.350
 7389POPC   C1B52759  36.840  36.381   6.450
 7389POPC   C2B52760  36.783  36.326   6.750
 7389POPC   C3B52761  36.819  36.344   7.050
 7389POPC   C4B52762  36.799  36.373   7.350
 7390POPC   NC352763   1.947   3.577   5.550
 7390POPC   PO452764   1.968   3.531   5.850
 7390POPC   GL152765   1.948   3.494   6.150
 7390POPC   GL252766   1.986   3.445   6.150
 7390POPC   C1A52767   2.039   3.539   6.450
 7390POPC   D2A52768   1.941   3.545   6.750
 7390POPC   C3A52769   1.973   3.539   7.050
 7390POPC   C4A52770   2.013   3.522   7.350
 7390POPC   C1B52771   1.886   3.331   6.450
 7390POPC   C2B52772   1.940   3.320   6.750
 7390POPC   C3B52773   1.913   3.334   7.050
 7390POPC   C4B52774   1.918   3.304   7.350
 7391POPC   NC352775  35.372  19.854   5.550
 7391POPC   PO452776  35.396  19.802   5.850
 7391POPC   GL152777  35.343  19.845   6.150
 7391POPC   GL252778  35.422  19.685   6.150
 7391POPC   C1A52779  35.321  19.865   6.450
 7391POPC   D2A52780  35.374  19.884   6.750
 7391POPC   C3A52781  35.398  19.878   7.050
 7391POPC   C4A52782  35.384  19.869   7.350
 7391POPC   C1B52783  35.418  19.559   6.450
 7391POPC   C2B52784  35.392  19.645   6.750
 7391POPC   C3B52785  35.426  19.632   7.050
 7391POPC   C4B52786  35.421  19.589   7.350
 7392POPC   NC352787  41.593  22.119   5.550
 7392POPC   PO452788  41.532  22.173   5.850
 7392POPC   GL152789  41.596  22.206   6.150
 7392POPC   GL252790  41.530  22.331   6.150
 7392POPC   C1A52791  41.550  22.165   6.450
 7392POPC   D2A52792  41.534  22.114   6.750
 7392POPC   C3A52793  41.515  22.146   7.050
 7392POPC   C4A52794  41.574  22.127   7.350
 7392POPC   C1B52795  41.518  22.416   6.450
 7392POPC   C2B52796  41.494  22.441   6.750
 7392POPC   C3B52797  41.533  22.450   7.050
 7392POPC   C4B52798  41.495  22.441   7.350
 7393POPC   NC352799  18.279  32.205   5.550
 7393POPC   PO452800  18.328  32.283   5.850
 7393POPC   GL152801  18.268  32.249   6.150
 7393POPC   GL252802  18.153  32.209   6.150
 7393POPC   C1A52803  18.234  32.199   6.450
 7393POPC   D2A52804  18.327  32.247   6.750
 7393POPC   C3A52805  18.286  32.296   7.050
 7393POPC   C4A52806  18.257  32.225   7.350
 7393POPC   C1B52807  18.070  32.286   6.450
 7393POPC   C2B52808  17.985  32.271   6.750
 7393POPC   C3B52809  18.061  32.292   7.050
 7393POPC   C4B52810  18.035  32.288   7.350
 7394POPC   NC352811  21.411  39.223   5.550
 7394POPC   PO452812  21.381  39.200   5.850
 7394POPC   GL152813  21.384  39.250   6.150
 7394POPC   GL252814  21.352  39.395   6.150
 7394POPC   C1A52815  21.428  39.202   6.450
 7394POPC   D2A52816  21.339  39.258   6.750
 7394POPC   C3A52817  21.414  39.231   7.050
 7394POPC   C4A52818  21.411  39.228   7.350
 7394POPC   C1B52819  21.355  39.467   6.450
 7394POPC   C2B52820  21.357  39.440   6.750
 7394POPC   C3B52821  21.362  39.519   7.050
 7394POPC   C4B52822  21.368  39.523   7.350
 7395POPC   NC352823  36.899   1.188   5.550
 7395POPC   PO452824  36.869   1.260   5.850
 7395POPC   GL152825  36.923   1.190   6.150
 7395POPC   GL252826  36.914   1.370   6.150
 7395POPC   C1A52827  36.926   1.217   6.450
 7395POPC   D2A52828  36.934   1.200   6.750
 7395POPC   C3A52829  36.898   1.221   7.050
 7395POPC   C4A52830  36.892   1.173   7.350
 7395POPC   C1B52831  36.824   1.461   6.450
 7395POPC   C2B52832  36.804   1.448   6.750
 7395POPC   C3B52833  36.802   1.423   7.050
 7395POPC   C4B52834  36.828   1.441   7.350
 7396POPC   NC352835  32.220  42.331   5.550
 7396POPC   PO452836  32.223  42.350   5.850
 7396POPC   GL152837  32.295  42.361   6.150
 7396POPC   GL252838  32.327  42.466   6.150
 7396POPC   C1A52839  32.219  42.331   6.450
 7396POPC   D2A52840  32.279  42.380   6.750
 7396POPC   C3A52841  32.224  42.298   7.050
 7396POPC   C4A52842  32.243  42.330   7.350
 7396POPC   C1B52843  32.279  42.618   6.450
 7396POPC   C2B52844  32.262  42.623   6.750
 7396POPC   C3B52845  32.295  42.585   7.050
 7396POPC   C4B52846  32.263  42.568   7.350
 7397POPC   NC352847  43.855  29.156   5.550
 7397POPC   PO452848  43.899  29.114   5.850
 7397POPC   GL152849  43.915  29.190   6.150
 7397POPC   GL252850  43.739  29.232   6.150
 7397POPC   C1A52851  43.904  29.127   6.450
 7397POPC   D2A52852  43.860  29.161   6.750
 7397POPC   C3A52853  43.891  29.151   7.050
 7397POPC   C4A52854  43.872  29.124   7.350
 7397POPC   C1B52855  43.612  29.247   6.450
 7397POPC   C2B52856  43.664  29.196   6.750
 7397POPC   C3B52857  43.675  29.246   7.050
 7397POPC   C4B52858  43.701  29.218   7.350
 7398POPC   NC352859  29.129  42.286   5.550
 7398POPC   PO452860  29.181  42.363   5.850
 7398POPC   GL152861  29.168  42.330   6.150
 7398POPC   GL252862  29.159  42.227   6.150
 7398POPC   C1A52863  29.107  42.354   6.450
 7398POPC   D2A52864  29.156  42.293   6.750
 7398POPC   C3A52865  29.126  42.351   7.050
 7398POPC   C4A52866  29.126  42.308   7.350
 7398POPC   C1B52867  29.218  42.126   6.450
 7398POPC   C2B52868  29.149  42.137   6.750
 7398POPC   C3B52869  29.174  42.074   7.050
 7398POPC   C4B52870  29.200  42.076   7.350
 7399POPC   NC352871  23.751  40.817   5.550
 7399POPC   PO452872  23.720  40.833   5.850
 7399POPC   GL152873  23.698  40.784   6.150
 7399POPC   GL252874  23.560  40.821   6.150
 7399POPC   C1A52875  23.745  40.783   6.450
 7399POPC   D2A52876  23.748  40.745   6.750
 7399POPC   C3A52877  23.688  40.824   7.050
 7399POPC   C4A52878  23.747  40.807   7.350
 7399POPC   C1B52879  23.551  40.881   6.450
 7399POPC   C2B52880  23.461  40.895   6.750
 7399POPC   C3B52881  23.508  40.872   7.050
 7399POPC   C4B52882  23.484  40.902   7.350
 7400POPC   NC352883  14.444  11.269   5.550
 7400POPC   PO452884  14.382  11.255   5.850
 7400POPC   GL152885  14.436  11.343   6.150
 7400POPC   GL252886  14.323  11.281   6.150
 7400POPC   C1A52887  14.392  11.308   6.450
 7400POPC   D2A52888  14.452  11.335   6.750
 7400POPC   C3A52889  14.408  11.260   7.050
 7400POPC   C4A52890  14.436  11.288   7.350
 7400POPC   C1B52891  14.208  11.264   6.450
 7400POPC   C2B52892  14.172  11.190   6.750
 7400POPC   C3B52893  14.202  11.220   7.050
 7400POPC   C4B52894  14.174  11.256   7.350
 7401POPC   NC352895  43.925  14.438   5.550
 7401POPC   PO452896  43.890  14.367   5.850
 7401POPC   GL152897  43.884  14.378   6.150
 7401POPC   GL252898  43.812  14.266   6.150
 7401POPC   C1A52899  43.881  14.438   6.450
 7401POPC   D2A52900  43.872  14.427   6.750
 7401POPC   C3A52901  43.921  14.360   7.050
 7401POPC   C4A52902  43.916  14.358   7.350
 7401POPC   C1B52903  43.834  14.176   6.450
 7401POPC   C2B52904  43.840  14.201   6.750
 7401POPC   C3B52905  43.766  14.168   7.050
 7401POPC   C4B52906  43.778  14.168   7.350
 7402POPC   NC352907  18.257  39.261   5.550
 7402POPC   PO452908  18.260  39.200   5.850
 7402POPC   GL152909  18.258  39.234   6.150
 7402POPC   GL252910  18.189  39.208   6.150
 7402POPC   C1A52911  18.248  39.275   6.450
 7402POPC   D2A52912  18.326  39.244   6.750
 7402POPC   C3A52913  18.329  39.210   7.050
 7402POPC   C4A52914  18.234  39.233   7.350
 7402POPC   C1B52915  18.050  39.278   6.450
 7402POPC   C2B52916  18.012  39.276   6.750
 7402POPC   C3B52917  18.059  39.244   7.050
 7402POPC   C4B52918  18.037  39.279   7.350
 7403POPC   NC352919   1.229  17.495   5.550
 7403POPC   PO452920   1.238  17.514   5.850
 7403POPC   GL152921   1.220  17.494   6.150
 7403POPC   GL252922   1.157  17.608   6.150
 7403POPC   C1A52923   1.229  17.534   6.450
 7403POPC   D2A52924   1.164  17.469   6.750
 7403POPC   C3A52925   1.250  17.502   7.050
 7403POPC   C4A52926   1.257  17.511   7.350
 7403POPC   C1B52927   1.203  17.770   6.450
 7403POPC   C2B52928   1.172  17.774   6.750
 7403POPC   C3B52929   1.186  17.751   7.050
 7403POPC   C4B52930   1.201  17.729   7.350
 7404POPC   NC352931  21.383  11.254   5.550
 7404POPC   PO452932  21.421  11.349   5.850
 7404POPC   GL152933  21.366  11.269   6.150
 7404POPC   GL252934  21.317  11.207   6.150
 7404POPC   C1A52935  21.393  11.304   6.450
 7404POPC   D2A52936  21.426  11.257   6.750
 7404POPC   C3A52937  21.415  11.254   7.050
 7404POPC   C4A52938  21.400  11.282   7.350
 7404POPC   C1B52939  21.182  11.171   6.450
 7404POPC   C2B52940  21.166  11.234   6.750
 7404POPC   C3B52941  21.110  11.249   7.050
 7404POPC   C4B52942  21.165  11.246   7.350
 7405POPC   NC352943  15.967  19.798   5.550
 7405POPC   PO452944  15.965  19.821   5.850
 7405POPC   GL152945  15.915  19.866   6.150
 7405POPC   GL252946  16.017  19.753   6.150
 7405POPC   C1A52947  15.936  19.821   6.450
 7405POPC   D2A52948  15.947  19.827   6.750
 7405POPC   C3A52949  15.977  19.790   7.050
 7405POPC   C4A52950  15.959  19.800   7.350
 7405POPC   C1B52951  16.025  19.561   6.450
 7405POPC   C2B52952  16.034  19.576   6.750
 7405POPC   C3B52953  16.069  19.627   7.050
 7405POPC   C4B52954  16.005  19.607   7.350
 7406POPC   NC352955   7.464  10.478   5.550
 7406POPC   PO452956   7.392  10.574   5.850
 7406POPC   GL152957   7.420  10.505   6.150
 7406POPC   GL252958   7.402  10.597   6.150
 7406POPC   C1A52959   7.395  10.495   6.450
 7406POPC   D2A52960   7.433  10.558   6.750
 7406POPC   C3A52961   7.391  10.555   7.050
 7406POPC   C4A52962   7.388  10.555   7.350
 7406POPC   C1B52963   7.336  10.712   6.450
 7406POPC   C2B52964   7.243  10.755   6.750
 7406POPC   C3B52965   7.325  10.710   7.050
 7406POPC   C4B52966   7.323  10.784   7.350
 7407POPC   NC352967   5.916   5.118   5.550
 7407POPC   PO452968   5.834   5.103   5.850
 7407POPC   GL152969   5.826   5.048   6.150
 7407POPC   GL252970   5.763   5.114   6.150
 7407POPC   C1A52971   5.858   5.068   6.450
 7407POPC   D2A52972   5.873   5.047   6.750
 7407POPC   C3A52973   5.859   5.115   7.050
 7407POPC   C4A52974   5.842   5.126   7.350
 7407POPC   C1B52975   5.633   5.176   6.450
 7407POPC   C2B52976   5.649   5.126   6.750
 7407POPC   C3B52977   5.577   5.184   7.050
 7407POPC   C4B52978   5.623   5.122   7.350
 7408POPC   NC352979  35.399  36.880   5.550
 7408POPC   PO452980  35.341  36.864   5.850
 7408POPC   GL152981  35.320  36.896   6.150
 7408POPC   GL252982  35.405  36.988   6.150
 7408POPC   C1A52983  35.385  36.947   6.450
 7408POPC   D2A52984  35.365  36.895   6.750
 7408POPC   C3A52985  35.334  36.894   7.050
 7408POPC   C4A52986  35.383  36.951   7.350
 7408POPC   C1B52987  35.389  37.164   6.450
 7408POPC   C2B52988  35.437  37.186   6.750
 7408POPC   C3B52989  35.356  37.108   7.050
 7408POPC   C4B52990  35.430  37.147   7.350
 7409POPC   NC352991  17.533  33.015   5.550
 7409POPC   PO452992  17.482  33.073   5.850
 7409POPC   GL152993  17.476  33.070   6.150
 7409POPC   GL252994  17.420  32.968   6.150
 7409POPC   C1A52995  17.520  32.978   6.450
 7409POPC   D2A52996  17.523  33.066   6.750
 7409POPC   C3A52997  17.507  33.023   7.050
 7409POPC   C4A52998  17.553  33.057   7.350
 7409POPC   C1B52999  17.326  32.860   6.450
 7409POPC   C2B53000  17.255  32.865   6.750
 7409POPC   C3B53001  17.317  32.926   7.050
 7409POPC   C4B53002  17.349  32.832   7.350
 7410POPC   NC353003  37.639  43.125   5.550
 7410POPC   PO453004  37.706  43.101   5.850
 7410POPC   GL153005  37.712  43.151   6.150
 7410POPC   GL253006  37.730  43.180   6.150
 7410POPC   C1A53007  37.636  43.111   6.450
 7410POPC   D2A53008  37.642  43.150   6.750
 7410POPC   C3A53009  37.680  43.114   7.050
 7410POPC   C4A53010  37.707  43.074   7.350
 7410POPC   C1B53011  37.748  43.358   6.450
 7410POPC   C2B53012  37.827  43.336   6.750
 7410POPC   C3B53013  37.834  43.317   7.050
 7410POPC   C4B53014  37.760  43.287   7.350
 7411POPC   NC353015  15.151  22.182   5.550
 7411POPC   PO453016  15.152  22.151   5.850
 7411POPC   GL153017  15.213  22.185   6.150
 7411POPC   GL253018  15.120  22.255   6.150
 7411POPC   C1A53019  15.190  22.200   6.450
 7411POPC   D2A53020  15.161  22.121   6.750
 7411POPC   C3A53021  15.222  22.155   7.050
 7411POPC   C4A53022  15.176  22.174   7.350
 7411POPC   C1B53023  15.010  22.316   6.450
 7411POPC   C2B53024  15.014  22.249   6.750
 7411POPC   C3B53025  14.985  22.291   7.050
 7411POPC   C4B53026  15.010  22.299   7.350
 7412POPC   NC353027  22.199  44.703   5.550
 7412POPC   PO453028  22.211  44.667   5.850
 7412POPC   GL153029  22.181  44.632   6.150
 7412POPC   GL253030  22.085  44.514   6.150
 7412POPC   C1A53031  22.147  44.662   6.450
 7412POPC   D2A53032  22.128  44.659   6.750
 7412POPC   C3A53033  22.124  44.679   7.050
 7412POPC   C4A53034  22.138  44.685   7.350
 7412POPC   C1B53035  22.018  44.465   6.450
 7412POPC   C2B53036  22.078  44.414   6.750
 7412POPC   C3B53037  22.037  44.493   7.050
 7412POPC   C4B53038  22.047  44.419   7.350
 7413POPC   NC353039  10.492  36.953   5.550
 7413POPC   PO453040  10.560  36.904   5.850
 7413POPC   GL153041  10.515  36.880   6.150
 7413POPC   GL253042  10.595  36.805   6.150
 7413POPC   C1A53043  10.489  36.898   6.450
 7413POPC   D2A53044  10.561  36.887   6.750
 7413POPC   C3A53045  10.518  36.953   7.050
 7413POPC   C4A53046  10.515  36.866   7.350
 7413POPC   C1B53047  10.748  36.745   6.450
 7413POPC   C2B53048  10.737  36.766   6.750
 7413POPC   C3B53049  10.681  36.732   7.050
 7413POPC   C4B53050  10.737  36.757   7.350
 7414POPC   NC353051  18.303  29.929   5.550
 7414POPC   PO453052  18.307  29.923   5.850
 7414POPC   GL153053  18.317  29.929   6.150
 7414POPC   GL253054  18.235  30.072   6.150
 7414POPC   C1A53055  18.329  29.895   6.450
 7414POPC   D2A53056  18.270  29.932   6.750
 7414POPC   C3A53057  18.254  29.910   7.050
 7414POPC   C4A53058  18.295  29.937   7.350
 7414POPC   C1B53059  18.214  30.168   6.450
 7414POPC   C2B53060  18.256  30.204   6.750
 7414POPC   C3B53061  18.203  30.137   7.050
 7414POPC   C4B53062  18.249  30.134   7.350
 7415POPC   NC353063  33.025  23.748   5.550
 7415POPC   PO453064  33.007  23.754   5.850
 7415POPC   GL153065  32.980  23.677   6.150
 7415POPC   GL253066  33.114  23.707   6.150
 7415POPC   C1A53067  33.002  23.686   6.450
 7415POPC   D2A53068  33.074  23.691   6.750
 7415POPC   C3A53069  33.058  23.759   7.050
 7415POPC   C4A53070  33.015  23.761   7.350
 7415POPC   C1B53071  33.274  23.608   6.450
 7415POPC   C2B53072  33.263  23.600   6.750
 7415POPC   C3B53073  33.288  23.636   7.050
 7415POPC   C4B53074  33.270  23.622   7.350
 7416POPC   NC353075  40.733  22.192   5.550
 7416POPC   PO453076  40.826  22.129   5.850
 7416POPC   GL153077  40.760  22.198   6.150
 7416POPC   GL253078  40.623  22.103   6.150
 7416POPC   C1A53079  40.795  22.177   6.450
 7416POPC   D2A53080  40.796  22.185   6.750
 7416POPC   C3A53081  40.822  22.123   7.050
 7416POPC   C4A53082  40.795  22.172   7.350
 7416POPC   C1B53083  40.519  22.017   6.450
 7416POPC   C2B53084  40.525  22.030   6.750
 7416POPC   C3B53085  40.590  22.064   7.050
 7416POPC   C4B53086  40.523  22.083   7.350
 7417POPC   NC353087  19.072  29.124   5.550
 7417POPC   PO453088  19.039  29.122   5.850
 7417POPC   GL153089  19.009  29.121   6.150
 7417POPC   GL253090  19.036  29.039   6.150
 7417POPC   C1A53091  19.026  29.151   6.450
 7417POPC   D2A53092  19.039  29.119   6.750
 7417POPC   C3A53093  19.061  29.132   7.050
 7417POPC   C4A53094  19.077  29.118   7.350
 7417POPC   C1B53095  18.923  28.874   6.450
 7417POPC   C2B53096  18.947  28.924   6.750
 7417POPC   C3B53097  18.924  28.954   7.050
 7417POPC   C4B53098  18.972  28.897   7.350
 7418POPC   NC353099  12.806  13.635   5.550
 7418POPC   PO453100  12.854  13.616   5.850
 7418POPC   GL153101  12.830  13.615   6.150
 7418POPC   GL253102  13.025  13.654   6.150
 7418POPC   C1A53103  12.889  13.643   6.450
 7418POPC   D2A53104  12.859  13.644   6.750
 7418POPC   C3A53105  12.815  13.594   7.050
 7418POPC   C4A53106  12.805  13.670   7.350
 7418POPC   C1B53107  13.129  13.667   6.450
 7418POPC   C2B53108  13.066  13.614   6.750
 7418POPC   C3B53109  13.070  13.642   7.050
 7418POPC   C4B53110  13.149  13.648   7.350
 7419POPC   NC353111  39.960  36.930   5.550
 7419POPC   PO453112  40.044  36.879   5.850
 7419POPC   GL153113  40.024  36.895   6.150
 7419POPC   GL253114  40.107  36.843   6.150
 7419POPC   C1A53115  40.038  36.865   6.450
 7419POPC   D2A53116  39.990  36.943   6.750
 7419POPC   C3A53117  40.043  36.866   7.050
 7419POPC   C4A53118  39.997  36.949   7.350
 7419POPC   C1B53119  40.128  36.725   6.450
 7419POPC   C2B53120  40.179  36.750   6.750
 7419POPC   C3B53121  40.197  36.742   7.050
 7419POPC   C4B53122  40.185  36.714   7.350
 7420POPC   NC353123  32.999  26.785   5.550
 7420POPC   PO453124  33.030  26.774   5.850
 7420POPC   GL153125  32.975  26.863   6.150
 7420POPC   GL253126  33.066  26.893   6.150
 7420POPC   C1A53127  33.022  26.814   6.450
 7420POPC   D2A53128  33.024  26.780   6.750
 7420POPC   C3A53129  33.015  26.804   7.050
 7420POPC   C4A53130  33.038  26.836   7.350
 7420POPC   C1B53131  33.239  27.009   6.450
 7420POPC   C2B53132  33.183  26.983   6.750
 7420POPC   C3B53133  33.161  27.017   7.050
 7420POPC   C4B53134  33.193  26.988   7.350
 7421POPC   NC353135  33.759   6.642   5.550
 7421POPC   PO453136  33.764   6.615   5.850
 7421POPC   GL153137  33.781   6.651   6.150
 7421POPC   GL253138  33.718   6.550   6.150
 7421POPC   C1A53139  33.802   6.602   6.450
 7421POPC   D2A53140  33.829   6.689   6.750
 7421POPC   C3A53141  33.752   6.677   7.050
 7421POPC   C4A53142  33.759   6.602   7.350
 7421POPC   C1B53143  33.676   6.486   6.450
 7421POPC   C2B53144  33.614   6.422   6.750
 7421POPC   C3B53145  33.634   6.485   7.050
 7421POPC   C4B53146  33.621   6.422   7.350
 7422POPC   NC353147  19.846  44.699   5.550
 7422POPC   PO453148  19.805  44.642   5.850
 7422POPC   GL153149  19.883  44.641   6.150
 7422POPC   GL253150  19.858  44.798   6.150
 7422POPC   C1A53151  19.805  44.693   6.450
 7422POPC   D2A53152  19.820  44.696   6.750
 7422POPC   C3A53153  19.847  44.628   7.050
 7422POPC   C4A53154  19.840  44.703   7.350
 7422POPC   C1B53155  19.907  44.944   6.450
 7422POPC   C2B53156  19.888  44.856   6.750
 7422POPC   C3B53157  19.894  44.860   7.050
 7422POPC   C4B53158  19.941  44.866   7.350
 7423POPC   NC353159  15.224   9.727   5.550
 7423POPC   PO453160  15.156   9.774   5.850
 7423POPC   GL153161  15.136   9.719   6.150
 7423POPC   GL253162  15.219   9.860   6.150
 7423POPC   C1A53163  15.156   9.786   6.450
 7423POPC   D2A53164  15.227   9.724   6.750
 7423POPC   C3A53165  15.156   9.726   7.050
 7423POPC   C4A53166  15.208   9.729   7.350
 7423POPC   C1B53167  15.361   9.952   6.450
 7423POPC   C2B53168  15.280   9.903   6.750
 7423POPC   C3B53169  15.342   9.937   7.050
 7423POPC   C4B53170  15.285   9.988   7.350
 7424POPC   NC353171  20.576  35.319   5.550
 7424POPC   PO453172  20.629  35.370   5.850
 7424POPC   GL153173  20.586  35.314   6.150
 7424POPC   GL253174  20.502  35.286   6.150
 7424POPC   C1A53175  20.567  35.316   6.450
 7424POPC   D2A53176  20.611  35.312   6.750
 7424POPC   C3A53177  20.579  35.401   7.050
 7424POPC   C4A53178  20.580  35.320   7.350
 7424POPC   C1B53179  20.340  35.234   6.450
 7424POPC   C2B53180  20.342  35.215   6.750
 7424POPC   C3B53181  20.354  35.275   7.050
 7424POPC   C4B53182  20.371  35.206   7.350
 7425POPC   NC353183  31.520  19.009   5.550
 7425POPC   PO453184  31.453  19.029   5.850
 7425POPC   GL153185  31.439  19.010   6.150
 7425POPC   GL253186  31.586  19.043   6.150
 7425POPC   C1A53187  31.437  19.068   6.450
 7425POPC   D2A53188  31.494  19.015   6.750
 7425POPC   C3A53189  31.433  19.092   7.050
 7425POPC   C4A53190  31.466  19.088   7.350
 7425POPC   C1B53191  31.729  19.074   6.450
 7425POPC   C2B53192  31.742  19.072   6.750
 7425POPC   C3B53193  31.761  19.073   7.050
 7425POPC   C4B53194  31.742  19.061   7.350
 7426POPC   NC353195   9.771  33.824   5.550
 7426POPC   PO453196   9.732  33.772   5.850
 7426POPC   GL153197   9.766  33.786   6.150
 7426POPC   GL253198   9.898  33.736   6.150
 7426POPC   C1A53199   9.752  33.821   6.450
 7426POPC   D2A53200   9.730  33.796   6.750
 7426POPC   C3A53201   9.733  33.823   7.050
 7426POPC   C4A53202   9.777  33.751   7.350
 7426POPC   C1B53203   9.961  33.697   6.450
 7426POPC   C2B53204  10.026  33.731   6.750
 7426POPC   C3B53205   9.972  33.664   7.050
 7426POPC   C4B53206   9.982  33.718   7.350
 7427POPC   NC353207   9.755  39.220   5.550
 7427POPC   PO453208   9.786  39.274   5.850
 7427POPC   GL153209   9.786  39.224   6.150
 7427POPC   GL253210   9.883  39.256   6.150
 7427POPC   C1A53211   9.726  39.194   6.450
 7427POPC   D2A53212   9.792  39.220   6.750
 7427POPC   C3A53213   9.756  39.218   7.050
 7427POPC   C4A53214   9.731  39.278   7.350
 7427POPC   C1B53215   9.962  39.262   6.450
 7427POPC   C2B53216   9.999  39.329   6.750
 7427POPC   C3B53217   9.956  39.320   7.050
 7427POPC   C4B53218  10.011  39.335   7.350
 7428POPC   NC353219  35.358   2.763   5.550
 7428POPC   PO453220  35.359   2.765   5.850
 7428POPC   GL153221  35.386   2.802   6.150
 7428POPC   GL253222  35.385   2.708   6.150
 7428POPC   C1A53223  35.372   2.763   6.450
 7428POPC   D2A53224  35.392   2.777   6.750
 7428POPC   C3A53225  35.374   2.725   7.050
 7428POPC   C4A53226  35.341   2.780   7.350
 7428POPC   C1B53227  35.549   2.547   6.450
 7428POPC   C2B53228  35.497   2.570   6.750
 7428POPC   C3B53229  35.487   2.528   7.050
 7428POPC   C4B53230  35.486   2.543   7.350
 7429POPC   NC353231  29.159  20.627   5.550
 7429POPC   PO453232  29.114  20.649   5.850
 7429POPC   GL153233  29.154  20.598   6.150
 7429POPC   GL253234  29.118  20.453   6.150
 7429POPC   C1A53235  29.151  20.589   6.450
 7429POPC   D2A53236  29.098  20.570   6.750
 7429POPC   C3A53237  29.184  20.638   7.050
 7429POPC   C4A53238  29.170  20.648   7.350
 7429POPC   C1B53239  29.062  20.367   6.450
 7429POPC   C2B53240  29.127  20.325   6.750
 7429POPC   C3B53241  29.067  20.382   7.050
 7429POPC   C4B53242  29.108  20.319   7.350
 7430POPC   NC353243  29.916  14.423   5.550
 7430POPC   PO453244  29.885  14.446   5.850
 7430POPC   GL153245  29.929  14.397   6.150
 7430POPC   GL253246  30.054  14.434   6.150
 7430POPC   C1A53247  29.964  14.436   6.450
 7430POPC   D2A53248  29.924  14.418   6.750
 7430POPC   C3A53249  29.873  14.436   7.050
 7430POPC   C4A53250  29.962  14.433   7.350
 7430POPC   C1B53251  30.145  14.580   6.450
 7430POPC   C2B53252  30.160  14.557   6.750
 7430POPC   C3B53253  30.118  14.565   7.050
 7430POPC   C4B53254  30.138  14.540   7.350
 7431POPC   NC353255  34.557   9.721   5.550
 7431POPC   PO453256  34.585   9.742   5.850
 7431POPC   GL153257  34.579   9.790   6.150
 7431POPC   GL253258  34.495   9.775   6.150
 7431POPC   C1A53259  34.554   9.702   6.450
 7431POPC   D2A53260  34.625   9.767   6.750
 7431POPC   C3A53261  34.625   9.741   7.050
 7431POPC   C4A53262  34.575   9.742   7.350
 7431POPC   C1B53263  34.385   9.831   6.450
 7431POPC   C2B53264  34.375   9.830   6.750
 7431POPC   C3B53265  34.300   9.845   7.050
 7431POPC   C4B53266  34.357   9.842   7.350
 7432POPC   NC353267   3.540  26.865   5.550
 7432POPC   PO453268   3.565  26.782   5.850
 7432POPC   GL153269   3.558  26.864   6.150
 7432POPC   GL253270   3.480  26.714   6.150
 7432POPC   C1A53271   3.586  26.854   6.450
 7432POPC   D2A53272   3.517  26.785   6.750
 7432POPC   C3A53273   3.567  26.844   7.050
 7432POPC   C4A53274   3.528  26.802   7.350
 7432POPC   C1B53275   3.436  26.647   6.450
 7432POPC   C2B53276   3.390  26.607   6.750
 7432POPC   C3B53277   3.380  26.577   7.050
 7432POPC   C4B53278   3.359  26.587   7.350
 7433POPC   NC353279  41.527  39.269   5.550
 7433POPC   PO453280  41.533  39.255   5.850
 7433POPC   GL153281  41.578  39.279   6.150
 7433POPC   GL253282  41.434  39.192   6.150
 7433POPC   C1A53283  41.587  39.270   6.450
 7433POPC   D2A53284  41.509  39.221   6.750
 7433POPC   C3A53285  41.543  39.238   7.050
 7433POPC   C4A53286  41.568  39.190   7.350
 7433POPC   C1B53287  41.294  39.181   6.450
 7433POPC   C2B53288  41.361  39.163   6.750
 7433POPC   C3B53289  41.267  39.235   7.050
 7433POPC   C4B53290  41.360  39.226   7.350
 7434POPC   NC353291  42.321   0.461   5.550
 7434POPC   PO453292  42.375   0.450   5.850
 7434POPC   GL153293  42.296   0.398   6.150
 7434POPC   GL253294  42.479   0.453   6.150
 7434POPC   C1A53295  42.321   0.461   6.450
 7434POPC   D2A53296  42.370   0.487   6.750
 7434POPC   C3A53297  42.320   0.470   7.050
 7434POPC   C4A53298  42.362   0.418   7.350
 7434POPC   C1B53299  42.535   0.559   6.450
 7434POPC   C2B53300  42.547   0.488   6.750
 7434POPC   C3B53301  42.593   0.547   7.050
 7434POPC   C4B53302  42.593   0.469   7.350
 7435POPC   NC353303   2.779  19.808   5.550
 7435POPC   PO453304   2.764  19.843   5.850
 7435POPC   GL153305   2.813  19.834   6.150
 7435POPC   GL253306   2.934  19.834   6.150
 7435POPC   C1A53307   2.725  19.883   6.450
 7435POPC   D2A53308   2.811  19.793   6.750
 7435POPC   C3A53309   2.736  19.875   7.050
 7435POPC   C4A53310   2.721  19.796   7.350
 7435POPC   C1B53311   3.051  19.857   6.450
 7435POPC   C2B53312   2.990  19.814   6.750
 7435POPC   C3B53313   2.991  19.853   7.050
 7435POPC   C4B53314   3.012  19.829   7.350
 7436POPC   NC353315  20.651   7.384   5.550
 7436POPC   PO453316  20.633   7.466   5.850
 7436POPC   GL153317  20.571   7.377   6.150
 7436POPC   GL253318  20.664   7.311   6.150
 7436POPC   C1A53319  20.579   7.466   6.450
 7436POPC   D2A53320  20.562   7.443   6.750
 7436POPC   C3A53321  20.634   7.409   7.050
 7436POPC   C4A53322  20.567   7.470   7.350
 7436POPC   C1B53323  20.630   7.175   6.450
 7436POPC   C2B53324  20.674   7.156   6.750
 7436POPC   C3B53325  20.612   7.181   7.050
 7436POPC   C4B53326  20.617   7.145   7.350
 7437POPC   NC353327  18.288   3.570   5.550
 7437POPC   PO453328  18.309   3.589   5.850
 7437POPC   GL153329  18.270   3.534   6.150
 7437POPC   GL253330  18.351   3.519   6.150
 7437POPC   C1A53331  18.303   3.541   6.450
 7437POPC   D2A53332  18.268   3.515   6.750
 7437POPC   C3A53333  18.333   3.515   7.050
 7437POPC   C4A53334  18.324   3.549   7.350
 7437POPC   C1B53335  18.549   3.464   6.450
 7437POPC   C2B53336  18.521   3.488   6.750
 7437POPC   C3B53337  18.503   3.408   7.050
 7437POPC   C4B53338  18.505   3.493   7.350
 7438POPC   NC353339  26.023   9.705   5.550
 7438POPC   PO453340  26.033   9.722   5.850
 7438POPC   GL153341  26.025   9.749   6.150
 7438POPC   GL253342  26.107   9.621   6.150
 7438POPC   C1A53343  25.999   9.793   6.450
 7438POPC   D2A53344  26.074   9.776   6.750
 7438POPC   C3A53345  26.024   9.772   7.050
 7438POPC   C4A53346  26.060   9.722   7.350
 7438POPC   C1B53347  26.193   9.578   6.450
 7438POPC   C2B53348  26.162   9.547   6.750
 7438POPC   C3B53349  26.200   9.598   7.050
 7438POPC   C4B53350  26.229   9.516   7.350
 7439POPC   NC353351  15.164  27.545   5.550
 7439POPC   PO453352  15.149  27.579   5.850
 7439POPC   GL153353  15.188  27.600   6.150
 7439POPC   GL253354  15.146  27.713   6.150
 7439POPC   C1A53355  15.131  27.544   6.450
 7439POPC   D2A53356  15.198  27.579   6.750
 7439POPC   C3A53357  15.207  27.569   7.050
 7439POPC   C4A53358  15.227  27.554   7.350
 7439POPC   C1B53359  15.119  27.803   6.450
 7439POPC   C2B53360  15.067  27.864   6.750
 7439POPC   C3B53361  15.137  27.871   7.050
 7439POPC   C4B53362  15.058  27.858   7.350
 7440POPC   NC353363  19.096  26.850   5.550
 7440POPC   PO453364  19.035  26.835   5.850
 7440POPC   GL153365  19.107  26.858   6.150
 7440POPC   GL253366  19.133  26.772   6.150
 7440POPC   C1A53367  19.038  26.829   6.450
 7440POPC   D2A53368  19.093  26.865   6.750
 7440POPC   C3A53369  19.048  26.795   7.050
 7440POPC   C4A53370  19.036  26.801   7.350
 7440POPC   C1B53371  19.259  26.676   6.450
 7440POPC   C2B53372  19.233  26.631   6.750
 7440POPC   C3B53373  19.230  26.691   7.050
 7440POPC   C4B53374  19.270  26.686   7.350
 7441POPC   NC353375  19.809  17.466   5.550
 7441POPC   PO453376  19.851  17.509   5.850
 7441POPC   GL153377  19.862  17.472   6.150
 7441POPC   GL253378  19.804  17.377   6.150
 7441POPC   C1A53379  19.840  17.502   6.450
 7441POPC   D2A53380  19.870  17.522   6.750
 7441POPC   C3A53381  19.799  17.471   7.050
 7441POPC   C4A53382  19.833  17.542   7.350
 7441POPC   C1B53383  19.751  17.271   6.450
 7441POPC   C2B53384  19.741  17.262   6.750
 7441POPC   C3B53385  19.772  17.228   7.050
 7441POPC   C4B53386  19.800  17.271   7.350
 7442POPC   NC353387  19.826  12.878   5.550
 7442POPC   PO453388  19.856  12.877   5.850
 7442POPC   GL153389  19.816  12.846   6.150
 7442POPC   GL253390  19.860  12.999   6.150
 7442POPC   C1A53391  19.838  12.828   6.450
 7442POPC   D2A53392  19.828  12.881   6.750
 7442POPC   C3A53393  19.803  12.825   7.050
 7442POPC   C4A53394  19.795  12.850   7.350
 7442POPC   C1B53395  19.984  13.109   6.450
 7442POPC   C2B53396  19.980  13.035   6.750
 7442POPC   C3B53397  19.977  13.058   7.050
 7442POPC   C4B53398  19.984  13.083   7.350
 7443POPC   NC353399   1.984  37.645   5.550
 7443POPC   PO453400   1.952  37.645   5.850
 7443POPC   GL153401   1.970  37.695   6.150
 7443POPC   GL253402   1.821  37.678   6.150
 7443POPC   C1A53403   1.942  37.637   6.450
 7443POPC   D2A53404   2.001  37.638   6.750
 7443POPC   C3A53405   1.985  37.657   7.050
 7443POPC   C4A53406   2.030  37.700   7.350
 7443POPC   C1B53407   1.802  37.797   6.450
 7443POPC   C2B53408   1.769  37.755   6.750
 7443POPC   C3B53409   1.752  37.797   7.050
 7443POPC   C4B53410   1.800  37.798   7.350
 7444POPC   NC353411  32.285  15.969   5.550
 7444POPC   PO453412  32.241  15.960   5.850
 7444POPC   GL153413  32.295  15.930   6.150
 7444POPC   GL253414  32.189  16.094   6.150
 7444POPC   C1A53415  32.289  15.997   6.450
 7444POPC   D2A53416  32.274  15.978   6.750
 7444POPC   C3A53417  32.285  15.936   7.050
 7444POPC   C4A53418  32.273  15.993   7.350
 7444POPC   C1B53419  32.094  16.197   6.450
 7444POPC   C2B53420  32.070  16.144   6.750
 7444POPC   C3B53421  32.137  16.178   7.050
 7444POPC   C4B53422  32.110  16.128   7.350
 7445POPC   NC353423  15.133  34.569   5.550
 7445POPC   PO453424  15.173  34.584   5.850
 7445POPC   GL153425  15.167  34.599   6.150
 7445POPC   GL253426  15.279  34.567   6.150
 7445POPC   C1A53427  15.144  34.610   6.450
 7445POPC   D2A53428  15.197  34.580   6.750
 7445POPC   C3A53429  15.138  34.537   7.050
 7445POPC   C4A53430  15.226  34.617   7.350
 7445POPC   C1B53431  15.384  34.542   6.450
 7445POPC   C2B53432  15.459  34.553   6.750
 7445POPC   C3B53433  15.422  34.509   7.050
 7445POPC   C4B53434  15.441  34.598   7.350
 7446POPC   NC353435  39.267  22.961   5.550
 7446POPC   PO453436  39.224  22.937   5.850
 7446POPC   GL153437  39.258  22.930   6.150
 7446POPC   GL253438  39.185  23.075   6.150
 7446POPC   C1A53439  39.246  22.947   6.450
 7446POPC   D2A53440  39.274  22.898   6.750
 7446POPC   C3A53441  39.188  22.930   7.050
 7446POPC   C4A53442  39.261  22.978   7.350
 7446POPC   C1B53443  39.192  23.233   6.450
 7446POPC   C2B53444  39.235  23.181   6.750
 7446POPC   C3B53445  39.249  23.167   7.050
 7446POPC   C4B53446  39.243  23.179   7.350
 7447POPC   NC353447  29.919   9.710   5.550
 7447POPC   PO453448  29.958   9.775   5.850
 7447POPC   GL153449  29.871   9.795   6.150
 7447POPC   GL253450  29.880   9.670   6.150
 7447POPC   C1A53451  29.932   9.741   6.450
 7447POPC   D2A53452  29.908   9.745   6.750
 7447POPC   C3A53453  29.910   9.756   7.050
 7447POPC   C4A53454  29.912   9.766   7.350
 7447POPC   C1B53455  29.888   9.496   6.450
 7447POPC   C2B53456  29.863   9.537   6.750
 7447POPC   C3B53457  29.868   9.538   7.050
 7447POPC   C4B53458  29.856   9.506   7.350
 7448POPC   NC353459  29.941  15.931   5.550
 7448POPC   PO453460  29.941  15.970   5.850
 7448POPC   GL153461  29.902  15.999   6.150
 7448POPC   GL253462  29.824  15.917   6.150
 7448POPC   C1A53463  29.956  15.956   6.450
 7448POPC   D2A53464  29.912  15.956   6.750
 7448POPC   C3A53465  29.873  15.944   7.050
 7448POPC   C4A53466  29.955  15.945   7.350
 7448POPC   C1B53467  29.657  16.007   6.450
 7448POPC   C2B53468  29.658  15.974   6.750
 7448POPC   C3B53469  29.638  16.007   7.050
 7448POPC   C4B53470  29.709  15.991   7.350
 7449POPC   NC353471  43.874  41.548   5.550
 7449POPC   PO453472  43.865  41.512   5.850
 7449POPC   GL153473  43.880  41.598   6.150
 7449POPC   GL253474  44.006  41.507   6.150
 7449POPC   C1A53475  43.862  41.597   6.450
 7449POPC   D2A53476  43.875  41.587   6.750
 7449POPC   C3A53477  43.840  41.565   7.050
 7449POPC   C4A53478  43.903  41.514   7.350
 7449POPC   C1B53479  44.138  41.574   6.450
 7449POPC   C2B53480  44.102  41.534   6.750
 7449POPC   C3B53481  44.148  41.529   7.050
 7449POPC   C4B53482  44.157  41.480   7.350
 7450POPC   NC353483  28.341  41.582   5.550
 7450POPC   PO453484  28.383  41.559   5.850
 7450POPC   GL153485  28.401  41.534   6.150
 7450POPC   GL253486  28.425  41.688   6.150
 7450POPC   C1A53487  28.387  41.608   6.450
 7450POPC   D2A53488  28.329  41.552   6.750
 7450POPC   C3A53489  28.355  41.522   7.050
 7450POPC   C4A53490  28.400  41.552   7.350
 7450POPC   C1B53491  28.532  41.736   6.450
 7450POPC   C2B53492  28.561  41.736   6.750
 7450POPC   C3B53493  28.484  41.747   7.050
 7450POPC   C4B53494  28.511  41.768   7.350
 7451POPC   NC353495  39.966  18.245   5.550
 7451POPC   PO453496  40.021  18.297   5.850
 7451POPC   GL153497  39.979  18.267   6.150
 7451POPC   GL253498  40.006  18.124   6.150
 7451POPC   C1A53499  40.015  18.274   6.450
 7451POPC   D2A53500  40.029  18.284   6.750
 7451POPC   C3A53501  40.049  18.316   7.050
 7451POPC   C4A53502  40.028  18.243   7.350
 7451POPC   C1B53503  39.979  18.024   6.450
 7451POPC   C2B53504  39.958  18.028   6.750
 7451POPC   C3B53505  40.014  18.016   7.050
 7451POPC   C4B53506  40.012  18.068   7.350
 7452POPC   NC353507  15.957  23.685   5.550
 7452POPC   PO453508  15.916  23.692   5.850
 7452POPC   GL153509  15.909  23.762   6.150
 7452POPC   GL253510  16.046  23.825   6.150
 7452POPC   C1A53511  15.967  23.667   6.450
 7452POPC   D2A53512  15.999  23.665   6.750
 7452POPC   C3A53513  15.923  23.678   7.050
 7452POPC   C4A53514  15.983  23.691   7.350
 7452POPC   C1B53515  16.160  23.897   6.450
 7452POPC   C2B53516  16.088  23.907   6.750
 7452POPC   C3B53517  16.162  23.908   7.050
 7452POPC   C4B53518  16.164  23.842   7.350
 7453POPC   NC353519  30.654  34.594   5.550
 7453POPC   PO453520  30.648  34.563   5.850
 7453POPC   GL153521  30.721  34.562   6.150
 7453POPC   GL253522  30.575  34.641   6.150
 7453POPC   C1A53523  30.672  34.586   6.450
 7453POPC   D2A53524  30.724  34.582   6.750
 7453POPC   C3A53525  30.722  34.621   7.050
 7453POPC   C4A53526  30.679  34.556   7.350
 7453POPC   C1B53527  30.570  34.711   6.450
 7453POPC   C2B53528  30.525  34.756   6.750
 7453POPC   C3B53529  30.513  34.709   7.050
 7453POPC   C4B53530  30.530  34.741   7.350
 7454POPC   NC353531   0.462   7.466   5.550
 7454POPC   PO453532   0.418   7.378   5.850
 7454POPC   GL153533   0.453   7.432   6.150
 7454POPC   GL253534   0.354   7.539   6.150
 7454POPC   C1A53535   0.473   7.469   6.450
 7454POPC   D2A53536   0.470   7.443   6.750
 7454POPC   C3A53537   0.433   7.417   7.050
 7454POPC   C4A53538   0.475   7.437   7.350
 7454POPC   C1B53539   0.315   7.641   6.450
 7454POPC   C2B53540   0.266   7.612   6.750
 7454POPC   C3B53541   0.272   7.642   7.050
 7454POPC   C4B53542   0.267   7.633   7.350
 7455POPC   NC353543   0.422   3.527   5.550
 7455POPC   PO453544   0.460   3.554   5.850
 7455POPC   GL153545   0.457   3.542   6.150
 7455POPC   GL253546   0.430   3.661   6.150
 7455POPC   C1A53547   0.475   3.586   6.450
 7455POPC   D2A53548   0.456   3.590   6.750
 7455POPC   C3A53549   0.471   3.562   7.050
 7455POPC   C4A53550   0.470   3.570   7.350
 7455POPC   C1B53551   0.420   3.831   6.450
 7455POPC   C2B53552   0.395   3.826   6.750
 7455POPC   C3B53553   0.437   3.792   7.050
 7455POPC   C4B53554   0.399   3.763   7.350
 7456POPC   NC353555   0.458   5.054   5.550
 7456POPC   PO453556   0.483   5.116   5.850
 7456POPC   GL153557   0.422   5.114   6.150
 7456POPC   GL253558   0.402   4.959   6.150
 7456POPC   C1A53559   0.450   5.067   6.450
 7456POPC   D2A53560   0.424   5.140   6.750
 7456POPC   C3A53561   0.413   5.099   7.050
 7456POPC   C4A53562   0.444   5.085   7.350
 7456POPC   C1B53563   0.395   4.881   6.450
 7456POPC   C2B53564   0.431   4.889   6.750
 7456POPC   C3B53565   0.455   4.840   7.050
 7456POPC   C4B53566   0.393   4.853   7.350
 7457POPC   NC353567   4.345  37.688   5.550
 7457POPC   PO453568   4.275  37.674   5.850
 7457POPC   GL153569   4.366  37.706   6.150
 7457POPC   GL253570   4.487  37.679   6.150
 7457POPC   C1A53571   4.287  37.672   6.450
 7457POPC   D2A53572   4.278  37.715   6.750
 7457POPC   C3A53573   4.355  37.683   7.050
 7457POPC   C4A53574   4.347  37.630   7.350
 7457POPC   C1B53575   4.528  37.615   6.450
 7457POPC   C2B53576   4.555  37.626   6.750
 7457POPC   C3B53577   4.601  37.631   7.050
 7457POPC   C4B53578   4.543  37.566   7.350
 7458POPC   NC353579  28.359  26.844   5.550
 7458POPC   PO453580  28.331  26.846   5.850
 7458POPC   GL153581  28.341  26.826   6.150
 7458POPC   GL253582  28.198  26.811   6.150
 7458POPC   C1A53583  28.392  26.864   6.450
 7458POPC   D2A53584  28.343  26.777   6.750
 7458POPC   C3A53585  28.370  26.825   7.050
 7458POPC   C4A53586  28.413  26.787   7.350
 7458POPC   C1B53587  28.081  26.883   6.450
 7458POPC   C2B53588  28.083  26.862   6.750
 7458POPC   C3B53589  28.160  26.829   7.050
 7458POPC   C4B53590  28.103  26.830   7.350
 7459POPC   NC353591  38.411   8.976   5.550
 7459POPC   PO453592  38.490   8.928   5.850
 7459POPC   GL153593  38.456   9.009   6.150
 7459POPC   GL253594  38.607   8.914   6.150
 7459POPC   C1A53595  38.503   8.936   6.450
 7459POPC   D2A53596  38.462   8.924   6.750
 7459POPC   C3A53597  38.434   8.975   7.050
 7459POPC   C4A53598  38.495   8.940   7.350
 7459POPC   C1B53599  38.690   8.854   6.450
 7459POPC   C2B53600  38.667   8.885   6.750
 7459POPC   C3B53601  38.690   8.842   7.050
 7459POPC   C4B53602  38.711   8.868   7.350
 7460POPC   NC353603   6.641  42.310   5.550
 7460POPC   PO453604   6.625  42.362   5.850
 7460POPC   GL153605   6.660  42.315   6.150
 7460POPC   GL253606   6.658  42.428   6.150
 7460POPC   C1A53607   6.600  42.337   6.450
 7460POPC   D2A53608   6.667  42.354   6.750
 7460POPC   C3A53609   6.626  42.344   7.050
 7460POPC   C4A53610   6.664  42.353   7.350
 7460POPC   C1B53611   6.583  42.537   6.450
 7460POPC   C2B53612   6.648  42.574   6.750
 7460POPC   C3B53613   6.658  42.599   7.050
 7460POPC   C4B53614   6.568  42.571   7.350
 7461POPC   NC353615  12.843  15.224   5.550
 7461POPC   PO453616  12.858  15.219   5.850
 7461POPC   GL153617  12.805  15.210   6.150
 7461POPC   GL253618  13.006  15.126   6.150
 7461POPC   C1A53619  12.850  15.225   6.450
 7461POPC   D2A53620  12.837  15.138   6.750
 7461POPC   C3A53621  12.865  15.191   7.050
 7461POPC   C4A53622  12.899  15.181   7.350
 7461POPC   C1B53623  13.073  15.031   6.450
 7461POPC   C2B53624  13.092  15.110   6.750
 7461POPC   C3B53625  13.127  15.069   7.050
 7461POPC   C4B53626  13.045  15.089   7.350
 7462POPC   NC353627  43.147  41.515   5.550
 7462POPC   PO453628  43.139  41.537   5.850
 7462POPC   GL153629  43.140  41.558   6.150
 7462POPC   GL253630  43.260  41.579   6.150
 7462POPC   C1A53631  43.071  41.601   6.450
 7462POPC   D2A53632  43.084  41.571   6.750
 7462POPC   C3A53633  43.109  41.531   7.050
 7462POPC   C4A53634  43.067  41.586   7.350
 7462POPC   C1B53635  43.368  41.591   6.450
 7462POPC   C2B53636  43.380  41.571   6.750
 7462POPC   C3B53637  43.321  41.602   7.050
 7462POPC   C4B53638  43.363  41.663   7.350
 7463POPC   NC353639  25.261  36.107   5.550
 7463POPC   PO453640  25.286  36.162   5.850
 7463POPC   GL153641  25.309  36.078   6.150
 7463POPC   GL253642  25.350  35.980   6.150
 7463POPC   C1A53643  25.254  36.157   6.450
 7463POPC   D2A53644  25.223  36.112   6.750
 7463POPC   C3A53645  25.301  36.098   7.050
 7463POPC   C4A53646  25.228  36.084   7.350
 7463POPC   C1B53647  25.458  35.881   6.450
 7463POPC   C2B53648  25.419  35.938   6.750
 7463POPC   C3B53649  25.448  35.905   7.050
 7463POPC   C4B53650  25.396  35.944   7.350
 7464POPC   NC353651   1.220  40.016   5.550
 7464POPC   PO453652   1.232  39.958   5.850
 7464POPC   GL153653   1.214  39.967   6.150
 7464POPC   GL253654   1.344  40.081   6.150
 7464POPC   C1A53655   1.211  39.972   6.450
 7464POPC   D2A53656   1.258  39.995   6.750
 7464POPC   C3A53657   1.194  40.042   7.050
 7464POPC   C4A53658   1.217  39.965   7.350
 7464POPC   C1B53659   1.448  40.122   6.450
 7464POPC   C2B53660   1.467  40.105   6.750
 7464POPC   C3B53661   1.478  40.088   7.050
 7464POPC   C4B53662   1.420  40.127   7.350
 7465POPC   NC353663  10.550  20.598   5.550
 7465POPC   PO453664  10.487  20.639   5.850
 7465POPC   GL153665  10.518  20.633   6.150
 7465POPC   GL253666  10.574  20.573   6.150
 7465POPC   C1A53667  10.544  20.619   6.450
 7465POPC   D2A53668  10.495  20.578   6.750
 7465POPC   C3A53669  10.481  20.612   7.050
 7465POPC   C4A53670  10.551  20.640   7.350
 7465POPC   C1B53671  10.757  20.451   6.450
 7465POPC   C2B53672  10.730  20.416   6.750
 7465POPC   C3B53673  10.739  20.416   7.050
 7465POPC   C4B53674  10.716  20.462   7.350
 7466POPC   NC353675   9.709  38.410   5.550
 7466POPC   PO453676   9.758  38.421   5.850
 7466POPC   GL153677   9.753  38.416   6.150
 7466POPC   GL253678   9.896  38.395   6.150
 7466POPC   C1A53679   9.751  38.446   6.450
 7466POPC   D2A53680   9.715  38.467   6.750
 7466POPC   C3A53681   9.772  38.452   7.050
 7466POPC   C4A53682   9.748  38.454   7.350
 7466POPC   C1B53683   9.940  38.328   6.450
 7466POPC   C2B53684   9.906  38.282   6.750
 7466POPC   C3B53685   9.964  38.332   7.050
 7466POPC   C4B53686   9.985  38.320   7.350
 7467POPC   NC353687  32.210  12.836   5.550
 7467POPC   PO453688  32.259  12.885   5.850
 7467POPC   GL153689  32.292  12.862   6.150
 7467POPC   GL253690  32.408  12.768   6.150
 7467POPC   C1A53691  32.270  12.820   6.450
 7467POPC   D2A53692  32.210  12.887   6.750
 7467POPC   C3A53693  32.221  12.835   7.050
 7467POPC   C4A53694  32.283  12.853   7.350
 7467POPC   C1B53695  32.437  12.780   6.450
 7467POPC   C2B53696  32.445  12.811   6.750
 7467POPC   C3B53697  32.515  12.753   7.050
 7467POPC   C4B53698  32.469  12.792   7.350
 7468POPC   NC353699  42.319   8.204   5.550
 7468POPC   PO453700  42.362   8.238   5.850
 7468POPC   GL153701  42.333   8.207   6.150
 7468POPC   GL253702  42.196   8.263   6.150
 7468POPC   C1A53703  42.372   8.187   6.450
 7468POPC   D2A53704  42.296   8.218   6.750
 7468POPC   C3A53705  42.303   8.195   7.050
 7468POPC   C4A53706  42.367   8.246   7.350
 7468POPC   C1B53707  42.114   8.290   6.450
 7468POPC   C2B53708  42.075   8.239   6.750
 7468POPC   C3B53709  42.057   8.251   7.050
 7468POPC   C4B53710  42.127   8.225   7.350
 7469POPC   NC353711   9.754  43.884   5.550
 7469POPC   PO453712   9.753  43.872   5.850
 7469POPC   GL153713   9.712  43.930   6.150
 7469POPC   GL253714   9.699  44.008   6.150
 7469POPC   C1A53715   9.731  43.877   6.450
 7469POPC   D2A53716   9.716  43.846   6.750
 7469POPC   C3A53717   9.737  43.895   7.050
 7469POPC   C4A53718   9.781  43.903   7.350
 7469POPC   C1B53719   9.659  44.110   6.450
 7469POPC   C2B53720   9.631  44.078   6.750
 7469POPC   C3B53721   9.633  44.133   7.050
 7469POPC   C4B53722   9.598  44.076   7.350
 7470POPC   NC353723   6.661  34.576   5.550
 7470POPC   PO453724   6.662  34.576   5.850
 7470POPC   GL153725   6.626  34.536   6.150
 7470POPC   GL253726   6.669  34.473   6.150
 7470POPC   C1A53727   6.675  34.529   6.450
 7470POPC   D2A53728   6.679  34.567   6.750
 7470POPC   C3A53729   6.642  34.533   7.050
 7470POPC   C4A53730   6.682  34.564   7.350
 7470POPC   C1B53731   6.740  34.366   6.450
 7470POPC   C2B53732   6.747  34.334   6.750
 7470POPC   C3B53733   6.738  34.327   7.050
 7470POPC   C4B53734   6.737  34.402   7.350
 7471POPC   NC353735  10.496  29.910   5.550
 7471POPC   PO453736  10.555  29.934   5.850
 7471POPC   GL153737  10.513  29.926   6.150
 7471POPC   GL253738  10.625  29.957   6.150
 7471POPC   C1A53739  10.570  29.884   6.450
 7471POPC   D2A53740  10.534  29.945   6.750
 7471POPC   C3A53741  10.532  29.940   7.050
 7471POPC   C4A53742  10.501  29.964   7.350
 7471POPC   C1B53743  10.733  29.990   6.450
 7471POPC   C2B53744  10.735  29.983   6.750
 7471POPC   C3B53745  10.792  30.017   7.050
 7471POPC   C4B53746  10.726  30.022   7.350
 7472POPC   NC353747  17.508  23.678   5.550
 7472POPC   PO453748  17.463  23.733   5.850
 7472POPC   GL153749  17.531  23.707   6.150
 7472POPC   GL253750  17.583  23.594   6.150
 7472POPC   C1A53751  17.515  23.763   6.450
 7472POPC   D2A53752  17.512  23.692   6.750
 7472POPC   C3A53753  17.552  23.744   7.050
 7472POPC   C4A53754  17.496  23.679   7.350
 7472POPC   C1B53755  17.611  23.455   6.450
 7472POPC   C2B53756  17.653  23.534   6.750
 7472POPC   C3B53757  17.629  23.499   7.050
 7472POPC   C4B53758  17.643  23.485   7.350
 7473POPC   NC353759  32.235  18.293   5.550
 7473POPC   PO453760  32.244  18.320   5.850
 7473POPC   GL153761  32.242  18.261   6.150
 7473POPC   GL253762  32.338  18.347   6.150
 7473POPC   C1A53763  32.287  18.315   6.450
 7473POPC   D2A53764  32.298  18.245   6.750
 7473POPC   C3A53765  32.218  18.325   7.050
 7473POPC   C4A53766  32.230  18.283   7.350
 7473POPC   C1B53767  32.498  18.342   6.450
 7473POPC   C2B53768  32.483  18.394   6.750
 7473POPC   C3B53769  32.447  18.378   7.050
 7473POPC   C4B53770  32.479  18.329   7.350
 7474POPC   NC353771   5.838  16.742   5.550
 7474POPC   PO453772   5.834  16.759   5.850
 7474POPC   GL153773   5.869  16.714   6.150
 7474POPC   GL253774   5.916  16.662   6.150
 7474POPC   C1A53775   5.825  16.763   6.450
 7474POPC   D2A53776   5.854  16.743   6.750
 7474POPC   C3A53777   5.896  16.721   7.050
 7474POPC   C4A53778   5.882  16.693   7.350
 7474POPC   C1B53779   6.018  16.557   6.450
 7474POPC   C2B53780   6.056  16.584   6.750
 7474POPC   C3B53781   6.037  16.605   7.050
 7474POPC   C4B53782   6.067  16.529   7.350
 7475POPC   NC353783  43.859  43.103   5.550
 7475POPC   PO453784  43.868  43.086   5.850
 7475POPC   GL153785  43.846  43.103   6.150
 7475POPC   GL253786  43.977  43.231   6.150
 7475POPC   C1A53787  43.849  43.129   6.450
 7475POPC   D2A53788  43.925  43.138   6.750
 7475POPC   C3A53789  43.854  43.106   7.050
 7475POPC   C4A53790  43.861  43.147   7.350
 7475POPC   C1B53791  43.999  43.343   6.450
 7475POPC   C2B53792  44.064  43.354   6.750
 7475POPC   C3B53793  44.053  43.278   7.050
 7475POPC   C4B53794  44.075  43.308   7.350
 7476POPC   NC353795   1.947   9.777   5.550
 7476POPC   PO453796   1.954   9.706   5.850
 7476POPC   GL153797   1.989   9.722   6.150
 7476POPC   GL253798   1.855   9.784   6.150
 7476POPC   C1A53799   1.964   9.752   6.450
 7476POPC   D2A53800   2.024   9.793   6.750
 7476POPC   C3A53801   2.031   9.749   7.050
 7476POPC   C4A53802   2.014   9.748   7.350
 7476POPC   C1B53803   1.789   9.889   6.450
 7476POPC   C2B53804   1.762   9.886   6.750
 7476POPC   C3B53805   1.827   9.887   7.050
 7476POPC   C4B53806   1.761   9.898   7.350
 7477POPC   NC353807  25.256  40.785   5.550
 7477POPC   PO453808  25.264  40.778   5.850
 7477POPC   GL153809  25.232  40.786   6.150
 7477POPC   GL253810  25.406  40.682   6.150
 7477POPC   C1A53811  25.276  40.745   6.450
 7477POPC   D2A53812  25.287  40.816   6.750
 7477POPC   C3A53813  25.271  40.796   7.050
 7477POPC   C4A53814  25.229  40.806   7.350
 7477POPC   C1B53815  25.410  40.627   6.450
 7477POPC   C2B53816  25.490  40.578   6.750
 7477POPC   C3B53817  25.422  40.636   7.050
 7477POPC   C4B53818  25.447  40.581   7.350
 7478POPC   NC353819  39.959  30.735   5.550
 7478POPC   PO453820  40.032  30.691   5.850
 7478POPC   GL153821  39.979  30.680   6.150
 7478POPC   GL253822  40.029  30.603   6.150
 7478POPC   C1A53823  40.008  30.741   6.450
 7478POPC   D2A53824  39.963  30.733   6.750
 7478POPC   C3A53825  39.971  30.713   7.050
 7478POPC   C4A53826  40.034  30.696   7.350
 7478POPC   C1B53827  39.959  30.459   6.450
 7478POPC   C2B53828  39.941  30.437   6.750
 7478POPC   C3B53829  39.972  30.436   7.050
 7478POPC   C4B53830  39.937  30.447   7.350
 7479POPC   NC353831  34.533  29.948   5.550
 7479POPC   PO453832  34.562  29.916   5.850
 7479POPC   GL153833  34.549  29.971   6.150
 7479POPC   GL253834  34.605  29.833   6.150
 7479POPC   C1A53835  34.575  29.907   6.450
 7479POPC   D2A53836  34.552  29.915   6.750
 7479POPC   C3A53837  34.581  29.948   7.050
 7479POPC   C4A53838  34.537  29.915   7.350
 7479POPC   C1B53839  34.697  29.733   6.450
 7479POPC   C2B53840  34.730  29.763   6.750
 7479POPC   C3B53841  34.687  29.668   7.050
 7479POPC   C4B53842  34.757  29.746   7.350
 7480POPC   NC353843  12.109   1.996   5.550
 7480POPC   PO453844  12.051   1.947   5.850
 7480POPC   GL153845  12.066   1.972   6.150
 7480POPC   GL253846  12.144   2.118   6.150
 7480POPC   C1A53847  12.092   2.019   6.450
 7480POPC   D2A53848  12.099   1.988   6.750
 7480POPC   C3A53849  12.043   1.981   7.050
 7480POPC   C4A53850  12.030   1.948   7.350
 7480POPC   C1B53851  12.177   2.214   6.450
 7480POPC   C2B53852  12.132   2.224   6.750
 7480POPC   C3B53853  12.127   2.178   7.050
 7480POPC   C4B53854  12.223   2.265   7.350
 7481POPC   NC353855  30.712  36.875   5.550
 7481POPC   PO453856  30.735  36.866   5.850
 7481POPC   GL153857  30.745  36.928   6.150
 7481POPC   GL253858  30.830  36.961   6.150
 7481POPC   C1A53859  30.698  36.923   6.450
 7481POPC   D2A53860  30.679  36.953   6.750
 7481POPC   C3A53861  30.687  36.900   7.050
 7481POPC   C4A53862  30.663  36.929   7.350
 7481POPC   C1B53863  30.945  37.074   6.450
 7481POPC   C2B53864  30.893  37.022   6.750
 7481POPC   C3B53865  30.920  37.025   7.050
 7481POPC   C4B53866  30.914  37.057   7.350
 7482POPC   NC353867  41.571  16.713   5.550
 7482POPC   PO453868  41.573  16.777   5.850
 7482POPC   GL153869  41.578  16.761   6.150
 7482POPC   GL253870  41.579  16.813   6.150
 7482POPC   C1A53871  41.602  16.754   6.450
 7482POPC   D2A53872  41.522  16.692   6.750
 7482POPC   C3A53873  41.517  16.742   7.050
 7482POPC   C4A53874  41.550  16.738   7.350
 7482POPC   C1B53875  41.640  16.981   6.450
 7482POPC   C2B53876  41.709  16.930   6.750
 7482POPC   C3B53877  41.688  16.994   7.050
 7482POPC   C4B53878  41.699  16.900   7.350
 7483POPC   NC353879  38.494   6.685   5.550
 7483POPC   PO453880  38.480   6.677   5.850
 7483POPC   GL153881  38.413   6.657   6.150
 7483POPC   GL253882  38.492   6.489   6.150
 7483POPC   C1A53883  38.471   6.684   6.450
 7483POPC   D2A53884  38.474   6.684   6.750
 7483POPC   C3A53885  38.479   6.687   7.050
 7483POPC   C4A53886  38.494   6.629   7.350
 7483POPC   C1B53887  38.557   6.427   6.450
 7483POPC   C2B53888  38.531   6.434   6.750
 7483POPC   C3B53889  38.578   6.425   7.050
 7483POPC   C4B53890  38.525   6.396   7.350
 7484POPC   NC353891  22.971  35.382   5.550
 7484POPC   PO453892  22.987  35.304   5.850
 7484POPC   GL153893  22.900  35.340   6.150
 7484POPC   GL253894  22.834  35.319   6.150
 7484POPC   C1A53895  22.898  35.310   6.450
 7484POPC   D2A53896  22.934  35.378   6.750
 7484POPC   C3A53897  22.945  35.390   7.050
 7484POPC   C4A53898  22.986  35.384   7.350
 7484POPC   C1B53899  22.668  35.396   6.450
 7484POPC   C2B53900  22.668  35.392   6.750
 7484POPC   C3B53901  22.713  35.335   7.050
 7484POPC   C4B53902  22.732  35.330   7.350
 7485POPC   NC353903  20.606  34.599   5.550
 7485POPC   PO453904  20.645  34.536   5.850
 7485POPC   GL153905  20.637  34.578   6.150
 7485POPC   GL253906  20.680  34.665   6.150
 7485POPC   C1A53907  20.624  34.529   6.450
 7485POPC   D2A53908  20.644  34.578   6.750
 7485POPC   C3A53909  20.657  34.569   7.050
 7485POPC   C4A53910  20.566  34.555   7.350
 7485POPC   C1B53911  20.678  34.801   6.450
 7485POPC   C2B53912  20.683  34.768   6.750
 7485POPC   C3B53913  20.704  34.858   7.050
 7485POPC   C4B53914  20.717  34.797   7.350
 7486POPC   NC353915  36.156  38.491   5.550
 7486POPC   PO453916  36.099  38.408   5.850
 7486POPC   GL153917  36.084  38.439   6.150
 7486POPC   GL253918  35.976  38.514   6.150
 7486POPC   C1A53919  36.140  38.457   6.450
 7486POPC   D2A53920  36.130  38.427   6.750
 7486POPC   C3A53921  36.105  38.452   7.050
 7486POPC   C4A53922  36.161  38.462   7.350
 7486POPC   C1B53923  35.867  38.493   6.450
 7486POPC   C2B53924  35.897  38.517   6.750
 7486POPC   C3B53925  35.871  38.482   7.050
 7486POPC   C4B53926  35.840  38.439   7.350
 7487POPC   NC353927   9.011   8.224   5.550
 7487POPC   PO453928   8.996   8.180   5.850
 7487POPC   GL153929   8.994   8.176   6.150
 7487POPC   GL253930   8.806   8.187   6.150
 7487POPC   C1A53931   8.960   8.241   6.450
 7487POPC   D2A53932   8.944   8.222   6.750
 7487POPC   C3A53933   8.941   8.158   7.050
 7487POPC   C4A53934   9.010   8.187   7.350
 7487POPC   C1B53935   8.735   8.167   6.450
 7487POPC   C2B53936   8.683   8.184   6.750
 7487POPC   C3B53937   8.679   8.111   7.050
 7487POPC   C4B53938   8.696   8.112   7.350
 7488POPC   NC353939  27.634   5.864   5.550
 7488POPC   PO453940  27.573   5.875   5.850
 7488POPC   GL153941  27.584   5.854   6.150
 7488POPC   GL253942  27.697   5.801   6.150
 7488POPC   C1A53943  27.592   5.910   6.450
 7488POPC   D2A53944  27.563   5.879   6.750
 7488POPC   C3A53945  27.631   5.893   7.050
 7488POPC   C4A53946  27.565   5.892   7.350
 7488POPC   C1B53947  27.856   5.739   6.450
 7488POPC   C2B53948  27.827   5.781   6.750
 7488POPC   C3B53949  27.835   5.728   7.050
 7488POPC   C4B53950  27.803   5.711   7.350
 7489POPC   NC353951   5.106  30.701   5.550
 7489POPC   PO453952   5.128  30.696   5.850
 7489POPC   GL153953   5.114  30.736   6.150
 7489POPC   GL253954   5.117  30.633   6.150
 7489POPC   C1A53955   5.119  30.695   6.450
 7489POPC   D2A53956   5.094  30.661   6.750
 7489POPC   C3A53957   5.094  30.649   7.050
 7489POPC   C4A53958   5.128  30.728   7.350
 7489POPC   C1B53959   5.174  30.504   6.450
 7489POPC   C2B53960   5.265  30.475   6.750
 7489POPC   C3B53961   5.177  30.496   7.050
 7489POPC   C4B53962   5.239  30.527   7.350
 7490POPC   NC353963  27.635  44.694   5.550
 7490POPC   PO453964  27.629  44.709   5.850
 7490POPC   GL153965  27.640  44.684   6.150
 7490POPC   GL253966  27.670  44.728   6.150
 7490POPC   C1A53967  27.556  44.694   6.450
 7490POPC   D2A53968  27.609  44.688   6.750
 7490POPC   C3A53969  27.572  44.651   7.050
 7490POPC   C4A53970  27.594  44.710   7.350
 7490POPC   C1B53971  27.835  44.800   6.450
 7490POPC   C2B53972  27.871  44.795   6.750
 7490POPC   C3B53973  27.817  44.708   7.050
 7490POPC   C4B53974  27.791  44.785   7.350
 7491POPC   NC353975  39.246   6.669   5.550
 7491POPC   PO453976  39.189   6.653   5.850
 7491POPC   GL153977  39.234   6.633   6.150
 7491POPC   GL253978  39.133   6.726   6.150
 7491POPC   C1A53979  39.193   6.661   6.450
 7491POPC   D2A53980  39.216   6.638   6.750
 7491POPC   C3A53981  39.181   6.671   7.050
 7491POPC   C4A53982  39.235   6.606   7.350
 7491POPC   C1B53983  39.067   6.842   6.450
 7491POPC   C2B53984  39.080   6.844   6.750
 7491POPC   C3B53985  39.092   6.874   7.050
 7491POPC   C4B53986  39.130   6.808   7.350
 7492POPC   NC353987  17.505  28.396   5.550
 7492POPC   PO453988  17.553  28.331   5.850
 7492POPC   GL153989  17.472  28.321   6.150
 7492POPC   GL253990  17.641  28.392   6.150
 7492POPC   C1A53991  17.493  28.366   6.450
 7492POPC   D2A53992  17.555  28.349   6.750
 7492POPC   C3A53993  17.545  28.398   7.050
 7492POPC   C4A53994  17.462  28.346   7.350
 7492POPC   C1B53995  17.795  28.400   6.450
 7492POPC   C2B53996  17.801  28.358   6.750
 7492POPC   C3B53997  17.753  28.370   7.050
 7492POPC   C4B53998  17.734  28.424   7.350
 7493POPC   NC353999  15.930  34.551   5.550
 7493POPC   PO454000  15.966  34.535   5.850
 7493POPC   GL154001  15.982  34.572   6.150
 7493POPC   GL254002  15.904  34.438   6.150
 7493POPC   C1A54003  15.922  34.621   6.450
 7493POPC   D2A54004  15.906  34.611   6.750
 7493POPC   C3A54005  15.912  34.549   7.050
 7493POPC   C4A54006  15.920  34.577   7.350
 7493POPC   C1B54007  15.790  34.355   6.450
 7493POPC   C2B54008  15.790  34.369   6.750
 7493POPC   C3B54009  15.805  34.432   7.050
 7493POPC   C4B54010  15.797  34.418   7.350
 7494POPC   NC354011  37.693  42.292   5.550
 7494POPC   PO454012  37.700  42.332   5.850
 7494POPC   GL154013  37.698  42.318   6.150
 7494POPC   GL254014  37.705  42.475   6.150
 7494POPC   C1A54015  37.672  42.321   6.450
 7494POPC   D2A54016  37.643  42.353   6.750
 7494POPC   C3A54017  37.675  42.306   7.050
 7494POPC   C4A54018  37.716  42.304   7.350
 7494POPC   C1B54019  37.654  42.623   6.450
 7494POPC   C2B54020  37.692  42.538   6.750
 7494POPC   C3B54021  37.696  42.574   7.050
 7494POPC   C4B54022  37.676  42.616   7.350
 7495POPC   NC354023   7.388  40.011   5.550
 7495POPC   PO454024   7.374  39.968   5.850
 7495POPC   GL154025   7.436  39.998   6.150
 7495POPC   GL254026   7.391  39.929   6.150
 7495POPC   C1A54027   7.436  40.017   6.450
 7495POPC   D2A54028   7.446  39.961   6.750
 7495POPC   C3A54029   7.388  39.986   7.050
 7495POPC   C4A54030   7.405  40.036   7.350
 7495POPC   C1B54031   7.359  39.760   6.450
 7495POPC   C2B54032   7.303  39.812   6.750
 7495POPC   C3B54033   7.287  39.798   7.050
 7495POPC   C4B54034   7.375  39.758   7.350
 7496POPC   NC354035  43.149  30.659   5.550
 7496POPC   PO454036  43.097  30.707   5.850
 7496POPC   GL154037  43.119  30.737   6.150
 7496POPC   GL254038  43.281  30.642   6.150
 7496POPC   C1A54039  43.096  30.734   6.450
 7496POPC   D2A54040  43.090  30.678   6.750
 7496POPC   C3A54041  43.066  30.650   7.050
 7496POPC   C4A54042  43.100  30.739   7.350
 7496POPC   C1B54043  43.364  30.698   6.450
 7496POPC   C2B54044  43.352  30.655   6.750
 7496POPC   C3B54045  43.349  30.652   7.050
 7496POPC   C4B54046  43.405  30.710   7.350
 7497POPC   NC354047  34.553   8.969   5.550
 7497POPC   PO454048  34.618   8.974   5.850
 7497POPC   GL154049  34.559   8.965   6.150
 7497POPC   GL254050  34.479   9.038   6.150
 7497POPC   C1A54051  34.534   8.982   6.450
 7497POPC   D2A54052  34.615   9.019   6.750
 7497POPC   C3A54053  34.561   8.971   7.050
 7497POPC   C4A54054  34.574   8.975   7.350
 7497POPC   C1B54055  34.394   9.133   6.450
 7497POPC   C2B54056  34.351   9.095   6.750
 7497POPC   C3B54057  34.335   9.162   7.050
 7497POPC   C4B54058  34.354   9.094   7.350
 7498POPC   NC354059  29.941  42.345   5.550
 7498POPC   PO454060  29.926  42.325   5.850
 7498POPC   GL154061  29.883  42.308   6.150
 7498POPC   GL254062  30.013  42.291   6.150
 7498POPC   C1A54063  29.957  42.330   6.450
 7498POPC   D2A54064  29.888  42.306   6.750
 7498POPC   C3A54065  29.964  42.376   7.050
 7498POPC   C4A54066  29.956  42.357   7.350
 7498POPC   C1B54067  30.173  42.273   6.450
 7498POPC   C2B54068  30.118  42.215   6.750
 7498POPC   C3B54069  30.131  42.251   7.050
 7498POPC   C4B54070  30.121  42.230   7.350
 7499POPC   NC354071  17.491  10.531   5.550
 7499POPC   PO454072  17.511  10.532   5.850
 7499POPC   GL154073  17.468  10.479   6.150
 7499POPC   GL254074  17.549  10.355   6.150
 7499POPC   C1A54075  17.494  10.550   6.450
 7499POPC   D2A54076  17.543  10.505   6.750
 7499POPC   C3A54077  17.517  10.483   7.050
 7499POPC   C4A54078  17.498  10.543   7.350
 7499POPC   C1B54079  17.551  10.290   6.450
 7499POPC   C2B54080  17.597  10.286   6.750
 7499POPC   C3B54081  17.595  10.283   7.050
 7499POPC   C4B54082  17.566  10.327   7.350
 7500POPC   NC354083  19.814   8.941   5.550
 7500POPC   PO454084  19.863   8.961   5.850
 7500POPC   GL154085  19.814   8.989   6.150
 7500POPC   GL254086  19.798   8.898   6.150
 7500POPC   C1A54087  19.843   8.965   6.450
 7500POPC   D2A54088  19.808   8.965   6.750
 7500POPC   C3A54089  19.817   8.953   7.050
 7500POPC   C4A54090  19.854   8.954   7.350
 7500POPC   C1B54091  19.803   8.759   6.450
 7500POPC   C2B54092  19.837   8.749   6.750
 7500POPC   C3B54093  19.830   8.721   7.050
 7500POPC   C4B54094  19.795   8.687   7.350
 7501POPC   NC354095  23.680  18.239   5.550
 7501POPC   PO454096  23.698  18.294   5.850
 7501POPC   GL154097  23.670  18.236   6.150
 7501POPC   GL254098  23.803  18.310   6.150
 7501POPC   C1A54099  23.715  18.329   6.450
 7501POPC   D2A54100  23.681  18.287   6.750
 7501POPC   C3A54101  23.674  18.330   7.050
 7501POPC   C4A54102  23.731  18.263   7.350
 7501POPC   C1B54103  23.924  18.393   6.450
 7501POPC   C2B54104  23.939  18.323   6.750
 7501POPC   C3B54105  23.978  18.365   7.050
 7501POPC   C4B54106  23.919  18.323   7.350
 7502POPC   NC354107  18.311  30.664   5.550
 7502POPC   PO454108  18.315  30.709   5.850
 7502POPC   GL154109  18.287  30.699   6.150
 7502POPC   GL254110  18.303  30.836   6.150
 7502POPC   C1A54111  18.274  30.728   6.450
 7502POPC   D2A54112  18.265  30.740   6.750
 7502POPC   C3A54113  18.314  30.746   7.050
 7502POPC   C4A54114  18.265  30.699   7.350
 7502POPC   C1B54115  18.352  30.894   6.450
 7502POPC   C2B54116  18.326  30.973   6.750
 7502POPC   C3B54117  18.362  30.917   7.050
 7502POPC   C4B54118  18.335  30.952   7.350
 7503POPC   NC354119   0.389  20.590   5.550
 7503POPC   PO454120   0.413  20.648   5.850
 7503POPC   GL154121   0.464  20.575   6.150
 7503POPC   GL254122   0.560  20.529   6.150
 7503POPC   C1A54123   0.456  20.570   6.450
 7503POPC   D2A54124   0.397  20.626   6.750
 7503POPC   C3A54125   0.429  20.605   7.050
 7503POPC   C4A54126   0.403  20.657   7.350
 7503POPC   C1B54127   0.564  20.419   6.450
 7503POPC   C2B54128   0.622  20.464   6.750
 7503POPC   C3B54129   0.551  20.379   7.050
 7503POPC   C4B54130   0.568  20.401   7.350
 7504POPC   NC354131  42.371   6.620   5.550
 7504POPC   PO454132  42.359   6.681   5.850
 7504POPC   GL154133  42.314   6.681   6.150
 7504POPC   GL254134  42.179   6.639   6.150
 7504POPC   C1A54135  42.368   6.627   6.450
 7504POPC   D2A54136  42.381   6.638   6.750
 7504POPC   C3A54137  42.336   6.654   7.050
 7504POPC   C4A54138  42.377   6.686   7.350
 7504POPC   C1B54139  42.097   6.586   6.450
 7504POPC   C2B54140  42.103   6.559   6.750
 7504POPC   C3B54141  42.049   6.635   7.050
 7504POPC   C4B54142  42.078   6.569   7.350
 7505POPC   NC354143  42.292  31.503   5.550
 7505POPC   PO454144  42.348  31.467   5.850
 7505POPC   GL154145  42.380  31.502   6.150
 7505POPC   GL254146  42.277  31.558   6.150
 7505POPC   C1A54147  42.354  31.506   6.450
 7505POPC   D2A54148  42.333  31.457   6.750
 7505POPC   C3A54149  42.340  31.487   7.050
 7505POPC   C4A54150  42.368  31.494   7.350
 7505POPC   C1B54151  42.231  31.704   6.450
 7505POPC   C2B54152  42.289  31.684   6.750
 7505POPC   C3B54153  42.212  31.727   7.050
 7505POPC   C4B54154  42.197  31.704   7.350
 7506POPC   NC354155  22.966  36.859   5.550
 7506POPC   PO454156  22.983  36.878   5.850
 7506POPC   GL154157  22.960  36.878   6.150
 7506POPC   GL254158  22.932  37.023   6.150
 7506POPC   C1A54159  22.891  36.913   6.450
 7506POPC   D2A54160  22.938  36.926   6.750
 7506POPC   C3A54161  22.937  36.887   7.050
 7506POPC   C4A54162  22.917  36.883   7.350
 7506POPC   C1B54163  23.003  37.123   6.450
 7506POPC   C2B54164  23.044  37.130   6.750
 7506POPC   C3B54165  22.965  37.184   7.050
 7506POPC   C4B54166  23.023  37.166   7.350
 7507POPC   NC354167  22.137   4.335   5.550
 7507POPC   PO454168  22.199   4.326   5.850
 7507POPC   GL154169  22.129   4.302   6.150
 7507POPC   GL254170  22.204   4.241   6.150
 7507POPC   C1A54171  22.183   4.281   6.450
 7507POPC   D2A54172  22.178   4.334   6.750
 7507POPC   C3A54173  22.175   4.341   7.050
 7507POPC   C4A54174  22.187   4.302   7.350
 7507POPC   C1B54175  22.289   4.183   6.450
 7507POPC   C2B54176  22.324   4.132   6.750
 7507POPC   C3B54177  22.341   4.176   7.050
 7507POPC   C4B54178  22.331   4.108   7.350
 7508POPC   NC354179  40.827  16.774   5.550
 7508POPC   PO454180  40.760  16.739   5.850
 7508POPC   GL154181  40.739  16.694   6.150
 7508POPC   GL254182  40.658  16.680   6.150
 7508POPC   C1A54183  40.828  16.701   6.450
 7508POPC   D2A54184  40.763  16.741   6.750
 7508POPC   C3A54185  40.807  16.738   7.050
 7508POPC   C4A54186  40.823  16.749   7.350
 7508POPC   C1B54187  40.537  16.603   6.450
 7508POPC   C2B54188  40.554  16.597   6.750
 7508POPC   C3B54189  40.567  16.598   7.050
 7508POPC   C4B54190  40.559  16.592   7.350
 7509POPC   NC354191  35.381  22.147   5.550
 7509POPC   PO454192  35.364  22.117   5.850
 7509POPC   GL154193  35.337  22.154   6.150
 7509POPC   GL254194  35.447  22.169   6.150
 7509POPC   C1A54195  35.333  22.159   6.450
 7509POPC   D2A54196  35.314  22.198   6.750
 7509POPC   C3A54197  35.312  22.170   7.050
 7509POPC   C4A54198  35.391  22.173   7.350
 7509POPC   C1B54199  35.610  22.272   6.450
 7509POPC   C2B54200  35.539  22.298   6.750
 7509POPC   C3B54201  35.572  22.242   7.050
 7509POPC   C4B54202  35.567  22.323   7.350
 7510POPC   NC354203  19.083  32.976   5.550
 7510POPC   PO454204  19.106  33.062   5.850
 7510POPC   GL154205  19.059  33.046   6.150
 7510POPC   GL254206  19.054  32.878   6.150
 7510POPC   C1A54207  19.089  33.015   6.450
 7510POPC   D2A54208  19.023  32.987   6.750
 7510POPC   C3A54209  19.092  33.063   7.050
 7510POPC   C4A54210  19.077  33.071   7.350
 7510POPC   C1B54211  19.058  32.751   6.450
 7510POPC   C2B54212  19.129  32.813   6.750
 7510POPC   C3B54213  19.086  32.725   7.050
 7510POPC   C4B54214  19.058  32.753   7.350
 7511POPC   NC354215  20.626  19.088   5.550
 7511POPC   PO454216  20.615  19.064   5.850
 7511POPC   GL154217  20.593  19.089   6.150
 7511POPC   GL254218  20.730  19.099   6.150
 7511POPC   C1A54219  20.602  19.060   6.450
 7511POPC   D2A54220  20.601  19.086   6.750
 7511POPC   C3A54221  20.599  19.014   7.050
 7511POPC   C4A54222  20.569  19.106   7.350
 7511POPC   C1B54223  20.869  19.107   6.450
 7511POPC   C2B54224  20.825  19.113   6.750
 7511POPC   C3B54225  20.861  19.049   7.050
 7511POPC   C4B54226  20.896  19.091   7.350
 7512POPC   NC354227   3.580  31.452   5.550
 7512POPC   PO454228   3.499  31.495   5.850
 7512POPC   GL154229   3.558  31.445   6.150
 7512POPC   GL254230   3.427  31.439   6.150
 7512POPC   C1A54231   3.529  31.463   6.450
 7512POPC   D2A54232   3.519  31.497   6.750
 7512POPC   C3A54233   3.575  31.500   7.050
 7512POPC   C4A54234   3.544  31.450   7.350
 7512POPC   C1B54235   3.322  31.329   6.450
 7512POPC   C2B54236   3.276  31.420   6.750
 7512POPC   C3B54237   3.312  31.397   7.050
 7512POPC   C4B54238   3.310  31.330   7.350
 7513POPC   NC354239  33.809   9.016   5.550
 7513POPC   PO454240  33.797   8.930   5.850
 7513POPC   GL154241  33.838   8.960   6.150
 7513POPC   GL254242  33.964   8.969   6.150
 7513POPC   C1A54243  33.839   8.952   6.450
 7513POPC   D2A54244  33.848   8.942   6.750
 7513POPC   C3A54245  33.826   8.961   7.050
 7513POPC   C4A54246  33.762   8.993   7.350
 7513POPC   C1B54247  34.083   8.952   6.450
 7513POPC   C2B54248  34.067   8.896   6.750
 7513POPC   C3B54249  34.085   8.950   7.050
 7513POPC   C4B54250  33.996   8.877   7.350
 7514POPC   NC354251  37.663  36.926   5.550
 7514POPC   PO454252  37.706  36.936   5.850
 7514POPC   GL154253  37.673  36.904   6.150
 7514POPC   GL254254  37.570  36.887   6.150
 7514POPC   C1A54255  37.634  36.921   6.450
 7514POPC   D2A54256  37.718  36.866   6.750
 7514POPC   C3A54257  37.701  36.898   7.050
 7514POPC   C4A54258  37.689  36.877   7.350
 7514POPC   C1B54259  37.416  36.822   6.450
 7514POPC   C2B54260  37.430  36.840   6.750
 7514POPC   C3B54261  37.424  36.893   7.050
 7514POPC   C4B54262  37.427  36.816   7.350
 7515POPC   NC354263  21.362  21.357   5.550
 7515POPC   PO454264  21.350  21.414   5.850
 7515POPC   GL154265  21.395  21.358   6.150
 7515POPC   GL254266  21.402  21.530   6.150
 7515POPC   C1A54267  21.358  21.424   6.450
 7515POPC   D2A54268  21.411  21.416   6.750
 7515POPC   C3A54269  21.360  21.429   7.050
 7515POPC   C4A54270  21.425  21.390   7.350
 7515POPC   C1B54271  21.470  21.615   6.450
 7515POPC   C2B54272  21.466  21.637   6.750
 7515POPC   C3B54273  21.489  21.564   7.050
 7515POPC   C4B54274  21.492  21.566   7.350
 7516POPC   NC354275  44.648  26.822   5.550
 7516POPC   PO454276  44.672  26.834   5.850
 7516POPC   GL154277  44.642  26.861   6.150
 7516POPC   GL254278  44.602  26.884   6.150
 7516POPC   C1A54279  44.639  26.856   6.450
 7516POPC   D2A54280  44.623  26.853   6.750
 7516POPC   C3A54281  44.683  26.786   7.050
 7516POPC   C4A54282  44.649  26.866   7.350
 7516POPC   C1B54283  44.465  26.934   6.450
 7516POPC   C2B54284  44.466  27.008   6.750
 7516POPC   C3B54285  44.498  26.994   7.050
 7516POPC   C4B54286  44.414  26.916   7.350
 7517POPC   NC354287   3.517   4.306   5.550
 7517POPC   PO454288   3.529   4.337   5.850
 7517POPC   GL154289   3.501   4.319   6.150
 7517POPC   GL254290   3.535   4.401   6.150
 7517POPC   C1A54291   3.566   4.334   6.450
 7517POPC   D2A54292   3.492   4.353   6.750
 7517POPC   C3A54293   3.586   4.342   7.050
 7517POPC   C4A54294   3.535   4.326   7.350
 7517POPC   C1B54295   3.414   4.499   6.450
 7517POPC   C2B54296   3.472   4.590   6.750
 7517POPC   C3B54297   3.439   4.564   7.050
 7517POPC   C4B54298   3.404   4.526   7.350
 7518POPC   NC354299   4.327  34.603   5.550
 7518POPC   PO454300   4.310  34.566   5.850
 7518POPC   GL154301   4.350  34.562   6.150
 7518POPC   GL254302   4.218  34.458   6.150
 7518POPC   C1A54303   4.323  34.532   6.450
 7518POPC   D2A54304   4.339  34.607   6.750
 7518POPC   C3A54305   4.366  34.530   7.050
 7518POPC   C4A54306   4.361  34.544   7.350
 7518POPC   C1B54307   4.134  34.372   6.450
 7518POPC   C2B54308   4.084  34.402   6.750
 7518POPC   C3B54309   4.073  34.445   7.050
 7518POPC   C4B54310   4.122  34.461   7.350
 7519POPC   NC354311  37.674   5.052   5.550
 7519POPC   PO454312  37.642   5.112   5.850
 7519POPC   GL154313  37.696   5.142   6.150
 7519POPC   GL254314  37.642   4.926   6.150
 7519POPC   C1A54315  37.632   5.083   6.450
 7519POPC   D2A54316  37.722   5.100   6.750
 7519POPC   C3A54317  37.676   5.056   7.050
 7519POPC   C4A54318  37.679   5.076   7.350
 7519POPC   C1B54319  37.680   4.847   6.450
 7519POPC   C2B54320  37.629   4.820   6.750
 7519POPC   C3B54321  37.627   4.808   7.050
 7519POPC   C4B54322  37.612   4.799   7.350
 7520POPC   NC354323   8.206   8.181   5.550
 7520POPC   PO454324   8.196   8.169   5.850
 7520POPC   GL154325   8.192   8.161   6.150
 7520POPC   GL254326   8.146   8.069   6.150
 7520POPC   C1A54327   8.160   8.179   6.450
 7520POPC   D2A54328   8.231   8.216   6.750
 7520POPC   C3A54329   8.153   8.230   7.050
 7520POPC   C4A54330   8.153   8.177   7.350
 7520POPC   C1B54331   8.062   7.927   6.450
 7520POPC   C2B54332   8.040   8.017   6.750
 7520POPC   C3B54333   8.079   7.982   7.050
 7520POPC   C4B54334   8.117   7.937   7.350
 7521POPC   NC354335   5.899  32.282   5.550
 7521POPC   PO454336   5.849  32.208   5.850
 7521POPC   GL154337   5.899  32.286   6.150
 7521POPC   GL254338   5.709  32.217   6.150
 7521POPC   C1A54339   5.884  32.276   6.450
 7521POPC   D2A54340   5.849  32.297   6.750
 7521POPC   C3A54341   5.819  32.218   7.050
 7521POPC   C4A54342   5.849  32.270   7.350
 7521POPC   C1B54343   5.676  32.138   6.450
 7521POPC   C2B54344   5.630  32.137   6.750
 7521POPC   C3B54345   5.599  32.184   7.050
 7521POPC   C4B54346   5.662  32.190   7.350
 7522POPC   NC354347  15.153  19.835   5.550
 7522POPC   PO454348  15.197  19.785   5.850
 7522POPC   GL154349  15.178  19.809   6.150
 7522POPC   GL254350  15.051  19.727   6.150
 7522POPC   C1A54351  15.200  19.877   6.450
 7522POPC   D2A54352  15.223  19.864   6.750
 7522POPC   C3A54353  15.204  19.793   7.050
 7522POPC   C4A54354  15.200  19.798   7.350
 7522POPC   C1B54355  15.034  19.639   6.450
 7522POPC   C2B54356  15.013  19.684   6.750
 7522POPC   C3B54357  15.015  19.658   7.050
 7522POPC   C4B54358  14.972  19.698   7.350
 7523POPC   NC354359   6.657  18.272   5.550
 7523POPC   PO454360   6.648  18.325   5.850
 7523POPC   GL154361   6.689  18.315   6.150
 7523POPC   GL254362   6.769  18.301   6.150
 7523POPC   C1A54363   6.656  18.311   6.450
 7523POPC   D2A54364   6.623  18.271   6.750
 7523POPC   C3A54365   6.675  18.304   7.050
 7523POPC   C4A54366   6.638  18.330   7.350
 7523POPC   C1B54367   6.894  18.300   6.450
 7523POPC   C2B54368   6.838  18.340   6.750
 7523POPC   C3B54369   6.853  18.325   7.050
 7523POPC   C4B54370   6.869  18.359   7.350
 7524POPC   NC354371  27.562   2.810   5.550
 7524POPC   PO454372  27.619   2.766   5.850
 7524POPC   GL154373  27.613   2.743   6.150
 7524POPC   GL254374  27.728   2.771   6.150
 7524POPC   C1A54375  27.613   2.752   6.450
 7524POPC   D2A54376  27.601   2.727   6.750
 7524POPC   C3A54377  27.551   2.758   7.050
 7524POPC   C4A54378  27.611   2.795   7.350
 7524POPC   C1B54379  27.802   2.811   6.450
 7524POPC   C2B54380  27.873   2.813   6.750
 7524POPC   C3B54381  27.834   2.780   7.050
 7524POPC   C4B54382  27.818   2.810   7.350
 7525POPC   NC354383   2.020  13.595   5.550
 7525POPC   PO454384   2.004  13.643   5.850
 7525POPC   GL154385   2.010  13.629   6.150
 7525POPC   GL254386   2.070  13.728   6.150
 7525POPC   C1A54387   1.970  13.616   6.450
 7525POPC   D2A54388   2.038  13.599   6.750
 7525POPC   C3A54389   2.010  13.616   7.050
 7525POPC   C4A54390   1.962  13.651   7.350
 7525POPC   C1B54391   2.087  13.869   6.450
 7525POPC   C2B54392   2.130  13.849   6.750
 7525POPC   C3B54393   2.175  13.878   7.050
 7525POPC   C4B54394   2.114  13.881   7.350
 7526POPC   NC354395  21.411   4.361   5.550
 7526POPC   PO454396  21.432   4.351   5.850
 7526POPC   GL154397  21.435   4.288   6.150
 7526POPC   GL254398  21.367   4.185   6.150
 7526POPC   C1A54399  21.431   4.272   6.450
 7526POPC   D2A54400  21.372   4.303   6.750
 7526POPC   C3A54401  21.400   4.353   7.050
 7526POPC   C4A54402  21.426   4.270   7.350
 7526POPC   C1B54403  21.445   4.045   6.450
 7526POPC   C2B54404  21.371   4.099   6.750
 7526POPC   C3B54405  21.368   4.027   7.050
 7526POPC   C4B54406  21.390   4.097   7.350
 7527POPC   NC354407  29.957   9.002   5.550
 7527POPC   PO454408  29.872   8.972   5.850
 7527POPC   GL154409  29.960   8.944   6.150
 7527POPC   GL254410  29.990   9.048   6.150
 7527POPC   C1A54411  29.967   8.952   6.450
 7527POPC   D2A54412  29.960   8.982   6.750
 7527POPC   C3A54413  29.949   8.950   7.050
 7527POPC   C4A54414  29.895   8.958   7.350
 7527POPC   C1B54415  30.050   9.113   6.450
 7527POPC   C2B54416  30.076   9.178   6.750
 7527POPC   C3B54417  30.068   9.114   7.050
 7527POPC   C4B54418  30.057   9.200   7.350
 7528POPC   NC354419  26.014   8.148   5.550
 7528POPC   PO454420  26.005   8.185   5.850
 7528POPC   GL154421  26.072   8.188   6.150
 7528POPC   GL254422  26.049   8.328   6.150
 7528POPC   C1A54423  26.063   8.167   6.450
 7528POPC   D2A54424  26.018   8.196   6.750
 7528POPC   C3A54425  26.081   8.222   7.050
 7528POPC   C4A54426  26.049   8.194   7.350
 7528POPC   C1B54427  26.077   8.421   6.450
 7528POPC   C2B54428  26.053   8.415   6.750
 7528POPC   C3B54429  26.021   8.477   7.050
 7528POPC   C4B54430  26.021   8.430   7.350
 7529POPC   NC354431  39.231  32.990   5.550
 7529POPC   PO454432  39.249  33.007   5.850
 7529POPC   GL154433  39.214  33.006   6.150
 7529POPC   GL254434  39.101  33.081   6.150
 7529POPC   C1A54435  39.183  33.067   6.450
 7529POPC   D2A54436  39.198  32.987   6.750
 7529POPC   C3A54437  39.253  33.009   7.050
 7529POPC   C4A54438  39.280  33.040   7.350
 7529POPC   C1B54439  38.944  33.061   6.450
 7529POPC   C2B54440  39.032  33.124   6.750
 7529POPC   C3B54441  39.007  33.074   7.050
 7529POPC   C4B54442  38.968  33.082   7.350
 7530POPC   NC354443  26.042  23.682   5.550
 7530POPC   PO454444  26.086  23.746   5.850
 7530POPC   GL154445  26.034  23.684   6.150
 7530POPC   GL254446  25.916  23.765   6.150
 7530POPC   C1A54447  26.057  23.738   6.450
 7530POPC   D2A54448  26.010  23.716   6.750
 7530POPC   C3A54449  26.022  23.718   7.050
 7530POPC   C4A54450  26.071  23.701   7.350
 7530POPC   C1B54451  25.818  23.811   6.450
 7530POPC   C2B54452  25.854  23.861   6.750
 7530POPC   C3B54453  25.837  23.817   7.050
 7530POPC   C4B54454  25.830  23.855   7.350
 7531POPC   NC354455   0.485  13.641   5.550
 7531POPC   PO454456   0.402  13.658   5.850
 7531POPC   GL154457   0.421  13.655   6.150
 7531POPC   GL254458   0.496  13.670   6.150
 7531POPC   C1A54459   0.414  13.640   6.450
 7531POPC   D2A54460   0.400  13.604   6.750
 7531POPC   C3A54461   0.417  13.625   7.050
 7531POPC   C4A54462   0.477  13.598   7.350
 7531POPC   C1B54463   0.663  13.768   6.450
 7531POPC   C2B54464   0.644  13.705   6.750
 7531POPC   C3B54465   0.675  13.734   7.050
 7531POPC   C4B54466   0.626  13.718   7.350
 7532POPC   NC354467  35.320   3.493   5.550
 7532POPC   PO454468  35.318   3.538   5.850
 7532POPC   GL154469  35.402   3.515   6.150
 7532POPC   GL254470  35.253   3.446   6.150
 7532POPC   C1A54471  35.335   3.586   6.450
 7532POPC   D2A54472  35.396   3.565   6.750
 7532POPC   C3A54473  35.373   3.520   7.050
 7532POPC   C4A54474  35.350   3.570   7.350
 7532POPC   C1B54475  35.172   3.418   6.450
 7532POPC   C2B54476  35.085   3.469   6.750
 7532POPC   C3B54477  35.129   3.423   7.050
 7532POPC   C4B54478  35.108   3.421   7.350
 7533POPC   NC354479  36.882   2.754   5.550
 7533POPC   PO454480  36.904   2.806   5.850
 7533POPC   GL154481  36.876   2.766   6.150
 7533POPC   GL254482  37.046   2.768   6.150
 7533POPC   C1A54483  36.935   2.793   6.450
 7533POPC   D2A54484  36.912   2.779   6.750
 7533POPC   C3A54485  36.874   2.757   7.050
 7533POPC   C4A54486  36.918   2.719   7.350
 7533POPC   C1B54487  37.183   2.776   6.450
 7533POPC   C2B54488  37.189   2.816   6.750
 7533POPC   C3B54489  37.149   2.753   7.050
 7533POPC   C4B54490  37.193   2.762   7.350
 7534POPC   NC354491  11.287  36.892   5.550
 7534POPC   PO454492  11.278  36.943   5.850
 7534POPC   GL154493  11.297  36.914   6.150
 7534POPC   GL254494  11.168  36.914   6.150
 7534POPC   C1A54495  11.270  36.940   6.450
 7534POPC   D2A54496  11.254  36.953   6.750
 7534POPC   C3A54497  11.318  36.911   7.050
 7534POPC   C4A54498  11.307  36.884   7.350
 7534POPC   C1B54499  11.039  36.991   6.450
 7534POPC   C2B54500  11.064  36.975   6.750
 7534POPC   C3B54501  11.063  36.970   7.050
 7534POPC   C4B54502  11.119  36.981   7.350
 7535POPC   NC354503  17.552  33.797   5.550
 7535POPC   PO454504  17.499  33.833   5.850
 7535POPC   GL154505  17.513  33.824   6.150
 7535POPC   GL254506  17.396  33.813   6.150
 7535POPC   C1A54507  17.459  33.835   6.450
 7535POPC   D2A54508  17.542  33.792   6.750
 7535POPC   C3A54509  17.479  33.813   7.050
 7535POPC   C4A54510  17.488  33.832   7.350
 7535POPC   C1B54511  17.277  33.821   6.450
 7535POPC   C2B54512  17.234  33.826   6.750
 7535POPC   C3B54513  17.235  33.853   7.050
 7535POPC   C4B54514  17.296  33.834   7.350
 7536POPC   NC354515  11.262   3.559   5.550
 7536POPC   PO454516  11.302   3.566   5.850
 7536POPC   GL154517  11.256   3.505   6.150
 7536POPC   GL254518  11.345   3.426   6.150
 7536POPC   C1A54519  11.269   3.519   6.450
 7536POPC   D2A54520  11.302   3.563   6.750
 7536POPC   C3A54521  11.306   3.571   7.050
 7536POPC   C4A54522  11.326   3.579   7.350
 7536POPC   C1B54523  11.461   3.333   6.450
 7536POPC   C2B54524  11.475   3.334   6.750
 7536POPC   C3B54525  11.528   3.347   7.050
 7536POPC   C4B54526  11.523   3.363   7.350
 7537POPC   NC354527   8.242  18.277   5.550
 7537POPC   PO454528   8.242  18.306   5.850
 7537POPC   GL154529   8.206  18.303   6.150
 7537POPC   GL254530   8.118  18.405   6.150
 7537POPC   C1A54531   8.152  18.329   6.450
 7537POPC   D2A54532   8.175  18.244   6.750
 7537POPC   C3A54533   8.183  18.268   7.050
 7537POPC   C4A54534   8.149  18.242   7.350
 7537POPC   C1B54535   8.002  18.477   6.450
 7537POPC   C2B54536   8.054  18.434   6.750
 7537POPC   C3B54537   8.017  18.434   7.050
 7537POPC   C4B54538   8.026  18.460   7.350
 7538POPC   NC354539  27.591  22.156   5.550
 7538POPC   PO454540  27.634  22.147   5.850
 7538POPC   GL154541  27.545  22.148   6.150
 7538POPC   GL254542  27.527  22.004   6.150
 7538POPC   C1A54543  27.594  22.198   6.450
 7538POPC   D2A54544  27.630  22.187   6.750
 7538POPC   C3A54545  27.558  22.135   7.050
 7538POPC   C4A54546  27.569  22.143   7.350
 7538POPC   C1B54547  27.594  21.931   6.450
 7538POPC   C2B54548  27.560  21.899   6.750
 7538POPC   C3B54549  27.540  21.953   7.050
 7538POPC   C4B54550  27.522  21.936   7.350
 7539POPC   NC354551   7.380  31.468   5.550
 7539POPC   PO454552   7.397  31.496   5.850
 7539POPC   GL154553   7.394  31.447   6.150
 7539POPC   GL254554   7.392  31.589   6.150
 7539POPC   C1A54555   7.395  31.432   6.450
 7539POPC   D2A54556   7.446  31.449   6.750
 7539POPC   C3A54557   7.386  31.426   7.050
 7539POPC   C4A54558   7.447  31.425   7.350
 7539POPC   C1B54559   7.419  31.679   6.450
 7539POPC   C2B54560   7.413  31.746   6.750
 7539POPC   C3B54561   7.498  31.722   7.050
 7539POPC   C4B54562   7.417  31.696   7.350
 7540POPC   NC354563  25.275  33.014   5.550
 7540POPC   PO454564  25.313  33.061   5.850
 7540POPC   GL154565  25.307  33.061   6.150
 7540POPC   GL254566  25.177  32.948   6.150
 7540POPC   C1A54567  25.241  33.003   6.450
 7540POPC   D2A54568  25.281  33.025   6.750
 7540POPC   C3A54569  25.229  32.983   7.050
 7540POPC   C4A54570  25.225  33.044   7.350
 7540POPC   C1B54571  25.138  32.866   6.450
 7540POPC   C2B54572  25.053  32.824   6.750
 7540POPC   C3B54573  25.060  32.873   7.050
 7540POPC   C4B54574  25.096  32.845   7.350
 7541POPC   NC354575  12.070  37.696   5.550
 7541POPC   PO454576  12.067  37.658   5.850
 7541POPC   GL154577  12.040  37.699   6.150
 7541POPC   GL254578  12.234  37.658   6.150
 7541POPC   C1A54579  12.114  37.660   6.450
 7541POPC   D2A54580  12.087  37.717   6.750
 7541POPC   C3A54581  12.041  37.646   7.050
 7541POPC   C4A54582  12.057  37.630   7.350
 7541POPC   C1B54583  12.301  37.612   6.450
 7541POPC   C2B54584  12.312  37.629   6.750
 7541POPC   C3B54585  12.359  37.689   7.050
 7541POPC   C4B54586  12.335  37.680   7.350
 7542POPC   NC354587  32.214  25.290   5.550
 7542POPC   PO454588  32.199  25.264   5.850
 7542POPC   GL154589  32.239  25.232   6.150
 7542POPC   GL254590  32.323  25.353   6.150
 7542POPC   C1A54591  32.258  25.299   6.450
 7542POPC   D2A54592  32.274  25.315   6.750
 7542POPC   C3A54593  32.283  25.274   7.050
 7542POPC   C4A54594  32.232  25.310   7.350
 7542POPC   C1B54595  32.422  25.384   6.450
 7542POPC   C2B54596  32.465  25.414   6.750
 7542POPC   C3B54597  32.477  25.403   7.050
 7542POPC   C4B54598  32.482  25.398   7.350
 7543POPC   NC354599  12.035  18.248   5.550
 7543POPC   PO454600  12.031  18.240   5.850
 7543POPC   GL154601  12.062  18.301   6.150
 7543POPC   GL254602  11.987  18.328   6.150
 7543POPC   C1A54603  12.057  18.255   6.450
 7543POPC   D2A54604  12.095  18.258   6.750
 7543POPC   C3A54605  12.082  18.272   7.050
 7543POPC   C4A54606  12.030  18.277   7.350
 7543POPC   C1B54607  11.845  18.335   6.450
 7543POPC   C2B54608  11.814  18.300   6.750
 7543POPC   C3B54609  11.810  18.293   7.050
 7543POPC   C4B54610  11.878  18.307   7.350
 7544POPC   NC354611   1.202  26.018   5.550
 7544POPC   PO454612   1.252  26.071   5.850
 7544POPC   GL154613   1.178  26.025   6.150
 7544POPC   GL254614   1.341  25.914   6.150
 7544POPC   C1A54615   1.242  26.024   6.450
 7544POPC   D2A54616   1.182  26.036   6.750
 7544POPC   C3A54617   1.195  26.091   7.050
 7544POPC   C4A54618   1.220  26.063   7.350
 7544POPC   C1B54619   1.363  25.896   6.450
 7544POPC   C2B54620   1.336  25.832   6.750
 7544POPC   C3B54621   1.377  25.817   7.050
 7544POPC   C4B54622   1.398  25.816   7.350
 7545POPC   NC354623  18.234  23.725   5.550
 7545POPC   PO454624  18.253  23.740   5.850
 7545POPC   GL154625  18.245  23.736   6.150
 7545POPC   GL254626  18.192  23.636   6.150
 7545POPC   C1A54627  18.245  23.755   6.450
 7545POPC   D2A54628  18.317  23.759   6.750
 7545POPC   C3A54629  18.296  23.690   7.050
 7545POPC   C4A54630  18.245  23.702   7.350
 7545POPC   C1B54631  18.088  23.486   6.450
 7545POPC   C2B54632  18.144  23.534   6.750
 7545POPC   C3B54633  18.105  23.474   7.050
 7545POPC   C4B54634  18.148  23.475   7.350
 7546POPC   NC354635  29.885  19.821   5.550
 7546POPC   PO454636  29.881  19.798   5.850
 7546POPC   GL154637  29.886  19.874   6.150
 7546POPC   GL254638  29.981  19.900   6.150
 7546POPC   C1A54639  29.905  19.851   6.450
 7546POPC   D2A54640  29.912  19.804   6.750
 7546POPC   C3A54641  29.878  19.845   7.050
 7546POPC   C4A54642  29.929  19.789   7.350
 7546POPC   C1B54643  30.081  19.994   6.450
 7546POPC   C2B54644  30.027  20.083   6.750
 7546POPC   C3B54645  30.027  19.996   7.050
 7546POPC   C4B54646  30.108  20.021   7.350
 7547POPC   NC354647  30.682   2.002   5.550
 7547POPC   PO454648  30.650   2.036   5.850
 7547POPC   GL154649  30.657   1.982   6.150
 7547POPC   GL254650  30.823   1.958   6.150
 7547POPC   C1A54651  30.718   2.021   6.450
 7547POPC   D2A54652  30.670   1.968   6.750
 7547POPC   C3A54653  30.666   1.948   7.050
 7547POPC   C4A54654  30.713   1.972   7.350
 7547POPC   C1B54655  30.906   1.859   6.450
 7547POPC   C2B54656  30.915   1.859   6.750
 7547POPC   C3B54657  30.942   1.881   7.050
 7547POPC   C4B54658  30.867   1.804   7.350
 7548POPC   NC354659  23.719  34.581   5.550
 7548POPC   PO454660  23.689  34.538   5.850
 7548POPC   GL154661  23.688  34.595   6.150
 7548POPC   GL254662  23.561  34.617   6.150
 7548POPC   C1A54663  23.757  34.563   6.450
 7548POPC   D2A54664  23.763  34.557   6.750
 7548POPC   C3A54665  23.740  34.609   7.050
 7548POPC   C4A54666  23.761  34.549   7.350
 7548POPC   C1B54667  23.506  34.528   6.450
 7548POPC   C2B54668  23.491  34.513   6.750
 7548POPC   C3B54669  23.442  34.541   7.050
 7548POPC   C4B54670  23.462  34.521   7.350
 7549POPC   NC354671  37.697  16.736   5.550
 7549POPC   PO454672  37.712  16.684   5.850
 7549POPC   GL154673  37.664  16.746   6.150
 7549POPC   GL254674  37.680  16.563   6.150
 7549POPC   C1A54675  37.647  16.730   6.450
 7549POPC   D2A54676  37.693  16.772   6.750
 7549POPC   C3A54677  37.665  16.763   7.050
 7549POPC   C4A54678  37.670  16.695   7.350
 7549POPC   C1B54679  37.751  16.437   6.450
 7549POPC   C2B54680  37.771  16.499   6.750
 7549POPC   C3B54681  37.765  16.488   7.050
 7549POPC   C4B54682  37.708  16.487   7.350
 7550POPC   NC354683  23.744  16.703   5.550
 7550POPC   PO454684  23.689  16.758   5.850
 7550POPC   GL154685  23.688  16.780   6.150
 7550POPC   GL254686  23.582  16.744   6.150
 7550POPC   C1A54687  23.711  16.770   6.450
 7550POPC   D2A54688  23.730  16.770   6.750
 7550POPC   C3A54689  23.730  16.717   7.050
 7550POPC   C4A54690  23.695  16.696   7.350
 7550POPC   C1B54691  23.433  16.722   6.450
 7550POPC   C2B54692  23.473  16.768   6.750
 7550POPC   C3B54693  23.424  16.768   7.050
 7550POPC   C4B54694  23.482  16.706   7.350
 7551POPC   NC354695  34.545  28.370   5.550
 7551POPC   PO454696  34.528  28.380   5.850
 7551POPC   GL154697  34.580  28.350   6.150
 7551POPC   GL254698  34.498  28.454   6.150
 7551POPC   C1A54699  34.601  28.327   6.450
 7551POPC   D2A54700  34.570  28.407   6.750
 7551POPC   C3A54701  34.597  28.361   7.050
 7551POPC   C4A54702  34.540  28.397   7.350
 7551POPC   C1B54703  34.361  28.528   6.450
 7551POPC   C2B54704  34.371  28.538   6.750
 7551POPC   C3B54705  34.373  28.480   7.050
 7551POPC   C4B54706  34.370  28.506   7.350
 7552POPC   NC354707   5.074   8.225   5.550
 7552POPC   PO454708   5.048   8.238   5.850
 7552POPC   GL154709   5.135   8.174   6.150
 7552POPC   GL254710   5.123   8.091   6.150
 7552POPC   C1A54711   5.059   8.231   6.450
 7552POPC   D2A54712   5.078   8.209   6.750
 7552POPC   C3A54713   5.116   8.243   7.050
 7552POPC   C4A54714   5.068   8.222   7.350
 7552POPC   C1B54715   5.125   7.922   6.450
 7552POPC   C2B54716   5.147   7.900   6.750
 7552POPC   C3B54717   5.104   7.997   7.050
 7552POPC   C4B54718   5.079   7.975   7.350
 7553POPC   NC354719  29.139  36.138   5.550
 7553POPC   PO454720  29.143  36.086   5.850
 7553POPC   GL154721  29.151  36.129   6.150
 7553POPC   GL254722  29.053  36.279   6.150
 7553POPC   C1A54723  29.141  36.151   6.450
 7553POPC   D2A54724  29.140  36.107   6.750
 7553POPC   C3A54725  29.109  36.088   7.050
 7553POPC   C4A54726  29.105  36.119   7.350
 7553POPC   C1B54727  29.013  36.384   6.450
 7553POPC   C2B54728  29.048  36.323   6.750
 7553POPC   C3B54729  28.977  36.374   7.050
 7553POPC   C4B54730  29.023  36.316   7.350
 7554POPC   NC354731  12.862  34.533   5.550
 7554POPC   PO454732  12.821  34.579   5.850
 7554POPC   GL154733  12.897  34.595   6.150
 7554POPC   GL254734  12.730  34.532   6.150
 7554POPC   C1A54735  12.852  34.530   6.450
 7554POPC   D2A54736  12.840  34.574   6.750
 7554POPC   C3A54737  12.806  34.527   7.050
 7554POPC   C4A54738  12.889  34.542   7.350
 7554POPC   C1B54739  12.630  34.546   6.450
 7554POPC   C2B54740  12.558  34.592   6.750
 7554POPC   C3B54741  12.556  34.562   7.050
 7554POPC   C4B54742  12.608  34.575   7.350
 7555POPC   NC354743  26.772   3.524   5.550
 7555POPC   PO454744  26.855   3.500   5.850
 7555POPC   GL154745  26.792   3.580   6.150
 7555POPC   GL254746  26.909   3.605   6.150
 7555POPC   C1A54747  26.813   3.550   6.450
 7555POPC   D2A54748  26.782   3.504   6.750
 7555POPC   C3A54749  26.787   3.521   7.050
 7555POPC   C4A54750  26.803   3.565   7.350
 7555POPC   C1B54751  27.013   3.672   6.450
 7555POPC   C2B54752  27.091   3.592   6.750
 7555POPC   C3B54753  27.060   3.627   7.050
 7555POPC   C4B54754  27.092   3.661   7.350
 7556POPC   NC354755  29.128  19.805   5.550
 7556POPC   PO454756  29.125  19.843   5.850
 7556POPC   GL154757  29.151  19.814   6.150
 7556POPC   GL254758  29.138  19.973   6.150
 7556POPC   C1A54759  29.111  19.869   6.450
 7556POPC   D2A54760  29.185  19.815   6.750
 7556POPC   C3A54761  29.124  19.796   7.050
 7556POPC   C4A54762  29.121  19.858   7.350
 7556POPC   C1B54763  29.184  20.039   6.450
 7556POPC   C2B54764  29.158  20.091   6.750
 7556POPC   C3B54765  29.136  20.089   7.050
 7556POPC   C4B54766  29.181  20.040   7.350
 7557POPC   NC354767  22.207  24.530   5.550
 7557POPC   PO454768  22.168  24.485   5.850
 7557POPC   GL154769  22.210  24.529   6.150
 7557POPC   GL254770  22.206  24.332   6.150
 7557POPC   C1A54771  22.191  24.539   6.450
 7557POPC   D2A54772  22.119  24.504   6.750
 7557POPC   C3A54773  22.133  24.488   7.050
 7557POPC   C4A54774  22.193  24.479   7.350
 7557POPC   C1B54775  22.158  24.246   6.450
 7557POPC   C2B54776  22.209  24.202   6.750
 7557POPC   C3B54777  22.175  24.268   7.050
 7557POPC   C4B54778  22.215  24.276   7.350
 7558POPC   NC354779   0.424   1.170   5.550
 7558POPC   PO454780   0.441   1.190   5.850
 7558POPC   GL154781   0.486   1.176   6.150
 7558POPC   GL254782   0.512   1.176   6.150
 7558POPC   C1A54783   0.464   1.221   6.450
 7558POPC   D2A54784   0.398   1.187   6.750
 7558POPC   C3A54785   0.399   1.182   7.050
 7558POPC   C4A54786   0.427   1.245   7.350
 7558POPC   C1B54787   0.693   1.150   6.450
 7558POPC   C2B54788   0.664   1.169   6.750
 7558POPC   C3B54789   0.705   1.178   7.050
 7558POPC   C4B54790   0.717   1.110   7.350
 7559POPC   NC354791  25.275  28.380   5.550
 7559POPC   PO454792  25.231  28.337   5.850
 7559POPC   GL154793  25.219  28.325   6.150
 7559POPC   GL254794  25.118  28.413   6.150
 7559POPC   C1A54795  25.290  28.360   6.450
 7559POPC   D2A54796  25.270  28.321   6.750
 7559POPC   C3A54797  25.219  28.394   7.050
 7559POPC   C4A54798  25.272  28.359   7.350
 7559POPC   C1B54799  24.993  28.340   6.450
 7559POPC   C2B54800  24.990  28.373   6.750
 7559POPC   C3B54801  24.982  28.364   7.050
 7559POPC   C4B54802  25.013  28.344   7.350
 7560POPC   NC354803   4.278  42.338   5.550
 7560POPC   PO454804   4.303  42.309   5.850
 7560POPC   GL154805   4.317  42.336   6.150
 7560POPC   GL254806   4.179  42.389   6.150
 7560POPC   C1A54807   4.313  42.327   6.450
 7560POPC   D2A54808   4.290  42.331   6.750
 7560POPC   C3A54809   4.328  42.346   7.050
 7560POPC   C4A54810   4.310  42.342   7.350
 7560POPC   C1B54811   4.070  42.420   6.450
 7560POPC   C2B54812   4.099  42.471   6.750
 7560POPC   C3B54813   4.055  42.486   7.050
 7560POPC   C4B54814   4.118  42.404   7.350
 7561POPC   NC354815  37.673  31.521   5.550
 7561POPC   PO454816  37.723  31.463   5.850
 7561POPC   GL154817  37.672  31.502   6.150
 7561POPC   GL254818  37.529  31.541   6.150
 7561POPC   C1A54819  37.632  31.448   6.450
 7561POPC   D2A54820  37.672  31.490   6.750
 7561POPC   C3A54821  37.717  31.433   7.050
 7561POPC   C4A54822  37.631  31.462   7.350
 7561POPC   C1B54823  37.432  31.601   6.450
 7561POPC   C2B54824  37.489  31.590   6.750
 7561POPC   C3B54825  37.475  31.568   7.050
 7561POPC   C4B54826  37.462  31.644   7.350
 7562POPC   NC354827   3.496  34.578   5.550
 7562POPC   PO454828   3.574  34.544   5.850
 7562POPC   GL154829   3.541  34.618   6.150
 7562POPC   GL254830   3.429  34.577   6.150
 7562POPC   C1A54831   3.580  34.577   6.450
 7562POPC   D2A54832   3.498  34.597   6.750
 7562POPC   C3A54833   3.531  34.546   7.050
 7562POPC   C4A54834   3.571  34.531   7.350
 7562POPC   C1B54835   3.293  34.669   6.450
 7562POPC   C2B54836   3.337  34.686   6.750
 7562POPC   C3B54837   3.318  34.681   7.050
 7562POPC   C4B54838   3.282  34.630   7.350
 7563POPC   NC354839   4.358   2.726   5.550
 7563POPC   PO454840   4.298   2.799   5.850
 7563POPC   GL154841   4.273   2.740   6.150
 7563POPC   GL254842   4.376   2.648   6.150
 7563POPC   C1A54843   4.324   2.726   6.450
 7563POPC   D2A54844   4.322   2.781   6.750
 7563POPC   C3A54845   4.293   2.775   7.050
 7563POPC   C4A54846   4.276   2.789   7.350
 7563POPC   C1B54847   4.370   2.476   6.450
 7563POPC   C2B54848   4.359   2.497   6.750
 7563POPC   C3B54849   4.307   2.516   7.050
 7563POPC   C4B54850   4.363   2.487   7.350
 7564POPC   NC354851  36.875   9.704   5.550
 7564POPC   PO454852  36.948   9.771   5.850
 7564POPC   GL154853  36.935   9.774   6.150
 7564POPC   GL254854  36.827   9.832   6.150
 7564POPC   C1A54855  36.938   9.720   6.450
 7564POPC   D2A54856  36.911   9.777   6.750
 7564POPC   C3A54857  36.892   9.750   7.050
 7564POPC   C4A54858  36.889   9.793   7.350
 7564POPC   C1B54859  36.790   9.938   6.450
 7564POPC   C2B54860  36.732   9.961   6.750
 7564POPC   C3B54861  36.728   9.968   7.050
 7564POPC   C4B54862  36.801   9.986   7.350
 7565POPC   NC354863  15.131  26.015   5.550
 7565POPC   PO454864  15.189  26.012   5.850
 7565POPC   GL154865  15.216  25.993   6.150
 7565POPC   GL254866  15.094  26.017   6.150
 7565POPC   C1A54867  15.195  26.021   6.450
 7565POPC   D2A54868  15.216  26.085   6.750
 7565POPC   C3A54869  15.225  26.024   7.050
 7565POPC   C4A54870  15.179  26.059   7.350
 7565POPC   C1B54871  14.933  26.001   6.450
 7565POPC   C2B54872  14.970  25.971   6.750
 7565POPC   C3B54873  14.979  26.037   7.050
 7565POPC   C4B54874  14.967  25.953   7.350
 7566POPC   NC354875  18.276   7.443   5.550
 7566POPC   PO454876  18.269   7.467   5.850
 7566POPC   GL154877  18.308   7.395   6.150
 7566POPC   GL254878  18.274   7.285   6.150
 7566POPC   C1A54879  18.286   7.455   6.450
 7566POPC   D2A54880  18.272   7.442   6.750
 7566POPC   C3A54881  18.245   7.463   7.050
 7566POPC   C4A54882  18.261   7.385   7.350
 7566POPC   C1B54883  18.361   7.227   6.450
 7566POPC   C2B54884  18.378   7.225   6.750
 7566POPC   C3B54885  18.359   7.177   7.050
 7566POPC   C4B54886  18.378   7.162   7.350
 7567POPC   NC354887   2.757  42.345   5.550
 7567POPC   PO454888   2.791  42.379   5.850
 7567POPC   GL154889   2.764  42.370   6.150
 7567POPC   GL254890   2.903  42.433   6.150
 7567POPC   C1A54891   2.788  42.364   6.450
 7567POPC   D2A54892   2.803  42.352   6.750
 7567POPC   C3A54893   2.745  42.310   7.050
 7567POPC   C4A54894   2.785  42.294   7.350
 7567POPC   C1B54895   2.991  42.452   6.450
 7567POPC   C2B54896   3.009  42.506   6.750
 7567POPC   C3B54897   2.984  42.446   7.050
 7567POPC   C4B54898   2.919  42.505   7.350
 7568POPC   NC354899   7.470   0.445   5.550
 7568POPC   PO454900   7.395   0.472   5.850
 7568POPC   GL154901   7.404   0.440   6.150
 7568POPC   GL254902   7.519   0.422   6.150
 7568POPC   C1A54903   7.445   0.463   6.450
 7568POPC   D2A54904   7.423   0.393   6.750
 7568POPC   C3A54905   7.371   0.478   7.050
 7568POPC   C4A54906   7.405   0.418   7.350
 7568POPC   C1B54907   7.626   0.405   6.450
 7568POPC   C2B54908   7.654   0.434   6.750
 7568POPC   C3B54909   7.642   0.438   7.050
 7568POPC   C4B54910   7.718   0.439   7.350
 7569POPC   NC354911  32.987  22.978   5.550
 7569POPC   PO454912  33.015  22.928   5.850
 7569POPC   GL154913  33.044  22.948   6.150
 7569POPC   GL254914  32.986  23.032   6.150
 7569POPC   C1A54915  32.992  22.918   6.450
 7569POPC   D2A54916  33.050  22.904   6.750
 7569POPC   C3A54917  33.030  22.948   7.050
 7569POPC   C4A54918  32.999  22.916   7.350
 7569POPC   C1B54919  33.031  23.225   6.450
 7569POPC   C2B54920  33.030  23.228   6.750
 7569POPC   C3B54921  32.972  23.213   7.050
 7569POPC   C4B54922  33.017  23.168   7.350
 7570POPC   NC354923  36.862  31.440   5.550
 7570POPC   PO454924  36.948  31.470   5.850
 7570POPC   GL154925  36.908  31.455   6.150
 7570POPC   GL254926  36.931  31.598   6.150
 7570POPC   C1A54927  36.876  31.440   6.450
 7570POPC   D2A54928  36.925  31.471   6.750
 7570POPC   C3A54929  36.930  31.483   7.050
 7570POPC   C4A54930  36.901  31.429   7.350
 7570POPC   C1B54931  37.018  31.702   6.450
 7570POPC   C2B54932  37.029  31.703   6.750
 7570POPC   C3B54933  36.982  31.692   7.050
 7570POPC   C4B54934  36.988  31.689   7.350
 7571POPC   NC354935   1.238   7.426   5.550
 7571POPC   PO454936   1.245   7.408   5.850
 7571POPC   GL154937   1.223   7.437   6.150
 7571POPC   GL254938   1.111   7.527   6.150
 7571POPC   C1A54939   1.172   7.397   6.450
 7571POPC   D2A54940   1.172   7.455   6.750
 7571POPC   C3A54941   1.166   7.453   7.050
 7571POPC   C4A54942   1.255   7.448   7.350
 7571POPC   C1B54943   1.044   7.555   6.450
 7571POPC   C2B54944   1.008   7.523   6.750
 7571POPC   C3B54945   0.973   7.578   7.050
 7571POPC   C4B54946   1.023   7.541   7.350
 7572POPC   NC354947  12.900  19.828   5.550
 7572POPC   PO454948  12.899  19.857   5.850
 7572POPC   GL154949  12.834  19.832   6.150
 7572POPC   GL254950  12.722  19.807   6.150
 7572POPC   C1A54951  12.807  19.877   6.450
 7572POPC   D2A54952  12.872  19.877   6.750
 7572POPC   C3A54953  12.806  19.870   7.050
 7572POPC   C4A54954  12.843  19.854   7.350
 7572POPC   C1B54955  12.647  19.889   6.450
 7572POPC   C2B54956  12.557  19.840   6.750
 7572POPC   C3B54957  12.634  19.852   7.050
 7572POPC   C4B54958  12.588  19.846   7.350
 7573POPC   NC354959  37.701  39.279   5.550
 7573POPC   PO454960  37.668  39.222   5.850
 7573POPC   GL154961  37.715  39.207   6.150
 7573POPC   GL254962  37.829  39.247   6.150
 7573POPC   C1A54963  37.671  39.243   6.450
 7573POPC   D2A54964  37.658  39.269   6.750
 7573POPC   C3A54965  37.659  39.202   7.050
 7573POPC   C4A54966  37.671  39.268   7.350
 7573POPC   C1B54967  37.896  39.284   6.450
 7573POPC   C2B54968  37.959  39.348   6.750
 7573POPC   C3B54969  37.936  39.357   7.050
 7573POPC   C4B54970  37.870  39.358   7.350
 7574POPC   NC354971   2.785  11.258   5.550
 7574POPC   PO454972   2.743  11.269   5.850
 7574POPC   GL154973   2.757  11.254   6.150
 7574POPC   GL254974   2.849  11.257   6.150
 7574POPC   C1A54975   2.774  11.260   6.450
 7574POPC   D2A54976   2.810  11.279   6.750
 7574POPC   C3A54977   2.738  11.328   7.050
 7574POPC   C4A54978   2.728  11.255   7.350
 7574POPC   C1B54979   2.919  11.169   6.450
 7574POPC   C2B54980   2.990  11.159   6.750
 7574POPC   C3B54981   3.005  11.156   7.050
 7574POPC   C4B54982   2.996  11.130   7.350
 7575POPC   NC354983  28.403   0.457   5.550
 7575POPC   PO454984  28.388   0.410   5.850
 7575POPC   GL154985  28.409   0.393   6.150
 7575POPC   GL254986  28.461   0.519   6.150
 7575POPC   C1A54987  28.395   0.435   6.450
 7575POPC   D2A54988  28.327   0.428   6.750
 7575POPC   C3A54989  28.405   0.484   7.050
 7575POPC   C4A54990  28.396   0.398   7.350
 7575POPC   C1B54991  28.483   0.688   6.450
 7575POPC   C2B54992  28.497   0.650   6.750
 7575POPC   C3B54993  28.438   0.688   7.050
 7575POPC   C4B54994  28.431   0.628   7.350
 7576POPC   NC354995   1.949  29.927   5.550
 7576POPC   PO454996   1.970  29.897   5.850
 7576POPC   GL154997   2.012  29.942   6.150
 7576POPC   GL254998   1.901  29.780   6.150
 7576POPC   C1A54999   1.989  29.959   6.450
 7576POPC   D2A55000   1.983  29.944   6.750
 7576POPC   C3A55001   2.019  29.955   7.050
 7576POPC   C4A55002   1.974  29.885   7.350
 7576POPC   C1B55003   1.849  29.652   6.450
 7576POPC   C2B55004   1.882  29.715   6.750
 7576POPC   C3B55005   1.836  29.679   7.050
 7576POPC   C4B55006   1.842  29.656   7.350
 7577POPC   NC355007   9.717  43.119   5.550
 7577POPC   PO455008   9.768  43.082   5.850
 7577POPC   GL155009   9.725  43.095   6.150
 7577POPC   GL255010   9.719  43.184   6.150
 7577POPC   C1A55011   9.703  43.139   6.450
 7577POPC   D2A55012   9.752  43.084   6.750
 7577POPC   C3A55013   9.716  43.140   7.050
 7577POPC   C4A55014   9.760  43.128   7.350
 7577POPC   C1B55015   9.653  43.318   6.450
 7577POPC   C2B55016   9.633  43.333   6.750
 7577POPC   C3B55017   9.708  43.336   7.050
 7577POPC   C4B55018   9.676  43.345   7.350
 7578POPC   NC355019  39.971  22.986   5.550
 7578POPC   PO455020  39.998  22.917   5.850
 7578POPC   GL155021  39.977  22.975   6.150
 7578POPC   GL255022  40.013  22.806   6.150
 7578POPC   C1A55023  39.971  22.957   6.450
 7578POPC   D2A55024  40.051  22.891   6.750
 7578POPC   C3A55025  40.051  22.894   7.050
 7578POPC   C4A55026  39.971  22.985   7.350
 7578POPC   C1B55027  40.050  22.719   6.450
 7578POPC   C2B55028  40.027  22.706   6.750
 7578POPC   C3B55029  39.997  22.670   7.050
 7578POPC   C4B55030  40.023  22.657   7.350
 7579POPC   NC355031   8.175  26.832   5.550
 7579POPC   PO455032   8.196  26.795   5.850
 7579POPC   GL155033   8.154  26.846   6.150
 7579POPC   GL255034   8.274  26.787   6.150
 7579POPC   C1A55035   8.215  26.846   6.450
 7579POPC   D2A55036   8.219  26.779   6.750
 7579POPC   C3A55037   8.206  26.780   7.050
 7579POPC   C4A55038   8.152  26.767   7.350
 7579POPC   C1B55039   8.453  26.715   6.450
 7579POPC   C2B55040   8.382  26.669   6.750
 7579POPC   C3B55041   8.442  26.687   7.050
 7579POPC   C4B55042   8.404  26.659   7.350
 7580POPC   NC355043  12.092  10.490   5.550
 7580POPC   PO455044  12.043  10.526   5.850
 7580POPC   GL155045  12.077  10.515   6.150
 7580POPC   GL255046  12.031  10.612   6.150
 7580POPC   C1A55047  12.050  10.538   6.450
 7580POPC   D2A55048  12.055  10.547   6.750
 7580POPC   C3A55049  12.081  10.527   7.050
 7580POPC   C4A55050  12.070  10.521   7.350
 7580POPC   C1B55051  11.952  10.698   6.450
 7580POPC   C2B55052  11.926  10.722   6.750
 7580POPC   C3B55053  11.909  10.747   7.050
 7580POPC   C4B55054  11.867  10.730   7.350
 7581POPC   NC355055  38.436   0.401   5.550
 7581POPC   PO455056  38.415   0.422   5.850
 7581POPC   GL155057  38.448   0.402   6.150
 7581POPC   GL255058  38.473   0.513   6.150
 7581POPC   C1A55059  38.422   0.401   6.450
 7581POPC   D2A55060  38.461   0.404   6.750
 7581POPC   C3A55061  38.469   0.415   7.050
 7581POPC   C4A55062  38.486   0.390   7.350
 7581POPC   C1B55063  38.396   0.705   6.450
 7581POPC   C2B55064  38.380   0.715   6.750
 7581POPC   C3B55065  38.435   0.632   7.050
 7581POPC   C4B55066  38.378   0.698   7.350
 7582POPC   NC355067  39.970   7.386   5.550
 7582POPC   PO455068  40.044   7.382   5.850
 7582POPC   GL155069  39.974   7.426   6.150
 7582POPC   GL255070  40.078   7.302   6.150
 7582POPC   C1A55071  40.038   7.466   6.450
 7582POPC   D2A55072  40.046   7.402   6.750
 7582POPC   C3A55073  40.004   7.430   7.050
 7582POPC   C4A55074  40.034   7.443   7.350
 7582POPC   C1B55075  40.168   7.208   6.450
 7582POPC   C2B55076  40.205   7.226   6.750
 7582POPC   C3B55077  40.188   7.244   7.050
 7582POPC   C4B55078  40.195   7.284   7.350
 7583POPC   NC355079  32.995  10.545   5.550
 7583POPC   PO455080  33.000  10.530   5.850
 7583POPC   GL155081  32.979  10.543   6.150
 7583POPC   GL255082  33.040  10.376   6.150
 7583POPC   C1A55083  33.004  10.544   6.450
 7583POPC   D2A55084  33.046  10.534   6.750
 7583POPC   C3A55085  33.071  10.555   7.050
 7583POPC   C4A55086  33.056  10.489   7.350
 7583POPC   C1B55087  33.012  10.313   6.450
 7583POPC   C2B55088  32.989  10.312   6.750
 7583POPC   C3B55089  33.015  10.315   7.050
 7583POPC   C4B55090  32.980  10.238   7.350
 7584POPC   NC355091  27.558   7.452   5.550
 7584POPC   PO455092  27.594   7.392   5.850
 7584POPC   GL155093  27.587   7.436   6.150
 7584POPC   GL255094  27.536   7.452   6.150
 7584POPC   C1A55095  27.595   7.462   6.450
 7584POPC   D2A55096  27.634   7.401   6.750
 7584POPC   C3A55097  27.606   7.445   7.050
 7584POPC   C4A55098  27.586   7.462   7.350
 7584POPC   C1B55099  27.363   7.559   6.450
 7584POPC   C2B55100  27.402   7.614   6.750
 7584POPC   C3B55101  27.427   7.622   7.050
 7584POPC   C4B55102  27.441   7.580   7.350
 7585POPC   NC355103  26.842  32.217   5.550
 7585POPC   PO455104  26.827  32.215   5.850
 7585POPC   GL155105  26.791  32.221   6.150
 7585POPC   GL255106  26.974  32.258   6.150
 7585POPC   C1A55107  26.822  32.211   6.450
 7585POPC   D2A55108  26.866  32.210   6.750
 7585POPC   C3A55109  26.803  32.199   7.050
 7585POPC   C4A55110  26.815  32.278   7.350
 7585POPC   C1B55111  27.114  32.209   6.450
 7585POPC   C2B55112  27.016  32.184   6.750
 7585POPC   C3B55113  27.017  32.217   7.050
 7585POPC   C4B55114  27.040  32.215   7.350
 7586POPC   NC355115   2.746   1.182   5.550
 7586POPC   PO455116   2.725   1.192   5.850
 7586POPC   GL155117   2.737   1.200   6.150
 7586POPC   GL255118   2.663   1.177   6.150
 7586POPC   C1A55119   2.737   1.245   6.450
 7586POPC   D2A55120   2.808   1.230   6.750
 7586POPC   C3A55121   2.755   1.204   7.050
 7586POPC   C4A55122   2.745   1.192   7.350
 7586POPC   C1B55123   2.517   1.045   6.450
 7586POPC   C2B55124   2.552   1.120   6.750
 7586POPC   C3B55125   2.520   1.123   7.050
 7586POPC   C4B55126   2.564   1.140   7.350
 7587POPC   NC355127  10.514  19.826   5.550
 7587POPC   PO455128  10.563  19.816   5.850
 7587POPC   GL155129  10.514  19.845   6.150
 7587POPC   GL255130  10.677  19.872   6.150
 7587POPC   C1A55131  10.562  19.868   6.450
 7587POPC   D2A55132  10.480  19.802   6.750
 7587POPC   C3A55133  10.493  19.868   7.050
 7587POPC   C4A55134  10.496  19.858   7.350
 7587POPC   C1B55135  10.747  19.943   6.450
 7587POPC   C2B55136  10.784  19.962   6.750
 7587POPC   C3B55137  10.784  19.926   7.050
 7587POPC   C4B55138  10.756  19.963   7.350
 7588POPC   NC355139  19.857  28.358   5.550
 7588POPC   PO455140  19.865  28.387   5.850
 7588POPC   GL155141  19.846  28.353   6.150
 7588POPC   GL255142  19.773  28.208   6.150
 7588POPC   C1A55143  19.845  28.351   6.450
 7588POPC   D2A55144  19.837  28.383   6.750
 7588POPC   C3A55145  19.837  28.354   7.050
 7588POPC   C4A55146  19.868  28.360   7.350
 7588POPC   C1B55147  19.796  28.095   6.450
 7588POPC   C2B55148  19.758  28.136   6.750
 7588POPC   C3B55149  19.830  28.136   7.050
 7588POPC   C4B55150  19.831  28.082   7.350
 7589POPC   NC355151  22.964   4.340   5.550
 7589POPC   PO455152  22.943   4.334   5.850
 7589POPC   GL155153  22.925   4.320   6.150
 7589POPC   GL255154  22.875   4.263   6.150
 7589POPC   C1A55155  22.944   4.343   6.450
 7589POPC   D2A55156  22.923   4.315   6.750
 7589POPC   C3A55157  22.905   4.322   7.050
 7589POPC   C4A55158  22.923   4.363   7.350
 7589POPC   C1B55159  22.751   4.072   6.450
 7589POPC   C2B55160  22.816   4.077   6.750
 7589POPC   C3B55161  22.824   4.149   7.050
 7589POPC   C4B55162  22.752   4.128   7.350
 7590POPC   NC355163  44.624   2.750   5.550
 7590POPC   PO455164  44.678   2.775   5.850
 7590POPC   GL155165  44.672   2.730   6.150
 7590POPC   GL255166  44.751   2.839   6.150
 7590POPC   C1A55167  44.689   2.762   6.450
 7590POPC   D2A55168  44.614   2.795   6.750
 7590POPC   C3A55169  44.652   2.735   7.050
 7590POPC   C4A55170  44.694   2.771   7.350
 7590POPC   C1B55171  44.855   2.880   6.450
 7590POPC   C2B55172  44.927   2.849   6.750
 7590POPC   C3B55173  44.904   2.815   7.050
 7590POPC   C4B55174  44.938   2.860   7.350
 7591POPC   NC355175  43.103  26.801   5.550
 7591POPC   PO455176  43.122  26.853   5.850
 7591POPC   GL155177  43.130  26.800   6.150
 7591POPC   GL255178  43.219  26.729   6.150
 7591POPC   C1A55179  43.108  26.781   6.450
 7591POPC   D2A55180  43.094  26.781   6.750
 7591POPC   C3A55181  43.069  26.797   7.050
 7591POPC   C4A55182  43.086  26.860   7.350
 7591POPC   C1B55183  43.242  26.661   6.450
 7591POPC   C2B55184  43.298  26.635   6.750
 7591POPC   C3B55185  43.255  26.660   7.050
 7591POPC   C4B55186  43.278  26.603   7.350
 7592POPC   NC355187   9.742  24.494   5.550
 7592POPC   PO455188   9.755  24.442   5.850
 7592POPC   GL155189   9.706  24.455   6.150
 7592POPC   GL255190   9.772  24.660   6.150
 7592POPC   C1A55191   9.761  24.503   6.450
 7592POPC   D2A55192   9.730  24.485   6.750
 7592POPC   C3A55193   9.717  24.457   7.050
 7592POPC   C4A55194   9.780  24.461   7.350
 7592POPC   C1B55195   9.749  24.764   6.450
 7592POPC   C2B55196   9.772  24.714   6.750
 7592POPC   C3B55197   9.775  24.704   7.050
 7592POPC   C4B55198   9.742  24.775   7.350
 7593POPC   NC355199  35.363  15.937   5.550
 7593POPC   PO455200  35.392  15.909   5.850
 7593POPC   GL155201  35.380  15.968   6.150
 7593POPC   GL255202  35.344  15.838   6.150
 7593POPC   C1A55203  35.352  15.987   6.450
 7593POPC   D2A55204  35.379  15.991   6.750
 7593POPC   C3A55205  35.351  15.951   7.050
 7593POPC   C4A55206  35.396  15.973   7.350
 7593POPC   C1B55207  35.345  15.747   6.450
 7593POPC   C2B55208  35.347  15.728   6.750
 7593POPC   C3B55209  35.351  15.675   7.050
 7593POPC   C4B55210  35.299  15.689   7.350
 7594POPC   NC355211   8.988   0.480   5.550
 7594POPC   PO455212   8.947   0.474   5.850
 7594POPC   GL155213   9.022   0.425   6.150
 7594POPC   GL255214   8.943   0.528   6.150
 7594POPC   C1A55215   8.983   0.394   6.450
 7594POPC   D2A55216   8.984   0.460   6.750
 7594POPC   C3A55217   8.981   0.461   7.050
 7594POPC   C4A55218   8.949   0.434   7.350
 7594POPC   C1B55219   8.853   0.654   6.450
 7594POPC   C2B55220   8.926   0.710   6.750
 7594POPC   C3B55221   8.831   0.713   7.050
 7594POPC   C4B55222   8.927   0.658   7.350
 7595POPC   NC355223  13.660   1.975   5.550
 7595POPC   PO455224  13.640   1.993   5.850
 7595POPC   GL155225  13.581   1.980   6.150
 7595POPC   GL255226  13.582   2.112   6.150
 7595POPC   C1A55227  13.643   1.976   6.450
 7595POPC   D2A55228  13.603   1.947   6.750
 7595POPC   C3A55229  13.641   1.946   7.050
 7595POPC   C4A55230  13.614   2.019   7.350
 7595POPC   C1B55231  13.419   2.160   6.450
 7595POPC   C2B55232  13.434   2.180   6.750
 7595POPC   C3B55233  13.399   2.115   7.050
 7595POPC   C4B55234  13.454   2.106   7.350
 7596POPC   NC355235  38.421  40.773   5.550
 7596POPC   PO455236  38.499  40.774   5.850
 7596POPC   GL155237  38.414  40.793   6.150
 7596POPC   GL255238  38.474  40.957   6.150
 7596POPC   C1A55239  38.432  40.807   6.450
 7596POPC   D2A55240  38.463  40.789   6.750
 7596POPC   C3A55241  38.474  40.750   7.050
 7596POPC   C4A55242  38.466  40.769   7.350
 7596POPC   C1B55243  38.388  41.077   6.450
 7596POPC   C2B55244  38.461  41.009   6.750
 7596POPC   C3B55245  38.451  41.065   7.050
 7596POPC   C4B55246  38.485  41.065   7.350
 7597POPC   NC355247  15.185  36.114   5.550
 7597POPC   PO455248  15.140  36.151   5.850
 7597POPC   GL155249  15.192  36.110   6.150
 7597POPC   GL255250  15.126  36.241   6.150
 7597POPC   C1A55251  15.130  36.163   6.450
 7597POPC   D2A55252  15.137  36.156   6.750
 7597POPC   C3A55253  15.216  36.122   7.050
 7597POPC   C4A55254  15.207  36.118   7.350
 7597POPC   C1B55255  15.125  36.339   6.450
 7597POPC   C2B55256  15.096  36.330   6.750
 7597POPC   C3B55257  15.114  36.402   7.050
 7597POPC   C4B55258  15.082  36.364   7.350
 7598POPC   NC355259  23.688   5.113   5.550
 7598POPC   PO455260  23.742   5.084   5.850
 7598POPC   GL155261  23.691   5.053   6.150
 7598POPC   GL255262  23.845   5.189   6.150
 7598POPC   C1A55263  23.732   5.113   6.450
 7598POPC   D2A55264  23.731   5.064   6.750
 7598POPC   C3A55265  23.674   5.102   7.050
 7598POPC   C4A55266  23.759   5.105   7.350
 7598POPC   C1B55267  23.904   5.222   6.450
 7598POPC   C2B55268  23.865   5.257   6.750
 7598POPC   C3B55269  23.939   5.246   7.050
 7598POPC   C4B55270  23.947   5.225   7.350
 7599POPC   NC355271  23.752  12.043   5.550
 7599POPC   PO455272  23.674  12.073   5.850
 7599POPC   GL155273  23.716  12.100   6.150
 7599POPC   GL255274  23.623  12.030   6.150
 7599POPC   C1A55275  23.745  12.085   6.450
 7599POPC   D2A55276  23.758  12.122   6.750
 7599POPC   C3A55277  23.721  12.035   7.050
 7599POPC   C4A55278  23.702  12.050   7.350
 7599POPC   C1B55279  23.470  12.042   6.450
 7599POPC   C2B55280  23.483  12.088   6.750
 7599POPC   C3B55281  23.440  12.078   7.050
 7599POPC   C4B55282  23.472  12.073   7.350
 7600POPC   NC355283  32.243   8.955   5.550
 7600POPC   PO455284  32.225   8.945   5.850
 7600POPC   GL155285  32.271   8.973   6.150
 7600POPC   GL255286  32.125   8.955   6.150
 7600POPC   C1A55287  32.283   8.948   6.450
 7600POPC   D2A55288  32.220   8.927   6.750
 7600POPC   C3A55289  32.199   8.952   7.050
 7600POPC   C4A55290  32.209   8.967   7.350
 7600POPC   C1B55291  32.039   8.890   6.450
 7600POPC   C2B55292  32.048   8.945   6.750
 7600POPC   C3B55293  31.967   8.888   7.050
 7600POPC   C4B55294  32.021   8.925   7.350
 7601POPC   NC355295  12.851  26.852   5.550
 7601POPC   PO455296  12.806  26.863   5.850
 7601POPC   GL155297  12.851  26.811   6.150
 7601POPC   GL255298  12.845  26.943   6.150
 7601POPC   C1A55299  12.866  26.845   6.450
 7601POPC   D2A55300  12.869  26.837   6.750
 7601POPC   C3A55301  12.828  26.856   7.050
 7601POPC   C4A55302  12.901  26.788   7.350
 7601POPC   C1B55303  12.820  27.040   6.450
 7601POPC   C2B55304  12.781  27.051   6.750
 7601POPC   C3B55305  12.779  27.076   7.050
 7601POPC   C4B55306  12.804  27.020   7.350
 7602POPC   NC355307   2.740  12.074   5.550
 7602POPC   PO455308   2.762  12.050   5.850
 7602POPC   GL155309   2.806  12.034   6.150
 7602POPC   GL255310   2.890  12.028   6.150
 7602POPC   C1A55311   2.799  12.054   6.450
 7602POPC   D2A55312   2.785  12.034   6.750
 7602POPC   C3A55313   2.721  12.066   7.050
 7602POPC   C4A55314   2.792  12.056   7.350
 7602POPC   C1B55315   2.949  11.929   6.450
 7602POPC   C2B55316   2.962  11.885   6.750
 7602POPC   C3B55317   2.960  11.917   7.050
 7602POPC   C4B55318   2.912  11.912   7.350
 7603POPC   NC355319  15.134  41.586   5.550
 7603POPC   PO455320  15.221  41.540   5.850
 7603POPC   GL155321  15.222  41.587   6.150
 7603POPC   GL255322  15.290  41.571   6.150
 7603POPC   C1A55323  15.176  41.605   6.450
 7603POPC   D2A55324  15.152  41.592   6.750
 7603POPC   C3A55325  15.158  41.544   7.050
 7603POPC   C4A55326  15.152  41.545   7.350
 7603POPC   C1B55327  15.460  41.588   6.450
 7603POPC   C2B55328  15.417  41.575   6.750
 7603POPC   C3B55329  15.465  41.522   7.050
 7603POPC   C4B55330  15.413  41.563   7.350
 7604POPC   NC355331  33.056  36.912   5.550
 7604POPC   PO455332  33.032  36.890   5.850
 7604POPC   GL155333  33.017  36.881   6.150
 7604POPC   GL255334  33.138  36.848   6.150
 7604POPC   C1A55335  33.003  36.916   6.450
 7604POPC   D2A55336  32.985  36.925   6.750
 7604POPC   C3A55337  33.049  36.881   7.050
 7604POPC   C4A55338  32.977  36.883   7.350
 7604POPC   C1B55339  33.216  36.786   6.450
 7604POPC   C2B55340  33.303  36.830   6.750
 7604POPC   C3B55341  33.299  36.829   7.050
 7604POPC   C4B55342  33.265  36.823   7.350
 7605POPC   NC355343  21.357  19.091   5.550
 7605POPC   PO455344  21.402  19.080   5.850
 7605POPC   GL155345  21.416  19.091   6.150
 7605POPC   GL255346  21.405  19.187   6.150
 7605POPC   C1A55347  21.373  19.058   6.450
 7605POPC   D2A55348  21.363  19.024   6.750
 7605POPC   C3A55349  21.383  19.053   7.050
 7605POPC   C4A55350  21.373  19.014   7.350
 7605POPC   C1B55351  21.435  19.306   6.450
 7605POPC   C2B55352  21.435  19.293   6.750
 7605POPC   C3B55353  21.399  19.309   7.050
 7605POPC   C4B55354  21.399  19.266   7.350
 7606POPC   NC355355  18.253  28.337   5.550
 7606POPC   PO455356  18.276  28.372   5.850
 7606POPC   GL155357  18.241  28.336   6.150
 7606POPC   GL255358  18.185  28.247   6.150
 7606POPC   C1A55359  18.289  28.355   6.450
 7606POPC   D2A55360  18.327  28.357   6.750
 7606POPC   C3A55361  18.278  28.410   7.050
 7606POPC   C4A55362  18.304  28.352   7.350
 7606POPC   C1B55363  18.107  28.149   6.450
 7606POPC   C2B55364  18.150  28.152   6.750
 7606POPC   C3B55365  18.096  28.195   7.050
 7606POPC   C4B55366  18.140  28.195   7.350
 7607POPC   NC355367  22.967  20.598   5.550
 7607POPC   PO455368  22.944  20.622   5.850
 7607POPC   GL155369  22.947  20.617   6.150
 7607POPC   GL255370  22.990  20.495   6.150
 7607POPC   C1A55371  22.964  20.608   6.450
 7607POPC   D2A55372  22.988  20.582   6.750
 7607POPC   C3A55373  22.966  20.569   7.050
 7607POPC   C4A55374  22.961  20.655   7.350
 7607POPC   C1B55375  23.170  20.483   6.450
 7607POPC   C2B55376  23.116  20.493   6.750
 7607POPC   C3B55377  23.097  20.473   7.050
 7607POPC   C4B55378  23.160  20.469   7.350
 7608POPC   NC355379   4.320   6.623   5.550
 7608POPC   PO455380   4.320   6.602   5.850
 7608POPC   GL155381   4.289   6.672   6.150
 7608POPC   GL255382   4.289   6.801   6.150
 7608POPC   C1A55383   4.303   6.686   6.450
 7608POPC   D2A55384   4.277   6.671   6.750
 7608POPC   C3A55385   4.351   6.618   7.050
 7608POPC   C4A55386   4.316   6.694   7.350
 7608POPC   C1B55387   4.190   6.829   6.450
 7608POPC   C2B55388   4.183   6.842   6.750
 7608POPC   C3B55389   4.210   6.926   7.050
 7608POPC   C4B55390   4.249   6.890   7.350
 7609POPC   NC355391  15.144   0.468   5.550
 7609POPC   PO455392  15.217   0.440   5.850
 7609POPC   GL155393  15.228   0.418   6.150
 7609POPC   GL255394  15.059   0.430   6.150
 7609POPC   C1A55395  15.178   0.453   6.450
 7609POPC   D2A55396  15.202   0.406   6.750
 7609POPC   C3A55397  15.175   0.399   7.050
 7609POPC   C4A55398  15.219   0.480   7.350
 7609POPC   C1B55399  14.916   0.501   6.450
 7609POPC   C2B55400  14.936   0.511   6.750
 7609POPC   C3B55401  14.946   0.457   7.050
 7609POPC   C4B55402  14.886   0.470   7.350
 7610POPC   NC355403   5.825   2.021   5.550
 7610POPC   PO455404   5.852   2.005   5.850
 7610POPC   GL155405   5.842   2.009   6.150
 7610POPC   GL255406   5.846   2.118   6.150
 7610POPC   C1A55407   5.914   2.016   6.450
 7610POPC   D2A55408   5.834   1.988   6.750
 7610POPC   C3A55409   5.891   1.995   7.050
 7610POPC   C4A55410   5.896   1.946   7.350
 7610POPC   C1B55411   5.821   2.206   6.450
 7610POPC   C2B55412   5.838   2.182   6.750
 7610POPC   C3B55413   5.779   2.234   7.050
 7610POPC   C4B55414   5.781   2.279   7.350
 7611POPC   NC355415  29.914  10.496   5.550
 7611POPC   PO455416  29.914  10.501   5.850
 7611POPC   GL155417  29.955  10.573   6.150
 7611POPC   GL255418  29.908  10.648   6.150
 7611POPC   C1A55419  29.933  10.554   6.450
 7611POPC   D2A55420  29.944  10.510   6.750
 7611POPC   C3A55421  29.955  10.555   7.050
 7611POPC   C4A55422  29.906  10.546   7.350
 7611POPC   C1B55423  29.990  10.749   6.450
 7611POPC   C2B55424  29.945  10.779   6.750
 7611POPC   C3B55425  29.958  10.810   7.050
 7611POPC   C4B55426  30.004  10.781   7.350
 7612POPC   NC355427  19.103   3.499   5.550
 7612POPC   PO455428  19.072   3.549   5.850
 7612POPC   GL155429  19.100   3.556   6.150
 7612POPC   GL255430  19.109   3.628   6.150
 7612POPC   C1A55431  19.020   3.537   6.450
 7612POPC   D2A55432  19.071   3.543   6.750
 7612POPC   C3A55433  19.108   3.520   7.050
 7612POPC   C4A55434  19.045   3.527   7.350
 7612POPC   C1B55435  19.140   3.756   6.450
 7612POPC   C2B55436  19.111   3.788   6.750
 7612POPC   C3B55437  19.142   3.791   7.050
 7612POPC   C4B55438  19.143   3.824   7.350
 7613POPC   NC355439  35.343  37.668   5.550
 7613POPC   PO455440  35.344  37.688   5.850
 7613POPC   GL155441  35.389  37.642   6.150
 7613POPC   GL255442  35.281  37.736   6.150
 7613POPC   C1A55443  35.309  37.722   6.450
 7613POPC   D2A55444  35.340  37.677   6.750
 7613POPC   C3A55445  35.376  37.673   7.050
 7613POPC   C4A55446  35.365  37.722   7.350
 7613POPC   C1B55447  35.139  37.808   6.450
 7613POPC   C2B55448  35.139  37.741   6.750
 7613POPC   C3B55449  35.152  37.757   7.050
 7613POPC   C4B55450  35.077  37.796   7.350
 7614POPC   NC355451  25.287   3.580   5.550
 7614POPC   PO455452  25.295   3.518   5.850
 7614POPC   GL155453  25.313   3.519   6.150
 7614POPC   GL255454  25.186   3.482   6.150
 7614POPC   C1A55455  25.264   3.510   6.450
 7614POPC   D2A55456  25.283   3.582   6.750
 7614POPC   C3A55457  25.272   3.509   7.050
 7614POPC   C4A55458  25.300   3.580   7.350
 7614POPC   C1B55459  25.024   3.460   6.450
 7614POPC   C2B55460  25.030   3.489   6.750
 7614POPC   C3B55461  25.006   3.403   7.050
 7614POPC   C4B55462  25.039   3.407   7.350
 7615POPC   NC355463   8.180   4.285   5.550
 7615POPC   PO455464   8.232   4.297   5.850
 7615POPC   GL155465   8.165   4.273   6.150
 7615POPC   GL255466   8.111   4.415   6.150
 7615POPC   C1A55467   8.152   4.310   6.450
 7615POPC   D2A55468   8.183   4.305   6.750
 7615POPC   C3A55469   8.148   4.342   7.050
 7615POPC   C4A55470   8.217   4.301   7.350
 7615POPC   C1B55471   8.031   4.439   6.450
 7615POPC   C2B55472   8.034   4.481   6.750
 7615POPC   C3B55473   7.997   4.496   7.050
 7615POPC   C4B55474   7.977   4.425   7.350
 7616POPC   NC355475  13.626  11.324   5.550
 7616POPC   PO455476  13.675  11.274   5.850
 7616POPC   GL155477  13.582  11.279   6.150
 7616POPC   GL255478  13.673  11.446   6.150
 7616POPC   C1A55479  13.615  11.264   6.450
 7616POPC   D2A55480  13.602  11.315   6.750
 7616POPC   C3A55481  13.596  11.266   7.050
 7616POPC   C4A55482  13.580  11.314   7.350
 7616POPC   C1B55483  13.714  11.508   6.450
 7616POPC   C2B55484  13.694  11.552   6.750
 7616POPC   C3B55485  13.721  11.576   7.050
 7616POPC   C4B55486  13.717  11.555   7.350
 7617POPC   NC355487  27.563  20.629   5.550
 7617POPC   PO455488  27.584  20.574   5.850
 7617POPC   GL155489  27.579  20.632   6.150
 7617POPC   GL255490  27.544  20.523   6.150
 7617POPC   C1A55491  27.554  20.633   6.450
 7617POPC   D2A55492  27.630  20.622   6.750
 7617POPC   C3A55493  27.628  20.598   7.050
 7617POPC   C4A55494  27.549  20.600   7.350
 7617POPC   C1B55495  27.476  20.376   6.450
 7617POPC   C2B55496  27.498  20.361   6.750
 7617POPC   C3B55497  27.475  20.396   7.050
 7617POPC   C4B55498  27.506  20.423   7.350
 7618POPC   NC355499  35.385   5.864   5.550
 7618POPC   PO455500  35.358   5.899   5.850
 7618POPC   GL155501  35.386   5.874   6.150
 7618POPC   GL255502  35.251   5.765   6.150
 7618POPC   C1A55503  35.397   5.900   6.450
 7618POPC   D2A55504  35.346   5.907   6.750
 7618POPC   C3A55505  35.322   5.844   7.050
 7618POPC   C4A55506  35.354   5.900   7.350
 7618POPC   C1B55507  35.232   5.670   6.450
 7618POPC   C2B55508  35.212   5.640   6.750
 7618POPC   C3B55509  35.263   5.650   7.050
 7618POPC   C4B55510  35.190   5.647   7.350
 7619POPC   NC355511  12.087  33.772   5.550
 7619POPC   PO455512  12.114  33.797   5.850
 7619POPC   GL155513  12.103  33.805   6.150
 7619POPC   GL255514  11.915  33.749   6.150
 7619POPC   C1A55515  12.030  33.758   6.450
 7619POPC   D2A55516  12.049  33.779   6.750
 7619POPC   C3A55517  12.046  33.750   7.050
 7619POPC   C4A55518  12.032  33.762   7.350
 7619POPC   C1B55519  11.861  33.764   6.450
 7619POPC   C2B55520  11.874  33.778   6.750
 7619POPC   C3B55521  11.802  33.775   7.050
 7619POPC   C4B55522  11.850  33.784   7.350
 7620POPC   NC355523  29.943  36.160   5.550
 7620POPC   PO455524  29.960  36.163   5.850
 7620POPC   GL155525  29.894  36.137   6.150
 7620POPC   GL255526  30.018  36.226   6.150
 7620POPC   C1A55527  29.873  36.167   6.450
 7620POPC   D2A55528  29.949  36.149   6.750
 7620POPC   C3A55529  29.905  36.177   7.050
 7620POPC   C4A55530  29.965  36.176   7.350
 7620POPC   C1B55531  30.083  36.299   6.450
 7620POPC   C2B55532  30.141  36.309   6.750
 7620POPC   C3B55533  30.117  36.273   7.050
 7620POPC   C4B55534  30.079  36.262   7.350
 7621POPC   NC355535  32.982   8.985   5.550
 7621POPC   PO455536  33.045   9.011   5.850
 7621POPC   GL155537  32.988   8.924   6.150
 7621POPC   GL255538  33.098   8.928   6.150
 7621POPC   C1A55539  33.007   8.928   6.450
 7621POPC   D2A55540  33.048   8.964   6.750
 7621POPC   C3A55541  33.045   8.933   7.050
 7621POPC   C4A55542  33.030   8.983   7.350
 7621POPC   C1B55543  33.231   8.788   6.450
 7621POPC   C2B55544  33.216   8.768   6.750
 7621POPC   C3B55545  33.248   8.783   7.050
 7621POPC   C4B55546  33.251   8.783   7.350
 7622POPC   NC355547  33.773  12.900   5.550
 7622POPC   PO455548  33.761  12.818   5.850
 7622POPC   GL155549  33.819  12.822   6.150
 7622POPC   GL255550  33.692  12.729   6.150
 7622POPC   C1A55551  33.827  12.860   6.450
 7622POPC   D2A55552  33.760  12.810   6.750
 7622POPC   C3A55553  33.836  12.833   7.050
 7622POPC   C4A55554  33.777  12.855   7.350
 7622POPC   C1B55555  33.685  12.608   6.450
 7622POPC   C2B55556  33.686  12.667   6.750
 7622POPC   C3B55557  33.676  12.702   7.050
 7622POPC   C4B55558  33.692  12.678   7.350
 7623POPC   NC355559  36.130  34.608   5.550
 7623POPC   PO455560  36.137  34.609   5.850
 7623POPC   GL155561  36.167  34.621   6.150
 7623POPC   GL255562  36.241  34.649   6.150
 7623POPC   C1A55563  36.083  34.537   6.450
 7623POPC   D2A55564  36.086  34.608   6.750
 7623POPC   C3A55565  36.117  34.596   7.050
 7623POPC   C4A55566  36.147  34.557   7.350
 7623POPC   C1B55567  36.286  34.768   6.450
 7623POPC   C2B55568  36.312  34.754   6.750
 7623POPC   C3B55569  36.296  34.680   7.050
 7623POPC   C4B55570  36.359  34.741   7.350
 7624POPC   NC355571  40.793  35.367   5.550
 7624POPC   PO455572  40.782  35.338   5.850
 7624POPC   GL155573  40.755  35.316   6.150
 7624POPC   GL255574  40.733  35.486   6.150
 7624POPC   C1A55575  40.737  35.356   6.450
 7624POPC   D2A55576  40.760  35.348   6.750
 7624POPC   C3A55577  40.755  35.354   7.050
 7624POPC   C4A55578  40.828  35.316   7.350
 7624POPC   C1B55579  40.695  35.626   6.450
 7624POPC   C2B55580  40.706  35.606   6.750
 7624POPC   C3B55581  40.654  35.579   7.050
 7624POPC   C4B55582  40.668  35.574   7.350
 7625POPC   NC355583  19.820  25.284   5.550
 7625POPC   PO455584  19.883  25.296   5.850
 7625POPC   GL155585  19.818  25.305   6.150
 7625POPC   GL255586  19.800  25.172   6.150
 7625POPC   C1A55587  19.806  25.254   6.450
 7625POPC   D2A55588  19.798  25.246   6.750
 7625POPC   C3A55589  19.884  25.283   7.050
 7625POPC   C4A55590  19.854  25.259   7.350
 7625POPC   C1B55591  19.835  25.067   6.450
 7625POPC   C2B55592  19.848  25.036   6.750
 7625POPC   C3B55593  19.816  24.981   7.050
 7625POPC   C4B55594  19.847  24.998   7.350
 7626POPC   NC355595  11.267   7.375   5.550
 7626POPC   PO455596  11.346   7.409   5.850
 7626POPC   GL155597  11.340   7.401   6.150
 7626POPC   GL255598  11.341   7.539   6.150
 7626POPC   C1A55599  11.349   7.395   6.450
 7626POPC   D2A55600  11.300   7.427   6.750
 7626POPC   C3A55601  11.258   7.455   7.050
 7626POPC   C4A55602  11.318   7.461   7.350
 7626POPC   C1B55603  11.444   7.576   6.450
 7626POPC   C2B55604  11.490   7.605   6.750
 7626POPC   C3B55605  11.424   7.626   7.050
 7626POPC   C4B55606  11.406   7.600   7.350
 7627POPC   NC355607   8.170  12.064   5.550
 7627POPC   PO455608   8.190  12.095   5.850
 7627POPC   GL155609   8.228  12.048   6.150
 7627POPC   GL255610   8.076  12.147   6.150
 7627POPC   C1A55611   8.211  12.119   6.450
 7627POPC   D2A55612   8.227  12.032   6.750
 7627POPC   C3A55613   8.169  12.035   7.050
 7627POPC   C4A55614   8.246  12.122   7.350
 7627POPC   C1B55615   8.030  12.240   6.450
 7627POPC   C2B55616   8.060  12.258   6.750
 7627POPC   C3B55617   8.019  12.268   7.050
 7627POPC   C4B55618   8.047  12.243   7.350
 7628POPC   NC355619  40.053  44.686   5.550
 7628POPC   PO455620  40.004  44.625   5.850
 7628POPC   GL155621  40.026  44.670   6.150
 7628POPC   GL255622  40.110  44.595   6.150
 7628POPC   C1A55623  40.051  44.618   6.450
 7628POPC   D2A55624  40.023  44.628   6.750
 7628POPC   C3A55625  39.997  44.672   7.050
 7628POPC   C4A55626  39.985  44.674   7.350
 7628POPC   C1B55627  40.181  44.447   6.450
 7628POPC   C2B55628  40.156  44.429   6.750
 7628POPC   C3B55629  40.169  44.505   7.050
 7628POPC   C4B55630  40.119  44.476   7.350
 7629POPC   NC355631  15.930  22.924   5.550
 7629POPC   PO455632  15.958  22.968   5.850
 7629POPC   GL155633  15.997  22.945   6.150
 7629POPC   GL255634  16.065  22.874   6.150
 7629POPC   C1A55635  15.944  22.986   6.450
 7629POPC   D2A55636  15.989  22.891   6.750
 7629POPC   C3A55637  15.927  22.904   7.050
 7629POPC   C4A55638  15.932  22.949   7.350
 7629POPC   C1B55639  16.144  22.835   6.450
 7629POPC   C2B55640  16.201  22.829   6.750
 7629POPC   C3B55641  16.189  22.828   7.050
 7629POPC   C4B55642  16.163  22.837   7.350
 7630POPC   NC355643   4.276  28.395   5.550
 7630POPC   PO455644   4.337  28.394   5.850
 7630POPC   GL155645   4.289  28.356   6.150
 7630POPC   GL255646   4.275  28.229   6.150
 7630POPC   C1A55647   4.326  28.403   6.450
 7630POPC   D2A55648   4.292  28.372   6.750
 7630POPC   C3A55649   4.349  28.346   7.050
 7630POPC   C4A55650   4.334  28.320   7.350
 7630POPC   C1B55651   4.273  28.147   6.450
 7630POPC   C2B55652   4.311  28.130   6.750
 7630POPC   C3B55653   4.242  28.128   7.050
 7630POPC   C4B55654   4.240  28.120   7.350
 7631POPC   NC355655  29.907   1.180   5.550
 7631POPC   PO455656  29.894   1.253   5.850
 7631POPC   GL155657  29.909   1.202   6.150
 7631POPC   GL255658  30.087   1.191   6.150
 7631POPC   C1A55659  29.930   1.231   6.450
 7631POPC   D2A55660  29.958   1.187   6.750
 7631POPC   C3A55661  29.896   1.237   7.050
 7631POPC   C4A55662  29.919   1.175   7.350
 7631POPC   C1B55663  30.175   1.142   6.450
 7631POPC   C2B55664  30.203   1.165   6.750
 7631POPC   C3B55665  30.209   1.178   7.050
 7631POPC   C4B55666  30.161   1.104   7.350
 7632POPC   NC355667   0.451   5.903   5.550
 7632POPC   PO455668   0.453   5.870   5.850
 7632POPC   GL155669   0.469   5.901   6.150
 7632POPC   GL255670   0.266   5.922   6.150
 7632POPC   C1A55671   0.477   5.886   6.450
 7632POPC   D2A55672   0.439   5.901   6.750
 7632POPC   C3A55673   0.420   5.887   7.050
 7632POPC   C4A55674   0.456   5.876   7.350
 7632POPC   C1B55675   0.232   5.927   6.450
 7632POPC   C2B55676   0.154   5.889   6.750
 7632POPC   C3B55677   0.226   5.904   7.050
 7632POPC   C4B55678   0.172   5.943   7.350
 7633POPC   NC355679  19.813   5.108   5.550
 7633POPC   PO455680  19.860   5.124   5.850
 7633POPC   GL155681  19.824   5.124   6.150
 7633POPC   GL255682  19.797   5.167   6.150
 7633POPC   C1A55683  19.788   5.070   6.450
 7633POPC   D2A55684  19.831   5.081   6.750
 7633POPC   C3A55685  19.838   5.121   7.050
 7633POPC   C4A55686  19.832   5.087   7.350
 7633POPC   C1B55687  19.686   5.279   6.450
 7633POPC   C2B55688  19.706   5.346   6.750
 7633POPC   C3B55689  19.739   5.302   7.050
 7633POPC   C4B55690  19.658   5.325   7.350
 7634POPC   NC355691  31.427  38.414   5.550
 7634POPC   PO455692  31.508  38.421   5.850
 7634POPC   GL155693  31.514  38.416   6.150
 7634POPC   GL255694  31.430  38.346   6.150
 7634POPC   C1A55695  31.444  38.492   6.450
 7634POPC   D2A55696  31.513  38.421   6.750
 7634POPC   C3A55697  31.500  38.436   7.050
 7634POPC   C4A55698  31.469  38.503   7.350
 7634POPC   C1B55699  31.364  38.232   6.450
 7634POPC   C2B55700  31.351  38.241   6.750
 7634POPC   C3B55701  31.324  38.192   7.050
 7634POPC   C4B55702  31.411  38.272   7.350
 7635POPC   NC355703  36.905   5.069   5.550
 7635POPC   PO455704  36.900   5.131   5.850
 7635POPC   GL155705  36.941   5.067   6.150
 7635POPC   GL255706  36.986   5.170   6.150
 7635POPC   C1A55707  36.883   5.078   6.450
 7635POPC   D2A55708  36.911   5.064   6.750
 7635POPC   C3A55709  36.871   5.063   7.050
 7635POPC   C4A55710  36.873   5.070   7.350
 7635POPC   C1B55711  37.124   5.225   6.450
 7635POPC   C2B55712  37.105   5.273   6.750
 7635POPC   C3B55713  37.061   5.205   7.050
 7635POPC   C4B55714  37.096   5.260   7.350
 7636POPC   NC355715  29.107   1.242   5.550
 7636POPC   PO455716  29.154   1.201   5.850
 7636POPC   GL155717  29.141   1.193   6.150
 7636POPC   GL255718  29.037   1.117   6.150
 7636POPC   C1A55719  29.121   1.256   6.450
 7636POPC   D2A55720  29.129   1.219   6.750
 7636POPC   C3A55721  29.152   1.222   7.050
 7636POPC   C4A55722  29.140   1.213   7.350
 7636POPC   C1B55723  28.955   1.062   6.450
 7636POPC   C2B55724  28.947   1.046   6.750
 7636POPC   C3B55725  28.926   1.068   7.050
 7636POPC   C4B55726  28.955   1.000   7.350
 7637POPC   NC355727  11.255  42.289   5.550
 7637POPC   PO455728  11.252  42.361   5.850
 7637POPC   GL155729  11.268  42.318   6.150
 7637POPC   GL255730  11.228  42.463   6.150
 7637POPC   C1A55731  11.277  42.346   6.450
 7637POPC   D2A55732  11.288  42.350   6.750
 7637POPC   C3A55733  11.289  42.358   7.050
 7637POPC   C4A55734  11.259  42.341   7.350
 7637POPC   C1B55735  11.123  42.536   6.450
 7637POPC   C2B55736  11.192  42.592   6.750
 7637POPC   C3B55737  11.138  42.532   7.050
 7637POPC   C4B55738  11.152  42.593   7.350
 7638POPC   NC355739  33.041  33.810   5.550
 7638POPC   PO455740  32.983  33.806   5.850
 7638POPC   GL155741  33.011  33.817   6.150
 7638POPC   GL255742  33.096  33.721   6.150
 7638POPC   C1A55743  33.023  33.846   6.450
 7638POPC   D2A55744  32.988  33.760   6.750
 7638POPC   C3A55745  33.008  33.752   7.050
 7638POPC   C4A55746  33.028  33.822   7.350
 7638POPC   C1B55747  33.293  33.692   6.450
 7638POPC   C2B55748  33.218  33.678   6.750
 7638POPC   C3B55749  33.222  33.697   7.050
 7638POPC   C4B55750  33.285  33.678   7.350
 7639POPC   NC355751  34.562  19.019   5.550
 7639POPC   PO455752  34.539  19.040   5.850
 7639POPC   GL155753  34.563  19.023   6.150
 7639POPC   GL255754  34.643  18.928   6.150
 7639POPC   C1A55755  34.584  19.015   6.450
 7639POPC   D2A55756  34.585  19.074   6.750
 7639POPC   C3A55757  34.610  19.079   7.050
 7639POPC   C4A55758  34.615  19.023   7.350
 7639POPC   C1B55759  34.667  18.805   6.450
 7639POPC   C2B55760  34.670  18.822   6.750
 7639POPC   C3B55761  34.663  18.844   7.050
 7639POPC   C4B55762  34.729  18.856   7.350
 7640POPC   NC355763  41.532  11.263   5.550
 7640POPC   PO455764  41.546  11.293   5.850
 7640POPC   GL155765  41.592  11.283   6.150
 7640POPC   GL255766  41.590  11.244   6.150
 7640POPC   C1A55767  41.528  11.283   6.450
 7640POPC   D2A55768  41.514  11.336   6.750
 7640POPC   C3A55769  41.562  11.265   7.050
 7640POPC   C4A55770  41.524  11.319   7.350
 7640POPC   C1B55771  41.741  11.098   6.450
 7640POPC   C2B55772  41.688  11.110   6.750
 7640POPC   C3B55773  41.724  11.109   7.050
 7640POPC   C4B55774  41.731  11.140   7.350
 7641POPC   NC355775   5.824  43.878   5.550
 7641POPC   PO455776   5.903  43.855   5.850
 7641POPC   GL155777   5.845  43.868   6.150
 7641POPC   GL255778   6.023  43.889   6.150
 7641POPC   C1A55779   5.862  43.894   6.450
 7641POPC   D2A55780   5.844  43.874   6.750
 7641POPC   C3A55781   5.875  43.933   7.050
 7641POPC   C4A55782   5.911  43.929   7.350
 7641POPC   C1B55783   6.143  43.795   6.450
 7641POPC   C2B55784   6.061  43.800   6.750
 7641POPC   C3B55785   6.134  43.862   7.050
 7641POPC   C4B55786   6.085  43.860   7.350
 7642POPC   NC355787  43.921  27.642   5.550
 7642POPC   PO455788  43.875  27.560   5.850
 7642POPC   GL155789  43.857  27.550   6.150
 7642POPC   GL255790  43.786  27.569   6.150
 7642POPC   C1A55791  43.885  27.596   6.450
 7642POPC   D2A55792  43.848  27.556   6.750
 7642POPC   C3A55793  43.915  27.594   7.050
 7642POPC   C4A55794  43.862  27.583   7.350
 7642POPC   C1B55795  43.599  27.630   6.450
 7642POPC   C2B55796  43.637  27.644   6.750
 7642POPC   C3B55797  43.687  27.589   7.050
 7642POPC   C4B55798  43.650  27.565   7.350
 7643POPC   NC355799  22.140   8.211   5.550
 7643POPC   PO455800  22.183   8.216   5.850
 7643POPC   GL155801  22.189   8.196   6.150
 7643POPC   GL255802  22.238   8.181   6.150
 7643POPC   C1A55803  22.162   8.161   6.450
 7643POPC   D2A55804  22.168   8.205   6.750
 7643POPC   C3A55805  22.209   8.219   7.050
 7643POPC   C4A55806  22.119   8.206   7.350
 7643POPC   C1B55807  22.340   8.037   6.450
 7643POPC   C2B55808  22.403   8.118   6.750
 7643POPC   C3B55809  22.390   8.046   7.050
 7643POPC   C4B55810  22.406   8.086   7.350
 7644POPC   NC355811  16.699   1.992   5.550
 7644POPC   PO455812  16.689   1.979   5.850
 7644POPC   GL155813  16.684   1.986   6.150
 7644POPC   GL255814  16.858   2.014   6.150
 7644POPC   C1A55815  16.682   1.949   6.450
 7644POPC   D2A55816  16.742   1.951   6.750
 7644POPC   C3A55817  16.770   1.991   7.050
 7644POPC   C4A55818  16.718   2.013   7.350
 7644POPC   C1B55819  16.898   2.148   6.450
 7644POPC   C2B55820  16.940   2.172   6.750
 7644POPC   C3B55821  16.949   2.143   7.050
 7644POPC   C4B55822  16.914   2.155   7.350
 7645POPC   NC355823   2.779  40.785   5.550
 7645POPC   PO455824   2.763  40.736   5.850
 7645POPC   GL155825   2.757  40.828   6.150
 7645POPC   GL255826   2.821  40.714   6.150
 7645POPC   C1A55827   2.731  40.742   6.450
 7645POPC   D2A55828   2.722  40.792   6.750
 7645POPC   C3A55829   2.744  40.734   7.050
 7645POPC   C4A55830   2.762  40.767   7.350
 7645POPC   C1B55831   2.939  40.582   6.450
 7645POPC   C2B55832   2.923  40.579   6.750
 7645POPC   C3B55833   2.924  40.602   7.050
 7645POPC   C4B55834   2.887  40.617   7.350
 7646POPC   NC355835  15.988  36.931   5.550
 7646POPC   PO455836  15.950  36.893   5.850
 7646POPC   GL155837  15.974  36.938   6.150
 7646POPC   GL255838  15.973  37.015   6.150
 7646POPC   C1A55839  15.911  36.950   6.450
 7646POPC   D2A55840  15.946  36.890   6.750
 7646POPC   C3A55841  15.915  36.949   7.050
 7646POPC   C4A55842  15.939  36.906   7.350
 7646POPC   C1B55843  15.908  37.150   6.450
 7646POPC   C2B55844  15.912  37.175   6.750
 7646POPC   C3B55845  15.945  37.106   7.050
 7646POPC   C4B55846  15.908  37.172   7.350
 7647POPC   NC355847  19.087  32.204   5.550
 7647POPC   PO455848  19.010  32.206   5.850
 7647POPC   GL155849  19.081  32.208   6.150
 7647POPC   GL255850  19.210  32.263   6.150
 7647POPC   C1A55851  19.023  32.216   6.450
 7647POPC   D2A55852  19.037  32.208   6.750
 7647POPC   C3A55853  19.098  32.272   7.050
 7647POPC   C4A55854  19.045  32.275   7.350
 7647POPC   C1B55855  19.347  32.260   6.450
 7647POPC   C2B55856  19.339  32.241   6.750
 7647POPC   C3B55857  19.309  32.284   7.050
 7647POPC   C4B55858  19.346  32.293   7.350
 7648POPC   NC355859   9.016  11.286   5.550
 7648POPC   PO455860   8.938  11.337   5.850
 7648POPC   GL155861   8.943  11.263   6.150
 7648POPC   GL255862   9.124  11.277   6.150
 7648POPC   C1A55863   8.990  11.286   6.450
 7648POPC   D2A55864   8.999  11.313   6.750
 7648POPC   C3A55865   8.955  11.281   7.050
 7648POPC   C4A55866   9.021  11.276   7.350
 7648POPC   C1B55867   9.164  11.130   6.450
 7648POPC   C2B55868   9.217  11.129   6.750
 7648POPC   C3B55869   9.137  11.177   7.050
 7648POPC   C4B55870   9.230  11.161   7.350
 7649POPC   NC355871   6.621  33.004   5.550
 7649POPC   PO455872   6.695  33.048   5.850
 7649POPC   GL155873   6.632  33.029   6.150
 7649POPC   GL255874   6.748  33.069   6.150
 7649POPC   C1A55875   6.657  32.997   6.450
 7649POPC   D2A55876   6.612  32.990   6.750
 7649POPC   C3A55877   6.630  33.070   7.050
 7649POPC   C4A55878   6.662  32.990   7.350
 7649POPC   C1B55879   6.910  32.996   6.450
 7649POPC   C2B55880   6.884  33.017   6.750
 7649POPC   C3B55881   6.885  33.045   7.050
 7649POPC   C4B55882   6.923  32.986   7.350
 7650POPC   NC355883  34.593  20.579   5.550
 7650POPC   PO455884  34.570  20.585   5.850
 7650POPC   GL155885  34.529  20.647   6.150
 7650POPC   GL255886  34.713  20.620   6.150
 7650POPC   C1A55887  34.566  20.654   6.450
 7650POPC   D2A55888  34.556  20.640   6.750
 7650POPC   C3A55889  34.598  20.647   7.050
 7650POPC   C4A55890  34.586  20.654   7.350
 7650POPC   C1B55891  34.804  20.580   6.450
 7650POPC   C2B55892  34.809  20.575   6.750
 7650POPC   C3B55893  34.846  20.540   7.050
 7650POPC   C4B55894  34.785  20.551   7.350
 7651POPC   NC355895  43.838  29.966   5.550
 7651POPC   PO455896  43.899  29.921   5.850
 7651POPC   GL155897  43.870  29.895   6.150
 7651POPC   GL255898  43.848  29.834   6.150
 7651POPC   C1A55899  43.911  29.945   6.450
 7651POPC   D2A55900  43.882  29.936   6.750
 7651POPC   C3A55901  43.904  29.883   7.050
 7651POPC   C4A55902  43.900  29.883   7.350
 7651POPC   C1B55903  43.817  29.626   6.450
 7651POPC   C2B55904  43.900  29.635   6.750
 7651POPC   C3B55905  43.854  29.718   7.050
 7651POPC   C4B55906  43.853  29.625   7.350
 7652POPC   NC355907   7.438  12.897   5.550
 7652POPC   PO455908   7.457  12.892   5.850
 7652POPC   GL155909   7.410  12.880   6.150
 7652POPC   GL255910   7.450  13.014   6.150
 7652POPC   C1A55911   7.420  12.901   6.450
 7652POPC   D2A55912   7.465  12.837   6.750
 7652POPC   C3A55913   7.394  12.893   7.050
 7652POPC   C4A55914   7.388  12.849   7.350
 7652POPC   C1B55915   7.530  13.098   6.450
 7652POPC   C2B55916   7.444  13.135   6.750
 7652POPC   C3B55917   7.497  13.085   7.050
 7652POPC   C4B55918   7.524  13.120   7.350
 7653POPC   NC355919  15.987  20.625   5.550
 7653POPC   PO455920  15.964  20.657   5.850
 7653POPC   GL155921  15.906  20.649   6.150
 7653POPC   GL255922  15.900  20.659   6.150
 7653POPC   C1A55923  15.907  20.585   6.450
 7653POPC   D2A55924  15.982  20.636   6.750
 7653POPC   C3A55925  15.907  20.652   7.050
 7653POPC   C4A55926  15.940  20.654   7.350
 7653POPC   C1B55927  15.797  20.777   6.450
 7653POPC   C2B55928  15.775  20.744   6.750
 7653POPC   C3B55929  15.757  20.760   7.050
 7653POPC   C4B55930  15.770  20.773   7.350
 7654POPC   NC355931  13.673   1.168   5.550
 7654POPC   PO455932  13.583   1.181   5.850
 7654POPC   GL155933  13.661   1.220   6.150
 7654POPC   GL255934  13.535   1.081   6.150
 7654POPC   C1A55935  13.641   1.243   6.450
 7654POPC   D2A55936  13.611   1.247   6.750
 7654POPC   C3A55937  13.588   1.200   7.050
 7654POPC   C4A55938  13.677   1.258   7.350
 7654POPC   C1B55939  13.503   0.985   6.450
 7654POPC   C2B55940  13.526   1.021   6.750
 7654POPC   C3B55941  13.501   0.982   7.050
 7654POPC   C4B55942  13.463   0.976   7.350
 7655POPC   NC355943  22.910   1.245   5.550
 7655POPC   PO455944  22.979   1.167   5.850
 7655POPC   GL155945  22.986   1.253   6.150
 7655POPC   GL255946  22.789   1.236   6.150
 7655POPC   C1A55947  22.961   1.212   6.450
 7655POPC   D2A55948  22.987   1.257   6.750
 7655POPC   C3A55949  22.949   1.232   7.050
 7655POPC   C4A55950  22.981   1.170   7.350
 7655POPC   C1B55951  22.696   1.335   6.450
 7655POPC   C2B55952  22.722   1.307   6.750
 7655POPC   C3B55953  22.762   1.353   7.050
 7655POPC   C4B55954  22.768   1.343   7.350
 7656POPC   NC355955  33.052  21.354   5.550
 7656POPC   PO455956  33.058  21.424   5.850
 7656POPC   GL155957  33.055  21.395   6.150
 7656POPC   GL255958  33.126  21.416   6.150
 7656POPC   C1A55959  32.982  21.358   6.450
 7656POPC   D2A55960  33.025  21.415   6.750
 7656POPC   C3A55961  33.004  21.342   7.050
 7656POPC   C4A55962  33.017  21.352   7.350
 7656POPC   C1B55963  33.264  21.523   6.450
 7656POPC   C2B55964  33.286  21.476   6.750
 7656POPC   C3B55965  33.242  21.471   7.050
 7656POPC   C4B55966  33.247  21.478   7.350
 7657POPC   NC355967  42.383  19.872   5.550
 7657POPC   PO455968  42.366  19.861   5.850
 7657POPC   GL155969  42.293  19.819   6.150
 7657POPC   GL255970  42.461  19.905   6.150
 7657POPC   C1A55971  42.336  19.867   6.450
 7657POPC   D2A55972  42.285  19.819   6.750
 7657POPC   C3A55973  42.290  19.820   7.050
 7657POPC   C4A55974  42.301  19.838   7.350
 7657POPC   C1B55975  42.487  20.020   6.450
 7657POPC   C2B55976  42.536  19.971   6.750
 7657POPC   C3B55977  42.489  19.968   7.050
 7657POPC   C4B55978  42.552  20.043   7.350
 7658POPC   NC355979   9.019  35.401   5.550
 7658POPC   PO455980   9.008  35.380   5.850
 7658POPC   GL155981   8.989  35.401   6.150
 7658POPC   GL255982   8.915  35.425   6.150
 7658POPC   C1A55983   9.018  35.361   6.450
 7658POPC   D2A55984   9.008  35.402   6.750
 7658POPC   C3A55985   8.954  35.339   7.050
 7658POPC   C4A55986   8.993  35.400   7.350
 7658POPC   C1B55987   8.886  35.589   6.450
 7658POPC   C2B55988   8.937  35.642   6.750
 7658POPC   C3B55989   8.881  35.623   7.050
 7658POPC   C4B55990   8.957  35.639   7.350
 7659POPC   NC355991  32.293  30.653   5.550
 7659POPC   PO455992  32.252  30.740   5.850
 7659POPC   GL155993  32.211  30.692   6.150
 7659POPC   GL255994  32.129  30.782   6.150
 7659POPC   C1A55995  32.217  30.733   6.450
 7659POPC   D2A55996  32.236  30.652   6.750
 7659POPC   C3A55997  32.229  30.660   7.050
 7659POPC   C4A55998  32.231  30.688   7.350
 7659POPC   C1B55999  31.985  30.778   6.450
 7659POPC   C2B56000  32.042  30.770   6.750
 7659POPC   C3B56001  32.031  30.799   7.050
 7659POPC   C4B56002  31.999  30.819   7.350
 7660POPC   NC356003  26.002  36.116   5.550
 7660POPC   PO456004  26.088  36.169   5.850
 7660POPC   GL156005  26.052  36.174   6.150
 7660POPC   GL256006  25.900  36.073   6.150
 7660POPC   C1A56007  25.994  36.148   6.450
 7660POPC   D2A56008  26.053  36.106   6.750
 7660POPC   C3A56009  26.022  36.105   7.050
 7660POPC   C4A56010  26.054  36.110   7.350
 7660POPC   C1B56011  25.823  35.972   6.450
 7660POPC   C2B56012  25.852  35.964   6.750
 7660POPC   C3B56013  25.846  35.920   7.050
 7660POPC   C4B56014  25.837  35.983   7.350
 7661POPC   NC356015  30.696   5.873   5.550
 7661POPC   PO456016  30.678   5.870   5.850
 7661POPC   GL156017  30.737   5.893   6.150
 7661POPC   GL256018  30.827   5.764   6.150
 7661POPC   C1A56019  30.746   5.864   6.450
 7661POPC   D2A56020  30.721   5.916   6.750
 7661POPC   C3A56021  30.650   5.872   7.050
 7661POPC   C4A56022  30.713   5.891   7.350
 7661POPC   C1B56023  30.898   5.721   6.450
 7661POPC   C2B56024  30.958   5.712   6.750
 7661POPC   C3B56025  30.946   5.798   7.050
 7661POPC   C4B56026  30.909   5.748   7.350
 7662POPC   NC356027   5.053  10.480   5.550
 7662POPC   PO456028   5.071  10.527   5.850
 7662POPC   GL156029   5.118  10.497   6.150
 7662POPC   GL256030   4.968  10.662   6.150
 7662POPC   C1A56031   5.071  10.517   6.450
 7662POPC   D2A56032   5.089  10.491   6.750
 7662POPC   C3A56033   5.104  10.552   7.050
 7662POPC   C4A56034   5.072  10.492   7.350
 7662POPC   C1B56035   4.949  10.747   6.450
 7662POPC   C2B56036   4.964  10.740   6.750
 7662POPC   C3B56037   4.915  10.682   7.050
 7662POPC   C4B56038   4.979  10.749   7.350
 7663POPC   NC356039  13.583   0.403   5.550
 7663POPC   PO456040  13.644   0.435   5.850
 7663POPC   GL156041  13.619   0.486   6.150
 7663POPC   GL256042  13.722   0.502   6.150
 7663POPC   C1A56043  13.595   0.396   6.450
 7663POPC   D2A56044  13.632   0.400   6.750
 7663POPC   C3A56045  13.630   0.487   7.050
 7663POPC   C4A56046  13.588   0.471   7.350
 7663POPC   C1B56047  13.794   0.531   6.450
 7663POPC   C2B56048  13.872   0.623   6.750
 7663POPC   C3B56049  13.875   0.586   7.050
 7663POPC   C4B56050  13.804   0.586   7.350
 7664POPC   NC356051   4.361  12.802   5.550
 7664POPC   PO456052   4.306  12.817   5.850
 7664POPC   GL156053   4.343  12.853   6.150
 7664POPC   GL256054   4.290  12.694   6.150
 7664POPC   C1A56055   4.362  12.881   6.450
 7664POPC   D2A56056   4.364  12.875   6.750
 7664POPC   C3A56057   4.358  12.862   7.050
 7664POPC   C4A56058   4.326  12.825   7.350
 7664POPC   C1B56059   4.293  12.554   6.450
 7664POPC   C2B56060   4.368  12.571   6.750
 7664POPC   C3B56061   4.358  12.630   7.050
 7664POPC   C4B56062   4.302  12.639   7.350
 7665POPC   NC356063   5.902  24.514   5.550
 7665POPC   PO456064   5.857  24.492   5.850
 7665POPC   GL156065   5.868  24.515   6.150
 7665POPC   GL256066   6.004  24.573   6.150
 7665POPC   C1A56067   5.872  24.523   6.450
 7665POPC   D2A56068   5.831  24.487   6.750
 7665POPC   C3A56069   5.881  24.492   7.050
 7665POPC   C4A56070   5.825  24.463   7.350
 7665POPC   C1B56071   6.081  24.645   6.450
 7665POPC   C2B56072   6.052  24.667   6.750
 7665POPC   C3B56073   6.048  24.628   7.050
 7665POPC   C4B56074   6.083  24.683   7.350
 7666POPC   NC356075   7.467  26.812   5.550
 7666POPC   PO456076   7.399  26.798   5.850
 7666POPC   GL156077   7.450  26.801   6.150
 7666POPC   GL256078   7.476  26.739   6.150
 7666POPC   C1A56079   7.381  26.819   6.450
 7666POPC   D2A56080   7.429  26.802   6.750
 7666POPC   C3A56081   7.401  26.819   7.050
 7666POPC   C4A56082   7.399  26.827   7.350
 7666POPC   C1B56083   7.545  26.645   6.450
 7666POPC   C2B56084   7.600  26.591   6.750
 7666POPC   C3B56085   7.592  26.564   7.050
 7666POPC   C4B56086   7.525  26.588   7.350
 7667POPC   NC356087  11.278  29.909   5.550
 7667POPC   PO456088  11.319  29.873   5.850
 7667POPC   GL156089  11.327  29.944   6.150
 7667POPC   GL256090  11.333  30.068   6.150
 7667POPC   C1A56091  11.313  29.940   6.450
 7667POPC   D2A56092  11.304  29.943   6.750
 7667POPC   C3A56093  11.322  29.891   7.050
 7667POPC   C4A56094  11.253  29.878   7.350
 7667POPC   C1B56095  11.486  30.131   6.450
 7667POPC   C2B56096  11.430  30.119   6.750
 7667POPC   C3B56097  11.406  30.134   7.050
 7667POPC   C4B56098  11.458  30.075   7.350
 7668POPC   NC356099  12.075  32.267   5.550
 7668POPC   PO456100  12.044  32.292   5.850
 7668POPC   GL156101  12.112  32.201   6.150
 7668POPC   GL256102  12.058  32.310   6.150
 7668POPC   C1A56103  12.061  32.291   6.450
 7668POPC   D2A56104  12.094  32.295   6.750
 7668POPC   C3A56105  12.068  32.237   7.050
 7668POPC   C4A56106  12.074  32.217   7.350
 7668POPC   C1B56107  11.926  32.463   6.450
 7668POPC   C2B56108  11.986  32.432   6.750
 7668POPC   C3B56109  11.997  32.502   7.050
 7668POPC   C4B56110  11.982  32.441   7.350
 7669POPC   NC356111  40.833  12.102   5.550
 7669POPC   PO456112  40.738  12.067   5.850
 7669POPC   GL156113  40.794  12.102   6.150
 7669POPC   GL256114  40.886  12.029   6.150
 7669POPC   C1A56115  40.808  12.083   6.450
 7669POPC   D2A56116  40.743  12.089   6.750
 7669POPC   C3A56117  40.744  12.113   7.050
 7669POPC   C4A56118  40.785  12.079   7.350
 7669POPC   C1B56119  41.061  12.001   6.450
 7669POPC   C2B56120  40.991  11.961   6.750
 7669POPC   C3B56121  41.029  11.934   7.050
 7669POPC   C4B56122  41.007  11.957   7.350
 7670POPC   NC356123  38.477  41.573   5.550
 7670POPC   PO456124  38.455  41.519   5.850
 7670POPC   GL156125  38.480  41.521   6.150
 7670POPC   GL256126  38.627  41.568   6.150
 7670POPC   C1A56127  38.430  41.569   6.450
 7670POPC   D2A56128  38.478  41.524   6.750
 7670POPC   C3A56129  38.473  41.561   7.050
 7670POPC   C4A56130  38.432  41.542   7.350
 7670POPC   C1B56131  38.654  41.622   6.450
 7670POPC   C2B56132  38.714  41.579   6.750
 7670POPC   C3B56133  38.683  41.618   7.050
 7670POPC   C4B56134  38.706  41.571   7.350
 7671POPC   NC356135  39.984   2.037   5.550
 7671POPC   PO456136  40.018   2.027   5.850
 7671POPC   GL156137  39.973   2.016   6.150
 7671POPC   GL256138  39.928   1.895   6.150
 7671POPC   C1A56139  40.038   1.944   6.450
 7671POPC   D2A56140  39.978   2.007   6.750
 7671POPC   C3A56141  39.988   2.003   7.050
 7671POPC   C4A56142  40.025   1.951   7.350
 7671POPC   C1B56143  39.872   1.814   6.450
 7671POPC   C2B56144  39.901   1.771   6.750
 7671POPC   C3B56145  39.835   1.783   7.050
 7671POPC   C4B56146  39.854   1.779   7.350
 7672POPC   NC356147   2.740  30.732   5.550
 7672POPC   PO456148   2.735  30.669   5.850
 7672POPC   GL156149   2.785  30.686   6.150
 7672POPC   GL256150   2.684  30.672   6.150
 7672POPC   C1A56151   2.743  30.738   6.450
 7672POPC   D2A56152   2.722  30.726   6.750
 7672POPC   C3A56153   2.733  30.682   7.050
 7672POPC   C4A56154   2.771  30.689   7.350
 7672POPC   C1B56155   2.524  30.558   6.450
 7672POPC   C2B56156   2.590  30.570   6.750
 7672POPC   C3B56157   2.556  30.519   7.050
 7672POPC   C4B56158   2.590  30.547   7.350
 7673POPC   NC356159   7.425  23.692   5.550
 7673POPC   PO456160   7.381  23.759   5.850
 7673POPC   GL156161   7.407  23.731   6.150
 7673POPC   GL256162   7.303  23.643   6.150
 7673POPC   C1A56163   7.448  23.763   6.450
 7673POPC   D2A56164   7.414  23.697   6.750
 7673POPC   C3A56165   7.410  23.675   7.050
 7673POPC   C4A56166   7.397  23.753   7.350
 7673POPC   C1B56167   7.170  23.536   6.450
 7673POPC   C2B56168   7.233  23.531   6.750
 7673POPC   C3B56169   7.175  23.530   7.050
 7673POPC   C4B56170   7.220  23.547   7.350
 7674POPC   NC356171  11.326  41.513   5.550
 7674POPC   PO456172  11.336  41.591   5.850
 7674POPC   GL156173  11.289  41.584   6.150
 7674POPC   GL256174  11.262  41.434   6.150
 7674POPC   C1A56175  11.301  41.606   6.450
 7674POPC   D2A56176  11.273  41.607   6.750
 7674POPC   C3A56177  11.325  41.541   7.050
 7674POPC   C4A56178  11.326  41.572   7.350
 7674POPC   C1B56179  11.080  41.428   6.450
 7674POPC   C2B56180  11.172  41.381   6.750
 7674POPC   C3B56181  11.082  41.333   7.050
 7674POPC   C4B56182  11.154  41.416   7.350
 7675POPC   NC356183  11.313  25.232   5.550
 7675POPC   PO456184  11.344  25.255   5.850
 7675POPC   GL156185  11.258  25.270   6.150
 7675POPC   GL256186  11.343  25.187   6.150
 7675POPC   C1A56187  11.322  25.225   6.450
 7675POPC   D2A56188  11.288  25.305   6.750
 7675POPC   C3A56189  11.335  25.224   7.050
 7675POPC   C4A56190  11.251  25.309   7.350
 7675POPC   C1B56191  11.395  25.070   6.450
 7675POPC   C2B56192  11.406  25.084   6.750
 7675POPC   C3B56193  11.405  25.057   7.050
 7675POPC   C4B56194  11.384  25.080   7.350
 7676POPC   NC356195   4.269  32.979   5.550
 7676POPC   PO456196   4.330  33.029   5.850
 7676POPC   GL156197   4.344  32.996   6.150
 7676POPC   GL256198   4.213  32.913   6.150
 7676POPC   C1A56199   4.282  33.066   6.450
 7676POPC   D2A56200   4.338  33.050   6.750
 7676POPC   C3A56201   4.361  32.984   7.050
 7676POPC   C4A56202   4.351  33.013   7.350
 7676POPC   C1B56203   4.218  32.866   6.450
 7676POPC   C2B56204   4.152  32.816   6.750
 7676POPC   C3B56205   4.167  32.787   7.050
 7676POPC   C4B56206   4.204  32.785   7.350
 7677POPC   NC356207  23.708  29.162   5.550
 7677POPC   PO456208  23.705  29.162   5.850
 7677POPC   GL156209  23.702  29.111   6.150
 7677POPC   GL256210  23.848  29.184   6.150
 7677POPC   C1A56211  23.696  29.115   6.450
 7677POPC   D2A56212  23.748  29.127   6.750
 7677POPC   C3A56213  23.746  29.101   7.050
 7677POPC   C4A56214  23.760  29.156   7.350
 7677POPC   C1B56215  23.932  29.211   6.450
 7677POPC   C2B56216  23.947  29.202   6.750
 7677POPC   C3B56217  23.906  29.240   7.050
 7677POPC   C4B56218  23.945  29.203   7.350
 7678POPC   NC356219  22.137  22.920   5.550
 7678POPC   PO456220  22.132  22.925   5.850
 7678POPC   GL156221  22.128  22.985   6.150
 7678POPC   GL256222  22.050  23.081   6.150
 7678POPC   C1A56223  22.185  22.911   6.450
 7678POPC   D2A56224  22.155  22.934   6.750
 7678POPC   C3A56225  22.204  22.924   7.050
 7678POPC   C4A56226  22.187  22.959   7.350
 7678POPC   C1B56227  22.010  23.115   6.450
 7678POPC   C2B56228  22.058  23.157   6.750
 7678POPC   C3B56229  22.003  23.155   7.050
 7678POPC   C4B56230  21.996  23.133   7.350
 7679POPC   NC356231  36.881  19.058   5.550
 7679POPC   PO456232  36.874  19.044   5.850
 7679POPC   GL156233  36.945  19.085   6.150
 7679POPC   GL256234  36.821  19.036   6.150
 7679POPC   C1A56235  36.920  19.011   6.450
 7679POPC   D2A56236  36.947  19.090   6.750
 7679POPC   C3A56237  36.941  19.103   7.050
 7679POPC   C4A56238  36.901  19.061   7.350
 7679POPC   C1B56239  36.628  18.955   6.450
 7679POPC   C2B56240  36.639  18.979   6.750
 7679POPC   C3B56241  36.624  18.984   7.050
 7679POPC   C4B56242  36.644  18.971   7.350
 7680POPC   NC356243  27.589  41.577   5.550
 7680POPC   PO456244  27.611  41.564   5.850
 7680POPC   GL156245  27.554  41.561   6.150
 7680POPC   GL256246  27.630  41.669   6.150
 7680POPC   C1A56247  27.599  41.605   6.450
 7680POPC   D2A56248  27.627  41.576   6.750
 7680POPC   C3A56249  27.571  41.602   7.050
 7680POPC   C4A56250  27.566  41.580   7.350
 7680POPC   C1B56251  27.595  41.787   6.450
 7680POPC   C2B56252  27.659  41.827   6.750
 7680POPC   C3B56253  27.664  41.799   7.050
 7680POPC   C4B56254  27.580  41.757   7.350
 7681POPC   NC356255  36.118   0.425   5.550
 7681POPC   PO456256  36.106   0.402   5.850
 7681POPC   GL156257  36.163   0.477   6.150
 7681POPC   GL256258  36.133   0.584   6.150
 7681POPC   C1A56259  36.171   0.416   6.450
 7681POPC   D2A56260  36.099   0.465   6.750
 7681POPC   C3A56261  36.108   0.410   7.050
 7681POPC   C4A56262  36.114   0.420   7.350
 7681POPC   C1B56263  36.233   0.660   6.450
 7681POPC   C2B56264  36.252   0.691   6.750
 7681POPC   C3B56265  36.183   0.665   7.050
 7681POPC   C4B56266  36.175   0.719   7.350
 7682POPC   NC356267  22.189  39.237   5.550
 7682POPC   PO456268  22.206  39.191   5.850
 7682POPC   GL156269  22.144  39.209   6.150
 7682POPC   GL256270  22.083  39.327   6.150
 7682POPC   C1A56271  22.125  39.265   6.450
 7682POPC   D2A56272  22.158  39.207   6.750
 7682POPC   C3A56273  22.173  39.273   7.050
 7682POPC   C4A56274  22.208  39.247   7.350
 7682POPC   C1B56275  21.962  39.406   6.450
 7682POPC   C2B56276  22.005  39.459   6.750
 7682POPC   C3B56277  21.959  39.461   7.050
 7682POPC   C4B56278  21.956  39.437   7.350
 7683POPC   NC356279  26.058  37.633   5.550
 7683POPC   PO456280  26.030  37.634   5.850
 7683POPC   GL156281  25.996  37.708   6.150
 7683POPC   GL256282  26.158  37.609   6.150
 7683POPC   C1A56283  26.056  37.676   6.450
 7683POPC   D2A56284  25.992  37.649   6.750
 7683POPC   C3A56285  26.069  37.661   7.050
 7683POPC   C4A56286  26.066  37.677   7.350
 7683POPC   C1B56287  26.203  37.465   6.450
 7683POPC   C2B56288  26.162  37.446   6.750
 7683POPC   C3B56289  26.127  37.457   7.050
 7683POPC   C4B56290  26.129  37.508   7.350
 7684POPC   NC356291  15.228  10.553   5.550
 7684POPC   PO456292  15.192  10.551   5.850
 7684POPC   GL156293  15.139  10.477   6.150
 7684POPC   GL256294  15.019  10.472   6.150
 7684POPC   C1A56295  15.187  10.496   6.450
 7684POPC   D2A56296  15.176  10.536   6.750
 7684POPC   C3A56297  15.138  10.536   7.050
 7684POPC   C4A56298  15.165  10.549   7.350
 7684POPC   C1B56299  14.970  10.406   6.450
 7684POPC   C2B56300  14.971  10.476   6.750
 7684POPC   C3B56301  14.939  10.467   7.050
 7684POPC   C4B56302  14.979  10.455   7.350
 7685POPC   NC356303  36.857  22.903   5.550
 7685POPC   PO456304  36.892  22.889   5.850
 7685POPC   GL156305  36.949  22.938   6.150
 7685POPC   GL256306  36.895  22.813   6.150
 7685POPC   C1A56307  36.924  22.901   6.450
 7685POPC   D2A56308  36.923  22.915   6.750
 7685POPC   C3A56309  36.939  22.945   7.050
 7685POPC   C4A56310  36.952  22.979   7.350
 7685POPC   C1B56311  37.009  22.725   6.450
 7685POPC   C2B56312  37.007  22.721   6.750
 7685POPC   C3B56313  36.953  22.727   7.050
 7685POPC   C4B56314  36.916  22.687   7.350
 7686POPC   NC356315  22.930  22.910   5.550
 7686POPC   PO456316  22.973  22.904   5.850
 7686POPC   GL156317  22.947  22.913   6.150
 7686POPC   GL256318  23.042  22.908   6.150
 7686POPC   C1A56319  22.897  22.910   6.450
 7686POPC   D2A56320  22.938  22.974   6.750
 7686POPC   C3A56321  22.918  22.958   7.050
 7686POPC   C4A56322  22.919  22.974   7.350
 7686POPC   C1B56323  23.184  22.825   6.450
 7686POPC   C2B56324  23.201  22.885   6.750
 7686POPC   C3B56325  23.219  22.845   7.050
 7686POPC   C4B56326  23.218  22.821   7.350
 7687POPC   NC356327  26.084   5.850   5.550
 7687POPC   PO456328  25.999   5.909   5.850
 7687POPC   GL156329  26.066   5.857   6.150
 7687POPC   GL256330  26.169   5.910   6.150
 7687POPC   C1A56331  26.059   5.820   6.450
 7687POPC   D2A56332  26.050   5.881   6.750
 7687POPC   C3A56333  26.033   5.916   7.050
 7687POPC   C4A56334  26.056   5.849   7.350
 7687POPC   C1B56335  26.293   5.852   6.450
 7687POPC   C2B56336  26.285   5.851   6.750
 7687POPC   C3B56337  26.295   5.899   7.050
 7687POPC   C4B56338  26.275   5.810   7.350
 7688POPC   NC356339  42.369  39.974   5.550
 7688POPC   PO456340  42.358  39.968   5.850
 7688POPC   GL156341  42.297  40.014   6.150
 7688POPC   GL256342  42.244  40.078   6.150
 7688POPC   C1A56343  42.327  40.026   6.450
 7688POPC   D2A56344  42.327  40.051   6.750
 7688POPC   C3A56345  42.320  39.977   7.050
 7688POPC   C4A56346  42.322  39.960   7.350
 7688POPC   C1B56347  42.115  40.163   6.450
 7688POPC   C2B56348  42.146  40.117   6.750
 7688POPC   C3B56349  42.070  40.140   7.050
 7688POPC   C4B56350  42.119  40.148   7.350
 7689POPC   NC356351  26.017  21.404   5.550
 7689POPC   PO456352  26.041  21.398   5.850
 7689POPC   GL156353  26.017  21.418   6.150
 7689POPC   GL256354  26.160  21.327   6.150
 7689POPC   C1A56355  26.054  21.397   6.450
 7689POPC   D2A56356  26.025  21.361   6.750
 7689POPC   C3A56357  26.012  21.356   7.050
 7689POPC   C4A56358  26.057  21.422   7.350
 7689POPC   C1B56359  26.329  21.281   6.450
 7689POPC   C2B56360  26.259  21.320   6.750
 7689POPC   C3B56361  26.262  21.314   7.050
 7689POPC   C4B56362  26.262  21.331   7.350
 7690POPC   NC356363  29.152  32.255   5.550
 7690POPC   PO456364  29.146  32.213   5.850
 7690POPC   GL156365  29.169  32.286   6.150
 7690POPC   GL256366  29.260  32.313   6.150
 7690POPC   C1A56367  29.126  32.218   6.450
 7690POPC   D2A56368  29.146  32.207   6.750
 7690POPC   C3A56369  29.153  32.207   7.050
 7690POPC   C4A56370  29.165  32.201   7.350
 7690POPC   C1B56371  29.347  32.395   6.450
 7690POPC   C2B56372  29.271  32.435   6.750
 7690POPC   C3B56373  29.323  32.451   7.050
 7690POPC   C4B56374  29.301  32.423   7.350
 7691POPC   NC356375  10.569   3.498   5.550
 7691POPC   PO456376  10.541   3.575   5.850
 7691POPC   GL156377  10.558   3.578   6.150
 7691POPC   GL256378  10.606   3.641   6.150
 7691POPC   C1A56379  10.544   3.577   6.450
 7691POPC   D2A56380  10.542   3.572   6.750
 7691POPC   C3A56381  10.490   3.530   7.050
 7691POPC   C4A56382  10.507   3.513   7.350
 7691POPC   C1B56383  10.763   3.720   6.450
 7691POPC   C2B56384  10.687   3.683   6.750
 7691POPC   C3B56385  10.742   3.741   7.050
 7691POPC   C4B56386  10.758   3.714   7.350
 7692POPC   NC356387   8.936  26.783   5.550
 7692POPC   PO456388   9.004  26.848   5.850
 7692POPC   GL156389   8.965  26.836   6.150
 7692POPC   GL256390   9.118  26.772   6.150
 7692POPC   C1A56391   8.981  26.832   6.450
 7692POPC   D2A56392   8.933  26.798   6.750
 7692POPC   C3A56393   8.931  26.852   7.050
 7692POPC   C4A56394   8.985  26.768   7.350
 7692POPC   C1B56395   9.206  26.729   6.450
 7692POPC   C2B56396   9.238  26.700   6.750
 7692POPC   C3B56397   9.178  26.672   7.050
 7692POPC   C4B56398   9.227  26.693   7.350
 7693POPC   NC356399  22.913  31.435   5.550
 7693POPC   PO456400  22.944  31.494   5.850
 7693POPC   GL156401  22.973  31.491   6.150
 7693POPC   GL256402  23.036  31.531   6.150
 7693POPC   C1A56403  22.956  31.506   6.450
 7693POPC   D2A56404  22.913  31.435   6.750
 7693POPC   C3A56405  22.914  31.433   7.050
 7693POPC   C4A56406  22.924  31.442   7.350
 7693POPC   C1B56407  23.166  31.580   6.450
 7693POPC   C2B56408  23.176  31.530   6.750
 7693POPC   C3B56409  23.170  31.582   7.050
 7693POPC   C4B56410  23.138  31.534   7.350
 7694POPC   NC356411  39.974  22.145   5.550
 7694POPC   PO456412  39.961  22.120   5.850
 7694POPC   GL156413  40.021  22.180   6.150
 7694POPC   GL256414  40.025  22.010   6.150
 7694POPC   C1A56415  40.047  22.190   6.450
 7694POPC   D2A56416  40.006  22.134   6.750
 7694POPC   C3A56417  40.056  22.209   7.050
 7694POPC   C4A56418  40.046  22.166   7.350
 7694POPC   C1B56419  40.080  21.949   6.450
 7694POPC   C2B56420  40.051  21.890   6.750
 7694POPC   C3B56421  40.087  21.881   7.050
 7694POPC   C4B56422  40.134  21.963   7.350
 7695POPC   NC356423  33.761   5.079   5.550
 7695POPC   PO456424  33.754   5.111   5.850
 7695POPC   GL156425  33.754   5.056   6.150
 7695POPC   GL256426  33.667   5.160   6.150
 7695POPC   C1A56427  33.819   5.111   6.450
 7695POPC   D2A56428  33.783   5.121   6.750
 7695POPC   C3A56429  33.775   5.130   7.050
 7695POPC   C4A56430  33.812   5.105   7.350
 7695POPC   C1B56431  33.566   5.087   6.450
 7695POPC   C2B56432  33.596   5.095   6.750
 7695POPC   C3B56433  33.526   5.113   7.050
 7695POPC   C4B56434  33.544   5.119   7.350
 7696POPC   NC356435  35.333   2.013   5.550
 7696POPC   PO456436  35.335   1.999   5.850
 7696POPC   GL156437  35.369   1.979   6.150
 7696POPC   GL256438  35.486   2.010   6.150
 7696POPC   C1A56439  35.318   1.956   6.450
 7696POPC   D2A56440  35.305   2.010   6.750
 7696POPC   C3A56441  35.307   2.033   7.050
 7696POPC   C4A56442  35.379   1.942   7.350
 7696POPC   C1B56443  35.612   1.927   6.450
 7696POPC   C2B56444  35.603   1.958   6.750
 7696POPC   C3B56445  35.579   1.931   7.050
 7696POPC   C4B56446  35.641   1.957   7.350
 7697POPC   NC356447   4.365  12.113   5.550
 7697POPC   PO456448   4.361  12.030   5.850
 7697POPC   GL156449   4.268  12.030   6.150
 7697POPC   GL256450   4.281  12.224   6.150
 7697POPC   C1A56451   4.327  12.061   6.450
 7697POPC   D2A56452   4.367  12.116   6.750
 7697POPC   C3A56453   4.360  12.117   7.050
 7697POPC   C4A56454   4.268  12.116   7.350
 7697POPC   C1B56455   4.269  12.372   6.450
 7697POPC   C2B56456   4.314  12.355   6.750
 7697POPC   C3B56457   4.316  12.372   7.050
 7697POPC   C4B56458   4.339  12.343   7.350
 7698POPC   NC356459  37.692  29.956   5.550
 7698POPC   PO456460  37.651  29.929   5.850
 7698POPC   GL156461  37.688  29.908   6.150
 7698POPC   GL256462  37.602  29.894   6.150
 7698POPC   C1A56463  37.729  29.925   6.450
 7698POPC   D2A56464  37.644  29.922   6.750
 7698POPC   C3A56465  37.682  29.914   7.050
 7698POPC   C4A56466  37.712  29.908   7.350
 7698POPC   C1B56467  37.494  29.837   6.450
 7698POPC   C2B56468  37.436  29.823   6.750
 7698POPC   C3B56469  37.486  29.828   7.050
 7698POPC   C4B56470  37.445  29.776   7.350
 7699POPC   NC356471  12.070  25.992   5.550
 7699POPC   PO456472  12.037  26.044   5.850
 7699POPC   GL156473  12.120  26.066   6.150
 7699POPC   GL256474  12.205  25.986   6.150
 7699POPC   C1A56475  12.057  25.998   6.450
 7699POPC   D2A56476  12.117  25.995   6.750
 7699POPC   C3A56477  12.106  25.997   7.050
 7699POPC   C4A56478  12.104  26.091   7.350
 7699POPC   C1B56479  12.228  25.917   6.450
 7699POPC   C2B56480  12.253  25.891   6.750
 7699POPC   C3B56481  12.258  25.841   7.050
 7699POPC   C4B56482  12.286  25.872   7.350
 7700POPC   NC356483  39.280  15.983   5.550
 7700POPC   PO456484  39.204  15.966   5.850
 7700POPC   GL156485  39.182  15.979   6.150
 7700POPC   GL256486  39.283  16.047   6.150
 7700POPC   C1A56487  39.191  15.921   6.450
 7700POPC   D2A56488  39.251  16.004   6.750
 7700POPC   C3A56489  39.267  15.971   7.050
 7700POPC   C4A56490  39.200  15.976   7.350
 7700POPC   C1B56491  39.308  16.164   6.450
 7700POPC   C2B56492  39.301  16.237   6.750
 7700POPC   C3B56493  39.277  16.230   7.050
 7700POPC   C4B56494  39.296  16.238   7.350
 7701POPC   NC356495  19.832  22.130   5.550
 7701POPC   PO456496  19.793  22.150   5.850
 7701POPC   GL156497  19.880  22.138   6.150
 7701POPC   GL256498  19.912  22.224   6.150
 7701POPC   C1A56499  19.808  22.197   6.450
 7701POPC   D2A56500  19.880  22.120   6.750
 7701POPC   C3A56501  19.879  22.167   7.050
 7701POPC   C4A56502  19.863  22.134   7.350
 7701POPC   C1B56503  20.056  22.248   6.450
 7701POPC   C2B56504  20.102  22.238   6.750
 7701POPC   C3B56505  20.044  22.229   7.050
 7701POPC   C4B56506  20.087  22.221   7.350
 7702POPC   NC356507   3.501  12.881   5.550
 7702POPC   PO456508   3.499  12.819   5.850
 7702POPC   GL156509   3.578  12.861   6.150
 7702POPC   GL256510   3.391  12.928   6.150
 7702POPC   C1A56511   3.533  12.856   6.450
 7702POPC   D2A56512   3.589  12.824   6.750
 7702POPC   C3A56513   3.519  12.888   7.050
 7702POPC   C4A56514   3.502  12.815   7.350
 7702POPC   C1B56515   3.381  13.014   6.450
 7702POPC   C2B56516   3.378  12.951   6.750
 7702POPC   C3B56517   3.356  12.976   7.050
 7702POPC   C4B56518   3.330  12.974   7.350
 7703POPC   NC356519  21.373  15.941   5.550
 7703POPC   PO456520  21.401  15.910   5.850
 7703POPC   GL156521  21.359  15.962   6.150
 7703POPC   GL256522  21.284  15.868   6.150
 7703POPC   C1A56523  21.377  15.993   6.450
 7703POPC   D2A56524  21.358  15.975   6.750
 7703POPC   C3A56525  21.385  15.999   7.050
 7703POPC   C4A56526  21.349  15.996   7.350
 7703POPC   C1B56527  21.180  15.764   6.450
 7703POPC   C2B56528  21.227  15.787   6.750
 7703POPC   C3B56529  21.162  15.781   7.050
 7703POPC   C4B56530  21.227  15.776   7.350
 7704POPC   NC356531  24.471  37.675   5.550
 7704POPC   PO456532  24.462  37.662   5.850
 7704POPC   GL156533  24.499  37.654   6.150
 7704POPC   GL256534  24.436  37.839   6.150
 7704POPC   C1A56535  24.482  37.722   6.450
 7704POPC   D2A56536  24.517  37.718   6.750
 7704POPC   C3A56537  24.473  37.706   7.050
 7704POPC   C4A56538  24.521  37.703   7.350
 7704POPC   C1B56539  24.485  37.892   6.450
 7704POPC   C2B56540  24.485  37.942   6.750
 7704POPC   C3B56541  24.440  37.919   7.050
 7704POPC   C4B56542  24.409  37.874   7.350
 7705POPC   NC356543  12.091  36.879   5.550
 7705POPC   PO456544  12.110  36.904   5.850
 7705POPC   GL156545  12.047  36.928   6.150
 7705POPC   GL256546  11.974  36.882   6.150
 7705POPC   C1A56547  12.065  36.916   6.450
 7705POPC   D2A56548  12.121  36.860   6.750
 7705POPC   C3A56549  12.068  36.858   7.050
 7705POPC   C4A56550  12.113  36.877   7.350
 7705POPC   C1B56551  11.856  36.755   6.450
 7705POPC   C2B56552  11.804  36.757   6.750
 7705POPC   C3B56553  11.869  36.812   7.050
 7705POPC   C4B56554  11.808  36.844   7.350
 7706POPC   NC356555  39.993  29.932   5.550
 7706POPC   PO456556  40.046  29.926   5.850
 7706POPC   GL156557  40.032  29.898   6.150
 7706POPC   GL256558  40.012  29.804   6.150
 7706POPC   C1A56559  39.980  29.912   6.450
 7706POPC   D2A56560  40.023  29.962   6.750
 7706POPC   C3A56561  40.022  29.934   7.050
 7706POPC   C4A56562  40.014  29.872   7.350
 7706POPC   C1B56563  40.087  29.694   6.450
 7706POPC   C2B56564  40.089  29.729   6.750
 7706POPC   C3B56565  40.117  29.690   7.050
 7706POPC   C4B56566  40.069  29.707   7.350
 7707POPC   NC356567  34.617  37.668   5.550
 7707POPC   PO456568  34.549  37.670   5.850
 7707POPC   GL156569  34.526  37.645   6.150
 7707POPC   GL256570  34.598  37.756   6.150
 7707POPC   C1A56571  34.610  37.660   6.450
 7707POPC   D2A56572  34.625  37.630   6.750
 7707POPC   C3A56573  34.556  37.696   7.050
 7707POPC   C4A56574  34.571  37.707   7.350
 7707POPC   C1B56575  34.738  37.920   6.450
 7707POPC   C2B56576  34.741  37.903   6.750
 7707POPC   C3B56577  34.670  37.898   7.050
 7707POPC   C4B56578  34.743  37.891   7.350
 7708POPC   NC356579  28.381   4.282   5.550
 7708POPC   PO456580  28.326   4.279   5.850
 7708POPC   GL156581  28.325   4.275   6.150
 7708POPC   GL256582  28.221   4.338   6.150
 7708POPC   C1A56583  28.368   4.292   6.450
 7708POPC   D2A56584  28.347   4.276   6.750
 7708POPC   C3A56585  28.381   4.334   7.050
 7708POPC   C4A56586  28.344   4.291   7.350
 7708POPC   C1B56587  28.136   4.493   6.450
 7708POPC   C2B56588  28.123   4.441   6.750
 7708POPC   C3B56589  28.140   4.438   7.050
 7708POPC   C4B56590  28.206   4.413   7.350
 7709POPC   NC356591  36.124  15.165   5.550
 7709POPC   PO456592  36.153  15.188   5.850
 7709POPC   GL156593  36.141  15.192   6.150
 7709POPC   GL256594  35.999  15.062   6.150
 7709POPC   C1A56595  36.090  15.170   6.450
 7709POPC   D2A56596  36.142  15.183   6.750
 7709POPC   C3A56597  36.103  15.206   7.050
 7709POPC   C4A56598  36.127  15.188   7.350
 7709POPC   C1B56599  35.934  15.044   6.450
 7709POPC   C2B56600  35.934  15.009   6.750
 7709POPC   C3B56601  35.927  15.017   7.050
 7709POPC   C4B56602  35.882  15.062   7.350
 7710POPC   NC356603  19.807   1.201   5.550
 7710POPC   PO456604  19.851   1.185   5.850
 7710POPC   GL156605  19.877   1.221   6.150
 7710POPC   GL256606  19.764   1.263   6.150
 7710POPC   C1A56607  19.836   1.238   6.450
 7710POPC   D2A56608  19.850   1.244   6.750
 7710POPC   C3A56609  19.790   1.235   7.050
 7710POPC   C4A56610  19.785   1.208   7.350
 7710POPC   C1B56611  19.665   1.365   6.450
 7710POPC   C2B56612  19.648   1.349   6.750
 7710POPC   C3B56613  19.672   1.361   7.050
 7710POPC   C4B56614  19.627   1.347   7.350
 7711POPC   NC356615  36.131   9.700   5.550
 7711POPC   PO456616  36.155   9.712   5.850
 7711POPC   GL156617  36.162   9.755   6.150
 7711POPC   GL256618  36.210   9.831   6.150
 7711POPC   C1A56619  36.150   9.750   6.450
 7711POPC   D2A56620  36.151   9.779   6.750
 7711POPC   C3A56621  36.159   9.731   7.050
 7711POPC   C4A56622  36.089   9.769   7.350
 7711POPC   C1B56623  36.308   9.857   6.450
 7711POPC   C2B56624  36.395   9.821   6.750
 7711POPC   C3B56625  36.311   9.895   7.050
 7711POPC   C4B56626  36.375   9.837   7.350
 7712POPC   NC356627  13.621   8.991   5.550
 7712POPC   PO456628  13.643   8.946   5.850
 7712POPC   GL156629  13.609   8.996   6.150
 7712POPC   GL256630  13.722   8.955   6.150
 7712POPC   C1A56631  13.624   8.981   6.450
 7712POPC   D2A56632  13.579   8.988   6.750
 7712POPC   C3A56633  13.604   8.942   7.050
 7712POPC   C4A56634  13.622   8.960   7.350
 7712POPC   C1B56635  13.894   8.828   6.450
 7712POPC   C2B56636  13.881   8.826   6.750
 7712POPC   C3B56637  13.872   8.861   7.050
 7712POPC   C4B56638  13.843   8.842   7.350
 7713POPC   NC356639  22.119  19.074   5.550
 7713POPC   PO456640  22.143  19.060   5.850
 7713POPC   GL156641  22.192  19.058   6.150
 7713POPC   GL256642  22.244  18.954   6.150
 7713POPC   C1A56643  22.181  19.065   6.450
 7713POPC   D2A56644  22.129  19.073   6.750
 7713POPC   C3A56645  22.193  19.060   7.050
 7713POPC   C4A56646  22.195  19.012   7.350
 7713POPC   C1B56647  22.405  18.959   6.450
 7713POPC   C2B56648  22.390  18.873   6.750
 7713POPC   C3B56649  22.363  18.897   7.050
 7713POPC   C4B56650  22.331  18.893   7.350
 7714POPC   NC356651  12.864  25.234   5.550
 7714POPC   PO456652  12.868  25.295   5.850
 7714POPC   GL156653  12.891  25.235   6.150
 7714POPC   GL256654  12.913  25.167   6.150
 7714POPC   C1A56655  12.832  25.308   6.450
 7714POPC   D2A56656  12.813  25.246   6.750
 7714POPC   C3A56657  12.900  25.285   7.050
 7714POPC   C4A56658  12.872  25.294   7.350
 7714POPC   C1B56659  13.091  25.188   6.450
 7714POPC   C2B56660  13.065  25.102   6.750
 7714POPC   C3B56661  13.059  25.103   7.050
 7714POPC   C4B56662  13.041  25.166   7.350
 7715POPC   NC356663  44.671   4.283   5.550
 7715POPC   PO456664  44.677   4.329   5.850
 7715POPC   GL156665  44.684   4.322   6.150
 7715POPC   GL256666  44.704   4.392   6.150
 7715POPC   C1A56667  44.685   4.353   6.450
 7715POPC   D2A56668  44.685   4.329   6.750
 7715POPC   C3A56669  44.644   4.320   7.050
 7715POPC   C4A56670  44.711   4.318   7.350
 7715POPC   C1B56671  44.720   4.513   6.450
 7715POPC   C2B56672  44.722   4.548   6.750
 7715POPC   C3B56673  44.775   4.585   7.050
 7715POPC   C4B56674  44.710   4.508   7.350
 7716POPC   NC356675  29.135  24.454   5.550
 7716POPC   PO456676  29.184  24.537   5.850
 7716POPC   GL156677  29.157  24.479   6.150
 7716POPC   GL256678  29.015  24.562   6.150
 7716POPC   C1A56679  29.128  24.504   6.450
 7716POPC   D2A56680  29.148  24.472   6.750
 7716POPC   C3A56681  29.178  24.508   7.050
 7716POPC   C4A56682  29.133  24.519   7.350
 7716POPC   C1B56683  29.021  24.724   6.450
 7716POPC   C2B56684  28.967  24.716   6.750
 7716POPC   C3B56685  29.013  24.654   7.050
 7716POPC   C4B56686  28.956  24.661   7.350
 7717POPC   NC356687  32.980  27.568   5.550
 7717POPC   PO456688  33.008  27.639   5.850
 7717POPC   GL156689  33.023  27.583   6.150
 7717POPC   GL256690  33.068  27.699   6.150
 7717POPC   C1A56691  33.052  27.570   6.450
 7717POPC   D2A56692  32.988  27.631   6.750
 7717POPC   C3A56693  33.027  27.620   7.050
 7717POPC   C4A56694  33.026  27.552   7.350
 7717POPC   C1B56695  33.042  27.850   6.450
 7717POPC   C2B56696  33.037  27.866   6.750
 7717POPC   C3B56697  33.023  27.803   7.050
 7717POPC   C4B56698  32.968  27.877   7.350
 7718POPC   NC356699   7.456   5.892   5.550
 7718POPC   PO456700   7.410   5.852   5.850
 7718POPC   GL156701   7.444   5.875   6.150
 7718POPC   GL256702   7.457   5.707   6.150
 7718POPC   C1A56703   7.464   5.845   6.450
 7718POPC   D2A56704   7.466   5.853   6.750
 7718POPC   C3A56705   7.453   5.907   7.050
 7718POPC   C4A56706   7.385   5.887   7.350
 7718POPC   C1B56707   7.491   5.664   6.450
 7718POPC   C2B56708   7.572   5.621   6.750
 7718POPC   C3B56709   7.482   5.596   7.050
 7718POPC   C4B56710   7.541   5.629   7.350
 7719POPC   NC356711   6.596   8.149   5.550
 7719POPC   PO456712   6.608   8.150   5.850
 7719POPC   GL156713   6.599   8.246   6.150
 7719POPC   GL256714   6.662   8.290   6.150
 7719POPC   C1A56715   6.659   8.216   6.450
 7719POPC   D2A56716   6.675   8.149   6.750
 7719POPC   C3A56717   6.662   8.167   7.050
 7719POPC   C4A56718   6.643   8.219   7.350
 7719POPC   C1B56719   6.593   8.456   6.450
 7719POPC   C2B56720   6.613   8.398   6.750
 7719POPC   C3B56721   6.552   8.417   7.050
 7719POPC   C4B56722   6.568   8.432   7.350
 7720POPC   NC356723   9.778  15.909   5.550
 7720POPC   PO456724   9.764  15.930   5.850
 7720POPC   GL156725   9.792  15.948   6.150
 7720POPC   GL256726   9.736  16.121   6.150
 7720POPC   C1A56727   9.781  15.977   6.450
 7720POPC   D2A56728   9.737  15.918   6.750
 7720POPC   C3A56729   9.792  15.998   7.050
 7720POPC   C4A56730   9.795  16.004   7.350
 7720POPC   C1B56731   9.752  16.241   6.450
 7720POPC   C2B56732   9.811  16.169   6.750
 7720POPC   C3B56733   9.739  16.215   7.050
 7720POPC   C4B56734   9.788  16.160   7.350
 7721POPC   NC356735  22.958   1.962   5.550
 7721POPC   PO456736  22.982   2.022   5.850
 7721POPC   GL156737  22.928   2.001   6.150
 7721POPC   GL256738  22.913   1.867   6.150
 7721POPC   C1A56739  22.927   2.034   6.450
 7721POPC   D2A56740  22.904   2.036   6.750
 7721POPC   C3A56741  22.911   2.036   7.050
 7721POPC   C4A56742  22.899   1.968   7.350
 7721POPC   C1B56743  22.864   1.810   6.450
 7721POPC   C2B56744  22.873   1.734   6.750
 7721POPC   C3B56745  22.822   1.721   7.050
 7721POPC   C4B56746  22.862   1.757   7.350
 7722POPC   NC356747   6.666  12.042   5.550
 7722POPC   PO456748   6.669  12.092   5.850
 7722POPC   GL156749   6.646  12.097   6.150
 7722POPC   GL256750   6.614  12.232   6.150
 7722POPC   C1A56751   6.670  12.093   6.450
 7722POPC   D2A56752   6.651  12.073   6.750
 7722POPC   C3A56753   6.650  12.049   7.050
 7722POPC   C4A56754   6.684  12.054   7.350
 7722POPC   C1B56755   6.559  12.305   6.450
 7722POPC   C2B56756   6.521  12.315   6.750
 7722POPC   C3B56757   6.565  12.285   7.050
 7722POPC   C4B56758   6.535  12.344   7.350
 7723POPC   NC356759  25.246  12.090   5.550
 7723POPC   PO456760  25.265  12.097   5.850
 7723POPC   GL156761  25.232  12.115   6.150
 7723POPC   GL256762  25.165  11.979   6.150
 7723POPC   C1A56763  25.265  12.102   6.450
 7723POPC   D2A56764  25.280  12.122   6.750
 7723POPC   C3A56765  25.279  12.103   7.050
 7723POPC   C4A56766  25.304  12.123   7.350
 7723POPC   C1B56767  25.021  11.925   6.450
 7723POPC   C2B56768  25.028  11.988   6.750
 7723POPC   C3B56769  25.070  11.903   7.050
 7723POPC   C4B56770  25.082  11.982   7.350
 7724POPC   NC356771  16.738  25.266   5.550
 7724POPC   PO456772  16.682  25.256   5.850
 7724POPC   GL156773  16.744  25.224   6.150
 7724POPC   GL256774  16.782  25.412   6.150
 7724POPC   C1A56775  16.761  25.247   6.450
 7724POPC   D2A56776  16.701  25.279   6.750
 7724POPC   C3A56777  16.699  25.274   7.050
 7724POPC   C4A56778  16.767  25.273   7.350
 7724POPC   C1B56779  16.830  25.528   6.450
 7724POPC   C2B56780  16.823  25.511   6.750
 7724POPC   C3B56781  16.835  25.539   7.050
 7724POPC   C4B56782  16.781  25.496   7.350
 7725POPC   NC356783   7.421  36.947   5.550
 7725POPC   PO456784   7.425  36.877   5.850
 7725POPC   GL156785   7.466  36.950   6.150
 7725POPC   GL256786   7.388  36.779   6.150
 7725POPC   C1A56787   7.419  36.929   6.450
 7725POPC   D2A56788   7.433  36.952   6.750
 7725POPC   C3A56789   7.378  36.923   7.050
 7725POPC   C4A56790   7.429  36.881   7.350
 7725POPC   C1B56791   7.418  36.613   6.450
 7725POPC   C2B56792   7.404  36.674   6.750
 7725POPC   C3B56793   7.462  36.606   7.050
 7725POPC   C4B56794   7.472  36.624   7.350
 7726POPC   NC356795  41.528  32.205   5.550
 7726POPC   PO456796  41.596  32.297   5.850
 7726POPC   GL156797  41.591  32.245   6.150
 7726POPC   GL256798  41.603  32.153   6.150
 7726POPC   C1A56799  41.571  32.234   6.450
 7726POPC   D2A56800  41.562  32.274   6.750
 7726POPC   C3A56801  41.562  32.226   7.050
 7726POPC   C4A56802  41.528  32.260   7.350
 7726POPC   C1B56803  41.612  32.028   6.450
 7726POPC   C2B56804  41.558  31.953   6.750
 7726POPC   C3B56805  41.568  32.027   7.050
 7726POPC   C4B56806  41.624  32.006   7.350
 7727POPC   NC356807  15.218  13.617   5.550
 7727POPC   PO456808  15.217  13.653   5.850
 7727POPC   GL156809  15.198  13.587   6.150
 7727POPC   GL256810  15.349  13.604   6.150
 7727POPC   C1A56811  15.194  13.675   6.450
 7727POPC   D2A56812  15.174  13.653   6.750
 7727POPC   C3A56813  15.153  13.654   7.050
 7727POPC   C4A56814  15.143  13.601   7.350
 7727POPC   C1B56815  15.441  13.669   6.450
 7727POPC   C2B56816  15.393  13.625   6.750
 7727POPC   C3B56817  15.441  13.581   7.050
 7727POPC   C4B56818  15.466  13.577   7.350
 7728POPC   NC356819  21.426  12.802   5.550
 7728POPC   PO456820  21.432  12.849   5.850
 7728POPC   GL156821  21.382  12.867   6.150
 7728POPC   GL256822  21.227  12.797   6.150
 7728POPC   C1A56823  21.422  12.853   6.450
 7728POPC   D2A56824  21.394  12.842   6.750
 7728POPC   C3A56825  21.381  12.868   7.050
 7728POPC   C4A56826  21.353  12.895   7.350
 7728POPC   C1B56827  21.170  12.753   6.450
 7728POPC   C2B56828  21.125  12.768   6.750
 7728POPC   C3B56829  21.177  12.720   7.050
 7728POPC   C4B56830  21.181  12.754   7.350
 7729POPC   NC356831  38.408  27.574   5.550
 7729POPC   PO456832  38.464  27.613   5.850
 7729POPC   GL156833  38.448  27.566   6.150
 7729POPC   GL256834  38.313  27.598   6.150
 7729POPC   C1A56835  38.416  27.544   6.450
 7729POPC   D2A56836  38.484  27.618   6.750
 7729POPC   C3A56837  38.491  27.558   7.050
 7729POPC   C4A56838  38.448  27.584   7.350
 7729POPC   C1B56839  38.255  27.676   6.450
 7729POPC   C2B56840  38.206  27.642   6.750
 7729POPC   C3B56841  38.246  27.602   7.050
 7729POPC   C4B56842  38.241  27.687   7.350
 7730POPC   NC356843  24.441   8.244   5.550
 7730POPC   PO456844  24.497   8.148   5.850
 7730POPC   GL156845  24.508   8.148   6.150
 7730POPC   GL256846  24.384   8.130   6.150
 7730POPC   C1A56847  24.499   8.191   6.450
 7730POPC   D2A56848  24.470   8.174   6.750
 7730POPC   C3A56849  24.467   8.186   7.050
 7730POPC   C4A56850  24.513   8.158   7.350
 7730POPC   C1B56851  24.299   8.135   6.450
 7730POPC   C2B56852  24.285   8.079   6.750
 7730POPC   C3B56853  24.257   8.056   7.050
 7730POPC   C4B56854  24.223   8.049   7.350
 7731POPC   NC356855  19.019  40.032   5.550
 7731POPC   PO456856  19.032  40.023   5.850
 7731POPC   GL156857  19.105  39.982   6.150
 7731POPC   GL256858  19.220  39.988   6.150
 7731POPC   C1A56859  19.104  39.984   6.450
 7731POPC   D2A56860  19.015  40.000   6.750
 7731POPC   C3A56861  19.092  40.054   7.050
 7731POPC   C4A56862  19.097  40.014   7.350
 7731POPC   C1B56863  19.305  39.885   6.450
 7731POPC   C2B56864  19.254  39.881   6.750
 7731POPC   C3B56865  19.285  39.877   7.050
 7731POPC   C4B56866  19.323  39.953   7.350
 7732POPC   NC356867  38.495  37.688   5.550
 7732POPC   PO456868  38.470  37.728   5.850
 7732POPC   GL156869  38.437  37.648   6.150
 7732POPC   GL256870  38.391  37.782   6.150
 7732POPC   C1A56871  38.485  37.672   6.450
 7732POPC   D2A56872  38.462  37.648   6.750
 7732POPC   C3A56873  38.415  37.676   7.050
 7732POPC   C4A56874  38.423  37.725   7.350
 7732POPC   C1B56875  38.359  37.897   6.450
 7732POPC   C2B56876  38.331  37.915   6.750
 7732POPC   C3B56877  38.376  37.937   7.050
 7732POPC   C4B56878  38.339  37.940   7.350
 7733POPC   NC356879  36.944  36.871   5.550
 7733POPC   PO456880  36.875  36.933   5.850
 7733POPC   GL156881  36.859  36.900   6.150
 7733POPC   GL256882  37.004  37.002   6.150
 7733POPC   C1A56883  36.886  36.922   6.450
 7733POPC   D2A56884  36.905  36.917   6.750
 7733POPC   C3A56885  36.936  36.900   7.050
 7733POPC   C4A56886  36.885  36.858   7.350
 7733POPC   C1B56887  37.048  37.135   6.450
 7733POPC   C2B56888  37.050  37.098   6.750
 7733POPC   C3B56889  36.962  37.117   7.050
 7733POPC   C4B56890  37.015  37.147   7.350
 7734POPC   NC356891  39.237  42.363   5.550
 7734POPC   PO456892  39.201  42.384   5.850
 7734POPC   GL156893  39.237  42.309   6.150
 7734POPC   GL256894  39.302  42.444   6.150
 7734POPC   C1A56895  39.258  42.317   6.450
 7734POPC   D2A56896  39.207  42.341   6.750
 7734POPC   C3A56897  39.217  42.340   7.050
 7734POPC   C4A56898  39.196  42.338   7.350
 7734POPC   C1B56899  39.384  42.592   6.450
 7734POPC   C2B56900  39.331  42.512   6.750
 7734POPC   C3B56901  39.334  42.543   7.050
 7734POPC   C4B56902  39.337  42.547   7.350
 7735POPC   NC356903  12.853   9.004   5.550
 7735POPC   PO456904  12.857   9.001   5.850
 7735POPC   GL156905  12.845   8.972   6.150
 7735POPC   GL256906  12.736   8.911   6.150
 7735POPC   C1A56907  12.840   8.975   6.450
 7735POPC   D2A56908  12.886   9.005   6.750
 7735POPC   C3A56909  12.870   9.015   7.050
 7735POPC   C4A56910  12.886   9.001   7.350
 7735POPC   C1B56911  12.644   8.933   6.450
 7735POPC   C2B56912  12.593   8.934   6.750
 7735POPC   C3B56913  12.618   8.939   7.050
 7735POPC   C4B56914  12.573   8.944   7.350
 7736POPC   NC356915  41.537  36.886   5.550
 7736POPC   PO456916  41.526  36.878   5.850
 7736POPC   GL156917  41.543  36.865   6.150
 7736POPC   GL256918  41.486  36.854   6.150
 7736POPC   C1A56919  41.558  36.907   6.450
 7736POPC   D2A56920  41.509  36.875   6.750
 7736POPC   C3A56921  41.538  36.926   7.050
 7736POPC   C4A56922  41.541  36.862   7.350
 7736POPC   C1B56923  41.287  36.858   6.450
 7736POPC   C2B56924  41.335  36.833   6.750
 7736POPC   C3B56925  41.301  36.874   7.050
 7736POPC   C4B56926  41.306  36.821   7.350
 7737POPC   NC356927  32.279   3.562   5.550
 7737POPC   PO456928  32.279   3.507   5.850
 7737POPC   GL156929  32.292   3.520   6.150
 7737POPC   GL256930  32.110   3.672   6.150
 7737POPC   C1A56931  32.290   3.550   6.450
 7737POPC   D2A56932  32.223   3.501   6.750
 7737POPC   C3A56933  32.266   3.527   7.050
 7737POPC   C4A56934  32.247   3.510   7.350
 7737POPC   C1B56935  32.081   3.655   6.450
 7737POPC   C2B56936  32.098   3.738   6.750
 7737POPC   C3B56937  32.076   3.735   7.050
 7737POPC   C4B56938  32.049   3.680   7.350
 7738POPC   NC356939  24.499  41.577   5.550
 7738POPC   PO456940  24.479  41.521   5.850
 7738POPC   GL156941  24.485  41.597   6.150
 7738POPC   GL256942  24.623  41.529   6.150
 7738POPC   C1A56943  24.517  41.564   6.450
 7738POPC   D2A56944  24.454  41.552   6.750
 7738POPC   C3A56945  24.464  41.602   7.050
 7738POPC   C4A56946  24.456  41.587   7.350
 7738POPC   C1B56947  24.724  41.366   6.450
 7738POPC   C2B56948  24.643  41.448   6.750
 7738POPC   C3B56949  24.673  41.425   7.050
 7738POPC   C4B56950  24.700  41.426   7.350
 7739POPC   NC356951   1.963   8.245   5.550
 7739POPC   PO456952   2.027   8.187   5.850
 7739POPC   GL156953   1.955   8.149   6.150
 7739POPC   GL256954   1.855   8.149   6.150
 7739POPC   C1A56955   2.024   8.176   6.450
 7739POPC   D2A56956   1.986   8.179   6.750
 7739POPC   C3A56957   2.007   8.226   7.050
 7739POPC   C4A56958   2.019   8.243   7.350
 7739POPC   C1B56959   1.759   8.225   6.450
 7739POPC   C2B56960   1.759   8.222   6.750
 7739POPC   C3B56961   1.790   8.131   7.050
 7739POPC   C4B56962   1.743   8.132   7.350
 7740POPC   NC356963   5.063  33.001   5.550
 7740POPC   PO456964   5.063  33.015   5.850
 7740POPC   GL156965   5.130  32.989   6.150
 7740POPC   GL256966   5.240  32.976   6.150
 7740POPC   C1A56967   5.078  33.028   6.450
 7740POPC   D2A56968   5.115  33.025   6.750
 7740POPC   C3A56969   5.099  33.017   7.050
 7740POPC   C4A56970   5.084  33.036   7.350
 7740POPC   C1B56971   5.381  33.044   6.450
 7740POPC   C2B56972   5.305  33.005   6.750
 7740POPC   C3B56973   5.324  33.018   7.050
 7740POPC   C4B56974   5.356  33.068   7.350
 7741POPC   NC356975   2.814  41.518   5.550
 7741POPC   PO456976   2.732  41.566   5.850
 7741POPC   GL156977   2.739  41.573   6.150
 7741POPC   GL256978   2.914  41.492   6.150
 7741POPC   C1A56979   2.762  41.573   6.450
 7741POPC   D2A56980   2.762  41.523   6.750
 7741POPC   C3A56981   2.749  41.604   7.050
 7741POPC   C4A56982   2.759  41.547   7.350
 7741POPC   C1B56983   3.036  41.461   6.450
 7741POPC   C2B56984   3.009  41.459   6.750
 7741POPC   C3B56985   2.946  41.442   7.050
 7741POPC   C4B56986   2.956  41.442   7.350
 7742POPC   NC356987  24.463  42.374   5.550
 7742POPC   PO456988  24.500  42.379   5.850
 7742POPC   GL156989  24.474  42.332   6.150
 7742POPC   GL256990  24.578  42.259   6.150
 7742POPC   C1A56991  24.456  42.301   6.450
 7742POPC   D2A56992  24.491  42.296   6.750
 7742POPC   C3A56993  24.469  42.288   7.050
 7742POPC   C4A56994  24.446  42.329   7.350
 7742POPC   C1B56995  24.538  42.077   6.450
 7742POPC   C2B56996  24.565  42.102   6.750
 7742POPC   C3B56997  24.545  42.070   7.050
 7742POPC   C4B56998  24.596  42.143   7.350
 7743POPC   NC356999   5.874   7.451   5.550
 7743POPC   PO457000   5.901   7.435   5.850
 7743POPC   GL157001   5.917   7.459   6.150
 7743POPC   GL257002   5.772   7.382   6.150
 7743POPC   C1A57003   5.887   7.455   6.450
 7743POPC   D2A57004   5.897   7.431   6.750
 7743POPC   C3A57005   5.870   7.410   7.050
 7743POPC   C4A57006   5.829   7.405   7.350
 7743POPC   C1B57007   5.589   7.351   6.450
 7743POPC   C2B57008   5.639   7.378   6.750
 7743POPC   C3B57009   5.585   7.365   7.050
 7743POPC   C4B57010   5.674   7.330   7.350
 7744POPC   NC357011  34.554  29.136   5.550
 7744POPC   PO457012  34.534  29.166   5.850
 7744POPC   GL157013  34.571  29.145   6.150
 7744POPC   GL257014  34.645  29.017   6.150
 7744POPC   C1A57015  34.598  29.153   6.450
 7744POPC   D2A57016  34.561  29.123   6.750
 7744POPC   C3A57017  34.623  29.153   7.050
 7744POPC   C4A57018  34.600  29.180   7.350
 7744POPC   C1B57019  34.687  28.935   6.450
 7744POPC   C2B57020  34.638  28.957   6.750
 7744POPC   C3B57021  34.641  28.924   7.050
 7744POPC   C4B57022  34.721  28.897   7.350
 7745POPC   NC357023   8.988  22.181   5.550
 7745POPC   PO457024   8.979  22.113   5.850
 7745POPC   GL157025   9.008  22.140   6.150
 7745POPC   GL257026   8.865  22.076   6.150
 7745POPC   C1A57027   8.989  22.169   6.450
 7745POPC   D2A57028   8.993  22.120   6.750
 7745POPC   C3A57029   8.981  22.186   7.050
 7745POPC   C4A57030   8.950  22.119   7.350
 7745POPC   C1B57031   8.747  22.035   6.450
 7745POPC   C2B57032   8.783  22.065   6.750
 7745POPC   C3B57033   8.750  22.058   7.050
 7745POPC   C4B57034   8.714  22.059   7.350
 7746POPC   NC357035  27.632  34.581   5.550
 7746POPC   PO457036  27.628  34.535   5.850
 7746POPC   GL157037  27.551  34.588   6.150
 7746POPC   GL257038  27.589  34.452   6.150
 7746POPC   C1A57039  27.602  34.618   6.450
 7746POPC   D2A57040  27.590  34.543   6.750
 7746POPC   C3A57041  27.641  34.527   7.050
 7746POPC   C4A57042  27.600  34.591   7.350
 7746POPC   C1B57043  27.603  34.305   6.450
 7746POPC   C2B57044  27.636  34.301   6.750
 7746POPC   C3B57045  27.633  34.324   7.050
 7746POPC   C4B57046  27.595  34.359   7.350
 7747POPC   NC357047  22.955  17.514   5.550
 7747POPC   PO457048  22.929  17.469   5.850
 7747POPC   GL157049  22.957  17.471   6.150
 7747POPC   GL257050  22.972  17.415   6.150
 7747POPC   C1A57051  22.910  17.527   6.450
 7747POPC   D2A57052  22.923  17.517   6.750
 7747POPC   C3A57053  22.981  17.550   7.050
 7747POPC   C4A57054  22.985  17.462   7.350
 7747POPC   C1B57055  23.062  17.288   6.450
 7747POPC   C2B57056  23.024  17.265   6.750
 7747POPC   C3B57057  23.025  17.297   7.050
 7747POPC   C4B57058  23.057  17.319   7.350
 7748POPC   NC357059  32.297  38.419   5.550
 7748POPC   PO457060  32.259  38.406   5.850
 7748POPC   GL157061  32.219  38.414   6.150
 7748POPC   GL257062  32.268  38.314   6.150
 7748POPC   C1A57063  32.260  38.472   6.450
 7748POPC   D2A57064  32.250  38.496   6.750
 7748POPC   C3A57065  32.214  38.434   7.050
 7748POPC   C4A57066  32.218  38.465   7.350
 7748POPC   C1B57067  32.325  38.170   6.450
 7748POPC   C2B57068  32.259  38.183   6.750
 7748POPC   C3B57069  32.277  38.200   7.050
 7748POPC   C4B57070  32.301  38.199   7.350
 7749POPC   NC357071  19.049  16.730   5.550
 7749POPC   PO457072  19.011  16.725   5.850
 7749POPC   GL157073  19.048  16.775   6.150
 7749POPC   GL257074  19.171  16.867   6.150
 7749POPC   C1A57075  19.045  16.760   6.450
 7749POPC   D2A57076  19.034  16.750   6.750
 7749POPC   C3A57077  19.095  16.713   7.050
 7749POPC   C4A57078  19.027  16.682   7.350
 7749POPC   C1B57079  19.175  16.906   6.450
 7749POPC   C2B57080  19.163  16.898   6.750
 7749POPC   C3B57081  19.254  16.905   7.050
 7749POPC   C4B57082  19.202  16.931   7.350
 7750POPC   NC357083   2.011   6.634   5.550
 7750POPC   PO457084   1.973   6.611   5.850
 7750POPC   GL157085   2.008   6.658   6.150
 7750POPC   GL257086   1.999   6.539   6.150
 7750POPC   C1A57087   1.951   6.634   6.450
 7750POPC   D2A57088   2.014   6.678   6.750
 7750POPC   C3A57089   1.965   6.612   7.050
 7750POPC   C4A57090   2.028   6.643   7.350
 7750POPC   C1B57091   1.898   6.384   6.450
 7750POPC   C2B57092   1.973   6.412   6.750
 7750POPC   C3B57093   1.949   6.397   7.050
 7750POPC   C4B57094   1.902   6.356   7.350
 7751POPC   NC357095   9.013   9.021   5.550
 7751POPC   PO457096   8.948   8.995   5.850
 7751POPC   GL157097   8.957   8.962   6.150
 7751POPC   GL257098   8.891   9.008   6.150
 7751POPC   C1A57099   8.931   8.952   6.450
 7751POPC   D2A57100   8.931   9.022   6.750
 7751POPC   C3A57101   8.931   9.002   7.050
 7751POPC   C4A57102   8.932   8.953   7.350
 7751POPC   C1B57103   8.727   9.014   6.450
 7751POPC   C2B57104   8.734   9.015   6.750
 7751POPC   C3B57105   8.722   9.022   7.050
 7751POPC   C4B57106   8.754   9.050   7.350
 7752POPC   NC357107  39.192  22.174   5.550
 7752POPC   PO457108  39.206  22.156   5.850
 7752POPC   GL157109  39.193  22.121   6.150
 7752POPC   GL257110  39.384  22.141   6.150
 7752POPC   C1A57111  39.259  22.144   6.450
 7752POPC   D2A57112  39.218  22.140   6.750
 7752POPC   C3A57113  39.265  22.124   7.050
 7752POPC   C4A57114  39.208  22.127   7.350
 7752POPC   C1B57115  39.512  22.175   6.450
 7752POPC   C2B57116  39.448  22.087   6.750
 7752POPC   C3B57117  39.488  22.106   7.050
 7752POPC   C4B57118  39.459  22.142   7.350
 7753POPC   NC357119   9.704  36.123   5.550
 7753POPC   PO457120   9.792  36.158   5.850
 7753POPC   GL157121   9.786  36.096   6.150
 7753POPC   GL257122   9.762  35.980   6.150
 7753POPC   C1A57123   9.788  36.114   6.450
 7753POPC   D2A57124   9.762  36.125   6.750
 7753POPC   C3A57125   9.789  36.085   7.050
 7753POPC   C4A57126   9.792  36.177   7.350
 7753POPC   C1B57127   9.656  35.874   6.450
 7753POPC   C2B57128   9.719  35.928   6.750
 7753POPC   C3B57129   9.706  35.879   7.050
 7753POPC   C4B57130   9.711  35.905   7.350
 7754POPC   NC357131  26.014  32.291   5.550
 7754POPC   PO457132  26.007  32.261   5.850
 7754POPC   GL157133  26.021  32.250   6.150
 7754POPC   GL257134  26.000  32.133   6.150
 7754POPC   C1A57135  26.029  32.230   6.450
 7754POPC   D2A57136  26.008  32.230   6.750
 7754POPC   C3A57137  26.090  32.261   7.050
 7754POPC   C4A57138  26.049  32.291   7.350
 7754POPC   C1B57139  25.831  32.044   6.450
 7754POPC   C2B57140  25.907  32.081   6.750
 7754POPC   C3B57141  25.881  32.062   7.050
 7754POPC   C4B57142  25.868  32.057   7.350
 7755POPC   NC357143  37.648  29.175   5.550
 7755POPC   PO457144  37.681  29.117   5.850
 7755POPC   GL157145  37.671  29.149   6.150
 7755POPC   GL257146  37.656  29.017   6.150
 7755POPC   C1A57147  37.690  29.140   6.450
 7755POPC   D2A57148  37.653  29.157   6.750
 7755POPC   C3A57149  37.686  29.175   7.050
 7755POPC   C4A57150  37.635  29.141   7.350
 7755POPC   C1B57151  37.593  28.869   6.450
 7755POPC   C2B57152  37.586  28.931   6.750
 7755POPC   C3B57153  37.612  28.903   7.050
 7755POPC   C4B57154  37.603  28.871   7.350
 7756POPC   NC357155  10.523  42.314   5.550
 7756POPC   PO457156  10.518  42.313   5.850
 7756POPC   GL157157  10.538  42.317   6.150
 7756POPC   GL257158  10.659  42.353   6.150
 7756POPC   C1A57159  10.568  42.376   6.450
 7756POPC   D2A57160  10.571  42.342   6.750
 7756POPC   C3A57161  10.546  42.355   7.050
 7756POPC   C4A57162  10.476  42.362   7.350
 7756POPC   C1B57163  10.751  42.402   6.450
 7756POPC   C2B57164  10.730  42.360   6.750
 7756POPC   C3B57165  10.800  42.317   7.050
 7756POPC   C4B57166  10.799  42.332   7.350
 7757POPC   NC357167   8.960  27.550   5.550
 7757POPC   PO457168   8.935  27.572   5.850
 7757POPC   GL157169   8.942  27.546   6.150
 7757POPC   GL257170   8.817  27.578   6.150
 7757POPC   C1A57171   8.964  27.616   6.450
 7757POPC   D2A57172   8.926  27.586   6.750
 7757POPC   C3A57173   8.953  27.546   7.050
 7757POPC   C4A57174   8.933  27.569   7.350
 7757POPC   C1B57175   8.713  27.607   6.450
 7757POPC   C2B57176   8.732  27.646   6.750
 7757POPC   C3B57177   8.708  27.624   7.050
 7757POPC   C4B57178   8.691  27.583   7.350
 7758POPC   NC357179  32.241   6.674   5.550
 7758POPC   PO457180  32.228   6.618   5.850
 7758POPC   GL157181  32.262   6.694   6.150
 7758POPC   GL257182  32.310   6.693   6.150
 7758POPC   C1A57183  32.201   6.688   6.450
 7758POPC   D2A57184  32.281   6.687   6.750
 7758POPC   C3A57185  32.269   6.607   7.050
 7758POPC   C4A57186  32.259   6.680   7.350
 7758POPC   C1B57187  32.422   6.774   6.450
 7758POPC   C2B57188  32.444   6.768   6.750
 7758POPC   C3B57189  32.451   6.784   7.050
 7758POPC   C4B57190  32.443   6.768   7.350
 7759POPC   NC357191   7.427  24.451   5.550
 7759POPC   PO457192   7.462  24.477   5.850
 7759POPC   GL157193   7.453  24.496   6.150
 7759POPC   GL257194   7.272  24.478   6.150
 7759POPC   C1A57195   7.422  24.508   6.450
 7759POPC   D2A57196   7.439  24.474   6.750
 7759POPC   C3A57197   7.428  24.514   7.050
 7759POPC   C4A57198   7.468  24.463   7.350
 7759POPC   C1B57199   7.206  24.552   6.450
 7759POPC   C2B57200   7.195  24.576   6.750
 7759POPC   C3B57201   7.179  24.511   7.050
 7759POPC   C4B57202   7.146  24.590   7.350
 7760POPC   NC357203  18.304  11.280   5.550
 7760POPC   PO457204  18.302  11.298   5.850
 7760POPC   GL157205  18.330  11.345   6.150
 7760POPC   GL257206  18.145  11.418   6.150
 7760POPC   C1A57207  18.247  11.269   6.450
 7760POPC   D2A57208  18.271  11.303   6.750
 7760POPC   C3A57209  18.279  11.260   7.050
 7760POPC   C4A57210  18.324  11.278   7.350
 7760POPC   C1B57211  18.061  11.480   6.450
 7760POPC   C2B57212  18.052  11.443   6.750
 7760POPC   C3B57213  18.056  11.434   7.050
 7760POPC   C4B57214  18.051  11.481   7.350
 7761POPC   NC357215  35.306  12.875   5.550
 7761POPC   PO457216  35.359  12.850   5.850
 7761POPC   GL157217  35.317  12.862   6.150
 7761POPC   GL257218  35.350  12.742   6.150
 7761POPC   C1A57219  35.311  12.887   6.450
 7761POPC   D2A57220  35.336  12.858   6.750
 7761POPC   C3A57221  35.346  12.837   7.050
 7761POPC   C4A57222  35.366  12.887   7.350
 7761POPC   C1B57223  35.361  12.596   6.450
 7761POPC   C2B57224  35.411  12.606   6.750
 7761POPC   C3B57225  35.411  12.607   7.050
 7761POPC   C4B57226  35.366  12.612   7.350
 7762POPC   NC357227   8.182  20.581   5.550
 7762POPC   PO457228   8.230  20.638   5.850
 7762POPC   GL157229   8.193  20.616   6.150
 7762POPC   GL257230   8.361  20.655   6.150
 7762POPC   C1A57231   8.235  20.567   6.450
 7762POPC   D2A57232   8.159  20.572   6.750
 7762POPC   C3A57233   8.155  20.638   7.050
 7762POPC   C4A57234   8.154  20.605   7.350
 7762POPC   C1B57235   8.443  20.577   6.450
 7762POPC   C2B57236   8.437  20.609   6.750
 7762POPC   C3B57237   8.421  20.584   7.050
 7762POPC   C4B57238   8.448  20.575   7.350
 7763POPC   NC357239  15.976  41.555   5.550
 7763POPC   PO457240  15.959  41.557   5.850
 7763POPC   GL157241  15.926  41.518   6.150
 7763POPC   GL257242  16.008  41.520   6.150
 7763POPC   C1A57243  15.968  41.565   6.450
 7763POPC   D2A57244  15.906  41.591   6.750
 7763POPC   C3A57245  15.945  41.544   7.050
 7763POPC   C4A57246  15.993  41.564   7.350
 7763POPC   C1B57247  16.137  41.381   6.450
 7763POPC   C2B57248  16.194  41.444   6.750
 7763POPC   C3B57249  16.155  41.393   7.050
 7763POPC   C4B57250  16.175  41.400   7.350
 7764POPC   NC357251  14.360  43.103   5.550
 7764POPC   PO457252  14.428  43.092   5.850
 7764POPC   GL157253  14.407  43.120   6.150
 7764POPC   GL257254  14.355  43.202   6.150
 7764POPC   C1A57255  14.393  43.084   6.450
 7764POPC   D2A57256  14.431  43.110   6.750
 7764POPC   C3A57257  14.442  43.088   7.050
 7764POPC   C4A57258  14.382  43.156   7.350
 7764POPC   C1B57259  14.371  43.306   6.450
 7764POPC   C2B57260  14.384  43.390   6.750
 7764POPC   C3B57261  14.313  43.381   7.050
 7764POPC   C4B57262  14.338  43.389   7.350
 7765POPC   NC357263  21.382  29.119   5.550
 7765POPC   PO457264  21.387  29.176   5.850
 7765POPC   GL157265  21.387  29.105   6.150
 7765POPC   GL257266  21.505  29.087   6.150
 7765POPC   C1A57267  21.347  29.101   6.450
 7765POPC   D2A57268  21.361  29.129   6.750
 7765POPC   C3A57269  21.425  29.144   7.050
 7765POPC   C4A57270  21.343  29.174   7.350
 7765POPC   C1B57271  21.594  29.084   6.450
 7765POPC   C2B57272  21.624  29.117   6.750
 7765POPC   C3B57273  21.637  29.121   7.050
 7765POPC   C4B57274  21.588  29.114   7.350
 7766POPC   NC357275  40.809  19.811   5.550
 7766POPC   PO457276  40.763  19.808   5.850
 7766POPC   GL157277  40.808  19.846   6.150
 7766POPC   GL257278  40.680  19.813   6.150
 7766POPC   C1A57279  40.792  19.787   6.450
 7766POPC   D2A57280  40.796  19.820   6.750
 7766POPC   C3A57281  40.793  19.865   7.050
 7766POPC   C4A57282  40.738  19.817   7.350
 7766POPC   C1B57283  40.506  19.828   6.450
 7766POPC   C2B57284  40.507  19.820   6.750
 7766POPC   C3B57285  40.559  19.873   7.050
 7766POPC   C4B57286  40.543  19.872   7.350
 7767POPC   NC357287  44.638  14.380   5.550
 7767POPC   PO457288  44.663  14.409   5.850
 7767POPC   GL157289  44.689  14.355   6.150
 7767POPC   GL257290  44.723  14.315   6.150
 7767POPC   C1A57291  44.655  14.442   6.450
 7767POPC   D2A57292  44.629  14.410   6.750
 7767POPC   C3A57293  44.708  14.434   7.050
 7767POPC   C4A57294  44.677  14.357   7.350
 7767POPC   C1B57295  44.854  14.155   6.450
 7767POPC   C2B57296  44.799  14.223   6.750
 7767POPC   C3B57297  44.830  14.165   7.050
 7767POPC   C4B57298  44.808  14.202   7.350
 7768POPC   NC357299  15.942  38.457   5.550
 7768POPC   PO457300  15.982  38.454   5.850
 7768POPC   GL157301  15.923  38.496   6.150
 7768POPC   GL257302  15.927  38.370   6.150
 7768POPC   C1A57303  16.000  38.498   6.450
 7768POPC   D2A57304  15.926  38.430   6.750
 7768POPC   C3A57305  15.945  38.462   7.050
 7768POPC   C4A57306  15.923  38.467   7.350
 7768POPC   C1B57307  15.794  38.205   6.450
 7768POPC   C2B57308  15.827  38.214   6.750
 7768POPC   C3B57309  15.805  38.255   7.050
 7768POPC   C4B57310  15.820  38.211   7.350
 7769POPC   NC357311  43.064  25.272   5.550
 7769POPC   PO457312  43.093  25.272   5.850
 7769POPC   GL157313  43.100  25.241   6.150
 7769POPC   GL257314  42.965  25.237   6.150
 7769POPC   C1A57315  43.126  25.259   6.450
 7769POPC   D2A57316  43.082  25.305   6.750
 7769POPC   C3A57317  43.063  25.311   7.050
 7769POPC   C4A57318  43.091  25.257   7.350
 7769POPC   C1B57319  42.906  25.153   6.450
 7769POPC   C2B57320  42.930  25.125   6.750
 7769POPC   C3B57321  42.862  25.106   7.050
 7769POPC   C4B57322  42.950  25.158   7.350
 7770POPC   NC357323  12.040   8.151   5.550
 7770POPC   PO457324  12.085   8.196   5.850
 7770POPC   GL157325  12.103   8.205   6.150
 7770POPC   GL257326  11.995   8.310   6.150
 7770POPC   C1A57327  12.100   8.199   6.450
 7770POPC   D2A57328  12.050   8.240   6.750
 7770POPC   C3A57329  12.087   8.217   7.050
 7770POPC   C4A57330  12.101   8.228   7.350
 7770POPC   C1B57331  11.869   8.380   6.450
 7770POPC   C2B57332  11.867   8.321   6.750
 7770POPC   C3B57333  11.865   8.351   7.050
 7770POPC   C4B57334  11.913   8.376   7.350
 7771POPC   NC357335  17.527  12.074   5.550
 7771POPC   PO457336  17.495  12.069   5.850
 7771POPC   GL157337  17.494  12.085   6.150
 7771POPC   GL257338  17.381  12.201   6.150
 7771POPC   C1A57339  17.522  12.098   6.450
 7771POPC   D2A57340  17.517  12.049   6.750
 7771POPC   C3A57341  17.531  12.039   7.050
 7771POPC   C4A57342  17.510  12.039   7.350
 7771POPC   C1B57343  17.382  12.266   6.450
 7771POPC   C2B57344  17.327  12.232   6.750
 7771POPC   C3B57345  17.300  12.240   7.050
 7771POPC   C4B57346  17.363  12.303   7.350
 7772POPC   NC357347  40.795   9.725   5.550
 7772POPC   PO457348  40.748   9.713   5.850
 7772POPC   GL157349  40.779   9.713   6.150
 7772POPC   GL257350  40.734   9.820   6.150
 7772POPC   C1A57351  40.832   9.776   6.450
 7772POPC   D2A57352  40.809   9.764   6.750
 7772POPC   C3A57353  40.785   9.741   7.050
 7772POPC   C4A57354  40.806   9.716   7.350
 7772POPC   C1B57355  40.641  10.000   6.450
 7772POPC   C2B57356  40.729   9.998   6.750
 7772POPC   C3B57357  40.693   9.972   7.050
 7772POPC   C4B57358  40.733  10.026   7.350
 7773POPC   NC357359   5.884  42.331   5.550
 7773POPC   PO457360   5.893  42.355   5.850
 7773POPC   GL157361   5.836  42.351   6.150
 7773POPC   GL257362   5.869  42.487   6.150
 7773POPC   C1A57363   5.841  42.349   6.450
 7773POPC   D2A57364   5.845  42.293   6.750
 7773POPC   C3A57365   5.867  42.290   7.050
 7773POPC   C4A57366   5.876  42.366   7.350
 7773POPC   C1B57367   5.770  42.543   6.450
 7773POPC   C2B57368   5.834  42.621   6.750
 7773POPC   C3B57369   5.792  42.612   7.050
 7773POPC   C4B57370   5.863  42.531   7.350
 7774POPC   NC357371   8.955  19.809   5.550
 7774POPC   PO457372   8.966  19.806   5.850
 7774POPC   GL157373   8.993  19.810   6.150
 7774POPC   GL257374   9.000  19.908   6.150
 7774POPC   C1A57375   8.979  19.800   6.450
 7774POPC   D2A57376   8.990  19.845   6.750
 7774POPC   C3A57377   8.974  19.824   7.050
 7774POPC   C4A57378   8.976  19.812   7.350
 7774POPC   C1B57379   9.116  20.025   6.450
 7774POPC   C2B57380   9.067  20.083   6.750
 7774POPC   C3B57381   9.142  20.060   7.050
 7774POPC   C4B57382   9.148  20.019   7.350
 7775POPC   NC357383  35.313  11.319   5.550
 7775POPC   PO457384  35.391  11.281   5.850
 7775POPC   GL157385  35.388  11.263   6.150
 7775POPC   GL257386  35.381  11.467   6.150
 7775POPC   C1A57387  35.362  11.286   6.450
 7775POPC   D2A57388  35.400  11.289   6.750
 7775POPC   C3A57389  35.310  11.341   7.050
 7775POPC   C4A57390  35.326  11.328   7.350
 7775POPC   C1B57391  35.446  11.549   6.450
 7775POPC   C2B57392  35.441  11.577   6.750
 7775POPC   C3B57393  35.411  11.572   7.050
 7775POPC   C4B57394  35.444  11.536   7.350
 7776POPC   NC357395  36.138  26.084   5.550
 7776POPC   PO457396  36.118  26.090   5.850
 7776POPC   GL157397  36.156  26.089   6.150
 7776POPC   GL257398  36.021  26.047   6.150
 7776POPC   C1A57399  36.146  26.090   6.450
 7776POPC   D2A57400  36.082  26.019   6.750
 7776POPC   C3A57401  36.147  26.034   7.050
 7776POPC   C4A57402  36.146  26.026   7.350
 7776POPC   C1B57403  35.916  26.137   6.450
 7776POPC   C2B57404  35.849  26.168   6.750
 7776POPC   C3B57405  35.886  26.108   7.050
 7776POPC   C4B57406  35.917  26.130   7.350
 7777POPC   NC357407  20.564  27.638   5.550
 7777POPC   PO457408  20.654  27.551   5.850
 7777POPC   GL157409  20.658  27.641   6.150
 7777POPC   GL257410  20.495  27.659   6.150
 7777POPC   C1A57411  20.626  27.561   6.450
 7777POPC   D2A57412  20.561  27.580   6.750
 7777POPC   C3A57413  20.648  27.561   7.050
 7777POPC   C4A57414  20.641  27.602   7.350
 7777POPC   C1B57415  20.400  27.688   6.450
 7777POPC   C2B57416  20.423  27.675   6.750
 7777POPC   C3B57417  20.426  27.770   7.050
 7777POPC   C4B57418  20.413  27.723   7.350
 7778POPC   NC357419  41.593   2.744   5.550
 7778POPC   PO457420  41.566   2.729   5.850
 7778POPC   GL157421  41.606   2.777   6.150
 7778POPC   GL257422  41.454   2.660   6.150
 7778POPC   C1A57423  41.561   2.787   6.450
 7778POPC   D2A57424  41.605   2.757   6.750
 7778POPC   C3A57425  41.517   2.763   7.050
 7778POPC   C4A57426  41.561   2.798   7.350
 7778POPC   C1B57427  41.362   2.548   6.450
 7778POPC   C2B57428  41.340   2.576   6.750
 7778POPC   C3B57429  41.420   2.548   7.050
 7778POPC   C4B57430  41.376   2.631   7.350
 7779POPC   NC357431  35.390   5.141   5.550
 7779POPC   PO457432  35.323   5.077   5.850
 7779POPC   GL157433  35.379   5.071   6.150
 7779POPC   GL257434  35.287   4.984   6.150
 7779POPC   C1A57435  35.328   5.091   6.450
 7779POPC   D2A57436  35.390   5.048   6.750
 7779POPC   C3A57437  35.379   5.072   7.050
 7779POPC   C4A57438  35.320   5.049   7.350
 7779POPC   C1B57439  35.355   4.801   6.450
 7779POPC   C2B57440  35.354   4.822   6.750
 7779POPC   C3B57441  35.324   4.804   7.050
 7779POPC   C4B57442  35.279   4.827   7.350
 7780POPC   NC357443   1.940  12.897   5.550
 7780POPC   PO457444   1.970  12.869   5.850
 7780POPC   GL157445   1.963  12.870   6.150
 7780POPC   GL257446   1.864  12.815   6.150
 7780POPC   C1A57447   1.991  12.826   6.450
 7780POPC   D2A57448   1.943  12.867   6.750
 7780POPC   C3A57449   1.969  12.867   7.050
 7780POPC   C4A57450   1.950  12.892   7.350
 7780POPC   C1B57451   1.779  12.859   6.450
 7780POPC   C2B57452   1.755  12.894   6.750
 7780POPC   C3B57453   1.745  12.888   7.050
 7780POPC   C4B57454   1.751  12.832   7.350
 7781POPC   NC357455  30.694  37.703   5.550
 7781POPC   PO457456  30.687  37.630   5.850
 7781POPC   GL157457  30.648  37.723   6.150
 7781POPC   GL257458  30.810  37.666   6.150
 7781POPC   C1A57459  30.651  37.708   6.450
 7781POPC   D2A57460  30.739  37.664   6.750
 7781POPC   C3A57461  30.740  37.670   7.050
 7781POPC   C4A57462  30.704  37.720   7.350
 7781POPC   C1B57463  30.964  37.725   6.450
 7781POPC   C2B57464  30.953  37.671   6.750
 7781POPC   C3B57465  30.897  37.655   7.050
 7781POPC   C4B57466  30.990  37.705   7.350
 7782POPC   NC357467   4.344  30.680   5.550
 7782POPC   PO457468   4.317  30.664   5.850
 7782POPC   GL157469   4.296  30.669   6.150
 7782POPC   GL257470   4.214  30.635   6.150
 7782POPC   C1A57471   4.295  30.704   6.450
 7782POPC   D2A57472   4.280  30.692   6.750
 7782POPC   C3A57473   4.344  30.735   7.050
 7782POPC   C4A57474   4.279  30.681   7.350
 7782POPC   C1B57475   4.081  30.512   6.450
 7782POPC   C2B57476   4.169  30.570   6.750
 7782POPC   C3B57477   4.093  30.581   7.050
 7782POPC   C4B57478   4.138  30.544   7.350
 7783POPC   NC357479  43.916  26.025   5.550
 7783POPC   PO457480  43.866  26.025   5.850
 7783POPC   GL157481  43.854  26.047   6.150
 7783POPC   GL257482  43.831  25.957   6.150
 7783POPC   C1A57483  43.936  26.085   6.450
 7783POPC   D2A57484  43.912  25.995   6.750
 7783POPC   C3A57485  43.877  26.066   7.050
 7783POPC   C4A57486  43.892  26.089   7.350
 7783POPC   C1B57487  43.732  25.860   6.450
 7783POPC   C2B57488  43.728  25.907   6.750
 7783POPC   C3B57489  43.693  25.879   7.050
 7783POPC   C4B57490  43.759  25.866   7.350
 7784POPC   NC357491  36.107   7.375   5.550
 7784POPC   PO457492  36.117   7.470   5.850
 7784POPC   GL157493  36.118   7.397   6.150
 7784POPC   GL257494  36.051   7.489   6.150
 7784POPC   C1A57495  36.093   7.459   6.450
 7784POPC   D2A57496  36.102   7.414   6.750
 7784POPC   C3A57497  36.091   7.392   7.050
 7784POPC   C4A57498  36.113   7.417   7.350
 7784POPC   C1B57499  35.974   7.620   6.450
 7784POPC   C2B57500  35.998   7.597   6.750
 7784POPC   C3B57501  35.996   7.631   7.050
 7784POPC   C4B57502  36.032   7.659   7.350
 7785POPC   NC357503   6.658   5.099   5.550
 7785POPC   PO457504   6.643   5.047   5.850
 7785POPC   GL157505   6.599   5.084   6.150
 7785POPC   GL257506   6.780   5.077   6.150
 7785POPC   C1A57507   6.641   5.132   6.450
 7785POPC   D2A57508   6.638   5.115   6.750
 7785POPC   C3A57509   6.669   5.130   7.050
 7785POPC   C4A57510   6.632   5.112   7.350
 7785POPC   C1B57511   6.847   5.112   6.450
 7785POPC   C2B57512   6.851   5.136   6.750
 7785POPC   C3B57513   6.851   5.120   7.050
 7785POPC   C4B57514   6.939   5.105   7.350
 7786POPC   NC357515  13.674  42.333   5.550
 7786POPC   PO457516  13.579  42.338   5.850
 7786POPC   GL157517  13.610  42.303   6.150
 7786POPC   GL257518  13.669  42.197   6.150
 7786POPC   C1A57519  13.654  42.318   6.450
 7786POPC   D2A57520  13.586  42.372   6.750
 7786POPC   C3A57521  13.662  42.380   7.050
 7786POPC   C4A57522  13.592  42.330   7.350
 7786POPC   C1B57523  13.757  42.137   6.450
 7786POPC   C2B57524  13.795  42.142   6.750
 7786POPC   C3B57525  13.767  42.089   7.050
 7786POPC   C4B57526  13.797  42.151   7.350
 7787POPC   NC357527  39.234  29.897   5.550
 7787POPC   PO457528  39.232  29.925   5.850
 7787POPC   GL157529  39.262  29.952   6.150
 7787POPC   GL257530  39.276  30.078   6.150
 7787POPC   C1A57531  39.247  29.921   6.450
 7787POPC   D2A57532  39.229  29.970   6.750
 7787POPC   C3A57533  39.209  29.876   7.050
 7787POPC   C4A57534  39.265  29.945   7.350
 7787POPC   C1B57535  39.383  30.159   6.450
 7787POPC   C2B57536  39.326  30.177   6.750
 7787POPC   C3B57537  39.399  30.146   7.050
 7787POPC   C4B57538  39.344  30.105   7.350
 7788POPC   NC357539  22.113   0.447   5.550
 7788POPC   PO457540  22.117   0.456   5.850
 7788POPC   GL157541  22.152   0.398   6.150
 7788POPC   GL257542  22.222   0.352   6.150
 7788POPC   C1A57543  22.126   0.391   6.450
 7788POPC   D2A57544  22.146   0.392   6.750
 7788POPC   C3A57545  22.160   0.449   7.050
 7788POPC   C4A57546  22.170   0.416   7.350
 7788POPC   C1B57547  22.274   0.213   6.450
 7788POPC   C2B57548  22.319   0.249   6.750
 7788POPC   C3B57549  22.338   0.257   7.050
 7788POPC   C4B57550  22.330   0.187   7.350
 7789POPC   NC357551  15.984  27.624   5.550
 7789POPC   PO457552  15.915  27.612   5.850
 7789POPC   GL157553  15.910  27.620   6.150
 7789POPC   GL257554  16.051  27.702   6.150
 7789POPC   C1A57555  16.003  27.591   6.450
 7789POPC   D2A57556  15.961  27.574   6.750
 7789POPC   C3A57557  15.990  27.619   7.050
 7789POPC   C4A57558  16.004  27.573   7.350
 7789POPC   C1B57559  16.126  27.768   6.450
 7789POPC   C2B57560  16.091  27.717   6.750
 7789POPC   C3B57561  16.146  27.778   7.050
 7789POPC   C4B57562  16.116  27.775   7.350
 7790POPC   NC357563  30.649  23.690   5.550
 7790POPC   PO457564  30.731  23.686   5.850
 7790POPC   GL157565  30.679  23.676   6.150
 7790POPC   GL257566  30.837  23.781   6.150
 7790POPC   C1A57567  30.746  23.713   6.450
 7790POPC   D2A57568  30.673  23.697   6.750
 7790POPC   C3A57569  30.647  23.720   7.050
 7790POPC   C4A57570  30.734  23.693   7.350
 7790POPC   C1B57571  30.881  23.867   6.450
 7790POPC   C2B57572  30.873  23.835   6.750
 7790POPC   C3B57573  30.886  23.824   7.050
 7790POPC   C4B57574  30.970  23.831   7.350
 7791POPC   NC357575  20.636  11.283   5.550
 7791POPC   PO457576  20.654  11.308   5.850
 7791POPC   GL157577  20.605  11.326   6.150
 7791POPC   GL257578  20.499  11.149   6.150
 7791POPC   C1A57579  20.601  11.336   6.450
 7791POPC   D2A57580  20.620  11.341   6.750
 7791POPC   C3A57581  20.651  11.317   7.050
 7791POPC   C4A57582  20.634  11.289   7.350
 7791POPC   C1B57583  20.515  11.079   6.450
 7791POPC   C2B57584  20.457  11.062   6.750
 7791POPC   C3B57585  20.450  11.102   7.050
 7791POPC   C4B57586  20.479  11.050   7.350
 7792POPC   NC357587  43.918  32.271   5.550
 7792POPC   PO457588  43.880  32.267   5.850
 7792POPC   GL157589  43.899  32.257   6.150
 7792POPC   GL257590  43.915  32.077   6.150
 7792POPC   C1A57591  43.858  32.267   6.450
 7792POPC   D2A57592  43.922  32.281   6.750
 7792POPC   C3A57593  43.841  32.291   7.050
 7792POPC   C4A57594  43.895  32.263   7.350
 7792POPC   C1B57595  43.897  31.954   6.450
 7792POPC   C2B57596  43.945  32.027   6.750
 7792POPC   C3B57597  43.904  32.011   7.050
 7792POPC   C4B57598  43.927  31.960   7.350
 7793POPC   NC357599  22.907  26.002   5.550
 7793POPC   PO457600  22.890  26.035   5.850
 7793POPC   GL157601  22.939  26.091   6.150
 7793POPC   GL257602  22.995  26.184   6.150
 7793POPC   C1A57603  22.896  26.015   6.450
 7793POPC   D2A57604  22.944  26.018   6.750
 7793POPC   C3A57605  22.943  26.026   7.050
 7793POPC   C4A57606  22.945  26.018   7.350
 7793POPC   C1B57607  22.995  26.327   6.450
 7793POPC   C2B57608  22.955  26.264   6.750
 7793POPC   C3B57609  22.982  26.281   7.050
 7793POPC   C4B57610  22.981  26.314   7.350
 7794POPC   NC357611  22.961   6.689   5.550
 7794POPC   PO457612  22.934   6.607   5.850
 7794POPC   GL157613  22.935   6.632   6.150
 7794POPC   GL257614  22.977   6.794   6.150
 7794POPC   C1A57615  22.890   6.606   6.450
 7794POPC   D2A57616  22.892   6.663   6.750
 7794POPC   C3A57617  22.948   6.608   7.050
 7794POPC   C4A57618  22.969   6.619   7.350
 7794POPC   C1B57619  23.036   6.927   6.450
 7794POPC   C2B57620  23.028   6.840   6.750
 7794POPC   C3B57621  23.016   6.862   7.050
 7794POPC   C4B57622  23.006   6.893   7.350
 7795POPC   NC357623  30.711  14.434   5.550
 7795POPC   PO457624  30.676  14.387   5.850
 7795POPC   GL157625  30.663  14.429   6.150
 7795POPC   GL257626  30.797  14.452   6.150
 7795POPC   C1A57627  30.683  14.404   6.450
 7795POPC   D2A57628  30.680  14.415   6.750
 7795POPC   C3A57629  30.722  14.403   7.050
 7795POPC   C4A57630  30.655  14.434   7.350
 7795POPC   C1B57631  30.906  14.495   6.450
 7795POPC   C2B57632  30.951  14.466   6.750
 7795POPC   C3B57633  30.916  14.422   7.050
 7795POPC   C4B57634  30.932  14.494   7.350
 7796POPC   NC357635  25.995  43.153   5.550
 7796POPC   PO457636  26.034  43.086   5.850
 7796POPC   GL157637  26.033  43.083   6.150
 7796POPC   GL257638  25.958  43.135   6.150
 7796POPC   C1A57639  26.035  43.130   6.450
 7796POPC   D2A57640  26.018  43.115   6.750
 7796POPC   C3A57641  26.040  43.104   7.050
 7796POPC   C4A57642  26.063  43.091   7.350
 7796POPC   C1B57643  25.840  43.142   6.450
 7796POPC   C2B57644  25.794  43.200   6.750
 7796POPC   C3B57645  25.757  43.178   7.050
 7796POPC   C4B57646  25.807  43.125   7.350
 7797POPC   NC357647  28.390  31.439   5.550
 7797POPC   PO457648  28.354  31.437   5.850
 7797POPC   GL157649  28.329  31.459   6.150
 7797POPC   GL257650  28.451  31.440   6.150
 7797POPC   C1A57651  28.406  31.453   6.450
 7797POPC   D2A57652  28.416  31.499   6.750
 7797POPC   C3A57653  28.326  31.452   7.050
 7797POPC   C4A57654  28.384  31.496   7.350
 7797POPC   C1B57655  28.634  31.389   6.450
 7797POPC   C2B57656  28.623  31.336   6.750
 7797POPC   C3B57657  28.624  31.351   7.050
 7797POPC   C4B57658  28.605  31.376   7.350
 7798POPC   NC357659  36.152  13.611   5.550
 7798POPC   PO457660  36.158  13.583   5.850
 7798POPC   GL157661  36.140  13.636   6.150
 7798POPC   GL257662  36.229  13.564   6.150
 7798POPC   C1A57663  36.141  13.591   6.450
 7798POPC   D2A57664  36.125  13.599   6.750
 7798POPC   C3A57665  36.118  13.583   7.050
 7798POPC   C4A57666  36.173  13.598   7.350
 7798POPC   C1B57667  36.274  13.413   6.450
 7798POPC   C2B57668  36.258  13.389   6.750
 7798POPC   C3B57669  36.250  13.427   7.050
 7798POPC   C4B57670  36.231  13.356   7.350
 7799POPC   NC357671  32.250  10.559   5.550
 7799POPC   PO457672  32.292  10.513   5.850
 7799POPC   GL157673  32.261  10.567   6.150
 7799POPC   GL257674  32.332  10.448   6.150
 7799POPC   C1A57675  32.265  10.484   6.450
 7799POPC   D2A57676  32.285  10.526   6.750
 7799POPC   C3A57677  32.216  10.506   7.050
 7799POPC   C4A57678  32.212  10.523   7.350
 7799POPC   C1B57679  32.432  10.395   6.450
 7799POPC   C2B57680  32.404  10.380   6.750
 7799POPC   C3B57681  32.455  10.370   7.050
 7799POPC   C4B57682  32.454  10.359   7.350
 7800POPC   NC357683  29.938  44.671   5.550
 7800POPC   PO457684  29.956  44.676   5.850
 7800POPC   GL157685  29.965  44.630   6.150
 7800POPC   GL257686  29.973  44.629   6.150
 7800POPC   C1A57687  29.880  44.691   6.450
 7800POPC   D2A57688  29.963  44.674   6.750
 7800POPC   C3A57689  29.963  44.645   7.050
 7800POPC   C4A57690  29.961  44.647   7.350
 7800POPC   C1B57691  30.108  44.466   6.450
 7800POPC   C2B57692  30.088  44.520   6.750
 7800POPC   C3B57693  30.144  44.525   7.050
 7800POPC   C4B57694  30.112  44.543   7.350
 7801POPC   NC357695   5.836  19.826   5.550
 7801POPC   PO457696   5.857  19.810   5.850
 7801POPC   GL157697   5.906  19.846   6.150
 7801POPC   GL257698   5.791  19.949   6.150
 7801POPC   C1A57699   5.848  19.848   6.450
 7801POPC   D2A57700   5.855  19.805   6.750
 7801POPC   C3A57701   5.828  19.817   7.050
 7801POPC   C4A57702   5.875  19.868   7.350
 7801POPC   C1B57703   5.698  19.980   6.450
 7801POPC   C2B57704   5.668  20.052   6.750
 7801POPC   C3B57705   5.756  20.018   7.050
 7801POPC   C4B57706   5.740  20.024   7.350
 7802POPC   NC357707  23.756  19.085   5.550
 7802POPC   PO457708  23.666  19.016   5.850
 7802POPC   GL157709  23.750  19.027   6.150
 7802POPC   GL257710  23.544  19.021   6.150
 7802POPC   C1A57711  23.739  19.096   6.450
 7802POPC   D2A57712  23.670  19.075   6.750
 7802POPC   C3A57713  23.669  19.064   7.050
 7802POPC   C4A57714  23.729  19.096   7.350
 7802POPC   C1B57715  23.461  19.054   6.450
 7802POPC   C2B57716  23.452  19.061   6.750
 7802POPC   C3B57717  23.455  19.064   7.050
 7802POPC   C4B57718  23.448  19.000   7.350
 7803POPC   NC357719  28.408  39.229   5.550
 7803POPC   PO457720  28.361  39.215   5.850
 7803POPC   GL157721  28.394  39.185   6.150
 7803POPC   GL257722  28.458  39.148   6.150
 7803POPC   C1A57723  28.331  39.210   6.450
 7803POPC   D2A57724  28.396  39.210   6.750
 7803POPC   C3A57725  28.416  39.208   7.050
 7803POPC   C4A57726  28.384  39.191   7.350
 7803POPC   C1B57727  28.532  39.070   6.450
 7803POPC   C2B57728  28.503  38.977   6.750
 7803POPC   C3B57729  28.517  39.020   7.050
 7803POPC   C4B57730  28.524  39.009   7.350
 7804POPC   NC357731  26.846   2.723   5.550
 7804POPC   PO457732  26.836   2.744   5.850
 7804POPC   GL157733  26.863   2.743   6.150
 7804POPC   GL257734  26.806   2.682   6.150
 7804POPC   C1A57735  26.841   2.797   6.450
 7804POPC   D2A57736  26.772   2.741   6.750
 7804POPC   C3A57737  26.768   2.799   7.050
 7804POPC   C4A57738  26.789   2.771   7.350
 7804POPC   C1B57739  26.856   2.529   6.450
 7804POPC   C2B57740  26.837   2.468   6.750
 7804POPC   C3B57741  26.876   2.530   7.050
 7804POPC   C4B57742  26.859   2.560   7.350
 7805POPC   NC357743   8.192  16.689   5.550
 7805POPC   PO457744   8.170  16.710   5.850
 7805POPC   GL157745   8.175  16.752   6.150
 7805POPC   GL257746   8.099  16.589   6.150
 7805POPC   C1A57747   8.183  16.687   6.450
 7805POPC   D2A57748   8.208  16.758   6.750
 7805POPC   C3A57749   8.170  16.766   7.050
 7805POPC   C4A57750   8.241  16.731   7.350
 7805POPC   C1B57751   8.077  16.489   6.450
 7805POPC   C2B57752   8.045  16.543   6.750
 7805POPC   C3B57753   8.101  16.505   7.050
 7805POPC   C4B57754   8.115  16.525   7.350
 7806POPC   NC357755  36.896  33.751   5.550
 7806POPC   PO457756  36.948  33.834   5.850
 7806POPC   GL157757  36.927  33.801   6.150
 7806POPC   GL257758  36.764  33.808   6.150
 7806POPC   C1A57759  36.926  33.827   6.450
 7806POPC   D2A57760  36.945  33.796   6.750
 7806POPC   C3A57761  36.873  33.761   7.050
 7806POPC   C4A57762  36.953  33.794   7.350
 7806POPC   C1B57763  36.653  33.766   6.450
 7806POPC   C2B57764  36.686  33.676   6.750
 7806POPC   C3B57765  36.702  33.742   7.050
 7806POPC   C4B57766  36.639  33.680   7.350
 7807POPC   NC357767  39.255  30.668   5.550
 7807POPC   PO457768  39.213  30.672   5.850
 7807POPC   GL157769  39.220  30.737   6.150
 7807POPC   GL257770  39.336  30.719   6.150
 7807POPC   C1A57771  39.183  30.707   6.450
 7807POPC   D2A57772  39.201  30.724   6.750
 7807POPC   C3A57773  39.224  30.669   7.050
 7807POPC   C4A57774  39.223  30.721   7.350
 7807POPC   C1B57775  39.509  30.773   6.450
 7807POPC   C2B57776  39.474  30.779   6.750
 7807POPC   C3B57777  39.422  30.742   7.050
 7807POPC   C4B57778  39.469  30.736   7.350
 7808POPC   NC357779  35.391  21.377   5.550
 7808POPC   PO457780  35.321  21.427   5.850
 7808POPC   GL157781  35.320  21.337   6.150
 7808POPC   GL257782  35.398  21.473   6.150
 7808POPC   C1A57783  35.372  21.387   6.450
 7808POPC   D2A57784  35.315  21.411   6.750
 7808POPC   C3A57785  35.374  21.424   7.050
 7808POPC   C4A57786  35.381  21.380   7.350
 7808POPC   C1B57787  35.476  21.653   6.450
 7808POPC   C2B57788  35.403  21.592   6.750
 7808POPC   C3B57789  35.412  21.572   7.050
 7808POPC   C4B57790  35.403  21.582   7.350
 7809POPC   NC357791  10.538  25.234   5.550
 7809POPC   PO457792  10.557  25.271   5.850
 7809POPC   GL157793  10.480  25.304   6.150
 7809POPC   GL257794  10.514  25.379   6.150
 7809POPC   C1A57795  10.513  25.257   6.450
 7809POPC   D2A57796  10.508  25.292   6.750
 7809POPC   C3A57797  10.545  25.236   7.050
 7809POPC   C4A57798  10.541  25.305   7.350
 7809POPC   C1B57799  10.424  25.498   6.450
 7809POPC   C2B57800  10.426  25.460   6.750
 7809POPC   C3B57801  10.415  25.521   7.050
 7809POPC   C4B57802  10.412  25.554   7.350
 7810POPC   NC357803  19.059  39.268   5.550
 7810POPC   PO457804  19.103  39.202   5.850
 7810POPC   GL157805  19.069  39.198   6.150
 7810POPC   GL257806  18.991  39.149   6.150
 7810POPC   C1A57807  19.018  39.261   6.450
 7810POPC   D2A57808  19.050  39.181   6.750
 7810POPC   C3A57809  19.069  39.217   7.050
 7810POPC   C4A57810  19.033  39.266   7.350
 7810POPC   C1B57811  19.006  38.973   6.450
 7810POPC   C2B57812  19.005  38.944   6.750
 7810POPC   C3B57813  18.988  39.041   7.050
 7810POPC   C4B57814  18.988  38.975   7.350
 7811POPC   NC357815   7.438  26.047   5.550
 7811POPC   PO457816   7.458  26.028   5.850
 7811POPC   GL157817   7.408  26.018   6.150
 7811POPC   GL257818   7.438  25.926   6.150
 7811POPC   C1A57819   7.372  26.056   6.450
 7811POPC   D2A57820   7.383  26.081   6.750
 7811POPC   C3A57821   7.463  26.001   7.050
 7811POPC   C4A57822   7.385  26.009   7.350
 7811POPC   C1B57823   7.493  25.804   6.450
 7811POPC   C2B57824   7.497  25.794   6.750
 7811POPC   C3B57825   7.416  25.767   7.050
 7811POPC   C4B57826   7.474  25.792   7.350
 7812POPC   NC357827   1.243   5.093   5.550
 7812POPC   PO457828   1.250   5.112   5.850
 7812POPC   GL157829   1.193   5.085   6.150
 7812POPC   GL257830   1.216   5.227   6.150
 7812POPC   C1A57831   1.213   5.121   6.450
 7812POPC   D2A57832   1.249   5.118   6.750
 7812POPC   C3A57833   1.262   5.070   7.050
 7812POPC   C4A57834   1.223   5.135   7.350
 7812POPC   C1B57835   1.149   5.341   6.450
 7812POPC   C2B57836   1.136   5.346   6.750
 7812POPC   C3B57837   1.178   5.351   7.050
 7812POPC   C4B57838   1.166   5.380   7.350
 7813POPC   NC357839   4.313  13.627   5.550
 7813POPC   PO457840   4.289  13.627   5.850
 7813POPC   GL157841   4.305  13.581   6.150
 7813POPC   GL257842   4.437  13.714   6.150
 7813POPC   C1A57843   4.285  13.608   6.450
 7813POPC   D2A57844   4.275  13.598   6.750
 7813POPC   C3A57845   4.276  13.656   7.050
 7813POPC   C4A57846   4.355  13.613   7.350
 7813POPC   C1B57847   4.426  13.843   6.450
 7813POPC   C2B57848   4.451  13.850   6.750
 7813POPC   C3B57849   4.469  13.797   7.050
 7813POPC   C4B57850   4.432  13.814   7.350
 7814POPC   NC357851  29.924  35.347   5.550
 7814POPC   PO457852  29.916  35.353   5.850
 7814POPC   GL157853  29.900  35.367   6.150
 7814POPC   GL257854  30.006  35.232   6.150
 7814POPC   C1A57855  29.926  35.389   6.450
 7814POPC   D2A57856  29.905  35.310   6.750
 7814POPC   C3A57857  29.883  35.401   7.050
 7814POPC   C4A57858  29.932  35.366   7.350
 7814POPC   C1B57859  30.013  35.108   6.450
 7814POPC   C2B57860  30.040  35.114   6.750
 7814POPC   C3B57861  29.976  35.104   7.050
 7814POPC   C4B57862  30.072  35.165   7.350
 7815POPC   NC357863  28.408  42.330   5.550
 7815POPC   PO457864  28.394  42.367   5.850
 7815POPC   GL157865  28.384  42.330   6.150
 7815POPC   GL257866  28.292  42.409   6.150
 7815POPC   C1A57867  28.380  42.309   6.450
 7815POPC   D2A57868  28.360  42.357   6.750
 7815POPC   C3A57869  28.329  42.316   7.050
 7815POPC   C4A57870  28.374  42.325   7.350
 7815POPC   C1B57871  28.323  42.607   6.450
 7815POPC   C2B57872  28.336  42.542   6.750
 7815POPC   C3B57873  28.266  42.549   7.050
 7815POPC   C4B57874  28.281  42.541   7.350
 7816POPC   NC357875   8.990   1.963   5.550
 7816POPC   PO457876   8.965   2.037   5.850
 7816POPC   GL157877   8.995   2.031   6.150
 7816POPC   GL257878   8.909   2.112   6.150
 7816POPC   C1A57879   9.015   2.026   6.450
 7816POPC   D2A57880   8.990   2.005   6.750
 7816POPC   C3A57881   8.989   2.003   7.050
 7816POPC   C4A57882   9.006   1.999   7.350
 7816POPC   C1B57883   8.785   2.199   6.450
 7816POPC   C2B57884   8.829   2.149   6.750
 7816POPC   C3B57885   8.745   2.195   7.050
 7816POPC   C4B57886   8.803   2.192   7.350
 7817POPC   NC357887  43.152  33.016   5.550
 7817POPC   PO457888  43.125  33.038   5.850
 7817POPC   GL157889  43.120  33.028   6.150
 7817POPC   GL257890  43.008  33.106   6.150
 7817POPC   C1A57891  43.082  33.058   6.450
 7817POPC   D2A57892  43.062  33.066   6.750
 7817POPC   C3A57893  43.126  33.035   7.050
 7817POPC   C4A57894  43.094  33.030   7.350
 7817POPC   C1B57895  42.904  33.188   6.450
 7817POPC   C2B57896  42.913  33.127   6.750
 7817POPC   C3B57897  42.949  33.213   7.050
 7817POPC   C4B57898  42.875  33.189   7.350
 7818POPC   NC357899  18.287  33.763   5.550
 7818POPC   PO457900  18.260  33.808   5.850
 7818POPC   GL157901  18.299  33.764   6.150
 7818POPC   GL257902  18.294  33.877   6.150
 7818POPC   C1A57903  18.320  33.786   6.450
 7818POPC   D2A57904  18.248  33.752   6.750
 7818POPC   C3A57905  18.297  33.776   7.050
 7818POPC   C4A57906  18.328  33.828   7.350
 7818POPC   C1B57907  18.191  34.066   6.450
 7818POPC   C2B57908  18.245  34.025   6.750
 7818POPC   C3B57909  18.241  34.064   7.050
 7818POPC   C4B57910  18.223  34.084   7.350
 7819POPC   NC357911  25.260  31.434   5.550
 7819POPC   PO457912  25.312  31.514   5.850
 7819POPC   GL157913  25.272  31.435   6.150
 7819POPC   GL257914  25.148  31.356   6.150
 7819POPC   C1A57915  25.300  31.494   6.450
 7819POPC   D2A57916  25.292  31.487   6.750
 7819POPC   C3A57917  25.258  31.521   7.050
 7819POPC   C4A57918  25.297  31.516   7.350
 7819POPC   C1B57919  25.058  31.277   6.450
 7819POPC   C2B57920  25.051  31.304   6.750
 7819POPC   C3B57921  25.042  31.345   7.050
 7819POPC   C4B57922  25.073  31.315   7.350
 7820POPC   NC357923  28.337  21.377   5.550
 7820POPC   PO457924  28.332  21.395   5.850
 7820POPC   GL157925  28.364  21.350   6.150
 7820POPC   GL257926  28.333  21.279   6.150
 7820POPC   C1A57927  28.399  21.388   6.450
 7820POPC   D2A57928  28.344  21.356   6.750
 7820POPC   C3A57929  28.355  21.380   7.050
 7820POPC   C4A57930  28.395  21.374   7.350
 7820POPC   C1B57931  28.322  21.155   6.450
 7820POPC   C2B57932  28.309  21.192   6.750
 7820POPC   C3B57933  28.308  21.163   7.050
 7820POPC   C4B57934  28.287  21.149   7.350
 7821POPC   NC357935  11.259  38.460   5.550
 7821POPC   PO457936  11.339  38.492   5.850
 7821POPC   GL157937  11.273  38.473   6.150
 7821POPC   GL257938  11.284  38.394   6.150
 7821POPC   C1A57939  11.281  38.418   6.450
 7821POPC   D2A57940  11.310  38.446   6.750
 7821POPC   C3A57941  11.320  38.497   7.050
 7821POPC   C4A57942  11.340  38.457   7.350
 7821POPC   C1B57943  11.169  38.271   6.450
 7821POPC   C2B57944  11.153  38.226   6.750
 7821POPC   C3B57945  11.197  38.214   7.050
 7821POPC   C4B57946  11.210  38.259   7.350
 7822POPC   NC357947  20.618  26.012   5.550
 7822POPC   PO457948  20.573  26.002   5.850
 7822POPC   GL157949  20.612  26.086   6.150
 7822POPC   GL257950  20.595  25.885   6.150
 7822POPC   C1A57951  20.594  26.002   6.450
 7822POPC   D2A57952  20.624  26.080   6.750
 7822POPC   C3A57953  20.592  25.997   7.050
 7822POPC   C4A57954  20.580  26.055   7.350
 7822POPC   C1B57955  20.540  25.784   6.450
 7822POPC   C2B57956  20.546  25.756   6.750
 7822POPC   C3B57957  20.505  25.834   7.050
 7822POPC   C4B57958  20.573  25.798   7.350
 7823POPC   NC357959  25.235   0.460   5.550
 7823POPC   PO457960  25.237   0.465   5.850
 7823POPC   GL157961  25.276   0.444   6.150
 7823POPC   GL257962  25.171   0.334   6.150
 7823POPC   C1A57963  25.226   0.429   6.450
 7823POPC   D2A57964  25.260   0.438   6.750
 7823POPC   C3A57965  25.301   0.441   7.050
 7823POPC   C4A57966  25.245   0.468   7.350
 7823POPC   C1B57967  25.046   0.324   6.450
 7823POPC   C2B57968  25.027   0.253   6.750
 7823POPC   C3B57969  25.107   0.236   7.050
 7823POPC   C4B57970  25.110   0.315   7.350
 7824POPC   NC357971  17.549  25.262   5.550
 7824POPC   PO457972  17.464  25.292   5.850
 7824POPC   GL157973  17.514  25.307   6.150
 7824POPC   GL257974  17.523  25.191   6.150
 7824POPC   C1A57975  17.462  25.309   6.450
 7824POPC   D2A57976  17.477  25.296   6.750
 7824POPC   C3A57977  17.461  25.247   7.050
 7824POPC   C4A57978  17.498  25.257   7.350
 7824POPC   C1B57979  17.453  25.004   6.450
 7824POPC   C2B57980  17.502  25.032   6.750
 7824POPC   C3B57981  17.505  24.994   7.050
 7824POPC   C4B57982  17.498  25.023   7.350
 7825POPC   NC357983  25.265   5.116   5.550
 7825POPC   PO457984  25.254   5.126   5.850
 7825POPC   GL157985  25.288   5.064   6.150
 7825POPC   GL257986  25.257   5.012   6.150
 7825POPC   C1A57987  25.243   5.133   6.450
 7825POPC   D2A57988  25.221   5.134   6.750
 7825POPC   C3A57989  25.252   5.099   7.050
 7825POPC   C4A57990  25.241   5.077   7.350
 7825POPC   C1B57991  25.261   4.865   6.450
 7825POPC   C2B57992  25.238   4.811   6.750
 7825POPC   C3B57993  25.268   4.823   7.050
 7825POPC   C4B57994  25.241   4.821   7.350
 7826POPC   NC357995   2.772   4.324   5.550
 7826POPC   PO457996   2.733   4.288   5.850
 7826POPC   GL157997   2.726   4.355   6.150
 7826POPC   GL257998   2.894   4.292   6.150
 7826POPC   C1A57999   2.758   4.324   6.450
 7826POPC   D2A58000   2.717   4.302   6.750
 7826POPC   C3A58001   2.727   4.286   7.050
 7826POPC   C4A58002   2.793   4.326   7.350
 7826POPC   C1B58003   2.926   4.190   6.450
 7826POPC   C2B58004   2.949   4.177   6.750
 7826POPC   C3B58005   2.996   4.200   7.050
 7826POPC   C4B58006   2.972   4.141   7.350
 7827POPC   NC358007  36.943  19.843   5.550
 7827POPC   PO458008  36.900  19.790   5.850
 7827POPC   GL158009  36.863  19.816   6.150
 7827POPC   GL258010  36.797  19.779   6.150
 7827POPC   C1A58011  36.953  19.819   6.450
 7827POPC   D2A58012  36.861  19.834   6.750
 7827POPC   C3A58013  36.873  19.797   7.050
 7827POPC   C4A58014  36.914  19.834   7.350
 7827POPC   C1B58015  36.722  19.692   6.450
 7827POPC   C2B58016  36.733  19.718   6.750
 7827POPC   C3B58017  36.658  19.686   7.050
 7827POPC   C4B58018  36.702  19.682   7.350
 7828POPC   NC358019   8.175  29.129   5.550
 7828POPC   PO458020   8.155  29.128   5.850
 7828POPC   GL158021   8.233  29.190   6.150
 7828POPC   GL258022   8.062  29.201   6.150
 7828POPC   C1A58023   8.160  29.105   6.450
 7828POPC   D2A58024   8.206  29.140   6.750
 7828POPC   C3A58025   8.213  29.163   7.050
 7828POPC   C4A58026   8.147  29.165   7.350
 7828POPC   C1B58027   7.958  29.158   6.450
 7828POPC   C2B58028   7.974  29.250   6.750
 7828POPC   C3B58029   7.939  29.240   7.050
 7828POPC   C4B58030   7.904  29.161   7.350
 7829POPC   NC358031  20.633  36.124   5.550
 7829POPC   PO458032  20.633  36.165   5.850
 7829POPC   GL158033  20.609  36.103   6.150
 7829POPC   GL258034  20.649  36.209   6.150
 7829POPC   C1A58035  20.618  36.136   6.450
 7829POPC   D2A58036  20.585  36.092   6.750
 7829POPC   C3A58037  20.648  36.098   7.050
 7829POPC   C4A58038  20.578  36.161   7.350
 7829POPC   C1B58039  20.667  36.332   6.450
 7829POPC   C2B58040  20.671  36.358   6.750
 7829POPC   C3B58041  20.737  36.352   7.050
 7829POPC   C4B58042  20.667  36.395   7.350
 7830POPC   NC358043  42.314  41.598   5.550
 7830POPC   PO458044  42.347  41.585   5.850
 7830POPC   GL158045  42.323  41.584   6.150
 7830POPC   GL258046  42.283  41.722   6.150
 7830POPC   C1A58047  42.335  41.576   6.450
 7830POPC   D2A58048  42.339  41.601   6.750
 7830POPC   C3A58049  42.304  41.594   7.050
 7830POPC   C4A58050  42.347  41.510   7.350
 7830POPC   C1B58051  42.339  41.824   6.450
 7830POPC   C2B58052  42.297  41.808   6.750
 7830POPC   C3B58053  42.327  41.784   7.050
 7830POPC   C4B58054  42.347  41.761   7.350
 7831POPC   NC358055  32.295  24.517   5.550
 7831POPC   PO458056  32.218  24.538   5.850
 7831POPC   GL158057  32.200  24.444   6.150
 7831POPC   GL258058  32.124  24.464   6.150
 7831POPC   C1A58059  32.234  24.526   6.450
 7831POPC   D2A58060  32.257  24.444   6.750
 7831POPC   C3A58061  32.214  24.449   7.050
 7831POPC   C4A58062  32.223  24.535   7.350
 7831POPC   C1B58063  32.041  24.399   6.450
 7831POPC   C2B58064  32.062  24.407   6.750
 7831POPC   C3B58065  32.083  24.345   7.050
 7831POPC   C4B58066  32.009  24.377   7.350
 7832POPC   NC358067   8.993   7.466   5.550
 7832POPC   PO458068   8.940   7.463   5.850
 7832POPC   GL158069   8.969   7.418   6.150
 7832POPC   GL258070   8.961   7.588   6.150
 7832POPC   C1A58071   8.955   7.415   6.450
 7832POPC   D2A58072   9.006   7.410   6.750
 7832POPC   C3A58073   9.020   7.438   7.050
 7832POPC   C4A58074   8.995   7.456   7.350
 7832POPC   C1B58075   9.012   7.686   6.450
 7832POPC   C2B58076   9.025   7.696   6.750
 7832POPC   C3B58077   9.031   7.652   7.050
 7832POPC   C4B58078   9.020   7.695   7.350
 7833POPC   NC358079  34.530   5.883   5.550
 7833POPC   PO458080  34.574   5.866   5.850
 7833POPC   GL158081  34.588   5.898   6.150
 7833POPC   GL258082  34.559   5.995   6.150
 7833POPC   C1A58083  34.543   5.891   6.450
 7833POPC   D2A58084  34.560   5.864   6.750
 7833POPC   C3A58085  34.561   5.876   7.050
 7833POPC   C4A58086  34.591   5.862   7.350
 7833POPC   C1B58087  34.612   6.087   6.450
 7833POPC   C2B58088  34.589   6.133   6.750
 7833POPC   C3B58089  34.596   6.120   7.050
 7833POPC   C4B58090  34.629   6.118   7.350
 7834POPC   NC358091  16.745  33.805   5.550
 7834POPC   PO458092  16.758  33.814   5.850
 7834POPC   GL158093  16.730  33.818   6.150
 7834POPC   GL258094  16.893  33.734   6.150
 7834POPC   C1A58095  16.689  33.766   6.450
 7834POPC   D2A58096  16.769  33.839   6.750
 7834POPC   C3A58097  16.763  33.850   7.050
 7834POPC   C4A58098  16.724  33.752   7.350
 7834POPC   C1B58099  16.990  33.729   6.450
 7834POPC   C2B58100  17.012  33.757   6.750
 7834POPC   C3B58101  16.974  33.753   7.050
 7834POPC   C4B58102  16.917  33.663   7.350
 7835POPC   NC358103  40.014   3.574   5.550
 7835POPC   PO458104  40.047   3.582   5.850
 7835POPC   GL158105  40.004   3.515   6.150
 7835POPC   GL258106  39.935   3.437   6.150
 7835POPC   C1A58107  40.040   3.561   6.450
 7835POPC   D2A58108  39.984   3.537   6.750
 7835POPC   C3A58109  39.968   3.518   7.050
 7835POPC   C4A58110  40.052   3.516   7.350
 7835POPC   C1B58111  39.745   3.447   6.450
 7835POPC   C2B58112  39.785   3.465   6.750
 7835POPC   C3B58113  39.753   3.461   7.050
 7835POPC   C4B58114  39.770   3.474   7.350
 7836POPC   NC358115  35.329  43.151   5.550
 7836POPC   PO458116  35.388  43.158   5.850
 7836POPC   GL158117  35.303  43.135   6.150
 7836POPC   GL258118  35.322  43.229   6.150
 7836POPC   C1A58119  35.304  43.066   6.450
 7836POPC   D2A58120  35.344  43.110   6.750
 7836POPC   C3A58121  35.310  43.064   7.050
 7836POPC   C4A58122  35.354  43.097   7.350
 7836POPC   C1B58123  35.221  43.372   6.450
 7836POPC   C2B58124  35.221  43.312   6.750
 7836POPC   C3B58125  35.230  43.367   7.050
 7836POPC   C4B58126  35.213  43.374   7.350
 7837POPC   NC358127  20.604   4.288   5.550
 7837POPC   PO458128  20.620   4.324   5.850
 7837POPC   GL158129  20.636   4.320   6.150
 7837POPC   GL258130  20.710   4.237   6.150
 7837POPC   C1A58131  20.606   4.304   6.450
 7837POPC   D2A58132  20.660   4.317   6.750
 7837POPC   C3A58133  20.593   4.330   7.050
 7837POPC   C4A58134  20.645   4.328   7.350
 7837POPC   C1B58135  20.746   4.148   6.450
 7837POPC   C2B58136  20.788   4.125   6.750
 7837POPC   C3B58137  20.807   4.101   7.050
 7837POPC   C4B58138  20.810   4.130   7.350
 7838POPC   NC358139  12.827  40.743   5.550
 7838POPC   PO458140  12.822  40.769   5.850
 7838POPC   GL158141  12.824  40.807   6.150
 7838POPC   GL258142  12.847  40.896   6.150
 7838POPC   C1A58143  12.849  40.733   6.450
 7838POPC   D2A58144  12.818  40.820   6.750
 7838POPC   C3A58145  12.880  40.815   7.050
 7838POPC   C4A58146  12.832  40.736   7.350
 7838POPC   C1B58147  12.880  41.013   6.450
 7838POPC   C2B58148  12.876  41.022   6.750
 7838POPC   C3B58149  12.948  41.062   7.050
 7838POPC   C4B58150  12.948  41.028   7.350
 7839POPC   NC358151  37.718  34.526   5.550
 7839POPC   PO458152  37.709  34.561   5.850
 7839POPC   GL158153  37.698  34.562   6.150
 7839POPC   GL258154  37.690  34.719   6.150
 7839POPC   C1A58155  37.712  34.600   6.450
 7839POPC   D2A58156  37.688  34.536   6.750
 7839POPC   C3A58157  37.720  34.532   7.050
 7839POPC   C4A58158  37.694  34.616   7.350
 7839POPC   C1B58159  37.672  34.775   6.450
 7839POPC   C2B58160  37.649  34.780   6.750
 7839POPC   C3B58161  37.634  34.834   7.050
 7839POPC   C4B58162  37.635  34.855   7.350
 7840POPC   NC358163  31.474   3.510   5.550
 7840POPC   PO458164  31.425   3.524   5.850
 7840POPC   GL158165  31.502   3.563   6.150
 7840POPC   GL258166  31.584   3.588   6.150
 7840POPC   C1A58167  31.504   3.548   6.450
 7840POPC   D2A58168  31.426   3.569   6.750
 7840POPC   C3A58169  31.445   3.543   7.050
 7840POPC   C4A58170  31.463   3.504   7.350
 7840POPC   C1B58171  31.640   3.625   6.450
 7840POPC   C2B58172  31.710   3.661   6.750
 7840POPC   C3B58173  31.645   3.650   7.050
 7840POPC   C4B58174  31.691   3.690   7.350
 7841POPC   NC358175  19.068  38.440   5.550
 7841POPC   PO458176  19.010  38.414   5.850
 7841POPC   GL158177  19.048  38.504   6.150
 7841POPC   GL258178  18.998  38.583   6.150
 7841POPC   C1A58179  19.084  38.466   6.450
 7841POPC   D2A58180  19.017  38.447   6.750
 7841POPC   C3A58181  19.098  38.503   7.050
 7841POPC   C4A58182  19.019  38.410   7.350
 7841POPC   C1B58183  18.895  38.626   6.450
 7841POPC   C2B58184  18.882  38.631   6.750
 7841POPC   C3B58185  18.933  38.621   7.050
 7841POPC   C4B58186  18.959  38.690   7.350
 7842POPC   NC358187  25.246  25.282   5.550
 7842POPC   PO458188  25.291  25.299   5.850
 7842POPC   GL158189  25.313  25.304   6.150
 7842POPC   GL258190  25.223  25.392   6.150
 7842POPC   C1A58191  25.238  25.281   6.450
 7842POPC   D2A58192  25.267  25.225   6.750
 7842POPC   C3A58193  25.276  25.261   7.050
 7842POPC   C4A58194  25.236  25.227   7.350
 7842POPC   C1B58195  25.160  25.486   6.450
 7842POPC   C2B58196  25.136  25.500   6.750
 7842POPC   C3B58197  25.198  25.514   7.050
 7842POPC   C4B58198  25.159  25.546   7.350
 7843POPC   NC358199   2.755  19.093   5.550
 7843POPC   PO458200   2.726  19.023   5.850
 7843POPC   GL158201   2.762  19.087   6.150
 7843POPC   GL258202   2.721  19.120   6.150
 7843POPC   C1A58203   2.772  19.083   6.450
 7843POPC   D2A58204   2.789  19.044   6.750
 7843POPC   C3A58205   2.774  19.018   7.050
 7843POPC   C4A58206   2.813  19.047   7.350
 7843POPC   C1B58207   2.647  19.229   6.450
 7843POPC   C2B58208   2.582  19.233   6.750
 7843POPC   C3B58209   2.623  19.294   7.050
 7843POPC   C4B58210   2.598  19.258   7.350
 7844POPC   NC358211  19.054  18.321   5.550
 7844POPC   PO458212  19.075  18.330   5.850
 7844POPC   GL158213  19.062  18.326   6.150
 7844POPC   GL258214  18.988  18.358   6.150
 7844POPC   C1A58215  19.048  18.286   6.450
 7844POPC   D2A58216  19.082  18.292   6.750
 7844POPC   C3A58217  19.075  18.314   7.050
 7844POPC   C4A58218  19.034  18.314   7.350
 7844POPC   C1B58219  18.824  18.437   6.450
 7844POPC   C2B58220  18.809  18.444   6.750
 7844POPC   C3B58221  18.809  18.359   7.050
 7844POPC   C4B58222  18.873  18.405   7.350
 7845POPC   NC358223  30.700  42.340   5.550
 7845POPC   PO458224  30.732  42.348   5.850
 7845POPC   GL158225  30.692  42.362   6.150
 7845POPC   GL258226  30.621  42.264   6.150
 7845POPC   C1A58227  30.704  42.343   6.450
 7845POPC   D2A58228  30.702  42.378   6.750
 7845POPC   C3A58229  30.718  42.379   7.050
 7845POPC   C4A58230  30.718  42.295   7.350
 7845POPC   C1B58231  30.425  42.272   6.450
 7845POPC   C2B58232  30.437  42.266   6.750
 7845POPC   C3B58233  30.450  42.287   7.050
 7845POPC   C4B58234  30.442  42.236   7.350
 7846POPC   NC358235   4.361   5.126   5.550
 7846POPC   PO458236   4.338   5.114   5.850
 7846POPC   GL158237   4.322   5.071   6.150
 7846POPC   GL258238   4.312   4.995   6.150
 7846POPC   C1A58239   4.324   5.077   6.450
 7846POPC   D2A58240   4.279   5.129   6.750
 7846POPC   C3A58241   4.272   5.136   7.050
 7846POPC   C4A58242   4.344   5.123   7.350
 7846POPC   C1B58243   4.271   4.827   6.450
 7846POPC   C2B58244   4.212   4.850   6.750
 7846POPC   C3B58245   4.236   4.869   7.050
 7846POPC   C4B58246   4.224   4.847   7.350
 7847POPC   NC358247  37.634  22.930   5.550
 7847POPC   PO458248  37.687  22.963   5.850
 7847POPC   GL158249  37.694  22.939   6.150
 7847POPC   GL258250  37.678  23.062   6.150
 7847POPC   C1A58251  37.635  22.946   6.450
 7847POPC   D2A58252  37.657  22.988   6.750
 7847POPC   C3A58253  37.702  22.955   7.050
 7847POPC   C4A58254  37.694  22.947   7.350
 7847POPC   C1B58255  37.670  23.230   6.450
 7847POPC   C2B58256  37.707  23.156   6.750
 7847POPC   C3B58257  37.679  23.163   7.050
 7847POPC   C4B58258  37.690  23.169   7.350
 7848POPC   NC358259  10.506  43.137   5.550
 7848POPC   PO458260  10.506  43.102   5.850
 7848POPC   GL158261  10.534  43.134   6.150
 7848POPC   GL258262  10.658  43.135   6.150
 7848POPC   C1A58263  10.535  43.062   6.450
 7848POPC   D2A58264  10.531  43.123   6.750
 7848POPC   C3A58265  10.492  43.067   7.050
 7848POPC   C4A58266  10.547  43.077   7.350
 7848POPC   C1B58267  10.781  43.181   6.450
 7848POPC   C2B58268  10.804  43.229   6.750
 7848POPC   C3B58269  10.720  43.143   7.050
 7848POPC   C4B58270  10.753  43.220   7.350
 7849POPC   NC358271  22.936  33.055   5.550
 7849POPC   PO458272  22.966  33.031   5.850
 7849POPC   GL158273  22.892  32.997   6.150
 7849POPC   GL258274  23.029  32.992   6.150
 7849POPC   C1A58275  22.960  33.065   6.450
 7849POPC   D2A58276  22.909  33.063   6.750
 7849POPC   C3A58277  22.934  33.065   7.050
 7849POPC   C4A58278  22.978  32.989   7.350
 7849POPC   C1B58279  23.113  32.871   6.450
 7849POPC   C2B58280  23.105  32.899   6.750
 7849POPC   C3B58281  23.111  32.861   7.050
 7849POPC   C4B58282  23.128  32.900   7.350
 7850POPC   NC358283  22.181  26.770   5.550
 7850POPC   PO458284  22.158  26.768   5.850
 7850POPC   GL158285  22.167  26.863   6.150
 7850POPC   GL258286  22.045  26.742   6.150
 7850POPC   C1A58287  22.153  26.803   6.450
 7850POPC   D2A58288  22.140  26.801   6.750
 7850POPC   C3A58289  22.133  26.801   7.050
 7850POPC   C4A58290  22.177  26.848   7.350
 7850POPC   C1B58291  22.031  26.609   6.450
 7850POPC   C2B58292  22.026  26.592   6.750
 7850POPC   C3B58293  22.016  26.666   7.050
 7850POPC   C4B58294  21.966  26.662   7.350
 7851POPC   NC358295  27.603  36.167   5.550
 7851POPC   PO458296  27.590  36.125   5.850
 7851POPC   GL158297  27.595  36.171   6.150
 7851POPC   GL258298  27.547  36.069   6.150
 7851POPC   C1A58299  27.609  36.099   6.450
 7851POPC   D2A58300  27.561  36.095   6.750
 7851POPC   C3A58301  27.610  36.090   7.050
 7851POPC   C4A58302  27.626  36.105   7.350
 7851POPC   C1B58303  27.390  35.966   6.450
 7851POPC   C2B58304  27.474  35.906   6.750
 7851POPC   C3B58305  27.448  35.975   7.050
 7851POPC   C4B58306  27.457  35.897   7.350
 7852POPC   NC358307  36.941  27.562   5.550
 7852POPC   PO458308  36.891  27.575   5.850
 7852POPC   GL158309  36.915  27.565   6.150
 7852POPC   GL258310  36.926  27.515   6.150
 7852POPC   C1A58311  36.945  27.557   6.450
 7852POPC   D2A58312  36.870  27.628   6.750
 7852POPC   C3A58313  36.916  27.584   7.050
 7852POPC   C4A58314  36.908  27.574   7.350
 7852POPC   C1B58315  36.890  27.302   6.450
 7852POPC   C2B58316  36.891  27.380   6.750
 7852POPC   C3B58317  36.904  27.357   7.050
 7852POPC   C4B58318  36.902  27.391   7.350
 7853POPC   NC358319  22.980  41.590   5.550
 7853POPC   PO458320  22.946  41.537   5.850
 7853POPC   GL158321  22.935  41.518   6.150
 7853POPC   GL258322  22.955  41.650   6.150
 7853POPC   C1A58323  22.970  41.593   6.450
 7853POPC   D2A58324  22.913  41.547   6.750
 7853POPC   C3A58325  22.897  41.516   7.050
 7853POPC   C4A58326  22.979  41.523   7.350
 7853POPC   C1B58327  22.932  41.812   6.450
 7853POPC   C2B58328  22.871  41.846   6.750
 7853POPC   C3B58329  22.914  41.759   7.050
 7853POPC   C4B58330  22.875  41.789   7.350
 7854POPC   NC358331  39.277   5.080   5.550
 7854POPC   PO458332  39.216   5.109   5.850
 7854POPC   GL158333  39.252   5.047   6.150
 7854POPC   GL258334  39.097   5.168   6.150
 7854POPC   C1A58335  39.187   5.121   6.450
 7854POPC   D2A58336  39.199   5.054   6.750
 7854POPC   C3A58337  39.263   5.132   7.050
 7854POPC   C4A58338  39.265   5.049   7.350
 7854POPC   C1B58339  39.023   5.166   6.450
 7854POPC   C2B58340  38.952   5.139   6.750
 7854POPC   C3B58341  39.013   5.169   7.050
 7854POPC   C4B58342  39.046   5.206   7.350
 7855POPC   NC358343  43.857  28.343   5.550
 7855POPC   PO458344  43.903  28.406   5.850
 7855POPC   GL158345  43.857  28.416   6.150
 7855POPC   GL258346  43.808  28.492   6.150
 7855POPC   C1A58347  43.876  28.325   6.450
 7855POPC   D2A58348  43.868  28.376   6.750
 7855POPC   C3A58349  43.924  28.325   7.050
 7855POPC   C4A58350  43.902  28.408   7.350
 7855POPC   C1B58351  43.743  28.573   6.450
 7855POPC   C2B58352  43.660  28.553   6.750
 7855POPC   C3B58353  43.655  28.520   7.050
 7855POPC   C4B58354  43.678  28.505   7.350
 7856POPC   NC358355   1.217  25.246   5.550
 7856POPC   PO458356   1.210  25.272   5.850
 7856POPC   GL158357   1.206  25.243   6.150
 7856POPC   GL258358   1.117  25.343   6.150
 7856POPC   C1A58359   1.241  25.242   6.450
 7856POPC   D2A58360   1.196  25.227   6.750
 7856POPC   C3A58361   1.240  25.231   7.050
 7856POPC   C4A58362   1.261  25.226   7.350
 7856POPC   C1B58363   0.986  25.433   6.450
 7856POPC   C2B58364   0.976  25.388   6.750
 7856POPC   C3B58365   0.955  25.384   7.050
 7856POPC   C4B58366   0.983  25.380   7.350
 7857POPC   NC358367  24.454  25.279   5.550
 7857POPC   PO458368  24.508  25.310   5.850
 7857POPC   GL158369  24.475  25.294   6.150
 7857POPC   GL258370  24.638  25.167   6.150
 7857POPC   C1A58371  24.516  25.248   6.450
 7857POPC   D2A58372  24.502  25.231   6.750
 7857POPC   C3A58373  24.508  25.232   7.050
 7857POPC   C4A58374  24.497  25.312   7.350
 7857POPC   C1B58375  24.719  25.174   6.450
 7857POPC   C2B58376  24.704  25.188   6.750
 7857POPC   C3B58377  24.704  25.137   7.050
 7857POPC   C4B58378  24.716  25.191   7.350
 7858POPC   NC358379  22.183  33.034   5.550
 7858POPC   PO458380  22.150  32.994   5.850
 7858POPC   GL158381  22.159  33.013   6.150
 7858POPC   GL258382  22.026  32.979   6.150
 7858POPC   C1A58383  22.207  33.057   6.450
 7858POPC   D2A58384  22.142  32.997   6.750
 7858POPC   C3A58385  22.210  33.044   7.050
 7858POPC   C4A58386  22.170  33.056   7.350
 7858POPC   C1B58387  21.924  32.894   6.450
 7858POPC   C2B58388  21.947  32.864   6.750
 7858POPC   C3B58389  21.932  32.862   7.050
 7858POPC   C4B58390  21.997  32.853   7.350
 7859POPC   NC358391  16.734  19.082   5.550
 7859POPC   PO458392  16.710  19.055   5.850
 7859POPC   GL158393  16.736  19.016   6.150
 7859POPC   GL258394  16.565  19.060   6.150
 7859POPC   C1A58395  16.765  19.051   6.450
 7859POPC   D2A58396  16.766  19.014   6.750
 7859POPC   C3A58397  16.732  19.077   7.050
 7859POPC   C4A58398  16.709  19.064   7.350
 7859POPC   C1B58399  16.433  19.079   6.450
 7859POPC   C2B58400  16.478  19.067   6.750
 7859POPC   C3B58401  16.486  19.114   7.050
 7859POPC   C4B58402  16.500  19.045   7.350
 7860POPC   NC358403   2.741  26.841   5.550
 7860POPC   PO458404   2.774  26.864   5.850
 7860POPC   GL158405   2.795  26.819   6.150
 7860POPC   GL258406   2.863  26.748   6.150
 7860POPC   C1A58407   2.811  26.790   6.450
 7860POPC   D2A58408   2.783  26.838   6.750
 7860POPC   C3A58409   2.743  26.840   7.050
 7860POPC   C4A58410   2.787  26.834   7.350
 7860POPC   C1B58411   2.927  26.631   6.450
 7860POPC   C2B58412   3.020  26.703   6.750
 7860POPC   C3B58413   3.009  26.712   7.050
 7860POPC   C4B58414   2.924  26.699   7.350
 7861POPC   NC358415  40.791  24.538   5.550
 7861POPC   PO458416  40.775  24.474   5.850
 7861POPC   GL158417  40.833  24.474   6.150
 7861POPC   GL258418  40.678  24.453   6.150
 7861POPC   C1A58419  40.789  24.540   6.450
 7861POPC   D2A58420  40.781  24.483   6.750
 7861POPC   C3A58421  40.734  24.481   7.050
 7861POPC   C4A58422  40.733  24.442   7.350
 7861POPC   C1B58423  40.568  24.350   6.450
 7861POPC   C2B58424  40.541  24.420   6.750
 7861POPC   C3B58425  40.595  24.415   7.050
 7861POPC   C4B58426  40.573  24.384   7.350
 7862POPC   NC358427  27.630  19.884   5.550
 7862POPC   PO458428  27.579  19.860   5.850
 7862POPC   GL158429  27.620  19.842   6.150
 7862POPC   GL258430  27.696  19.765   6.150
 7862POPC   C1A58431  27.594  19.843   6.450
 7862POPC   D2A58432  27.581  19.797   6.750
 7862POPC   C3A58433  27.546  19.829   7.050
 7862POPC   C4A58434  27.559  19.818   7.350
 7862POPC   C1B58435  27.787  19.821   6.450
 7862POPC   C2B58436  27.847  19.816   6.750
 7862POPC   C3B58437  27.800  19.795   7.050
 7862POPC   C4B58438  27.855  19.732   7.350
 7863POPC   NC358439  37.631  23.762   5.550
 7863POPC   PO458440  37.683  23.762   5.850
 7863POPC   GL158441  37.636  23.666   6.150
 7863POPC   GL258442  37.745  23.820   6.150
 7863POPC   C1A58443  37.673  23.693   6.450
 7863POPC   D2A58444  37.701  23.682   6.750
 7863POPC   C3A58445  37.717  23.745   7.050
 7863POPC   C4A58446  37.726  23.720   7.350
 7863POPC   C1B58447  37.810  23.915   6.450
 7863POPC   C2B58448  37.777  23.971   6.750
 7863POPC   C3B58449  37.774  23.948   7.050
 7863POPC   C4B58450  37.816  23.880   7.350
 7864POPC   NC358451   3.505   3.515   5.550
 7864POPC   PO458452   3.566   3.511   5.850
 7864POPC   GL158453   3.492   3.588   6.150
 7864POPC   GL258454   3.471   3.547   6.150
 7864POPC   C1A58455   3.493   3.545   6.450
 7864POPC   D2A58456   3.564   3.521   6.750
 7864POPC   C3A58457   3.579   3.566   7.050
 7864POPC   C4A58458   3.582   3.510   7.350
 7864POPC   C1B58459   3.361   3.619   6.450
 7864POPC   C2B58460   3.304   3.625   6.750
 7864POPC   C3B58461   3.349   3.672   7.050
 7864POPC   C4B58462   3.302   3.661   7.350
 7865POPC   NC358463  21.365  39.970   5.550
 7865POPC   PO458464  21.387  40.032   5.850
 7865POPC   GL158465  21.390  40.051   6.150
 7865POPC   GL258466  21.395  40.135   6.150
 7865POPC   C1A58467  21.384  40.012   6.450
 7865POPC   D2A58468  21.375  39.980   6.750
 7865POPC   C3A58469  21.341  39.975   7.050
 7865POPC   C4A58470  21.354  39.994   7.350
 7865POPC   C1B58471  21.417  40.254   6.450
 7865POPC   C2B58472  21.481  40.297   6.750
 7865POPC   C3B58473  21.481  40.225   7.050
 7865POPC   C4B58474  21.473  40.202   7.350
 7866POPC   NC358475  26.843   1.229   5.550
 7866POPC   PO458476  26.866   1.178   5.850
 7866POPC   GL158477  26.854   1.218   6.150
 7866POPC   GL258478  26.726   1.128   6.150
 7866POPC   C1A58479  26.838   1.263   6.450
 7866POPC   D2A58480  26.840   1.230   6.750
 7866POPC   C3A58481  26.781   1.230   7.050
 7866POPC   C4A58482  26.832   1.225   7.350
 7866POPC   C1B58483  26.636   1.070   6.450
 7866POPC   C2B58484  26.640   1.013   6.750
 7866POPC   C3B58485  26.664   1.056   7.050
 7866POPC   C4B58486  26.624   1.109   7.350
 7867POPC   NC358487  39.960  19.809   5.550
 7867POPC   PO458488  39.987  19.849   5.850
 7867POPC   GL158489  40.000  19.865   6.150
 7867POPC   GL258490  39.995  19.911   6.150
 7867POPC   C1A58491  40.056  19.881   6.450
 7867POPC   D2A58492  39.981  19.832   6.750
 7867POPC   C3A58493  39.963  19.805   7.050
 7867POPC   C4A58494  39.973  19.793   7.350
 7867POPC   C1B58495  39.916  20.106   6.450
 7867POPC   C2B58496  39.954  20.091   6.750
 7867POPC   C3B58497  39.929  20.128   7.050
 7867POPC   C4B58498  39.966  20.075   7.350
 7868POPC   NC358499  24.504  32.232   5.550
 7868POPC   PO458500  24.531  32.203   5.850
 7868POPC   GL158501  24.533  32.246   6.150
 7868POPC   GL258502  24.590  32.171   6.150
 7868POPC   C1A58503  24.455  32.282   6.450
 7868POPC   D2A58504  24.536  32.288   6.750
 7868POPC   C3A58505  24.490  32.261   7.050
 7868POPC   C4A58506  24.459  32.216   7.350
 7868POPC   C1B58507  24.581  32.045   6.450
 7868POPC   C2B58508  24.658  31.990   6.750
 7868POPC   C3B58509  24.671  32.013   7.050
 7868POPC   C4B58510  24.603  31.995   7.350
 7869POPC   NC358511  11.270  33.840   5.550
 7869POPC   PO458512  11.348  33.757   5.850
 7869POPC   GL158513  11.283  33.767   6.150
 7869POPC   GL258514  11.158  33.772   6.150
 7869POPC   C1A58515  11.345  33.803   6.450
 7869POPC   D2A58516  11.337  33.808   6.750
 7869POPC   C3A58517  11.267  33.813   7.050
 7869POPC   C4A58518  11.284  33.785   7.350
 7869POPC   C1B58519  11.083  33.736   6.450
 7869POPC   C2B58520  11.093  33.725   6.750
 7869POPC   C3B58521  11.074  33.725   7.050
 7869POPC   C4B58522  11.102  33.747   7.350
 7870POPC   NC358523  22.981  12.034   5.550
 7870POPC   PO458524  22.890  12.032   5.850
 7870POPC   GL158525  22.913  12.121   6.150
 7870POPC   GL258526  22.807  12.085   6.150
 7870POPC   C1A58527  22.937  12.047   6.450
 7870POPC   D2A58528  22.954  12.061   6.750
 7870POPC   C3A58529  22.923  12.111   7.050
 7870POPC   C4A58530  22.956  12.106   7.350
 7870POPC   C1B58531  22.723  12.123   6.450
 7870POPC   C2B58532  22.722  12.172   6.750
 7870POPC   C3B58533  22.726  12.147   7.050
 7870POPC   C4B58534  22.700  12.106   7.350
 7871POPC   NC358535  20.645  41.511   5.550
 7871POPC   PO458536  20.602  41.556   5.850
 7871POPC   GL158537  20.610  41.563   6.150
 7871POPC   GL258538  20.643  41.682   6.150
 7871POPC   C1A58539  20.652  41.604   6.450
 7871POPC   D2A58540  20.580  41.607   6.750
 7871POPC   C3A58541  20.582  41.526   7.050
 7871POPC   C4A58542  20.560  41.577   7.350
 7871POPC   C1B58543  20.640  41.779   6.450
 7871POPC   C2B58544  20.680  41.843   6.750
 7871POPC   C3B58545  20.713  41.755   7.050
 7871POPC   C4B58546  20.713  41.774   7.350
 7872POPC   NC358547  25.281  24.511   5.550
 7872POPC   PO458548  25.290  24.495   5.850
 7872POPC   GL158549  25.234  24.477   6.150
 7872POPC   GL258550  25.103  24.447   6.150
 7872POPC   C1A58551  25.293  24.517   6.450
 7872POPC   D2A58552  25.289  24.509   6.750
 7872POPC   C3A58553  25.311  24.486   7.050
 7872POPC   C4A58554  25.300  24.447   7.350
 7872POPC   C1B58555  24.996  24.478   6.450
 7872POPC   C2B58556  25.010  24.442   6.750
 7872POPC   C3B58557  25.072  24.474   7.050
 7872POPC   C4B58558  25.073  24.464   7.350
 7873POPC   NC358559  44.699  13.646   5.550
 7873POPC   PO458560  44.666  13.583   5.850
 7873POPC   GL158561  44.612  13.661   6.150
 7873POPC   GL258562  44.599  13.716   6.150
 7873POPC   C1A58563  44.646  13.659   6.450
 7873POPC   D2A58564  44.657  13.666   6.750
 7873POPC   C3A58565  44.644  13.659   7.050
 7873POPC   C4A58566  44.648  13.605   7.350
 7873POPC   C1B58567  44.429  13.774   6.450
 7873POPC   C2B58568  44.444  13.728   6.750
 7873POPC   C3B58569  44.406  13.734   7.050
 7873POPC   C4B58570  44.457  13.801   7.350
 7874POPC   NC358571  29.167  21.338   5.550
 7874POPC   PO458572  29.191  21.432   5.850
 7874POPC   GL158573  29.133  21.350   6.150
 7874POPC   GL258574  29.247  21.397   6.150
 7874POPC   C1A58575  29.095  21.398   6.450
 7874POPC   D2A58576  29.097  21.395   6.750
 7874POPC   C3A58577  29.134  21.356   7.050
 7874POPC   C4A58578  29.173  21.341   7.350
 7874POPC   C1B58579  29.387  21.417   6.450
 7874POPC   C2B58580  29.359  21.364   6.750
 7874POPC   C3B58581  29.357  21.419   7.050
 7874POPC   C4B58582  29.404  21.378   7.350
 7875POPC   NC358583  43.863  16.744   5.550
 7875POPC   PO458584  43.877  16.701   5.850
 7875POPC   GL158585  43.892  16.718   6.150
 7875POPC   GL258586  43.786  16.659   6.150
 7875POPC   C1A58587  43.923  16.730   6.450
 7875POPC   D2A58588  43.855  16.761   6.750
 7875POPC   C3A58589  43.882  16.727   7.050
 7875POPC   C4A58590  43.872  16.762   7.350
 7875POPC   C1B58591  43.740  16.510   6.450
 7875POPC   C2B58592  43.788  16.480   6.750
 7875POPC   C3B58593  43.731  16.487   7.050
 7875POPC   C4B58594  43.734  16.551   7.350
 7876POPC   NC358595   5.886  15.140   5.550
 7876POPC   PO458596   5.853  15.156   5.850
 7876POPC   GL158597   5.830  15.171   6.150
 7876POPC   GL258598   5.798  15.267   6.150
 7876POPC   C1A58599   5.842  15.172   6.450
 7876POPC   D2A58600   5.910  15.170   6.750
 7876POPC   C3A58601   5.865  15.167   7.050
 7876POPC   C4A58602   5.841  15.187   7.350
 7876POPC   C1B58603   5.789  15.374   6.450
 7876POPC   C2B58604   5.731  15.451   6.750
 7876POPC   C3B58605   5.772  15.376   7.050
 7876POPC   C4B58606   5.755  15.369   7.350
 7877POPC   NC358607  35.348  19.100   5.550
 7877POPC   PO458608  35.306  19.072   5.850
 7877POPC   GL158609  35.397  19.023   6.150
 7877POPC   GL258610  35.245  18.960   6.150
 7877POPC   C1A58611  35.378  19.060   6.450
 7877POPC   D2A58612  35.383  19.096   6.750
 7877POPC   C3A58613  35.319  19.084   7.050
 7877POPC   C4A58614  35.399  19.092   7.350
 7877POPC   C1B58615  35.148  18.921   6.450
 7877POPC   C2B58616  35.161  18.899   6.750
 7877POPC   C3B58617  35.157  18.854   7.050
 7877POPC   C4B58618  35.153  18.934   7.350
 7878POPC   NC358619  27.621  39.981   5.550
 7878POPC   PO458620  27.639  39.995   5.850
 7878POPC   GL158621  27.629  40.005   6.150
 7878POPC   GL258622  27.507  40.072   6.150
 7878POPC   C1A58623  27.574  40.006   6.450
 7878POPC   D2A58624  27.585  40.043   6.750
 7878POPC   C3A58625  27.565  39.987   7.050
 7878POPC   C4A58626  27.640  40.001   7.350
 7878POPC   C1B58627  27.382  40.186   6.450
 7878POPC   C2B58628  27.346  40.114   6.750
 7878POPC   C3B58629  27.381  40.171   7.050
 7878POPC   C4B58630  27.382  40.132   7.350
 7879POPC   NC358631  34.607  17.467   5.550
 7879POPC   PO458632  34.611  17.517   5.850
 7879POPC   GL158633  34.618  17.490   6.150
 7879POPC   GL258634  34.548  17.650   6.150
 7879POPC   C1A58635  34.575  17.538   6.450
 7879POPC   D2A58636  34.583  17.550   6.750
 7879POPC   C3A58637  34.554  17.520   7.050
 7879POPC   C4A58638  34.552  17.512   7.350
 7879POPC   C1B58639  34.564  17.795   6.450
 7879POPC   C2B58640  34.539  17.731   6.750
 7879POPC   C3B58641  34.628  17.728   7.050
 7879POPC   C4B58642  34.591  17.794   7.350
 7880POPC   NC358643  27.598  10.509   5.550
 7880POPC   PO458644  27.638  10.516   5.850
 7880POPC   GL158645  27.636  10.570   6.150
 7880POPC   GL258646  27.695  10.423   6.150
 7880POPC   C1A58647  27.576  10.485   6.450
 7880POPC   D2A58648  27.550  10.529   6.750
 7880POPC   C3A58649  27.562  10.493   7.050
 7880POPC   C4A58650  27.560  10.570   7.350
 7880POPC   C1B58651  27.790  10.332   6.450
 7880POPC   C2B58652  27.757  10.371   6.750
 7880POPC   C3B58653  27.749  10.369   7.050
 7880POPC   C4B58654  27.815  10.333   7.350
 7881POPC   NC358655  26.012   7.397   5.550
 7881POPC   PO458656  26.090   7.436   5.850
 7881POPC   GL158657  26.064   7.401   6.150
 7881POPC   GL258658  26.149   7.402   6.150
 7881POPC   C1A58659  26.033   7.371   6.450
 7881POPC   D2A58660  26.078   7.391   6.750
 7881POPC   C3A58661  26.083   7.407   7.050
 7881POPC   C4A58662  26.039   7.445   7.350
 7881POPC   C1B58663  26.238   7.312   6.450
 7881POPC   C2B58664  26.265   7.359   6.750
 7881POPC   C3B58665  26.314   7.372   7.050
 7881POPC   C4B58666  26.268   7.380   7.350
 7882POPC   NC358667  44.701  29.184   5.550
 7882POPC   PO458668  44.635  29.122   5.850
 7882POPC   GL158669  44.659  29.171   6.150
 7882POPC   GL258670  44.546  29.153   6.150
 7882POPC   C1A58671  44.639  29.097   6.450
 7882POPC   D2A58672  44.699  29.174   6.750
 7882POPC   C3A58673  44.646  29.186   7.050
 7882POPC   C4A58674  44.653  29.131   7.350
 7882POPC   C1B58675  44.414  29.027   6.450
 7882POPC   C2B58676  44.430  29.105   6.750
 7882POPC   C3B58677  44.454  29.026   7.050
 7882POPC   C4B58678  44.397  29.086   7.350
 7883POPC   NC358679  22.921  30.668   5.550
 7883POPC   PO458680  22.945  30.713   5.850
 7883POPC   GL158681  22.912  30.744   6.150
 7883POPC   GL258682  22.779  30.648   6.150
 7883POPC   C1A58683  22.916  30.722   6.450
 7883POPC   D2A58684  22.946  30.712   6.750
 7883POPC   C3A58685  22.972  30.655   7.050
 7883POPC   C4A58686  22.930  30.706   7.350
 7883POPC   C1B58687  22.700  30.601   6.450
 7883POPC   C2B58688  22.677  30.637   6.750
 7883POPC   C3B58689  22.716  30.635   7.050
 7883POPC   C4B58690  22.681  30.569   7.350
 7884POPC   NC358691  15.170   7.466   5.550
 7884POPC   PO458692  15.132   7.382   5.850
 7884POPC   GL158693  15.162   7.411   6.150
 7884POPC   GL258694  15.285   7.484   6.150
 7884POPC   C1A58695  15.212   7.469   6.450
 7884POPC   D2A58696  15.215   7.470   6.750
 7884POPC   C3A58697  15.195   7.396   7.050
 7884POPC   C4A58698  15.192   7.421   7.350
 7884POPC   C1B58699  15.320   7.567   6.450
 7884POPC   C2B58700  15.353   7.565   6.750
 7884POPC   C3B58701  15.394   7.569   7.050
 7884POPC   C4B58702  15.391   7.655   7.350
 7885POPC   NC358703   5.820  41.521   5.550
 7885POPC   PO458704   5.857  41.589   5.850
 7885POPC   GL158705   5.847  41.606   6.150
 7885POPC   GL258706   5.862  41.448   6.150
 7885POPC   C1A58707   5.890  41.576   6.450
 7885POPC   D2A58708   5.907  41.522   6.750
 7885POPC   C3A58709   5.860  41.561   7.050
 7885POPC   C4A58710   5.888  41.511   7.350
 7885POPC   C1B58711   5.863  41.316   6.450
 7885POPC   C2B58712   5.850  41.293   6.750
 7885POPC   C3B58713   5.824  41.325   7.050
 7885POPC   C4B58714   5.777  41.285   7.350
 7886POPC   NC358715  12.894  11.314   5.550
 7886POPC   PO458716  12.828  11.261   5.850
 7886POPC   GL158717  12.893  11.264   6.150
 7886POPC   GL258718  12.916  11.418   6.150
 7886POPC   C1A58719  12.896  11.338   6.450
 7886POPC   D2A58720  12.866  11.331   6.750
 7886POPC   C3A58721  12.879  11.325   7.050
 7886POPC   C4A58722  12.830  11.338   7.350
 7886POPC   C1B58723  12.923  11.494   6.450
 7886POPC   C2B58724  12.972  11.522   6.750
 7886POPC   C3B58725  12.909  11.542   7.050
 7886POPC   C4B58726  12.994  11.577   7.350
 7887POPC   NC358727  11.289  13.626   5.550
 7887POPC   PO458728  11.252  13.655   5.850
 7887POPC   GL158729  11.299  13.626   6.150
 7887POPC   GL258730  11.251  13.712   6.150
 7887POPC   C1A58731  11.273  13.579   6.450
 7887POPC   D2A58732  11.291  13.616   6.750
 7887POPC   C3A58733  11.302  13.674   7.050
 7887POPC   C4A58734  11.336  13.582   7.350
 7887POPC   C1B58735  11.098  13.790   6.450
 7887POPC   C2B58736  11.081  13.821   6.750
 7887POPC   C3B58737  11.124  13.751   7.050
 7887POPC   C4B58738  11.145  13.782   7.350
 7888POPC   NC358739  31.455  39.234   5.550
 7888POPC   PO458740  31.520  39.241   5.850
 7888POPC   GL158741  31.473  39.184   6.150
 7888POPC   GL258742  31.552  39.186   6.150
 7888POPC   C1A58743  31.508  39.204   6.450
 7888POPC   D2A58744  31.433  39.229   6.750
 7888POPC   C3A58745  31.445  39.183   7.050
 7888POPC   C4A58746  31.469  39.200   7.350
 7888POPC   C1B58747  31.754  39.116   6.450
 7888POPC   C2B58748  31.720  39.175   6.750
 7888POPC   C3B58749  31.689  39.107   7.050
 7888POPC   C4B58750  31.664  39.147   7.350
 7889POPC   NC358751  17.474   7.467   5.550
 7889POPC   PO458752  17.496   7.434   5.850
 7889POPC   GL158753  17.546   7.437   6.150
 7889POPC   GL258754  17.539   7.297   6.150
 7889POPC   C1A58755  17.457   7.380   6.450
 7889POPC   D2A58756  17.551   7.393   6.750
 7889POPC   C3A58757  17.515   7.471   7.050
 7889POPC   C4A58758  17.533   7.431   7.350
 7889POPC   C1B58759  17.537   7.150   6.450
 7889POPC   C2B58760  17.517   7.189   6.750
 7889POPC   C3B58761  17.455   7.210   7.050
 7889POPC   C4B58762  17.491   7.129   7.350
 7890POPC   NC358763   3.545  19.802   5.550
 7890POPC   PO458764   3.530  19.789   5.850
 7890POPC   GL158765   3.514  19.809   6.150
 7890POPC   GL258766   3.591  19.663   6.150
 7890POPC   C1A58767   3.530  19.833   6.450
 7890POPC   D2A58768   3.500  19.862   6.750
 7890POPC   C3A58769   3.560  19.845   7.050
 7890POPC   C4A58770   3.526  19.818   7.350
 7890POPC   C1B58771   3.539  19.601   6.450
 7890POPC   C2B58772   3.575  19.616   6.750
 7890POPC   C3B58773   3.532  19.569   7.050
 7890POPC   C4B58774   3.580  19.559   7.350
 7891POPC   NC358775  42.293  43.069   5.550
 7891POPC   PO458776  42.328  43.136   5.850
 7891POPC   GL158777  42.314  43.148   6.150
 7891POPC   GL258778  42.223  43.046   6.150
 7891POPC   C1A58779  42.286  43.072   6.450
 7891POPC   D2A58780  42.373  43.113   6.750
 7891POPC   C3A58781  42.337  43.158   7.050
 7891POPC   C4A58782  42.360  43.067   7.350
 7891POPC   C1B58783  42.209  42.907   6.450
 7891POPC   C2B58784  42.159  42.961   6.750
 7891POPC   C3B58785  42.172  42.910   7.050
 7891POPC   C4B58786  42.156  42.932   7.350
 7892POPC   NC358787  21.426  43.921   5.550
 7892POPC   PO458788  21.348  43.896   5.850
 7892POPC   GL158789  21.416  43.855   6.150
 7892POPC   GL258790  21.294  44.042   6.150
 7892POPC   C1A58791  21.361  43.837   6.450
 7892POPC   D2A58792  21.384  43.886   6.750
 7892POPC   C3A58793  21.429  43.900   7.050
 7892POPC   C4A58794  21.411  43.895   7.350
 7892POPC   C1B58795  21.323  44.166   6.450
 7892POPC   C2B58796  21.247  44.098   6.750
 7892POPC   C3B58797  21.279  44.155   7.050
 7892POPC   C4B58798  21.261  44.109   7.350
 7893POPC   NC358799  26.861  27.564   5.550
 7893POPC   PO458800  26.810  27.588   5.850
 7893POPC   GL158801  26.815  27.547   6.150
 7893POPC   GL258802  26.753  27.477   6.150
 7893POPC   C1A58803  26.777  27.593   6.450
 7893POPC   D2A58804  26.824  27.569   6.750
 7893POPC   C3A58805  26.812  27.555   7.050
 7893POPC   C4A58806  26.789  27.620   7.350
 7893POPC   C1B58807  26.692  27.390   6.450
 7893POPC   C2B58808  26.667  27.405   6.750
 7893POPC   C3B58809  26.666  27.396   7.050
 7893POPC   C4B58810  26.695  27.356   7.350
 7894POPC   NC358811  23.721   0.415   5.550
 7894POPC   PO458812  23.714   0.474   5.850
 7894POPC   GL158813  23.695   0.431   6.150
 7894POPC   GL258814  23.703   0.551   6.150
 7894POPC   C1A58815  23.729   0.487   6.450
 7894POPC   D2A58816  23.757   0.424   6.750
 7894POPC   C3A58817  23.675   0.407   7.050
 7894POPC   C4A58818  23.706   0.488   7.350
 7894POPC   C1B58819  23.712   0.639   6.450
 7894POPC   C2B58820  23.726   0.666   6.750
 7894POPC   C3B58821  23.743   0.710   7.050
 7894POPC   C4B58822  23.682   0.704   7.350
 7895POPC   NC358823  36.944  18.235   5.550
 7895POPC   PO458824  36.951  18.311   5.850
 7895POPC   GL158825  36.876  18.281   6.150
 7895POPC   GL258826  36.848  18.114   6.150
 7895POPC   C1A58827  36.892  18.315   6.450
 7895POPC   D2A58828  36.925  18.316   6.750
 7895POPC   C3A58829  36.931  18.280   7.050
 7895POPC   C4A58830  36.936  18.309   7.350
 7895POPC   C1B58831  36.806  18.069   6.450
 7895POPC   C2B58832  36.848  18.001   6.750
 7895POPC   C3B58833  36.877  18.023   7.050
 7895POPC   C4B58834  36.802  18.070   7.350
 7896POPC   NC358835  16.718   1.174   5.550
 7896POPC   PO458836  16.780   1.166   5.850
 7896POPC   GL158837  16.775   1.187   6.150
 7896POPC   GL258838  16.693   1.364   6.150
 7896POPC   C1A58839  16.771   1.205   6.450
 7896POPC   D2A58840  16.727   1.181   6.750
 7896POPC   C3A58841  16.709   1.247   7.050
 7896POPC   C4A58842  16.747   1.241   7.350
 7896POPC   C1B58843  16.611   1.461   6.450
 7896POPC   C2B58844  16.614   1.454   6.750
 7896POPC   C3B58845  16.683   1.469   7.050
 7896POPC   C4B58846  16.646   1.477   7.350
 7897POPC   NC358847   1.179  21.365   5.550
 7897POPC   PO458848   1.190  21.378   5.850
 7897POPC   GL158849   1.262  21.342   6.150
 7897POPC   GL258850   1.295  21.285   6.150
 7897POPC   C1A58851   1.172  21.427   6.450
 7897POPC   D2A58852   1.197  21.418   6.750
 7897POPC   C3A58853   1.190  21.429   7.050
 7897POPC   C4A58854   1.173  21.399   7.350
 7897POPC   C1B58855   1.369  21.195   6.450
 7897POPC   C2B58856   1.369  21.166   6.750
 7897POPC   C3B58857   1.371  21.212   7.050
 7897POPC   C4B58858   1.341  21.193   7.350
 7898POPC   NC358859  41.538  26.049   5.550
 7898POPC   PO458860  41.571  25.993   5.850
 7898POPC   GL158861  41.565  26.018   6.150
 7898POPC   GL258862  41.544  25.954   6.150
 7898POPC   C1A58863  41.585  26.042   6.450
 7898POPC   D2A58864  41.579  26.046   6.750
 7898POPC   C3A58865  41.607  26.045   7.050
 7898POPC   C4A58866  41.523  26.059   7.350
 7898POPC   C1B58867  41.459  25.854   6.450
 7898POPC   C2B58868  41.478  25.830   6.750
 7898POPC   C3B58869  41.419  25.830   7.050
 7898POPC   C4B58870  41.501  25.823   7.350
 7899POPC   NC358871  22.939  40.035   5.550
 7899POPC   PO458872  22.899  39.961   5.850
 7899POPC   GL158873  22.963  39.965   6.150
 7899POPC   GL258874  22.850  40.076   6.150
 7899POPC   C1A58875  22.916  40.045   6.450
 7899POPC   D2A58876  22.950  40.038   6.750
 7899POPC   C3A58877  22.964  40.013   7.050
 7899POPC   C4A58878  22.905  40.038   7.350
 7899POPC   C1B58879  22.820  40.238   6.450
 7899POPC   C2B58880  22.859  40.232   6.750
 7899POPC   C3B58881  22.855  40.243   7.050
 7899POPC   C4B58882  22.841  40.229   7.350
 7900POPC   NC358883  43.068  21.375   5.550
 7900POPC   PO458884  43.152  21.385   5.850
 7900POPC   GL158885  43.091  21.339   6.150
 7900POPC   GL258886  42.965  21.301   6.150
 7900POPC   C1A58887  43.157  21.393   6.450
 7900POPC   D2A58888  43.103  21.413   6.750
 7900POPC   C3A58889  43.061  21.410   7.050
 7900POPC   C4A58890  43.093  21.359   7.350
 7900POPC   C1B58891  42.912  21.279   6.450
 7900POPC   C2B58892  42.937  21.222   6.750
 7900POPC   C3B58893  42.914  21.305   7.050
 7900POPC   C4B58894  42.930  21.271   7.350
 7901POPC   NC358895  22.986  24.471   5.550
 7901POPC   PO458896  22.922  24.475   5.850
 7901POPC   GL158897  22.984  24.453   6.150
 7901POPC   GL258898  23.020  24.472   6.150
 7901POPC   C1A58899  22.984  24.480   6.450
 7901POPC   D2A58900  22.973  24.457   6.750
 7901POPC   C3A58901  22.897  24.497   7.050
 7901POPC   C4A58902  22.910  24.530   7.350
 7901POPC   C1B58903  23.150  24.469   6.450
 7901POPC   C2B58904  23.154  24.455   6.750
 7901POPC   C3B58905  23.165  24.470   7.050
 7901POPC   C4B58906  23.143  24.535   7.350
 7902POPC   NC358907  27.575  42.327   5.550
 7902POPC   PO458908  27.608  42.350   5.850
 7902POPC   GL158909  27.626  42.330   6.150
 7902POPC   GL258910  27.587  42.475   6.150
 7902POPC   C1A58911  27.570  42.338   6.450
 7902POPC   D2A58912  27.575  42.378   6.750
 7902POPC   C3A58913  27.637  42.356   7.050
 7902POPC   C4A58914  27.588  42.308   7.350
 7902POPC   C1B58915  27.502  42.606   6.450
 7902POPC   C2B58916  27.446  42.579   6.750
 7902POPC   C3B58917  27.514  42.545   7.050
 7902POPC   C4B58918  27.527  42.525   7.350
 7903POPC   NC358919   0.422   0.442   5.550
 7903POPC   PO458920   0.416   0.423   5.850
 7903POPC   GL158921   0.396   0.460   6.150
 7903POPC   GL258922   0.344   0.393   6.150
 7903POPC   C1A58923   0.449   0.406   6.450
 7903POPC   D2A58924   0.423   0.458   6.750
 7903POPC   C3A58925   0.435   0.449   7.050
 7903POPC   C4A58926   0.418   0.430   7.350
 7903POPC   C1B58927   0.192   0.354   6.450
 7903POPC   C2B58928   0.177   0.400   6.750
 7903POPC   C3B58929   0.188   0.390   7.050
 7903POPC   C4B58930   0.200   0.354   7.350
 7904POPC   NC358931  15.905  12.815   5.550
 7904POPC   PO458932  15.995  12.844   5.850
 7904POPC   GL158933  15.942  12.893   6.150
 7904POPC   GL258934  15.873  12.765   6.150
 7904POPC   C1A58935  15.995  12.897   6.450
 7904POPC   D2A58936  15.975  12.804   6.750
 7904POPC   C3A58937  15.908  12.898   7.050
 7904POPC   C4A58938  15.996  12.833   7.350
 7904POPC   C1B58939  15.902  12.609   6.450
 7904POPC   C2B58940  15.828  12.664   6.750
 7904POPC   C3B58941  15.880  12.669   7.050
 7904POPC   C4B58942  15.876  12.605   7.350
 7905POPC   NC358943  11.278   5.899   5.550
 7905POPC   PO458944  11.278   5.868   5.850
 7905POPC   GL158945  11.306   5.849   6.150
 7905POPC   GL258946  11.338   5.979   6.150
 7905POPC   C1A58947  11.259   5.860   6.450
 7905POPC   D2A58948  11.288   5.900   6.750
 7905POPC   C3A58949  11.321   5.871   7.050
 7905POPC   C4A58950  11.272   5.877   7.350
 7905POPC   C1B58951  11.310   6.110   6.450
 7905POPC   C2B58952  11.291   6.155   6.750
 7905POPC   C3B58953  11.308   6.156   7.050
 7905POPC   C4B58954  11.348   6.163   7.350
 7906POPC   NC358955  36.854  28.382   5.550
 7906POPC   PO458956  36.858  28.364   5.850
 7906POPC   GL158957  36.868  28.392   6.150
 7906POPC   GL258958  36.866  28.249   6.150
 7906POPC   C1A58959  36.865  28.321   6.450
 7906POPC   D2A58960  36.953  28.413   6.750
 7906POPC   C3A58961  36.862  28.362   7.050
 7906POPC   C4A58962  36.939  28.351   7.350
 7906POPC   C1B58963  36.748  28.200   6.450
 7906POPC   C2B58964  36.724  28.174   6.750
 7906POPC   C3B58965  36.750  28.129   7.050
 7906POPC   C4B58966  36.748  28.178   7.350
 7907POPC   NC358967  15.168  29.931   5.550
 7907POPC   PO458968  15.174  29.890   5.850
 7907POPC   GL158969  15.150  29.879   6.150
 7907POPC   GL258970  15.089  29.786   6.150
 7907POPC   C1A58971  15.190  29.915   6.450
 7907POPC   D2A58972  15.201  29.933   6.750
 7907POPC   C3A58973  15.214  29.879   7.050
 7907POPC   C4A58974  15.192  29.933   7.350
 7907POPC   C1B58975  15.057  29.779   6.450
 7907POPC   C2B58976  15.052  29.734   6.750
 7907POPC   C3B58977  15.000  29.685   7.050
 7907POPC   C4B58978  14.988  29.747   7.350
 7908POPC   NC358979  22.938  28.418   5.550
 7908POPC   PO458980  22.970  28.352   5.850
 7908POPC   GL158981  22.915  28.346   6.150
 7908POPC   GL258982  22.822  28.456   6.150
 7908POPC   C1A58983  22.911  28.325   6.450
 7908POPC   D2A58984  22.889  28.320   6.750
 7908POPC   C3A58985  22.929  28.403   7.050
 7908POPC   C4A58986  22.889  28.401   7.350
 7908POPC   C1B58987  22.801  28.540   6.450
 7908POPC   C2B58988  22.750  28.585   6.750
 7908POPC   C3B58989  22.832  28.612   7.050
 7908POPC   C4B58990  22.801  28.606   7.350
 7909POPC   NC358991  22.933   8.940   5.550
 7909POPC   PO458992  22.980   8.990   5.850
 7909POPC   GL158993  22.949   8.947   6.150
 7909POPC   GL258994  23.039   8.853   6.150
 7909POPC   C1A58995  22.936   8.996   6.450
 7909POPC   D2A58996  22.975   8.992   6.750
 7909POPC   C3A58997  22.964   8.974   7.050
 7909POPC   C4A58998  22.903   9.005   7.350
 7909POPC   C1B58999  23.020   8.751   6.450
 7909POPC   C2B59000  23.061   8.711   6.750
 7909POPC   C3B59001  23.026   8.766   7.050
 7909POPC   C4B59002  23.032   8.754   7.350
 7910POPC   NC359003   6.617  17.529   5.550
 7910POPC   PO459004   6.672  17.476   5.850
 7910POPC   GL159005   6.650  17.510   6.150
 7910POPC   GL259006   6.604  17.376   6.150
 7910POPC   C1A59007   6.596  17.480   6.450
 7910POPC   D2A59008   6.624  17.464   6.750
 7910POPC   C3A59009   6.691  17.493   7.050
 7910POPC   C4A59010   6.617  17.550   7.350
 7910POPC   C1B59011   6.629  17.310   6.450
 7910POPC   C2B59012   6.600  17.315   6.750
 7910POPC   C3B59013   6.568  17.274   7.050
 7910POPC   C4B59014   6.537  17.264   7.350
 7911POPC   NC359015  21.416  37.674   5.550
 7911POPC   PO459016  21.363  37.710   5.850
 7911POPC   GL159017  21.364  37.717   6.150
 7911POPC   GL259018  21.375  37.808   6.150
 7911POPC   C1A59019  21.409  37.709   6.450
 7911POPC   D2A59020  21.430  37.641   6.750
 7911POPC   C3A59021  21.424  37.659   7.050
 7911POPC   C4A59022  21.420  37.716   7.350
 7911POPC   C1B59023  21.347  37.939   6.450
 7911POPC   C2B59024  21.376  37.913   6.750
 7911POPC   C3B59025  21.315  37.879   7.050
 7911POPC   C4B59026  21.363  37.910   7.350
 7912POPC   NC359027  30.719  31.484   5.550
 7912POPC   PO459028  30.742  31.445   5.850
 7912POPC   GL159029  30.651  31.461   6.150
 7912POPC   GL259030  30.720  31.602   6.150
 7912POPC   C1A59031  30.717  31.512   6.450
 7912POPC   D2A59032  30.662  31.479   6.750
 7912POPC   C3A59033  30.678  31.503   7.050
 7912POPC   C4A59034  30.694  31.447   7.350
 7912POPC   C1B59035  30.748  31.758   6.450
 7912POPC   C2B59036  30.688  31.699   6.750
 7912POPC   C3B59037  30.742  31.719   7.050
 7912POPC   C4B59038  30.711  31.710   7.350
 7913POPC   NC359039  22.208  34.534   5.550
 7913POPC   PO459040  22.120  34.606   5.850
 7913POPC   GL159041  22.131  34.585   6.150
 7913POPC   GL259042  22.095  34.419   6.150
 7913POPC   C1A59043  22.211  34.623   6.450
 7913POPC   D2A59044  22.198  34.616   6.750
 7913POPC   C3A59045  22.209  34.577   7.050
 7913POPC   C4A59046  22.186  34.610   7.350
 7913POPC   C1B59047  22.073  34.321   6.450
 7913POPC   C2B59048  22.025  34.329   6.750
 7913POPC   C3B59049  22.026  34.390   7.050
 7913POPC   C4B59050  22.105  34.352   7.350
 7914POPC   NC359051  26.856  36.888   5.550
 7914POPC   PO459052  26.856  36.876   5.850
 7914POPC   GL159053  26.800  36.938   6.150
 7914POPC   GL259054  26.927  36.982   6.150
 7914POPC   C1A59055  26.862  36.898   6.450
 7914POPC   D2A59056  26.829  36.936   6.750
 7914POPC   C3A59057  26.828  36.869   7.050
 7914POPC   C4A59058  26.834  36.930   7.350
 7914POPC   C1B59059  27.006  37.117   6.450
 7914POPC   C2B59060  26.955  37.099   6.750
 7914POPC   C3B59061  26.959  37.109   7.050
 7914POPC   C4B59062  26.927  37.062   7.350
 7915POPC   NC359063  16.686  21.348   5.550
 7915POPC   PO459064  16.718  21.432   5.850
 7915POPC   GL159065  16.700  21.414   6.150
 7915POPC   GL259066  16.617  21.236   6.150
 7915POPC   C1A59067  16.682  21.433   6.450
 7915POPC   D2A59068  16.771  21.398   6.750
 7915POPC   C3A59069  16.721  21.366   7.050
 7915POPC   C4A59070  16.705  21.365   7.350
 7915POPC   C1B59071  16.598  21.190   6.450
 7915POPC   C2B59072  16.612  21.160   6.750
 7915POPC   C3B59073  16.559  21.230   7.050
 7915POPC   C4B59074  16.621  21.214   7.350
 7916POPC   NC359075   0.404  40.045   5.550
 7916POPC   PO459076   0.399  40.020   5.850
 7916POPC   GL159077   0.471  39.992   6.150
 7916POPC   GL259078   0.330  39.917   6.150
 7916POPC   C1A59079   0.438  40.026   6.450
 7916POPC   D2A59080   0.407  39.971   6.750
 7916POPC   C3A59081   0.487  40.045   7.050
 7916POPC   C4A59082   0.462  40.004   7.350
 7916POPC   C1B59083   0.308  39.832   6.450
 7916POPC   C2B59084   0.324  39.818   6.750
 7916POPC   C3B59085   0.360  39.799   7.050
 7916POPC   C4B59086   0.322  39.815   7.350
 7917POPC   NC359087  21.363  19.834   5.550
 7917POPC   PO459088  21.416  19.815   5.850
 7917POPC   GL159089  21.394  19.815   6.150
 7917POPC   GL259090  21.319  19.821   6.150
 7917POPC   C1A59091  21.430  19.876   6.450
 7917POPC   D2A59092  21.346  19.838   6.750
 7917POPC   C3A59093  21.358  19.843   7.050
 7917POPC   C4A59094  21.420  19.811   7.350
 7917POPC   C1B59095  21.135  19.721   6.450
 7917POPC   C2B59096  21.106  19.728   6.750
 7917POPC   C3B59097  21.194  19.766   7.050
 7917POPC   C4B59098  21.118  19.719   7.350
 7918POPC   NC359099  42.342   5.086   5.550
 7918POPC   PO459100  42.351   5.059   5.850
 7918POPC   GL159101  42.300   5.065   6.150
 7918POPC   GL259102  42.337   5.180   6.150
 7918POPC   C1A59103  42.325   5.088   6.450
 7918POPC   D2A59104  42.350   5.062   6.750
 7918POPC   C3A59105  42.336   5.065   7.050
 7918POPC   C4A59106  42.305   5.071   7.350
 7918POPC   C1B59107  42.330   5.313   6.450
 7918POPC   C2B59108  42.335   5.323   6.750
 7918POPC   C3B59109  42.355   5.363   7.050
 7918POPC   C4B59110  42.331   5.353   7.350
 7919POPC   NC359111  32.219  14.357   5.550
 7919POPC   PO459112  32.291  14.404   5.850
 7919POPC   GL159113  32.226  14.380   6.150
 7919POPC   GL259114  32.123  14.340   6.150
 7919POPC   C1A59115  32.253  14.396   6.450
 7919POPC   D2A59116  32.211  14.424   6.750
 7919POPC   C3A59117  32.245  14.435   7.050
 7919POPC   C4A59118  32.202  14.450   7.350
 7919POPC   C1B59119  31.991  14.316   6.450
 7919POPC   C2B59120  32.079  14.291   6.750
 7919POPC   C3B59121  31.994  14.326   7.050
 7919POPC   C4B59122  32.001  14.281   7.350
 7920POPC   NC359123  26.019  12.870   5.550
 7920POPC   PO459124  26.072  12.863   5.850
 7920POPC   GL159125  26.023  12.850   6.150
 7920POPC   GL259126  26.106  12.915   6.150
 7920POPC   C1A59127  26.063  12.821   6.450
 7920POPC   D2A59128  26.000  12.899   6.750
 7920POPC   C3A59129  26.089  12.856   7.050
 7920POPC   C4A59130  26.045  12.886   7.350
 7920POPC   C1B59131  26.198  13.048   6.450
 7920POPC   C2B59132  26.164  13.062   6.750
 7920POPC   C3B59133  26.169  13.082   7.050
 7920POPC   C4B59134  26.158  13.083   7.350
 7921POPC   NC359135  41.551  14.403   5.550
 7921POPC   PO459136  41.540  14.437   5.850
 7921POPC   GL159137  41.513  14.396   6.150
 7921POPC   GL259138  41.469  14.353   6.150
 7921POPC   C1A59139  41.562  14.452   6.450
 7921POPC   D2A59140  41.605  14.444   6.750
 7921POPC   C3A59141  41.543  14.397   7.050
 7921POPC   C4A59142  41.566  14.363   7.350
 7921POPC   C1B59143  41.321  14.402   6.450
 7921POPC   C2B59144  41.295  14.337   6.750
 7921POPC   C3B59145  41.294  14.387   7.050
 7921POPC   C4B59146  41.353  14.353   7.350
 7922POPC   NC359147   6.600  21.377   5.550
 7922POPC   PO459148   6.609  21.386   5.850
 7922POPC   GL159149   6.658  21.415   6.150
 7922POPC   GL259150   6.763  21.260   6.150
 7922POPC   C1A59151   6.676  21.388   6.450
 7922POPC   D2A59152   6.617  21.401   6.750
 7922POPC   C3A59153   6.597  21.428   7.050
 7922POPC   C4A59154   6.666  21.337   7.350
 7922POPC   C1B59155   6.824  21.175   6.450
 7922POPC   C2B59156   6.808  21.217   6.750
 7922POPC   C3B59157   6.814  21.234   7.050
 7922POPC   C4B59158   6.828  21.158   7.350
 7923POPC   NC359159  41.603   8.972   5.550
 7923POPC   PO459160  41.534   9.014   5.850
 7923POPC   GL159161  41.564   8.971   6.150
 7923POPC   GL259162  41.659   8.874   6.150
 7923POPC   C1A59163  41.540   8.988   6.450
 7923POPC   D2A59164  41.596   8.967   6.750
 7923POPC   C3A59165  41.593   8.980   7.050
 7923POPC   C4A59166  41.566   9.000   7.350
 7923POPC   C1B59167  41.734   8.780   6.450
 7923POPC   C2B59168  41.716   8.768   6.750
 7923POPC   C3B59169  41.719   8.769   7.050
 7923POPC   C4B59170  41.666   8.818   7.350
 7924POPC   NC359171  21.387  23.748   5.550
 7924POPC   PO459172  21.388  23.740   5.850
 7924POPC   GL159173  21.435  23.706   6.150
 7924POPC   GL259174  21.295  23.717   6.150
 7924POPC   C1A59175  21.341  23.756   6.450
 7924POPC   D2A59176  21.417  23.687   6.750
 7924POPC   C3A59177  21.425  23.692   7.050
 7924POPC   C4A59178  21.360  23.679   7.350
 7924POPC   C1B59179  21.162  23.666   6.450
 7924POPC   C2B59180  21.159  23.655   6.750
 7924POPC   C3B59181  21.192  23.633   7.050
 7924POPC   C4B59182  21.122  23.684   7.350
 7925POPC   NC359183   2.779   2.017   5.550
 7925POPC   PO459184   2.799   2.035   5.850
 7925POPC   GL159185   2.801   1.955   6.150
 7925POPC   GL259186   2.687   2.142   6.150
 7925POPC   C1A59187   2.779   1.942   6.450
 7925POPC   D2A59188   2.726   1.961   6.750
 7925POPC   C3A59189   2.784   1.992   7.050
 7925POPC   C4A59190   2.765   1.963   7.350
 7925POPC   C1B59191   2.731   2.258   6.450
 7925POPC   C2B59192   2.660   2.238   6.750
 7925POPC   C3B59193   2.667   2.202   7.050
 7925POPC   C4B59194   2.723   2.215   7.350
 7926POPC   NC359195  39.238  18.288   5.550
 7926POPC   PO459196  39.233  18.246   5.850
 7926POPC   GL159197  39.230  18.238   6.150
 7926POPC   GL259198  39.189  18.220   6.150
 7926POPC   C1A59199  39.249  18.313   6.450
 7926POPC   D2A59200  39.244  18.275   6.750
 7926POPC   C3A59201  39.232  18.250   7.050
 7926POPC   C4A59202  39.243  18.312   7.350
 7926POPC   C1B59203  39.004  18.156   6.450
 7926POPC   C2B59204  39.023  18.122   6.750
 7926POPC   C3B59205  39.088  18.143   7.050
 7926POPC   C4B59206  39.001  18.115   7.350
 7927POPC   NC359207  38.447   1.230   5.550
 7927POPC   PO459208  38.435   1.183   5.850
 7927POPC   GL159209  38.449   1.209   6.150
 7927POPC   GL259210  38.395   1.305   6.150
 7927POPC   C1A59211  38.442   1.250   6.450
 7927POPC   D2A59212  38.447   1.196   6.750
 7927POPC   C3A59213  38.418   1.182   7.050
 7927POPC   C4A59214  38.487   1.199   7.350
 7927POPC   C1B59215  38.287   1.332   6.450
 7927POPC   C2B59216  38.265   1.332   6.750
 7927POPC   C3B59217  38.310   1.420   7.050
 7927POPC   C4B59218  38.250   1.405   7.350
 7928POPC   NC359219  44.671  40.774   5.550
 7928POPC   PO459220  44.705  40.776   5.850
 7928POPC   GL159221  44.677  40.762   6.150
 7928POPC   GL259222  44.724  40.877   6.150
 7928POPC   C1A59223  44.685  40.805   6.450
 7928POPC   D2A59224  44.692  40.750   6.750
 7928POPC   C3A59225  44.681  40.777   7.050
 7928POPC   C4A59226  44.687  40.738   7.350
 7928POPC   C1B59227  44.865  40.950   6.450
 7928POPC   C2B59228  44.786  40.984   6.750
 7928POPC   C3B59229  44.855  40.998   7.050
 7928POPC   C4B59230  44.798  40.942   7.350
 7929POPC   NC359231  36.084  44.683   5.550
 7929POPC   PO459232  36.101  44.656   5.850
 7929POPC   GL159233  36.130  44.635   6.150
 7929POPC   GL259234  36.229  44.752   6.150
 7929POPC   C1A59235  36.155  44.664   6.450
 7929POPC   D2A59236  36.104  44.620   6.750
 7929POPC   C3A59237  36.139  44.654   7.050
 7929POPC   C4A59238  36.133  44.626   7.350
 7929POPC   C1B59239  36.374  44.755   6.450
 7929POPC   C2B59240  36.390  44.830   6.750
 7929POPC   C3B59241  36.359  44.809   7.050
 7929POPC   C4B59242  36.320  44.787   7.350
 7930POPC   NC359243   1.973   5.878   5.550
 7930POPC   PO459244   2.004   5.905   5.850
 7930POPC   GL159245   1.990   5.889   6.150
 7930POPC   GL259246   1.892   5.759   6.150
 7930POPC   C1A59247   1.956   5.900   6.450
 7930POPC   D2A59248   1.947   5.833   6.750
 7930POPC   C3A59249   1.997   5.839   7.050
 7930POPC   C4A59250   1.957   5.865   7.350
 7930POPC   C1B59251   1.775   5.698   6.450
 7930POPC   C2B59252   1.742   5.758   6.750
 7930POPC   C3B59253   1.784   5.717   7.050
 7930POPC   C4B59254   1.753   5.700   7.350
 7931POPC   NC359255   5.066  33.801   5.550
 7931POPC   PO459256   5.124  33.782   5.850
 7931POPC   GL159257   5.109  33.809   6.150
 7931POPC   GL259258   5.214  33.810   6.150
 7931POPC   C1A59259   5.094  33.814   6.450
 7931POPC   D2A59260   5.060  33.787   6.750
 7931POPC   C3A59261   5.073  33.768   7.050
 7931POPC   C4A59262   5.130  33.813   7.350
 7931POPC   C1B59263   5.314  33.815   6.450
 7931POPC   C2B59264   5.313  33.861   6.750
 7931POPC   C3B59265   5.312  33.833   7.050
 7931POPC   C4B59266   5.348  33.839   7.350
 7932POPC   NC359267   9.767  12.872   5.550
 7932POPC   PO459268   9.740  12.900   5.850
 7932POPC   GL159269   9.762  12.811   6.150
 7932POPC   GL259270   9.625  12.875   6.150
 7932POPC   C1A59271   9.708  12.858   6.450
 7932POPC   D2A59272   9.782  12.807   6.750
 7932POPC   C3A59273   9.769  12.829   7.050
 7932POPC   C4A59274   9.748  12.807   7.350
 7932POPC   C1B59275   9.456  12.759   6.450
 7932POPC   C2B59276   9.466  12.820   6.750
 7932POPC   C3B59277   9.492  12.774   7.050
 7932POPC   C4B59278   9.543  12.789   7.350
 7933POPC   NC359279  36.154  24.498   5.550
 7933POPC   PO459280  36.082  24.478   5.850
 7933POPC   GL159281  36.117  24.468   6.150
 7933POPC   GL259282  36.021  24.560   6.150
 7933POPC   C1A59283  36.151  24.446   6.450
 7933POPC   D2A59284  36.087  24.490   6.750
 7933POPC   C3A59285  36.099  24.486   7.050
 7933POPC   C4A59286  36.160  24.515   7.350
 7933POPC   C1B59287  35.908  24.547   6.450
 7933POPC   C2B59288  35.841  24.525   6.750
 7933POPC   C3B59289  35.868  24.583   7.050
 7933POPC   C4B59290  35.919  24.543   7.350
 7934POPC   NC359291   4.367  10.504   5.550
 7934POPC   PO459292   4.273  10.486   5.850
 7934POPC   GL159293   4.335  10.504   6.150
 7934POPC   GL259294   4.196  10.623   6.150
 7934POPC   C1A59295   4.338  10.544   6.450
 7934POPC   D2A59296   4.335  10.531   6.750
 7934POPC   C3A59297   4.336  10.574   7.050
 7934POPC   C4A59298   4.280  10.507   7.350
 7934POPC   C1B59299   4.106  10.636   6.450
 7934POPC   C2B59300   4.085  10.665   6.750
 7934POPC   C3B59301   4.104  10.643   7.050
 7934POPC   C4B59302   4.095  10.671   7.350
 7935POPC   NC359303  11.297  43.159   5.550
 7935POPC   PO459304  11.326  43.065   5.850
 7935POPC   GL159305  11.331  43.135   6.150
 7935POPC   GL259306  11.206  43.273   6.150
 7935POPC   C1A59307  11.277  43.113   6.450
 7935POPC   D2A59308  11.289  43.073   6.750
 7935POPC   C3A59309  11.347  43.154   7.050
 7935POPC   C4A59310  11.293  43.128   7.350
 7935POPC   C1B59311  11.236  43.322   6.450
 7935POPC   C2B59312  11.182  43.374   6.750
 7935POPC   C3B59313  11.180  43.347   7.050
 7935POPC   C4B59314  11.150  43.305   7.350
 7936POPC   NC359315  30.647  21.360   5.550
 7936POPC   PO459316  30.662  21.348   5.850
 7936POPC   GL159317  30.724  21.363   6.150
 7936POPC   GL259318  30.579  21.378   6.150
 7936POPC   C1A59319  30.683  21.354   6.450
 7936POPC   D2A59320  30.734  21.404   6.750
 7936POPC   C3A59321  30.709  21.376   7.050
 7936POPC   C4A59322  30.680  21.385   7.350
 7936POPC   C1B59323  30.492  21.440   6.450
 7936POPC   C2B59324  30.413  21.489   6.750
 7936POPC   C3B59325  30.457  21.406   7.050
 7936POPC   C4B59326  30.424  21.486   7.350
 7937POPC   NC359327  12.064  27.586   5.550
 7937POPC   PO459328  12.123  27.598   5.850
 7937POPC   GL159329  12.083  27.634   6.150
 7937POPC   GL259330  12.143  27.498   6.150
 7937POPC   C1A59331  12.117  27.601   6.450
 7937POPC   D2A59332  12.069  27.554   6.750
 7937POPC   C3A59333  12.032  27.633   7.050
 7937POPC   C4A59334  12.097  27.576   7.350
 7937POPC   C1B59335  12.242  27.407   6.450
 7937POPC   C2B59336  12.202  27.383   6.750
 7937POPC   C3B59337  12.273  27.364   7.050
 7937POPC   C4B59338  12.236  27.400   7.350
 7938POPC   NC359339  25.997  22.162   5.550
 7938POPC   PO459340  26.041  22.172   5.850
 7938POPC   GL159341  26.066  22.114   6.150
 7938POPC   GL259342  26.110  22.061   6.150
 7938POPC   C1A59343  26.064  22.121   6.450
 7938POPC   D2A59344  26.016  22.196   6.750
 7938POPC   C3A59345  26.007  22.205   7.050
 7938POPC   C4A59346  26.011  22.154   7.350
 7938POPC   C1B59347  26.147  21.967   6.450
 7938POPC   C2B59348  26.106  21.889   6.750
 7938POPC   C3B59349  26.112  21.914   7.050
 7938POPC   C4B59350  26.145  21.939   7.350
 7939POPC   NC359351  26.031  44.689   5.550
 7939POPC   PO459352  26.056  44.633   5.850
 7939POPC   GL159353  26.016  44.624   6.150
 7939POPC   GL259354  25.984  44.559   6.150
 7939POPC   C1A59355  26.036  44.688   6.450
 7939POPC   D2A59356  26.020  44.634   6.750
 7939POPC   C3A59357  26.017  44.681   7.050
 7939POPC   C4A59358  25.993  44.644   7.350
 7939POPC   C1B59359  25.878  44.529   6.450
 7939POPC   C2B59360  25.815  44.503   6.750
 7939POPC   C3B59361  25.795  44.512   7.050
 7939POPC   C4B59362  25.840  44.533   7.350
 7940POPC   NC359363  19.804  34.531   5.550
 7940POPC   PO459364  19.870  34.579   5.850
 7940POPC   GL159365  19.823  34.593   6.150
 7940POPC   GL259366  19.913  34.637   6.150
 7940POPC   C1A59367  19.810  34.537   6.450
 7940POPC   D2A59368  19.801  34.532   6.750
 7940POPC   C3A59369  19.802  34.588   7.050
 7940POPC   C4A59370  19.835  34.542   7.350
 7940POPC   C1B59371  20.019  34.757   6.450
 7940POPC   C2B59372  19.990  34.720   6.750
 7940POPC   C3B59373  20.040  34.770   7.050
 7940POPC   C4B59374  19.987  34.795   7.350
 7941POPC   NC359375   6.667  16.724   5.550
 7941POPC   PO459376   6.612  16.701   5.850
 7941POPC   GL159377   6.605  16.760   6.150
 7941POPC   GL259378   6.560  16.792   6.150
 7941POPC   C1A59379   6.617  16.737   6.450
 7941POPC   D2A59380   6.632  16.751   6.750
 7941POPC   C3A59381   6.653  16.744   7.050
 7941POPC   C4A59382   6.610  16.700   7.350
 7941POPC   C1B59383   6.483  16.842   6.450
 7941POPC   C2B59384   6.427  16.843   6.750
 7941POPC   C3B59385   6.441  16.896   7.050
 7941POPC   C4B59386   6.453  16.892   7.350
 7942POPC   NC359387  26.051  31.474   5.550
 7942POPC   PO459388  26.050  31.507   5.850
 7942POPC   GL159389  26.067  31.430   6.150
 7942POPC   GL259390  25.988  31.600   6.150
 7942POPC   C1A59391  26.050  31.463   6.450
 7942POPC   D2A59392  26.062  31.507   6.750
 7942POPC   C3A59393  26.041  31.424   7.050
 7942POPC   C4A59394  26.008  31.475   7.350
 7942POPC   C1B59395  25.856  31.721   6.450
 7942POPC   C2B59396  25.842  31.651   6.750
 7942POPC   C3B59397  25.895  31.692   7.050
 7942POPC   C4B59398  25.898  31.649   7.350
 7943POPC   NC359399  32.213  21.431   5.550
 7943POPC   PO459400  32.285  21.345   5.850
 7943POPC   GL159401  32.242  21.360   6.150
 7943POPC   GL259402  32.230  21.298   6.150
 7943POPC   C1A59403  32.233  21.422   6.450
 7943POPC   D2A59404  32.262  21.436   6.750
 7943POPC   C3A59405  32.235  21.367   7.050
 7943POPC   C4A59406  32.253  21.374   7.350
 7943POPC   C1B59407  32.244  21.150   6.450
 7943POPC   C2B59408  32.225  21.183   6.750
 7943POPC   C3B59409  32.242  21.095   7.050
 7943POPC   C4B59410  32.221  21.156   7.350
 7944POPC   NC359411  33.046   7.430   5.550
 7944POPC   PO459412  32.995   7.469   5.850
 7944POPC   GL159413  33.066   7.408   6.150
 7944POPC   GL259414  32.980   7.533   6.150
 7944POPC   C1A59415  32.979   7.403   6.450
 7944POPC   D2A59416  33.073   7.430   6.750
 7944POPC   C3A59417  33.064   7.378   7.050
 7944POPC   C4A59418  33.068   7.373   7.350
 7944POPC   C1B59419  32.983   7.674   6.450
 7944POPC   C2B59420  33.002   7.701   6.750
 7944POPC   C3B59421  32.938   7.651   7.050
 7944POPC   C4B59422  33.018   7.616   7.350
 7945POPC   NC359423  20.634   9.726   5.550
 7945POPC   PO459424  20.632   9.717   5.850
 7945POPC   GL159425  20.590   9.750   6.150
 7945POPC   GL259426  20.521   9.646   6.150
 7945POPC   C1A59427  20.641   9.751   6.450
 7945POPC   D2A59428  20.568   9.699   6.750
 7945POPC   C3A59429  20.623   9.784   7.050
 7945POPC   C4A59430  20.596   9.710   7.350
 7945POPC   C1B59431  20.448   9.578   6.450
 7945POPC   C2B59432  20.358   9.619   6.750
 7945POPC   C3B59433  20.379   9.644   7.050
 7945POPC   C4B59434  20.371   9.612   7.350
 7946POPC   NC359435  16.700  34.585   5.550
 7946POPC   PO459436  16.760  34.544   5.850
 7946POPC   GL159437  16.753  34.566   6.150
 7946POPC   GL259438  16.832  34.697   6.150
 7946POPC   C1A59439  16.704  34.619   6.450
 7946POPC   D2A59440  16.764  34.598   6.750
 7946POPC   C3A59441  16.758  34.624   7.050
 7946POPC   C4A59442  16.761  34.561   7.350
 7946POPC   C1B59443  16.914  34.713   6.450
 7946POPC   C2B59444  16.926  34.738   6.750
 7946POPC   C3B59445  16.885  34.734   7.050
 7946POPC   C4B59446  16.944  34.717   7.350
 7947POPC   NC359447  11.339  15.140   5.550
 7947POPC   PO459448  11.259  15.131   5.850
 7947POPC   GL159449  11.288  15.215   6.150
 7947POPC   GL259450  11.248  15.064   6.150
 7947POPC   C1A59451  11.329  15.224   6.450
 7947POPC   D2A59452  11.315  15.143   6.750
 7947POPC   C3A59453  11.266  15.159   7.050
 7947POPC   C4A59454  11.259  15.221   7.350
 7947POPC   C1B59455  11.137  14.943   6.450
 7947POPC   C2B59456  11.189  14.963   6.750
 7947POPC   C3B59457  11.176  14.966   7.050
 7947POPC   C4B59458  11.143  14.962   7.350
 7948POPC   NC359459  44.633  33.816   5.550
 7948POPC   PO459460  44.663  33.835   5.850
 7948POPC   GL159461  44.693  33.798   6.150
 7948POPC   GL259462  44.725  33.954   6.150
 7948POPC   C1A59463  44.665  33.840   6.450
 7948POPC   D2A59464  44.687  33.751   6.750
 7948POPC   C3A59465  44.678  33.830   7.050
 7948POPC   C4A59466  44.624  33.841   7.350
 7948POPC   C1B59467  44.777  33.988   6.450
 7948POPC   C2B59468  44.737  34.065   6.750
 7948POPC   C3B59469  44.768  33.980   7.050
 7948POPC   C4B59470  44.783  34.079   7.350
 7949POPC   NC359471  22.129  23.743   5.550
 7949POPC   PO459472  22.167  23.762   5.850
 7949POPC   GL159473  22.125  23.712   6.150
 7949POPC   GL259474  22.003  23.673   6.150
 7949POPC   C1A59475  22.158  23.754   6.450
 7949POPC   D2A59476  22.168  23.693   6.750
 7949POPC   C3A59477  22.116  23.703   7.050
 7949POPC   C4A59478  22.155  23.709   7.350
 7949POPC   C1B59479  21.884  23.673   6.450
 7949POPC   C2B59480  21.962  23.627   6.750
 7949POPC   C3B59481  21.924  23.665   7.050
 7949POPC   C4B59482  21.947  23.702   7.350
 7950POPC   NC359483  12.120   6.667   5.550
 7950POPC   PO459484  12.058   6.634   5.850
 7950POPC   GL159485  12.085   6.635   6.150
 7950POPC   GL259486  12.244   6.681   6.150
 7950POPC   C1A59487  12.038   6.603   6.450
 7950POPC   D2A59488  12.098   6.628   6.750
 7950POPC   C3A59489  12.043   6.603   7.050
 7950POPC   C4A59490  12.073   6.633   7.350
 7950POPC   C1B59491  12.371   6.660   6.450
 7950POPC   C2B59492  12.364   6.652   6.750
 7950POPC   C3B59493  12.330   6.646   7.050
 7950POPC   C4B59494  12.293   6.718   7.350
 7951POPC   NC359495  19.788  27.640   5.550
 7951POPC   PO459496  19.859  27.607   5.850
 7951POPC   GL159497  19.789  27.571   6.150
 7951POPC   GL259498  19.755  27.559   6.150
 7951POPC   C1A59499  19.835  27.627   6.450
 7951POPC   D2A59500  19.832  27.568   6.750
 7951POPC   C3A59501  19.841  27.606   7.050
 7951POPC   C4A59502  19.883  27.597   7.350
 7951POPC   C1B59503  19.557  27.500   6.450
 7951POPC   C2B59504  19.595  27.528   6.750
 7951POPC   C3B59505  19.568  27.547   7.050
 7951POPC   C4B59506  19.557  27.570   7.350
 7952POPC   NC359507  36.140  27.619   5.550
 7952POPC   PO459508  36.111  27.607   5.850
 7952POPC   GL159509  36.086  27.571   6.150
 7952POPC   GL259510  36.057  27.717   6.150
 7952POPC   C1A59511  36.119  27.622   6.450
 7952POPC   D2A59512  36.094  27.561   6.750
 7952POPC   C3A59513  36.150  27.568   7.050
 7952POPC   C4A59514  36.107  27.601   7.350
 7952POPC   C1B59515  36.041  27.820   6.450
 7952POPC   C2B59516  35.948  27.780   6.750
 7952POPC   C3B59517  36.016  27.789   7.050
 7952POPC   C4B59518  35.983  27.811   7.350
 7953POPC   NC359519  14.400  34.553   5.550
 7953POPC   PO459520  14.411  34.610   5.850
 7953POPC   GL159521  14.367  34.544   6.150
 7953POPC   GL259522  14.571  34.521   6.150
 7953POPC   C1A59523  14.377  34.605   6.450
 7953POPC   D2A59524  14.424  34.551   6.750
 7953POPC   C3A59525  14.407  34.579   7.050
 7953POPC   C4A59526  14.376  34.547   7.350
 7953POPC   C1B59527  14.603  34.489   6.450
 7953POPC   C2B59528  14.613  34.517   6.750
 7953POPC   C3B59529  14.612  34.582   7.050
 7953POPC   C4B59530  14.622  34.531   7.350
 7954POPC   NC359531  22.897  22.151   5.550
 7954POPC   PO459532  22.908  22.131   5.850
 7954POPC   GL159533  22.955  22.132   6.150
 7954POPC   GL259534  22.952  22.285   6.150
 7954POPC   C1A59535  22.959  22.188   6.450
 7954POPC   D2A59536  22.968  22.151   6.750
 7954POPC   C3A59537  22.916  22.122   7.050
 7954POPC   C4A59538  22.894  22.157   7.350
 7954POPC   C1B59539  22.985  22.388   6.450
 7954POPC   C2B59540  22.891  22.403   6.750
 7954POPC   C3B59541  22.905  22.458   7.050
 7954POPC   C4B59542  22.922  22.404   7.350
 7955POPC   NC359543  19.021  22.147   5.550
 7955POPC   PO459544  19.095  22.172   5.850
 7955POPC   GL159545  19.077  22.118   6.150
 7955POPC   GL259546  19.146  22.227   6.150
 7955POPC   C1A59547  19.043  22.153   6.450
 7955POPC   D2A59548  19.021  22.173   6.750
 7955POPC   C3A59549  19.074  22.113   7.050
 7955POPC   C4A59550  19.033  22.210   7.350
 7955POPC   C1B59551  19.299  22.325   6.450
 7955POPC   C2B59552  19.220  22.318   6.750
 7955POPC   C3B59553  19.308  22.278   7.050
 7955POPC   C4B59554  19.315  22.313   7.350
 7956POPC   NC359555  29.921  19.098   5.550
 7956POPC   PO459556  29.933  19.077   5.850
 7956POPC   GL159557  29.945  19.038   6.150
 7956POPC   GL259558  30.036  19.070   6.150
 7956POPC   C1A59559  29.946  19.028   6.450
 7956POPC   D2A59560  29.875  19.025   6.750
 7956POPC   C3A59561  29.914  19.030   7.050
 7956POPC   C4A59562  29.960  19.086   7.350
 7956POPC   C1B59563  30.202  19.123   6.450
 7956POPC   C2B59564  30.204  19.159   6.750
 7956POPC   C3B59565  30.168  19.105   7.050
 7956POPC   C4B59566  30.212  19.072   7.350
 7957POPC   NC359567  37.690   5.836   5.550
 7957POPC   PO459568  37.676   5.880   5.850
 7957POPC   GL159569  37.690   5.842   6.150
 7957POPC   GL259570  37.578   5.912   6.150
 7957POPC   C1A59571  37.708   5.887   6.450
 7957POPC   D2A59572  37.663   5.863   6.750
 7957POPC   C3A59573  37.676   5.893   7.050
 7957POPC   C4A59574  37.725   5.895   7.350
 7957POPC   C1B59575  37.510   6.059   6.450
 7957POPC   C2B59576  37.562   6.039   6.750
 7957POPC   C3B59577  37.476   6.102   7.050
 7957POPC   C4B59578  37.563   6.083   7.350
 7958POPC   NC359579  12.122  42.313   5.550
 7958POPC   PO459580  12.061  42.347   5.850
 7958POPC   GL159581  12.048  42.310   6.150
 7958POPC   GL259582  12.061  42.412   6.150
 7958POPC   C1A59583  12.125  42.339   6.450
 7958POPC   D2A59584  12.099  42.363   6.750
 7958POPC   C3A59585  12.071  42.290   7.050
 7958POPC   C4A59586  12.104  42.375   7.350
 7958POPC   C1B59587  11.986  42.519   6.450
 7958POPC   C2B59588  11.977  42.529   6.750
 7958POPC   C3B59589  11.971  42.578   7.050
 7958POPC   C4B59590  11.949  42.518   7.350
 7959POPC   NC359591  27.629  18.328   5.550
 7959POPC   PO459592  27.578  18.297   5.850
 7959POPC   GL159593  27.558  18.332   6.150
 7959POPC   GL259594  27.443  18.298   6.150
 7959POPC   C1A59595  27.606  18.309   6.450
 7959POPC   D2A59596  27.553  18.278   6.750
 7959POPC   C3A59597  27.589  18.272   7.050
 7959POPC   C4A59598  27.623  18.243   7.350
 7959POPC   C1B59599  27.316  18.275   6.450
 7959POPC   C2B59600  27.361  18.317   6.750
 7959POPC   C3B59601  27.369  18.304   7.050
 7959POPC   C4B59602  27.338  18.290   7.350
 7960POPC   NC359603  10.494  36.156   5.550
 7960POPC   PO459604  10.480  36.134   5.850
 7960POPC   GL159605  10.495  36.107   6.150
 7960POPC   GL259606  10.601  36.003   6.150
 7960POPC   C1A59607  10.529  36.108   6.450
 7960POPC   D2A59608  10.516  36.157   6.750
 7960POPC   C3A59609  10.510  36.142   7.050
 7960POPC   C4A59610  10.517  36.139   7.350
 7960POPC   C1B59611  10.622  35.954   6.450
 7960POPC   C2B59612  10.633  35.916   6.750
 7960POPC   C3B59613  10.644  35.951   7.050
 7960POPC   C4B59614  10.660  35.868   7.350
 7961POPC   NC359615  29.132  39.241   5.550
 7961POPC   PO459616  29.170  39.202   5.850
 7961POPC   GL159617  29.132  39.248   6.150
 7961POPC   GL259618  29.055  39.077   6.150
 7961POPC   C1A59619  29.139  39.259   6.450
 7961POPC   D2A59620  29.167  39.255   6.750
 7961POPC   C3A59621  29.180  39.210   7.050
 7961POPC   C4A59622  29.137  39.280   7.350
 7961POPC   C1B59623  29.022  39.047   6.450
 7961POPC   C2B59624  28.999  39.004   6.750
 7961POPC   C3B59625  29.040  39.051   7.050
 7961POPC   C4B59626  29.046  38.975   7.350
 7962POPC   NC359627  30.686  11.293   5.550
 7962POPC   PO459628  30.678  11.278   5.850
 7962POPC   GL159629  30.655  11.263   6.150
 7962POPC   GL259630  30.723  11.171   6.150
 7962POPC   C1A59631  30.731  11.334   6.450
 7962POPC   D2A59632  30.659  11.270   6.750
 7962POPC   C3A59633  30.728  11.344   7.050
 7962POPC   C4A59634  30.679  11.342   7.350
 7962POPC   C1B59635  30.709  11.068   6.450
 7962POPC   C2B59636  30.690  11.051   6.750
 7962POPC   C3B59637  30.666  11.047   7.050
 7962POPC   C4B59638  30.697  11.002   7.350
 7963POPC   NC359639  29.897  17.504   5.550
 7963POPC   PO459640  29.902  17.515   5.850
 7963POPC   GL159641  29.970  17.556   6.150
 7963POPC   GL259642  29.993  17.577   6.150
 7963POPC   C1A59643  29.885  17.503   6.450
 7963POPC   D2A59644  29.895  17.474   6.750
 7963POPC   C3A59645  29.871  17.474   7.050
 7963POPC   C4A59646  29.903  17.525   7.350
 7963POPC   C1B59647  30.033  17.751   6.450
 7963POPC   C2B59648  29.985  17.710   6.750
 7963POPC   C3B59649  29.987  17.755   7.050
 7963POPC   C4B59650  29.986  17.747   7.350
 7964POPC   NC359651  31.515  11.302   5.550
 7964POPC   PO459652  31.522  11.279   5.850
 7964POPC   GL159653  31.486  11.310   6.150
 7964POPC   GL259654  31.323  11.369   6.150
 7964POPC   C1A59655  31.470  11.323   6.450
 7964POPC   D2A59656  31.477  11.259   6.750
 7964POPC   C3A59657  31.434  11.296   7.050
 7964POPC   C4A59658  31.452  11.319   7.350
 7964POPC   C1B59659  31.264  11.342   6.450
 7964POPC   C2B59660  31.209  11.385   6.750
 7964POPC   C3B59661  31.261  11.356   7.050
 7964POPC   C4B59662  31.257  11.424   7.350
 7965POPC   NC359663  26.007  20.636   5.550
 7965POPC   PO459664  25.993  20.571   5.850
 7965POPC   GL159665  26.048  20.646   6.150
 7965POPC   GL259666  26.056  20.458   6.150
 7965POPC   C1A59667  26.026  20.573   6.450
 7965POPC   D2A59668  26.002  20.621   6.750
 7965POPC   C3A59669  26.046  20.640   7.050
 7965POPC   C4A59670  26.016  20.623   7.350
 7965POPC   C1B59671  26.072  20.394   6.450
 7965POPC   C2B59672  26.002  20.346   6.750
 7965POPC   C3B59673  26.059  20.356   7.050
 7965POPC   C4B59674  26.004  20.356   7.350
 7966POPC   NC359675  29.969   0.418   5.550
 7966POPC   PO459676  29.944   0.453   5.850
 7966POPC   GL159677  29.947   0.426   6.150
 7966POPC   GL259678  29.771   0.379   6.150
 7966POPC   C1A59679  29.934   0.464   6.450
 7966POPC   D2A59680  29.967   0.405   6.750
 7966POPC   C3A59681  29.880   0.391   7.050
 7966POPC   C4A59682  29.929   0.400   7.350
 7966POPC   C1B59683  29.680   0.360   6.450
 7966POPC   C2B59684  29.631   0.403   6.750
 7966POPC   C3B59685  29.640   0.389   7.050
 7966POPC   C4B59686  29.660   0.434   7.350
 7967POPC   NC359687  25.259  36.933   5.550
 7967POPC   PO459688  25.227  36.948   5.850
 7967POPC   GL159689  25.223  36.912   6.150
 7967POPC   GL259690  25.176  37.061   6.150
 7967POPC   C1A59691  25.224  36.928   6.450
 7967POPC   D2A59692  25.243  36.884   6.750
 7967POPC   C3A59693  25.239  36.922   7.050
 7967POPC   C4A59694  25.262  36.859   7.350
 7967POPC   C1B59695  25.225  37.157   6.450
 7967POPC   C2B59696  25.227  37.104   6.750
 7967POPC   C3B59697  25.165  37.129   7.050
 7967POPC   C4B59698  25.164  37.136   7.350
 7968POPC   NC359699  34.612  12.852   5.550
 7968POPC   PO459700  34.578  12.895   5.850
 7968POPC   GL159701  34.608  12.824   6.150
 7968POPC   GL259702  34.554  12.734   6.150
 7968POPC   C1A59703  34.587  12.828   6.450
 7968POPC   D2A59704  34.597  12.846   6.750
 7968POPC   C3A59705  34.598  12.881   7.050
 7968POPC   C4A59706  34.593  12.842   7.350
 7968POPC   C1B59707  34.611  12.638   6.450
 7968POPC   C2B59708  34.651  12.604   6.750
 7968POPC   C3B59709  34.640  12.593   7.050
 7968POPC   C4B59710  34.606  12.601   7.350
 7969POPC   NC359711  29.119   5.136   5.550
 7969POPC   PO459712  29.159   5.054   5.850
 7969POPC   GL159713  29.194   5.076   6.150
 7969POPC   GL259714  29.212   5.169   6.150
 7969POPC   C1A59715  29.193   5.050   6.450
 7969POPC   D2A59716  29.138   5.141   6.750
 7969POPC   C3A59717  29.159   5.046   7.050
 7969POPC   C4A59718  29.105   5.111   7.350
 7969POPC   C1B59719  29.297   5.311   6.450
 7969POPC   C2B59720  29.237   5.333   6.750
 7969POPC   C3B59721  29.291   5.269   7.050
 7969POPC   C4B59722  29.283   5.255   7.350
 7970POPC   NC359723  44.640  30.720   5.550
 7970POPC   PO459724  44.651  30.727   5.850
 7970POPC   GL159725  44.682  30.718   6.150
 7970POPC   GL259726  44.572  30.613   6.150
 7970POPC   C1A59727  44.700  30.658   6.450
 7970POPC   D2A59728  44.655  30.721   6.750
 7970POPC   C3A59729  44.624  30.691   7.050
 7970POPC   C4A59730  44.670  30.664   7.350
 7970POPC   C1B59731  44.422  30.605   6.450
 7970POPC   C2B59732  44.432  30.583   6.750
 7970POPC   C3B59733  44.411  30.603   7.050
 7970POPC   C4B59734  44.458  30.560   7.350
 7971POPC   NC359735  26.782  36.089   5.550
 7971POPC   PO459736  26.850  36.136   5.850
 7971POPC   GL159737  26.836  36.086   6.150
 7971POPC   GL259738  26.791  36.237   6.150
 7971POPC   C1A59739  26.811  36.078   6.450
 7971POPC   D2A59740  26.772  36.138   6.750
 7971POPC   C3A59741  26.816  36.125   7.050
 7971POPC   C4A59742  26.796  36.121   7.350
 7971POPC   C1B59743  26.716  36.357   6.450
 7971POPC   C2B59744  26.680  36.335   6.750
 7971POPC   C3B59745  26.669  36.376   7.050
 7971POPC   C4B59746  26.700  36.289   7.350
 7972POPC   NC359747   3.560   8.149   5.550
 7972POPC   PO459748   3.555   8.204   5.850
 7972POPC   GL159749   3.516   8.159   6.150
 7972POPC   GL259750   3.382   8.159   6.150
 7972POPC   C1A59751   3.504   8.172   6.450
 7972POPC   D2A59752   3.523   8.235   6.750
 7972POPC   C3A59753   3.505   8.162   7.050
 7972POPC   C4A59754   3.524   8.194   7.350
 7972POPC   C1B59755   3.293   8.093   6.450
 7972POPC   C2B59756   3.257   8.172   6.750
 7972POPC   C3B59757   3.257   8.103   7.050
 7972POPC   C4B59758   3.283   8.088   7.350
 7973POPC   NC359759  43.072  19.813   5.550
 7973POPC   PO459760  43.064  19.879   5.850
 7973POPC   GL159761  43.133  19.860   6.150
 7973POPC   GL259762  43.148  19.878   6.150
 7973POPC   C1A59763  43.068  19.789   6.450
 7973POPC   D2A59764  43.106  19.838   6.750
 7973POPC   C3A59765  43.072  19.808   7.050
 7973POPC   C4A59766  43.072  19.865   7.350
 7973POPC   C1B59767  43.282  20.029   6.450
 7973POPC   C2B59768  43.311  20.014   6.750
 7973POPC   C3B59769  43.306  20.030   7.050
 7973POPC   C4B59770  43.299  20.016   7.350
 7974POPC   NC359771  27.631  27.572   5.550
 7974POPC   PO459772  27.545  27.547   5.850
 7974POPC   GL159773  27.569  27.618   6.150
 7974POPC   GL259774  27.644  27.433   6.150
 7974POPC   C1A59775  27.628  27.640   6.450
 7974POPC   D2A59776  27.607  27.579   6.750
 7974POPC   C3A59777  27.642  27.636   7.050
 7974POPC   C4A59778  27.599  27.570   7.350
 7974POPC   C1B59779  27.656  27.365   6.450
 7974POPC   C2B59780  27.615  27.346   6.750
 7974POPC   C3B59781  27.585  27.367   7.050
 7974POPC   C4B59782  27.611  27.317   7.350
 7975POPC   NC359783  15.971   2.769   5.550
 7975POPC   PO459784  15.991   2.777   5.850
 7975POPC   GL159785  15.951   2.792   6.150
 7975POPC   GL259786  15.787   2.730   6.150
 7975POPC   C1A59787  15.998   2.798   6.450
 7975POPC   D2A59788  15.966   2.747   6.750
 7975POPC   C3A59789  15.917   2.813   7.050
 7975POPC   C4A59790  15.972   2.788   7.350
 7975POPC   C1B59791  15.719   2.709   6.450
 7975POPC   C2B59792  15.724   2.684   6.750
 7975POPC   C3B59793  15.756   2.722   7.050
 7975POPC   C4B59794  15.686   2.661   7.350
 7976POPC   NC359795   9.019   5.084   5.550
 7976POPC   PO459796   8.996   5.098   5.850
 7976POPC   GL159797   8.996   5.091   6.150
 7976POPC   GL259798   9.079   5.163   6.150
 7976POPC   C1A59799   8.940   5.082   6.450
 7976POPC   D2A59800   8.970   5.092   6.750
 7976POPC   C3A59801   8.981   5.125   7.050
 7976POPC   C4A59802   8.937   5.065   7.350
 7976POPC   C1B59803   9.231   5.131   6.450
 7976POPC   C2B59804   9.255   5.206   6.750
 7976POPC   C3B59805   9.233   5.118   7.050
 7976POPC   C4B59806   9.194   5.186   7.350
 7977POPC   NC359807  17.525   2.753   5.550
 7977POPC   PO459808  17.486   2.744   5.850
 7977POPC   GL159809  17.529   2.761   6.150
 7977POPC   GL259810  17.598   2.894   6.150
 7977POPC   C1A59811  17.509   2.787   6.450
 7977POPC   D2A59812  17.466   2.807   6.750
 7977POPC   C3A59813  17.516   2.742   7.050
 7977POPC   C4A59814  17.482   2.784   7.350
 7977POPC   C1B59815  17.644   2.943   6.450
 7977POPC   C2B59816  17.646   2.984   6.750
 7977POPC   C3B59817  17.655   2.926   7.050
 7977POPC   C4B59818  17.632   2.910   7.350
 7978POPC   NC359819  27.605  35.392   5.550
 7978POPC   PO459820  27.613  35.381   5.850
 7978POPC   GL159821  27.611  35.393   6.150
 7978POPC   GL259822  27.759  35.359   6.150
 7978POPC   C1A59823  27.570  35.309   6.450
 7978POPC   D2A59824  27.625  35.338   6.750
 7978POPC   C3A59825  27.623  35.320   7.050
 7978POPC   C4A59826  27.580  35.329   7.350
 7978POPC   C1B59827  27.852  35.312   6.450
 7978POPC   C2B59828  27.873  35.269   6.750
 7978POPC   C3B59829  27.818  35.269   7.050
 7978POPC   C4B59830  27.794  35.316   7.350
 7979POPC   NC359831  29.961   3.589   5.550
 7979POPC   PO459832  29.886   3.533   5.850
 7979POPC   GL159833  29.871   3.563   6.150
 7979POPC   GL259834  29.999   3.404   6.150
 7979POPC   C1A59835  29.929   3.498   6.450
 7979POPC   D2A59836  29.909   3.588   6.750
 7979POPC   C3A59837  29.939   3.534   7.050
 7979POPC   C4A59838  29.946   3.521   7.350
 7979POPC   C1B59839  30.094   3.345   6.450
 7979POPC   C2B59840  30.144   3.314   6.750
 7979POPC   C3B59841  30.124   3.387   7.050
 7979POPC   C4B59842  30.054   3.326   7.350
 7980POPC   NC359843  16.744  11.333   5.550
 7980POPC   PO459844  16.773  11.282   5.850
 7980POPC   GL159845  16.745  11.313   6.150
 7980POPC   GL259846  16.852  11.367   6.150
 7980POPC   C1A59847  16.760  11.296   6.450
 7980POPC   D2A59848  16.686  11.274   6.750
 7980POPC   C3A59849  16.688  11.260   7.050
 7980POPC   C4A59850  16.727  11.340   7.350
 7980POPC   C1B59851  16.915  11.448   6.450
 7980POPC   C2B59852  16.930  11.457   6.750
 7980POPC   C3B59853  16.929  11.464   7.050
 7980POPC   C4B59854  16.933  11.497   7.350
 7981POPC   NC359855  29.183   7.418   5.550
 7981POPC   PO459856  29.195   7.371   5.850
 7981POPC   GL159857  29.114   7.413   6.150
 7981POPC   GL259858  29.213   7.509   6.150
 7981POPC   C1A59859  29.096   7.403   6.450
 7981POPC   D2A59860  29.143   7.391   6.750
 7981POPC   C3A59861  29.104   7.390   7.050
 7981POPC   C4A59862  29.157   7.427   7.350
 7981POPC   C1B59863  29.360   7.526   6.450
 7981POPC   C2B59864  29.363   7.556   6.750
 7981POPC   C3B59865  29.365   7.505   7.050
 7981POPC   C4B59866  29.400   7.499   7.350
 7982POPC   NC359867  21.353  14.396   5.550
 7982POPC   PO459868  21.403  14.409   5.850
 7982POPC   GL159869  21.436  14.440   6.150
 7982POPC   GL259870  21.408  14.465   6.150
 7982POPC   C1A59871  21.384  14.376   6.450
 7982POPC   D2A59872  21.382  14.431   6.750
 7982POPC   C3A59873  21.397  14.416   7.050
 7982POPC   C4A59874  21.413  14.441   7.350
 7982POPC   C1B59875  21.520  14.570   6.450
 7982POPC   C2B59876  21.503  14.587   6.750
 7982POPC   C3B59877  21.539  14.631   7.050
 7982POPC   C4B59878  21.531  14.640   7.350
 7983POPC   NC359879  34.612  11.321   5.550
 7983POPC   PO459880  34.610  11.303   5.850
 7983POPC   GL159881  34.585  11.306   6.150
 7983POPC   GL259882  34.745  11.348   6.150
 7983POPC   C1A59883  34.564  11.284   6.450
 7983POPC   D2A59884  34.537  11.335   6.750
 7983POPC   C3A59885  34.611  11.328   7.050
 7983POPC   C4A59886  34.578  11.343   7.350
 7983POPC   C1B59887  34.786  11.329   6.450
 7983POPC   C2B59888  34.822  11.344   6.750
 7983POPC   C3B59889  34.825  11.298   7.050
 7983POPC   C4B59890  34.785  11.346   7.350
 7984POPC   NC359891  19.051  19.834   5.550
 7984POPC   PO459892  19.098  19.855   5.850
 7984POPC   GL159893  19.035  19.794   6.150
 7984POPC   GL259894  19.108  19.725   6.150
 7984POPC   C1A59895  19.089  19.879   6.450
 7984POPC   D2A59896  19.031  19.816   6.750
 7984POPC   C3A59897  19.055  19.790   7.050
 7984POPC   C4A59898  19.072  19.827   7.350
 7984POPC   C1B59899  19.194  19.663   6.450
 7984POPC   C2B59900  19.251  19.675   6.750
 7984POPC   C3B59901  19.231  19.639   7.050
 7984POPC   C4B59902  19.251  19.676   7.350
 7985POPC   NC359903   9.733  30.676   5.550
 7985POPC   PO459904   9.730  30.668   5.850
 7985POPC   GL159905   9.717  30.677   6.150
 7985POPC   GL259906   9.709  30.580   6.150
 7985POPC   C1A59907   9.715  30.738   6.450
 7985POPC   D2A59908   9.745  30.672   6.750
 7985POPC   C3A59909   9.727  30.688   7.050
 7985POPC   C4A59910   9.787  30.651   7.350
 7985POPC   C1B59911   9.660  30.446   6.450
 7985POPC   C2B59912   9.606  30.482   6.750
 7985POPC   C3B59913   9.615  30.502   7.050
 7985POPC   C4B59914   9.631  30.520   7.350
 7986POPC   NC359915  12.884   7.421   5.550
 7986POPC   PO459916  12.856   7.427   5.850
 7986POPC   GL159917  12.901   7.468   6.150
 7986POPC   GL259918  12.900   7.494   6.150
 7986POPC   C1A59919  12.866   7.438   6.450
 7986POPC   D2A59920  12.887   7.396   6.750
 7986POPC   C3A59921  12.859   7.470   7.050
 7986POPC   C4A59922  12.804   7.412   7.350
 7986POPC   C1B59923  12.946   7.659   6.450
 7986POPC   C2B59924  12.981   7.582   6.750
 7986POPC   C3B59925  12.976   7.580   7.050
 7986POPC   C4B59926  12.972   7.663   7.350
 7987POPC   NC359927  14.358  37.688   5.550
 7987POPC   PO459928  14.423  37.637   5.850
 7987POPC   GL159929  14.377  37.675   6.150
 7987POPC   GL259930  14.519  37.651   6.150
 7987POPC   C1A59931  14.391  37.668   6.450
 7987POPC   D2A59932  14.355  37.709   6.750
 7987POPC   C3A59933  14.380  37.703   7.050
 7987POPC   C4A59934  14.439  37.692   7.350
 7987POPC   C1B59935  14.605  37.576   6.450
 7987POPC   C2B59936  14.647  37.566   6.750
 7987POPC   C3B59937  14.595  37.585   7.050
 7987POPC   C4B59938  14.613  37.658   7.350
 7988POPC   NC359939  27.568   3.586   5.550
 7988POPC   PO459940  27.566   3.524   5.850
 7988POPC   GL159941  27.624   3.516   6.150
 7988POPC   GL259942  27.659   3.679   6.150
 7988POPC   C1A59943  27.566   3.591   6.450
 7988POPC   D2A59944  27.572   3.585   6.750
 7988POPC   C3A59945  27.555   3.494   7.050
 7988POPC   C4A59946  27.637   3.513   7.350
 7988POPC   C1B59947  27.753   3.708   6.450
 7988POPC   C2B59948  27.683   3.757   6.750
 7988POPC   C3B59949  27.713   3.789   7.050
 7988POPC   C4B59950  27.694   3.768   7.350
 7989POPC   NC359951   5.049  12.066   5.550
 7989POPC   PO459952   5.110  12.119   5.850
 7989POPC   GL159953   5.119  12.098   6.150
 7989POPC   GL259954   4.921  12.022   6.150
 7989POPC   C1A59955   5.119  12.035   6.450
 7989POPC   D2A59956   5.129  12.115   6.750
 7989POPC   C3A59957   5.138  12.049   7.050
 7989POPC   C4A59958   5.092  12.049   7.350
 7989POPC   C1B59959   4.886  12.066   6.450
 7989POPC   C2B59960   4.884  12.081   6.750
 7989POPC   C3B59961   4.876  12.060   7.050
 7989POPC   C4B59962   4.863  12.067   7.350
 7990POPC   NC359963  28.416  25.301   5.550
 7990POPC   PO459964  28.336  25.293   5.850
 7990POPC   GL159965  28.327  25.227   6.150
 7990POPC   GL259966  28.262  25.330   6.150
 7990POPC   C1A59967  28.413  25.300   6.450
 7990POPC   D2A59968  28.335  25.219   6.750
 7990POPC   C3A59969  28.328  25.312   7.050
 7990POPC   C4A59970  28.381  25.259   7.350
 7990POPC   C1B59971  28.262  25.465   6.450
 7990POPC   C2B59972  28.220  25.510   6.750
 7990POPC   C3B59973  28.204  25.473   7.050
 7990POPC   C4B59974  28.217  25.452   7.350
 7991POPC   NC359975  30.661  16.740   5.550
 7991POPC   PO459976  30.693  16.766   5.850
 7991POPC   GL159977  30.659  16.683   6.150
 7991POPC   GL259978  30.634  16.638   6.150
 7991POPC   C1A59979  30.730  16.760   6.450
 7991POPC   D2A59980  30.654  16.696   6.750
 7991POPC   C3A59981  30.657  16.702   7.050
 7991POPC   C4A59982  30.667  16.692   7.350
 7991POPC   C1B59983  30.616  16.487   6.450
 7991POPC   C2B59984  30.569  16.474   6.750
 7991POPC   C3B59985  30.554  16.511   7.050
 7991POPC   C4B59986  30.523  16.552   7.350
 7992POPC   NC359987  16.739  24.458   5.550
 7992POPC   PO459988  16.749  24.446   5.850
 7992POPC   GL159989  16.684  24.523   6.150
 7992POPC   GL259990  16.679  24.357   6.150
 7992POPC   C1A59991  16.779  24.467   6.450
 7992POPC   D2A59992  16.687  24.525   6.750
 7992POPC   C3A59993  16.753  24.462   7.050
 7992POPC   C4A59994  16.771  24.469   7.350
 7992POPC   C1B59995  16.630  24.292   6.450
 7992POPC   C2B59996  16.669  24.270   6.750
 7992POPC   C3B59997  16.667  24.202   7.050
 7992POPC   C4B59998  16.662  24.211   7.350
 7993POPC   NC359999  40.753   8.219   5.550
 7993POPC   PO460000  40.755   8.182   5.850
 7993POPC   GL160001  40.769   8.149   6.150
 7993POPC   GL260002  40.952   8.168   6.150
 7993POPC   C1A60003  40.761   8.151   6.450
 7993POPC   D2A60004  40.756   8.206   6.750
 7993POPC   C3A60005  40.823   8.197   7.050
 7993POPC   C4A60006  40.765   8.203   7.350
 7993POPC   C1B60007  40.997   8.211   6.450
 7993POPC   C2B60008  41.024   8.184   6.750
 7993POPC   C3B60009  40.998   8.239   7.050
 7993POPC   C4B60010  41.004   8.195   7.350
 7994POPC   NC360011   9.787   1.184   5.550
 7994POPC   PO460012   9.761   1.196   5.850
 7994POPC   GL160013   9.760   1.244   6.150
 7994POPC   GL260014   9.727   1.072   6.150
 7994POPC   C1A60015   9.700   1.198   6.450
 7994POPC   D2A60016   9.708   1.192   6.750
 7994POPC   C3A60017   9.758   1.263   7.050
 7994POPC   C4A60018   9.699   1.187   7.350
 7994POPC   C1B60019   9.752   1.018   6.450
 7994POPC   C2B60020   9.769   0.942   6.750
 7994POPC   C3B60021   9.801   0.990   7.050
 7994POPC   C4B60022   9.831   0.926   7.350
 7995POPC   NC360023  36.903   8.937   5.550
 7995POPC   PO460024  36.948   8.979   5.850
 7995POPC   GL160025  36.896   8.933   6.150
 7995POPC   GL260026  37.041   9.073   6.150
 7995POPC   C1A60027  36.934   8.955   6.450
 7995POPC   D2A60028  36.925   8.957   6.750
 7995POPC   C3A60029  36.916   8.961   7.050
 7995POPC   C4A60030  36.926   8.942   7.350
 7995POPC   C1B60031  37.050   9.139   6.450
 7995POPC   C2B60032  37.112   9.144   6.750
 7995POPC   C3B60033  37.103   9.138   7.050
 7995POPC   C4B60034  37.077   9.119   7.350
 7996POPC   NC360035  10.480   5.826   5.550
 7996POPC   PO460036  10.508   5.916   5.850
 7996POPC   GL160037  10.522   5.873   6.150
 7996POPC   GL260038  10.661   5.852   6.150
 7996POPC   C1A60039  10.527   5.889   6.450
 7996POPC   D2A60040  10.552   5.889   6.750
 7996POPC   C3A60041  10.530   5.913   7.050
 7996POPC   C4A60042  10.484   5.833   7.350
 7996POPC   C1B60043  10.722   5.799   6.450
 7996POPC   C2B60044  10.787   5.758   6.750
 7996POPC   C3B60045  10.778   5.787   7.050
 7996POPC   C4B60046  10.746   5.755   7.350
 7997POPC   NC360047  20.622  29.912   5.550
 7997POPC   PO460048  20.632  29.875   5.850
 7997POPC   GL160049  20.568  29.940   6.150
 7997POPC   GL260050  20.454  29.873   6.150
 7997POPC   C1A60051  20.641  29.895   6.450
 7997POPC   D2A60052  20.593  29.945   6.750
 7997POPC   C3A60053  20.574  29.913   7.050
 7997POPC   C4A60054  20.593  29.883   7.350
 7997POPC   C1B60055  20.348  29.866   6.450
 7997POPC   C2B60056  20.369  29.876   6.750
 7997POPC   C3B60057  20.332  29.802   7.050
 7997POPC   C4B60058  20.382  29.828   7.350
 7998POPC   NC360059  12.092   3.578   5.550
 7998POPC   PO460060  12.082   3.508   5.850
 7998POPC   GL160061  12.112   3.550   6.150
 7998POPC   GL260062  11.978   3.473   6.150
 7998POPC   C1A60063  12.125   3.514   6.450
 7998POPC   D2A60064  12.037   3.493   6.750
 7998POPC   C3A60065  12.036   3.516   7.050
 7998POPC   C4A60066  12.058   3.532   7.350
 7998POPC   C1B60067  11.938   3.292   6.450
 7998POPC   C2B60068  11.921   3.331   6.750
 7998POPC   C3B60069  11.948   3.273   7.050
 7998POPC   C4B60070  11.915   3.346   7.350
 7999POPC   NC360071  19.016  10.484   5.550
 7999POPC   PO460072  19.026  10.493   5.850
 7999POPC   GL160073  19.017  10.489   6.150
 7999POPC   GL260074  19.198  10.608   6.150
 7999POPC   C1A60075  19.061  10.530   6.450
 7999POPC   D2A60076  19.094  10.512   6.750
 7999POPC   C3A60077  19.074  10.503   7.050
 7999POPC   C4A60078  19.022  10.552   7.350
 7999POPC   C1B60079  19.265  10.635   6.450
 7999POPC   C2B60080  19.272  10.652   6.750
 7999POPC   C3B60081  19.328  10.627   7.050
 7999POPC   C4B60082  19.258  10.596   7.350
 8000POPC   NC360083  33.790  10.548   5.550
 8000POPC   PO460084  33.763  10.477   5.850
 8000POPC   GL160085  33.820  10.571   6.150
 8000POPC   GL260086  33.706  10.483   6.150
 8000POPC   C1A60087  33.781  10.553   6.450
 8000POPC   D2A60088  33.750  10.514   6.750
 8000POPC   C3A60089  33.805  10.548   7.050
 8000POPC   C4A60090  33.769  10.503   7.350
 8000POPC   C1B60091  33.582  10.462   6.450
 8000POPC   C2B60092  33.541  10.489   6.750
 8000POPC   C3B60093  33.539  10.405   7.050
 8000POPC   C4B60094  33.574  10.399   7.350
 8001POPC   NC360095  33.756  26.044   5.550
 8001POPC   PO460096  33.812  26.024   5.850
 8001POPC   GL160097  33.783  26.036   6.150
 8001POPC   GL260098  33.852  25.972   6.150
 8001POPC   C1A60099  33.771  26.066   6.450
 8001POPC   D2A60100  33.768  26.026   6.750
 8001POPC   C3A60101  33.768  26.004   7.050
 8001POPC   C4A60102  33.819  26.085   7.350
 8001POPC   C1B60103  33.906  25.815   6.450
 8001POPC   C2B60104  33.950  25.858   6.750
 8001POPC   C3B60105  33.918  25.853   7.050
 8001POPC   C4B60106  33.946  25.872   7.350
 8002POPC   NC360107   3.568  37.691   5.550
 8002POPC   PO460108   3.547  37.666   5.850
 8002POPC   GL160109   3.562  37.727   6.150
 8002POPC   GL260110   3.506  37.792   6.150
 8002POPC   C1A60111   3.560  37.686   6.450
 8002POPC   D2A60112   3.543  37.724   6.750
 8002POPC   C3A60113   3.501  37.690   7.050
 8002POPC   C4A60114   3.556  37.689   7.350
 8002POPC   C1B60115   3.444  37.925   6.450
 8002POPC   C2B60116   3.388  37.904   6.750
 8002POPC   C3B60117   3.430  37.900   7.050
 8002POPC   C4B60118   3.406  37.856   7.350
 8003POPC   NC360119  11.327  36.146   5.550
 8003POPC   PO460120  11.272  36.164   5.850
 8003POPC   GL160121  11.299  36.169   6.150
 8003POPC   GL260122  11.284  35.970   6.150
 8003POPC   C1A60123  11.270  36.127   6.450
 8003POPC   D2A60124  11.273  36.135   6.750
 8003POPC   C3A60125  11.289  36.092   7.050
 8003POPC   C4A60126  11.285  36.126   7.350
 8003POPC   C1B60127  11.184  35.872   6.450
 8003POPC   C2B60128  11.187  35.908   6.750
 8003POPC   C3B60129  11.220  35.866   7.050
 8003POPC   C4B60130  11.184  35.871   7.350
 8004POPC   NC360131  22.985  18.265   5.550
 8004POPC   PO460132  22.889  18.237   5.850
 8004POPC   GL160133  22.920  18.255   6.150
 8004POPC   GL260134  23.052  18.210   6.150
 8004POPC   C1A60135  22.959  18.311   6.450
 8004POPC   D2A60136  22.894  18.264   6.750
 8004POPC   C3A60137  22.894  18.308   7.050
 8004POPC   C4A60138  22.968  18.286   7.350
 8004POPC   C1B60139  23.133  18.124   6.450
 8004POPC   C2B60140  23.131  18.080   6.750
 8004POPC   C3B60141  23.082  18.074   7.050
 8004POPC   C4B60142  23.139  18.093   7.350
 8005POPC   NC360143  29.108  10.538   5.550
 8005POPC   PO460144  29.112  10.510   5.850
 8005POPC   GL160145  29.194  10.519   6.150
 8005POPC   GL260146  29.145  10.386   6.150
 8005POPC   C1A60147  29.180  10.550   6.450
 8005POPC   D2A60148  29.110  10.474   6.750
 8005POPC   C3A60149  29.166  10.572   7.050
 8005POPC   C4A60150  29.159  10.518   7.350
 8005POPC   C1B60151  29.071  10.285   6.450
 8005POPC   C2B60152  29.078  10.303   6.750
 8005POPC   C3B60153  29.075  10.247   7.050
 8005POPC   C4B60154  29.112  10.314   7.350
 8006POPC   NC360155  10.507  31.476   5.550
 8006POPC   PO460156  10.509  31.475   5.850
 8006POPC   GL160157  10.480  31.464   6.150
 8006POPC   GL260158  10.378  31.592   6.150
 8006POPC   C1A60159  10.543  31.500   6.450
 8006POPC   D2A60160  10.545  31.467   6.750
 8006POPC   C3A60161  10.499  31.469   7.050
 8006POPC   C4A60162  10.531  31.437   7.350
 8006POPC   C1B60163  10.328  31.628   6.450
 8006POPC   C2B60164  10.291  31.602   6.750
 8006POPC   C3B60165  10.312  31.598   7.050
 8006POPC   C4B60166  10.297  31.615   7.350
 8007POPC   NC360167   8.214  27.581   5.550
 8007POPC   PO460168   8.217  27.600   5.850
 8007POPC   GL160169   8.159  27.633   6.150
 8007POPC   GL260170   8.083  27.503   6.150
 8007POPC   C1A60171   8.194  27.621   6.450
 8007POPC   D2A60172   8.175  27.624   6.750
 8007POPC   C3A60173   8.174  27.607   7.050
 8007POPC   C4A60174   8.179  27.573   7.350
 8007POPC   C1B60175   8.012  27.447   6.450
 8007POPC   C2B60176   8.030  27.424   6.750
 8007POPC   C3B60177   7.958  27.490   7.050
 8007POPC   C4B60178   8.042  27.422   7.350
 8008POPC   NC360179  24.503  43.125   5.550
 8008POPC   PO460180  24.472  43.143   5.850
 8008POPC   GL160181  24.499  43.121   6.150
 8008POPC   GL260182  24.400  43.115   6.150
 8008POPC   C1A60183  24.519  43.086   6.450
 8008POPC   D2A60184  24.490  43.063   6.750
 8008POPC   C3A60185  24.450  43.131   7.050
 8008POPC   C4A60186  24.441  43.112   7.350
 8008POPC   C1B60187  24.217  43.092   6.450
 8008POPC   C2B60188  24.265  43.124   6.750
 8008POPC   C3B60189  24.201  43.170   7.050
 8008POPC   C4B60190  24.257  43.162   7.350
 8009POPC   NC360191   8.181  15.136   5.550
 8009POPC   PO460192   8.153  15.198   5.850
 8009POPC   GL160193   8.244  15.184   6.150
 8009POPC   GL260194   8.197  15.272   6.150
 8009POPC   C1A60195   8.220  15.168   6.450
 8009POPC   D2A60196   8.174  15.168   6.750
 8009POPC   C3A60197   8.210  15.204   7.050
 8009POPC   C4A60198   8.223  15.228   7.350
 8009POPC   C1B60199   8.231  15.391   6.450
 8009POPC   C2B60200   8.274  15.443   6.750
 8009POPC   C3B60201   8.325  15.380   7.050
 8009POPC   C4B60202   8.265  15.370   7.350
 8010POPC   NC360203   6.675   5.854   5.550
 8010POPC   PO460204   6.600   5.907   5.850
 8010POPC   GL160205   6.641   5.872   6.150
 8010POPC   GL260206   6.712   5.883   6.150
 8010POPC   C1A60207   6.633   5.908   6.450
 8010POPC   D2A60208   6.607   5.826   6.750
 8010POPC   C3A60209   6.673   5.847   7.050
 8010POPC   C4A60210   6.691   5.917   7.350
 8010POPC   C1B60211   6.853   5.921   6.450
 8010POPC   C2B60212   6.870   5.934   6.750
 8010POPC   C3B60213   6.920   5.996   7.050
 8010POPC   C4B60214   6.839   6.000   7.350
 8011POPC   NC360215   9.729  18.303   5.550
 8011POPC   PO460216   9.766  18.318   5.850
 8011POPC   GL160217   9.763  18.257   6.150
 8011POPC   GL260218   9.865  18.319   6.150
 8011POPC   C1A60219   9.726  18.263   6.450
 8011POPC   D2A60220   9.726  18.322   6.750
 8011POPC   C3A60221   9.747  18.302   7.050
 8011POPC   C4A60222   9.732  18.265   7.350
 8011POPC   C1B60223  10.042  18.296   6.450
 8011POPC   C2B60224  10.025  18.267   6.750
 8011POPC   C3B60225  10.044  18.245   7.050
 8011POPC   C4B60226  10.047  18.309   7.350
 8012POPC   NC360227  43.129  29.919   5.550
 8012POPC   PO460228  43.151  29.944   5.850
 8012POPC   GL160229  43.120  29.885   6.150
 8012POPC   GL260230  43.069  29.782   6.150
 8012POPC   C1A60231  43.112  29.918   6.450
 8012POPC   D2A60232  43.124  29.926   6.750
 8012POPC   C3A60233  43.117  29.967   7.050
 8012POPC   C4A60234  43.139  29.963   7.350
 8012POPC   C1B60235  42.983  29.742   6.450
 8012POPC   C2B60236  42.940  29.749   6.750
 8012POPC   C3B60237  42.955  29.777   7.050
 8012POPC   C4B60238  42.918  29.702   7.350
 8013POPC   NC360239  27.640   2.039   5.550
 8013POPC   PO460240  27.547   1.968   5.850
 8013POPC   GL160241  27.551   1.964   6.150
 8013POPC   GL260242  27.509   2.085   6.150
 8013POPC   C1A60243  27.575   2.002   6.450
 8013POPC   D2A60244  27.620   2.022   6.750
 8013POPC   C3A60245  27.576   1.964   7.050
 8013POPC   C4A60246  27.622   1.981   7.350
 8013POPC   C1B60247  27.554   2.229   6.450
 8013POPC   C2B60248  27.514   2.211   6.750
 8013POPC   C3B60249  27.475   2.243   7.050
 8013POPC   C4B60250  27.474   2.241   7.350
 8014POPC   NC360251   0.468  15.940   5.550
 8014POPC   PO460252   0.453  15.949   5.850
 8014POPC   GL160253   0.396  15.914   6.150
 8014POPC   GL260254   0.443  15.880   6.150
 8014POPC   C1A60255   0.476  15.996   6.450
 8014POPC   D2A60256   0.436  15.959   6.750
 8014POPC   C3A60257   0.412  15.935   7.050
 8014POPC   C4A60258   0.391  15.989   7.350
 8014POPC   C1B60259   0.304  15.673   6.450
 8014POPC   C2B60260   0.349  15.695   6.750
 8014POPC   C3B60261   0.385  15.718   7.050
 8014POPC   C4B60262   0.312  15.757   7.350
 8015POPC   NC360263   6.658  38.475   5.550
 8015POPC   PO460264   6.647  38.453   5.850
 8015POPC   GL160265   6.630  38.439   6.150
 8015POPC   GL260266   6.537  38.441   6.150
 8015POPC   C1A60267   6.687  38.444   6.450
 8015POPC   D2A60268   6.604  38.493   6.750
 8015POPC   C3A60269   6.619  38.505   7.050
 8015POPC   C4A60270   6.596  38.465   7.350
 8015POPC   C1B60271   6.414  38.319   6.450
 8015POPC   C2B60272   6.435  38.383   6.750
 8015POPC   C3B60273   6.421  38.291   7.050
 8015POPC   C4B60274   6.452  38.296   7.350
 8016POPC   NC360275   7.376  18.239   5.550
 8016POPC   PO460276   7.466  18.263   5.850
 8016POPC   GL160277   7.420  18.315   6.150
 8016POPC   GL260278   7.332  18.216   6.150
 8016POPC   C1A60279   7.426  18.286   6.450
 8016POPC   D2A60280   7.444  18.261   6.750
 8016POPC   C3A60281   7.391  18.249   7.050
 8016POPC   C4A60282   7.459  18.260   7.350
 8016POPC   C1B60283   7.237  18.063   6.450
 8016POPC   C2B60284   7.278  18.129   6.750
 8016POPC   C3B60285   7.242  18.098   7.050
 8016POPC   C4B60286   7.273  18.056   7.350
 8017POPC   NC360287  26.834   6.670   5.550
 8017POPC   PO460288  26.788   6.628   5.850
 8017POPC   GL160289  26.849   6.601   6.150
 8017POPC   GL260290  26.897   6.608   6.150
 8017POPC   C1A60291  26.853   6.648   6.450
 8017POPC   D2A60292  26.794   6.680   6.750
 8017POPC   C3A60293  26.818   6.672   7.050
 8017POPC   C4A60294  26.837   6.609   7.350
 8017POPC   C1B60295  27.104   6.693   6.450
 8017POPC   C2B60296  27.023   6.624   6.750
 8017POPC   C3B60297  27.108   6.629   7.050
 8017POPC   C4B60298  27.028   6.651   7.350
 8018POPC   NC360299   7.405  30.670   5.550
 8018POPC   PO460300   7.377  30.726   5.850
 8018POPC   GL160301   7.418  30.706   6.150
 8018POPC   GL260302   7.282  30.773   6.150
 8018POPC   C1A60303   7.468  30.699   6.450
 8018POPC   D2A60304   7.454  30.666   6.750
 8018POPC   C3A60305   7.425  30.691   7.050
 8018POPC   C4A60306   7.415  30.711   7.350
 8018POPC   C1B60307   7.193  30.744   6.450
 8018POPC   C2B60308   7.224  30.799   6.750
 8018POPC   C3B60309   7.179  30.795   7.050
 8018POPC   C4B60310   7.157  30.767   7.350
 8019POPC   NC360311  16.757  12.089   5.550
 8019POPC   PO460312  16.684  12.038   5.850
 8019POPC   GL160313  16.701  12.103   6.150
 8019POPC   GL260314  16.642  12.105   6.150
 8019POPC   C1A60315  16.719  12.061   6.450
 8019POPC   D2A60316  16.771  12.047   6.750
 8019POPC   C3A60317  16.745  12.095   7.050
 8019POPC   C4A60318  16.781  12.031   7.350
 8019POPC   C1B60319  16.487  12.074   6.450
 8019POPC   C2B60320  16.443  12.026   6.750
 8019POPC   C3B60321  16.457  12.049   7.050
 8019POPC   C4B60322  16.504  12.055   7.350
 8020POPC   NC360323  22.188  29.150   5.550
 8020POPC   PO460324  22.156  29.097   5.850
 8020POPC   GL160325  22.125  29.185   6.150
 8020POPC   GL260326  22.256  29.180   6.150
 8020POPC   C1A60327  22.174  29.149   6.450
 8020POPC   D2A60328  22.201  29.129   6.750
 8020POPC   C3A60329  22.183  29.180   7.050
 8020POPC   C4A60330  22.197  29.163   7.350
 8020POPC   C1B60331  22.355  29.283   6.450
 8020POPC   C2B60332  22.395  29.262   6.750
 8020POPC   C3B60333  22.387  29.226   7.050
 8020POPC   C4B60334  22.376  29.202   7.350
 8021POPC   NC360335  22.904  32.250   5.550
 8021POPC   PO460336  22.909  32.269   5.850
 8021POPC   GL160337  22.893  32.199   6.150
 8021POPC   GL260338  22.965  32.135   6.150
 8021POPC   C1A60339  22.974  32.258   6.450
 8021POPC   D2A60340  22.898  32.262   6.750
 8021POPC   C3A60341  22.889  32.292   7.050
 8021POPC   C4A60342  22.896  32.201   7.350
 8021POPC   C1B60343  22.962  31.996   6.450
 8021POPC   C2B60344  22.954  31.970   6.750
 8021POPC   C3B60345  22.958  32.023   7.050
 8021POPC   C4B60346  23.039  32.027   7.350
 8022POPC   NC360347  22.897  14.436   5.550
 8022POPC   PO460348  22.964  14.435   5.850
 8022POPC   GL160349  22.975  14.397   6.150
 8022POPC   GL260350  22.888  14.327   6.150
 8022POPC   C1A60351  22.938  14.413   6.450
 8022POPC   D2A60352  22.923  14.369   6.750
 8022POPC   C3A60353  22.950  14.411   7.050
 8022POPC   C4A60354  22.899  14.402   7.350
 8022POPC   C1B60355  22.841  14.134   6.450
 8022POPC   C2B60356  22.823  14.164   6.750
 8022POPC   C3B60357  22.834  14.176   7.050
 8022POPC   C4B60358  22.893  14.144   7.350
 8023POPC   NC360359   7.414  21.409   5.550
 8023POPC   PO460360   7.406  21.375   5.850
 8023POPC   GL160361   7.424  21.428   6.150
 8023POPC   GL260362   7.415  21.477   6.150
 8023POPC   C1A60363   7.462  21.339   6.450
 8023POPC   D2A60364   7.417  21.398   6.750
 8023POPC   C3A60365   7.394  21.392   7.050
 8023POPC   C4A60366   7.442  21.339   7.350
 8023POPC   C1B60367   7.350  21.586   6.450
 8023POPC   C2B60368   7.292  21.656   6.750
 8023POPC   C3B60369   7.378  21.593   7.050
 8023POPC   C4B60370   7.348  21.586   7.350
 8024POPC   NC360371  31.427  37.692   5.550
 8024POPC   PO460372  31.453  37.667   5.850
 8024POPC   GL160373  31.443  37.690   6.150
 8024POPC   GL260374  31.361  37.726   6.150
 8024POPC   C1A60375  31.517  37.707   6.450
 8024POPC   D2A60376  31.464  37.704   6.750
 8024POPC   C3A60377  31.467  37.643   7.050
 8024POPC   C4A60378  31.439  37.707   7.350
 8024POPC   C1B60379  31.238  37.818   6.450
 8024POPC   C2B60380  31.235  37.833   6.750
 8024POPC   C3B60381  31.211  37.773   7.050
 8024POPC   C4B60382  31.235  37.756   7.350
 8025POPC   NC360383   4.323  33.817   5.550
 8025POPC   PO460384   4.329  33.847   5.850
 8025POPC   GL160385   4.324  33.771   6.150
 8025POPC   GL260386   4.340  33.664   6.150
 8025POPC   C1A60387   4.348  33.807   6.450
 8025POPC   D2A60388   4.281  33.778   6.750
 8025POPC   C3A60389   4.277  33.752   7.050
 8025POPC   C4A60390   4.274  33.771   7.350
 8025POPC   C1B60391   4.339  33.538   6.450
 8025POPC   C2B60392   4.359  33.568   6.750
 8025POPC   C3B60393   4.332  33.594   7.050
 8025POPC   C4B60394   4.290  33.514   7.350
 8026POPC   NC360395  14.424  12.034   5.550
 8026POPC   PO460396  14.406  12.097   5.850
 8026POPC   GL160397  14.405  12.051   6.150
 8026POPC   GL260398  14.373  12.206   6.150
 8026POPC   C1A60399  14.372  12.125   6.450
 8026POPC   D2A60400  14.381  12.029   6.750
 8026POPC   C3A60401  14.428  12.110   7.050
 8026POPC   C4A60402  14.432  12.039   7.350
 8026POPC   C1B60403  14.290  12.267   6.450
 8026POPC   C2B60404  14.381  12.317   6.750
 8026POPC   C3B60405  14.352  12.293   7.050
 8026POPC   C4B60406  14.373  12.303   7.350
 8027POPC   NC360407  26.045  42.328   5.550
 8027POPC   PO460408  26.085  42.378   5.850
 8027POPC   GL160409  26.016  42.362   6.150
 8027POPC   GL260410  25.950  42.256   6.150
 8027POPC   C1A60411  26.062  42.344   6.450
 8027POPC   D2A60412  26.017  42.329   6.750
 8027POPC   C3A60413  26.088  42.356   7.050
 8027POPC   C4A60414  25.997  42.342   7.350
 8027POPC   C1B60415  25.946  42.137   6.450
 8027POPC   C2B60416  25.891  42.151   6.750
 8027POPC   C3B60417  25.873  42.077   7.050
 8027POPC   C4B60418  25.896  42.143   7.350
 8028POPC   NC360419  22.194  12.043   5.550
 8028POPC   PO460420  22.185  12.048   5.850
 8028POPC   GL160421  22.199  12.046   6.150
 8028POPC   GL260422  22.163  11.928   6.150
 8028POPC   C1A60423  22.119  12.034   6.450
 8028POPC   D2A60424  22.203  12.119   6.750
 8028POPC   C3A60425  22.195  12.028   7.050
 8028POPC   C4A60426  22.208  12.097   7.350
 8028POPC   C1B60427  22.098  11.808   6.450
 8028POPC   C2B60428  22.109  11.838   6.750
 8028POPC   C3B60429  22.182  11.833   7.050
 8028POPC   C4B60430  22.104  11.853   7.350
 8029POPC   NC360431   1.219  28.345   5.550
 8029POPC   PO460432   1.189  28.358   5.850
 8029POPC   GL160433   1.176  28.338   6.150
 8029POPC   GL260434   1.329  28.383   6.150
 8029POPC   C1A60435   1.215  28.339   6.450
 8029POPC   D2A60436   1.182  28.383   6.750
 8029POPC   C3A60437   1.175  28.325   7.050
 8029POPC   C4A60438   1.207  28.328   7.350
 8029POPC   C1B60439   1.449  28.362   6.450
 8029POPC   C2B60440   1.453  28.386   6.750
 8029POPC   C3B60441   1.507  28.372   7.050
 8029POPC   C4B60442   1.507  28.347   7.350
 8030POPC   NC360443  12.054  12.840   5.550
 8030POPC   PO460444  12.096  12.897   5.850
 8030POPC   GL160445  12.064  12.851   6.150
 8030POPC   GL260446  12.021  12.944   6.150
 8030POPC   C1A60447  12.041  12.806   6.450
 8030POPC   D2A60448  12.049  12.887   6.750
 8030POPC   C3A60449  12.102  12.843   7.050
 8030POPC   C4A60450  12.119  12.811   7.350
 8030POPC   C1B60451  11.920  12.992   6.450
 8030POPC   C2B60452  11.863  13.057   6.750
 8030POPC   C3B60453  11.894  12.991   7.050
 8030POPC   C4B60454  11.866  13.036   7.350
 8031POPC   NC360455  12.881  44.699   5.550
 8031POPC   PO460456  12.857  44.652   5.850
 8031POPC   GL160457  12.874  44.616   6.150
 8031POPC   GL260458  12.885  44.749   6.150
 8031POPC   C1A60459  12.900  44.711   6.450
 8031POPC   D2A60460  12.855  44.618   6.750
 8031POPC   C3A60461  12.827  44.646   7.050
 8031POPC   C4A60462  12.849  44.676   7.350
 8031POPC   C1B60463  13.046  44.882   6.450
 8031POPC   C2B60464  13.040  44.905   6.750
 8031POPC   C3B60465  13.047  44.827   7.050
 8031POPC   C4B60466  13.012  44.822   7.350
 8032POPC   NC360467   1.232   1.997   5.550
 8032POPC   PO460468   1.184   1.959   5.850
 8032POPC   GL160469   1.244   2.002   6.150
 8032POPC   GL260470   1.312   1.894   6.150
 8032POPC   C1A60471   1.251   1.956   6.450
 8032POPC   D2A60472   1.194   2.005   6.750
 8032POPC   C3A60473   1.180   1.946   7.050
 8032POPC   C4A60474   1.220   1.979   7.350
 8032POPC   C1B60475   1.400   1.829   6.450
 8032POPC   C2B60476   1.391   1.793   6.750
 8032POPC   C3B60477   1.337   1.743   7.050
 8032POPC   C4B60478   1.405   1.755   7.350
 8033POPC   NC360479   4.360  36.869   5.550
 8033POPC   PO460480   4.271  36.945   5.850
 8033POPC   GL160481   4.269  36.911   6.150
 8033POPC   GL260482   4.273  36.969   6.150
 8033POPC   C1A60483   4.311  36.872   6.450
 8033POPC   D2A60484   4.300  36.905   6.750
 8033POPC   C3A60485   4.327  36.882   7.050
 8033POPC   C4A60486   4.332  36.887   7.350
 8033POPC   C1B60487   4.136  37.139   6.450
 8033POPC   C2B60488   4.211  37.088   6.750
 8033POPC   C3B60489   4.159  37.107   7.050
 8033POPC   C4B60490   4.128  37.152   7.350
 8034POPC   NC360491   7.445  11.256   5.550
 8034POPC   PO460492   7.457  11.323   5.850
 8034POPC   GL160493   7.464  11.270   6.150
 8034POPC   GL260494   7.423  11.460   6.150
 8034POPC   C1A60495   7.403  11.333   6.450
 8034POPC   D2A60496   7.458  11.300   6.750
 8034POPC   C3A60497   7.436  11.328   7.050
 8034POPC   C4A60498   7.426  11.334   7.350
 8034POPC   C1B60499   7.441  11.504   6.450
 8034POPC   C2B60500   7.466  11.563   6.750
 8034POPC   C3B60501   7.499  11.505   7.050
 8034POPC   C4B60502   7.475  11.522   7.350
 8035POPC   NC360503  26.065  22.934   5.550
 8035POPC   PO460504  26.083  22.936   5.850
 8035POPC   GL160505  26.004  22.923   6.150
 8035POPC   GL260506  26.173  22.892   6.150
 8035POPC   C1A60507  26.069  22.978   6.450
 8035POPC   D2A60508  26.088  22.890   6.750
 8035POPC   C3A60509  25.996  22.925   7.050
 8035POPC   C4A60510  26.082  22.893   7.350
 8035POPC   C1B60511  26.261  22.905   6.450
 8035POPC   C2B60512  26.304  22.928   6.750
 8035POPC   C3B60513  26.322  22.895   7.050
 8035POPC   C4B60514  26.322  22.888   7.350
 8036POPC   NC360515  25.233  38.442   5.550
 8036POPC   PO460516  25.233  38.421   5.850
 8036POPC   GL160517  25.311  38.488   6.150
 8036POPC   GL260518  25.382  38.413   6.150
 8036POPC   C1A60519  25.223  38.427   6.450
 8036POPC   D2A60520  25.244  38.457   6.750
 8036POPC   C3A60521  25.292  38.427   7.050
 8036POPC   C4A60522  25.247  38.455   7.350
 8036POPC   C1B60523  25.493  38.280   6.450
 8036POPC   C2B60524  25.470  38.360   6.750
 8036POPC   C3B60525  25.523  38.291   7.050
 8036POPC   C4B60526  25.498  38.312   7.350
 8037POPC   NC360527  12.812  21.390   5.550
 8037POPC   PO460528  12.838  21.410   5.850
 8037POPC   GL160529  12.874  21.421   6.150
 8037POPC   GL260530  12.827  21.218   6.150
 8037POPC   C1A60531  12.894  21.392   6.450
 8037POPC   D2A60532  12.874  21.373   6.750
 8037POPC   C3A60533  12.888  21.354   7.050
 8037POPC   C4A60534  12.854  21.352   7.350
 8037POPC   C1B60535  12.738  21.172   6.450
 8037POPC   C2B60536  12.814  21.143   6.750
 8037POPC   C3B60537  12.770  21.144   7.050
 8037POPC   C4B60538  12.838  21.169   7.350
 8038POPC   NC360539  36.120  36.153   5.550
 8038POPC   PO460540  36.142  36.138   5.850
 8038POPC   GL160541  36.095  36.164   6.150
 8038POPC   GL260542  36.205  36.101   6.150
 8038POPC   C1A60543  36.108  36.159   6.450
 8038POPC   D2A60544  36.151  36.087   6.750
 8038POPC   C3A60545  36.158  36.113   7.050
 8038POPC   C4A60546  36.110  36.086   7.350
 8038POPC   C1B60547  36.339  36.019   6.450
 8038POPC   C2B60548  36.338  36.025   6.750
 8038POPC   C3B60549  36.321  35.995   7.050
 8038POPC   C4B60550  36.350  35.999   7.350
 8039POPC   NC360551   9.019  38.459   5.550
 8039POPC   PO460552   9.011  38.415   5.850
 8039POPC   GL160553   8.980  38.465   6.150
 8039POPC   GL260554   8.946  38.375   6.150
 8039POPC   C1A60555   8.953  38.440   6.450
 8039POPC   D2A60556   8.980  38.422   6.750
 8039POPC   C3A60557   8.934  38.494   7.050
 8039POPC   C4A60558   9.017  38.462   7.350
 8039POPC   C1B60559   8.857  38.267   6.450
 8039POPC   C2B60560   8.851  38.215   6.750
 8039POPC   C3B60561   8.911  38.174   7.050
 8039POPC   C4B60562   8.878  38.240   7.350
 8040POPC   NC360563  15.931  39.254   5.550
 8040POPC   PO460564  15.930  39.279   5.850
 8040POPC   GL160565  15.995  39.216   6.150
 8040POPC   GL260566  15.942  39.371   6.150
 8040POPC   C1A60567  15.983  39.270   6.450
 8040POPC   D2A60568  15.941  39.251   6.750
 8040POPC   C3A60569  15.991  39.225   7.050
 8040POPC   C4A60570  15.914  39.183   7.350
 8040POPC   C1B60571  15.908  39.510   6.450
 8040POPC   C2B60572  15.881  39.507   6.750
 8040POPC   C3B60573  15.949  39.471   7.050
 8040POPC   C4B60574  15.899  39.470   7.350
 8041POPC   NC360575  38.436  18.318   5.550
 8041POPC   PO460576  38.427  18.237   5.850
 8041POPC   GL160577  38.458  18.315   6.150
 8041POPC   GL260578  38.367  18.332   6.150
 8041POPC   C1A60579  38.489  18.277   6.450
 8041POPC   D2A60580  38.475  18.275   6.750
 8041POPC   C3A60581  38.462  18.257   7.050
 8041POPC   C4A60582  38.438  18.325   7.350
 8041POPC   C1B60583  38.251  18.435   6.450
 8041POPC   C2B60584  38.205  18.405   6.750
 8041POPC   C3B60585  38.228  18.382   7.050
 8041POPC   C4B60586  38.266  18.407   7.350
 8042POPC   NC360587  22.132  31.478   5.550
 8042POPC   PO460588  22.145  31.453   5.850
 8042POPC   GL160589  22.191  31.444   6.150
 8042POPC   GL260590  22.272  31.530   6.150
 8042POPC   C1A60591  22.159  31.425   6.450
 8042POPC   D2A60592  22.137  31.433   6.750
 8042POPC   C3A60593  22.208  31.522   7.050
 8042POPC   C4A60594  22.189  31.501   7.350
 8042POPC   C1B60595  22.378  31.577   6.450
 8042POPC   C2B60596  22.382  31.651   6.750
 8042POPC   C3B60597  22.403  31.569   7.050
 8042POPC   C4B60598  22.353  31.608   7.350
 8043POPC   NC360599  18.276  36.150   5.550
 8043POPC   PO460600  18.254  36.141   5.850
 8043POPC   GL160601  18.325  36.166   6.150
 8043POPC   GL260602  18.111  36.080   6.150
 8043POPC   C1A60603  18.291  36.149   6.450
 8043POPC   D2A60604  18.305  36.161   6.750
 8043POPC   C3A60605  18.318  36.147   7.050
 8043POPC   C4A60606  18.258  36.175   7.350
 8043POPC   C1B60607  17.995  36.101   6.450
 8043POPC   C2B60608  18.035  36.051   6.750
 8043POPC   C3B60609  18.084  36.095   7.050
 8043POPC   C4B60610  18.039  36.059   7.350
 8044POPC   NC360611  16.763  28.346   5.550
 8044POPC   PO460612  16.757  28.332   5.850
 8044POPC   GL160613  16.709  28.336   6.150
 8044POPC   GL260614  16.676  28.501   6.150
 8044POPC   C1A60615  16.707  28.348   6.450
 8044POPC   D2A60616  16.692  28.382   6.750
 8044POPC   C3A60617  16.704  28.341   7.050
 8044POPC   C4A60618  16.777  28.391   7.350
 8044POPC   C1B60619  16.546  28.582   6.450
 8044POPC   C2B60620  16.569  28.584   6.750
 8044POPC   C3B60621  16.600  28.520   7.050
 8044POPC   C4B60622  16.578  28.522   7.350
 8045POPC   NC360623   2.772  15.175   5.550
 8045POPC   PO460624   2.767  15.181   5.850
 8045POPC   GL160625   2.759  15.221   6.150
 8045POPC   GL260626   2.863  15.135   6.150
 8045POPC   C1A60627   2.748  15.135   6.450
 8045POPC   D2A60628   2.802  15.145   6.750
 8045POPC   C3A60629   2.737  15.227   7.050
 8045POPC   C4A60630   2.790  15.185   7.350
 8045POPC   C1B60631   2.985  15.088   6.450
 8045POPC   C2B60632   2.940  15.063   6.750
 8045POPC   C3B60633   2.931  15.052   7.050
 8045POPC   C4B60634   2.958  15.018   7.350
 8046POPC   NC360635   8.210  32.247   5.550
 8046POPC   PO460636   8.170  32.205   5.850
 8046POPC   GL160637   8.229  32.284   6.150
 8046POPC   GL260638   8.279  32.276   6.150
 8046POPC   C1A60639   8.238  32.291   6.450
 8046POPC   D2A60640   8.219  32.287   6.750
 8046POPC   C3A60641   8.162  32.256   7.050
 8046POPC   C4A60642   8.187  32.229   7.350
 8046POPC   C1B60643   8.467  32.293   6.450
 8046POPC   C2B60644   8.445  32.209   6.750
 8046POPC   C3B60645   8.442  32.211   7.050
 8046POPC   C4B60646   8.430  32.251   7.350
 8047POPC   NC360647  12.079  36.126   5.550
 8047POPC   PO460648  12.067  36.107   5.850
 8047POPC   GL160649  12.061  36.142   6.150
 8047POPC   GL260650  12.104  35.985   6.150
 8047POPC   C1A60651  12.087  36.154   6.450
 8047POPC   D2A60652  12.064  36.156   6.750
 8047POPC   C3A60653  12.058  36.147   7.050
 8047POPC   C4A60654  12.077  36.089   7.350
 8047POPC   C1B60655  12.035  35.924   6.450
 8047POPC   C2B60656  12.067  35.859   6.750
 8047POPC   C3B60657  12.046  35.888   7.050
 8047POPC   C4B60658  12.097  35.875   7.350
 8048POPC   NC360659  39.280  35.313   5.550
 8048POPC   PO460660  39.235  35.353   5.850
 8048POPC   GL160661  39.248  35.359   6.150
 8048POPC   GL260662  39.182  35.507   6.150
 8048POPC   C1A60663  39.256  35.310   6.450
 8048POPC   D2A60664  39.260  35.321   6.750
 8048POPC   C3A60665  39.249  35.370   7.050
 8048POPC   C4A60666  39.275  35.400   7.350
 8048POPC   C1B60667  39.095  35.584   6.450
 8048POPC   C2B60668  39.164  35.579   6.750
 8048POPC   C3B60669  39.152  35.565   7.050
 8048POPC   C4B60670  39.165  35.620   7.350
 8049POPC   NC360671  25.228  27.552   5.550
 8049POPC   PO460672  25.217  27.632   5.850
 8049POPC   GL160673  25.262  27.593   6.150
 8049POPC   GL260674  25.123  27.566   6.150
 8049POPC   C1A60675  25.295  27.551   6.450
 8049POPC   D2A60676  25.250  27.547   6.750
 8049POPC   C3A60677  25.277  27.598   7.050
 8049POPC   C4A60678  25.292  27.641   7.350
 8049POPC   C1B60679  25.067  27.587   6.450
 8049POPC   C2B60680  24.985  27.558   6.750
 8049POPC   C3B60681  25.046  27.535   7.050
 8049POPC   C4B60682  24.984  27.518   7.350
 8050POPC   NC360683  36.117   8.220   5.550
 8050POPC   PO460684  36.174   8.241   5.850
 8050POPC   GL160685  36.176   8.191   6.150
 8050POPC   GL260686  36.013   8.085   6.150
 8050POPC   C1A60687  36.146   8.157   6.450
 8050POPC   D2A60688  36.156   8.184   6.750
 8050POPC   C3A60689  36.176   8.159   7.050
 8050POPC   C4A60690  36.091   8.150   7.350
 8050POPC   C1B60691  35.976   8.055   6.450
 8050POPC   C2B60692  35.955   8.031   6.750
 8050POPC   C3B60693  35.985   8.031   7.050
 8050POPC   C4B60694  35.973   8.043   7.350
 8051POPC   NC360695  42.349  14.381   5.550
 8051POPC   PO460696  42.285  14.408   5.850
 8051POPC   GL160697  42.354  14.426   6.150
 8051POPC   GL260698  42.235  14.371   6.150
 8051POPC   C1A60699  42.292  14.361   6.450
 8051POPC   D2A60700  42.352  14.413   6.750
 8051POPC   C3A60701  42.340  14.383   7.050
 8051POPC   C4A60702  42.291  14.371   7.350
 8051POPC   C1B60703  42.070  14.360   6.450
 8051POPC   C2B60704  42.117  14.373   6.750
 8051POPC   C3B60705  42.118  14.371   7.050
 8051POPC   C4B60706  42.115  14.352   7.350
 8052POPC   NC360707  39.280  44.698   5.550
 8052POPC   PO460708  39.241  44.684   5.850
 8052POPC   GL160709  39.264  44.686   6.150
 8052POPC   GL260710  39.227  44.764   6.150
 8052POPC   C1A60711  39.277  44.695   6.450
 8052POPC   D2A60712  39.222  44.696   6.750
 8052POPC   C3A60713  39.242  44.633   7.050
 8052POPC   C4A60714  39.245  44.617   7.350
 8052POPC   C1B60715  39.180  44.941   6.450
 8052POPC   C2B60716  39.135  44.907   6.750
 8052POPC   C3B60717  39.122  44.914   7.050
 8052POPC   C4B60718  39.136  44.899   7.350
 8053POPC   NC360719   3.589  14.378   5.550
 8053POPC   PO460720   3.562  14.396   5.850
 8053POPC   GL160721   3.548  14.419   6.150
 8053POPC   GL260722   3.420  14.481   6.150
 8053POPC   C1A60723   3.546  14.452   6.450
 8053POPC   D2A60724   3.554  14.375   6.750
 8053POPC   C3A60725   3.515  14.419   7.050
 8053POPC   C4A60726   3.550  14.417   7.350
 8053POPC   C1B60727   3.321  14.518   6.450
 8053POPC   C2B60728   3.304  14.481   6.750
 8053POPC   C3B60729   3.330  14.551   7.050
 8053POPC   C4B60730   3.291  14.456   7.350
 8054POPC   NC360731   5.079  15.217   5.550
 8054POPC   PO460732   5.073  15.181   5.850
 8054POPC   GL160733   5.089  15.148   6.150
 8054POPC   GL260734   4.927  15.228   6.150
 8054POPC   C1A60735   5.142  15.214   6.450
 8054POPC   D2A60736   5.101  15.172   6.750
 8054POPC   C3A60737   5.085  15.228   7.050
 8054POPC   C4A60738   5.067  15.147   7.350
 8054POPC   C1B60739   4.817  15.261   6.450
 8054POPC   C2B60740   4.881  15.217   6.750
 8054POPC   C3B60741   4.865  15.284   7.050
 8054POPC   C4B60742   4.898  15.256   7.350
 8055POPC   NC360743   8.933  42.365   5.550
 8055POPC   PO460744   9.021  42.360   5.850
 8055POPC   GL160745   8.943  42.304   6.150
 8055POPC   GL260746   9.009  42.177   6.150
 8055POPC   C1A60747   8.965  42.321   6.450
 8055POPC   D2A60748   9.006  42.349   6.750
 8055POPC   C3A60749   8.971  42.317   7.050
 8055POPC   C4A60750   8.974  42.356   7.350
 8055POPC   C1B60751   8.929  42.131   6.450
 8055POPC   C2B60752   8.932  42.078   6.750
 8055POPC   C3B60753   9.000  42.080   7.050
 8055POPC   C4B60754   8.963  42.062   7.350
 8056POPC   NC360755  13.606  40.006   5.550
 8056POPC   PO460756  13.643  39.992   5.850
 8056POPC   GL160757  13.594  39.992   6.150
 8056POPC   GL260758  13.664  39.854   6.150
 8056POPC   C1A60759  13.656  40.028   6.450
 8056POPC   D2A60760  13.672  40.014   6.750
 8056POPC   C3A60761  13.643  40.034   7.050
 8056POPC   C4A60762  13.615  40.031   7.350
 8056POPC   C1B60763  13.653  39.778   6.450
 8056POPC   C2B60764  13.709  39.724   6.750
 8056POPC   C3B60765  13.652  39.779   7.050
 8056POPC   C4B60766  13.722  39.806   7.350
 8057POPC   NC360767  25.314   8.188   5.550
 8057POPC   PO460768  25.263   8.163   5.850
 8057POPC   GL160769  25.280   8.200   6.150
 8057POPC   GL260770  25.422   8.161   6.150
 8057POPC   C1A60771  25.314   8.150   6.450
 8057POPC   D2A60772  25.250   8.186   6.750
 8057POPC   C3A60773  25.243   8.162   7.050
 8057POPC   C4A60774  25.260   8.163   7.350
 8057POPC   C1B60775  25.463   8.196   6.450
 8057POPC   C2B60776  25.536   8.104   6.750
 8057POPC   C3B60777  25.476   8.193   7.050
 8057POPC   C4B60778  25.466   8.128   7.350
 8058POPC   NC360779  21.409   9.716   5.550
 8058POPC   PO460780  21.435   9.753   5.850
 8058POPC   GL160781  21.386   9.758   6.150
 8058POPC   GL260782  21.301   9.784   6.150
 8058POPC   C1A60783  21.353   9.765   6.450
 8058POPC   D2A60784  21.338   9.726   6.750
 8058POPC   C3A60785  21.367   9.720   7.050
 8058POPC   C4A60786  21.407   9.755   7.350
 8058POPC   C1B60787  21.171   9.769   6.450
 8058POPC   C2B60788  21.186   9.784   6.750
 8058POPC   C3B60789  21.122   9.759   7.050
 8058POPC   C4B60790  21.087   9.807   7.350
 8059POPC   NC360791   6.634  29.132   5.550
 8059POPC   PO460792   6.655  29.136   5.850
 8059POPC   GL160793   6.652  29.154   6.150
 8059POPC   GL260794   6.536  29.177   6.150
 8059POPC   C1A60795   6.622  29.167   6.450
 8059POPC   D2A60796   6.673  29.154   6.750
 8059POPC   C3A60797   6.606  29.158   7.050
 8059POPC   C4A60798   6.651  29.115   7.350
 8059POPC   C1B60799   6.373  29.155   6.450
 8059POPC   C2B60800   6.372  29.163   6.750
 8059POPC   C3B60801   6.436  29.091   7.050
 8059POPC   C4B60802   6.421  29.171   7.350
 8060POPC   NC360803  32.297  26.090   5.550
 8060POPC   PO460804  32.217  26.050   5.850
 8060POPC   GL160805  32.292  26.057   6.150
 8060POPC   GL260806  32.260  25.917   6.150
 8060POPC   C1A60807  32.228  26.010   6.450
 8060POPC   D2A60808  32.293  26.074   6.750
 8060POPC   C3A60809  32.199  26.060   7.050
 8060POPC   C4A60810  32.234  26.051   7.350
 8060POPC   C1B60811  32.171  25.809   6.450
 8060POPC   C2B60812  32.218  25.796   6.750
 8060POPC   C3B60813  32.172  25.784   7.050
 8060POPC   C4B60814  32.198  25.797   7.350
 8061POPC   NC360815  30.735  33.044   5.550
 8061POPC   PO460816  30.696  32.980   5.850
 8061POPC   GL160817  30.735  33.017   6.150
 8061POPC   GL260818  30.799  32.878   6.150
 8061POPC   C1A60819  30.673  33.023   6.450
 8061POPC   D2A60820  30.727  33.068   6.750
 8061POPC   C3A60821  30.685  33.038   7.050
 8061POPC   C4A60822  30.691  33.018   7.350
 8061POPC   C1B60823  30.808  32.766   6.450
 8061POPC   C2B60824  30.782  32.783   6.750
 8061POPC   C3B60825  30.857  32.834   7.050
 8061POPC   C4B60826  30.807  32.795   7.350
 8062POPC   NC360827  44.681  19.081   5.550
 8062POPC   PO460828  44.665  19.009   5.850
 8062POPC   GL160829  44.673  19.089   6.150
 8062POPC   GL260830  44.595  19.172   6.150
 8062POPC   C1A60831  44.682  19.084   6.450
 8062POPC   D2A60832  44.647  19.092   6.750
 8062POPC   C3A60833  44.654  19.083   7.050
 8062POPC   C4A60834  44.677  19.035   7.350
 8062POPC   C1B60835  44.488  19.203   6.450
 8062POPC   C2B60836  44.446  19.183   6.750
 8062POPC   C3B60837  44.441  19.174   7.050
 8062POPC   C4B60838  44.468  19.216   7.350
 8063POPC   NC360839  30.648  35.388   5.550
 8063POPC   PO460840  30.740  35.367   5.850
 8063POPC   GL160841  30.700  35.345   6.150
 8063POPC   GL260842  30.626  35.513   6.150
 8063POPC   C1A60843  30.746  35.343   6.450
 8063POPC   D2A60844  30.698  35.326   6.750
 8063POPC   C3A60845  30.656  35.367   7.050
 8063POPC   C4A60846  30.668  35.330   7.350
 8063POPC   C1B60847  30.592  35.610   6.450
 8063POPC   C2B60848  30.544  35.590   6.750
 8063POPC   C3B60849  30.576  35.565   7.050
 8063POPC   C4B60850  30.607  35.588   7.350
 8064POPC   NC360851   9.764  15.182   5.550
 8064POPC   PO460852   9.742  15.222   5.850
 8064POPC   GL160853   9.709  15.165   6.150
 8064POPC   GL260854   9.625  15.099   6.150
 8064POPC   C1A60855   9.729  15.183   6.450
 8064POPC   D2A60856   9.748  15.198   6.750
 8064POPC   C3A60857   9.749  15.177   7.050
 8064POPC   C4A60858   9.718  15.171   7.350
 8064POPC   C1B60859   9.548  14.993   6.450
 8064POPC   C2B60860   9.554  14.983   6.750
 8064POPC   C3B60861   9.574  15.059   7.050
 8064POPC   C4B60862   9.549  15.035   7.350
 8065POPC   NC360863  11.344   6.678   5.550
 8065POPC   PO460864  11.308   6.601   5.850
 8065POPC   GL160865  11.340   6.631   6.150
 8065POPC   GL260866  11.395   6.684   6.150
 8065POPC   C1A60867  11.311   6.678   6.450
 8065POPC   D2A60868  11.348   6.637   6.750
 8065POPC   C3A60869  11.305   6.655   7.050
 8065POPC   C4A60870  11.275   6.689   7.350
 8065POPC   C1B60871  11.491   6.835   6.450
 8065POPC   C2B60872  11.510   6.805   6.750
 8065POPC   C3B60873  11.434   6.864   7.050
 8065POPC   C4B60874  11.479   6.862   7.350
 8066POPC   NC360875  14.408  32.231   5.550
 8066POPC   PO460876  14.421  32.287   5.850
 8066POPC   GL160877  14.380  32.255   6.150
 8066POPC   GL260878  14.480  32.374   6.150
 8066POPC   C1A60879  14.395  32.270   6.450
 8066POPC   D2A60880  14.379  32.218   6.750
 8066POPC   C3A60881  14.419  32.240   7.050
 8066POPC   C4A60882  14.380  32.268   7.350
 8066POPC   C1B60883  14.540  32.447   6.450
 8066POPC   C2B60884  14.627  32.414   6.750
 8066POPC   C3B60885  14.593  32.470   7.050
 8066POPC   C4B60886  14.550  32.389   7.350
 8067POPC   NC360887   1.997   2.744   5.550
 8067POPC   PO460888   1.992   2.729   5.850
 8067POPC   GL160889   1.941   2.767   6.150
 8067POPC   GL260890   1.971   2.665   6.150
 8067POPC   C1A60891   2.004   2.759   6.450
 8067POPC   D2A60892   1.992   2.742   6.750
 8067POPC   C3A60893   1.954   2.756   7.050
 8067POPC   C4A60894   1.991   2.789   7.350
 8067POPC   C1B60895   2.044   2.539   6.450
 8067POPC   C2B60896   2.050   2.498   6.750
 8067POPC   C3B60897   1.972   2.469   7.050
 8067POPC   C4B60898   1.978   2.494   7.350
 8068POPC   NC360899  11.330  10.502   5.550
 8068POPC   PO460900  11.276  10.550   5.850
 8068POPC   GL160901  11.335  10.561   6.150
 8068POPC   GL260902  11.399  10.624   6.150
 8068POPC   C1A60903  11.326  10.509   6.450
 8068POPC   D2A60904  11.341  10.563   6.750
 8068POPC   C3A60905  11.330  10.483   7.050
 8068POPC   C4A60906  11.305  10.513   7.350
 8068POPC   C1B60907  11.478  10.644   6.450
 8068POPC   C2B60908  11.530  10.667   6.750
 8068POPC   C3B60909  11.565  10.696   7.050
 8068POPC   C4B60910  11.494  10.639   7.350
 8069POPC   NC360911  22.148  36.868   5.550
 8069POPC   PO460912  22.191  36.940   5.850
 8069POPC   GL160913  22.143  36.943   6.150
 8069POPC   GL260914  22.271  36.849   6.150
 8069POPC   C1A60915  22.147  36.931   6.450
 8069POPC   D2A60916  22.164  36.856   6.750
 8069POPC   C3A60917  22.195  36.939   7.050
 8069POPC   C4A60918  22.116  36.940   7.350
 8069POPC   C1B60919  22.435  36.841   6.450
 8069POPC   C2B60920  22.392  36.894   6.750
 8069POPC   C3B60921  22.374  36.897   7.050
 8069POPC   C4B60922  22.364  36.875   7.350
 8070POPC   NC360923   4.322  38.443   5.550
 8070POPC   PO460924   4.308  38.432   5.850
 8070POPC   GL160925   4.274  38.431   6.150
 8070POPC   GL260926   4.477  38.494   6.150
 8070POPC   C1A60927   4.316  38.412   6.450
 8070POPC   D2A60928   4.343  38.433   6.750
 8070POPC   C3A60929   4.274  38.477   7.050
 8070POPC   C4A60930   4.307  38.441   7.350
 8070POPC   C1B60931   4.571  38.579   6.450
 8070POPC   C2B60932   4.495  38.553   6.750
 8070POPC   C3B60933   4.556  38.589   7.050
 8070POPC   C4B60934   4.502  38.564   7.350
 8071POPC   NC360935  19.875   9.779   5.550
 8071POPC   PO460936  19.828   9.709   5.850
 8071POPC   GL160937  19.790   9.796   6.150
 8071POPC   GL260938  19.905   9.830   6.150
 8071POPC   C1A60939  19.789   9.797   6.450
 8071POPC   D2A60940  19.849   9.756   6.750
 8071POPC   C3A60941  19.807   9.708   7.050
 8071POPC   C4A60942  19.868   9.712   7.350
 8071POPC   C1B60943  19.993   9.859   6.450
 8071POPC   C2B60944  20.065   9.904   6.750
 8071POPC   C3B60945  20.062   9.924   7.050
 8071POPC   C4B60946  19.979   9.912   7.350
 8072POPC   NC360947  43.899   6.675   5.550
 8072POPC   PO460948  43.900   6.650   5.850
 8072POPC   GL160949  43.845   6.621   6.150
 8072POPC   GL260950  43.909   6.768   6.150
 8072POPC   C1A60951  43.880   6.654   6.450
 8072POPC   D2A60952  43.897   6.639   6.750
 8072POPC   C3A60953  43.849   6.664   7.050
 8072POPC   C4A60954  43.876   6.639   7.350
 8072POPC   C1B60955  43.967   6.857   6.450
 8072POPC   C2B60956  43.988   6.874   6.750
 8072POPC   C3B60957  43.985   6.862   7.050
 8072POPC   C4B60958  43.923   6.908   7.350
 8073POPC   NC360959  18.272  14.426   5.550
 8073POPC   PO460960  18.308  14.428   5.850
 8073POPC   GL160961  18.301  14.418   6.150
 8073POPC   GL260962  18.125  14.355   6.150
 8073POPC   C1A60963  18.246  14.364   6.450
 8073POPC   D2A60964  18.248  14.428   6.750
 8073POPC   C3A60965  18.256  14.452   7.050
 8073POPC   C4A60966  18.282  14.389   7.350
 8073POPC   C1B60967  18.046  14.263   6.450
 8073POPC   C2B60968  18.103  14.291   6.750
 8073POPC   C3B60969  18.017  14.322   7.050
 8073POPC   C4B60970  18.038  14.263   7.350
 8074POPC   NC360971   8.976   9.772   5.550
 8074POPC   PO460972   9.019   9.707   5.850
 8074POPC   GL160973   8.979   9.789   6.150
 8074POPC   GL260974   8.874   9.875   6.150
 8074POPC   C1A60975   9.013   9.760   6.450
 8074POPC   D2A60976   8.931   9.740   6.750
 8074POPC   C3A60977   8.926   9.748   7.050
 8074POPC   C4A60978   9.017   9.750   7.350
 8074POPC   C1B60979   8.884   9.955   6.450
 8074POPC   C2B60980   8.908   9.992   6.750
 8074POPC   C3B60981   8.922   9.976   7.050
 8074POPC   C4B60982   8.891  10.014   7.350
 8075POPC   NC360983  26.073  26.805   5.550
 8075POPC   PO460984  26.049  26.787   5.850
 8075POPC   GL160985  26.078  26.793   6.150
 8075POPC   GL260986  26.076  26.691   6.150
 8075POPC   C1A60987  26.036  26.805   6.450
 8075POPC   D2A60988  26.068  26.839   6.750
 8075POPC   C3A60989  26.053  26.775   7.050
 8075POPC   C4A60990  26.056  26.801   7.350
 8075POPC   C1B60991  26.018  26.602   6.450
 8075POPC   C2B60992  26.008  26.519   6.750
 8075POPC   C3B60993  26.051  26.573   7.050
 8075POPC   C4B60994  26.071  26.581   7.350
 8076POPC   NC360995  24.483  34.589   5.550
 8076POPC   PO460996  24.514  34.570   5.850
 8076POPC   GL160997  24.465  34.589   6.150
 8076POPC   GL260998  24.516  34.656   6.150
 8076POPC   C1A60999  24.475  34.532   6.450
 8076POPC   D2A61000  24.521  34.561   6.750
 8076POPC   C3A61001  24.503  34.583   7.050
 8076POPC   C4A61002  24.525  34.555   7.350
 8076POPC   C1B61003  24.603  34.813   6.450
 8076POPC   C2B61004  24.649  34.754   6.750
 8076POPC   C3B61005  24.576  34.774   7.050
 8076POPC   C4B61006  24.556  34.759   7.350
 8077POPC   NC361007  28.370   5.116   5.550
 8077POPC   PO461008  28.322   5.102   5.850
 8077POPC   GL161009  28.385   5.122   6.150
 8077POPC   GL261010  28.474   5.026   6.150
 8077POPC   C1A61011  28.371   5.065   6.450
 8077POPC   D2A61012  28.411   5.079   6.750
 8077POPC   C3A61013  28.395   5.061   7.050
 8077POPC   C4A61014  28.329   5.046   7.350
 8077POPC   C1B61015  28.524   4.869   6.450
 8077POPC   C2B61016  28.552   4.958   6.750
 8077POPC   C3B61017  28.541   4.894   7.050
 8077POPC   C4B61018  28.575   4.892   7.350
 8078POPC   NC361019  13.675  41.595   5.550
 8078POPC   PO461020  13.604  41.533   5.850
 8078POPC   GL161021  13.618  41.514   6.150
 8078POPC   GL261022  13.700  41.688   6.150
 8078POPC   C1A61023  13.675  41.576   6.450
 8078POPC   D2A61024  13.591  41.523   6.750
 8078POPC   C3A61025  13.637  41.528   7.050
 8078POPC   C4A61026  13.636  41.584   7.350
 8078POPC   C1B61027  13.692  41.790   6.450
 8078POPC   C2B61028  13.633  41.797   6.750
 8078POPC   C3B61029  13.717  41.818   7.050
 8078POPC   C4B61030  13.645  41.841   7.350
 8079POPC   NC361031  11.285  21.348   5.550
 8079POPC   PO461032  11.326  21.369   5.850
 8079POPC   GL161033  11.289  21.355   6.150
 8079POPC   GL261034  11.268  21.247   6.150
 8079POPC   C1A61035  11.274  21.407   6.450
 8079POPC   D2A61036  11.321  21.341   6.750
 8079POPC   C3A61037  11.256  21.357   7.050
 8079POPC   C4A61038  11.308  21.396   7.350
 8079POPC   C1B61039  11.161  21.195   6.450
 8079POPC   C2B61040  11.133  21.191   6.750
 8079POPC   C3B61041  11.186  21.134   7.050
 8079POPC   C4B61042  11.173  21.154   7.350
 8080POPC   NC361043   9.010  21.428   5.550
 8080POPC   PO461044   9.007  21.420   5.850
 8080POPC   GL161045   8.959  21.361   6.150
 8080POPC   GL261046   8.894  21.320   6.150
 8080POPC   C1A61047   8.967  21.423   6.450
 8080POPC   D2A61048   8.927  21.400   6.750
 8080POPC   C3A61049   8.927  21.418   7.050
 8080POPC   C4A61050   8.979  21.393   7.350
 8080POPC   C1B61051   8.867  21.227   6.450
 8080POPC   C2B61052   8.854  21.146   6.750
 8080POPC   C3B61053   8.783  21.175   7.050
 8080POPC   C4B61054   8.874  21.166   7.350
 8081POPC   NC361055  42.364  44.700   5.550
 8081POPC   PO461056  42.369  44.648   5.850
 8081POPC   GL161057  42.373  44.688   6.150
 8081POPC   GL261058  42.321  44.732   6.150
 8081POPC   C1A61059  42.351  44.654   6.450
 8081POPC   D2A61060  42.371  44.657   6.750
 8081POPC   C3A61061  42.316  44.617   7.050
 8081POPC   C4A61062  42.352  44.628   7.350
 8081POPC   C1B61063  42.374  44.952   6.450
 8081POPC   C2B61064  42.409  44.922   6.750
 8081POPC   C3B61065  42.430  44.922   7.050
 8081POPC   C4B61066  42.451  44.939   7.350
 8082POPC   NC361067  26.080   8.996   5.550
 8082POPC   PO461068  26.060   9.009   5.850
 8082POPC   GL161069  25.999   8.984   6.150
 8082POPC   GL261070  25.913   9.027   6.150
 8082POPC   C1A61071  26.070   8.936   6.450
 8082POPC   D2A61072  26.007   9.004   6.750
 8082POPC   C3A61073  26.044   8.961   7.050
 8082POPC   C4A61074  26.021   9.009   7.350
 8082POPC   C1B61075  25.815   9.047   6.450
 8082POPC   C2B61076  25.818   9.018   6.750
 8082POPC   C3B61077  25.814   9.092   7.050
 8082POPC   C4B61078  25.759   9.087   7.350
 8083POPC   NC361079   8.977  37.634   5.550
 8083POPC   PO461080   8.923  37.723   5.850
 8083POPC   GL161081   8.931  37.636   6.150
 8083POPC   GL261082   9.079  37.547   6.150
 8083POPC   C1A61083   9.003  37.673   6.450
 8083POPC   D2A61084   8.933  37.676   6.750
 8083POPC   C3A61085   9.012  37.716   7.050
 8083POPC   C4A61086   8.979  37.658   7.350
 8083POPC   C1B61087   9.131  37.481   6.450
 8083POPC   C2B61088   9.100  37.475   6.750
 8083POPC   C3B61089   9.118  37.476   7.050
 8083POPC   C4B61090   9.136  37.489   7.350
 8084POPC   NC361091  32.253  34.615   5.550
 8084POPC   PO461092  32.208  34.619   5.850
 8084POPC   GL161093  32.265  34.528   6.150
 8084POPC   GL261094  32.342  34.619   6.150
 8084POPC   C1A61095  32.297  34.621   6.450
 8084POPC   D2A61096  32.267  34.559   6.750
 8084POPC   C3A61097  32.220  34.539   7.050
 8084POPC   C4A61098  32.279  34.600   7.350
 8084POPC   C1B61099  32.474  34.715   6.450
 8084POPC   C2B61100  32.461  34.733   6.750
 8084POPC   C3B61101  32.453  34.750   7.050
 8084POPC   C4B61102  32.401  34.726   7.350
 8085POPC   NC361103  23.746  22.177   5.550
 8085POPC   PO461104  23.747  22.175   5.850
 8085POPC   GL161105  23.677  22.158   6.150
 8085POPC   GL261106  23.833  22.184   6.150
 8085POPC   C1A61107  23.740  22.154   6.450
 8085POPC   D2A61108  23.758  22.208   6.750
 8085POPC   C3A61109  23.698  22.166   7.050
 8085POPC   C4A61110  23.736  22.126   7.350
 8085POPC   C1B61111  23.957  22.275   6.450
 8085POPC   C2B61112  23.951  22.253   6.750
 8085POPC   C3B61113  23.963  22.221   7.050
 8085POPC   C4B61114  23.987  22.298   7.350
 8086POPC   NC361115  15.223   2.754   5.550
 8086POPC   PO461116  15.211   2.716   5.850
 8086POPC   GL161117  15.208   2.784   6.150
 8086POPC   GL261118  15.273   2.717   6.150
 8086POPC   C1A61119  15.210   2.779   6.450
 8086POPC   D2A61120  15.162   2.753   6.750
 8086POPC   C3A61121  15.149   2.773   7.050
 8086POPC   C4A61122  15.146   2.750   7.350
 8086POPC   C1B61123  15.396   2.719   6.450
 8086POPC   C2B61124  15.457   2.664   6.750
 8086POPC   C3B61125  15.434   2.752   7.050
 8086POPC   C4B61126  15.396   2.750   7.350
 8087POPC   NC361127  22.127   5.098   5.550
 8087POPC   PO461128  22.143   5.045   5.850
 8087POPC   GL161129  22.184   5.098   6.150
 8087POPC   GL261130  22.103   5.231   6.150
 8087POPC   C1A61131  22.114   5.135   6.450
 8087POPC   D2A61132  22.185   5.096   6.750
 8087POPC   C3A61133  22.181   5.093   7.050
 8087POPC   C4A61134  22.113   5.069   7.350
 8087POPC   C1B61135  22.009   5.260   6.450
 8087POPC   C2B61136  21.999   5.327   6.750
 8087POPC   C3B61137  22.020   5.307   7.050
 8087POPC   C4B61138  22.023   5.297   7.350
 8088POPC   NC361139   3.532   2.019   5.550
 8088POPC   PO461140   3.562   1.971   5.850
 8088POPC   GL161141   3.573   1.966   6.150
 8088POPC   GL261142   3.696   2.024   6.150
 8088POPC   C1A61143   3.495   1.949   6.450
 8088POPC   D2A61144   3.506   1.993   6.750
 8088POPC   C3A61145   3.500   1.948   7.050
 8088POPC   C4A61146   3.493   1.992   7.350
 8088POPC   C1B61147   3.730   2.080   6.450
 8088POPC   C2B61148   3.733   2.100   6.750
 8088POPC   C3B61149   3.748   2.100   7.050
 8088POPC   C4B61150   3.754   2.100   7.350
 8089POPC   NC361151  12.894  12.832   5.550
 8089POPC   PO461152  12.838  12.879   5.850
 8089POPC   GL161153  12.825  12.899   6.150
 8089POPC   GL261154  12.977  12.865   6.150
 8089POPC   C1A61155  12.834  12.889   6.450
 8089POPC   D2A61156  12.885  12.865   6.750
 8089POPC   C3A61157  12.814  12.890   7.050
 8089POPC   C4A61158  12.866  12.804   7.350
 8089POPC   C1B61159  13.049  12.948   6.450
 8089POPC   C2B61160  13.070  12.904   6.750
 8089POPC   C3B61161  13.063  12.949   7.050
 8089POPC   C4B61162  13.119  12.877   7.350
 8090POPC   NC361163  12.121  40.031   5.550
 8090POPC   PO461164  12.039  39.991   5.850
 8090POPC   GL161165  12.049  39.965   6.150
 8090POPC   GL261166  12.104  39.887   6.150
 8090POPC   C1A61167  12.056  40.052   6.450
 8090POPC   D2A61168  12.075  40.001   6.750
 8090POPC   C3A61169  12.049  39.969   7.050
 8090POPC   C4A61170  12.040  40.036   7.350
 8090POPC   C1B61171  12.185  39.787   6.450
 8090POPC   C2B61172  12.173  39.829   6.750
 8090POPC   C3B61173  12.232  39.758   7.050
 8090POPC   C4B61174  12.189  39.788   7.350
 8091POPC   NC361175  33.020  43.062   5.550
 8091POPC   PO461176  32.998  43.064   5.850
 8091POPC   GL161177  33.001  43.105   6.150
 8091POPC   GL261178  33.168  43.201   6.150
 8091POPC   C1A61179  33.003  43.099   6.450
 8091POPC   D2A61180  33.029  43.064   6.750
 8091POPC   C3A61181  33.070  43.148   7.050
 8091POPC   C4A61182  33.038  43.108   7.350
 8091POPC   C1B61183  33.245  43.262   6.450
 8091POPC   C2B61184  33.265  43.256   6.750
 8091POPC   C3B61185  33.275  43.281   7.050
 8091POPC   C4B61186  33.261  43.284   7.350
 8092POPC   NC361187   8.213   3.522   5.550
 8092POPC   PO461188   8.198   3.561   5.850
 8092POPC   GL161189   8.164   3.531   6.150
 8092POPC   GL261190   8.189   3.676   6.150
 8092POPC   C1A61191   8.185   3.559   6.450
 8092POPC   D2A61192   8.181   3.572   6.750
 8092POPC   C3A61193   8.210   3.522   7.050
 8092POPC   C4A61194   8.243   3.544   7.350
 8092POPC   C1B61195   8.296   3.803   6.450
 8092POPC   C2B61196   8.288   3.742   6.750
 8092POPC   C3B61197   8.286   3.742   7.050
 8092POPC   C4B61198   8.235   3.811   7.350
 8093POPC   NC361199   5.072  39.190   5.550
 8093POPC   PO461200   5.125  39.259   5.850
 8093POPC   GL161201   5.050  39.201   6.150
 8093POPC   GL261202   4.981  39.283   6.150
 8093POPC   C1A61203   5.066  39.258   6.450
 8093POPC   D2A61204   5.108  39.263   6.750
 8093POPC   C3A61205   5.127  39.218   7.050
 8093POPC   C4A61206   5.074  39.254   7.350
 8093POPC   C1B61207   4.960  39.387   6.450
 8093POPC   C2B61208   4.966  39.375   6.750
 8093POPC   C3B61209   4.936  39.368   7.050
 8093POPC   C4B61210   4.962  39.363   7.350
 8094POPC   NC361211  31.516  20.571   5.550
 8094POPC   PO461212  31.521  20.600   5.850
 8094POPC   GL161213  31.511  20.618   6.150
 8094POPC   GL261214  31.324  20.690   6.150
 8094POPC   C1A61215  31.437  20.587   6.450
 8094POPC   D2A61216  31.458  20.602   6.750
 8094POPC   C3A61217  31.440  20.585   7.050
 8094POPC   C4A61218  31.469  20.611   7.350
 8094POPC   C1B61219  31.278  20.756   6.450
 8094POPC   C2B61220  31.320  20.735   6.750
 8094POPC   C3B61221  31.321  20.809   7.050
 8094POPC   C4B61222  31.256  20.795   7.350
 8095POPC   NC361223  28.330  29.874   5.550
 8095POPC   PO461224  28.328  29.893   5.850
 8095POPC   GL161225  28.340  29.928   6.150
 8095POPC   GL261226  28.273  29.952   6.150
 8095POPC   C1A61227  28.328  29.938   6.450
 8095POPC   D2A61228  28.374  29.927   6.750
 8095POPC   C3A61229  28.393  29.906   7.050
 8095POPC   C4A61230  28.392  29.961   7.350
 8095POPC   C1B61231  28.115  30.069   6.450
 8095POPC   C2B61232  28.158  30.058   6.750
 8095POPC   C3B61233  28.132  30.030   7.050
 8095POPC   C4B61234  28.166  30.059   7.350
 8096POPC   NC361235   6.680  32.238   5.550
 8096POPC   PO461236   6.640  32.239   5.850
 8096POPC   GL161237   6.676  32.295   6.150
 8096POPC   GL261238   6.690  32.170   6.150
 8096POPC   C1A61239   6.634  32.240   6.450
 8096POPC   D2A61240   6.597  32.236   6.750
 8096POPC   C3A61241   6.606  32.202   7.050
 8096POPC   C4A61242   6.659  32.218   7.350
 8096POPC   C1B61243   6.785  32.068   6.450
 8096POPC   C2B61244   6.815  32.083   6.750
 8096POPC   C3B61245   6.769  32.045   7.050
 8096POPC   C4B61246   6.820  32.107   7.350
 8097POPC   NC361247  43.853  22.126   5.550
 8097POPC   PO461248  43.902  22.158   5.850
 8097POPC   GL161249  43.857  22.170   6.150
 8097POPC   GL261250  43.835  22.040   6.150
 8097POPC   C1A61251  43.911  22.163   6.450
 8097POPC   D2A61252  43.914  22.150   6.750
 8097POPC   C3A61253  43.842  22.120   7.050
 8097POPC   C4A61254  43.852  22.112   7.350
 8097POPC   C1B61255  43.847  21.889   6.450
 8097POPC   C2B61256  43.836  21.948   6.750
 8097POPC   C3B61257  43.848  21.884   7.050
 8097POPC   C4B61258  43.777  21.955   7.350
 8098POPC   NC361259  30.655   2.733   5.550
 8098POPC   PO461260  30.745   2.719   5.850
 8098POPC   GL161261  30.732   2.774   6.150
 8098POPC   GL261262  30.850   2.719   6.150
 8098POPC   C1A61263  30.703   2.728   6.450
 8098POPC   D2A61264  30.711   2.722   6.750
 8098POPC   C3A61265  30.706   2.763   7.050
 8098POPC   C4A61266  30.716   2.790   7.350
 8098POPC   C1B61267  30.945   2.635   6.450
 8098POPC   C2B61268  30.895   2.707   6.750
 8098POPC   C3B61269  30.890   2.627   7.050
 8098POPC   C4B61270  30.915   2.640   7.350
 8099POPC   NC361271  12.070  29.140   5.550
 8099POPC   PO461272  12.064  29.126   5.850
 8099POPC   GL161273  12.115  29.160   6.150
 8099POPC   GL261274  11.937  29.172   6.150
 8099POPC   C1A61275  12.114  29.109   6.450
 8099POPC   D2A61276  12.043  29.134   6.750
 8099POPC   C3A61277  12.074  29.156   7.050
 8099POPC   C4A61278  12.090  29.097   7.350
 8099POPC   C1B61279  11.849  29.181   6.450
 8099POPC   C2B61280  11.822  29.185   6.750
 8099POPC   C3B61281  11.819  29.188   7.050
 8099POPC   C4B61282  11.851  29.182   7.350
 8100POPC   NC361283  43.158  27.560   5.550
 8100POPC   PO461284  43.132  27.581   5.850
 8100POPC   GL161285  43.091  27.587   6.150
 8100POPC   GL261286  43.152  27.490   6.150
 8100POPC   C1A61287  43.064  27.614   6.450
 8100POPC   D2A61288  43.144  27.606   6.750
 8100POPC   C3A61289  43.147  27.591   7.050
 8100POPC   C4A61290  43.088  27.553   7.350
 8100POPC   C1B61291  43.247  27.380   6.450
 8100POPC   C2B61292  43.289  27.430   6.750
 8100POPC   C3B61293  43.300  27.456   7.050
 8100POPC   C4B61294  43.322  27.398   7.350
 8101POPC   NC361295  26.068  33.036   5.550
 8101POPC   PO461296  26.021  33.046   5.850
 8101POPC   GL161297  26.001  32.984   6.150
 8101POPC   GL261298  26.022  32.863   6.150
 8101POPC   C1A61299  26.039  33.059   6.450
 8101POPC   D2A61300  26.037  33.056   6.750
 8101POPC   C3A61301  26.081  33.047   7.050
 8101POPC   C4A61302  26.021  33.047   7.350
 8101POPC   C1B61303  26.036  32.815   6.450
 8101POPC   C2B61304  26.064  32.793   6.750
 8101POPC   C3B61305  26.073  32.782   7.050
 8101POPC   C4B61306  26.003  32.809   7.350
 8102POPC   NC361307  19.854  14.379   5.550
 8102POPC   PO461308  19.810  14.430   5.850
 8102POPC   GL161309  19.795  14.354   6.150
 8102POPC   GL261310  19.856  14.532   6.150
 8102POPC   C1A61311  19.830  14.358   6.450
 8102POPC   D2A61312  19.787  14.408   6.750
 8102POPC   C3A61313  19.847  14.395   7.050
 8102POPC   C4A61314  19.834  14.375   7.350
 8102POPC   C1B61315  19.898  14.688   6.450
 8102POPC   C2B61316  19.931  14.609   6.750
 8102POPC   C3B61317  19.954  14.620   7.050
 8102POPC   C4B61318  19.918  14.608   7.350
 8103POPC   NC361319  22.915   8.157   5.550
 8103POPC   PO461320  22.892   8.207   5.850
 8103POPC   GL161321  22.915   8.213   6.150
 8103POPC   GL261322  23.023   8.095   6.150
 8103POPC   C1A61323  22.943   8.184   6.450
 8103POPC   D2A61324  22.973   8.173   6.750
 8103POPC   C3A61325  22.939   8.244   7.050
 8103POPC   C4A61326  22.956   8.237   7.350
 8103POPC   C1B61327  23.135   8.062   6.450
 8103POPC   C2B61328  23.150   8.082   6.750
 8103POPC   C3B61329  23.169   8.110   7.050
 8103POPC   C4B61330  23.126   8.098   7.350
 8104POPC   NC361331   2.755   6.682   5.550
 8104POPC   PO461332   2.728   6.648   5.850
 8104POPC   GL161333   2.807   6.601   6.150
 8104POPC   GL261334   2.679   6.678   6.150
 8104POPC   C1A61335   2.722   6.616   6.450
 8104POPC   D2A61336   2.812   6.657   6.750
 8104POPC   C3A61337   2.797   6.679   7.050
 8104POPC   C4A61338   2.770   6.645   7.350
 8104POPC   C1B61339   2.550   6.606   6.450
 8104POPC   C2B61340   2.545   6.576   6.750
 8104POPC   C3B61341   2.471   6.604   7.050
 8104POPC   C4B61342   2.558   6.610   7.350
 8105POPC   NC361343  40.759  14.382   5.550
 8105POPC   PO461344  40.755  14.446   5.850
 8105POPC   GL161345  40.782  14.367   6.150
 8105POPC   GL261346  40.772  14.242   6.150
 8105POPC   C1A61347  40.789  14.427   6.450
 8105POPC   D2A61348  40.815  14.447   6.750
 8105POPC   C3A61349  40.824  14.436   7.050
 8105POPC   C4A61350  40.792  14.430   7.350
 8105POPC   C1B61351  40.859  14.135   6.450
 8105POPC   C2B61352  40.862  14.188   6.750
 8105POPC   C3B61353  40.818  14.178   7.050
 8105POPC   C4B61354  40.805  14.199   7.350
 8106POPC   NC361355   7.435  22.193   5.550
 8106POPC   PO461356   7.400  22.163   5.850
 8106POPC   GL161357   7.411  22.171   6.150
 8106POPC   GL261358   7.381  22.240   6.150
 8106POPC   C1A61359   7.469  22.141   6.450
 8106POPC   D2A61360   7.433  22.129   6.750
 8106POPC   C3A61361   7.392  22.164   7.050
 8106POPC   C4A61362   7.454  22.137   7.350
 8106POPC   C1B61363   7.278  22.363   6.450
 8106POPC   C2B61364   7.295  22.415   6.750
 8106POPC   C3B61365   7.306  22.410   7.050
 8106POPC   C4B61366   7.295  22.379   7.350
 8107POPC   NC361367  31.434  23.732   5.550
 8107POPC   PO461368  31.466  23.698   5.850
 8107POPC   GL161369  31.505  23.729   6.150
 8107POPC   GL261370  31.434  23.819   6.150
 8107POPC   C1A61371  31.511  23.696   6.450
 8107POPC   D2A61372  31.435  23.733   6.750
 8107POPC   C3A61373  31.487  23.669   7.050
 8107POPC   C4A61374  31.481  23.711   7.350
 8107POPC   C1B61375  31.445  23.917   6.450
 8107POPC   C2B61376  31.520  23.982   6.750
 8107POPC   C3B61377  31.501  23.997   7.050
 8107POPC   C4B61378  31.434  23.955   7.350
 8108POPC   NC361379  24.479  36.145   5.550
 8108POPC   PO461380  24.493  36.088   5.850
 8108POPC   GL161381  24.490  36.142   6.150
 8108POPC   GL261382  24.422  36.066   6.150
 8108POPC   C1A61383  24.512  36.098   6.450
 8108POPC   D2A61384  24.525  36.132   6.750
 8108POPC   C3A61385  24.472  36.088   7.050
 8108POPC   C4A61386  24.518  36.169   7.350
 8108POPC   C1B61387  24.322  35.998   6.450
 8108POPC   C2B61388  24.296  35.921   6.750
 8108POPC   C3B61389  24.267  35.996   7.050
 8108POPC   C4B61390  24.278  35.997   7.350
 8109POPC   NC361391  37.662  17.495   5.550
 8109POPC   PO461392  37.672  17.496   5.850
 8109POPC   GL161393  37.709  17.505   6.150
 8109POPC   GL261394  37.554  17.588   6.150
 8109POPC   C1A61395  37.702  17.478   6.450
 8109POPC   D2A61396  37.667  17.537   6.750
 8109POPC   C3A61397  37.718  17.469   7.050
 8109POPC   C4A61398  37.642  17.529   7.350
 8109POPC   C1B61399  37.417  17.587   6.450
 8109POPC   C2B61400  37.408  17.566   6.750
 8109POPC   C3B61401  37.460  17.614   7.050
 8109POPC   C4B61402  37.443  17.619   7.350
 8110POPC   NC361403  38.456   2.739   5.550
 8110POPC   PO461404  38.434   2.737   5.850
 8110POPC   GL161405  38.505   2.778   6.150
 8110POPC   GL261406  38.418   2.908   6.150
 8110POPC   C1A61407  38.455   2.813   6.450
 8110POPC   D2A61408  38.413   2.749   6.750
 8110POPC   C3A61409  38.488   2.766   7.050
 8110POPC   C4A61410  38.456   2.778   7.350
 8110POPC   C1B61411  38.417   3.051   6.450
 8110POPC   C2B61412  38.437   3.034   6.750
 8110POPC   C3B61413  38.421   2.979   7.050
 8110POPC   C4B61414  38.402   2.990   7.350
 8111POPC   NC361415  26.040  30.732   5.550
 8111POPC   PO461416  26.087  30.698   5.850
 8111POPC   GL161417  26.083  30.692   6.150
 8111POPC   GL261418  25.941  30.666   6.150
 8111POPC   C1A61419  26.011  30.652   6.450
 8111POPC   D2A61420  26.041  30.719   6.750
 8111POPC   C3A61421  25.996  30.660   7.050
 8111POPC   C4A61422  26.063  30.745   7.350
 8111POPC   C1B61423  25.806  30.567   6.450
 8111POPC   C2B61424  25.853  30.561   6.750
 8111POPC   C3B61425  25.878  30.520   7.050
 8111POPC   C4B61426  25.804  30.495   7.350
 8112POPC   NC361427  11.263  28.395   5.550
 8112POPC   PO461428  11.318  28.337   5.850
 8112POPC   GL161429  11.346  28.332   6.150
 8112POPC   GL261430  11.149  28.472   6.150
 8112POPC   C1A61431  11.300  28.395   6.450
 8112POPC   D2A61432  11.346  28.414   6.750
 8112POPC   C3A61433  11.309  28.342   7.050
 8112POPC   C4A61434  11.335  28.408   7.350
 8112POPC   C1B61435  11.041  28.523   6.450
 8112POPC   C2B61436  11.125  28.461   6.750
 8112POPC   C3B61437  11.100  28.528   7.050
 8112POPC   C4B61438  11.112  28.469   7.350
 8113POPC   NC361439  34.595  16.689   5.550
 8113POPC   PO461440  34.592  16.743   5.850
 8113POPC   GL161441  34.545  16.760   6.150
 8113POPC   GL261442  34.505  16.841   6.150
 8113POPC   C1A61443  34.573  16.773   6.450
 8113POPC   D2A61444  34.586  16.706   6.750
 8113POPC   C3A61445  34.527  16.775   7.050
 8113POPC   C4A61446  34.623  16.754   7.350
 8113POPC   C1B61447  34.377  16.866   6.450
 8113POPC   C2B61448  34.366  16.826   6.750
 8113POPC   C3B61449  34.367  16.822   7.050
 8113POPC   C4B61450  34.350  16.867   7.350
 8114POPC   NC361451  33.037   2.776   5.550
 8114POPC   PO461452  33.049   2.793   5.850
 8114POPC   GL161453  33.003   2.716   6.150
 8114POPC   GL261454  33.028   2.622   6.150
 8114POPC   C1A61455  32.985   2.770   6.450
 8114POPC   D2A61456  33.028   2.764   6.750
 8114POPC   C3A61457  33.022   2.773   7.050
 8114POPC   C4A61458  32.995   2.804   7.350
 8114POPC   C1B61459  33.048   2.522   6.450
 8114POPC   C2B61460  33.103   2.545   6.750
 8114POPC   C3B61461  33.134   2.544   7.050
 8114POPC   C4B61462  33.120   2.551   7.350
 8115POPC   NC361463  10.557  35.323   5.550
 8115POPC   PO461464  10.501  35.401   5.850
 8115POPC   GL161465  10.523  35.355   6.150
 8115POPC   GL261466  10.660  35.402   6.150
 8115POPC   C1A61467  10.514  35.307   6.450
 8115POPC   D2A61468  10.570  35.324   6.750
 8115POPC   C3A61469  10.498  35.360   7.050
 8115POPC   C4A61470  10.541  35.384   7.350
 8115POPC   C1B61471  10.747  35.447   6.450
 8115POPC   C2B61472  10.784  35.469   6.750
 8115POPC   C3B61473  10.798  35.490   7.050
 8115POPC   C4B61474  10.728  35.461   7.350
 8116POPC   NC361475  30.709  43.921   5.550
 8116POPC   PO461476  30.731  43.845   5.850
 8116POPC   GL161477  30.741  43.863   6.150
 8116POPC   GL261478  30.755  43.774   6.150
 8116POPC   C1A61479  30.680  43.889   6.450
 8116POPC   D2A61480  30.736  43.851   6.750
 8116POPC   C3A61481  30.731  43.841   7.050
 8116POPC   C4A61482  30.657  43.893   7.350
 8116POPC   C1B61483  30.953  43.765   6.450
 8116POPC   C2B61484  30.900  43.772   6.750
 8116POPC   C3B61485  30.953  43.708   7.050
 8116POPC   C4B61486  30.934  43.722   7.350
 8117POPC   NC361487   8.156   2.753   5.550
 8117POPC   PO461488   8.198   2.784   5.850
 8117POPC   GL161489   8.176   2.722   6.150
 8117POPC   GL261490   8.024   2.752   6.150
 8117POPC   C1A61491   8.183   2.789   6.450
 8117POPC   D2A61492   8.194   2.758   6.750
 8117POPC   C3A61493   8.202   2.730   7.050
 8117POPC   C4A61494   8.199   2.807   7.350
 8117POPC   C1B61495   7.955   2.732   6.450
 8117POPC   C2B61496   7.982   2.713   6.750
 8117POPC   C3B61497   7.936   2.726   7.050
 8117POPC   C4B61498   7.923   2.767   7.350
 8118POPC   NC361499  22.195   1.180   5.550
 8118POPC   PO461500  22.159   1.228   5.850
 8118POPC   GL161501  22.169   1.194   6.150
 8118POPC   GL261502  22.272   1.193   6.150
 8118POPC   C1A61503  22.130   1.169   6.450
 8118POPC   D2A61504  22.165   1.215   6.750
 8118POPC   C3A61505  22.184   1.203   7.050
 8118POPC   C4A61506  22.120   1.195   7.350
 8118POPC   C1B61507  22.424   1.087   6.450
 8118POPC   C2B61508  22.346   1.169   6.750
 8118POPC   C3B61509  22.422   1.097   7.050
 8118POPC   C4B61510  22.358   1.083   7.350
 8119POPC   NC361511  36.142   2.763   5.550
 8119POPC   PO461512  36.148   2.805   5.850
 8119POPC   GL161513  36.129   2.749   6.150
 8119POPC   GL261514  36.191   2.657   6.150
 8119POPC   C1A61515  36.098   2.787   6.450
 8119POPC   D2A61516  36.102   2.782   6.750
 8119POPC   C3A61517  36.098   2.720   7.050
 8119POPC   C4A61518  36.098   2.808   7.350
 8119POPC   C1B61519  36.284   2.588   6.450
 8119POPC   C2B61520  36.339   2.554   6.750
 8119POPC   C3B61521  36.341   2.579   7.050
 8119POPC   C4B61522  36.277   2.632   7.350
 8120POPC   NC361523  11.312  37.702   5.550
 8120POPC   PO461524  11.347  37.712   5.850
 8120POPC   GL161525  11.250  37.676   6.150
 8120POPC   GL261526  11.274  37.783   6.150
 8120POPC   C1A61527  11.251  37.653   6.450
 8120POPC   D2A61528  11.287  37.709   6.750
 8120POPC   C3A61529  11.323  37.663   7.050
 8120POPC   C4A61530  11.281  37.678   7.350
 8120POPC   C1B61531  11.119  37.856   6.450
 8120POPC   C2B61532  11.111  37.835   6.750
 8120POPC   C3B61533  11.128  37.904   7.050
 8120POPC   C4B61534  11.183  37.899   7.350
 8121POPC   NC361535  12.112  29.958   5.550
 8121POPC   PO461536  12.090  29.941   5.850
 8121POPC   GL161537  12.113  29.947   6.150
 8121POPC   GL261538  12.133  30.070   6.150
 8121POPC   C1A61539  12.083  29.880   6.450
 8121POPC   D2A61540  12.094  29.924   6.750
 8121POPC   C3A61541  12.105  29.950   7.050
 8121POPC   C4A61542  12.057  29.949   7.350
 8121POPC   C1B61543  12.184  30.137   6.450
 8121POPC   C2B61544  12.127  30.142   6.750
 8121POPC   C3B61545  12.146  30.147   7.050
 8121POPC   C4B61546  12.170  30.120   7.350
 8122POPC   NC361547   2.013  40.042   5.550
 8122POPC   PO461548   2.031  39.999   5.850
 8122POPC   GL161549   1.961  39.977   6.150
 8122POPC   GL261550   2.031  39.952   6.150
 8122POPC   C1A61551   2.004  40.032   6.450
 8122POPC   D2A61552   2.015  39.989   6.750
 8122POPC   C3A61553   2.027  40.034   7.050
 8122POPC   C4A61554   2.021  39.969   7.350
 8122POPC   C1B61555   2.121  39.851   6.450
 8122POPC   C2B61556   2.158  39.790   6.750
 8122POPC   C3B61557   2.123  39.826   7.050
 8122POPC   C4B61558   2.131  39.837   7.350
 8123POPC   NC361559  39.981  28.379   5.550
 8123POPC   PO461560  39.984  28.352   5.850
 8123POPC   GL161561  40.026  28.381   6.150
 8123POPC   GL261562  39.944  28.461   6.150
 8123POPC   C1A61563  39.972  28.352   6.450
 8123POPC   D2A61564  40.010  28.377   6.750
 8123POPC   C3A61565  40.015  28.324   7.050
 8123POPC   C4A61566  39.964  28.334   7.350
 8123POPC   C1B61567  39.845  28.520   6.450
 8123POPC   C2B61568  39.818  28.563   6.750
 8123POPC   C3B61569  39.845  28.592   7.050
 8123POPC   C4B61570  39.824  28.600   7.350
 8124POPC   NC361571  23.731   1.200   5.550
 8124POPC   PO461572  23.722   1.239   5.850
 8124POPC   GL161573  23.683   1.263   6.150
 8124POPC   GL261574  23.612   1.199   6.150
 8124POPC   C1A61575  23.739   1.185   6.450
 8124POPC   D2A61576  23.731   1.181   6.750
 8124POPC   C3A61577  23.719   1.230   7.050
 8124POPC   C4A61578  23.673   1.232   7.350
 8124POPC   C1B61579  23.502   1.160   6.450
 8124POPC   C2B61580  23.442   1.162   6.750
 8124POPC   C3B61581  23.520   1.094   7.050
 8124POPC   C4B61582  23.497   1.135   7.350
 8125POPC   NC361583   5.075  42.321   5.550
 8125POPC   PO461584   5.116  42.353   5.850
 8125POPC   GL161585   5.100  42.289   6.150
 8125POPC   GL261586   5.223  42.428   6.150
 8125POPC   C1A61587   5.116  42.360   6.450
 8125POPC   D2A61588   5.106  42.318   6.750
 8125POPC   C3A61589   5.135  42.375   7.050
 8125POPC   C4A61590   5.069  42.320   7.350
 8125POPC   C1B61591   5.309  42.453   6.450
 8125POPC   C2B61592   5.335  42.478   6.750
 8125POPC   C3B61593   5.307  42.450   7.050
 8125POPC   C4B61594   5.291  42.443   7.350
 8126POPC   NC361595  40.737  28.364   5.550
 8126POPC   PO461596  40.772  28.350   5.850
 8126POPC   GL161597  40.809  28.343   6.150
 8126POPC   GL261598  40.866  28.380   6.150
 8126POPC   C1A61599  40.796  28.320   6.450
 8126POPC   D2A61600  40.815  28.351   6.750
 8126POPC   C3A61601  40.830  28.363   7.050
 8126POPC   C4A61602  40.795  28.329   7.350
 8126POPC   C1B61603  41.016  28.312   6.450
 8126POPC   C2B61604  41.019  28.332   6.750
 8126POPC   C3B61605  41.016  28.286   7.050
 8126POPC   C4B61606  41.037  28.328   7.350
 8127POPC   NC361607  36.878  29.884   5.550
 8127POPC   PO461608  36.899  29.947   5.850
 8127POPC   GL161609  36.927  29.940   6.150
 8127POPC   GL261610  36.926  30.064   6.150
 8127POPC   C1A61611  36.908  29.932   6.450
 8127POPC   D2A61612  36.941  29.893   6.750
 8127POPC   C3A61613  36.868  29.894   7.050
 8127POPC   C4A61614  36.887  29.936   7.350
 8127POPC   C1B61615  36.898  30.216   6.450
 8127POPC   C2B61616  36.851  30.150   6.750
 8127POPC   C3B61617  36.929  30.179   7.050
 8127POPC   C4B61618  36.835  30.180   7.350
 8128POPC   NC361619   8.203  39.186   5.550
 8128POPC   PO461620   8.216  39.252   5.850
 8128POPC   GL161621   8.240  39.237   6.150
 8128POPC   GL261622   8.219  39.309   6.150
 8128POPC   C1A61623   8.231  39.246   6.450
 8128POPC   D2A61624   8.191  39.268   6.750
 8128POPC   C3A61625   8.194  39.191   7.050
 8128POPC   C4A61626   8.201  39.187   7.350
 8128POPC   C1B61627   8.181  39.443   6.450
 8128POPC   C2B61628   8.165  39.444   6.750
 8128POPC   C3B61629   8.186  39.437   7.050
 8128POPC   C4B61630   8.126  39.457   7.350
 8129POPC   NC361631  11.269  27.583   5.550
 8129POPC   PO461632  11.327  27.629   5.850
 8129POPC   GL161633  11.324  27.594   6.150
 8129POPC   GL261634  11.199  27.475   6.150
 8129POPC   C1A61635  11.301  27.583   6.450
 8129POPC   D2A61636  11.304  27.547   6.750
 8129POPC   C3A61637  11.337  27.641   7.050
 8129POPC   C4A61638  11.316  27.556   7.350
 8129POPC   C1B61639  11.172  27.348   6.450
 8129POPC   C2B61640  11.219  27.373   6.750
 8129POPC   C3B61641  11.134  27.406   7.050
 8129POPC   C4B61642  11.179  27.378   7.350
 8130POPC   NC361643   1.255  31.481   5.550
 8130POPC   PO461644   1.244  31.476   5.850
 8130POPC   GL161645   1.187  31.428   6.150
 8130POPC   GL261646   1.163  31.391   6.150
 8130POPC   C1A61647   1.225  31.504   6.450
 8130POPC   D2A61648   1.222  31.516   6.750
 8130POPC   C3A61649   1.231  31.483   7.050
 8130POPC   C4A61650   1.207  31.477   7.350
 8130POPC   C1B61651   1.030  31.314   6.450
 8130POPC   C2B61652   1.095  31.257   6.750
 8130POPC   C3B61653   1.072  31.318   7.050
 8130POPC   C4B61654   1.059  31.256   7.350
 8131POPC   NC361655   4.328   5.904   5.550
 8131POPC   PO461656   4.362   5.906   5.850
 8131POPC   GL161657   4.292   5.902   6.150
 8131POPC   GL261658   4.173   5.840   6.150
 8131POPC   C1A61659   4.319   5.895   6.450
 8131POPC   D2A61660   4.302   5.890   6.750
 8131POPC   C3A61661   4.294   5.844   7.050
 8131POPC   C4A61662   4.287   5.893   7.350
 8131POPC   C1B61663   4.112   5.791   6.450
 8131POPC   C2B61664   4.078   5.788   6.750
 8131POPC   C3B61665   4.117   5.739   7.050
 8131POPC   C4B61666   4.136   5.730   7.350
 8132POPC   NC361667  22.900  39.207   5.550
 8132POPC   PO461668  22.971  39.215   5.850
 8132POPC   GL161669  22.955  39.224   6.150
 8132POPC   GL261670  22.915  39.313   6.150
 8132POPC   C1A61671  22.913  39.274   6.450
 8132POPC   D2A61672  22.922  39.181   6.750
 8132POPC   C3A61673  22.974  39.210   7.050
 8132POPC   C4A61674  22.949  39.189   7.350
 8132POPC   C1B61675  22.944  39.432   6.450
 8132POPC   C2B61676  22.935  39.468   6.750
 8132POPC   C3B61677  22.927  39.464   7.050
 8132POPC   C4B61678  22.886  39.526   7.350
 8133POPC   NC361679   8.972   5.827   5.550
 8133POPC   PO461680   8.955   5.868   5.850
 8133POPC   GL161681   8.970   5.840   6.150
 8133POPC   GL261682   9.101   5.910   6.150
 8133POPC   C1A61683   8.980   5.859   6.450
 8133POPC   D2A61684   8.973   5.821   6.750
 8133POPC   C3A61685   8.996   5.872   7.050
 8133POPC   C4A61686   8.992   5.914   7.350
 8133POPC   C1B61687   9.168   5.940   6.450
 8133POPC   C2B61688   9.254   5.929   6.750
 8133POPC   C3B61689   9.254   5.912   7.050
 8133POPC   C4B61690   9.218   5.960   7.350
 8134POPC   NC361691  42.349  23.702   5.550
 8134POPC   PO461692  42.361  23.676   5.850
 8134POPC   GL161693  42.340  23.667   6.150
 8134POPC   GL261694  42.399  23.833   6.150
 8134POPC   C1A61695  42.307  23.696   6.450
 8134POPC   D2A61696  42.301  23.759   6.750
 8134POPC   C3A61697  42.359  23.761   7.050
 8134POPC   C4A61698  42.380  23.762   7.350
 8134POPC   C1B61699  42.431  23.952   6.450
 8134POPC   C2B61700  42.400  23.982   6.750
 8134POPC   C3B61701  42.430  23.956   7.050
 8134POPC   C4B61702  42.452  23.933   7.350
 8135POPC   NC361703   8.237  17.516   5.550
 8135POPC   PO461704   8.235  17.464   5.850
 8135POPC   GL161705   8.156  17.514   6.150
 8135POPC   GL261706   8.297  17.472   6.150
 8135POPC   C1A61707   8.166  17.545   6.450
 8135POPC   D2A61708   8.230  17.496   6.750
 8135POPC   C3A61709   8.205  17.522   7.050
 8135POPC   C4A61710   8.180  17.473   7.350
 8135POPC   C1B61711   8.408  17.371   6.450
 8135POPC   C2B61712   8.418  17.358   6.750
 8135POPC   C3B61713   8.439  17.357   7.050
 8135POPC   C4B61714   8.459  17.433   7.350
 8136POPC   NC361715  44.655   5.053   5.550
 8136POPC   PO461716  44.711   5.081   5.850
 8136POPC   GL161717  44.622   5.069   6.150
 8136POPC   GL261718  44.798   5.159   6.150
 8136POPC   C1A61719  44.702   5.078   6.450
 8136POPC   D2A61720  44.616   5.047   6.750
 8136POPC   C3A61721  44.692   5.138   7.050
 8136POPC   C4A61722  44.687   5.109   7.350
 8136POPC   C1B61723  44.892   5.271   6.450
 8136POPC   C2B61724  44.820   5.224   6.750
 8136POPC   C3B61725  44.904   5.200   7.050
 8136POPC   C4B61726  44.866   5.237   7.350
 8137POPC   NC361727  12.815  22.972   5.550
 8137POPC   PO461728  12.897  22.895   5.850
 8137POPC   GL161729  12.863  22.931   6.150
 8137POPC   GL261730  12.937  23.042   6.150
 8137POPC   C1A61731  12.812  22.986   6.450
 8137POPC   D2A61732  12.898  22.978   6.750
 8137POPC   C3A61733  12.865  22.916   7.050
 8137POPC   C4A61734  12.832  22.967   7.350
 8137POPC   C1B61735  13.060  23.070   6.450
 8137POPC   C2B61736  13.080  23.119   6.750
 8137POPC   C3B61737  13.053  23.079   7.050
 8137POPC   C4B61738  13.034  23.100   7.350
 8138POPC   NC361739  28.401   8.244   5.550
 8138POPC   PO461740  28.381   8.149   5.850
 8138POPC   GL161741  28.414   8.153   6.150
 8138POPC   GL261742  28.421   8.101   6.150
 8138POPC   C1A61743  28.403   8.228   6.450
 8138POPC   D2A61744  28.358   8.215   6.750
 8138POPC   C3A61745  28.321   8.211   7.050
 8138POPC   C4A61746  28.331   8.179   7.350
 8138POPC   C1B61747  28.579   8.071   6.450
 8138POPC   C2B61748  28.574   8.035   6.750
 8138POPC   C3B61749  28.535   8.034   7.050
 8138POPC   C4B61750  28.592   8.029   7.350
 8139POPC   NC361751  31.512   8.242   5.550
 8139POPC   PO461752  31.429   8.150   5.850
 8139POPC   GL161753  31.430   8.159   6.150
 8139POPC   GL261754  31.587   8.079   6.150
 8139POPC   C1A61755  31.492   8.228   6.450
 8139POPC   D2A61756  31.469   8.219   6.750
 8139POPC   C3A61757  31.494   8.160   7.050
 8139POPC   C4A61758  31.489   8.152   7.350
 8139POPC   C1B61759  31.576   7.995   6.450
 8139POPC   C2B61760  31.604   8.032   6.750
 8139POPC   C3B61761  31.624   8.031   7.050
 8139POPC   C4B61762  31.568   8.020   7.350
 8140POPC   NC361763  43.119  12.825   5.550
 8140POPC   PO461764  43.139  12.863   5.850
 8140POPC   GL161765  43.134  12.866   6.150
 8140POPC   GL261766  43.061  12.975   6.150
 8140POPC   C1A61767  43.158  12.805   6.450
 8140POPC   D2A61768  43.122  12.814   6.750
 8140POPC   C3A61769  43.159  12.824   7.050
 8140POPC   C4A61770  43.148  12.884   7.350
 8140POPC   C1B61771  43.046  13.124   6.450
 8140POPC   C2B61772  43.046  13.068   6.750
 8140POPC   C3B61773  43.126  13.062   7.050
 8140POPC   C4B61774  43.122  13.146   7.350
 8141POPC   NC361775   5.894   6.639   5.550
 8141POPC   PO461776   5.895   6.653   5.850
 8141POPC   GL161777   5.861   6.608   6.150
 8141POPC   GL261778   5.764   6.639   6.150
 8141POPC   C1A61779   5.859   6.630   6.450
 8141POPC   D2A61780   5.847   6.661   6.750
 8141POPC   C3A61781   5.837   6.604   7.050
 8141POPC   C4A61782   5.834   6.649   7.350
 8141POPC   C1B61783   5.591   6.707   6.450
 8141POPC   C2B61784   5.597   6.655   6.750
 8141POPC   C3B61785   5.645   6.663   7.050
 8141POPC   C4B61786   5.654   6.720   7.350
 8142POPC   NC361787  16.778   6.688   5.550
 8142POPC   PO461788  16.736   6.682   5.850
 8142POPC   GL161789  16.777   6.613   6.150
 8142POPC   GL261790  16.696   6.515   6.150
 8142POPC   C1A61791  16.691   6.656   6.450
 8142POPC   D2A61792  16.715   6.607   6.750
 8142POPC   C3A61793  16.726   6.680   7.050
 8142POPC   C4A61794  16.690   6.660   7.350
 8142POPC   C1B61795  16.689   6.353   6.450
 8142POPC   C2B61796  16.751   6.355   6.750
 8142POPC   C3B61797  16.724   6.411   7.050
 8142POPC   C4B61798  16.760   6.409   7.350
 8143POPC   NC361799   1.992  19.801   5.550
 8143POPC   PO461800   2.007  19.791   5.850
 8143POPC   GL161801   2.029  19.835   6.150
 8143POPC   GL261802   1.845  19.803   6.150
 8143POPC   C1A61803   1.980  19.811   6.450
 8143POPC   D2A61804   1.947  19.828   6.750
 8143POPC   C3A61805   1.995  19.881   7.050
 8143POPC   C4A61806   1.994  19.796   7.350
 8143POPC   C1B61807   1.746  19.792   6.450
 8143POPC   C2B61808   1.746  19.828   6.750
 8143POPC   C3B61809   1.715  19.836   7.050
 8143POPC   C4B61810   1.727  19.840   7.350
 8144POPC   NC361811   1.239  12.042   5.550
 8144POPC   PO461812   1.190  12.028   5.850
 8144POPC   GL161813   1.236  12.061   6.150
 8144POPC   GL261814   1.245  12.220   6.150
 8144POPC   C1A61815   1.201  12.112   6.450
 8144POPC   D2A61816   1.177  12.061   6.750
 8144POPC   C3A61817   1.174  12.027   7.050
 8144POPC   C4A61818   1.240  12.086   7.350
 8144POPC   C1B61819   1.307  12.290   6.450
 8144POPC   C2B61820   1.279  12.345   6.750
 8144POPC   C3B61821   1.265  12.313   7.050
 8144POPC   C4B61822   1.310  12.312   7.350
 8145POPC   NC361823  15.956  30.669   5.550
 8145POPC   PO461824  15.994  30.707   5.850
 8145POPC   GL161825  15.914  30.678   6.150
 8145POPC   GL261826  16.047  30.742   6.150
 8145POPC   C1A61827  15.996  30.688   6.450
 8145POPC   D2A61828  15.988  30.681   6.750
 8145POPC   C3A61829  16.002  30.685   7.050
 8145POPC   C4A61830  15.979  30.727   7.350
 8145POPC   C1B61831  16.099  30.897   6.450
 8145POPC   C2B61832  16.182  30.850   6.750
 8145POPC   C3B61833  16.085  30.855   7.050
 8145POPC   C4B61834  16.170  30.897   7.350
 8146POPC   NC361835  15.921   1.244   5.550
 8146POPC   PO461836  15.918   1.246   5.850
 8146POPC   GL161837  15.985   1.200   6.150
 8146POPC   GL261838  15.855   1.358   6.150
 8146POPC   C1A61839  15.959   1.220   6.450
 8146POPC   D2A61840  15.989   1.205   6.750
 8146POPC   C3A61841  15.942   1.193   7.050
 8146POPC   C4A61842  15.979   1.172   7.350
 8146POPC   C1B61843  15.872   1.446   6.450
 8146POPC   C2B61844  15.897   1.418   6.750
 8146POPC   C3B61845  15.813   1.448   7.050
 8146POPC   C4B61846  15.867   1.452   7.350
 8147POPC   NC361847   9.745   1.964   5.550
 8147POPC   PO461848   9.732   2.020   5.850
 8147POPC   GL161849   9.773   1.953   6.150
 8147POPC   GL261850   9.741   2.070   6.150
 8147POPC   C1A61851   9.777   2.015   6.450
 8147POPC   D2A61852   9.717   1.958   6.750
 8147POPC   C3A61853   9.763   2.025   7.050
 8147POPC   C4A61854   9.754   2.012   7.350
 8147POPC   C1B61855   9.625   2.220   6.450
 8147POPC   C2B61856   9.632   2.193   6.750
 8147POPC   C3B61857   9.590   2.200   7.050
 8147POPC   C4B61858   9.663   2.256   7.350
 8148POPC   NC361859  10.523  29.104   5.550
 8148POPC   PO461860  10.504  29.190   5.850
 8148POPC   GL161861  10.490  29.133   6.150
 8148POPC   GL261862  10.512  29.280   6.150
 8148POPC   C1A61863  10.496  29.107   6.450
 8148POPC   D2A61864  10.481  29.144   6.750
 8148POPC   C3A61865  10.476  29.165   7.050
 8148POPC   C4A61866  10.506  29.183   7.350
 8148POPC   C1B61867  10.465  29.344   6.450
 8148POPC   C2B61868  10.458  29.421   6.750
 8148POPC   C3B61869  10.444  29.341   7.050
 8148POPC   C4B61870  10.436  29.406   7.350
 8149POPC   NC361871  25.306  29.101   5.550
 8149POPC   PO461872  25.226  29.153   5.850
 8149POPC   GL161873  25.293  29.111   6.150
 8149POPC   GL261874  25.177  29.094   6.150
 8149POPC   C1A61875  25.229  29.167   6.450
 8149POPC   D2A61876  25.254  29.143   6.750
 8149POPC   C3A61877  25.225  29.118   7.050
 8149POPC   C4A61878  25.225  29.158   7.350
 8149POPC   C1B61879  25.049  29.002   6.450
 8149POPC   C2B61880  25.024  29.000   6.750
 8149POPC   C3B61881  25.037  28.985   7.050
 8149POPC   C4B61882  25.030  29.023   7.350
 8150POPC   NC361883   6.641  19.852   5.550
 8150POPC   PO461884   6.651  19.837   5.850
 8150POPC   GL161885   6.643  19.873   6.150
 8150POPC   GL261886   6.670  19.940   6.150
 8150POPC   C1A61887   6.677  19.793   6.450
 8150POPC   D2A61888   6.635  19.834   6.750
 8150POPC   C3A61889   6.629  19.812   7.050
 8150POPC   C4A61890   6.668  19.794   7.350
 8150POPC   C1B61891   6.655  20.036   6.450
 8150POPC   C2B61892   6.689  20.127   6.750
 8150POPC   C3B61893   6.683  20.039   7.050
 8150POPC   C4B61894   6.614  20.039   7.350
 8151POPC   NC361895   2.726  16.705   5.550
 8151POPC   PO461896   2.795  16.715   5.850
 8151POPC   GL161897   2.814  16.724   6.150
 8151POPC   GL261898   2.828  16.878   6.150
 8151POPC   C1A61899   2.754  16.779   6.450
 8151POPC   D2A61900   2.757  16.781   6.750
 8151POPC   C3A61901   2.811  16.715   7.050
 8151POPC   C4A61902   2.758  16.731   7.350
 8151POPC   C1B61903   2.918  16.915   6.450
 8151POPC   C2B61904   2.854  16.947   6.750
 8151POPC   C3B61905   2.931  16.895   7.050
 8151POPC   C4B61906   2.937  16.963   7.350
 8152POPC   NC361907   8.981  14.446   5.550
 8152POPC   PO461908   8.948  14.415   5.850
 8152POPC   GL161909   8.985  14.436   6.150
 8152POPC   GL261910   8.879  14.533   6.150
 8152POPC   C1A61911   8.980  14.358   6.450
 8152POPC   D2A61912   9.008  14.392   6.750
 8152POPC   C3A61913   8.980  14.429   7.050
 8152POPC   C4A61914   8.949  14.395   7.350
 8152POPC   C1B61915   8.819  14.632   6.450
 8152POPC   C2B61916   8.851  14.598   6.750
 8152POPC   C3B61917   8.765  14.602   7.050
 8152POPC   C4B61918   8.778  14.619   7.350
 8153POPC   NC361919  19.052   7.458   5.550
 8153POPC   PO461920  19.095   7.463   5.850
 8153POPC   GL161921  19.069   7.442   6.150
 8153POPC   GL261922  19.122   7.450   6.150
 8153POPC   C1A61923  19.014   7.388   6.450
 8153POPC   D2A61924  19.015   7.440   6.750
 8153POPC   C3A61925  19.073   7.387   7.050
 8153POPC   C4A61926  19.048   7.423   7.350
 8153POPC   C1B61927  19.303   7.582   6.450
 8153POPC   C2B61928  19.252   7.551   6.750
 8153POPC   C3B61929  19.308   7.603   7.050
 8153POPC   C4B61930  19.262   7.587   7.350
 8154POPC   NC361931  33.009   5.113   5.550
 8154POPC   PO461932  33.039   5.045   5.850
 8154POPC   GL161933  33.045   5.133   6.150
 8154POPC   GL261934  32.910   5.049   6.150
 8154POPC   C1A61935  33.052   5.074   6.450
 8154POPC   D2A61936  33.000   5.119   6.750
 8154POPC   C3A61937  32.996   5.093   7.050
 8154POPC   C4A61938  33.071   5.060   7.350
 8154POPC   C1B61939  32.745   5.065   6.450
 8154POPC   C2B61940  32.737   5.014   6.750
 8154POPC   C3B61941  32.759   5.032   7.050
 8154POPC   C4B61942  32.752   5.072   7.350
 8155POPC   NC361943  31.470  33.024   5.550
 8155POPC   PO461944  31.489  33.046   5.850
 8155POPC   GL161945  31.468  32.985   6.150
 8155POPC   GL261946  31.570  33.042   6.150
 8155POPC   C1A61947  31.498  33.045   6.450
 8155POPC   D2A61948  31.500  33.071   6.750
 8155POPC   C3A61949  31.438  33.057   7.050
 8155POPC   C4A61950  31.477  33.068   7.350
 8155POPC   C1B61951  31.743  33.089   6.450
 8155POPC   C2B61952  31.714  33.111   6.750
 8155POPC   C3B61953  31.750  33.107   7.050
 8155POPC   C4B61954  31.733  33.154   7.350
 8156POPC   NC361955  29.188  12.063   5.550
 8156POPC   PO461956  29.157  12.052   5.850
 8156POPC   GL161957  29.139  12.055   6.150
 8156POPC   GL261958  29.195  12.102   6.150
 8156POPC   C1A61959  29.147  12.088   6.450
 8156POPC   D2A61960  29.140  12.122   6.750
 8156POPC   C3A61961  29.149  12.048   7.050
 8156POPC   C4A61962  29.169  12.049   7.350
 8156POPC   C1B61963  29.326  12.179   6.450
 8156POPC   C2B61964  29.371  12.198   6.750
 8156POPC   C3B61965  29.356  12.233   7.050
 8156POPC   C4B61966  29.332  12.221   7.350
 8157POPC   NC361967   5.858  31.493   5.550
 8157POPC   PO461968   5.855  31.443   5.850
 8157POPC   GL161969   5.831  31.521   6.150
 8157POPC   GL261970   5.910  31.376   6.150
 8157POPC   C1A61971   5.819  31.445   6.450
 8157POPC   D2A61972   5.901  31.432   6.750
 8157POPC   C3A61973   5.875  31.436   7.050
 8157POPC   C4A61974   5.827  31.435   7.350
 8157POPC   C1B61975   5.944  31.226   6.450
 8157POPC   C2B61976   5.988  31.212   6.750
 8157POPC   C3B61977   5.987  31.268   7.050
 8157POPC   C4B61978   5.995  31.281   7.350
 8158POPC   NC361979   2.768  35.327   5.550
 8158POPC   PO461980   2.790  35.350   5.850
 8158POPC   GL161981   2.751  35.384   6.150
 8158POPC   GL261982   2.751  35.208   6.150
 8158POPC   C1A61983   2.786  35.348   6.450
 8158POPC   D2A61984   2.798  35.321   6.750
 8158POPC   C3A61985   2.773  35.381   7.050
 8158POPC   C4A61986   2.721  35.349   7.350
 8158POPC   C1B61987   2.721  35.118   6.450
 8158POPC   C2B61988   2.648  35.101   6.750
 8158POPC   C3B61989   2.710  35.104   7.050
 8158POPC   C4B61990   2.681  35.149   7.350
 8159POPC   NC361991  23.683  13.645   5.550
 8159POPC   PO461992  23.740  13.578   5.850
 8159POPC   GL161993  23.718  13.586   6.150
 8159POPC   GL261994  23.566  13.706   6.150
 8159POPC   C1A61995  23.749  13.651   6.450
 8159POPC   D2A61996  23.669  13.640   6.750
 8159POPC   C3A61997  23.719  13.608   7.050
 8159POPC   C4A61998  23.693  13.598   7.350
 8159POPC   C1B61999  23.471  13.816   6.450
 8159POPC   C2B62000  23.555  13.760   6.750
 8159POPC   C3B62001  23.546  13.820   7.050
 8159POPC   C4B62002  23.486  13.813   7.350
 8160POPC   NC362003  19.873  19.846   5.550
 8160POPC   PO462004  19.800  19.786   5.850
 8160POPC   GL162005  19.813  19.874   6.150
 8160POPC   GL262006  19.913  19.812   6.150
 8160POPC   C1A62007  19.835  19.822   6.450
 8160POPC   D2A62008  19.806  19.837   6.750
 8160POPC   C3A62009  19.826  19.821   7.050
 8160POPC   C4A62010  19.844  19.822   7.350
 8160POPC   C1B62011  20.057  19.837   6.450
 8160POPC   C2B62012  20.068  19.802   6.750
 8160POPC   C3B62013  20.102  19.762   7.050
 8160POPC   C4B62014  20.059  19.806   7.350
 8161POPC   NC362015  37.660  43.859   5.550
 8161POPC   PO462016  37.647  43.871   5.850
 8161POPC   GL162017  37.669  43.902   6.150
 8161POPC   GL262018  37.678  44.010   6.150
 8161POPC   C1A62019  37.691  43.929   6.450
 8161POPC   D2A62020  37.635  43.864   6.750
 8161POPC   C3A62021  37.687  43.935   7.050
 8161POPC   C4A62022  37.707  43.909   7.350
 8161POPC   C1B62023  37.588  44.107   6.450
 8161POPC   C2B62024  37.643  44.082   6.750
 8161POPC   C3B62025  37.577  44.082   7.050
 8161POPC   C4B62026  37.575  44.167   7.350
 8162POPC   NC362027  11.325   8.963   5.550
 8162POPC   PO462028  11.333   8.940   5.850
 8162POPC   GL162029  11.272   8.934   6.150
 8162POPC   GL262030  11.380   8.980   6.150
 8162POPC   C1A62031  11.320   8.951   6.450
 8162POPC   D2A62032  11.270   9.004   6.750
 8162POPC   C3A62033  11.339   8.985   7.050
 8162POPC   C4A62034  11.276   8.945   7.350
 8162POPC   C1B62035  11.510   9.007   6.450
 8162POPC   C2B62036  11.511   8.967   6.750
 8162POPC   C3B62037  11.571   9.009   7.050
 8162POPC   C4B62038  11.548   8.992   7.350
 8163POPC   NC362039  21.396  20.588   5.550
 8163POPC   PO462040  21.429  20.642   5.850
 8163POPC   GL162041  21.436  20.599   6.150
 8163POPC   GL262042  21.268  20.674   6.150
 8163POPC   C1A62043  21.407  20.574   6.450
 8163POPC   D2A62044  21.363  20.609   6.750
 8163POPC   C3A62045  21.361  20.579   7.050
 8163POPC   C4A62046  21.356  20.586   7.350
 8163POPC   C1B62047  21.160  20.682   6.450
 8163POPC   C2B62048  21.173  20.699   6.750
 8163POPC   C3B62049  21.186  20.613   7.050
 8163POPC   C4B62050  21.090  20.624   7.350
 8164POPC   NC362051   2.793  36.869   5.550
 8164POPC   PO462052   2.793  36.913   5.850
 8164POPC   GL162053   2.790  36.856   6.150
 8164POPC   GL262054   2.623  36.900   6.150
 8164POPC   C1A62055   2.719  36.892   6.450
 8164POPC   D2A62056   2.722  36.921   6.750
 8164POPC   C3A62057   2.774  36.881   7.050
 8164POPC   C4A62058   2.726  36.900   7.350
 8164POPC   C1B62059   2.498  36.871   6.450
 8164POPC   C2B62060   2.553  36.911   6.750
 8164POPC   C3B62061   2.546  36.822   7.050
 8164POPC   C4B62062   2.481  36.889   7.350
 8165POPC   NC362063  27.615  30.722   5.550
 8165POPC   PO462064  27.595  30.682   5.850
 8165POPC   GL162065  27.555  30.692   6.150
 8165POPC   GL262066  27.596  30.559   6.150
 8165POPC   C1A62067  27.615  30.716   6.450
 8165POPC   D2A62068  27.560  30.689   6.750
 8165POPC   C3A62069  27.616  30.689   7.050
 8165POPC   C4A62070  27.633  30.654   7.350
 8165POPC   C1B62071  27.544  30.456   6.450
 8165POPC   C2B62072  27.535  30.496   6.750
 8165POPC   C3B62073  27.576  30.443   7.050
 8165POPC   C4B62074  27.594  30.424   7.350
 8166POPC   NC362075   1.227  20.566   5.550
 8166POPC   PO462076   1.186  20.622   5.850
 8166POPC   GL162077   1.193  20.564   6.150
 8166POPC   GL262078   1.342  20.530   6.150
 8166POPC   C1A62079   1.262  20.651   6.450
 8166POPC   D2A62080   1.224  20.587   6.750
 8166POPC   C3A62081   1.255  20.587   7.050
 8166POPC   C4A62082   1.232  20.640   7.350
 8166POPC   C1B62083   1.429  20.434   6.450
 8166POPC   C2B62084   1.457  20.432   6.750
 8166POPC   C3B62085   1.381  20.475   7.050
 8166POPC   C4B62086   1.368  20.420   7.350
 8167POPC   NC362087   6.672  13.611   5.550
 8167POPC   PO462088   6.606  13.667   5.850
 8167POPC   GL162089   6.623  13.584   6.150
 8167POPC   GL262090   6.723  13.694   6.150
 8167POPC   C1A62091   6.642  13.579   6.450
 8167POPC   D2A62092   6.619  13.622   6.750
 8167POPC   C3A62093   6.600  13.615   7.050
 8167POPC   C4A62094   6.617  13.598   7.350
 8167POPC   C1B62095   6.725  13.848   6.450
 8167POPC   C2B62096   6.746  13.818   6.750
 8167POPC   C3B62097   6.797  13.872   7.050
 8167POPC   C4B62098   6.760  13.872   7.350
 8168POPC   NC362099   4.344  20.561   5.550
 8168POPC   PO462100   4.307  20.583   5.850
 8168POPC   GL162101   4.347  20.648   6.150
 8168POPC   GL262102   4.370  20.657   6.150
 8168POPC   C1A62103   4.362  20.585   6.450
 8168POPC   D2A62104   4.349  20.594   6.750
 8168POPC   C3A62105   4.324  20.578   7.050
 8168POPC   C4A62106   4.299  20.568   7.350
 8168POPC   C1B62107   4.466  20.796   6.450
 8168POPC   C2B62108   4.443  20.820   6.750
 8168POPC   C3B62109   4.463  20.792   7.050
 8168POPC   C4B62110   4.486  20.787   7.350
 8169POPC   NC362111  23.724  31.465   5.550
 8169POPC   PO462112  23.677  31.470   5.850
 8169POPC   GL162113  23.680  31.509   6.150
 8169POPC   GL262114  23.870  31.506   6.150
 8169POPC   C1A62115  23.670  31.500   6.450
 8169POPC   D2A62116  23.734  31.504   6.750
 8169POPC   C3A62117  23.673  31.520   7.050
 8169POPC   C4A62118  23.665  31.424   7.350
 8169POPC   C1B62119  23.957  31.631   6.450
 8169POPC   C2B62120  23.945  31.631   6.750
 8169POPC   C3B62121  23.923  31.564   7.050
 8169POPC   C4B62122  23.938  31.588   7.350
 8170POPC   NC362123  38.459  33.834   5.550
 8170POPC   PO462124  38.429  33.771   5.850
 8170POPC   GL162125  38.456  33.774   6.150
 8170POPC   GL262126  38.396  33.646   6.150
 8170POPC   C1A62127  38.498  33.751   6.450
 8170POPC   D2A62128  38.421  33.825   6.750
 8170POPC   C3A62129  38.426  33.806   7.050
 8170POPC   C4A62130  38.437  33.835   7.350
 8170POPC   C1B62131  38.438  33.512   6.450
 8170POPC   C2B62132  38.455  33.598   6.750
 8170POPC   C3B62133  38.445  33.588   7.050
 8170POPC   C4B62134  38.372  33.544   7.350
 8171POPC   NC362135  44.653  23.686   5.550
 8171POPC   PO462136  44.653  23.698   5.850
 8171POPC   GL162137  44.703  23.696   6.150
 8171POPC   GL262138  44.786  23.792   6.150
 8171POPC   C1A62139  44.658  23.678   6.450
 8171POPC   D2A62140  44.640  23.713   6.750
 8171POPC   C3A62141  44.711  23.718   7.050
 8171POPC   C4A62142  44.657  23.689   7.350
 8171POPC   C1B62143  44.842  23.873   6.450
 8171POPC   C2B62144  44.872  23.915   6.750
 8171POPC   C3B62145  44.850  23.945   7.050
 8171POPC   C4B62146  44.788  23.932   7.350
 8172POPC   NC362147  33.042  30.668   5.550
 8172POPC   PO462148  33.047  30.740   5.850
 8172POPC   GL162149  32.982  30.743   6.150
 8172POPC   GL262150  32.961  30.612   6.150
 8172POPC   C1A62151  32.987  30.684   6.450
 8172POPC   D2A62152  33.001  30.684   6.750
 8172POPC   C3A62153  33.051  30.701   7.050
 8172POPC   C4A62154  33.006  30.720   7.350
 8172POPC   C1B62155  32.902  30.545   6.450
 8172POPC   C2B62156  32.904  30.507   6.750
 8172POPC   C3B62157  32.816  30.477   7.050
 8172POPC   C4B62158  32.853  30.541   7.350
 8173POPC   NC362159   0.390  40.769   5.550
 8173POPC   PO462160   0.431  40.733   5.850
 8173POPC   GL162161   0.461  40.747   6.150
 8173POPC   GL262162   0.530  40.870   6.150
 8173POPC   C1A62163   0.457  40.798   6.450
 8173POPC   D2A62164   0.437  40.761   6.750
 8173POPC   C3A62165   0.414  40.812   7.050
 8173POPC   C4A62166   0.440  40.742   7.350
 8173POPC   C1B62167   0.609  40.925   6.450
 8173POPC   C2B62168   0.639  40.904   6.750
 8173POPC   C3B62169   0.641  40.876   7.050
 8173POPC   C4B62170   0.617  40.928   7.350
 8174POPC   NC362171  29.101  36.935   5.550
 8174POPC   PO462172  29.163  36.862   5.850
 8174POPC   GL162173  29.113  36.860   6.150
 8174POPC   GL262174  29.058  36.776   6.150
 8174POPC   C1A62175  29.125  36.931   6.450
 8174POPC   D2A62176  29.177  36.862   6.750
 8174POPC   C3A62177  29.173  36.854   7.050
 8174POPC   C4A62178  29.171  36.925   7.350
 8174POPC   C1B62179  28.912  36.705   6.450
 8174POPC   C2B62180  28.938  36.690   6.750
 8174POPC   C3B62181  28.929  36.712   7.050
 8174POPC   C4B62182  28.918  36.714   7.350
 8175POPC   NC362183   1.186  44.685   5.550
 8175POPC   PO462184   1.223  44.658   5.850
 8175POPC   GL162185   1.258  44.694   6.150
 8175POPC   GL262186   1.347  44.643   6.150
 8175POPC   C1A62187   1.214  44.672   6.450
 8175POPC   D2A62188   1.170  44.649   6.750
 8175POPC   C3A62189   1.219  44.631   7.050
 8175POPC   C4A62190   1.258  44.703   7.350
 8175POPC   C1B62191   1.417  44.569   6.450
 8175POPC   C2B62192   1.471  44.528   6.750
 8175POPC   C3B62193   1.464  44.571   7.050
 8175POPC   C4B62194   1.455  44.555   7.350
 8176POPC   NC362195   0.416  28.380   5.550
 8176POPC   PO462196   0.424  28.383   5.850
 8176POPC   GL162197   0.471  28.374   6.150
 8176POPC   GL262198   0.392  28.235   6.150
 8176POPC   C1A62199   0.442  28.375   6.450
 8176POPC   D2A62200   0.435  28.341   6.750
 8176POPC   C3A62201   0.431  28.417   7.050
 8176POPC   C4A62202   0.477  28.355   7.350
 8176POPC   C1B62203   0.288  28.166   6.450
 8176POPC   C2B62204   0.309  28.148   6.750
 8176POPC   C3B62205   0.329  28.100   7.050
 8176POPC   C4B62206   0.292  28.136   7.350
 8177POPC   NC362207  19.049  33.805   5.550
 8177POPC   PO462208  19.034  33.809   5.850
 8177POPC   GL162209  19.083  33.770   6.150
 8177POPC   GL262210  19.081  33.712   6.150
 8177POPC   C1A62211  19.083  33.769   6.450
 8177POPC   D2A62212  19.079  33.818   6.750
 8177POPC   C3A62213  19.103  33.841   7.050
 8177POPC   C4A62214  19.033  33.815   7.350
 8177POPC   C1B62215  19.173  33.608   6.450
 8177POPC   C2B62216  19.151  33.543   6.750
 8177POPC   C3B62217  19.237  33.541   7.050
 8177POPC   C4B62218  19.167  33.546   7.350
 8178POPC   NC362219   8.176   7.442   5.550
 8178POPC   PO462220   8.198   7.424   5.850
 8178POPC   GL162221   8.184   7.410   6.150
 8178POPC   GL262222   8.061   7.364   6.150
 8178POPC   C1A62223   8.193   7.425   6.450
 8178POPC   D2A62224   8.149   7.402   6.750
 8178POPC   C3A62225   8.208   7.441   7.050
 8178POPC   C4A62226   8.171   7.377   7.350
 8178POPC   C1B62227   7.952   7.314   6.450
 8178POPC   C2B62228   8.023   7.243   6.750
 8178POPC   C3B62229   7.969   7.252   7.050
 8178POPC   C4B62230   7.973   7.303   7.350
 8179POPC   NC362231   9.721  41.595   5.550
 8179POPC   PO462232   9.789  41.595   5.850
 8179POPC   GL162233   9.761  41.600   6.150
 8179POPC   GL262234   9.889  41.586   6.150
 8179POPC   C1A62235   9.778  41.604   6.450
 8179POPC   D2A62236   9.795  41.607   6.750
 8179POPC   C3A62237   9.750  41.597   7.050
 8179POPC   C4A62238   9.762  41.591   7.350
 8179POPC   C1B62239  10.017  41.492   6.450
 8179POPC   C2B62240  10.039  41.505   6.750
 8179POPC   C3B62241  10.017  41.541   7.050
 8179POPC   C4B62242   9.998  41.488   7.350
 8180POPC   NC362243  21.387  36.913   5.550
 8180POPC   PO462244  21.411  36.948   5.850
 8180POPC   GL162245  21.435  36.932   6.150
 8180POPC   GL262246  21.332  36.816   6.150
 8180POPC   C1A62247  21.374  36.858   6.450
 8180POPC   D2A62248  21.422  36.876   6.750
 8180POPC   C3A62249  21.339  36.857   7.050
 8180POPC   C4A62250  21.345  36.878   7.350
 8180POPC   C1B62251  21.210  36.748   6.450
 8180POPC   C2B62252  21.184  36.677   6.750
 8180POPC   C3B62253  21.169  36.764   7.050
 8180POPC   C4B62254  21.225  36.747   7.350
 8181POPC   NC362255   6.693   9.735   5.550
 8181POPC   PO462256   6.682   9.737   5.850
 8181POPC   GL162257   6.637   9.724   6.150
 8181POPC   GL262258   6.565   9.793   6.150
 8181POPC   C1A62259   6.671   9.775   6.450
 8181POPC   D2A62260   6.666   9.787   6.750
 8181POPC   C3A62261   6.632   9.754   7.050
 8181POPC   C4A62262   6.644   9.710   7.350
 8181POPC   C1B62263   6.434   9.722   6.450
 8181POPC   C2B62264   6.357   9.789   6.750
 8181POPC   C3B62265   6.401   9.722   7.050
 8181POPC   C4B62266   6.393   9.767   7.350
 8182POPC   NC362267  35.373  24.489   5.550
 8182POPC   PO462268  35.388  24.497   5.850
 8182POPC   GL162269  35.335  24.524   6.150
 8182POPC   GL262270  35.505  24.392   6.150
 8182POPC   C1A62271  35.364  24.514   6.450
 8182POPC   D2A62272  35.355  24.500   6.750
 8182POPC   C3A62273  35.315  24.522   7.050
 8182POPC   C4A62274  35.306  24.514   7.350
 8182POPC   C1B62275  35.548  24.349   6.450
 8182POPC   C2B62276  35.603  24.368   6.750
 8182POPC   C3B62277  35.621  24.368   7.050
 8182POPC   C4B62278  35.570  24.427   7.350
 8183POPC   NC362279   4.346  27.588   5.550
 8183POPC   PO462280   4.284  27.550   5.850
 8183POPC   GL162281   4.281  27.595   6.150
 8183POPC   GL262282   4.240  27.736   6.150
 8183POPC   C1A62283   4.339  27.635   6.450
 8183POPC   D2A62284   4.331  27.547   6.750
 8183POPC   C3A62285   4.358  27.635   7.050
 8183POPC   C4A62286   4.334  27.620   7.350
 8183POPC   C1B62287   4.196  27.779   6.450
 8183POPC   C2B62288   4.126  27.781   6.750
 8183POPC   C3B62289   4.157  27.775   7.050
 8183POPC   C4B62290   4.204  27.780   7.350
 8184POPC   NC362291  43.063   9.762   5.550
 8184POPC   PO462292  43.094   9.752   5.850
 8184POPC   GL162293  43.093   9.710   6.150
 8184POPC   GL262294  43.218   9.653   6.150
 8184POPC   C1A62295  43.116   9.742   6.450
 8184POPC   D2A62296  43.152   9.773   6.750
 8184POPC   C3A62297  43.069   9.720   7.050
 8184POPC   C4A62298  43.110   9.763   7.350
 8184POPC   C1B62299  43.258   9.615   6.450
 8184POPC   C2B62300  43.306   9.608   6.750
 8184POPC   C3B62301  43.316   9.546   7.050
 8184POPC   C4B62302  43.283   9.569   7.350
 8185POPC   NC362303  26.080   3.521   5.550
 8185POPC   PO462304  26.059   3.564   5.850
 8185POPC   GL162305  25.993   3.515   6.150
 8185POPC   GL262306  26.097   3.657   6.150
 8185POPC   C1A62307  26.078   3.497   6.450
 8185POPC   D2A62308  26.084   3.504   6.750
 8185POPC   C3A62309  25.992   3.542   7.050
 8185POPC   C4A62310  26.049   3.507   7.350
 8185POPC   C1B62311  26.234   3.734   6.450
 8185POPC   C2B62312  26.261   3.695   6.750
 8185POPC   C3B62313  26.263   3.680   7.050
 8185POPC   C4B62314  26.208   3.702   7.350
 8186POPC   NC362315   3.556  29.940   5.550
 8186POPC   PO462316   3.520  29.907   5.850
 8186POPC   GL162317   3.528  29.924   6.150
 8186POPC   GL262318   3.591  29.768   6.150
 8186POPC   C1A62319   3.516  29.885   6.450
 8186POPC   D2A62320   3.548  29.956   6.750
 8186POPC   C3A62321   3.520  29.941   7.050
 8186POPC   C4A62322   3.529  29.921   7.350
 8186POPC   C1B62323   3.551  29.673   6.450
 8186POPC   C2B62324   3.576  29.655   6.750
 8186POPC   C3B62325   3.521  29.692   7.050
 8186POPC   C4B62326   3.566  29.667   7.350
 8187POPC   NC362327  26.063  12.083   5.550
 8187POPC   PO462328  26.067  12.092   5.850
 8187POPC   GL162329  26.052  12.052   6.150
 8187POPC   GL262330  25.930  12.218   6.150
 8187POPC   C1A62331  26.057  12.061   6.450
 8187POPC   D2A62332  26.083  12.043   6.750
 8187POPC   C3A62333  26.077  12.041   7.050
 8187POPC   C4A62334  26.027  12.043   7.350
 8187POPC   C1B62335  25.896  12.314   6.450
 8187POPC   C2B62336  25.911  12.256   6.750
 8187POPC   C3B62337  25.926  12.261   7.050
 8187POPC   C4B62338  25.895  12.296   7.350
 8188POPC   NC362339   1.253   4.302   5.550
 8188POPC   PO462340   1.196   4.312   5.850
 8188POPC   GL162341   1.201   4.295   6.150
 8188POPC   GL262342   1.064   4.350   6.150
 8188POPC   C1A62343   1.217   4.331   6.450
 8188POPC   D2A62344   1.166   4.340   6.750
 8188POPC   C3A62345   1.197   4.342   7.050
 8188POPC   C4A62346   1.239   4.283   7.350
 8188POPC   C1B62347   0.935   4.319   6.450
 8188POPC   C2B62348   0.982   4.369   6.750
 8188POPC   C3B62349   0.947   4.329   7.050
 8188POPC   C4B62350   0.928   4.342   7.350
 8189POPC   NC362351   7.469   6.639   5.550
 8189POPC   PO462352   7.395   6.606   5.850
 8189POPC   GL162353   7.398   6.626   6.150
 8189POPC   GL262354   7.368   6.548   6.150
 8189POPC   C1A62355   7.425   6.650   6.450
 8189POPC   D2A62356   7.460   6.596   6.750
 8189POPC   C3A62357   7.462   6.628   7.050
 8189POPC   C4A62358   7.396   6.606   7.350
 8189POPC   C1B62359   7.298   6.442   6.450
 8189POPC   C2B62360   7.254   6.442   6.750
 8189POPC   C3B62361   7.281   6.407   7.050
 8189POPC   C4B62362   7.315   6.436   7.350
 8190POPC   NC362363  43.883   4.269   5.550
 8190POPC   PO462364  43.894   4.281   5.850
 8190POPC   GL162365  43.846   4.295   6.150
 8190POPC   GL262366  43.855   4.383   6.150
 8190POPC   C1A62367  43.872   4.332   6.450
 8190POPC   D2A62368  43.915   4.365   6.750
 8190POPC   C3A62369  43.899   4.286   7.050
 8190POPC   C4A62370  43.851   4.321   7.350
 8190POPC   C1B62371  43.793   4.578   6.450
 8190POPC   C2B62372  43.777   4.567   6.750
 8190POPC   C3B62373  43.745   4.503   7.050
 8190POPC   C4B62374  43.792   4.576   7.350
 8191POPC   NC362375   4.348  29.179   5.550
 8191POPC   PO462376   4.288  29.139   5.850
 8191POPC   GL162377   4.293  29.107   6.150
 8191POPC   GL262378   4.256  29.003   6.150
 8191POPC   C1A62379   4.289  29.184   6.450
 8191POPC   D2A62380   4.271  29.126   6.750
 8191POPC   C3A62381   4.301  29.156   7.050
 8191POPC   C4A62382   4.277  29.125   7.350
 8191POPC   C1B62383   4.176  28.930   6.450
 8191POPC   C2B62384   4.128  28.917   6.750
 8191POPC   C3B62385   4.224  28.965   7.050
 8191POPC   C4B62386   4.213  28.963   7.350
 8192POPC   NC362387  11.259  19.070   5.550
 8192POPC   PO462388  11.308  19.067   5.850
 8192POPC   GL162389  11.270  19.074   6.150
 8192POPC   GL262390  11.220  19.001   6.150
 8192POPC   C1A62391  11.268  19.067   6.450
 8192POPC   D2A62392  11.257  19.018   6.750
 8192POPC   C3A62393  11.301  19.049   7.050
 8192POPC   C4A62394  11.308  19.108   7.350
 8192POPC   C1B62395  11.078  18.888   6.450
 8192POPC   C2B62396  11.076  18.914   6.750
 8192POPC   C3B62397  11.125  18.920   7.050
 8192POPC   C4B62398  11.097  18.898   7.350
 8193POPC   NC362399   7.410   8.174   5.550
 8193POPC   PO462400   7.392   8.181   5.850
 8193POPC   GL162401   7.380   8.170   6.150
 8193POPC   GL262402   7.276   8.251   6.150
 8193POPC   C1A62403   7.407   8.228   6.450
 8193POPC   D2A62404   7.426   8.244   6.750
 8193POPC   C3A62405   7.453   8.151   7.050
 8193POPC   C4A62406   7.461   8.165   7.350
 8193POPC   C1B62407   7.187   8.202   6.450
 8193POPC   C2B62408   7.168   8.197   6.750
 8193POPC   C3B62409   7.187   8.254   7.050
 8193POPC   C4B62410   7.155   8.224   7.350
 8194POPC   NC362411  27.606  11.315   5.550
 8194POPC   PO462412  27.616  11.340   5.850
 8194POPC   GL162413  27.546  11.332   6.150
 8194POPC   GL262414  27.456  11.356   6.150
 8194POPC   C1A62415  27.605  11.259   6.450
 8194POPC   D2A62416  27.634  11.270   6.750
 8194POPC   C3A62417  27.638  11.337   7.050
 8194POPC   C4A62418  27.560  11.313   7.350
 8194POPC   C1B62419  27.367  11.366   6.450
 8194POPC   C2B62420  27.339  11.315   6.750
 8194POPC   C3B62421  27.382  11.333   7.050
 8194POPC   C4B62422  27.373  11.305   7.350
 8195POPC   NC362423  30.657  22.170   5.550
 8195POPC   PO462424  30.687  22.139   5.850
 8195POPC   GL162425  30.735  22.115   6.150
 8195POPC   GL262426  30.541  22.134   6.150
 8195POPC   C1A62427  30.654  22.171   6.450
 8195POPC   D2A62428  30.708  22.124   6.750
 8195POPC   C3A62429  30.742  22.136   7.050
 8195POPC   C4A62430  30.707  22.201   7.350
 8195POPC   C1B62431  30.446  22.001   6.450
 8195POPC   C2B62432  30.447  22.033   6.750
 8195POPC   C3B62433  30.494  22.032   7.050
 8195POPC   C4B62434  30.503  22.012   7.350
 8196POPC   NC362435  35.321  22.942   5.550
 8196POPC   PO462436  35.310  22.905   5.850
 8196POPC   GL162437  35.320  22.922   6.150
 8196POPC   GL262438  35.200  22.982   6.150
 8196POPC   C1A62439  35.397  22.937   6.450
 8196POPC   D2A62440  35.385  22.892   6.750
 8196POPC   C3A62441  35.350  22.925   7.050
 8196POPC   C4A62442  35.370  22.958   7.350
 8196POPC   C1B62443  35.057  22.928   6.450
 8196POPC   C2B62444  35.111  22.890   6.750
 8196POPC   C3B62445  35.067  22.951   7.050
 8196POPC   C4B62446  35.105  22.964   7.350
 8197POPC   NC362447   6.612   9.016   5.550
 8197POPC   PO462448   6.602   8.949   5.850
 8197POPC   GL162449   6.676   8.977   6.150
 8197POPC   GL262450   6.611   8.837   6.150
 8197POPC   C1A62451   6.595   8.926   6.450
 8197POPC   D2A62452   6.597   8.949   6.750
 8197POPC   C3A62453   6.607   8.930   7.050
 8197POPC   C4A62454   6.686   8.946   7.350
 8197POPC   C1B62455   6.608   8.748   6.450
 8197POPC   C2B62456   6.651   8.718   6.750
 8197POPC   C3B62457   6.627   8.769   7.050
 8197POPC   C4B62458   6.669   8.675   7.350
 8198POPC   NC362459  11.315  11.274   5.550
 8198POPC   PO462460  11.277  11.310   5.850
 8198POPC   GL162461  11.283  11.277   6.150
 8198POPC   GL262462  11.204  11.385   6.150
 8198POPC   C1A62463  11.298  11.309   6.450
 8198POPC   D2A62464  11.324  11.311   6.750
 8198POPC   C3A62465  11.255  11.278   7.050
 8198POPC   C4A62466  11.266  11.321   7.350
 8198POPC   C1B62467  11.089  11.437   6.450
 8198POPC   C2B62468  11.040  11.443   6.750
 8198POPC   C3B62469  11.062  11.400   7.050
 8198POPC   C4B62470  11.039  11.440   7.350
 8199POPC   NC362471  26.832  33.062   5.550
 8199POPC   PO462472  26.865  33.002   5.850
 8199POPC   GL162473  26.855  33.063   6.150
 8199POPC   GL262474  26.800  33.088   6.150
 8199POPC   C1A62475  26.860  33.057   6.450
 8199POPC   D2A62476  26.864  33.070   6.750
 8199POPC   C3A62477  26.776  33.010   7.050
 8199POPC   C4A62478  26.776  33.020   7.350
 8199POPC   C1B62479  26.679  33.280   6.450
 8199POPC   C2B62480  26.693  33.252   6.750
 8199POPC   C3B62481  26.707  33.204   7.050
 8199POPC   C4B62482  26.660  33.236   7.350
 8200POPC   NC362483  35.351  36.087   5.550
 8200POPC   PO462484  35.341  36.161   5.850
 8200POPC   GL162485  35.394  36.167   6.150
 8200POPC   GL262486  35.384  36.036   6.150
 8200POPC   C1A62487  35.339  36.168   6.450
 8200POPC   D2A62488  35.362  36.114   6.750
 8200POPC   C3A62489  35.309  36.153   7.050
 8200POPC   C4A62490  35.332  36.106   7.350
 8200POPC   C1B62491  35.438  35.899   6.450
 8200POPC   C2B62492  35.415  35.930   6.750
 8200POPC   C3B62493  35.433  35.926   7.050
 8200POPC   C4B62494  35.488  35.890   7.350
 8201POPC   NC362495   9.770  12.052   5.550
 8201POPC   PO462496   9.779  12.033   5.850
 8201POPC   GL162497   9.703  12.117   6.150
 8201POPC   GL262498   9.702  11.936   6.150
 8201POPC   C1A62499   9.710  12.065   6.450
 8201POPC   D2A62500   9.728  12.068   6.750
 8201POPC   C3A62501   9.700  12.096   7.050
 8201POPC   C4A62502   9.751  12.106   7.350
 8201POPC   C1B62503   9.588  11.915   6.450
 8201POPC   C2B62504   9.635  11.900   6.750
 8201POPC   C3B62505   9.570  11.906   7.050
 8201POPC   C4B62506   9.649  11.858   7.350
 8202POPC   NC362507  22.137  41.578   5.550
 8202POPC   PO462508  22.161  41.522   5.850
 8202POPC   GL162509  22.176  41.522   6.150
 8202POPC   GL262510  22.098  41.702   6.150
 8202POPC   C1A62511  22.115  41.509   6.450
 8202POPC   D2A62512  22.128  41.571   6.750
 8202POPC   C3A62513  22.193  41.524   7.050
 8202POPC   C4A62514  22.202  41.563   7.350
 8202POPC   C1B62515  22.122  41.794   6.450
 8202POPC   C2B62516  22.143  41.766   6.750
 8202POPC   C3B62517  22.124  41.800   7.050
 8202POPC   C4B62518  22.070  41.781   7.350
 8203POPC   NC362519  34.610  13.642   5.550
 8203POPC   PO462520  34.526  13.645   5.850
 8203POPC   GL162521  34.609  13.593   6.150
 8203POPC   GL262522  34.444  13.511   6.150
 8203POPC   C1A62523  34.624  13.611   6.450
 8203POPC   D2A62524  34.588  13.580   6.750
 8203POPC   C3A62525  34.626  13.665   7.050
 8203POPC   C4A62526  34.607  13.603   7.350
 8203POPC   C1B62527  34.413  13.459   6.450
 8203POPC   C2B62528  34.347  13.481   6.750
 8203POPC   C3B62529  34.362  13.489   7.050
 8203POPC   C4B62530  34.405  13.490   7.350
 8204POPC   NC362531  11.294   4.366   5.550
 8204POPC   PO462532  11.327   4.290   5.850
 8204POPC   GL162533  11.345   4.323   6.150
 8204POPC   GL262534  11.457   4.329   6.150
 8204POPC   C1A62535  11.336   4.274   6.450
 8204POPC   D2A62536  11.292   4.344   6.750
 8204POPC   C3A62537  11.287   4.291   7.050
 8204POPC   C4A62538  11.272   4.297   7.350
 8204POPC   C1B62539  11.538   4.351   6.450
 8204POPC   C2B62540  11.515   4.387   6.750
 8204POPC   C3B62541  11.569   4.319   7.050
 8204POPC   C4B62542  11.508   4.373   7.350
 8205POPC   NC362543  15.979  37.696   5.550
 8205POPC   PO462544  15.911  37.669   5.850
 8205POPC   GL162545  15.986  37.718   6.150
 8205POPC   GL262546  15.799  37.697   6.150
 8205POPC   C1A62547  15.970  37.661   6.450
 8205POPC   D2A62548  15.906  37.679   6.750
 8205POPC   C3A62549  15.965  37.712   7.050
 8205POPC   C4A62550  15.992  37.670   7.350
 8205POPC   C1B62551  15.751  37.760   6.450
 8205POPC   C2B62552  15.771  37.743   6.750
 8205POPC   C3B62553  15.736  37.797   7.050
 8205POPC   C4B62554  15.702  37.812   7.350
 8206POPC   NC362555  36.166  33.008   5.550
 8206POPC   PO462556  36.162  33.016   5.850
 8206POPC   GL162557  36.079  32.982   6.150
 8206POPC   GL262558  36.185  32.886   6.150
 8206POPC   C1A62559  36.101  33.058   6.450
 8206POPC   D2A62560  36.097  33.051   6.750
 8206POPC   C3A62561  36.116  32.997   7.050
 8206POPC   C4A62562  36.164  33.043   7.350
 8206POPC   C1B62563  36.235  32.756   6.450
 8206POPC   C2B62564  36.191  32.758   6.750
 8206POPC   C3B62565  36.228  32.760   7.050
 8206POPC   C4B62566  36.232  32.829   7.350
 8207POPC   NC362567   8.151  11.319   5.550
 8207POPC   PO462568   8.155  11.294   5.850
 8207POPC   GL162569   8.234  11.319   6.150
 8207POPC   GL262570   8.249  11.363   6.150
 8207POPC   C1A62571   8.219  11.308   6.450
 8207POPC   D2A62572   8.173  11.303   6.750
 8207POPC   C3A62573   8.220  11.335   7.050
 8207POPC   C4A62574   8.190  11.302   7.350
 8207POPC   C1B62575   8.339  11.560   6.450
 8207POPC   C2B62576   8.364  11.480   6.750
 8207POPC   C3B62577   8.317  11.482   7.050
 8207POPC   C4B62578   8.353  11.488   7.350
 8208POPC   NC362579   7.445  32.285   5.550
 8208POPC   PO462580   7.418  32.266   5.850
 8208POPC   GL162581   7.460  32.272   6.150
 8208POPC   GL262582   7.368  32.343   6.150
 8208POPC   C1A62583   7.425  32.262   6.450
 8208POPC   D2A62584   7.447  32.235   6.750
 8208POPC   C3A62585   7.414  32.243   7.050
 8208POPC   C4A62586   7.437  32.220   7.350
 8208POPC   C1B62587   7.266  32.402   6.450
 8208POPC   C2B62588   7.258  32.469   6.750
 8208POPC   C3B62589   7.281  32.455   7.050
 8208POPC   C4B62590   7.304  32.479   7.350
 8209POPC   NC362591   5.848  43.109   5.550
 8209POPC   PO462592   5.900  43.075   5.850
 8209POPC   GL162593   5.907  43.142   6.150
 8209POPC   GL262594   5.821  43.217   6.150
 8209POPC   C1A62595   5.852  43.093   6.450
 8209POPC   D2A62596   5.881  43.111   6.750
 8209POPC   C3A62597   5.865  43.139   7.050
 8209POPC   C4A62598   5.855  43.088   7.350
 8209POPC   C1B62599   5.838  43.329   6.450
 8209POPC   C2B62600   5.842  43.383   6.750
 8209POPC   C3B62601   5.867  43.367   7.050
 8209POPC   C4B62602   5.886  43.347   7.350
 8210POPC   NC362603  39.958  27.544   5.550
 8210POPC   PO462604  40.041  27.636   5.850
 8210POPC   GL162605  39.977  27.624   6.150
 8210POPC   GL262606  39.994  27.486   6.150
 8210POPC   C1A62607  40.041  27.587   6.450
 8210POPC   D2A62608  39.975  27.625   6.750
 8210POPC   C3A62609  40.013  27.632   7.050
 8210POPC   C4A62610  40.037  27.591   7.350
 8210POPC   C1B62611  39.878  27.416   6.450
 8210POPC   C2B62612  39.921  27.391   6.750
 8210POPC   C3B62613  39.879  27.336   7.050
 8210POPC   C4B62614  39.911  27.365   7.350
 8211POPC   NC362615  38.503   5.059   5.550
 8211POPC   PO462616  38.480   5.055   5.850
 8211POPC   GL162617  38.425   5.080   6.150
 8211POPC   GL262618  38.463   4.922   6.150
 8211POPC   C1A62619  38.485   5.141   6.450
 8211POPC   D2A62620  38.406   5.083   6.750
 8211POPC   C3A62621  38.432   5.128   7.050
 8211POPC   C4A62622  38.504   5.122   7.350
 8211POPC   C1B62623  38.439   4.820   6.450
 8211POPC   C2B62624  38.448   4.832   6.750
 8211POPC   C3B62625  38.484   4.803   7.050
 8211POPC   C4B62626  38.415   4.842   7.350
 8212POPC   NC362627  33.065  20.608   5.550
 8212POPC   PO462628  32.997  20.564   5.850
 8212POPC   GL162629  33.058  20.604   6.150
 8212POPC   GL262630  32.956  20.498   6.150
 8212POPC   C1A62631  33.024  20.645   6.450
 8212POPC   D2A62632  33.036  20.562   6.750
 8212POPC   C3A62633  33.023  20.564   7.050
 8212POPC   C4A62634  32.976  20.608   7.350
 8212POPC   C1B62635  32.864  20.412   6.450
 8212POPC   C2B62636  32.844  20.437   6.750
 8212POPC   C3B62637  32.920  20.399   7.050
 8212POPC   C4B62638  32.886  20.407   7.350
 8213POPC   NC362639  25.306  34.584   5.550
 8213POPC   PO462640  25.311  34.565   5.850
 8213POPC   GL162641  25.282  34.554   6.150
 8213POPC   GL262642  25.185  34.578   6.150
 8213POPC   C1A62643  25.265  34.573   6.450
 8213POPC   D2A62644  25.216  34.617   6.750
 8213POPC   C3A62645  25.257  34.599   7.050
 8213POPC   C4A62646  25.293  34.587   7.350
 8213POPC   C1B62647  25.028  34.607   6.450
 8213POPC   C2B62648  25.030  34.633   6.750
 8213POPC   C3B62649  25.052  34.635   7.050
 8213POPC   C4B62650  24.976  34.579   7.350
 8214POPC   NC362651  17.518  31.515   5.550
 8214POPC   PO462652  17.523  31.502   5.850
 8214POPC   GL162653  17.530  31.435   6.150
 8214POPC   GL262654  17.370  31.391   6.150
 8214POPC   C1A62655  17.492  31.499   6.450
 8214POPC   D2A62656  17.548  31.493   6.750
 8214POPC   C3A62657  17.484  31.492   7.050
 8214POPC   C4A62658  17.539  31.490   7.350
 8214POPC   C1B62659  17.236  31.375   6.450
 8214POPC   C2B62660  17.244  31.348   6.750
 8214POPC   C3B62661  17.298  31.430   7.050
 8214POPC   C4B62662  17.233  31.431   7.350
 8215POPC   NC362663   9.707   8.953   5.550
 8215POPC   PO462664   9.762   8.999   5.850
 8215POPC   GL162665   9.705   8.984   6.150
 8215POPC   GL262666   9.840   9.101   6.150
 8215POPC   C1A62667   9.735   8.957   6.450
 8215POPC   D2A62668   9.783   9.000   6.750
 8215POPC   C3A62669   9.774   8.968   7.050
 8215POPC   C4A62670   9.701   8.996   7.350
 8215POPC   C1B62671   9.881   9.141   6.450
 8215POPC   C2B62672   9.923   9.155   6.750
 8215POPC   C3B62673   9.890   9.133   7.050
 8215POPC   C4B62674   9.970   9.105   7.350
 8216POPC   NC362675   4.288   8.198   5.550
 8216POPC   PO462676   4.303   8.166   5.850
 8216POPC   GL162677   4.361   8.186   6.150
 8216POPC   GL262678   4.206   8.323   6.150
 8216POPC   C1A62679   4.275   8.173   6.450
 8216POPC   D2A62680   4.300   8.234   6.750
 8216POPC   C3A62681   4.274   8.214   7.050
 8216POPC   C4A62682   4.345   8.147   7.350
 8216POPC   C1B62683   4.196   8.410   6.450
 8216POPC   C2B62684   4.189   8.394   6.750
 8216POPC   C3B62685   4.209   8.425   7.050
 8216POPC   C4B62686   4.192   8.425   7.350
 8217POPC   NC362687  25.310  26.851   5.550
 8217POPC   PO462688  25.291  26.866   5.850
 8217POPC   GL162689  25.310  26.834   6.150
 8217POPC   GL262690  25.428  26.826   6.150
 8217POPC   C1A62691  25.243  26.823   6.450
 8217POPC   D2A62692  25.307  26.821   6.750
 8217POPC   C3A62693  25.245  26.819   7.050
 8217POPC   C4A62694  25.217  26.772   7.350
 8217POPC   C1B62695  25.508  26.962   6.450
 8217POPC   C2B62696  25.494  26.917   6.750
 8217POPC   C3B62697  25.515  26.877   7.050
 8217POPC   C4B62698  25.447  26.963   7.350
 8218POPC   NC362699   1.964  30.696   5.550
 8218POPC   PO462700   1.989  30.731   5.850
 8218POPC   GL162701   1.980  30.746   6.150
 8218POPC   GL262702   2.095  30.739   6.150
 8218POPC   C1A62703   1.948  30.673   6.450
 8218POPC   D2A62704   2.017  30.661   6.750
 8218POPC   C3A62705   1.971  30.658   7.050
 8218POPC   C4A62706   1.975  30.686   7.350
 8218POPC   C1B62707   2.253  30.831   6.450
 8218POPC   C2B62708   2.208  30.799   6.750
 8218POPC   C3B62709   2.249  30.826   7.050
 8218POPC   C4B62710   2.241  30.844   7.350
 8219POPC   NC362711  36.945  25.271   5.550
 8219POPC   PO462712  36.919  25.227   5.850
 8219POPC   GL162713  36.904  25.269   6.150
 8219POPC   GL262714  36.912  25.390   6.150
 8219POPC   C1A62715  36.863  25.301   6.450
 8219POPC   D2A62716  36.949  25.313   6.750
 8219POPC   C3A62717  36.930  25.217   7.050
 8219POPC   C4A62718  36.888  25.240   7.350
 8219POPC   C1B62719  36.856  25.468   6.450
 8219POPC   C2B62720  36.861  25.554   6.750
 8219POPC   C3B62721  36.839  25.512   7.050
 8219POPC   C4B62722  36.848  25.540   7.350
 8220POPC   NC362723  21.351  18.273   5.550
 8220POPC   PO462724  21.377  18.268   5.850
 8220POPC   GL162725  21.408  18.236   6.150
 8220POPC   GL262726  21.348  18.440   6.150
 8220POPC   C1A62727  21.397  18.291   6.450
 8220POPC   D2A62728  21.356  18.270   6.750
 8220POPC   C3A62729  21.379  18.290   7.050
 8220POPC   C4A62730  21.385  18.254   7.350
 8220POPC   C1B62731  21.398  18.553   6.450
 8220POPC   C2B62732  21.392  18.509   6.750
 8220POPC   C3B62733  21.370  18.482   7.050
 8220POPC   C4B62734  21.378  18.544   7.350
 8221POPC   NC362735  22.199  40.016   5.550
 8221POPC   PO462736  22.201  39.963   5.850
 8221POPC   GL162737  22.192  39.964   6.150
 8221POPC   GL262738  22.108  39.925   6.150
 8221POPC   C1A62739  22.151  39.960   6.450
 8221POPC   D2A62740  22.211  40.015   6.750
 8221POPC   C3A62741  22.197  40.050   7.050
 8221POPC   C4A62742  22.168  40.032   7.350
 8221POPC   C1B62743  22.033  39.752   6.450
 8221POPC   C2B62744  22.093  39.772   6.750
 8221POPC   C3B62745  22.069  39.805   7.050
 8221POPC   C4B62746  22.076  39.763   7.350
 8222POPC   NC362747  29.931  13.653   5.550
 8222POPC   PO462748  29.949  13.632   5.850
 8222POPC   GL162749  29.950  13.661   6.150
 8222POPC   GL262750  29.855  13.723   6.150
 8222POPC   C1A62751  29.952  13.677   6.450
 8222POPC   D2A62752  29.908  13.621   6.750
 8222POPC   C3A62753  29.906  13.587   7.050
 8222POPC   C4A62754  29.914  13.597   7.350
 8222POPC   C1B62755  29.721  13.738   6.450
 8222POPC   C2B62756  29.750  13.740   6.750
 8222POPC   C3B62757  29.672  13.811   7.050
 8222POPC   C4B62758  29.744  13.787   7.350
 8223POPC   NC362759  39.270   0.396   5.550
 8223POPC   PO462760  39.237   0.448   5.850
 8223POPC   GL162761  39.219   0.449   6.150
 8223POPC   GL262762  39.354   0.339   6.150
 8223POPC   C1A62763  39.266   0.429   6.450
 8223POPC   D2A62764  39.183   0.415   6.750
 8223POPC   C3A62765  39.201   0.446   7.050
 8223POPC   C4A62766  39.208   0.482   7.350
 8223POPC   C1B62767  39.375   0.257   6.450
 8223POPC   C2B62768  39.472   0.267   6.750
 8223POPC   C3B62769  39.439   0.322   7.050
 8223POPC   C4B62770  39.458   0.300   7.350
 8224POPC   NC362771  38.420  23.704   5.550
 8224POPC   PO462772  38.482  23.761   5.850
 8224POPC   GL162773  38.486  23.690   6.150
 8224POPC   GL262774  38.372  23.776   6.150
 8224POPC   C1A62775  38.478  23.712   6.450
 8224POPC   D2A62776  38.488  23.667   6.750
 8224POPC   C3A62777  38.483  23.689   7.050
 8224POPC   C4A62778  38.491  23.732   7.350
 8224POPC   C1B62779  38.244  23.950   6.450
 8224POPC   C2B62780  38.322  23.933   6.750
 8224POPC   C3B62781  38.288  23.863   7.050
 8224POPC   C4B62782  38.327  23.880   7.350
 8225POPC   NC362783   1.220  38.417   5.550
 8225POPC   PO462784   1.232  38.478   5.850
 8225POPC   GL162785   1.176  38.483   6.150
 8225POPC   GL262786   1.342  38.368   6.150
 8225POPC   C1A62787   1.215  38.503   6.450
 8225POPC   D2A62788   1.223  38.484   6.750
 8225POPC   C3A62789   1.232  38.415   7.050
 8225POPC   C4A62790   1.192  38.452   7.350
 8225POPC   C1B62791   1.357  38.237   6.450
 8225POPC   C2B62792   1.400  38.264   6.750
 8225POPC   C3B62793   1.348  38.234   7.050
 8225POPC   C4B62794   1.361  38.250   7.350
 8226POPC   NC362795  21.338   3.583   5.550
 8226POPC   PO462796  21.407   3.584   5.850
 8226POPC   GL162797  21.350   3.508   6.150
 8226POPC   GL262798  21.468   3.472   6.150
 8226POPC   C1A62799  21.426   3.517   6.450
 8226POPC   D2A62800  21.346   3.519   6.750
 8226POPC   C3A62801  21.358   3.519   7.050
 8226POPC   C4A62802  21.433   3.590   7.350
 8226POPC   C1B62803  21.501   3.264   6.450
 8226POPC   C2B62804  21.483   3.346   6.750
 8226POPC   C3B62805  21.433   3.283   7.050
 8226POPC   C4B62806  21.423   3.321   7.350
 8227POPC   NC362807  17.519   4.274   5.550
 8227POPC   PO462808  17.544   4.285   5.850
 8227POPC   GL162809  17.513   4.317   6.150
 8227POPC   GL262810  17.437   4.344   6.150
 8227POPC   C1A62811  17.469   4.335   6.450
 8227POPC   D2A62812  17.539   4.268   6.750
 8227POPC   C3A62813  17.488   4.280   7.050
 8227POPC   C4A62814  17.526   4.353   7.350
 8227POPC   C1B62815  17.295   4.477   6.450
 8227POPC   C2B62816  17.332   4.416   6.750
 8227POPC   C3B62817  17.333   4.469   7.050
 8227POPC   C4B62818  17.320   4.454   7.350
 8228POPC   NC362819  43.906   8.958   5.550
 8228POPC   PO462820  43.932   8.947   5.850
 8228POPC   GL162821  43.887   9.012   6.150
 8228POPC   GL262822  43.991   8.903   6.150
 8228POPC   C1A62823  43.911   9.000   6.450
 8228POPC   D2A62824  43.912   9.002   6.750
 8228POPC   C3A62825  43.920   8.987   7.050
 8228POPC   C4A62826  43.843   8.944   7.350
 8228POPC   C1B62827  44.094   8.843   6.450
 8228POPC   C2B62828  44.126   8.873   6.750
 8228POPC   C3B62829  44.098   8.859   7.050
 8228POPC   C4B62830  44.100   8.827   7.350
 8229POPC   NC362831  18.294  17.545   5.550
 8229POPC   PO462832  18.310  17.490   5.850
 8229POPC   GL162833  18.240  17.531   6.150
 8229POPC   GL262834  18.405  17.431   6.150
 8229POPC   C1A62835  18.270  17.544   6.450
 8229POPC   D2A62836  18.265  17.509   6.750
 8229POPC   C3A62837  18.292  17.477   7.050
 8229POPC   C4A62838  18.244  17.528   7.350
 8229POPC   C1B62839  18.531  17.455   6.450
 8229POPC   C2B62840  18.469  17.409   6.750
 8229POPC   C3B62841  18.471  17.447   7.050
 8229POPC   C4B62842  18.497  17.410   7.350
 8230POPC   NC362843  34.619  24.470   5.550
 8230POPC   PO462844  34.572  24.508   5.850
 8230POPC   GL162845  34.587  24.467   6.150
 8230POPC   GL262846  34.528  24.655   6.150
 8230POPC   C1A62847  34.570  24.493   6.450
 8230POPC   D2A62848  34.538  24.493   6.750
 8230POPC   C3A62849  34.527  24.447   7.050
 8230POPC   C4A62850  34.542  24.492   7.350
 8230POPC   C1B62851  34.587  24.701   6.450
 8230POPC   C2B62852  34.558  24.691   6.750
 8230POPC   C3B62853  34.566  24.747   7.050
 8230POPC   C4B62854  34.505  24.715   7.350
 8231POPC   NC362855  27.627  37.665   5.550
 8231POPC   PO462856  27.606  37.717   5.850
 8231POPC   GL162857  27.601  37.715   6.150
 8231POPC   GL262858  27.686  37.736   6.150
 8231POPC   C1A62859  27.616  37.725   6.450
 8231POPC   D2A62860  27.582  37.631   6.750
 8231POPC   C3A62861  27.599  37.636   7.050
 8231POPC   C4A62862  27.628  37.704   7.350
 8231POPC   C1B62863  27.762  37.879   6.450
 8231POPC   C2B62864  27.756  37.817   6.750
 8231POPC   C3B62865  27.832  37.795   7.050
 8231POPC   C4B62866  27.764  37.846   7.350
 8232POPC   NC362867  43.881  19.092   5.550
 8232POPC   PO462868  43.893  19.055   5.850
 8232POPC   GL162869  43.914  19.051   6.150
 8232POPC   GL262870  43.738  19.064   6.150
 8232POPC   C1A62871  43.917  19.012   6.450
 8232POPC   D2A62872  43.844  19.097   6.750
 8232POPC   C3A62873  43.894  19.052   7.050
 8232POPC   C4A62874  43.887  19.050   7.350
 8232POPC   C1B62875  43.679  19.074   6.450
 8232POPC   C2B62876  43.666  18.980   6.750
 8232POPC   C3B62877  43.627  18.982   7.050
 8232POPC   C4B62878  43.610  19.073   7.350
 8233POPC   NC362879  29.923   6.648   5.550
 8233POPC   PO462880  29.934   6.657   5.850
 8233POPC   GL162881  29.886   6.617   6.150
 8233POPC   GL262882  30.016   6.712   6.150
 8233POPC   C1A62883  29.905   6.608   6.450
 8233POPC   D2A62884  29.913   6.681   6.750
 8233POPC   C3A62885  29.922   6.669   7.050
 8233POPC   C4A62886  29.896   6.694   7.350
 8233POPC   C1B62887  30.091   6.714   6.450
 8233POPC   C2B62888  30.131   6.721   6.750
 8233POPC   C3B62889  30.094   6.787   7.050
 8233POPC   C4B62890  30.106   6.724   7.350
 8234POPC   NC362891  29.114  25.249   5.550
 8234POPC   PO462892  29.179  25.307   5.850
 8234POPC   GL162893  29.151  25.262   6.150
 8234POPC   GL262894  29.050  25.326   6.150
 8234POPC   C1A62895  29.173  25.269   6.450
 8234POPC   D2A62896  29.114  25.299   6.750
 8234POPC   C3A62897  29.123  25.302   7.050
 8234POPC   C4A62898  29.165  25.264   7.350
 8234POPC   C1B62899  28.955  25.408   6.450
 8234POPC   C2B62900  29.020  25.472   6.750
 8234POPC   C3B62901  28.996  25.453   7.050
 8234POPC   C4B62902  28.993  25.418   7.350
 8235POPC   NC362903  24.535   7.439   5.550
 8235POPC   PO462904  24.491   7.381   5.850
 8235POPC   GL162905  24.476   7.411   6.150
 8235POPC   GL262906  24.333   7.354   6.150
 8235POPC   C1A62907  24.536   7.402   6.450
 8235POPC   D2A62908  24.528   7.388   6.750
 8235POPC   C3A62909  24.508   7.424   7.050
 8235POPC   C4A62910  24.442   7.375   7.350
 8235POPC   C1B62911  24.253   7.295   6.450
 8235POPC   C2B62912  24.262   7.255   6.750
 8235POPC   C3B62913  24.286   7.282   7.050
 8235POPC   C4B62914  24.264   7.316   7.350
 8236POPC   NC362915  11.301  12.067   5.550
 8236POPC   PO462916  11.341  12.099   5.850
 8236POPC   GL162917  11.284  12.115   6.150
 8236POPC   GL262918  11.388  12.030   6.150
 8236POPC   C1A62919  11.280  12.058   6.450
 8236POPC   D2A62920  11.337  12.102   6.750
 8236POPC   C3A62921  11.312  12.121   7.050
 8236POPC   C4A62922  11.335  12.100   7.350
 8236POPC   C1B62923  11.499  11.964   6.450
 8236POPC   C2B62924  11.554  11.987   6.750
 8236POPC   C3B62925  11.514  11.995   7.050
 8236POPC   C4B62926  11.491  11.992   7.350
 8237POPC   NC362927  19.857   5.919   5.550
 8237POPC   PO462928  19.877   5.860   5.850
 8237POPC   GL162929  19.841   5.911   6.150
 8237POPC   GL262930  20.001   5.892   6.150
 8237POPC   C1A62931  19.826   5.868   6.450
 8237POPC   D2A62932  19.882   5.899   6.750
 8237POPC   C3A62933  19.841   5.919   7.050
 8237POPC   C4A62934  19.789   5.888   7.350
 8237POPC   C1B62935  20.040   5.942   6.450
 8237POPC   C2B62936  20.029   5.963   6.750
 8237POPC   C3B62937  20.107   5.957   7.050
 8237POPC   C4B62938  20.105   5.932   7.350
 8238POPC   NC362939  23.725   4.356   5.550
 8238POPC   PO462940  23.753   4.311   5.850
 8238POPC   GL162941  23.682   4.270   6.150
 8238POPC   GL262942  23.627   4.265   6.150
 8238POPC   C1A62943  23.695   4.364   6.450
 8238POPC   D2A62944  23.713   4.346   6.750
 8238POPC   C3A62945  23.763   4.353   7.050
 8238POPC   C4A62946  23.749   4.351   7.350
 8238POPC   C1B62947  23.566   4.125   6.450
 8238POPC   C2B62948  23.549   4.125   6.750
 8238POPC   C3B62949  23.555   4.115   7.050
 8238POPC   C4B62950  23.542   4.122   7.350
 8239POPC   NC362951  43.916  21.362   5.550
 8239POPC   PO462952  43.856  21.408   5.850
 8239POPC   GL162953  43.907  21.388   6.150
 8239POPC   GL262954  43.753  21.407   6.150
 8239POPC   C1A62955  43.907  21.348   6.450
 8239POPC   D2A62956  43.900  21.344   6.750
 8239POPC   C3A62957  43.912  21.430   7.050
 8239POPC   C4A62958  43.866  21.380   7.350
 8239POPC   C1B62959  43.632  21.401   6.450
 8239POPC   C2B62960  43.646  21.391   6.750
 8239POPC   C3B62961  43.593  21.363   7.050
 8239POPC   C4B62962  43.634  21.422   7.350
 8240POPC   NC362963   0.471  42.285   5.550
 8240POPC   PO462964   0.449  42.384   5.850
 8240POPC   GL162965   0.465  42.376   6.150
 8240POPC   GL262966   0.546  42.344   6.150
 8240POPC   C1A62967   0.455  42.292   6.450
 8240POPC   D2A62968   0.402  42.382   6.750
 8240POPC   C3A62969   0.391  42.314   7.050
 8240POPC   C4A62970   0.442  42.364   7.350
 8240POPC   C1B62971   0.635  42.471   6.450
 8240POPC   C2B62972   0.658  42.396   6.750
 8240POPC   C3B62973   0.628  42.458   7.050
 8240POPC   C4B62974   0.646  42.427   7.350
 8241POPC   NC362975  18.280  12.880   5.550
 8241POPC   PO462976  18.267  12.862   5.850
 8241POPC   GL162977  18.309  12.857   6.150
 8241POPC   GL262978  18.360  12.935   6.150
 8241POPC   C1A62979  18.254  12.881   6.450
 8241POPC   D2A62980  18.312  12.848   6.750
 8241POPC   C3A62981  18.240  12.826   7.050
 8241POPC   C4A62982  18.269  12.843   7.350
 8241POPC   C1B62983  18.357  13.071   6.450
 8241POPC   C2B62984  18.384  13.051   6.750
 8241POPC   C3B62985  18.289  13.140   7.050
 8241POPC   C4B62986  18.381  13.126   7.350
 8242POPC   NC362987  32.296  16.751   5.550
 8242POPC   PO462988  32.281  16.738   5.850
 8242POPC   GL162989  32.222  16.718   6.150
 8242POPC   GL262990  32.319  16.652   6.150
 8242POPC   C1A62991  32.201  16.778   6.450
 8242POPC   D2A62992  32.267  16.714   6.750
 8242POPC   C3A62993  32.294  16.720   7.050
 8242POPC   C4A62994  32.234  16.703   7.350
 8242POPC   C1B62995  32.403  16.517   6.450
 8242POPC   C2B62996  32.397  16.530   6.750
 8242POPC   C3B62997  32.378  16.544   7.050
 8242POPC   C4B62998  32.436  16.516   7.350
 8243POPC   NC362999  30.651   5.091   5.550
 8243POPC   PO463000  30.697   5.090   5.850
 8243POPC   GL163001  30.738   5.121   6.150
 8243POPC   GL263002  30.580   4.973   6.150
 8243POPC   C1A63003  30.659   5.048   6.450
 8243POPC   D2A63004  30.718   5.108   6.750
 8243POPC   C3A63005  30.711   5.071   7.050
 8243POPC   C4A63006  30.741   5.112   7.350
 8243POPC   C1B63007  30.535   4.914   6.450
 8243POPC   C2B63008  30.482   4.922   6.750
 8243POPC   C3B63009  30.519   4.935   7.050
 8243POPC   C4B63010  30.560   4.912   7.350
 8244POPC   NC363011  26.805   1.980   5.550
 8244POPC   PO463012  26.794   1.983   5.850
 8244POPC   GL163013  26.800   1.947   6.150
 8244POPC   GL263014  26.700   2.128   6.150
 8244POPC   C1A63015  26.776   1.976   6.450
 8244POPC   D2A63016  26.801   1.966   6.750
 8244POPC   C3A63017  26.845   2.009   7.050
 8244POPC   C4A63018  26.848   2.004   7.350
 8244POPC   C1B63019  26.629   2.203   6.450
 8244POPC   C2B63020  26.677   2.137   6.750
 8244POPC   C3B63021  26.600   2.140   7.050
 8244POPC   C4B63022  26.623   2.186   7.350
 8245POPC   NC363023  19.049  14.429   5.550
 8245POPC   PO463024  19.037  14.395   5.850
 8245POPC   GL163025  19.063  14.385   6.150
 8245POPC   GL263026  19.057  14.492   6.150
 8245POPC   C1A63027  19.056  14.375   6.450
 8245POPC   D2A63028  19.038  14.384   6.750
 8245POPC   C3A63029  19.036  14.422   7.050
 8245POPC   C4A63030  19.011  14.417   7.350
 8245POPC   C1B63031  19.077  14.608   6.450
 8245POPC   C2B63032  19.129  14.672   6.750
 8245POPC   C3B63033  19.055  14.699   7.050
 8245POPC   C4B63034  19.089  14.696   7.350
 8246POPC   NC363035  24.506  39.270   5.550
 8246POPC   PO463036  24.442  39.221   5.850
 8246POPC   GL163037  24.496  39.275   6.150
 8246POPC   GL263038  24.445  39.331   6.150
 8246POPC   C1A63039  24.442  39.185   6.450
 8246POPC   D2A63040  24.484  39.255   6.750
 8246POPC   C3A63041  24.465  39.201   7.050
 8246POPC   C4A63042  24.475  39.272   7.350
 8246POPC   C1B63043  24.542  39.504   6.450
 8246POPC   C2B63044  24.541  39.514   6.750
 8246POPC   C3B63045  24.455  39.513   7.050
 8246POPC   C4B63046  24.471  39.486   7.350
 8247POPC   NC363047  24.522  26.867   5.550
 8247POPC   PO463048  24.529  26.772   5.850
 8247POPC   GL163049  24.474  26.865   6.150
 8247POPC   GL263050  24.558  26.940   6.150
 8247POPC   C1A63051  24.513  26.826   6.450
 8247POPC   D2A63052  24.499  26.825   6.750
 8247POPC   C3A63053  24.511  26.866   7.050
 8247POPC   C4A63054  24.477  26.824   7.350
 8247POPC   C1B63055  24.683  27.012   6.450
 8247POPC   C2B63056  24.696  27.014   6.750
 8247POPC   C3B63057  24.683  27.042   7.050
 8247POPC   C4B63058  24.677  27.007   7.350
 8248POPC   NC363059  10.495   8.958   5.550
 8248POPC   PO463060  10.497   8.958   5.850
 8248POPC   GL163061  10.535   8.957   6.150
 8248POPC   GL263062  10.652   9.071   6.150
 8248POPC   C1A63063  10.551   8.946   6.450
 8248POPC   D2A63064  10.569   8.955   6.750
 8248POPC   C3A63065  10.484   8.980   7.050
 8248POPC   C4A63066  10.528   8.970   7.350
 8248POPC   C1B63067  10.708   9.088   6.450
 8248POPC   C2B63068  10.733   9.150   6.750
 8248POPC   C3B63069  10.745   9.082   7.050
 8248POPC   C4B63070  10.737   9.072   7.350
 8249POPC   NC363071  36.901  21.407   5.550
 8249POPC   PO463072  36.913  21.396   5.850
 8249POPC   GL163073  36.930  21.341   6.150
 8249POPC   GL263074  36.828  21.288   6.150
 8249POPC   C1A63075  36.888  21.375   6.450
 8249POPC   D2A63076  36.940  21.422   6.750
 8249POPC   C3A63077  36.910  21.425   7.050
 8249POPC   C4A63078  36.924  21.366   7.350
 8249POPC   C1B63079  36.780  21.113   6.450
 8249POPC   C2B63080  36.827  21.197   6.750
 8249POPC   C3B63081  36.767  21.183   7.050
 8249POPC   C4B63082  36.813  21.200   7.350
 8250POPC   NC363083   2.778  15.931   5.550
 8250POPC   PO463084   2.789  15.949   5.850
 8250POPC   GL163085   2.782  15.948   6.150
 8250POPC   GL263086   2.694  15.858   6.150
 8250POPC   C1A63087   2.747  15.926   6.450
 8250POPC   D2A63088   2.756  15.973   6.750
 8250POPC   C3A63089   2.810  15.927   7.050
 8250POPC   C4A63090   2.716  15.968   7.350
 8250POPC   C1B63091   2.726  15.762   6.450
 8250POPC   C2B63092   2.702  15.738   6.750
 8250POPC   C3B63093   2.672  15.700   7.050
 8250POPC   C4B63094   2.742  15.699   7.350
 8251POPC   NC363095   6.634  43.907   5.550
 8251POPC   PO463096   6.597  43.927   5.850
 8251POPC   GL163097   6.644  43.924   6.150
 8251POPC   GL263098   6.665  44.011   6.150
 8251POPC   C1A63099   6.633  43.872   6.450
 8251POPC   D2A63100   6.685  43.855   6.750
 8251POPC   C3A63101   6.599  43.876   7.050
 8251POPC   C4A63102   6.629  43.840   7.350
 8251POPC   C1B63103   6.705  44.132   6.450
 8251POPC   C2B63104   6.695  44.131   6.750
 8251POPC   C3B63105   6.732  44.085   7.050
 8251POPC   C4B63106   6.674  44.168   7.350
 8252POPC   NC363107  40.825  17.470   5.550
 8252POPC   PO463108  40.739  17.553   5.850
 8252POPC   GL163109  40.768  17.488   6.150
 8252POPC   GL263110  40.792  17.670   6.150
 8252POPC   C1A63111  40.790  17.517   6.450
 8252POPC   D2A63112  40.775  17.475   6.750
 8252POPC   C3A63113  40.759  17.460   7.050
 8252POPC   C4A63114  40.733  17.472   7.350
 8252POPC   C1B63115  40.828  17.743   6.450
 8252POPC   C2B63116  40.737  17.757   6.750
 8252POPC   C3B63117  40.741  17.776   7.050
 8252POPC   C4B63118  40.777  17.782   7.350
 8253POPC   NC363119  13.657  39.268   5.550
 8253POPC   PO463120  13.663  39.204   5.850
 8253POPC   GL163121  13.662  39.241   6.150
 8253POPC   GL263122  13.489  39.339   6.150
 8253POPC   C1A63123  13.642  39.253   6.450
 8253POPC   D2A63124  13.647  39.219   6.750
 8253POPC   C3A63125  13.653  39.193   7.050
 8253POPC   C4A63126  13.589  39.271   7.350
 8253POPC   C1B63127  13.398  39.446   6.450
 8253POPC   C2B63128  13.456  39.449   6.750
 8253POPC   C3B63129  13.464  39.369   7.050
 8253POPC   C4B63130  13.420  39.425   7.350
 8254POPC   NC363131  26.073  19.787   5.550
 8254POPC   PO463132  26.037  19.864   5.850
 8254POPC   GL163133  26.028  19.802   6.150
 8254POPC   GL263134  25.968  19.901   6.150
 8254POPC   C1A63135  26.036  19.825   6.450
 8254POPC   D2A63136  26.026  19.882   6.750
 8254POPC   C3A63137  26.081  19.797   7.050
 8254POPC   C4A63138  26.081  19.849   7.350
 8254POPC   C1B63139  25.776  19.889   6.450
 8254POPC   C2B63140  25.845  19.894   6.750
 8254POPC   C3B63141  25.791  19.914   7.050
 8254POPC   C4B63142  25.826  19.970   7.350
 8255POPC   NC363143  40.790  38.451   5.550
 8255POPC   PO463144  40.773  38.408   5.850
 8255POPC   GL163145  40.737  38.453   6.150
 8255POPC   GL263146  40.818  38.565   6.150
 8255POPC   C1A63147  40.805  38.486   6.450
 8255POPC   D2A63148  40.758  38.484   6.750
 8255POPC   C3A63149  40.734  38.464   7.050
 8255POPC   C4A63150  40.793  38.459   7.350
 8255POPC   C1B63151  40.735  38.692   6.450
 8255POPC   C2B63152  40.793  38.694   6.750
 8255POPC   C3B63153  40.769  38.669   7.050
 8255POPC   C4B63154  40.724  38.661   7.350
 8256POPC   NC363155  42.318  39.228   5.550
 8256POPC   PO463156  42.368  39.196   5.850
 8256POPC   GL163157  42.342  39.264   6.150
 8256POPC   GL263158  42.340  39.355   6.150
 8256POPC   C1A63159  42.381  39.198   6.450
 8256POPC   D2A63160  42.304  39.230   6.750
 8256POPC   C3A63161  42.305  39.197   7.050
 8256POPC   C4A63162  42.308  39.248   7.350
 8256POPC   C1B63163  42.255  39.475   6.450
 8256POPC   C2B63164  42.204  39.475   6.750
 8256POPC   C3B63165  42.280  39.444   7.050
 8256POPC   C4B63166  42.255  39.458   7.350
 8257POPC   NC363167  40.784   6.637   5.550
 8257POPC   PO463168  40.798   6.648   5.850
 8257POPC   GL163169  40.786   6.682   6.150
 8257POPC   GL263170  40.908   6.735   6.150
 8257POPC   C1A63171  40.813   6.650   6.450
 8257POPC   D2A63172  40.813   6.688   6.750
 8257POPC   C3A63173  40.826   6.597   7.050
 8257POPC   C4A63174  40.736   6.651   7.350
 8257POPC   C1B63175  40.977   6.705   6.450
 8257POPC   C2B63176  41.055   6.723   6.750
 8257POPC   C3B63177  41.036   6.701   7.050
 8257POPC   C4B63178  40.979   6.710   7.350
 8258POPC   NC363179  15.199  22.966   5.550
 8258POPC   PO463180  15.173  22.959   5.850
 8258POPC   GL163181  15.179  22.929   6.150
 8258POPC   GL263182  15.327  22.910   6.150
 8258POPC   C1A63183  15.146  22.917   6.450
 8258POPC   D2A63184  15.182  22.904   6.750
 8258POPC   C3A63185  15.141  22.971   7.050
 8258POPC   C4A63186  15.145  22.925   7.350
 8258POPC   C1B63187  15.417  22.911   6.450
 8258POPC   C2B63188  15.381  22.869   6.750
 8258POPC   C3B63189  15.417  22.844   7.050
 8258POPC   C4B63190  15.462  22.851   7.350
 8259POPC   NC363191  28.327  25.994   5.550
 8259POPC   PO463192  28.418  26.002   5.850
 8259POPC   GL163193  28.331  26.064   6.150
 8259POPC   GL263194  28.320  26.116   6.150
 8259POPC   C1A63195  28.417  25.993   6.450
 8259POPC   D2A63196  28.327  26.045   6.750
 8259POPC   C3A63197  28.381  26.082   7.050
 8259POPC   C4A63198  28.327  26.000   7.350
 8259POPC   C1B63199  28.169  26.230   6.450
 8259POPC   C2B63200  28.157  26.251   6.750
 8259POPC   C3B63201  28.194  26.235   7.050
 8259POPC   C4B63202  28.188  26.259   7.350
 8260POPC   NC363203  21.352   7.462   5.550
 8260POPC   PO463204  21.413   7.381   5.850
 8260POPC   GL163205  21.407   7.454   6.150
 8260POPC   GL263206  21.495   7.516   6.150
 8260POPC   C1A63207  21.344   7.460   6.450
 8260POPC   D2A63208  21.363   7.446   6.750
 8260POPC   C3A63209  21.346   7.379   7.050
 8260POPC   C4A63210  21.422   7.386   7.350
 8260POPC   C1B63211  21.545   7.577   6.450
 8260POPC   C2B63212  21.553   7.613   6.750
 8260POPC   C3B63213  21.578   7.581   7.050
 8260POPC   C4B63214  21.530   7.544   7.350
 8261POPC   NC363215  15.143  20.609   5.550
 8261POPC   PO463216  15.148  20.575   5.850
 8261POPC   GL163217  15.151  20.635   6.150
 8261POPC   GL263218  15.077  20.642   6.150
 8261POPC   C1A63219  15.136  20.639   6.450
 8261POPC   D2A63220  15.161  20.607   6.750
 8261POPC   C3A63221  15.153  20.583   7.050
 8261POPC   C4A63222  15.208  20.571   7.350
 8261POPC   C1B63223  14.913  20.618   6.450
 8261POPC   C2B63224  14.897  20.652   6.750
 8261POPC   C3B63225  14.897  20.613   7.050
 8261POPC   C4B63226  14.947  20.606   7.350
 8262POPC   NC363227  11.285  31.472   5.550
 8262POPC   PO463228  11.336  31.461   5.850
 8262POPC   GL163229  11.314  31.515   6.150
 8262POPC   GL263230  11.398  31.492   6.150
 8262POPC   C1A63231  11.303  31.508   6.450
 8262POPC   D2A63232  11.254  31.442   6.750
 8262POPC   C3A63233  11.267  31.476   7.050
 8262POPC   C4A63234  11.309  31.465   7.350
 8262POPC   C1B63235  11.530  31.591   6.450
 8262POPC   C2B63236  11.496  31.569   6.750
 8262POPC   C3B63237  11.556  31.586   7.050
 8262POPC   C4B63238  11.548  31.546   7.350
 8263POPC   NC363239  22.970  25.295   5.550
 8263POPC   PO463240  22.957  25.237   5.850
 8263POPC   GL163241  22.987  25.257   6.150
 8263POPC   GL263242  22.887  25.129   6.150
 8263POPC   C1A63243  22.941  25.245   6.450
 8263POPC   D2A63244  22.982  25.237   6.750
 8263POPC   C3A63245  22.895  25.297   7.050
 8263POPC   C4A63246  22.934  25.279   7.350
 8263POPC   C1B63247  22.918  24.983   6.450
 8263POPC   C2B63248  22.910  25.027   6.750
 8263POPC   C3B63249  22.902  25.052   7.050
 8263POPC   C4B63250  22.918  25.057   7.350
 8264POPC   NC363251  36.863  35.359   5.550
 8264POPC   PO463252  36.888  35.304   5.850
 8264POPC   GL163253  36.908  35.394   6.150
 8264POPC   GL263254  36.949  35.446   6.150
 8264POPC   C1A63255  36.953  35.362   6.450
 8264POPC   D2A63256  36.936  35.385   6.750
 8264POPC   C3A63257  36.868  35.384   7.050
 8264POPC   C4A63258  36.924  35.350   7.350
 8264POPC   C1B63259  37.071  35.526   6.450
 8264POPC   C2B63260  37.071  35.550   6.750
 8264POPC   C3B63261  37.008  35.618   7.050
 8264POPC   C4B63262  37.049  35.607   7.350
 8265POPC   NC363263  19.858  24.496   5.550
 8265POPC   PO463264  19.867  24.529   5.850
 8265POPC   GL163265  19.831  24.505   6.150
 8265POPC   GL263266  19.721  24.421   6.150
 8265POPC   C1A63267  19.852  24.484   6.450
 8265POPC   D2A63268  19.875  24.507   6.750
 8265POPC   C3A63269  19.807  24.486   7.050
 8265POPC   C4A63270  19.802  24.504   7.350
 8265POPC   C1B63271  19.634  24.300   6.450
 8265POPC   C2B63272  19.716  24.254   6.750
 8265POPC   C3B63273  19.655  24.257   7.050
 8265POPC   C4B63274  19.665  24.278   7.350
 8266POPC   NC363275  44.657  39.977   5.550
 8266POPC   PO463276  44.632  40.012   5.850
 8266POPC   GL163277  44.653  40.037   6.150
 8266POPC   GL263278  44.805  39.976   6.150
 8266POPC   C1A63279  44.661  39.976   6.450
 8266POPC   D2A63280  44.643  39.996   6.750
 8266POPC   C3A63281  44.654  40.054   7.050
 8266POPC   C4A63282  44.692  40.012   7.350
 8266POPC   C1B63283  44.860  40.015   6.450
 8266POPC   C2B63284  44.940  40.073   6.750
 8266POPC   C3B63285  44.903  40.085   7.050
 8266POPC   C4B63286  44.916  40.071   7.350
 8267POPC   NC363287  21.393   0.445   5.550
 8267POPC   PO463288  21.353   0.392   5.850
 8267POPC   GL163289  21.420   0.469   6.150
 8267POPC   GL263290  21.298   0.506   6.150
 8267POPC   C1A63291  21.402   0.431   6.450
 8267POPC   D2A63292  21.389   0.411   6.750
 8267POPC   C3A63293  21.417   0.477   7.050
 8267POPC   C4A63294  21.398   0.424   7.350
 8267POPC   C1B63295  21.103   0.488   6.450
 8267POPC   C2B63296  21.107   0.527   6.750
 8267POPC   C3B63297  21.090   0.432   7.050
 8267POPC   C4B63298  21.142   0.472   7.350
 8268POPC   NC363299  31.432  40.747   5.550
 8268POPC   PO463300  31.469  40.767   5.850
 8268POPC   GL163301  31.501  40.778   6.150
 8268POPC   GL263302  31.570  40.882   6.150
 8268POPC   C1A63303  31.476  40.804   6.450
 8268POPC   D2A63304  31.474  40.810   6.750
 8268POPC   C3A63305  31.448  40.774   7.050
 8268POPC   C4A63306  31.423  40.787   7.350
 8268POPC   C1B63307  31.642  40.932   6.450
 8268POPC   C2B63308  31.674  40.980   6.750
 8268POPC   C3B63309  31.647  40.927   7.050
 8268POPC   C4B63310  31.719  40.957   7.350
 8269POPC   NC363311  33.775  32.290   5.550
 8269POPC   PO463312  33.801  32.227   5.850
 8269POPC   GL163313  33.829  32.289   6.150
 8269POPC   GL263314  33.765  32.400   6.150
 8269POPC   C1A63315  33.849  32.223   6.450
 8269POPC   D2A63316  33.821  32.249   6.750
 8269POPC   C3A63317  33.784  32.267   7.050
 8269POPC   C4A63318  33.800  32.255   7.350
 8269POPC   C1B63319  33.862  32.522   6.450
 8269POPC   C2B63320  33.786  32.456   6.750
 8269POPC   C3B63321  33.821  32.509   7.050
 8269POPC   C4B63322  33.776  32.536   7.350
 8270POPC   NC363323  13.617  12.812   5.550
 8270POPC   PO463324  13.578  12.822   5.850
 8270POPC   GL163325  13.662  12.860   6.150
 8270POPC   GL263326  13.655  12.973   6.150
 8270POPC   C1A63327  13.674  12.864   6.450
 8270POPC   D2A63328  13.629  12.837   6.750
 8270POPC   C3A63329  13.670  12.802   7.050
 8270POPC   C4A63330  13.631  12.841   7.350
 8270POPC   C1B63331  13.611  13.054   6.450
 8270POPC   C2B63332  13.611  13.113   6.750
 8270POPC   C3B63333  13.578  13.065   7.050
 8270POPC   C4B63334  13.624  13.113   7.350
 8271POPC   NC363335  12.124  13.608   5.550
 8271POPC   PO463336  12.097  13.635   5.850
 8271POPC   GL163337  12.082  13.646   6.150
 8271POPC   GL263338  12.150  13.510   6.150
 8271POPC   C1A63339  12.099  13.657   6.450
 8271POPC   D2A63340  12.121  13.590   6.750
 8271POPC   C3A63341  12.086  13.623   7.050
 8271POPC   C4A63342  12.046  13.670   7.350
 8271POPC   C1B63343  12.200  13.354   6.450
 8271POPC   C2B63344  12.112  13.352   6.750
 8271POPC   C3B63345  12.138  13.399   7.050
 8271POPC   C4B63346  12.130  13.408   7.350
 8272POPC   NC363347  41.596  33.755   5.550
 8272POPC   PO463348  41.607  33.762   5.850
 8272POPC   GL163349  41.577  33.785   6.150
 8272POPC   GL263350  41.697  33.775   6.150
 8272POPC   C1A63351  41.602  33.762   6.450
 8272POPC   D2A63352  41.583  33.792   6.750
 8272POPC   C3A63353  41.528  33.840   7.050
 8272POPC   C4A63354  41.541  33.794   7.350
 8272POPC   C1B63355  41.773  33.875   6.450
 8272POPC   C2B63356  41.788  33.817   6.750
 8272POPC   C3B63357  41.844  33.865   7.050
 8272POPC   C4B63358  41.790  33.858   7.350
 8273POPC   NC363359  33.766  28.322   5.550
 8273POPC   PO463360  33.816  28.359   5.850
 8273POPC   GL163361  33.752  28.400   6.150
 8273POPC   GL263362  33.887  28.259   6.150
 8273POPC   C1A63363  33.761  28.383   6.450
 8273POPC   D2A63364  33.801  28.324   6.750
 8273POPC   C3A63365  33.826  28.405   7.050
 8273POPC   C4A63366  33.848  28.409   7.350
 8273POPC   C1B63367  33.930  28.103   6.450
 8273POPC   C2B63368  33.926  28.124   6.750
 8273POPC   C3B63369  33.862  28.119   7.050
 8273POPC   C4B63370  33.889  28.107   7.350
 8274POPC   NC363371  26.866  21.377   5.550
 8274POPC   PO463372  26.797  21.400   5.850
 8274POPC   GL163373  26.814  21.353   6.150
 8274POPC   GL263374  26.824  21.526   6.150
 8274POPC   C1A63375  26.772  21.337   6.450
 8274POPC   D2A63376  26.798  21.366   6.750
 8274POPC   C3A63377  26.793  21.377   7.050
 8274POPC   C4A63378  26.770  21.414   7.350
 8274POPC   C1B63379  26.761  21.638   6.450
 8274POPC   C2B63380  26.820  21.593   6.750
 8274POPC   C3B63381  26.812  21.603   7.050
 8274POPC   C4B63382  26.773  21.603   7.350
 8275POPC   NC363383  36.137  31.442   5.550
 8275POPC   PO463384  36.136  31.456   5.850
 8275POPC   GL163385  36.128  31.435   6.150
 8275POPC   GL263386  36.008  31.537   6.150
 8275POPC   C1A63387  36.175  31.444   6.450
 8275POPC   D2A63388  36.145  31.475   6.750
 8275POPC   C3A63389  36.146  31.500   7.050
 8275POPC   C4A63390  36.101  31.469   7.350
 8275POPC   C1B63391  35.922  31.594   6.450
 8275POPC   C2B63392  35.919  31.513   6.750
 8275POPC   C3B63393  35.845  31.571   7.050
 8275POPC   C4B63394  35.934  31.574   7.350
 8276POPC   NC363395  35.390  26.084   5.550
 8276POPC   PO463396  35.394  26.063   5.850
 8276POPC   GL163397  35.388  26.088   6.150
 8276POPC   GL263398  35.374  25.955   6.150
 8276POPC   C1A63399  35.306  26.022   6.450
 8276POPC   D2A63400  35.371  25.996   6.750
 8276POPC   C3A63401  35.385  26.087   7.050
 8276POPC   C4A63402  35.361  25.999   7.350
 8276POPC   C1B63403  35.382  25.751   6.450
 8276POPC   C2B63404  35.367  25.812   6.750
 8276POPC   C3B63405  35.309  25.815   7.050
 8276POPC   C4B63406  35.356  25.817   7.350
 8277POPC   NC363407  22.139  19.820   5.550
 8277POPC   PO463408  22.169  19.845   5.850
 8277POPC   GL163409  22.171  19.809   6.150
 8277POPC   GL263410  22.310  19.764   6.150
 8277POPC   C1A63411  22.209  19.836   6.450
 8277POPC   D2A63412  22.115  19.837   6.750
 8277POPC   C3A63413  22.120  19.845   7.050
 8277POPC   C4A63414  22.132  19.846   7.350
 8277POPC   C1B63415  22.407  19.805   6.450
 8277POPC   C2B63416  22.404  19.791   6.750
 8277POPC   C3B63417  22.405  19.834   7.050
 8277POPC   C4B63418  22.365  19.794   7.350
 8278POPC   NC363419  15.950  43.145   5.550
 8278POPC   PO463420  15.990  43.116   5.850
 8278POPC   GL163421  15.916  43.139   6.150
 8278POPC   GL263422  16.084  42.980   6.150
 8278POPC   C1A63423  15.955  43.068   6.450
 8278POPC   D2A63424  15.906  43.123   6.750
 8278POPC   C3A63425  15.979  43.103   7.050
 8278POPC   C4A63426  16.000  43.063   7.350
 8278POPC   C1B63427  16.140  42.947   6.450
 8278POPC   C2B63428  16.124  42.941   6.750
 8278POPC   C3B63429  16.137  42.923   7.050
 8278POPC   C4B63430  16.111  42.919   7.350
 8279POPC   NC363431  21.406   6.690   5.550
 8279POPC   PO463432  21.420   6.692   5.850
 8279POPC   GL163433  21.350   6.640   6.150
 8279POPC   GL263434  21.484   6.665   6.150
 8279POPC   C1A63435  21.431   6.625   6.450
 8279POPC   D2A63436  21.354   6.694   6.750
 8279POPC   C3A63437  21.380   6.664   7.050
 8279POPC   C4A63438  21.374   6.680   7.350
 8279POPC   C1B63439  21.605   6.743   6.450
 8279POPC   C2B63440  21.620   6.776   6.750
 8279POPC   C3B63441  21.663   6.739   7.050
 8279POPC   C4B63442  21.626   6.721   7.350
 8280POPC   NC363443  39.186   2.735   5.550
 8280POPC   PO463444  39.222   2.804   5.850
 8280POPC   GL163445  39.230   2.740   6.150
 8280POPC   GL263446  39.180   2.868   6.150
 8280POPC   C1A63447  39.226   2.716   6.450
 8280POPC   D2A63448  39.228   2.813   6.750
 8280POPC   C3A63449  39.204   2.732   7.050
 8280POPC   C4A63450  39.195   2.771   7.350
 8280POPC   C1B63451  39.211   2.972   6.450
 8280POPC   C2B63452  39.159   3.042   6.750
 8280POPC   C3B63453  39.208   3.026   7.050
 8280POPC   C4B63454  39.184   3.037   7.350
 8281POPC   NC363455   5.055  19.039   5.550
 8281POPC   PO463456   5.102  19.056   5.850
 8281POPC   GL163457   5.139  19.067   6.150
 8281POPC   GL263458   5.157  19.180   6.150
 8281POPC   C1A63459   5.096  19.094   6.450
 8281POPC   D2A63460   5.089  19.105   6.750
 8281POPC   C3A63461   5.061  19.048   7.050
 8281POPC   C4A63462   5.105  19.023   7.350
 8281POPC   C1B63463   5.178  19.323   6.450
 8281POPC   C2B63464   5.159  19.330   6.750
 8281POPC   C3B63465   5.214  19.284   7.050
 8281POPC   C4B63466   5.195  19.282   7.350
 8282POPC   NC363467   5.842  11.321   5.550
 8282POPC   PO463468   5.896  11.341   5.850
 8282POPC   GL163469   5.901  11.342   6.150
 8282POPC   GL263470   5.877  11.175   6.150
 8282POPC   C1A63471   5.902  11.284   6.450
 8282POPC   D2A63472   5.899  11.322   6.750
 8282POPC   C3A63473   5.879  11.342   7.050
 8282POPC   C4A63474   5.872  11.336   7.350
 8282POPC   C1B63475   5.878  11.061   6.450
 8282POPC   C2B63476   5.964  11.072   6.750
 8282POPC   C3B63477   5.950  11.085   7.050
 8282POPC   C4B63478   5.885  11.028   7.350
 8283POPC   NC363479  32.987  40.023   5.550
 8283POPC   PO463480  32.981  40.054   5.850
 8283POPC   GL163481  33.062  39.986   6.150
 8283POPC   GL263482  32.934  39.895   6.150
 8283POPC   C1A63483  33.064  39.995   6.450
 8283POPC   D2A63484  32.990  39.978   6.750
 8283POPC   C3A63485  33.042  39.990   7.050
 8283POPC   C4A63486  33.070  39.999   7.350
 8283POPC   C1B63487  32.854  39.828   6.450
 8283POPC   C2B63488  32.850  39.761   6.750
 8283POPC   C3B63489  32.892  39.759   7.050
 8283POPC   C4B63490  32.869  39.832   7.350
 8284POPC   NC363491  44.619  29.873   5.550
 8284POPC   PO463492  44.666  29.884   5.850
 8284POPC   GL163493  44.622  29.948   6.150
 8284POPC   GL263494  44.508  29.941   6.150
 8284POPC   C1A63495  44.669  29.921   6.450
 8284POPC   D2A63496  44.615  29.873   6.750
 8284POPC   C3A63497  44.641  29.968   7.050
 8284POPC   C4A63498  44.654  29.891   7.350
 8284POPC   C1B63499  44.442  29.893   6.450
 8284POPC   C2B63500  44.392  29.867   6.750
 8284POPC   C3B63501  44.419  29.848   7.050
 8284POPC   C4B63502  44.431  29.943   7.350
 8285POPC   NC363503   6.676  19.014   5.550
 8285POPC   PO463504   6.661  19.019   5.850
 8285POPC   GL163505   6.632  19.060   6.150
 8285POPC   GL263506   6.593  18.963   6.150
 8285POPC   C1A63507   6.689  19.073   6.450
 8285POPC   D2A63508   6.693  19.060   6.750
 8285POPC   C3A63509   6.607  19.067   7.050
 8285POPC   C4A63510   6.639  19.074   7.350
 8285POPC   C1B63511   6.455  18.921   6.450
 8285POPC   C2B63512   6.422  18.920   6.750
 8285POPC   C3B63513   6.516  18.848   7.050
 8285POPC   C4B63514   6.500  18.869   7.350
 8286POPC   NC363515   2.747  32.237   5.550
 8286POPC   PO463516   2.766  32.283   5.850
 8286POPC   GL163517   2.768  32.256   6.150
 8286POPC   GL263518   2.711  32.096   6.150
 8286POPC   C1A63519   2.748  32.204   6.450
 8286POPC   D2A63520   2.739  32.226   6.750
 8286POPC   C3A63521   2.737  32.199   7.050
 8286POPC   C4A63522   2.776  32.243   7.350
 8286POPC   C1B63523   2.743  31.965   6.450
 8286POPC   C2B63524   2.730  31.981   6.750
 8286POPC   C3B63525   2.695  32.043   7.050
 8286POPC   C4B63526   2.707  32.036   7.350
 8287POPC   NC363527  13.581  29.897   5.550
 8287POPC   PO463528  13.654  29.897   5.850
 8287POPC   GL163529  13.635  29.964   6.150
 8287POPC   GL263530  13.716  29.899   6.150
 8287POPC   C1A63531  13.644  29.936   6.450
 8287POPC   D2A63532  13.591  29.964   6.750
 8287POPC   C3A63533  13.652  29.893   7.050
 8287POPC   C4A63534  13.658  29.886   7.350
 8287POPC   C1B63535  13.857  29.879   6.450
 8287POPC   C2B63536  13.919  29.936   6.750
 8287POPC   C3B63537  13.860  29.938   7.050
 8287POPC   C4B63538  13.857  29.922   7.350
 8288POPC   NC363539  29.907  20.599   5.550
 8288POPC   PO463540  29.953  20.623   5.850
 8288POPC   GL163541  29.879  20.578   6.150
 8288POPC   GL263542  29.965  20.740   6.150
 8288POPC   C1A63543  29.902  20.599   6.450
 8288POPC   D2A63544  29.953  20.593   6.750
 8288POPC   C3A63545  29.886  20.597   7.050
 8288POPC   C4A63546  29.891  20.626   7.350
 8288POPC   C1B63547  30.019  20.793   6.450
 8288POPC   C2B63548  30.012  20.810   6.750
 8288POPC   C3B63549  30.009  20.827   7.050
 8288POPC   C4B63550  30.086  20.792   7.350
 8289POPC   NC363551  18.330  34.590   5.550
 8289POPC   PO463552  18.277  34.540   5.850
 8289POPC   GL163553  18.245  34.626   6.150
 8289POPC   GL263554  18.328  34.431   6.150
 8289POPC   C1A63555  18.307  34.596   6.450
 8289POPC   D2A63556  18.292  34.610   6.750
 8289POPC   C3A63557  18.265  34.607   7.050
 8289POPC   C4A63558  18.237  34.615   7.350
 8289POPC   C1B63559  18.334  34.318   6.450
 8289POPC   C2B63560  18.386  34.363   6.750
 8289POPC   C3B63561  18.300  34.308   7.050
 8289POPC   C4B63562  18.305  34.317   7.350
 8290POPC   NC363563  35.302  16.718   5.550
 8290POPC   PO463564  35.315  16.700   5.850
 8290POPC   GL163565  35.345  16.754   6.150
 8290POPC   GL263566  35.455  16.660   6.150
 8290POPC   C1A63567  35.307  16.706   6.450
 8290POPC   D2A63568  35.386  16.708   6.750
 8290POPC   C3A63569  35.375  16.767   7.050
 8290POPC   C4A63570  35.381  16.764   7.350
 8290POPC   C1B63571  35.501  16.535   6.450
 8290POPC   C2B63572  35.465  16.543   6.750
 8290POPC   C3B63573  35.462  16.479   7.050
 8290POPC   C4B63574  35.448  16.522   7.350
 8291POPC   NC363575  43.843   1.184   5.550
 8291POPC   PO463576  43.883   1.178   5.850
 8291POPC   GL163577  43.870   1.205   6.150
 8291POPC   GL263578  44.000   1.349   6.150
 8291POPC   C1A63579  43.905   1.184   6.450
 8291POPC   D2A63580  43.905   1.196   6.750
 8291POPC   C3A63581  43.932   1.215   7.050
 8291POPC   C4A63582  43.928   1.226   7.350
 8291POPC   C1B63583  44.034   1.385   6.450
 8291POPC   C2B63584  44.062   1.397   6.750
 8291POPC   C3B63585  44.034   1.427   7.050
 8291POPC   C4B63586  44.038   1.447   7.350
 8292POPC   NC363587  33.038  33.014   5.550
 8292POPC   PO463588  33.001  33.039   5.850
 8292POPC   GL163589  33.053  32.982   6.150
 8292POPC   GL263590  33.126  33.144   6.150
 8292POPC   C1A63591  33.001  32.981   6.450
 8292POPC   D2A63592  33.060  33.011   6.750
 8292POPC   C3A63593  32.998  32.988   7.050
 8292POPC   C4A63594  33.010  32.975   7.350
 8292POPC   C1B63595  33.161  33.196   6.450
 8292POPC   C2B63596  33.165  33.238   6.750
 8292POPC   C3B63597  33.122  33.198   7.050
 8292POPC   C4B63598  33.107  33.222   7.350
 8293POPC   NC363599  41.520  23.668   5.550
 8293POPC   PO463600  41.570  23.679   5.850
 8293POPC   GL163601  41.556  23.712   6.150
 8293POPC   GL263602  41.603  23.760   6.150
 8293POPC   C1A63603  41.545  23.741   6.450
 8293POPC   D2A63604  41.517  23.754   6.750
 8293POPC   C3A63605  41.535  23.684   7.050
 8293POPC   C4A63606  41.585  23.702   7.350
 8293POPC   C1B63607  41.785  23.833   6.450
 8293POPC   C2B63608  41.745  23.885   6.750
 8293POPC   C3B63609  41.734  23.880   7.050
 8293POPC   C4B63610  41.776  23.902   7.350
 8294POPC   NC363611  37.661  44.679   5.550
 8294POPC   PO463612  37.641  44.620   5.850
 8294POPC   GL163613  37.717  44.695   6.150
 8294POPC   GL263614  37.568  44.584   6.150
 8294POPC   C1A63615  37.656  44.638   6.450
 8294POPC   D2A63616  37.652  44.696   6.750
 8294POPC   C3A63617  37.706  44.647   7.050
 8294POPC   C4A63618  37.695  44.621   7.350
 8294POPC   C1B63619  37.447  44.617   6.450
 8294POPC   C2B63620  37.418  44.567   6.750
 8294POPC   C3B63621  37.491  44.592   7.050
 8294POPC   C4B63622  37.441  44.566   7.350
 8295POPC   NC363623  14.420  21.400   5.550
 8295POPC   PO463624  14.384  21.373   5.850
 8295POPC   GL163625  14.402  21.360   6.150
 8295POPC   GL263626  14.405  21.542   6.150
 8295POPC   C1A63627  14.405  21.378   6.450
 8295POPC   D2A63628  14.416  21.427   6.750
 8295POPC   C3A63629  14.431  21.385   7.050
 8295POPC   C4A63630  14.440  21.379   7.350
 8295POPC   C1B63631  14.311  21.587   6.450
 8295POPC   C2B63632  14.345  21.573   6.750
 8295POPC   C3B63633  14.334  21.649   7.050
 8295POPC   C4B63634  14.310  21.639   7.350
 8296POPC   NC363635  33.043  31.478   5.550
 8296POPC   PO463636  33.048  31.470   5.850
 8296POPC   GL163637  32.989  31.424   6.150
 8296POPC   GL263638  32.938  31.444   6.150
 8296POPC   C1A63639  33.025  31.457   6.450
 8296POPC   D2A63640  33.037  31.505   6.750
 8296POPC   C3A63641  33.019  31.502   7.050
 8296POPC   C4A63642  32.984  31.434   7.350
 8296POPC   C1B63643  32.783  31.423   6.450
 8296POPC   C2B63644  32.783  31.465   6.750
 8296POPC   C3B63645  32.758  31.440   7.050
 8296POPC   C4B63646  32.748  31.461   7.350
 8297POPC   NC363647  10.488   5.058   5.550
 8297POPC   PO463648  10.542   5.140   5.850
 8297POPC   GL163649  10.554   5.082   6.150
 8297POPC   GL263650  10.438   4.988   6.150
 8297POPC   C1A63651  10.570   5.089   6.450
 8297POPC   D2A63652  10.567   5.101   6.750
 8297POPC   C3A63653  10.497   5.062   7.050
 8297POPC   C4A63654  10.561   5.108   7.350
 8297POPC   C1B63655  10.337   4.864   6.450
 8297POPC   C2B63656  10.374   4.882   6.750
 8297POPC   C3B63657  10.385   4.917   7.050
 8297POPC   C4B63658  10.322   4.888   7.350
 8298POPC   NC363659  25.242  16.698   5.550
 8298POPC   PO463660  25.233  16.740   5.850
 8298POPC   GL163661  25.293  16.681   6.150
 8298POPC   GL263662  25.422  16.711   6.150
 8298POPC   C1A63663  25.273  16.706   6.450
 8298POPC   D2A63664  25.302  16.726   6.750
 8298POPC   C3A63665  25.313  16.721   7.050
 8298POPC   C4A63666  25.232  16.739   7.350
 8298POPC   C1B63667  25.540  16.654   6.450
 8298POPC   C2B63668  25.473  16.625   6.750
 8298POPC   C3B63669  25.460  16.645   7.050
 8298POPC   C4B63670  25.510  16.620   7.350
 8299POPC   NC363671  38.487  31.459   5.550
 8299POPC   PO463672  38.419  31.501   5.850
 8299POPC   GL163673  38.479  31.426   6.150
 8299POPC   GL263674  38.516  31.370   6.150
 8299POPC   C1A63675  38.434  31.477   6.450
 8299POPC   D2A63676  38.470  31.511   6.750
 8299POPC   C3A63677  38.504  31.437   7.050
 8299POPC   C4A63678  38.406  31.513   7.350
 8299POPC   C1B63679  38.614  31.229   6.450
 8299POPC   C2B63680  38.546  31.241   6.750
 8299POPC   C3B63681  38.564  31.251   7.050
 8299POPC   C4B63682  38.570  31.215   7.350
 8300POPC   NC363683  33.754   5.833   5.550
 8300POPC   PO463684  33.774   5.856   5.850
 8300POPC   GL163685  33.826   5.846   6.150
 8300POPC   GL263686  33.785   5.763   6.150
 8300POPC   C1A63687  33.763   5.872   6.450
 8300POPC   D2A63688  33.845   5.824   6.750
 8300POPC   C3A63689  33.808   5.889   7.050
 8300POPC   C4A63690  33.846   5.837   7.350
 8300POPC   C1B63691  33.691   5.676   6.450
 8300POPC   C2B63692  33.682   5.644   6.750
 8300POPC   C3B63693  33.692   5.655   7.050
 8300POPC   C4B63694  33.733   5.649   7.350
 8301POPC   NC363695   6.629  14.364   5.550
 8301POPC   PO463696   6.680  14.356   5.850
 8301POPC   GL163697   6.622  14.395   6.150
 8301POPC   GL263698   6.750  14.437   6.150
 8301POPC   C1A63699   6.646  14.385   6.450
 8301POPC   D2A63700   6.618  14.446   6.750
 8301POPC   C3A63701   6.664  14.410   7.050
 8301POPC   C4A63702   6.614  14.405   7.350
 8301POPC   C1B63703   6.883  14.492   6.450
 8301POPC   C2B63704   6.833  14.490   6.750
 8301POPC   C3B63705   6.811  14.503   7.050
 8301POPC   C4B63706   6.817  14.557   7.350
 8302POPC   NC363707  17.487  20.617   5.550
 8302POPC   PO463708  17.492  20.660   5.850
 8302POPC   GL163709  17.555  20.581   6.150
 8302POPC   GL263710  17.425  20.530   6.150
 8302POPC   C1A63711  17.474  20.583   6.450
 8302POPC   D2A63712  17.505  20.639   6.750
 8302POPC   C3A63713  17.527  20.610   7.050
 8302POPC   C4A63714  17.485  20.610   7.350
 8302POPC   C1B63715  17.256  20.474   6.450
 8302POPC   C2B63716  17.264  20.556   6.750
 8302POPC   C3B63717  17.320  20.499   7.050
 8302POPC   C4B63718  17.305  20.537   7.350
 8303POPC   NC363719  19.804  30.715   5.550
 8303POPC   PO463720  19.793  30.743   5.850
 8303POPC   GL163721  19.823  30.683   6.150
 8303POPC   GL263722  19.777  30.748   6.150
 8303POPC   C1A63723  19.787  30.661   6.450
 8303POPC   D2A63724  19.839  30.735   6.750
 8303POPC   C3A63725  19.832  30.710   7.050
 8303POPC   C4A63726  19.879  30.709   7.350
 8303POPC   C1B63727  19.701  30.903   6.450
 8303POPC   C2B63728  19.649  30.928   6.750
 8303POPC   C3B63729  19.713  30.885   7.050
 8303POPC   C4B63730  19.659  30.929   7.350
 8304POPC   NC363731  39.968   9.703   5.550
 8304POPC   PO463732  40.051   9.717   5.850
 8304POPC   GL163733  39.998   9.750   6.150
 8304POPC   GL263734  40.041   9.876   6.150
 8304POPC   C1A63735  40.017   9.718   6.450
 8304POPC   D2A63736  39.969   9.727   6.750
 8304POPC   C3A63737  40.053   9.786   7.050
 8304POPC   C4A63738  40.023   9.776   7.350
 8304POPC   C1B63739  40.072   9.959   6.450
 8304POPC   C2B63740  40.050   9.971   6.750
 8304POPC   C3B63741  40.068  10.006   7.050
 8304POPC   C4B63742  40.011  10.008   7.350
 8305POPC   NC363743  26.039  29.879   5.550
 8305POPC   PO463744  26.084  29.932   5.850
 8305POPC   GL163745  26.013  29.952   6.150
 8305POPC   GL263746  26.007  30.090   6.150
 8305POPC   C1A63747  26.061  29.932   6.450
 8305POPC   D2A63748  26.071  29.943   6.750
 8305POPC   C3A63749  26.068  29.887   7.050
 8305POPC   C4A63750  26.089  29.906   7.350
 8305POPC   C1B63751  26.058  30.212   6.450
 8305POPC   C2B63752  26.095  30.209   6.750
 8305POPC   C3B63753  26.080  30.204   7.050
 8305POPC   C4B63754  26.062  30.202   7.350
 8306POPC   NC363755  43.849   9.745   5.550
 8306POPC   PO463756  43.853   9.708   5.850
 8306POPC   GL163757  43.931   9.797   6.150
 8306POPC   GL263758  43.823   9.821   6.150
 8306POPC   C1A63759  43.902   9.711   6.450
 8306POPC   D2A63760  43.925   9.716   6.750
 8306POPC   C3A63761  43.902   9.731   7.050
 8306POPC   C4A63762  43.934   9.756   7.350
 8306POPC   C1B63763  43.857   9.962   6.450
 8306POPC   C2B63764  43.785  10.001   6.750
 8306POPC   C3B63765  43.792   9.977   7.050
 8306POPC   C4B63766  43.856   9.955   7.350
 8307POPC   NC363767  25.267  23.751   5.550
 8307POPC   PO463768  25.311  23.725   5.850
 8307POPC   GL163769  25.234  23.726   6.150
 8307POPC   GL263770  25.376  23.578   6.150
 8307POPC   C1A63771  25.219  23.704   6.450
 8307POPC   D2A63772  25.295  23.687   6.750
 8307POPC   C3A63773  25.230  23.688   7.050
 8307POPC   C4A63774  25.273  23.758   7.350
 8307POPC   C1B63775  25.445  23.556   6.450
 8307POPC   C2B63776  25.450  23.507   6.750
 8307POPC   C3B63777  25.445  23.503   7.050
 8307POPC   C4B63778  25.450  23.505   7.350
 8308POPC   NC363779  32.252  39.232   5.550
 8308POPC   PO463780  32.284  39.228   5.850
 8308POPC   GL163781  32.292  39.207   6.150
 8308POPC   GL263782  32.141  39.146   6.150
 8308POPC   C1A63783  32.253  39.268   6.450
 8308POPC   D2A63784  32.251  39.189   6.750
 8308POPC   C3A63785  32.223  39.217   7.050
 8308POPC   C4A63786  32.229  39.264   7.350
 8308POPC   C1B63787  32.034  39.128   6.450
 8308POPC   C2B63788  31.999  39.157   6.750
 8308POPC   C3B63789  31.976  39.110   7.050
 8308POPC   C4B63790  31.983  39.151   7.350
 8309POPC   NC363791  35.386  40.742   5.550
 8309POPC   PO463792  35.327  40.808   5.850
 8309POPC   GL163793  35.385  40.765   6.150
 8309POPC   GL263794  35.235  40.899   6.150
 8309POPC   C1A63795  35.303  40.746   6.450
 8309POPC   D2A63796  35.313  40.755   6.750
 8309POPC   C3A63797  35.321  40.816   7.050
 8309POPC   C4A63798  35.361  40.735   7.350
 8309POPC   C1B63799  35.219  41.003   6.450
 8309POPC   C2B63800  35.167  40.966   6.750
 8309POPC   C3B63801  35.188  41.002   7.050
 8309POPC   C4B63802  35.168  41.007   7.350
 8310POPC   NC363803  23.710  30.704   5.550
 8310POPC   PO463804  23.693  30.680   5.850
 8310POPC   GL163805  23.699  30.678   6.150
 8310POPC   GL263806  23.835  30.722   6.150
 8310POPC   C1A63807  23.727  30.650   6.450
 8310POPC   D2A63808  23.755  30.675   6.750
 8310POPC   C3A63809  23.722  30.692   7.050
 8310POPC   C4A63810  23.695  30.729   7.350
 8310POPC   C1B63811  23.962  30.726   6.450
 8310POPC   C2B63812  23.959  30.736   6.750
 8310POPC   C3B63813  23.929  30.738   7.050
 8310POPC   C4B63814  23.962  30.785   7.350
 8311POPC   NC363815  44.695  26.011   5.550
 8311POPC   PO463816  44.678  26.024   5.850
 8311POPC   GL163817  44.622  26.008   6.150
 8311POPC   GL263818  44.536  25.995   6.150
 8311POPC   C1A63819  44.683  25.992   6.450
 8311POPC   D2A63820  44.695  26.024   6.750
 8311POPC   C3A63821  44.684  26.085   7.050
 8311POPC   C4A63822  44.631  26.019   7.350
 8311POPC   C1B63823  44.462  25.891   6.450
 8311POPC   C2B63824  44.521  25.847   6.750
 8311POPC   C3B63825  44.485  25.893   7.050
 8311POPC   C4B63826  44.519  25.830   7.350
 8312POPC   NC363827  11.323  44.670   5.550
 8312POPC   PO463828  11.327  44.683   5.850
 8312POPC   GL163829  11.260  44.643   6.150
 8312POPC   GL263830  11.281  44.526   6.150
 8312POPC   C1A63831  11.310  44.708   6.450
 8312POPC   D2A63832  11.257  44.650   6.750
 8312POPC   C3A63833  11.321  44.661   7.050
 8312POPC   C4A63834  11.279  44.613   7.350
 8312POPC   C1B63835  11.287  44.447   6.450
 8312POPC   C2B63836  11.201  44.383   6.750
 8312POPC   C3B63837  11.217  44.396   7.050
 8312POPC   C4B63838  11.268  44.382   7.350
 8313POPC   NC363839   0.464  33.058   5.550
 8313POPC   PO463840   0.451  33.009   5.850
 8313POPC   GL163841   0.481  33.039   6.150
 8313POPC   GL263842   0.299  33.025   6.150
 8313POPC   C1A63843   0.398  33.008   6.450
 8313POPC   D2A63844   0.447  33.063   6.750
 8313POPC   C3A63845   0.472  32.998   7.050
 8313POPC   C4A63846   0.442  33.045   7.350
 8313POPC   C1B63847   0.239  32.969   6.450
 8313POPC   C2B63848   0.252  32.908   6.750
 8313POPC   C3B63849   0.236  32.984   7.050
 8313POPC   C4B63850   0.165  32.972   7.350
 8314POPC   NC363851  29.896   1.987   5.550
 8314POPC   PO463852  29.874   2.000   5.850
 8314POPC   GL163853  29.945   1.989   6.150
 8314POPC   GL263854  29.942   1.859   6.150
 8314POPC   C1A63855  29.900   1.979   6.450
 8314POPC   D2A63856  29.966   1.960   6.750
 8314POPC   C3A63857  29.967   1.990   7.050
 8314POPC   C4A63858  29.901   1.950   7.350
 8314POPC   C1B63859  29.991   1.726   6.450
 8314POPC   C2B63860  30.008   1.792   6.750
 8314POPC   C3B63861  30.057   1.716   7.050
 8314POPC   C4B63862  30.038   1.740   7.350
 8315POPC   NC363863  14.453  28.320   5.550
 8315POPC   PO463864  14.430  28.390   5.850
 8315POPC   GL163865  14.416  28.338   6.150
 8315POPC   GL263866  14.459  28.349   6.150
 8315POPC   C1A63867  14.417  28.353   6.450
 8315POPC   D2A63868  14.432  28.329   6.750
 8315POPC   C3A63869  14.382  28.381   7.050
 8315POPC   C4A63870  14.419  28.417   7.350
 8315POPC   C1B63871  14.597  28.248   6.450
 8315POPC   C2B63872  14.604  28.233   6.750
 8315POPC   C3B63873  14.577  28.270   7.050
 8315POPC   C4B63874  14.640  28.235   7.350
 8316POPC   NC363875  27.638   5.048   5.550
 8316POPC   PO463876  27.637   5.044   5.850
 8316POPC   GL163877  27.637   5.116   6.150
 8316POPC   GL263878  27.573   5.173   6.150
 8316POPC   C1A63879  27.585   5.121   6.450
 8316POPC   D2A63880  27.601   5.071   6.750
 8316POPC   C3A63881  27.635   5.083   7.050
 8316POPC   C4A63882  27.567   5.122   7.350
 8316POPC   C1B63883  27.558   5.381   6.450
 8316POPC   C2B63884  27.606   5.383   6.750
 8316POPC   C3B63885  27.533   5.328   7.050
 8316POPC   C4B63886  27.552   5.373   7.350
 8317POPC   NC363887  15.972  40.003   5.550
 8317POPC   PO463888  15.921  39.965   5.850
 8317POPC   GL163889  15.956  39.992   6.150
 8317POPC   GL263890  15.861  39.949   6.150
 8317POPC   C1A63891  15.973  40.020   6.450
 8317POPC   D2A63892  15.956  39.963   6.750
 8317POPC   C3A63893  15.951  40.016   7.050
 8317POPC   C4A63894  15.998  40.000   7.350
 8317POPC   C1B63895  15.680  39.964   6.450
 8317POPC   C2B63896  15.675  39.887   6.750
 8317POPC   C3B63897  15.697  39.940   7.050
 8317POPC   C4B63898  15.759  39.938   7.350
 8318POPC   NC363899  35.340  17.481   5.550
 8318POPC   PO463900  35.323  17.542   5.850
 8318POPC   GL163901  35.387  17.528   6.150
 8318POPC   GL263902  35.443  17.432   6.150
 8318POPC   C1A63903  35.315  17.459   6.450
 8318POPC   D2A63904  35.319  17.506   6.750
 8318POPC   C3A63905  35.356  17.532   7.050
 8318POPC   C4A63906  35.390  17.551   7.350
 8318POPC   C1B63907  35.530  17.339   6.450
 8318POPC   C2B63908  35.549  17.329   6.750
 8318POPC   C3B63909  35.524  17.368   7.050
 8318POPC   C4B63910  35.580  17.385   7.350
 8319POPC   NC363911   8.981   2.740   5.550
 8319POPC   PO463912   8.927   2.741   5.850
 8319POPC   GL163913   8.998   2.759   6.150
 8319POPC   GL263914   8.888   2.822   6.150
 8319POPC   C1A63915   8.934   2.804   6.450
 8319POPC   D2A63916   9.010   2.753   6.750
 8319POPC   C3A63917   8.958   2.748   7.050
 8319POPC   C4A63918   8.928   2.805   7.350
 8319POPC   C1B63919   8.816   2.935   6.450
 8319POPC   C2B63920   8.852   2.976   6.750
 8319POPC   C3B63921   8.790   2.998   7.050
 8319POPC   C4B63922   8.776   2.976   7.350
 8320POPC   NC363923  43.845  12.098   5.550
 8320POPC   PO463924  43.853  12.044   5.850
 8320POPC   GL163925  43.884  12.096   6.150
 8320POPC   GL263926  43.975  11.995   6.150
 8320POPC   C1A63927  43.895  12.067   6.450
 8320POPC   D2A63928  43.898  12.125   6.750
 8320POPC   C3A63929  43.889  12.072   7.050
 8320POPC   C4A63930  43.871  12.116   7.350
 8320POPC   C1B63931  44.014  11.888   6.450
 8320POPC   C2B63932  43.973  11.881   6.750
 8320POPC   C3B63933  44.006  11.865   7.050
 8320POPC   C4B63934  43.973  11.829   7.350
 8321POPC   NC363935   3.582  42.295   5.550
 8321POPC   PO463936   3.521  42.351   5.850
 8321POPC   GL163937   3.580  42.327   6.150
 8321POPC   GL263938   3.429  42.275   6.150
 8321POPC   C1A63939   3.495  42.342   6.450
 8321POPC   D2A63940   3.549  42.360   6.750
 8321POPC   C3A63941   3.534  42.359   7.050
 8321POPC   C4A63942   3.549  42.324   7.350
 8321POPC   C1B63943   3.316  42.197   6.450
 8321POPC   C2B63944   3.330  42.183   6.750
 8321POPC   C3B63945   3.312  42.173   7.050
 8321POPC   C4B63946   3.342  42.189   7.350
 8322POPC   NC363947   6.629   6.623   5.550
 8322POPC   PO463948   6.608   6.672   5.850
 8322POPC   GL163949   6.666   6.670   6.150
 8322POPC   GL263950   6.539   6.644   6.150
 8322POPC   C1A63951   6.625   6.640   6.450
 8322POPC   D2A63952   6.679   6.631   6.750
 8322POPC   C3A63953   6.634   6.686   7.050
 8322POPC   C4A63954   6.657   6.689   7.350
 8322POPC   C1B63955   6.412   6.626   6.450
 8322POPC   C2B63956   6.423   6.615   6.750
 8322POPC   C3B63957   6.370   6.567   7.050
 8322POPC   C4B63958   6.382   6.661   7.350
 8323POPC   NC363959  21.337  33.797   5.550
 8323POPC   PO463960  21.395  33.788   5.850
 8323POPC   GL163961  21.417  33.769   6.150
 8323POPC   GL263962  21.217  33.863   6.150
 8323POPC   C1A63963  21.358  33.750   6.450
 8323POPC   D2A63964  21.419  33.791   6.750
 8323POPC   C3A63965  21.379  33.790   7.050
 8323POPC   C4A63966  21.373  33.775   7.350
 8323POPC   C1B63967  21.152  33.809   6.450
 8323POPC   C2B63968  21.142  33.884   6.750
 8323POPC   C3B63969  21.115  33.807   7.050
 8323POPC   C4B63970  21.128  33.880   7.350
 8324POPC   NC363971  37.697  21.431   5.550
 8324POPC   PO463972  37.654  21.375   5.850
 8324POPC   GL163973  37.706  21.380   6.150
 8324POPC   GL263974  37.594  21.292   6.150
 8324POPC   C1A63975  37.715  21.399   6.450
 8324POPC   D2A63976  37.725  21.404   6.750
 8324POPC   C3A63977  37.629  21.426   7.050
 8324POPC   C4A63978  37.643  21.392   7.350
 8324POPC   C1B63979  37.476  21.250   6.450
 8324POPC   C2B63980  37.477  21.279   6.750
 8324POPC   C3B63981  37.522  21.216   7.050
 8324POPC   C4B63982  37.425  21.216   7.350
 8325POPC   NC363983  35.364  14.449   5.550
 8325POPC   PO463984  35.398  14.410   5.850
 8325POPC   GL163985  35.392  14.386   6.150
 8325POPC   GL263986  35.408  14.259   6.150
 8325POPC   C1A63987  35.396  14.424   6.450
 8325POPC   D2A63988  35.358  14.381   6.750
 8325POPC   C3A63989  35.337  14.384   7.050
 8325POPC   C4A63990  35.365  14.446   7.350
 8325POPC   C1B63991  35.374  14.107   6.450
 8325POPC   C2B63992  35.395  14.204   6.750
 8325POPC   C3B63993  35.431  14.127   7.050
 8325POPC   C4B63994  35.361  14.158   7.350
 8326POPC   NC363995  33.014  15.179   5.550
 8326POPC   PO463996  33.065  15.156   5.850
 8326POPC   GL163997  33.010  15.145   6.150
 8326POPC   GL263998  33.072  15.071   6.150
 8326POPC   C1A63999  33.008  15.212   6.450
 8326POPC   D2A64000  32.980  15.198   6.750
 8326POPC   C3A64001  33.036  15.174   7.050
 8326POPC   C4A64002  32.994  15.174   7.350
 8326POPC   C1B64003  33.157  15.026   6.450
 8326POPC   C2B64004  33.223  15.043   6.750
 8326POPC   C3B64005  33.228  15.016   7.050
 8326POPC   C4B64006  33.209  14.971   7.350
 8327POPC   NC364007  40.015  38.406   5.550
 8327POPC   PO464008  40.016  38.483   5.850
 8327POPC   GL164009  40.031  38.453   6.150
 8327POPC   GL264010  39.876  38.360   6.150
 8327POPC   C1A64011  40.031  38.428   6.450
 8327POPC   D2A64012  39.997  38.415   6.750
 8327POPC   C3A64013  40.009  38.449   7.050
 8327POPC   C4A64014  40.038  38.492   7.350
 8327POPC   C1B64015  39.794  38.281   6.450
 8327POPC   C2B64016  39.825  38.266   6.750
 8327POPC   C3B64017  39.785  38.295   7.050
 8327POPC   C4B64018  39.823  38.303   7.350
 8328POPC   NC364019  16.719  29.931   5.550
 8328POPC   PO464020  16.726  29.873   5.850
 8328POPC   GL164021  16.706  29.913   6.150
 8328POPC   GL264022  16.743  30.043   6.150
 8328POPC   C1A64023  16.686  29.916   6.450
 8328POPC   D2A64024  16.736  29.922   6.750
 8328POPC   C3A64025  16.745  29.958   7.050
 8328POPC   C4A64026  16.774  29.894   7.350
 8328POPC   C1B64027  16.857  30.171   6.450
 8328POPC   C2B64028  16.824  30.108   6.750
 8328POPC   C3B64029  16.809  30.126   7.050
 8328POPC   C4B64030  16.886  30.185   7.350
 8329POPC   NC364031  20.573  44.706   5.550
 8329POPC   PO464032  20.597  44.666   5.850
 8329POPC   GL164033  20.617  44.633   6.150
 8329POPC   GL264034  20.670  44.750   6.150
 8329POPC   C1A64035  20.647  44.654   6.450
 8329POPC   D2A64036  20.655  44.688   6.750
 8329POPC   C3A64037  20.633  44.694   7.050
 8329POPC   C4A64038  20.652  44.692   7.350
 8329POPC   C1B64039  20.746  44.903   6.450
 8329POPC   C2B64040  20.710  44.910   6.750
 8329POPC   C3B64041  20.696  44.879   7.050
 8329POPC   C4B64042  20.674  44.919   7.350
 8330POPC   NC364043  43.873   5.082   5.550
 8330POPC   PO464044  43.895   5.083   5.850
 8330POPC   GL164045  43.927   5.078   6.150
 8330POPC   GL264046  44.005   4.961   6.150
 8330POPC   C1A64047  43.888   5.064   6.450
 8330POPC   D2A64048  43.857   5.071   6.750
 8330POPC   C3A64049  43.870   5.120   7.050
 8330POPC   C4A64050  43.889   5.125   7.350
 8330POPC   C1B64051  44.109   4.913   6.450
 8330POPC   C2B64052  44.104   4.927   6.750
 8330POPC   C3B64053  44.100   4.959   7.050
 8330POPC   C4B64054  44.049   4.916   7.350
 8331POPC   NC364055  31.450  18.288   5.550
 8331POPC   PO464056  31.481  18.244   5.850
 8331POPC   GL164057  31.504  18.307   6.150
 8331POPC   GL264058  31.402  18.203   6.150
 8331POPC   C1A64059  31.460  18.256   6.450
 8331POPC   D2A64060  31.498  18.292   6.750
 8331POPC   C3A64061  31.427  18.328   7.050
 8331POPC   C4A64062  31.439  18.255   7.350
 8331POPC   C1B64063  31.278  18.085   6.450
 8331POPC   C2B64064  31.334  18.094   6.750
 8331POPC   C3B64065  31.321  18.117   7.050
 8331POPC   C4B64066  31.310  18.127   7.350
 8332POPC   NC364067   2.003  17.516   5.550
 8332POPC   PO464068   1.996  17.458   5.850
 8332POPC   GL164069   1.999  17.535   6.150
 8332POPC   GL264070   2.079  17.418   6.150
 8332POPC   C1A64071   2.033  17.469   6.450
 8332POPC   D2A64072   1.995  17.525   6.750
 8332POPC   C3A64073   1.996  17.529   7.050
 8332POPC   C4A64074   2.027  17.485   7.350
 8332POPC   C1B64075   2.194  17.381   6.450
 8332POPC   C2B64076   2.196  17.397   6.750
 8332POPC   C3B64077   2.187  17.435   7.050
 8332POPC   C4B64078   2.170  17.355   7.350
 8333POPC   NC364079   7.405  29.928   5.550
 8333POPC   PO464080   7.465  29.919   5.850
 8333POPC   GL164081   7.412  29.880   6.150
 8333POPC   GL264082   7.317  30.030   6.150
 8333POPC   C1A64083   7.464  29.929   6.450
 8333POPC   D2A64084   7.415  29.952   6.750
 8333POPC   C3A64085   7.456  29.878   7.050
 8333POPC   C4A64086   7.400  29.880   7.350
 8333POPC   C1B64087   7.178  30.119   6.450
 8333POPC   C2B64088   7.178  30.040   6.750
 8333POPC   C3B64089   7.178  30.101   7.050
 8333POPC   C4B64090   7.249  30.069   7.350
 8334POPC   NC364091  40.751  11.298   5.550
 8334POPC   PO464092  40.741  11.260   5.850
 8334POPC   GL164093  40.786  11.286   6.150
 8334POPC   GL264094  40.645  11.259   6.150
 8334POPC   C1A64095  40.752  11.257   6.450
 8334POPC   D2A64096  40.803  11.296   6.750
 8334POPC   C3A64097  40.800  11.335   7.050
 8334POPC   C4A64098  40.794  11.324   7.350
 8334POPC   C1B64099  40.572  11.318   6.450
 8334POPC   C2B64100  40.566  11.314   6.750
 8334POPC   C3B64101  40.551  11.293   7.050
 8334POPC   C4B64102  40.579  11.276   7.350
 8335POPC   NC364103  22.913   0.411   5.550
 8335POPC   PO464104  22.898   0.411   5.850
 8335POPC   GL164105  22.906   0.410   6.150
 8335POPC   GL264106  22.834   0.395   6.150
 8335POPC   C1A64107  22.967   0.411   6.450
 8335POPC   D2A64108  22.899   0.483   6.750
 8335POPC   C3A64109  22.901   0.475   7.050
 8335POPC   C4A64110  22.962   0.456   7.350
 8335POPC   C1B64111  22.725   0.451   6.450
 8335POPC   C2B64112  22.704   0.444   6.750
 8335POPC   C3B64113  22.685   0.389   7.050
 8335POPC   C4B64114  22.681   0.358   7.350
 8336POPC   NC364115   5.857  26.076   5.550
 8336POPC   PO464116   5.855  26.091   5.850
 8336POPC   GL164117   5.852  26.086   6.150
 8336POPC   GL264118   5.958  26.062   6.150
 8336POPC   C1A64119   5.865  26.038   6.450
 8336POPC   D2A64120   5.897  25.998   6.750
 8336POPC   C3A64121   5.861  26.032   7.050
 8336POPC   C4A64122   5.832  26.026   7.350
 8336POPC   C1B64123   6.147  26.041   6.450
 8336POPC   C2B64124   6.088  26.029   6.750
 8336POPC   C3B64125   6.127  26.027   7.050
 8336POPC   C4B64126   6.169  26.029   7.350
 8337POPC   NC364127  20.654  17.548   5.550
 8337POPC   PO464128  20.640  17.465   5.850
 8337POPC   GL164129  20.581  17.512   6.150
 8337POPC   GL264130  20.526  17.467   6.150
 8337POPC   C1A64131  20.653  17.553   6.450
 8337POPC   D2A64132  20.566  17.479   6.750
 8337POPC   C3A64133  20.579  17.534   7.050
 8337POPC   C4A64134  20.639  17.479   7.350
 8337POPC   C1B64135  20.413  17.302   6.450
 8337POPC   C2B64136  20.447  17.345   6.750
 8337POPC   C3B64137  20.458  17.365   7.050
 8337POPC   C4B64138  20.455  17.301   7.350
 8338POPC   NC364139   6.604  22.923   5.550
 8338POPC   PO464140   6.619  22.962   5.850
 8338POPC   GL164141   6.604  22.928   6.150
 8338POPC   GL264142   6.556  22.953   6.150
 8338POPC   C1A64143   6.689  22.950   6.450
 8338POPC   D2A64144   6.670  22.906   6.750
 8338POPC   C3A64145   6.653  22.957   7.050
 8338POPC   C4A64146   6.678  22.901   7.350
 8338POPC   C1B64147   6.439  23.008   6.450
 8338POPC   C2B64148   6.432  22.954   6.750
 8338POPC   C3B64149   6.396  23.018   7.050
 8338POPC   C4B64150   6.358  23.016   7.350
 8339POPC   NC364151  38.459  42.344   5.550
 8339POPC   PO464152  38.469  42.333   5.850
 8339POPC   GL164153  38.456  42.332   6.150
 8339POPC   GL264154  38.369  42.193   6.150
 8339POPC   C1A64155  38.445  42.306   6.450
 8339POPC   D2A64156  38.428  42.301   6.750
 8339POPC   C3A64157  38.476  42.348   7.050
 8339POPC   C4A64158  38.456  42.371   7.350
 8339POPC   C1B64159  38.342  42.142   6.450
 8339POPC   C2B64160  38.328  42.130   6.750
 8339POPC   C3B64161  38.272  42.087   7.050
 8339POPC   C4B64162  38.327  42.096   7.350
 8340POPC   NC364163  19.792  18.248   5.550
 8340POPC   PO464164  19.881  18.251   5.850
 8340POPC   GL164165  19.803  18.299   6.150
 8340POPC   GL264166  19.964  18.147   6.150
 8340POPC   C1A64167  19.785  18.277   6.450
 8340POPC   D2A64168  19.876  18.326   6.750
 8340POPC   C3A64169  19.808  18.323   7.050
 8340POPC   C4A64170  19.855  18.260   7.350
 8340POPC   C1B64171  20.037  18.044   6.450
 8340POPC   C2B64172  20.044  18.078   6.750
 8340POPC   C3B64173  20.014  18.117   7.050
 8340POPC   C4B64174  19.971  18.075   7.350
 8341POPC   NC364175  34.538  40.809   5.550
 8341POPC   PO464176  34.573  40.733   5.850
 8341POPC   GL164177  34.539  40.769   6.150
 8341POPC   GL264178  34.480  40.871   6.150
 8341POPC   C1A64179  34.567  40.808   6.450
 8341POPC   D2A64180  34.607  40.743   6.750
 8341POPC   C3A64181  34.568  40.764   7.050
 8341POPC   C4A64182  34.566  40.758   7.350
 8341POPC   C1B64183  34.355  40.891   6.450
 8341POPC   C2B64184  34.348  40.931   6.750
 8341POPC   C3B64185  34.313  40.845   7.050
 8341POPC   C4B64186  34.337  40.905   7.350
 8342POPC   NC364187  29.895   5.139   5.550
 8342POPC   PO464188  29.907   5.104   5.850
 8342POPC   GL164189  29.915   5.124   6.150
 8342POPC   GL264190  29.904   4.968   6.150
 8342POPC   C1A64191  29.880   5.105   6.450
 8342POPC   D2A64192  29.886   5.053   6.750
 8342POPC   C3A64193  29.885   5.044   7.050
 8342POPC   C4A64194  29.894   5.127   7.350
 8342POPC   C1B64195  29.795   4.822   6.450
 8342POPC   C2B64196  29.786   4.854   6.750
 8342POPC   C3B64197  29.817   4.817   7.050
 8342POPC   C4B64198  29.822   4.878   7.350
 8343POPC   NC364199  33.015  12.846   5.550
 8343POPC   PO464200  33.036  12.872   5.850
 8343POPC   GL164201  33.026  12.856   6.150
 8343POPC   GL264202  32.928  12.728   6.150
 8343POPC   C1A64203  32.998  12.835   6.450
 8343POPC   D2A64204  33.009  12.826   6.750
 8343POPC   C3A64205  33.021  12.863   7.050
 8343POPC   C4A64206  33.010  12.886   7.350
 8343POPC   C1B64207  32.852  12.639   6.450
 8343POPC   C2B64208  32.845  12.645   6.750
 8343POPC   C3B64209  32.895  12.654   7.050
 8343POPC   C4B64210  32.917  12.616   7.350
 8344POPC   NC364211  37.700  22.188   5.550
 8344POPC   PO464212  37.641  22.114   5.850
 8344POPC   GL164213  37.671  22.212   6.150
 8344POPC   GL264214  37.557  22.159   6.150
 8344POPC   C1A64215  37.705  22.184   6.450
 8344POPC   D2A64216  37.658  22.210   6.750
 8344POPC   C3A64217  37.706  22.119   7.050
 8344POPC   C4A64218  37.716  22.173   7.350
 8344POPC   C1B64219  37.436  22.090   6.450
 8344POPC   C2B64220  37.401  22.138   6.750
 8344POPC   C3B64221  37.473  22.160   7.050
 8344POPC   C4B64222  37.458  22.103   7.350
 8345POPC   NC364223  39.979  13.616   5.550
 8345POPC   PO464224  40.012  13.631   5.850
 8345POPC   GL164225  39.988  13.647   6.150
 8345POPC   GL264226  40.075  13.502   6.150
 8345POPC   C1A64227  40.007  13.579   6.450
 8345POPC   D2A64228  40.054  13.586   6.750
 8345POPC   C3A64229  39.981  13.650   7.050
 8345POPC   C4A64230  40.050  13.625   7.350
 8345POPC   C1B64231  40.161  13.439   6.450
 8345POPC   C2B64232  40.212  13.416   6.750
 8345POPC   C3B64233  40.177  13.441   7.050
 8345POPC   C4B64234  40.138  13.415   7.350
 8346POPC   NC364235   4.324  17.535   5.550
 8346POPC   PO464236   4.358  17.483   5.850
 8346POPC   GL164237   4.365  17.522   6.150
 8346POPC   GL264238   4.249  17.583   6.150
 8346POPC   C1A64239   4.319  17.507   6.450
 8346POPC   D2A64240   4.270  17.549   6.750
 8346POPC   C3A64241   4.320  17.473   7.050
 8346POPC   C4A64242   4.361  17.485   7.350
 8346POPC   C1B64243   4.163  17.650   6.450
 8346POPC   C2B64244   4.094  17.669   6.750
 8346POPC   C3B64245   4.140  17.635   7.050
 8346POPC   C4B64246   4.142  17.686   7.350
 8347POPC   NC364247  33.823  31.478   5.550
 8347POPC   PO464248  33.762  31.521   5.850
 8347POPC   GL164249  33.755  31.451   6.150
 8347POPC   GL264250  33.671  31.579   6.150
 8347POPC   C1A64251  33.829  31.480   6.450
 8347POPC   D2A64252  33.806  31.474   6.750
 8347POPC   C3A64253  33.787  31.464   7.050
 8347POPC   C4A64254  33.848  31.450   7.350
 8347POPC   C1B64255  33.544  31.608   6.450
 8347POPC   C2B64256  33.592  31.642   6.750
 8347POPC   C3B64257  33.608  31.554   7.050
 8347POPC   C4B64258  33.596  31.570   7.350
 8348POPC   NC364259  25.241  43.911   5.550
 8348POPC   PO464260  25.258  43.889   5.850
 8348POPC   GL164261  25.254  43.915   6.150
 8348POPC   GL264262  25.324  44.003   6.150
 8348POPC   C1A64263  25.220  43.932   6.450
 8348POPC   D2A64264  25.234  43.860   6.750
 8348POPC   C3A64265  25.286  43.890   7.050
 8348POPC   C4A64266  25.279  43.867   7.350
 8348POPC   C1B64267  25.396  44.101   6.450
 8348POPC   C2B64268  25.385  44.139   6.750
 8348POPC   C3B64269  25.366  44.157   7.050
 8348POPC   C4B64270  25.319  44.130   7.350
 8349POPC   NC364271  33.046  42.285   5.550
 8349POPC   PO464272  32.989  42.332   5.850
 8349POPC   GL164273  33.042  42.324   6.150
 8349POPC   GL264274  33.125  42.278   6.150
 8349POPC   C1A64275  33.062  42.320   6.450
 8349POPC   D2A64276  33.055  42.345   6.750
 8349POPC   C3A64277  33.019  42.302   7.050
 8349POPC   C4A64278  33.070  42.296   7.350
 8349POPC   C1B64279  33.254  42.197   6.450
 8349POPC   C2B64280  33.204  42.194   6.750
 8349POPC   C3B64281  33.209  42.214   7.050
 8349POPC   C4B64282  33.294  42.202   7.350
 8350POPC   NC364283  39.242  31.484   5.550
 8350POPC   PO464284  39.253  31.445   5.850
 8350POPC   GL164285  39.261  31.448   6.150
 8350POPC   GL264286  39.199  31.535   6.150
 8350POPC   C1A64287  39.204  31.470   6.450
 8350POPC   D2A64288  39.222  31.448   6.750
 8350POPC   C3A64289  39.253  31.445   7.050
 8350POPC   C4A64290  39.230  31.444   7.350
 8350POPC   C1B64291  39.169  31.677   6.450
 8350POPC   C2B64292  39.115  31.662   6.750
 8350POPC   C3B64293  39.071  31.658   7.050
 8350POPC   C4B64294  39.115  31.723   7.350
 8351POPC   NC364295  22.938  43.921   5.550
 8351POPC   PO464296  22.927  43.848   5.850
 8351POPC   GL164297  22.909  43.840   6.150
 8351POPC   GL264298  22.936  43.732   6.150
 8351POPC   C1A64299  22.960  43.899   6.450
 8351POPC   D2A64300  22.909  43.858   6.750
 8351POPC   C3A64301  22.919  43.901   7.050
 8351POPC   C4A64302  22.959  43.845   7.350
 8351POPC   C1B64303  22.908  43.630   6.450
 8351POPC   C2B64304  22.868  43.614   6.750
 8351POPC   C3B64305  22.889  43.614   7.050
 8351POPC   C4B64306  22.926  43.671   7.350
 8352POPC   NC364307  39.192  36.115   5.550
 8352POPC   PO464308  39.234  36.103   5.850
 8352POPC   GL164309  39.183  36.119   6.150
 8352POPC   GL264310  39.298  35.977   6.150
 8352POPC   C1A64311  39.235  36.147   6.450
 8352POPC   D2A64312  39.240  36.093   6.750
 8352POPC   C3A64313  39.186  36.079   7.050
 8352POPC   C4A64314  39.239  36.103   7.350
 8352POPC   C1B64315  39.377  35.960   6.450
 8352POPC   C2B64316  39.397  35.912   6.750
 8352POPC   C3B64317  39.354  35.926   7.050
 8352POPC   C4B64318  39.338  35.959   7.350
 8353POPC   NC364319   5.873  22.167   5.550
 8353POPC   PO464320   5.890  22.131   5.850
 8353POPC   GL164321   5.840  22.145   6.150
 8353POPC   GL264322   5.810  22.098   6.150
 8353POPC   C1A64323   5.835  22.114   6.450
 8353POPC   D2A64324   5.887  22.197   6.750
 8353POPC   C3A64325   5.828  22.206   7.050
 8353POPC   C4A64326   5.909  22.205   7.350
 8353POPC   C1B64327   5.698  22.018   6.450
 8353POPC   C2B64328   5.662  22.028   6.750
 8353POPC   C3B64329   5.659  21.954   7.050
 8353POPC   C4B64330   5.745  21.993   7.350
 8354POPC   NC364331  17.526  22.986   5.550
 8354POPC   PO464332  17.529  22.892   5.850
 8354POPC   GL164333  17.490  22.929   6.150
 8354POPC   GL264334  17.412  22.799   6.150
 8354POPC   C1A64335  17.492  22.936   6.450
 8354POPC   D2A64336  17.524  22.952   6.750
 8354POPC   C3A64337  17.495  22.979   7.050
 8354POPC   C4A64338  17.524  22.983   7.350
 8354POPC   C1B64339  17.387  22.682   6.450
 8354POPC   C2B64340  17.436  22.727   6.750
 8354POPC   C3B64341  17.414  22.760   7.050
 8354POPC   C4B64342  17.442  22.677   7.350
 8355POPC   NC364343  15.946  14.422   5.550
 8355POPC   PO464344  15.985  14.362   5.850
 8355POPC   GL164345  15.985  14.407   6.150
 8355POPC   GL264346  16.041  14.388   6.150
 8355POPC   C1A64347  15.934  14.440   6.450
 8355POPC   D2A64348  15.938  14.387   6.750
 8355POPC   C3A64349  15.941  14.368   7.050
 8355POPC   C4A64350  15.969  14.407   7.350
 8355POPC   C1B64351  16.239  14.319   6.450
 8355POPC   C2B64352  16.146  14.356   6.750
 8355POPC   C3B64353  16.209  14.340   7.050
 8355POPC   C4B64354  16.195  14.328   7.350
 8356POPC   NC364355  14.441  44.702   5.550
 8356POPC   PO464356  14.437  44.709   5.850
 8356POPC   GL164357  14.360  44.686   6.150
 8356POPC   GL264358  14.415  44.811   6.150
 8356POPC   C1A64359  14.443  44.647   6.450
 8356POPC   D2A64360  14.421  44.676   6.750
 8356POPC   C3A64361  14.409  44.707   7.050
 8356POPC   C4A64362  14.386  44.672   7.350
 8356POPC   C1B64363  14.530  44.843   6.450
 8356POPC   C2B64364  14.472  44.863   6.750
 8356POPC   C3B64365  14.546  44.876   7.050
 8356POPC   C4B64366  14.552  44.896   7.350
 8357POPC   NC364367   6.686  11.328   5.550
 8357POPC   PO464368   6.636  11.300   5.850
 8357POPC   GL164369   6.662  11.322   6.150
 8357POPC   GL264370   6.602  11.408   6.150
 8357POPC   C1A64371   6.695  11.289   6.450
 8357POPC   D2A64372   6.669  11.341   6.750
 8357POPC   C3A64373   6.692  11.254   7.050
 8357POPC   C4A64374   6.653  11.336   7.350
 8357POPC   C1B64375   6.487  11.469   6.450
 8357POPC   C2B64376   6.476  11.485   6.750
 8357POPC   C3B64377   6.475  11.485   7.050
 8357POPC   C4B64378   6.561  11.479   7.350
 8358POPC   NC364379  32.234  43.150   5.550
 8358POPC   PO464380  32.201  43.160   5.850
 8358POPC   GL164381  32.259  43.116   6.150
 8358POPC   GL264382  32.323  43.064   6.150
 8358POPC   C1A64383  32.274  43.080   6.450
 8358POPC   D2A64384  32.223  43.107   6.750
 8358POPC   C3A64385  32.294  43.132   7.050
 8358POPC   C4A64386  32.294  43.109   7.350
 8358POPC   C1B64387  32.493  43.009   6.450
 8358POPC   C2B64388  32.440  43.056   6.750
 8358POPC   C3B64389  32.459  43.014   7.050
 8358POPC   C4B64390  32.528  43.036   7.350
 8359POPC   NC364391  23.667  23.668   5.550
 8359POPC   PO464392  23.703  23.741   5.850
 8359POPC   GL164393  23.711  23.763   6.150
 8359POPC   GL264394  23.687  23.827   6.150
 8359POPC   C1A64395  23.732  23.764   6.450
 8359POPC   D2A64396  23.678  23.720   6.750
 8359POPC   C3A64397  23.760  23.694   7.050
 8359POPC   C4A64398  23.674  23.678   7.350
 8359POPC   C1B64399  23.556  23.938   6.450
 8359POPC   C2B64400  23.595  23.942   6.750
 8359POPC   C3B64401  23.616  23.954   7.050
 8359POPC   C4B64402  23.622  23.897   7.350
 8360POPC   NC364403  38.408   8.184   5.550
 8360POPC   PO464404  38.462   8.230   5.850
 8360POPC   GL164405  38.444   8.176   6.150
 8360POPC   GL264406  38.331   8.251   6.150
 8360POPC   C1A64407  38.478   8.235   6.450
 8360POPC   D2A64408  38.490   8.148   6.750
 8360POPC   C3A64409  38.422   8.160   7.050
 8360POPC   C4A64410  38.461   8.178   7.350
 8360POPC   C1B64411  38.230   8.304   6.450
 8360POPC   C2B64412  38.238   8.300   6.750
 8360POPC   C3B64413  38.222   8.267   7.050
 8360POPC   C4B64414  38.267   8.333   7.350
 8361POPC   NC364415   4.270  11.313   5.550
 8361POPC   PO464416   4.330  11.322   5.850
 8361POPC   GL164417   4.354  11.286   6.150
 8361POPC   GL264418   4.358  11.147   6.150
 8361POPC   C1A64419   4.350  11.281   6.450
 8361POPC   D2A64420   4.326  11.287   6.750
 8361POPC   C3A64421   4.283  11.283   7.050
 8361POPC   C4A64422   4.282  11.268   7.350
 8361POPC   C1B64423   4.383  11.061   6.450
 8361POPC   C2B64424   4.388  11.036   6.750
 8361POPC   C3B64425   4.361  11.030   7.050
 8361POPC   C4B64426   4.375  11.045   7.350
 8362POPC   NC364427  33.037   9.731   5.550
 8362POPC   PO464428  33.006   9.756   5.850
 8362POPC   GL164429  32.996   9.729   6.150
 8362POPC   GL264430  32.897   9.656   6.150
 8362POPC   C1A64431  33.052   9.723   6.450
 8362POPC   D2A64432  33.071   9.781   6.750
 8362POPC   C3A64433  33.054   9.773   7.050
 8362POPC   C4A64434  32.993   9.745   7.350
 8362POPC   C1B64435  32.884   9.581   6.450
 8362POPC   C2B64436  32.826   9.523   6.750
 8362POPC   C3B64437  32.840   9.554   7.050
 8362POPC   C4B64438  32.883   9.568   7.350
 8363POPC   NC364439  32.239  41.562   5.550
 8363POPC   PO464440  32.263  41.560   5.850
 8363POPC   GL164441  32.225  41.598   6.150
 8363POPC   GL264442  32.301  41.639   6.150
 8363POPC   C1A64443  32.211  41.543   6.450
 8363POPC   D2A64444  32.247  41.590   6.750
 8363POPC   C3A64445  32.291  41.605   7.050
 8363POPC   C4A64446  32.207  41.567   7.350
 8363POPC   C1B64447  32.359  41.795   6.450
 8363POPC   C2B64448  32.367  41.733   6.750
 8363POPC   C3B64449  32.400  41.723   7.050
 8363POPC   C4B64450  32.384  41.809   7.350
 8364POPC   NC364451  26.035  18.325   5.550
 8364POPC   PO464452  26.046  18.257   5.850
 8364POPC   GL164453  26.075  18.254   6.150
 8364POPC   GL264454  26.078  18.163   6.150
 8364POPC   C1A64455  25.998  18.280   6.450
 8364POPC   D2A64456  26.029  18.259   6.750
 8364POPC   C3A64457  26.038  18.286   7.050
 8364POPC   C4A64458  26.075  18.317   7.350
 8364POPC   C1B64459  26.170  18.081   6.450
 8364POPC   C2B64460  26.109  18.060   6.750
 8364POPC   C3B64461  26.178  18.098   7.050
 8364POPC   C4B64462  26.161  18.087   7.350
 8365POPC   NC364463  40.774  27.631   5.550
 8365POPC   PO464464  40.818  27.590   5.850
 8365POPC   GL164465  40.775  27.583   6.150
 8365POPC   GL264466  40.644  27.530   6.150
 8365POPC   C1A64467  40.767  27.576   6.450
 8365POPC   D2A64468  40.734  27.563   6.750
 8365POPC   C3A64469  40.811  27.576   7.050
 8365POPC   C4A64470  40.813  27.598   7.350
 8365POPC   C1B64471  40.636  27.429   6.450
 8365POPC   C2B64472  40.634  27.424   6.750
 8365POPC   C3B64473  40.605  27.472   7.050
 8365POPC   C4B64474  40.632  27.469   7.350
 8366POPC   NC364475  11.286  14.420   5.550
 8366POPC   PO464476  11.266  14.437   5.850
 8366POPC   GL164477  11.347  14.381   6.150
 8366POPC   GL264478  11.372  14.346   6.150
 8366POPC   C1A64479  11.260  14.375   6.450
 8366POPC   D2A64480  11.294  14.402   6.750
 8366POPC   C3A64481  11.263  14.452   7.050
 8366POPC   C4A64482  11.313  14.368   7.350
 8366POPC   C1B64483  11.551  14.293   6.450
 8366POPC   C2B64484  11.551  14.332   6.750
 8366POPC   C3B64485  11.511  14.319   7.050
 8366POPC   C4B64486  11.560  14.367   7.350
 8367POPC   NC364487  33.055  11.337   5.550
 8367POPC   PO464488  33.002  11.271   5.850
 8367POPC   GL164489  33.057  11.271   6.150
 8367POPC   GL264490  33.178  11.346   6.150
 8367POPC   C1A64491  33.050  11.257   6.450
 8367POPC   D2A64492  33.027  11.313   6.750
 8367POPC   C3A64493  33.073  11.325   7.050
 8367POPC   C4A64494  33.040  11.292   7.350
 8367POPC   C1B64495  33.228  11.263   6.450
 8367POPC   C2B64496  33.225  11.267   6.750
 8367POPC   C3B64497  33.260  11.270   7.050
 8367POPC   C4B64498  33.301  11.333   7.350
 8368POPC   NC364499  36.151  22.933   5.550
 8368POPC   PO464500  36.107  22.903   5.850
 8368POPC   GL164501  36.091  22.915   6.150
 8368POPC   GL264502  36.219  22.861   6.150
 8368POPC   C1A64503  36.154  22.978   6.450
 8368POPC   D2A64504  36.136  22.913   6.750
 8368POPC   C3A64505  36.167  22.961   7.050
 8368POPC   C4A64506  36.098  22.919   7.350
 8368POPC   C1B64507  36.349  22.804   6.450
 8368POPC   C2B64508  36.358  22.804   6.750
 8368POPC   C3B64509  36.354  22.772   7.050
 8368POPC   C4B64510  36.272  22.740   7.350
 8369POPC   NC364511   1.260  27.594   5.550
 8369POPC   PO464512   1.189  27.617   5.850
 8369POPC   GL164513   1.258  27.575   6.150
 8369POPC   GL264514   1.164  27.716   6.150
 8369POPC   C1A64515   1.240  27.625   6.450
 8369POPC   D2A64516   1.261  27.616   6.750
 8369POPC   C3A64517   1.175  27.585   7.050
 8369POPC   C4A64518   1.194  27.631   7.350
 8369POPC   C1B64519   1.097  27.811   6.450
 8369POPC   C2B64520   1.078  27.825   6.750
 8369POPC   C3B64521   1.063  27.852   7.050
 8369POPC   C4B64522   1.149  27.850   7.350
 8370POPC   NC364523   8.218  38.501   5.550
 8370POPC   PO464524   8.228  38.500   5.850
 8370POPC   GL164525   8.206  38.445   6.150
 8370POPC   GL264526   8.221  38.304   6.150
 8370POPC   C1A64527   8.224  38.416   6.450
 8370POPC   D2A64528   8.185  38.425   6.750
 8370POPC   C3A64529   8.205  38.457   7.050
 8370POPC   C4A64530   8.228  38.430   7.350
 8370POPC   C1B64531   8.208  38.195   6.450
 8370POPC   C2B64532   8.247  38.226   6.750
 8370POPC   C3B64533   8.273  38.243   7.050
 8370POPC   C4B64534   8.196  38.246   7.350
 8371POPC   NC364535   5.870  34.581   5.550
 8371POPC   PO464536   5.893  34.540   5.850
 8371POPC   GL164537   5.890  34.556   6.150
 8371POPC   GL264538   5.875  34.710   6.150
 8371POPC   C1A64539   5.883  34.539   6.450
 8371POPC   D2A64540   5.905  34.619   6.750
 8371POPC   C3A64541   5.882  34.530   7.050
 8371POPC   C4A64542   5.884  34.551   7.350
 8371POPC   C1B64543   5.787  34.779   6.450
 8371POPC   C2B64544   5.857  34.781   6.750
 8371POPC   C3B64545   5.830  34.823   7.050
 8371POPC   C4B64546   5.795  34.818   7.350
 8372POPC   NC364547  39.238  38.478   5.550
 8372POPC   PO464548  39.183  38.428   5.850
 8372POPC   GL164549  39.250  38.450   6.150
 8372POPC   GL264550  39.367  38.482   6.150
 8372POPC   C1A64551  39.235  38.442   6.450
 8372POPC   D2A64552  39.181  38.491   6.750
 8372POPC   C3A64553  39.246  38.487   7.050
 8372POPC   C4A64554  39.278  38.411   7.350
 8372POPC   C1B64555  39.459  38.433   6.450
 8372POPC   C2B64556  39.503  38.414   6.750
 8372POPC   C3B64557  39.477  38.399   7.050
 8372POPC   C4B64558  39.502  38.397   7.350
 8373POPC   NC364559   2.037  18.245   5.550
 8373POPC   PO464560   1.998  18.276   5.850
 8373POPC   GL164561   1.988  18.321   6.150
 8373POPC   GL264562   2.122  18.318   6.150
 8373POPC   C1A64563   1.956  18.262   6.450
 8373POPC   D2A64564   2.018  18.295   6.750
 8373POPC   C3A64565   2.020  18.251   7.050
 8373POPC   C4A64566   2.029  18.302   7.350
 8373POPC   C1B64567   2.226  18.430   6.450
 8373POPC   C2B64568   2.143  18.485   6.750
 8373POPC   C3B64569   2.207  18.415   7.050
 8373POPC   C4B64570   2.178  18.422   7.350
 8374POPC   NC364571   7.409   8.963   5.550
 8374POPC   PO464572   7.414   9.013   5.850
 8374POPC   GL164573   7.396   9.017   6.150
 8374POPC   GL264574   7.310   9.032   6.150
 8374POPC   C1A64575   7.411   8.970   6.450
 8374POPC   D2A64576   7.394   8.933   6.750
 8374POPC   C3A64577   7.460   8.935   7.050
 8374POPC   C4A64578   7.432   9.011   7.350
 8374POPC   C1B64579   7.295   9.192   6.450
 8374POPC   C2B64580   7.276   9.222   6.750
 8374POPC   C3B64581   7.324   9.189   7.050
 8374POPC   C4B64582   7.310   9.200   7.350
 8375POPC   NC364583  29.961  24.496   5.550
 8375POPC   PO464584  29.893  24.535   5.850
 8375POPC   GL164585  29.896  24.539   6.150
 8375POPC   GL264586  29.884  24.326   6.150
 8375POPC   C1A64587  29.937  24.462   6.450
 8375POPC   D2A64588  29.958  24.469   6.750
 8375POPC   C3A64589  29.885  24.456   7.050
 8375POPC   C4A64590  29.913  24.514   7.350
 8375POPC   C1B64591  29.888  24.193   6.450
 8375POPC   C2B64592  29.834  24.288   6.750
 8375POPC   C3B64593  29.880  24.230   7.050
 8375POPC   C4B64594  29.869  24.289   7.350
 8376POPC   NC364595  29.130  19.029   5.550
 8376POPC   PO464596  29.096  19.045   5.850
 8376POPC   GL164597  29.096  19.057   6.150
 8376POPC   GL264598  29.046  19.137   6.150
 8376POPC   C1A64599  29.101  19.051   6.450
 8376POPC   D2A64600  29.104  19.074   6.750
 8376POPC   C3A64601  29.163  19.035   7.050
 8376POPC   C4A64602  29.144  19.101   7.350
 8376POPC   C1B64603  29.037  19.219   6.450
 8376POPC   C2B64604  29.018  19.229   6.750
 8376POPC   C3B64605  28.987  19.293   7.050
 8376POPC   C4B64606  29.012  19.301   7.350
 8377POPC   NC364607  44.695   1.262   5.550
 8377POPC   PO464608  44.613   1.214   5.850
 8377POPC   GL164609  44.711   1.236   6.150
 8377POPC   GL264610  44.742   1.226   6.150
 8377POPC   C1A64611  44.631   1.204   6.450
 8377POPC   D2A64612  44.684   1.236   6.750
 8377POPC   C3A64613  44.646   1.189   7.050
 8377POPC   C4A64614  44.635   1.228   7.350
 8377POPC   C1B64615  44.910   1.332   6.450
 8377POPC   C2B64616  44.864   1.348   6.750
 8377POPC   C3B64617  44.882   1.310   7.050
 8377POPC   C4B64618  44.904   1.347   7.350
 8378POPC   NC364619  38.469  26.826   5.550
 8378POPC   PO464620  38.413  26.784   5.850
 8378POPC   GL164621  38.470  26.786   6.150
 8378POPC   GL264622  38.524  26.771   6.150
 8378POPC   C1A64623  38.488  26.778   6.450
 8378POPC   D2A64624  38.503  26.856   6.750
 8378POPC   C3A64625  38.436  26.817   7.050
 8378POPC   C4A64626  38.409  26.799   7.350
 8378POPC   C1B64627  38.620  26.648   6.450
 8378POPC   C2B64628  38.580  26.604   6.750
 8378POPC   C3B64629  38.647  26.640   7.050
 8378POPC   C4B64630  38.592  26.585   7.350
 8379POPC   NC364631  10.479   8.226   5.550
 8379POPC   PO464632  10.500   8.194   5.850
 8379POPC   GL164633  10.475   8.203   6.150
 8379POPC   GL264634  10.474   8.337   6.150
 8379POPC   C1A64635  10.539   8.216   6.450
 8379POPC   D2A64636  10.543   8.155   6.750
 8379POPC   C3A64637  10.512   8.171   7.050
 8379POPC   C4A64638  10.543   8.212   7.350
 8379POPC   C1B64639  10.381   8.406   6.450
 8379POPC   C2B64640  10.412   8.439   6.750
 8379POPC   C3B64641  10.413   8.439   7.050
 8379POPC   C4B64642  10.358   8.372   7.350
 8380POPC   NC364643  25.238   1.172   5.550
 8380POPC   PO464644  25.225   1.192   5.850
 8380POPC   GL164645  25.280   1.254   6.150
 8380POPC   GL264646  25.255   1.073   6.150
 8380POPC   C1A64647  25.267   1.177   6.450
 8380POPC   D2A64648  25.286   1.168   6.750
 8380POPC   C3A64649  25.304   1.220   7.050
 8380POPC   C4A64650  25.263   1.196   7.350
 8380POPC   C1B64651  25.183   0.983   6.450
 8380POPC   C2B64652  25.195   0.981   6.750
 8380POPC   C3B64653  25.262   1.008   7.050
 8380POPC   C4B64654  25.259   0.946   7.350
 8381POPC   NC364655  15.987   8.202   5.550
 8381POPC   PO464656  15.935   8.198   5.850
 8381POPC   GL164657  15.977   8.175   6.150
 8381POPC   GL264658  15.976   8.111   6.150
 8381POPC   C1A64659  15.978   8.157   6.450
 8381POPC   D2A64660  15.930   8.169   6.750
 8381POPC   C3A64661  15.956   8.224   7.050
 8381POPC   C4A64662  16.000   8.242   7.350
 8381POPC   C1B64663  16.078   7.938   6.450
 8381POPC   C2B64664  16.031   7.935   6.750
 8381POPC   C3B64665  16.034   7.980   7.050
 8381POPC   C4B64666  16.080   7.930   7.350
 8382POPC   NC364667  11.346   0.422   5.550
 8382POPC   PO464668  11.251   0.391   5.850
 8382POPC   GL164669  11.340   0.404   6.150
 8382POPC   GL264670  11.458   0.503   6.150
 8382POPC   C1A64671  11.252   0.396   6.450
 8382POPC   D2A64672  11.295   0.479   6.750
 8382POPC   C3A64673  11.334   0.470   7.050
 8382POPC   C4A64674  11.308   0.414   7.350
 8382POPC   C1B64675  11.498   0.526   6.450
 8382POPC   C2B64676  11.554   0.447   6.750
 8382POPC   C3B64677  11.567   0.439   7.050
 8382POPC   C4B64678  11.505   0.459   7.350
 8383POPC   NC364679  10.525  23.680   5.550
 8383POPC   PO464680  10.489  23.698   5.850
 8383POPC   GL164681  10.537  23.730   6.150
 8383POPC   GL264682  10.489  23.606   6.150
 8383POPC   C1A64683  10.549  23.751   6.450
 8383POPC   D2A64684  10.554  23.673   6.750
 8383POPC   C3A64685  10.499  23.720   7.050
 8383POPC   C4A64686  10.569  23.709   7.350
 8383POPC   C1B64687  10.423  23.457   6.450
 8383POPC   C2B64688  10.439  23.484   6.750
 8383POPC   C3B64689  10.452  23.504   7.050
 8383POPC   C4B64690  10.432  23.513   7.350
 8384POPC   NC364691  21.379   2.782   5.550
 8384POPC   PO464692  21.360   2.785   5.850
 8384POPC   GL164693  21.372   2.738   6.150
 8384POPC   GL264694  21.283   2.694   6.150
 8384POPC   C1A64695  21.422   2.769   6.450
 8384POPC   D2A64696  21.358   2.797   6.750
 8384POPC   C3A64697  21.361   2.789   7.050
 8384POPC   C4A64698  21.374   2.751   7.350
 8384POPC   C1B64699  21.140   2.689   6.450
 8384POPC   C2B64700  21.161   2.696   6.750
 8384POPC   C3B64701  21.160   2.654   7.050
 8384POPC   C4B64702  21.130   2.678   7.350
 8385POPC   NC364703  13.605  25.265   5.550
 8385POPC   PO464704  13.596  25.276   5.850
 8385POPC   GL164705  13.664  25.314   6.150
 8385POPC   GL264706  13.535  25.181   6.150
 8385POPC   C1A64707  13.604  25.226   6.450
 8385POPC   D2A64708  13.600  25.245   6.750
 8385POPC   C3A64709  13.635  25.289   7.050
 8385POPC   C4A64710  13.671  25.279   7.350
 8385POPC   C1B64711  13.497  25.059   6.450
 8385POPC   C2B64712  13.496  25.112   6.750
 8385POPC   C3B64713  13.491  25.043   7.050
 8385POPC   C4B64714  13.410  25.123   7.350
 8386POPC   NC364715  35.320  31.447   5.550
 8386POPC   PO464716  35.375  31.510   5.850
 8386POPC   GL164717  35.337  31.501   6.150
 8386POPC   GL264718  35.412  31.611   6.150
 8386POPC   C1A64719  35.327  31.459   6.450
 8386POPC   D2A64720  35.313  31.456   6.750
 8386POPC   C3A64721  35.381  31.493   7.050
 8386POPC   C4A64722  35.378  31.483   7.350
 8386POPC   C1B64723  35.530  31.705   6.450
 8386POPC   C2B64724  35.483  31.628   6.750
 8386POPC   C3B64725  35.482  31.691   7.050
 8386POPC   C4B64726  35.501  31.692   7.350
 8387POPC   NC364727  42.370  16.777   5.550
 8387POPC   PO464728  42.377  16.690   5.850
 8387POPC   GL164729  42.384  16.696   6.150
 8387POPC   GL264730  42.358  16.868   6.150
 8387POPC   C1A64731  42.292  16.706   6.450
 8387POPC   D2A64732  42.329  16.732   6.750
 8387POPC   C3A64733  42.298  16.712   7.050
 8387POPC   C4A64734  42.356  16.687   7.350
 8387POPC   C1B64735  42.437  16.923   6.450
 8387POPC   C2B64736  42.425  16.954   6.750
 8387POPC   C3B64737  42.427  16.916   7.050
 8387POPC   C4B64738  42.473  16.907   7.350
 8388POPC   NC364739  38.498  29.163   5.550
 8388POPC   PO464740  38.415  29.193   5.850
 8388POPC   GL164741  38.406  29.187   6.150
 8388POPC   GL264742  38.420  29.071   6.150
 8388POPC   C1A64743  38.424  29.116   6.450
 8388POPC   D2A64744  38.445  29.195   6.750
 8388POPC   C3A64745  38.486  29.138   7.050
 8388POPC   C4A64746  38.482  29.129   7.350
 8388POPC   C1B64747  38.329  28.926   6.450
 8388POPC   C2B64748  38.341  28.892   6.750
 8388POPC   C3B64749  38.293  28.936   7.050
 8388POPC   C4B64750  38.291  28.912   7.350
 8389POPC   NC364751   9.011  20.629   5.550
 8389POPC   PO464752   8.963  20.641   5.850
 8389POPC   GL164753   8.975  20.637   6.150
 8389POPC   GL264754   9.027  20.491   6.150
 8389POPC   C1A64755   8.988  20.620   6.450
 8389POPC   D2A64756   8.995  20.653   6.750
 8389POPC   C3A64757   8.929  20.625   7.050
 8389POPC   C4A64758   9.007  20.648   7.350
 8389POPC   C1B64759   9.077  20.344   6.450
 8389POPC   C2B64760   9.040  20.332   6.750
 8389POPC   C3B64761   9.061  20.364   7.050
 8389POPC   C4B64762   9.052  20.410   7.350
 8390POPC   NC364763  11.307  25.997   5.550
 8390POPC   PO464764  11.316  26.086   5.850
 8390POPC   GL164765  11.323  26.072   6.150
 8390POPC   GL264766  11.217  25.974   6.150
 8390POPC   C1A64767  11.270  26.060   6.450
 8390POPC   D2A64768  11.348  26.023   6.750
 8390POPC   C3A64769  11.291  26.081   7.050
 8390POPC   C4A64770  11.338  26.058   7.350
 8390POPC   C1B64771  11.082  25.870   6.450
 8390POPC   C2B64772  11.102  25.867   6.750
 8390POPC   C3B64773  11.150  25.912   7.050
 8390POPC   C4B64774  11.076  25.863   7.350
 8391POPC   NC364775  13.664  26.079   5.550
 8391POPC   PO464776  13.649  26.016   5.850
 8391POPC   GL164777  13.660  26.045   6.150
 8391POPC   GL264778  13.517  25.993   6.150
 8391POPC   C1A64779  13.592  26.090   6.450
 8391POPC   D2A64780  13.634  26.000   6.750
 8391POPC   C3A64781  13.650  26.080   7.050
 8391POPC   C4A64782  13.640  26.060   7.350
 8391POPC   C1B64783  13.416  26.031   6.450
 8391POPC   C2B64784  13.365  26.070   6.750
 8391POPC   C3B64785  13.370  26.058   7.050
 8391POPC   C4B64786  13.425  26.032   7.350
 8392POPC   NC364787  12.050   1.196   5.550
 8392POPC   PO464788  12.088   1.194   5.850
 8392POPC   GL164789  12.049   1.215   6.150
 8392POPC   GL264790  11.957   1.201   6.150
 8392POPC   C1A64791  12.118   1.210   6.450
 8392POPC   D2A64792  12.046   1.252   6.750
 8392POPC   C3A64793  12.045   1.236   7.050
 8392POPC   C4A64794  12.080   1.181   7.350
 8392POPC   C1B64795  11.819   1.294   6.450
 8392POPC   C2B64796  11.799   1.305   6.750
 8392POPC   C3B64797  11.814   1.261   7.050
 8392POPC   C4B64798  11.815   1.315   7.350
 8393POPC   NC364799  43.883  11.279   5.550
 8393POPC   PO464800  43.846  11.308   5.850
 8393POPC   GL164801  43.886  11.281   6.150
 8393POPC   GL264802  43.758  11.239   6.150
 8393POPC   C1A64803  43.845  11.299   6.450
 8393POPC   D2A64804  43.839  11.312   6.750
 8393POPC   C3A64805  43.930  11.317   7.050
 8393POPC   C4A64806  43.868  11.326   7.350
 8393POPC   C1B64807  43.684  11.226   6.450
 8393POPC   C2B64808  43.688  11.179   6.750
 8393POPC   C3B64809  43.634  11.212   7.050
 8393POPC   C4B64810  43.640  11.259   7.350
 8394POPC   NC364811  12.831   0.478   5.550
 8394POPC   PO464812  12.895   0.470   5.850
 8394POPC   GL164813  12.870   0.448   6.150
 8394POPC   GL264814  12.911   0.323   6.150
 8394POPC   C1A64815  12.851   0.487   6.450
 8394POPC   D2A64816  12.886   0.474   6.750
 8394POPC   C3A64817  12.826   0.392   7.050
 8394POPC   C4A64818  12.892   0.392   7.350
 8394POPC   C1B64819  13.045   0.354   6.450
 8394POPC   C2B64820  13.051   0.271   6.750
 8394POPC   C3B64821  13.033   0.286   7.050
 8394POPC   C4B64822  13.060   0.296   7.350
 8395POPC   NC364823   1.942  33.073   5.550
 8395POPC   PO464824   2.032  32.992   5.850
 8395POPC   GL164825   2.020  33.033   6.150
 8395POPC   GL264826   1.871  33.094   6.150
 8395POPC   C1A64827   1.946  33.014   6.450
 8395POPC   D2A64828   1.993  33.046   6.750
 8395POPC   C3A64829   1.985  32.975   7.050
 8395POPC   C4A64830   2.038  32.993   7.350
 8395POPC   C1B64831   1.782  33.106   6.450
 8395POPC   C2B64832   1.801  33.125   6.750
 8395POPC   C3B64833   1.745  33.166   7.050
 8395POPC   C4B64834   1.744  33.093   7.350
 8396POPC   NC364835  44.640  27.580   5.550
 8396POPC   PO464836  44.632  27.557   5.850
 8396POPC   GL164837  44.639  27.611   6.150
 8396POPC   GL264838  44.722  27.536   6.150
 8396POPC   C1A64839  44.618  27.618   6.450
 8396POPC   D2A64840  44.704  27.585   6.750
 8396POPC   C3A64841  44.699  27.632   7.050
 8396POPC   C4A64842  44.670  27.547   7.350
 8396POPC   C1B64843  44.830  27.503   6.450
 8396POPC   C2B64844  44.852  27.511   6.750
 8396POPC   C3B64845  44.881  27.427   7.050
 8396POPC   C4B64846  44.914  27.486   7.350
 8397POPC   NC364847  14.371  20.602   5.550
 8397POPC   PO464848  14.364  20.588   5.850
 8397POPC   GL164849  14.374  20.643   6.150
 8397POPC   GL264850  14.459  20.449   6.150
 8397POPC   C1A64851  14.383  20.644   6.450
 8397POPC   D2A64852  14.357  20.582   6.750
 8397POPC   C3A64853  14.434  20.592   7.050
 8397POPC   C4A64854  14.354  20.642   7.350
 8397POPC   C1B64855  14.403  20.352   6.450
 8397POPC   C2B64856  14.433  20.358   6.750
 8397POPC   C3B64857  14.486  20.324   7.050
 8397POPC   C4B64858  14.432  20.324   7.350
 8398POPC   NC364859  12.828  40.049   5.550
 8398POPC   PO464860  12.890  39.963   5.850
 8398POPC   GL164861  12.859  39.995   6.150
 8398POPC   GL264862  12.931  40.059   6.150
 8398POPC   C1A64863  12.896  39.984   6.450
 8398POPC   D2A64864  12.802  40.006   6.750
 8398POPC   C3A64865  12.867  40.050   7.050
 8398POPC   C4A64866  12.837  39.995   7.350
 8398POPC   C1B64867  13.069  40.110   6.450
 8398POPC   C2B64868  13.042  40.146   6.750
 8398POPC   C3B64869  13.037  40.162   7.050
 8398POPC   C4B64870  13.055  40.122   7.350
 8399POPC   NC364871  26.860   8.991   5.550
 8399POPC   PO464872  26.848   9.006   5.850
 8399POPC   GL164873  26.863   8.971   6.150
 8399POPC   GL264874  26.762   9.018   6.150
 8399POPC   C1A64875  26.849   8.955   6.450
 8399POPC   D2A64876  26.839   9.020   6.750
 8399POPC   C3A64877  26.802   8.995   7.050
 8399POPC   C4A64878  26.797   9.006   7.350
 8399POPC   C1B64879  26.586   9.118   6.450
 8399POPC   C2B64880  26.638   9.178   6.750
 8399POPC   C3B64881  26.598   9.167   7.050
 8399POPC   C4B64882  26.634   9.192   7.350
 8400POPC   NC364883  20.576  39.244   5.550
 8400POPC   PO464884  20.595  39.208   5.850
 8400POPC   GL164885  20.600  39.256   6.150
 8400POPC   GL264886  20.667  39.131   6.150
 8400POPC   C1A64887  20.568  39.211   6.450
 8400POPC   D2A64888  20.645  39.190   6.750
 8400POPC   C3A64889  20.572  39.198   7.050
 8400POPC   C4A64890  20.593  39.194   7.350
 8400POPC   C1B64891  20.792  39.059   6.450
 8400POPC   C2B64892  20.739  39.023   6.750
 8400POPC   C3B64893  20.755  38.998   7.050
 8400POPC   C4B64894  20.731  38.984   7.350
 8401POPC   NC364895  43.850  20.631   5.550
 8401POPC   PO464896  43.891  20.610   5.850
 8401POPC   GL164897  43.880  20.615   6.150
 8401POPC   GL264898  43.922  20.541   6.150
 8401POPC   C1A64899  43.850  20.609   6.450
 8401POPC   D2A64900  43.898  20.599   6.750
 8401POPC   C3A64901  43.887  20.660   7.050
 8401POPC   C4A64902  43.896  20.606   7.350
 8401POPC   C1B64903  43.997  20.358   6.450
 8401POPC   C2B64904  43.969  20.402   6.750
 8401POPC   C3B64905  44.007  20.390   7.050
 8401POPC   C4B64906  44.020  20.390   7.350
 8402POPC   NC364907  40.751  33.067   5.550
 8402POPC   PO464908  40.776  33.020   5.850
 8402POPC   GL164909  40.783  33.010   6.150
 8402POPC   GL264910  40.715  33.097   6.150
 8402POPC   C1A64911  40.747  33.059   6.450
 8402POPC   D2A64912  40.742  33.040   6.750
 8402POPC   C3A64913  40.737  33.055   7.050
 8402POPC   C4A64914  40.816  33.051   7.350
 8402POPC   C1B64915  40.611  33.120   6.450
 8402POPC   C2B64916  40.569  33.138   6.750
 8402POPC   C3B64917  40.602  33.145   7.050
 8402POPC   C4B64918  40.526  33.149   7.350
 8403POPC   NC364919  16.763   9.712   5.550
 8403POPC   PO464920  16.751   9.699   5.850
 8403POPC   GL164921  16.736   9.796   6.150
 8403POPC   GL264922  16.810   9.729   6.150
 8403POPC   C1A64923  16.745   9.740   6.450
 8403POPC   D2A64924  16.759   9.736   6.750
 8403POPC   C3A64925  16.763   9.715   7.050
 8403POPC   C4A64926  16.722   9.796   7.350
 8403POPC   C1B64927  17.023   9.764   6.450
 8403POPC   C2B64928  16.991   9.692   6.750
 8403POPC   C3B64929  16.997   9.762   7.050
 8403POPC   C4B64930  16.942   9.764   7.350
 8404POPC   NC364931  44.630  43.068   5.550
 8404POPC   PO464932  44.644  43.154   5.850
 8404POPC   GL164933  44.645  43.117   6.150
 8404POPC   GL264934  44.626  43.192   6.150
 8404POPC   C1A64935  44.642  43.064   6.450
 8404POPC   D2A64936  44.619  43.096   6.750
 8404POPC   C3A64937  44.687  43.120   7.050
 8404POPC   C4A64938  44.674  43.097   7.350
 8404POPC   C1B64939  44.633  43.399   6.450
 8404POPC   C2B64940  44.629  43.345   6.750
 8404POPC   C3B64941  44.606  43.391   7.050
 8404POPC   C4B64942  44.626  43.377   7.350
 8405POPC   NC364943  20.570  40.745   5.550
 8405POPC   PO464944  20.620  40.758   5.850
 8405POPC   GL164945  20.583  40.789   6.150
 8405POPC   GL264946  20.630  40.633   6.150
 8405POPC   C1A64947  20.660  40.796   6.450
 8405POPC   D2A64948  20.613  40.818   6.750
 8405POPC   C3A64949  20.581  40.766   7.050
 8405POPC   C4A64950  20.611  40.780   7.350
 8405POPC   C1B64951  20.675  40.568   6.450
 8405POPC   C2B64952  20.609  40.582   6.750
 8405POPC   C3B64953  20.600  40.518   7.050
 8405POPC   C4B64954  20.668  40.531   7.350
 8406POPC   NC364955  16.774  31.435   5.550
 8406POPC   PO464956  16.735  31.433   5.850
 8406POPC   GL164957  16.754  31.518   6.150
 8406POPC   GL264958  16.813  31.469   6.150
 8406POPC   C1A64959  16.728  31.511   6.450
 8406POPC   D2A64960  16.682  31.475   6.750
 8406POPC   C3A64961  16.768  31.466   7.050
 8406POPC   C4A64962  16.755  31.453   7.350
 8406POPC   C1B64963  16.981  31.346   6.450
 8406POPC   C2B64964  17.014  31.423   6.750
 8406POPC   C3B64965  16.959  31.407   7.050
 8406POPC   C4B64966  16.990  31.341   7.350
 8407POPC   NC364967  43.112  39.214   5.550
 8407POPC   PO464968  43.083  39.260   5.850
 8407POPC   GL164969  43.132  39.232   6.150
 8407POPC   GL264970  43.038  39.356   6.150
 8407POPC   C1A64971  43.112  39.227   6.450
 8407POPC   D2A64972  43.071  39.261   6.750
 8407POPC   C3A64973  43.075  39.219   7.050
 8407POPC   C4A64974  43.074  39.238   7.350
 8407POPC   C1B64975  43.001  39.475   6.450
 8407POPC   C2B64976  43.049  39.476   6.750
 8407POPC   C3B64977  43.029  39.459   7.050
 8407POPC   C4B64978  43.049  39.419   7.350
 8408POPC   NC364979  41.511   1.211   5.550
 8408POPC   PO464980  41.576   1.234   5.850
 8408POPC   GL164981  41.583   1.243   6.150
 8408POPC   GL264982  41.561   1.295   6.150
 8408POPC   C1A64983  41.570   1.245   6.450
 8408POPC   D2A64984  41.557   1.218   6.750
 8408POPC   C3A64985  41.606   1.264   7.050
 8408POPC   C4A64986  41.521   1.207   7.350
 8408POPC   C1B64987  41.612   1.452   6.450
 8408POPC   C2B64988  41.601   1.424   6.750
 8408POPC   C3B64989  41.579   1.477   7.050
 8408POPC   C4B64990  41.579   1.448   7.350
 8409POPC   NC364991  40.002   8.208   5.550
 8409POPC   PO464992  40.053   8.194   5.850
 8409POPC   GL164993  40.046   8.194   6.150
 8409POPC   GL264994  39.837   8.125   6.150
 8409POPC   C1A64995  39.977   8.171   6.450
 8409POPC   D2A64996  40.024   8.243   6.750
 8409POPC   C3A64997  40.050   8.148   7.050
 8409POPC   C4A64998  39.986   8.199   7.350
 8409POPC   C1B64999  39.810   8.127   6.450
 8409POPC   C2B65000  39.740   8.108   6.750
 8409POPC   C3B65001  39.739   8.117   7.050
 8409POPC   C4B65002  39.734   8.086   7.350
 8410POPC   NC365003   6.602   7.428   5.550
 8410POPC   PO465004   6.668   7.379   5.850
 8410POPC   GL165005   6.640   7.403   6.150
 8410POPC   GL265006   6.641   7.347   6.150
 8410POPC   C1A65007   6.627   7.382   6.450
 8410POPC   D2A65008   6.649   7.387   6.750
 8410POPC   C3A65009   6.602   7.449   7.050
 8410POPC   C4A65010   6.604   7.468   7.350
 8410POPC   C1B65011   6.709   7.160   6.450
 8410POPC   C2B65012   6.760   7.225   6.750
 8410POPC   C3B65013   6.708   7.170   7.050
 8410POPC   C4B65014   6.770   7.208   7.350
 8411POPC   NC365015   5.115  22.127   5.550
 8411POPC   PO465016   5.074  22.207   5.850
 8411POPC   GL165017   5.133  22.129   6.150
 8411POPC   GL265018   4.977  22.039   6.150
 8411POPC   C1A65019   5.060  22.171   6.450
 8411POPC   D2A65020   5.062  22.150   6.750
 8411POPC   C3A65021   5.110  22.155   7.050
 8411POPC   C4A65022   5.141  22.168   7.350
 8411POPC   C1B65023   4.883  21.936   6.450
 8411POPC   C2B65024   4.913  21.979   6.750
 8411POPC   C3B65025   4.906  21.988   7.050
 8411POPC   C4B65026   4.918  21.948   7.350
 8412POPC   NC365027   5.052  36.874   5.550
 8412POPC   PO465028   5.124  36.872   5.850
 8412POPC   GL165029   5.107  36.891   6.150
 8412POPC   GL265030   5.003  36.805   6.150
 8412POPC   C1A65031   5.106  36.949   6.450
 8412POPC   D2A65032   5.125  36.894   6.750
 8412POPC   C3A65033   5.126  36.878   7.050
 8412POPC   C4A65034   5.095  36.863   7.350
 8412POPC   C1B65035   4.864  36.779   6.450
 8412POPC   C2B65036   4.853  36.794   6.750
 8412POPC   C3B65037   4.852  36.741   7.050
 8412POPC   C4B65038   4.895  36.793   7.350
 8413POPC   NC365039   5.074  31.500   5.550
 8413POPC   PO465040   5.075  31.474   5.850
 8413POPC   GL165041   5.077  31.452   6.150
 8413POPC   GL265042   5.190  31.409   6.150
 8413POPC   C1A65043   5.056  31.427   6.450
 8413POPC   D2A65044   5.102  31.482   6.750
 8413POPC   C3A65045   5.086  31.511   7.050
 8413POPC   C4A65046   5.052  31.451   7.350
 8413POPC   C1B65047   5.337  31.368   6.450
 8413POPC   C2B65048   5.287  31.283   6.750
 8413POPC   C3B65049   5.336  31.316   7.050
 8413POPC   C4B65050   5.260  31.356   7.350
 8414POPC   NC365051   8.949  29.128   5.550
 8414POPC   PO465052   8.956  29.100   5.850
 8414POPC   GL165053   8.988  29.137   6.150
 8414POPC   GL265054   9.004  29.072   6.150
 8414POPC   C1A65055   9.022  29.135   6.450
 8414POPC   D2A65056   9.006  29.181   6.750
 8414POPC   C3A65057   8.946  29.188   7.050
 8414POPC   C4A65058   8.979  29.161   7.350
 8414POPC   C1B65059   9.127  28.980   6.450
 8414POPC   C2B65060   9.073  28.949   6.750
 8414POPC   C3B65061   9.086  28.922   7.050
 8414POPC   C4B65062   9.146  28.941   7.350
 8415POPC   NC365063  32.277  11.265   5.550
 8415POPC   PO465064  32.290  11.261   5.850
 8415POPC   GL165065  32.283  11.281   6.150
 8415POPC   GL265066  32.328  11.305   6.150
 8415POPC   C1A65067  32.210  11.299   6.450
 8415POPC   D2A65068  32.263  11.341   6.750
 8415POPC   C3A65069  32.246  11.313   7.050
 8415POPC   C4A65070  32.295  11.299   7.350
 8415POPC   C1B65071  32.515  11.221   6.450
 8415POPC   C2B65072  32.500  11.183   6.750
 8415POPC   C3B65073  32.497  11.257   7.050
 8415POPC   C4B65074  32.490  11.196   7.350
 8416POPC   NC365075  44.683   6.667   5.550
 8416POPC   PO465076  44.655   6.619   5.850
 8416POPC   GL165077  44.688   6.601   6.150
 8416POPC   GL265078  44.673   6.530   6.150
 8416POPC   C1A65079  44.641   6.689   6.450
 8416POPC   D2A65080  44.652   6.686   6.750
 8416POPC   C3A65081  44.688   6.615   7.050
 8416POPC   C4A65082  44.672   6.692   7.350
 8416POPC   C1B65083  44.675   6.424   6.450
 8416POPC   C2B65084  44.674   6.347   6.750
 8416POPC   C3B65085  44.680   6.394   7.050
 8416POPC   C4B65086  44.712   6.367   7.350
 8417POPC   NC365087  17.493   3.589   5.550
 8417POPC   PO465088  17.496   3.577   5.850
 8417POPC   GL165089  17.495   3.502   6.150
 8417POPC   GL265090  17.410   3.529   6.150
 8417POPC   C1A65091  17.526   3.517   6.450
 8417POPC   D2A65092  17.488   3.511   6.750
 8417POPC   C3A65093  17.525   3.505   7.050
 8417POPC   C4A65094  17.498   3.569   7.350
 8417POPC   C1B65095  17.236   3.530   6.450
 8417POPC   C2B65096  17.270   3.522   6.750
 8417POPC   C3B65097  17.254   3.514   7.050
 8417POPC   C4B65098  17.288   3.538   7.350
 8418POPC   NC365099  39.201  27.560   5.550
 8418POPC   PO465100  39.205  27.631   5.850
 8418POPC   GL165101  39.268  27.583   6.150
 8418POPC   GL265102  39.395  27.575   6.150
 8418POPC   C1A65103  39.227  27.551   6.450
 8418POPC   D2A65104  39.230  27.627   6.750
 8418POPC   C3A65105  39.243  27.619   7.050
 8418POPC   C4A65106  39.238  27.586   7.350
 8418POPC   C1B65107  39.510  27.620   6.450
 8418POPC   C2B65108  39.449  27.571   6.750
 8418POPC   C3B65109  39.512  27.542   7.050
 8418POPC   C4B65110  39.493  27.608   7.350
 8419POPC   NC365111   2.748  39.272   5.550
 8419POPC   PO465112   2.755  39.216   5.850
 8419POPC   GL165113   2.755  39.227   6.150
 8419POPC   GL265114   2.661  39.302   6.150
 8419POPC   C1A65115   2.734  39.263   6.450
 8419POPC   D2A65116   2.731  39.209   6.750
 8419POPC   C3A65117   2.794  39.205   7.050
 8419POPC   C4A65118   2.812  39.221   7.350
 8419POPC   C1B65119   2.637  39.435   6.450
 8419POPC   C2B65120   2.613  39.464   6.750
 8419POPC   C3B65121   2.616  39.450   7.050
 8419POPC   C4B65122   2.569  39.414   7.350
 8420POPC   NC365123  34.552  15.957   5.550
 8420POPC   PO465124  34.580  15.996   5.850
 8420POPC   GL165125  34.545  15.985   6.150
 8420POPC   GL265126  34.492  15.906   6.150
 8420POPC   C1A65127  34.574  16.001   6.450
 8420POPC   D2A65128  34.526  16.001   6.750
 8420POPC   C3A65129  34.585  15.983   7.050
 8420POPC   C4A65130  34.618  15.954   7.350
 8420POPC   C1B65131  34.344  15.904   6.450
 8420POPC   C2B65132  34.369  15.971   6.750
 8420POPC   C3B65133  34.290  15.899   7.050
 8420POPC   C4B65134  34.375  15.885   7.350
 8421POPC   NC365135   4.309  25.314   5.550
 8421POPC   PO465136   4.276  25.253   5.850
 8421POPC   GL165137   4.367  25.287   6.150
 8421POPC   GL265138   4.476  25.259   6.150
 8421POPC   C1A65139   4.348  25.233   6.450
 8421POPC   D2A65140   4.320  25.295   6.750
 8421POPC   C3A65141   4.289  25.222   7.050
 8421POPC   C4A65142   4.292  25.238   7.350
 8421POPC   C1B65143   4.566  25.159   6.450
 8421POPC   C2B65144   4.533  25.114   6.750
 8421POPC   C3B65145   4.533  25.153   7.050
 8421POPC   C4B65146   4.578  25.196   7.350
 8422POPC   NC365147  37.667   3.553   5.550
 8422POPC   PO465148  37.643   3.507   5.850
 8422POPC   GL165149  37.691   3.551   6.150
 8422POPC   GL265150  37.668   3.613   6.150
 8422POPC   C1A65151  37.670   3.582   6.450
 8422POPC   D2A65152  37.727   3.590   6.750
 8422POPC   C3A65153  37.697   3.529   7.050
 8422POPC   C4A65154  37.654   3.545   7.350
 8422POPC   C1B65155  37.660   3.830   6.450
 8422POPC   C2B65156  37.666   3.806   6.750
 8422POPC   C3B65157  37.580   3.823   7.050
 8422POPC   C4B65158  37.600   3.795   7.350
 8423POPC   NC365159  22.984   5.850   5.550
 8423POPC   PO465160  22.932   5.871   5.850
 8423POPC   GL165161  22.932   5.906   6.150
 8423POPC   GL265162  22.793   5.890   6.150
 8423POPC   C1A65163  22.908   5.906   6.450
 8423POPC   D2A65164  22.918   5.838   6.750
 8423POPC   C3A65165  22.978   5.893   7.050
 8423POPC   C4A65166  22.902   5.915   7.350
 8423POPC   C1B65167  22.727   5.874   6.450
 8423POPC   C2B65168  22.654   5.935   6.750
 8423POPC   C3B65169  22.725   5.924   7.050
 8423POPC   C4B65170  22.675   5.921   7.350
 8424POPC   NC365171  14.436  31.459   5.550
 8424POPC   PO465172  14.444  31.433   5.850
 8424POPC   GL165173  14.401  31.517   6.150
 8424POPC   GL265174  14.366  31.550   6.150
 8424POPC   C1A65175  14.434  31.474   6.450
 8424POPC   D2A65176  14.400  31.442   6.750
 8424POPC   C3A65177  14.409  31.440   7.050
 8424POPC   C4A65178  14.449  31.488   7.350
 8424POPC   C1B65179  14.214  31.641   6.450
 8424POPC   C2B65180  14.266  31.643   6.750
 8424POPC   C3B65181  14.225  31.702   7.050
 8424POPC   C4B65182  14.245  31.713   7.350
 8425POPC   NC365183  13.597   2.724   5.550
 8425POPC   PO465184  13.601   2.730   5.850
 8425POPC   GL165185  13.635   2.782   6.150
 8425POPC   GL265186  13.772   2.821   6.150
 8425POPC   C1A65187  13.615   2.730   6.450
 8425POPC   D2A65188  13.629   2.721   6.750
 8425POPC   C3A65189  13.594   2.731   7.050
 8425POPC   C4A65190  13.667   2.811   7.350
 8425POPC   C1B65191  13.840   2.856   6.450
 8425POPC   C2B65192  13.873   2.803   6.750
 8425POPC   C3B65193  13.887   2.884   7.050
 8425POPC   C4B65194  13.905   2.845   7.350
 8426POPC   NC365195  17.520  29.124   5.550
 8426POPC   PO465196  17.492  29.124   5.850
 8426POPC   GL165197  17.522  29.174   6.150
 8426POPC   GL265198  17.608  29.123   6.150
 8426POPC   C1A65199  17.502  29.103   6.450
 8426POPC   D2A65200  17.467  29.192   6.750
 8426POPC   C3A65201  17.512  29.183   7.050
 8426POPC   C4A65202  17.470  29.165   7.350
 8426POPC   C1B65203  17.722  29.153   6.450
 8426POPC   C2B65204  17.769  29.113   6.750
 8426POPC   C3B65205  17.710  29.105   7.050
 8426POPC   C4B65206  17.792  29.141   7.350
 8427POPC   NC365207  28.377   7.444   5.550
 8427POPC   PO465208  28.377   7.391   5.850
 8427POPC   GL165209  28.367   7.448   6.150
 8427POPC   GL265210  28.409   7.281   6.150
 8427POPC   C1A65211  28.341   7.421   6.450
 8427POPC   D2A65212  28.335   7.407   6.750
 8427POPC   C3A65213  28.366   7.422   7.050
 8427POPC   C4A65214  28.404   7.458   7.350
 8427POPC   C1B65215  28.452   7.189   6.450
 8427POPC   C2B65216  28.481   7.179   6.750
 8427POPC   C3B65217  28.433   7.158   7.050
 8427POPC   C4B65218  28.442   7.190   7.350
 8428POPC   NC365219  24.466  38.482   5.550
 8428POPC   PO465220  24.474  38.450   5.850
 8428POPC   GL165221  24.520  38.498   6.150
 8428POPC   GL265222  24.584  38.481   6.150
 8428POPC   C1A65223  24.487  38.473   6.450
 8428POPC   D2A65224  24.440  38.502   6.750
 8428POPC   C3A65225  24.442  38.505   7.050
 8428POPC   C4A65226  24.517  38.450   7.350
 8428POPC   C1B65227  24.776  38.457   6.450
 8428POPC   C2B65228  24.781  38.460   6.750
 8428POPC   C3B65229  24.695  38.474   7.050
 8428POPC   C4B65230  24.784  38.478   7.350
 8429POPC   NC365231   3.551  20.651   5.550
 8429POPC   PO465232   3.531  20.633   5.850
 8429POPC   GL165233   3.497  20.623   6.150
 8429POPC   GL265234   3.406  20.684   6.150
 8429POPC   C1A65235   3.505  20.632   6.450
 8429POPC   D2A65236   3.536  20.587   6.750
 8429POPC   C3A65237   3.553  20.585   7.050
 8429POPC   C4A65238   3.499  20.571   7.350
 8429POPC   C1B65239   3.313  20.714   6.450
 8429POPC   C2B65240   3.336  20.742   6.750
 8429POPC   C3B65241   3.333  20.740   7.050
 8429POPC   C4B65242   3.279  20.713   7.350
 8430POPC   NC365243  18.315  25.230   5.550
 8430POPC   PO465244  18.313  25.312   5.850
 8430POPC   GL165245  18.261  25.289   6.150
 8430POPC   GL265246  18.180  25.185   6.150
 8430POPC   C1A65247  18.281  25.298   6.450
 8430POPC   D2A65248  18.247  25.250   6.750
 8430POPC   C3A65249  18.243  25.305   7.050
 8430POPC   C4A65250  18.279  25.305   7.350
 8430POPC   C1B65251  18.023  25.218   6.450
 8430POPC   C2B65252  18.021  25.231   6.750
 8430POPC   C3B65253  18.068  25.156   7.050
 8430POPC   C4B65254  18.023  25.236   7.350
 8431POPC   NC365255   0.465  12.107   5.550
 8431POPC   PO465256   0.455  12.091   5.850
 8431POPC   GL165257   0.410  12.047   6.150
 8431POPC   GL265258   0.289  12.056   6.150
 8431POPC   C1A65259   0.456  12.064   6.450
 8431POPC   D2A65260   0.428  12.072   6.750
 8431POPC   C3A65261   0.425  12.101   7.050
 8431POPC   C4A65262   0.411  12.045   7.350
 8431POPC   C1B65263   0.196  11.936   6.450
 8431POPC   C2B65264   0.273  11.936   6.750
 8431POPC   C3B65265   0.219  11.951   7.050
 8431POPC   C4B65266   0.252  11.982   7.350
 8432POPC   NC365267  13.636  36.158   5.550
 8432POPC   PO465268  13.646  36.146   5.850
 8432POPC   GL165269  13.646  36.127   6.150
 8432POPC   GL265270  13.649  36.254   6.150
 8432POPC   C1A65271  13.675  36.079   6.450
 8432POPC   D2A65272  13.600  36.156   6.750
 8432POPC   C3A65273  13.598  36.099   7.050
 8432POPC   C4A65274  13.582  36.108   7.350
 8432POPC   C1B65275  13.674  36.389   6.450
 8432POPC   C2B65276  13.643  36.379   6.750
 8432POPC   C3B65277  13.647  36.373   7.050
 8432POPC   C4B65278  13.605  36.379   7.350
 8433POPC   NC365279  24.528  21.341   5.550
 8433POPC   PO465280  24.504  21.382   5.850
 8433POPC   GL165281  24.490  21.394   6.150
 8433POPC   GL265282  24.381  21.479   6.150
 8433POPC   C1A65283  24.464  21.369   6.450
 8433POPC   D2A65284  24.501  21.436   6.750
 8433POPC   C3A65285  24.500  21.349   7.050
 8433POPC   C4A65286  24.534  21.339   7.350
 8433POPC   C1B65287  24.314  21.579   6.450
 8433POPC   C2B65288  24.241  21.569   6.750
 8433POPC   C3B65289  24.322  21.553   7.050
 8433POPC   C4B65290  24.256  21.561   7.350
 8434POPC   NC365291  13.646  19.798   5.550
 8434POPC   PO465292  13.671  19.842   5.850
 8434POPC   GL165293  13.605  19.825   6.150
 8434POPC   GL265294  13.684  19.754   6.150
 8434POPC   C1A65295  13.620  19.855   6.450
 8434POPC   D2A65296  13.663  19.817   6.750
 8434POPC   C3A65297  13.649  19.867   7.050
 8434POPC   C4A65298  13.593  19.870   7.350
 8434POPC   C1B65299  13.807  19.664   6.450
 8434POPC   C2B65300  13.829  19.712   6.750
 8434POPC   C3B65301  13.857  19.646   7.050
 8434POPC   C4B65302  13.852  19.619   7.350
 8435POPC   NC365303  22.134  15.216   5.550
 8435POPC   PO465304  22.147  15.219   5.850
 8435POPC   GL165305  22.189  15.136   6.150
 8435POPC   GL265306  22.281  15.111   6.150
 8435POPC   C1A65307  22.167  15.206   6.450
 8435POPC   D2A65308  22.205  15.205   6.750
 8435POPC   C3A65309  22.134  15.185   7.050
 8435POPC   C4A65310  22.200  15.192   7.350
 8435POPC   C1B65311  22.393  15.145   6.450
 8435POPC   C2B65312  22.436  15.114   6.750
 8435POPC   C3B65313  22.448  15.142   7.050
 8435POPC   C4B65314  22.398  15.082   7.350
 8436POPC   NC365315  22.185  15.977   5.550
 8436POPC   PO465316  22.134  15.994   5.850
 8436POPC   GL165317  22.136  15.914   6.150
 8436POPC   GL265318  22.149  16.092   6.150
 8436POPC   C1A65319  22.159  15.965   6.450
 8436POPC   D2A65320  22.135  15.979   6.750
 8436POPC   C3A65321  22.155  15.962   7.050
 8436POPC   C4A65322  22.168  15.997   7.350
 8436POPC   C1B65323  22.223  16.148   6.450
 8436POPC   C2B65324  22.195  16.177   6.750
 8436POPC   C3B65325  22.215  16.185   7.050
 8436POPC   C4B65326  22.221  16.217   7.350
 8437POPC   NC365327  15.912  33.003   5.550
 8437POPC   PO465328  15.951  33.072   5.850
 8437POPC   GL165329  15.920  33.000   6.150
 8437POPC   GL265330  15.839  32.999   6.150
 8437POPC   C1A65331  15.982  33.068   6.450
 8437POPC   D2A65332  15.965  33.042   6.750
 8437POPC   C3A65333  15.978  32.979   7.050
 8437POPC   C4A65334  15.956  33.019   7.350
 8437POPC   C1B65335  15.730  33.007   6.450
 8437POPC   C2B65336  15.687  32.940   6.750
 8437POPC   C3B65337  15.720  33.001   7.050
 8437POPC   C4B65338  15.670  33.002   7.350
 8438POPC   NC365339  22.146  33.766   5.550
 8438POPC   PO465340  22.183  33.782   5.850
 8438POPC   GL165341  22.115  33.765   6.150
 8438POPC   GL265342  22.243  33.703   6.150
 8438POPC   C1A65343  22.118  33.756   6.450
 8438POPC   D2A65344  22.187  33.850   6.750
 8438POPC   C3A65345  22.124  33.831   7.050
 8438POPC   C4A65346  22.118  33.841   7.350
 8438POPC   C1B65347  22.372  33.672   6.450
 8438POPC   C2B65348  22.374  33.710   6.750
 8438POPC   C3B65349  22.407  33.699   7.050
 8438POPC   C4B65350  22.385  33.693   7.350
 8439POPC   NC365351  19.824  12.055   5.550
 8439POPC   PO465352  19.832  12.114   5.850
 8439POPC   GL165353  19.884  12.094   6.150
 8439POPC   GL265354  19.708  12.166   6.150
 8439POPC   C1A65355  19.848  12.032   6.450
 8439POPC   D2A65356  19.867  12.109   6.750
 8439POPC   C3A65357  19.805  12.078   7.050
 8439POPC   C4A65358  19.817  12.125   7.350
 8439POPC   C1B65359  19.670  12.216   6.450
 8439POPC   C2B65360  19.674  12.166   6.750
 8439POPC   C3B65361  19.578  12.217   7.050
 8439POPC   C4B65362  19.653  12.169   7.350
 8440POPC   NC365363  36.121  18.277   5.550
 8440POPC   PO465364  36.100  18.313   5.850
 8440POPC   GL165365  36.147  18.248   6.150
 8440POPC   GL265366  35.997  18.331   6.150
 8440POPC   C1A65367  36.114  18.285   6.450
 8440POPC   D2A65368  36.155  18.309   6.750
 8440POPC   C3A65369  36.113  18.243   7.050
 8440POPC   C4A65370  36.114  18.321   7.350
 8440POPC   C1B65371  35.981  18.420   6.450
 8440POPC   C2B65372  35.967  18.442   6.750
 8440POPC   C3B65373  36.006  18.507   7.050
 8440POPC   C4B65374  35.963  18.454   7.350
 8441POPC   NC365375  13.670  14.394   5.550
 8441POPC   PO465376  13.583  14.410   5.850
 8441POPC   GL165377  13.636  14.401   6.150
 8441POPC   GL265378  13.792  14.445   6.150
 8441POPC   C1A65379  13.641  14.376   6.450
 8441POPC   D2A65380  13.582  14.441   6.750
 8441POPC   C3A65381  13.607  14.433   7.050
 8441POPC   C4A65382  13.669  14.383   7.350
 8441POPC   C1B65383  13.887  14.529   6.450
 8441POPC   C2B65384  13.852  14.520   6.750
 8441POPC   C3B65385  13.821  14.491   7.050
 8441POPC   C4B65386  13.850  14.514   7.350
 8442POPC   NC365387  33.776  17.483   5.550
 8442POPC   PO465388  33.790  17.529   5.850
 8442POPC   GL165389  33.843  17.495   6.150
 8442POPC   GL265390  33.742  17.350   6.150
 8442POPC   C1A65391  33.832  17.512   6.450
 8442POPC   D2A65392  33.803  17.507   6.750
 8442POPC   C3A65393  33.786  17.548   7.050
 8442POPC   C4A65394  33.782  17.479   7.350
 8442POPC   C1B65395  33.751  17.287   6.450
 8442POPC   C2B65396  33.765  17.258   6.750
 8442POPC   C3B65397  33.735  17.293   7.050
 8442POPC   C4B65398  33.705  17.293   7.350
 8443POPC   NC365399  17.464  26.060   5.550
 8443POPC   PO465400  17.483  26.027   5.850
 8443POPC   GL165401  17.465  26.026   6.150
 8443POPC   GL265402  17.445  25.952   6.150
 8443POPC   C1A65403  17.527  26.076   6.450
 8443POPC   D2A65404  17.492  26.072   6.750
 8443POPC   C3A65405  17.479  26.033   7.050
 8443POPC   C4A65406  17.494  26.037   7.350
 8443POPC   C1B65407  17.386  25.833   6.450
 8443POPC   C2B65408  17.411  25.871   6.750
 8443POPC   C3B65409  17.359  25.814   7.050
 8443POPC   C4B65410  17.378  25.780   7.350
 8444POPC   NC365411   8.220   9.764   5.550
 8444POPC   PO465412   8.202   9.778   5.850
 8444POPC   GL165413   8.210   9.746   6.150
 8444POPC   GL265414   8.026   9.707   6.150
 8444POPC   C1A65415   8.154   9.722   6.450
 8444POPC   D2A65416   8.202   9.707   6.750
 8444POPC   C3A65417   8.217   9.798   7.050
 8444POPC   C4A65418   8.224   9.779   7.350
 8444POPC   C1B65419   7.901   9.686   6.450
 8444POPC   C2B65420   7.897   9.747   6.750
 8444POPC   C3B65421   7.927   9.700   7.050
 8444POPC   C4B65422   7.994   9.759   7.350
 8445POPC   NC365423   0.425   4.303   5.550
 8445POPC   PO465424   0.456   4.304   5.850
 8445POPC   GL165425   0.392   4.333   6.150
 8445POPC   GL265426   0.351   4.275   6.150
 8445POPC   C1A65427   0.481   4.277   6.450
 8445POPC   D2A65428   0.434   4.290   6.750
 8445POPC   C3A65429   0.402   4.344   7.050
 8445POPC   C4A65430   0.411   4.312   7.350
 8445POPC   C1B65431   0.167   4.275   6.450
 8445POPC   C2B65432   0.230   4.264   6.750
 8445POPC   C3B65433   0.253   4.241   7.050
 8445POPC   C4B65434   0.242   4.261   7.350
 8446POPC   NC365435  22.985   3.562   5.550
 8446POPC   PO465436  22.904   3.570   5.850
 8446POPC   GL165437  22.977   3.591   6.150
 8446POPC   GL265438  22.984   3.647   6.150
 8446POPC   C1A65439  22.905   3.569   6.450
 8446POPC   D2A65440  22.916   3.523   6.750
 8446POPC   C3A65441  22.946   3.516   7.050
 8446POPC   C4A65442  22.948   3.557   7.350
 8446POPC   C1B65443  23.018   3.743   6.450
 8446POPC   C2B65444  23.072   3.813   6.750
 8446POPC   C3B65445  23.023   3.748   7.050
 8446POPC   C4B65446  23.064   3.773   7.350
 8447POPC   NC365447  13.641  19.047   5.550
 8447POPC   PO465448  13.675  19.074   5.850
 8447POPC   GL165449  13.602  19.013   6.150
 8447POPC   GL265450  13.541  18.985   6.150
 8447POPC   C1A65451  13.583  19.054   6.450
 8447POPC   D2A65452  13.581  19.090   6.750
 8447POPC   C3A65453  13.647  19.021   7.050
 8447POPC   C4A65454  13.623  19.090   7.350
 8447POPC   C1B65455  13.402  18.985   6.450
 8447POPC   C2B65456  13.374  18.955   6.750
 8447POPC   C3B65457  13.375  18.968   7.050
 8447POPC   C4B65458  13.425  18.932   7.350
 8448POPC   NC365459  15.172  37.649   5.550
 8448POPC   PO465460  15.221  37.707   5.850
 8448POPC   GL165461  15.192  37.655   6.150
 8448POPC   GL265462  15.113  37.580   6.150
 8448POPC   C1A65463  15.227  37.714   6.450
 8448POPC   D2A65464  15.186  37.700   6.750
 8448POPC   C3A65465  15.206  37.696   7.050
 8448POPC   C4A65466  15.160  37.667   7.350
 8448POPC   C1B65467  15.056  37.420   6.450
 8448POPC   C2B65468  15.108  37.491   6.750
 8448POPC   C3B65469  15.101  37.486   7.050
 8448POPC   C4B65470  15.064  37.495   7.350
 8449POPC   NC365471  14.358  22.199   5.550
 8449POPC   PO465472  14.354  22.186   5.850
 8449POPC   GL165473  14.412  22.146   6.150
 8449POPC   GL265474  14.303  22.111   6.150
 8449POPC   C1A65475  14.364  22.112   6.450
 8449POPC   D2A65476  14.431  22.145   6.750
 8449POPC   C3A65477  14.453  22.116   7.050
 8449POPC   C4A65478  14.377  22.197   7.350
 8449POPC   C1B65479  14.196  22.165   6.450
 8449POPC   C2B65480  14.192  22.121   6.750
 8449POPC   C3B65481  14.152  22.166   7.050
 8449POPC   C4B65482  14.195  22.116   7.350
 8450POPC   NC365483  26.034  34.609   5.550
 8450POPC   PO465484  26.026  34.561   5.850
 8450POPC   GL165485  26.056  34.553   6.150
 8450POPC   GL265486  26.103  34.659   6.150
 8450POPC   C1A65487  26.050  34.611   6.450
 8450POPC   D2A65488  26.009  34.587   6.750
 8450POPC   C3A65489  26.067  34.555   7.050
 8450POPC   C4A65490  26.033  34.553   7.350
 8450POPC   C1B65491  26.070  34.867   6.450
 8450POPC   C2B65492  26.074  34.815   6.750
 8450POPC   C3B65493  26.116  34.833   7.050
 8450POPC   C4B65494  26.083  34.850   7.350
 8451POPC   NC365495   5.819  40.054   5.550
 8451POPC   PO465496   5.852  39.979   5.850
 8451POPC   GL165497   5.910  40.055   6.150
 8451POPC   GL265498   5.795  39.945   6.150
 8451POPC   C1A65499   5.826  40.023   6.450
 8451POPC   D2A65500   5.882  40.012   6.750
 8451POPC   C3A65501   5.895  40.050   7.050
 8451POPC   C4A65502   5.846  40.056   7.350
 8451POPC   C1B65503   5.644  39.951   6.450
 8451POPC   C2B65504   5.678  39.901   6.750
 8451POPC   C3B65505   5.621  39.902   7.050
 8451POPC   C4B65506   5.665  39.898   7.350
 8452POPC   NC365507  27.580   8.933   5.550
 8452POPC   PO465508  27.561   8.989   5.850
 8452POPC   GL165509  27.595   8.970   6.150
 8452POPC   GL265510  27.557   9.137   6.150
 8452POPC   C1A65511  27.620   8.951   6.450
 8452POPC   D2A65512  27.570   9.000   6.750
 8452POPC   C3A65513  27.633   9.005   7.050
 8452POPC   C4A65514  27.560   8.994   7.350
 8452POPC   C1B65515  27.604   9.238   6.450
 8452POPC   C2B65516  27.656   9.221   6.750
 8452POPC   C3B65517  27.625   9.199   7.050
 8452POPC   C4B65518  27.626   9.214   7.350
 8453POPC   NC365519   1.259  13.654   5.550
 8453POPC   PO465520   1.177  13.606   5.850
 8453POPC   GL165521   1.202  13.597   6.150
 8453POPC   GL265522   1.291  13.703   6.150
 8453POPC   C1A65523   1.180  13.648   6.450
 8453POPC   D2A65524   1.188  13.631   6.750
 8453POPC   C3A65525   1.225  13.612   7.050
 8453POPC   C4A65526   1.245  13.632   7.350
 8453POPC   C1B65527   1.465  13.727   6.450
 8453POPC   C2B65528   1.486  13.691   6.750
 8453POPC   C3B65529   1.483  13.726   7.050
 8453POPC   C4B65530   1.402  13.707   7.350
 8454POPC   NC365531  29.966  41.539   5.550
 8454POPC   PO465532  29.906  41.561   5.850
 8454POPC   GL165533  29.959  41.591   6.150
 8454POPC   GL265534  29.844  41.460   6.150
 8454POPC   C1A65535  29.970  41.604   6.450
 8454POPC   D2A65536  29.900  41.576   6.750
 8454POPC   C3A65537  29.963  41.555   7.050
 8454POPC   C4A65538  29.895  41.555   7.350
 8454POPC   C1B65539  29.716  41.397   6.450
 8454POPC   C2B65540  29.741  41.461   6.750
 8454POPC   C3B65541  29.664  41.431   7.050
 8454POPC   C4B65542  29.668  41.399   7.350
 8455POPC   NC365543  28.338  44.638   5.550
 8455POPC   PO465544  28.342  44.680   5.850
 8455POPC   GL165545  28.389  44.655   6.150
 8455POPC   GL265546  28.363  44.573   6.150
 8455POPC   C1A65547  28.373  44.665   6.450
 8455POPC   D2A65548  28.324  44.656   6.750
 8455POPC   C3A65549  28.363  44.633   7.050
 8455POPC   C4A65550  28.398  44.642   7.350
 8455POPC   C1B65551  28.446  44.406   6.450
 8455POPC   C2B65552  28.453  44.400   6.750
 8455POPC   C3B65553  28.450  44.375   7.050
 8455POPC   C4B65554  28.448  44.416   7.350
 8456POPC   NC365555   5.906  29.113   5.550
 8456POPC   PO465556   5.864  29.166   5.850
 8456POPC   GL165557   5.836  29.128   6.150
 8456POPC   GL265558   5.906  28.994   6.150
 8456POPC   C1A65559   5.900  29.194   6.450
 8456POPC   D2A65560   5.887  29.173   6.750
 8456POPC   C3A65561   5.825  29.117   7.050
 8456POPC   C4A65562   5.875  29.163   7.350
 8456POPC   C1B65563   5.878  28.901   6.450
 8456POPC   C2B65564   5.874  28.893   6.750
 8456POPC   C3B65565   5.916  28.887   7.050
 8456POPC   C4B65566   5.923  28.891   7.350
 8457POPC   NC365567   2.787   8.211   5.550
 8457POPC   PO465568   2.747   8.234   5.850
 8457POPC   GL165569   2.792   8.213   6.150
 8457POPC   GL265570   2.905   8.232   6.150
 8457POPC   C1A65571   2.813   8.221   6.450
 8457POPC   D2A65572   2.812   8.223   6.750
 8457POPC   C3A65573   2.721   8.209   7.050
 8457POPC   C4A65574   2.744   8.166   7.350
 8457POPC   C1B65575   2.991   8.217   6.450
 8457POPC   C2B65576   3.019   8.221   6.750
 8457POPC   C3B65577   2.996   8.183   7.050
 8457POPC   C4B65578   3.021   8.141   7.350
 8458POPC   NC365579  10.510   6.637   5.550
 8458POPC   PO465580  10.537   6.684   5.850
 8458POPC   GL165581  10.520   6.614   6.150
 8458POPC   GL265582  10.388   6.675   6.150
 8458POPC   C1A65583  10.499   6.610   6.450
 8458POPC   D2A65584  10.517   6.663   6.750
 8458POPC   C3A65585  10.514   6.686   7.050
 8458POPC   C4A65586  10.560   6.626   7.350
 8458POPC   C1B65587  10.316   6.691   6.450
 8458POPC   C2B65588  10.229   6.665   6.750
 8458POPC   C3B65589  10.253   6.630   7.050
 8458POPC   C4B65590  10.319   6.696   7.350
 8459POPC   NC365591  18.277   0.408   5.550
 8459POPC   PO465592  18.300   0.436   5.850
 8459POPC   GL165593  18.282   0.416   6.150
 8459POPC   GL265594  18.143   0.497   6.150
 8459POPC   C1A65595  18.250   0.395   6.450
 8459POPC   D2A65596  18.279   0.418   6.750
 8459POPC   C3A65597  18.285   0.446   7.050
 8459POPC   C4A65598  18.319   0.449   7.350
 8459POPC   C1B65599  18.060   0.613   6.450
 8459POPC   C2B65600  18.134   0.571   6.750
 8459POPC   C3B65601  18.146   0.593   7.050
 8459POPC   C4B65602  18.065   0.608   7.350
 8460POPC   NC365603  39.986  36.108   5.550
 8460POPC   PO465604  40.027  36.175   5.850
 8460POPC   GL165605  40.010  36.165   6.150
 8460POPC   GL265606  40.124  36.061   6.150
 8460POPC   C1A65607  40.043  36.104   6.450
 8460POPC   D2A65608  39.970  36.084   6.750
 8460POPC   C3A65609  39.993  36.149   7.050
 8460POPC   C4A65610  39.990  36.114   7.350
 8460POPC   C1B65611  40.151  35.898   6.450
 8460POPC   C2B65612  40.153  35.955   6.750
 8460POPC   C3B65613  40.131  35.948   7.050
 8460POPC   C4B65614  40.114  35.961   7.350
 8461POPC   NC365615  12.888  18.321   5.550
 8461POPC   PO465616  12.892  18.308   5.850
 8461POPC   GL165617  12.887  18.268   6.150
 8461POPC   GL265618  12.762  18.172   6.150
 8461POPC   C1A65619  12.818  18.277   6.450
 8461POPC   D2A65620  12.885  18.287   6.750
 8461POPC   C3A65621  12.861  18.327   7.050
 8461POPC   C4A65622  12.876  18.276   7.350
 8461POPC   C1B65623  12.680  18.158   6.450
 8461POPC   C2B65624  12.626  18.160   6.750
 8461POPC   C3B65625  12.663  18.124   7.050
 8461POPC   C4B65626  12.669  18.141   7.350
 8462POPC   NC365627   8.158   0.481   5.550
 8462POPC   PO465628   8.217   0.444   5.850
 8462POPC   GL165629   8.150   0.445   6.150
 8462POPC   GL265630   8.113   0.439   6.150
 8462POPC   C1A65631   8.190   0.450   6.450
 8462POPC   D2A65632   8.185   0.435   6.750
 8462POPC   C3A65633   8.175   0.460   7.050
 8462POPC   C4A65634   8.182   0.448   7.350
 8462POPC   C1B65635   8.012   0.318   6.450
 8462POPC   C2B65636   7.913   0.360   6.750
 8462POPC   C3B65637   7.924   0.369   7.050
 8462POPC   C4B65638   7.976   0.360   7.350
 8463POPC   NC365639  14.428  23.738   5.550
 8463POPC   PO465640  14.437  23.764   5.850
 8463POPC   GL165641  14.426  23.677   6.150
 8463POPC   GL265642  14.270  23.763   6.150
 8463POPC   C1A65643  14.382  23.752   6.450
 8463POPC   D2A65644  14.436  23.678   6.750
 8463POPC   C3A65645  14.397  23.740   7.050
 8463POPC   C4A65646  14.427  23.699   7.350
 8463POPC   C1B65647  14.131  23.732   6.450
 8463POPC   C2B65648  14.117  23.725   6.750
 8463POPC   C3B65649  14.109  23.789   7.050
 8463POPC   C4B65650  14.198  23.753   7.350
 8464POPC   NC365651   8.941  15.143   5.550
 8464POPC   PO465652   8.994  15.219   5.850
 8464POPC   GL165653   9.021  15.184   6.150
 8464POPC   GL265654   8.908  15.033   6.150
 8464POPC   C1A65655   8.937  15.223   6.450
 8464POPC   D2A65656   8.968  15.180   6.750
 8464POPC   C3A65657   8.925  15.214   7.050
 8464POPC   C4A65658   8.997  15.213   7.350
 8464POPC   C1B65659   8.838  14.952   6.450
 8464POPC   C2B65660   8.910  14.959   6.750
 8464POPC   C3B65661   8.859  14.910   7.050
 8464POPC   C4B65662   8.931  14.994   7.350
 8465POPC   NC365663  26.825  12.063   5.550
 8465POPC   PO465664  26.773  12.051   5.850
 8465POPC   GL165665  26.826  12.042   6.150
 8465POPC   GL265666  26.732  11.947   6.150
 8465POPC   C1A65667  26.816  12.097   6.450
 8465POPC   D2A65668  26.804  12.063   6.750
 8465POPC   C3A65669  26.777  12.120   7.050
 8465POPC   C4A65670  26.777  12.072   7.350
 8465POPC   C1B65671  26.621  11.910   6.450
 8465POPC   C2B65672  26.713  11.880   6.750
 8465POPC   C3B65673  26.617  11.875   7.050
 8465POPC   C4B65674  26.688  11.885   7.350
 8466POPC   NC365675  33.007  32.266   5.550
 8466POPC   PO465676  33.012  32.296   5.850
 8466POPC   GL165677  33.073  32.206   6.150
 8466POPC   GL265678  32.910  32.309   6.150
 8466POPC   C1A65679  32.994  32.257   6.450
 8466POPC   D2A65680  33.066  32.209   6.750
 8466POPC   C3A65681  32.987  32.288   7.050
 8466POPC   C4A65682  33.047  32.278   7.350
 8466POPC   C1B65683  32.789  32.383   6.450
 8466POPC   C2B65684  32.857  32.383   6.750
 8466POPC   C3B65685  32.790  32.427   7.050
 8466POPC   C4B65686  32.856  32.401   7.350
 8467POPC   NC365687   2.755  13.578   5.550
 8467POPC   PO465688   2.754  13.578   5.850
 8467POPC   GL165689   2.743  13.669   6.150
 8467POPC   GL265690   2.781  13.749   6.150
 8467POPC   C1A65691   2.736  13.646   6.450
 8467POPC   D2A65692   2.734  13.646   6.750
 8467POPC   C3A65693   2.759  13.618   7.050
 8467POPC   C4A65694   2.773  13.601   7.350
 8467POPC   C1B65695   2.884  13.860   6.450
 8467POPC   C2B65696   2.922  13.890   6.750
 8467POPC   C3B65697   2.899  13.857   7.050
 8467POPC   C4B65698   2.842  13.806   7.350
 8468POPC   NC365699   4.361  16.685   5.550
 8468POPC   PO465700   4.299  16.722   5.850
 8468POPC   GL165701   4.308  16.729   6.150
 8468POPC   GL265702   4.190  16.716   6.150
 8468POPC   C1A65703   4.337  16.684   6.450
 8468POPC   D2A65704   4.268  16.723   6.750
 8468POPC   C3A65705   4.290  16.690   7.050
 8468POPC   C4A65706   4.363  16.715   7.350
 8468POPC   C1B65707   4.043  16.643   6.450
 8468POPC   C2B65708   4.039  16.693   6.750
 8468POPC   C3B65709   4.090  16.674   7.050
 8468POPC   C4B65710   4.104  16.648   7.350
 8469POPC   NC365711  20.596  26.809   5.550
 8469POPC   PO465712  20.581  26.847   5.850
 8469POPC   GL165713  20.654  26.851   6.150
 8469POPC   GL265714  20.537  26.907   6.150
 8469POPC   C1A65715  20.642  26.781   6.450
 8469POPC   D2A65716  20.590  26.845   6.750
 8469POPC   C3A65717  20.585  26.863   7.050
 8469POPC   C4A65718  20.618  26.777   7.350
 8469POPC   C1B65719  20.367  26.979   6.450
 8469POPC   C2B65720  20.435  26.949   6.750
 8469POPC   C3B65721  20.385  26.977   7.050
 8469POPC   C4B65722  20.373  26.974   7.350
 8470POPC   NC365723  41.573  24.458   5.550
 8470POPC   PO465724  41.511  24.487   5.850
 8470POPC   GL165725  41.573  24.474   6.150
 8470POPC   GL265726  41.553  24.594   6.150
 8470POPC   C1A65727  41.524  24.507   6.450
 8470POPC   D2A65728  41.600  24.484   6.750
 8470POPC   C3A65729  41.557  24.516   7.050
 8470POPC   C4A65730  41.595  24.530   7.350
 8470POPC   C1B65731  41.632  24.694   6.450
 8470POPC   C2B65732  41.610  24.723   6.750
 8470POPC   C3B65733  41.614  24.747   7.050
 8470POPC   C4B65734  41.636  24.686   7.350
 8471POPC   NC365735  21.377  22.131   5.550
 8471POPC   PO465736  21.404  22.170   5.850
 8471POPC   GL165737  21.395  22.141   6.150
 8471POPC   GL265738  21.238  22.132   6.150
 8471POPC   C1A65739  21.400  22.145   6.450
 8471POPC   D2A65740  21.360  22.196   6.750
 8471POPC   C3A65741  21.411  22.155   7.050
 8471POPC   C4A65742  21.405  22.198   7.350
 8471POPC   C1B65743  21.121  22.196   6.450
 8471POPC   C2B65744  21.168  22.117   6.750
 8471POPC   C3B65745  21.129  22.189   7.050
 8471POPC   C4B65746  21.163  22.144   7.350
 8472POPC   NC365747  37.654   0.485   5.550
 8472POPC   PO465748  37.668   0.464   5.850
 8472POPC   GL165749  37.689   0.421   6.150
 8472POPC   GL265750  37.565   0.433   6.150
 8472POPC   C1A65751  37.664   0.402   6.450
 8472POPC   D2A65752  37.669   0.445   6.750
 8472POPC   C3A65753  37.724   0.436   7.050
 8472POPC   C4A65754  37.687   0.475   7.350
 8472POPC   C1B65755  37.410   0.414   6.450
 8472POPC   C2B65756  37.395   0.350   6.750
 8472POPC   C3B65757  37.391   0.390   7.050
 8472POPC   C4B65758  37.397   0.372   7.350
 8473POPC   NC365759  31.463  31.489   5.550
 8473POPC   PO465760  31.515  31.470   5.850
 8473POPC   GL165761  31.508  31.495   6.150
 8473POPC   GL265762  31.452  31.551   6.150
 8473POPC   C1A65763  31.432  31.473   6.450
 8473POPC   D2A65764  31.501  31.508   6.750
 8473POPC   C3A65765  31.439  31.461   7.050
 8473POPC   C4A65766  31.501  31.472   7.350
 8473POPC   C1B65767  31.459  31.732   6.450
 8473POPC   C2B65768  31.495  31.740   6.750
 8473POPC   C3B65769  31.501  31.724   7.050
 8473POPC   C4B65770  31.511  31.691   7.350
 8474POPC   NC365771  37.658   2.765   5.550
 8474POPC   PO465772  37.670   2.761   5.850
 8474POPC   GL165773  37.715   2.804   6.150
 8474POPC   GL265774  37.770   2.849   6.150
 8474POPC   C1A65775  37.669   2.723   6.450
 8474POPC   D2A65776  37.680   2.729   6.750
 8474POPC   C3A65777  37.682   2.756   7.050
 8474POPC   C4A65778  37.653   2.814   7.350
 8474POPC   C1B65779  37.904   2.919   6.450
 8474POPC   C2B65780  37.853   2.888   6.750
 8474POPC   C3B65781  37.907   2.928   7.050
 8474POPC   C4B65782  37.840   2.870   7.350
 8475POPC   NC365783  38.484  16.730   5.550
 8475POPC   PO465784  38.476  16.781   5.850
 8475POPC   GL165785  38.487  16.723   6.150
 8475POPC   GL265786  38.483  16.865   6.150
 8475POPC   C1A65787  38.444  16.730   6.450
 8475POPC   D2A65788  38.410  16.729   6.750
 8475POPC   C3A65789  38.458  16.684   7.050
 8475POPC   C4A65790  38.419  16.690   7.350
 8475POPC   C1B65791  38.507  16.993   6.450
 8475POPC   C2B65792  38.508  16.966   6.750
 8475POPC   C3B65793  38.536  16.929   7.050
 8475POPC   C4B65794  38.599  16.968   7.350
 8476POPC   NC365795  34.577  41.593   5.550
 8476POPC   PO465796  34.578  41.537   5.850
 8476POPC   GL165797  34.612  41.606   6.150
 8476POPC   GL265798  34.463  41.532   6.150
 8476POPC   C1A65799  34.558  41.535   6.450
 8476POPC   D2A65800  34.576  41.538   6.750
 8476POPC   C3A65801  34.531  41.512   7.050
 8476POPC   C4A65802  34.553  41.567   7.350
 8476POPC   C1B65803  34.325  41.588   6.450
 8476POPC   C2B65804  34.366  41.511   6.750
 8476POPC   C3B65805  34.359  41.536   7.050
 8476POPC   C4B65806  34.302  41.510   7.350
 8477POPC   NC365807  18.254   6.596   5.550
 8477POPC   PO465808  18.265   6.602   5.850
 8477POPC   GL165809  18.286   6.653   6.150
 8477POPC   GL265810  18.222   6.761   6.150
 8477POPC   C1A65811  18.284   6.645   6.450
 8477POPC   D2A65812  18.291   6.622   6.750
 8477POPC   C3A65813  18.317   6.643   7.050
 8477POPC   C4A65814  18.252   6.637   7.350
 8477POPC   C1B65815  18.180   6.805   6.450
 8477POPC   C2B65816  18.156   6.883   6.750
 8477POPC   C3B65817  18.172   6.859   7.050
 8477POPC   C4B65818  18.119   6.858   7.350
 8478POPC   NC365819  31.514   8.943   5.550
 8478POPC   PO465820  31.480   8.988   5.850
 8478POPC   GL165821  31.519   8.938   6.150
 8478POPC   GL265822  31.444   8.825   6.150
 8478POPC   C1A65823  31.520   8.935   6.450
 8478POPC   D2A65824  31.437   8.993   6.750
 8478POPC   C3A65825  31.423   8.932   7.050
 8478POPC   C4A65826  31.465   8.929   7.350
 8478POPC   C1B65827  31.370   8.773   6.450
 8478POPC   C2B65828  31.441   8.700   6.750
 8478POPC   C3B65829  31.387   8.777   7.050
 8478POPC   C4B65830  31.435   8.701   7.350
 8479POPC   NC365831   3.581   7.464   5.550
 8479POPC   PO465832   3.501   7.386   5.850
 8479POPC   GL165833   3.505   7.457   6.150
 8479POPC   GL265834   3.653   7.479   6.150
 8479POPC   C1A65835   3.591   7.414   6.450
 8479POPC   D2A65836   3.585   7.433   6.750
 8479POPC   C3A65837   3.580   7.470   7.050
 8479POPC   C4A65838   3.492   7.457   7.350
 8479POPC   C1B65839   3.778   7.500   6.450
 8479POPC   C2B65840   3.776   7.554   6.750
 8479POPC   C3B65841   3.789   7.475   7.050
 8479POPC   C4B65842   3.765   7.510   7.350
 8480POPC   NC365843  35.373   1.244   5.550
 8480POPC   PO465844  35.339   1.184   5.850
 8480POPC   GL165845  35.378   1.231   6.150
 8480POPC   GL265846  35.430   1.223   6.150
 8480POPC   C1A65847  35.331   1.167   6.450
 8480POPC   D2A65848  35.372   1.218   6.750
 8480POPC   C3A65849  35.338   1.260   7.050
 8480POPC   C4A65850  35.329   1.195   7.350
 8480POPC   C1B65851  35.643   1.215   6.450
 8480POPC   C2B65852  35.582   1.243   6.750
 8480POPC   C3B65853  35.610   1.158   7.050
 8480POPC   C4B65854  35.597   1.159   7.350
 8481POPC   NC365855  36.950  29.120   5.550
 8481POPC   PO465856  36.929  29.098   5.850
 8481POPC   GL165857  36.863  29.122   6.150
 8481POPC   GL265858  36.878  29.253   6.150
 8481POPC   C1A65859  36.889  29.096   6.450
 8481POPC   D2A65860  36.893  29.168   6.750
 8481POPC   C3A65861  36.908  29.100   7.050
 8481POPC   C4A65862  36.951  29.142   7.350
 8481POPC   C1B65863  36.922  29.384   6.450
 8481POPC   C2B65864  36.881  29.426   6.750
 8481POPC   C3B65865  36.914  29.362   7.050
 8481POPC   C4B65866  36.899  29.353   7.350
 8482POPC   NC365867   8.215  40.817   5.550
 8482POPC   PO465868   8.155  40.777   5.850
 8482POPC   GL165869   8.223  40.780   6.150
 8482POPC   GL265870   8.108  40.658   6.150
 8482POPC   C1A65871   8.188  40.806   6.450
 8482POPC   D2A65872   8.156  40.763   6.750
 8482POPC   C3A65873   8.201  40.787   7.050
 8482POPC   C4A65874   8.196  40.747   7.350
 8482POPC   C1B65875   8.005  40.608   6.450
 8482POPC   C2B65876   8.017  40.588   6.750
 8482POPC   C3B65877   8.060  40.590   7.050
 8482POPC   C4B65878   7.983  40.629   7.350
 8483POPC   NC365879   7.463  17.521   5.550
 8483POPC   PO465880   7.461  17.507   5.850
 8483POPC   GL165881   7.390  17.528   6.150
 8483POPC   GL265882   7.331  17.494   6.150
 8483POPC   C1A65883   7.434  17.531   6.450
 8483POPC   D2A65884   7.433  17.489   6.750
 8483POPC   C3A65885   7.421  17.492   7.050
 8483POPC   C4A65886   7.433  17.468   7.350
 8483POPC   C1B65887   7.151  17.575   6.450
 8483POPC   C2B65888   7.149  17.482   6.750
 8483POPC   C3B65889   7.198  17.502   7.050
 8483POPC   C4B65890   7.125  17.489   7.350
 8484POPC   NC365891  15.190  32.288   5.550
 8484POPC   PO465892  15.132  32.291   5.850
 8484POPC   GL165893  15.170  32.275   6.150
 8484POPC   GL265894  15.268  32.359   6.150
 8484POPC   C1A65895  15.211  32.266   6.450
 8484POPC   D2A65896  15.219  32.220   6.750
 8484POPC   C3A65897  15.219  32.221   7.050
 8484POPC   C4A65898  15.142  32.216   7.350
 8484POPC   C1B65899  15.344  32.439   6.450
 8484POPC   C2B65900  15.259  32.511   6.750
 8484POPC   C3B65901  15.331  32.432   7.050
 8484POPC   C4B65902  15.321  32.455   7.350
 8485POPC   NC365903  24.466  39.985   5.550
 8485POPC   PO465904  24.512  39.992   5.850
 8485POPC   GL165905  24.513  40.002   6.150
 8485POPC   GL265906  24.395  40.097   6.150
 8485POPC   C1A65907  24.463  40.034   6.450
 8485POPC   D2A65908  24.507  40.015   6.750
 8485POPC   C3A65909  24.484  39.976   7.050
 8485POPC   C4A65910  24.527  40.021   7.350
 8485POPC   C1B65911  24.294  40.204   6.450
 8485POPC   C2B65912  24.276  40.183   6.750
 8485POPC   C3B65913  24.322  40.187   7.050
 8485POPC   C4B65914  24.287  40.169   7.350
 8486POPC   NC365915   8.244   1.997   5.550
 8486POPC   PO465916   8.162   1.988   5.850
 8486POPC   GL165917   8.153   1.974   6.150
 8486POPC   GL265918   8.294   2.046   6.150
 8486POPC   C1A65919   8.242   2.027   6.450
 8486POPC   D2A65920   8.173   2.025   6.750
 8486POPC   C3A65921   8.204   1.970   7.050
 8486POPC   C4A65922   8.168   1.959   7.350
 8486POPC   C1B65923   8.371   2.109   6.450
 8486POPC   C2B65924   8.434   2.130   6.750
 8486POPC   C3B65925   8.444   2.131   7.050
 8486POPC   C4B65926   8.393   2.156   7.350
 8487POPC   NC365927  24.532  19.869   5.550
 8487POPC   PO465928  24.535  19.830   5.850
 8487POPC   GL165929  24.477  19.805   6.150
 8487POPC   GL265930  24.432  19.926   6.150
 8487POPC   C1A65931  24.510  19.884   6.450
 8487POPC   D2A65932  24.522  19.835   6.750
 8487POPC   C3A65933  24.445  19.791   7.050
 8487POPC   C4A65934  24.469  19.789   7.350
 8487POPC   C1B65935  24.271  20.023   6.450
 8487POPC   C2B65936  24.356  20.042   6.750
 8487POPC   C3B65937  24.346  20.031   7.050
 8487POPC   C4B65938  24.299  20.018   7.350
 8488POPC   NC365939  38.435   5.860   5.550
 8488POPC   PO465940  38.495   5.856   5.850
 8488POPC   GL165941  38.466   5.821   6.150
 8488POPC   GL265942  38.544   5.853   6.150
 8488POPC   C1A65943  38.425   5.855   6.450
 8488POPC   D2A65944  38.419   5.847   6.750
 8488POPC   C3A65945  38.412   5.865   7.050
 8488POPC   C4A65946  38.473   5.880   7.350
 8488POPC   C1B65947  38.681   5.820   6.450
 8488POPC   C2B65948  38.695   5.807   6.750
 8488POPC   C3B65949  38.744   5.794   7.050
 8488POPC   C4B65950  38.672   5.882   7.350
 8489POPC   NC365951  30.655   4.366   5.550
 8489POPC   PO465952  30.686   4.310   5.850
 8489POPC   GL165953  30.744   4.269   6.150
 8489POPC   GL265954  30.830   4.237   6.150
 8489POPC   C1A65955  30.739   4.286   6.450
 8489POPC   D2A65956  30.702   4.361   6.750
 8489POPC   C3A65957  30.716   4.320   7.050
 8489POPC   C4A65958  30.710   4.358   7.350
 8489POPC   C1B65959  30.954   4.226   6.450
 8489POPC   C2B65960  30.866   4.188   6.750
 8489POPC   C3B65961  30.903   4.157   7.050
 8489POPC   C4B65962  30.895   4.216   7.350
 8490POPC   NC365963  11.349  19.880   5.550
 8490POPC   PO465964  11.261  19.876   5.850
 8490POPC   GL165965  11.336  19.816   6.150
 8490POPC   GL265966  11.273  19.965   6.150
 8490POPC   C1A65967  11.332  19.861   6.450
 8490POPC   D2A65968  11.329  19.814   6.750
 8490POPC   C3A65969  11.322  19.836   7.050
 8490POPC   C4A65970  11.278  19.866   7.350
 8490POPC   C1B65971  11.326  20.081   6.450
 8490POPC   C2B65972  11.261  20.132   6.750
 8490POPC   C3B65973  11.333  20.101   7.050
 8490POPC   C4B65974  11.263  20.063   7.350
 8491POPC   NC365975   8.213  36.916   5.550
 8491POPC   PO465976   8.196  36.894   5.850
 8491POPC   GL165977   8.151  36.909   6.150
 8491POPC   GL265978   8.272  37.014   6.150
 8491POPC   C1A65979   8.175  36.939   6.450
 8491POPC   D2A65980   8.163  36.928   6.750
 8491POPC   C3A65981   8.180  36.874   7.050
 8491POPC   C4A65982   8.224  36.927   7.350
 8491POPC   C1B65983   8.405  37.044   6.450
 8491POPC   C2B65984   8.403  37.032   6.750
 8491POPC   C3B65985   8.433  37.046   7.050
 8491POPC   C4B65986   8.431  37.077   7.350
 8492POPC   NC365987   1.998  10.533   5.550
 8492POPC   PO465988   1.961  10.497   5.850
 8492POPC   GL165989   2.000  10.524   6.150
 8492POPC   GL265990   1.850  10.591   6.150
 8492POPC   C1A65991   1.990  10.551   6.450
 8492POPC   D2A65992   1.965  10.524   6.750
 8492POPC   C3A65993   2.032  10.509   7.050
 8492POPC   C4A65994   1.989  10.496   7.350
 8492POPC   C1B65995   1.784  10.557   6.450
 8492POPC   C2B65996   1.792  10.573   6.750
 8492POPC   C3B65997   1.779  10.532   7.050
 8492POPC   C4B65998   1.739  10.556   7.350
 8493POPC   NC365999   5.085   5.086   5.550
 8493POPC   PO466000   5.078   5.132   5.850
 8493POPC   GL166001   5.060   5.124   6.150
 8493POPC   GL266002   5.031   4.996   6.150
 8493POPC   C1A66003   5.123   5.088   6.450
 8493POPC   D2A66004   5.056   5.097   6.750
 8493POPC   C3A66005   5.089   5.103   7.050
 8493POPC   C4A66006   5.072   5.074   7.350
 8493POPC   C1B66007   5.036   4.877   6.450
 8493POPC   C2B66008   5.053   4.805   6.750
 8493POPC   C3B66009   5.038   4.820   7.050
 8493POPC   C4B66010   5.088   4.842   7.350
 8494POPC   NC366011  43.089  22.121   5.550
 8494POPC   PO466012  43.100  22.135   5.850
 8494POPC   GL166013  43.154  22.172   6.150
 8494POPC   GL266014  42.939  22.126   6.150
 8494POPC   C1A66015  43.147  22.155   6.450
 8494POPC   D2A66016  43.101  22.119   6.750
 8494POPC   C3A66017  43.089  22.192   7.050
 8494POPC   C4A66018  43.139  22.199   7.350
 8494POPC   C1B66019  42.834  22.203   6.450
 8494POPC   C2B66020  42.869  22.199   6.750
 8494POPC   C3B66021  42.866  22.196   7.050
 8494POPC   C4B66022  42.868  22.132   7.350
 8495POPC   NC366023  41.554  15.203   5.550
 8495POPC   PO466024  41.588  15.164   5.850
 8495POPC   GL166025  41.533  15.171   6.150
 8495POPC   GL266026  41.489  15.148   6.150
 8495POPC   C1A66027  41.594  15.143   6.450
 8495POPC   D2A66028  41.519  15.142   6.750
 8495POPC   C3A66029  41.553  15.176   7.050
 8495POPC   C4A66030  41.608  15.147   7.350
 8495POPC   C1B66031  41.359  15.060   6.450
 8495POPC   C2B66032  41.353  15.078   6.750
 8495POPC   C3B66033  41.388  15.072   7.050
 8495POPC   C4B66034  41.344  15.066   7.350
 8496POPC   NC366035  41.574  40.044   5.550
 8496POPC   PO466036  41.603  39.968   5.850
 8496POPC   GL166037  41.534  39.983   6.150
 8496POPC   GL266038  41.671  40.125   6.150
 8496POPC   C1A66039  41.565  40.047   6.450
 8496POPC   D2A66040  41.565  40.005   6.750
 8496POPC   C3A66041  41.557  40.017   7.050
 8496POPC   C4A66042  41.578  39.991   7.350
 8496POPC   C1B66043  41.738  40.188   6.450
 8496POPC   C2B66044  41.726  40.217   6.750
 8496POPC   C3B66045  41.768  40.229   7.050
 8496POPC   C4B66046  41.688  40.198   7.350
 8497POPC   NC366047  35.329  26.795   5.550
 8497POPC   PO466048  35.347  26.844   5.850
 8497POPC   GL166049  35.347  26.860   6.150
 8497POPC   GL266050  35.377  26.664   6.150
 8497POPC   C1A66051  35.327  26.817   6.450
 8497POPC   D2A66052  35.312  26.828   6.750
 8497POPC   C3A66053  35.372  26.836   7.050
 8497POPC   C4A66054  35.311  26.844   7.350
 8497POPC   C1B66055  35.369  26.606   6.450
 8497POPC   C2B66056  35.296  26.570   6.750
 8497POPC   C3B66057  35.361  26.610   7.050
 8497POPC   C4B66058  35.289  26.577   7.350
 8498POPC   NC366059   0.405   6.630   5.550
 8498POPC   PO466060   0.458   6.618   5.850
 8498POPC   GL166061   0.474   6.620   6.150
 8498POPC   GL266062   0.368   6.798   6.150
 8498POPC   C1A66063   0.472   6.631   6.450
 8498POPC   D2A66064   0.443   6.649   6.750
 8498POPC   C3A66065   0.450   6.597   7.050
 8498POPC   C4A66066   0.461   6.624   7.350
 8498POPC   C1B66067   0.417   6.855   6.450
 8498POPC   C2B66068   0.400   6.905   6.750
 8498POPC   C3B66069   0.337   6.879   7.050
 8498POPC   C4B66070   0.352   6.925   7.350
 8499POPC   NC366071  39.235   1.196   5.550
 8499POPC   PO466072  39.211   1.227   5.850
 8499POPC   GL166073  39.185   1.182   6.150
 8499POPC   GL266074  39.180   1.253   6.150
 8499POPC   C1A66075  39.242   1.252   6.450
 8499POPC   D2A66076  39.258   1.209   6.750
 8499POPC   C3A66077  39.203   1.177   7.050
 8499POPC   C4A66078  39.271   1.245   7.350
 8499POPC   C1B66079  39.012   1.349   6.450
 8499POPC   C2B66080  39.070   1.347   6.750
 8499POPC   C3B66081  39.034   1.367   7.050
 8499POPC   C4B66082  39.049   1.374   7.350
 8500POPC   NC366083  23.733  41.526   5.550
 8500POPC   PO466084  23.758  41.545   5.850
 8500POPC   GL166085  23.708  41.569   6.150
 8500POPC   GL266086  23.792  41.625   6.150
 8500POPC   C1A66087  23.670  41.578   6.450
 8500POPC   D2A66088  23.679  41.582   6.750
 8500POPC   C3A66089  23.687  41.595   7.050
 8500POPC   C4A66090  23.680  41.576   7.350
 8500POPC   C1B66091  23.974  41.660   6.450
 8500POPC   C2B66092  24.006  41.664   6.750
 8500POPC   C3B66093  23.927  41.645   7.050
 8500POPC   C4B66094  23.994  41.622   7.350
 8501POPC   NC366095  11.284  15.919   5.550
 8501POPC   PO466096  11.325  15.959   5.850
 8501POPC   GL166097  11.325  15.909   6.150
 8501POPC   GL266098  11.272  15.821   6.150
 8501POPC   C1A66099  11.349  15.915   6.450
 8501POPC   D2A66100  11.335  15.966   6.750
 8501POPC   C3A66101  11.286  15.923   7.050
 8501POPC   C4A66102  11.312  16.004   7.350
 8501POPC   C1B66103  11.347  15.663   6.450
 8501POPC   C2B66104  11.326  15.689   6.750
 8501POPC   C3B66105  11.289  15.700   7.050
 8501POPC   C4B66106  11.263  15.731   7.350
 8502POPC   NC366107  14.433  40.783   5.550
 8502POPC   PO466108  14.367  40.741   5.850
 8502POPC   GL166109  14.381  40.822   6.150
 8502POPC   GL266110  14.434  40.729   6.150
 8502POPC   C1A66111  14.382  40.796   6.450
 8502POPC   D2A66112  14.409  40.766   6.750
 8502POPC   C3A66113  14.355  40.765   7.050
 8502POPC   C4A66114  14.359  40.757   7.350
 8502POPC   C1B66115  14.501  40.573   6.450
 8502POPC   C2B66116  14.563  40.540   6.750
 8502POPC   C3B66117  14.541  40.626   7.050
 8502POPC   C4B66118  14.564  40.543   7.350
 8503POPC   NC366119  22.169  13.597   5.550
 8503POPC   PO466120  22.155  13.637   5.850
 8503POPC   GL166121  22.116  13.635   6.150
 8503POPC   GL266122  22.141  13.520   6.150
 8503POPC   C1A66123  22.137  13.619   6.450
 8503POPC   D2A66124  22.198  13.660   6.750
 8503POPC   C3A66125  22.185  13.610   7.050
 8503POPC   C4A66126  22.160  13.636   7.350
 8503POPC   C1B66127  22.165  13.385   6.450
 8503POPC   C2B66128  22.175  13.367   6.750
 8503POPC   C3B66129  22.138  13.414   7.050
 8503POPC   C4B66130  22.146  13.384   7.350
 8504POPC   NC366131  25.227  40.007   5.550
 8504POPC   PO466132  25.244  40.020   5.850
 8504POPC   GL166133  25.292  39.993   6.150
 8504POPC   GL266134  25.220  39.871   6.150
 8504POPC   C1A66135  25.301  39.967   6.450
 8504POPC   D2A66136  25.277  40.034   6.750
 8504POPC   C3A66137  25.309  39.985   7.050
 8504POPC   C4A66138  25.306  39.992   7.350
 8504POPC   C1B66139  25.186  39.743   6.450
 8504POPC   C2B66140  25.211  39.728   6.750
 8504POPC   C3B66141  25.200  39.759   7.050
 8504POPC   C4B66142  25.233  39.737   7.350
 8505POPC   NC366143   1.258  10.555   5.550
 8505POPC   PO466144   1.253  10.478   5.850
 8505POPC   GL166145   1.205  10.542   6.150
 8505POPC   GL266146   1.094  10.519   6.150
 8505POPC   C1A66147   1.180  10.551   6.450
 8505POPC   D2A66148   1.191  10.517   6.750
 8505POPC   C3A66149   1.256  10.543   7.050
 8505POPC   C4A66150   1.200  10.504   7.350
 8505POPC   C1B66151   0.926  10.619   6.450
 8505POPC   C2B66152   0.966  10.622   6.750
 8505POPC   C3B66153   0.963  10.599   7.050
 8505POPC   C4B66154   0.954  10.590   7.350
 8506POPC   NC366155  12.896   1.251   5.550
 8506POPC   PO466156  12.885   1.182   5.850
 8506POPC   GL166157  12.896   1.242   6.150
 8506POPC   GL266158  12.932   1.307   6.150
 8506POPC   C1A66159  12.849   1.243   6.450
 8506POPC   D2A66160  12.827   1.196   6.750
 8506POPC   C3A66161  12.896   1.248   7.050
 8506POPC   C4A66162  12.883   1.213   7.350
 8506POPC   C1B66163  13.061   1.326   6.450
 8506POPC   C2B66164  13.069   1.334   6.750
 8506POPC   C3B66165  13.099   1.314   7.050
 8506POPC   C4B66166  13.075   1.346   7.350
 8507POPC   NC366167   1.218  12.866   5.550
 8507POPC   PO466168   1.235  12.869   5.850
 8507POPC   GL166169   1.263  12.891   6.150
 8507POPC   GL266170   1.159  12.762   6.150
 8507POPC   C1A66171   1.185  12.838   6.450
 8507POPC   D2A66172   1.229  12.809   6.750
 8507POPC   C3A66173   1.221  12.888   7.050
 8507POPC   C4A66174   1.177  12.845   7.350
 8507POPC   C1B66175   0.972  12.719   6.450
 8507POPC   C2B66176   1.035  12.685   6.750
 8507POPC   C3B66177   0.982  12.692   7.050
 8507POPC   C4B66178   1.036  12.663   7.350
 8508POPC   NC366179  34.593   6.626   5.550
 8508POPC   PO466180  34.596   6.631   5.850
 8508POPC   GL166181  34.553   6.670   6.150
 8508POPC   GL266182  34.405   6.654   6.150
 8508POPC   C1A66183  34.597   6.637   6.450
 8508POPC   D2A66184  34.542   6.628   6.750
 8508POPC   C3A66185  34.594   6.668   7.050
 8508POPC   C4A66186  34.548   6.619   7.350
 8508POPC   C1B66187  34.323   6.630   6.450
 8508POPC   C2B66188  34.334   6.594   6.750
 8508POPC   C3B66189  34.334   6.578   7.050
 8508POPC   C4B66190  34.361   6.606   7.350
 8509POPC   NC366191   5.054  17.491   5.550
 8509POPC   PO466192   5.102  17.506   5.850
 8509POPC   GL166193   5.108  17.475   6.150
 8509POPC   GL266194   5.015  17.599   6.150
 8509POPC   C1A66195   5.134  17.554   6.450
 8509POPC   D2A66196   5.045  17.469   6.750
 8509POPC   C3A66197   5.089  17.538   7.050
 8509POPC   C4A66198   5.049  17.546   7.350
 8509POPC   C1B66199   4.884  17.645   6.450
 8509POPC   C2B66200   4.853  17.638   6.750
 8509POPC   C3B66201   4.905  17.684   7.050
 8509POPC   C4B66202   4.923  17.640   7.350
 8510POPC   NC366203  19.874  43.131   5.550
 8510POPC   PO466204  19.799  43.129   5.850
 8510POPC   GL166205  19.833  43.152   6.150
 8510POPC   GL266206  19.812  43.001   6.150
 8510POPC   C1A66207  19.853  43.153   6.450
 8510POPC   D2A66208  19.828  43.104   6.750
 8510POPC   C3A66209  19.802  43.124   7.050
 8510POPC   C4A66210  19.818  43.130   7.350
 8510POPC   C1B66211  19.874  42.884   6.450
 8510POPC   C2B66212  19.859  42.903   6.750
 8510POPC   C3B66213  19.841  42.820   7.050
 8510POPC   C4B66214  19.831  42.835   7.350
 8511POPC   NC366215  13.612  10.485   5.550
 8511POPC   PO466216  13.620  10.509   5.850
 8511POPC   GL166217  13.585  10.504   6.150
 8511POPC   GL266218  13.714  10.647   6.150
 8511POPC   C1A66219  13.580  10.507   6.450
 8511POPC   D2A66220  13.671  10.495   6.750
 8511POPC   C3A66221  13.658  10.541   7.050
 8511POPC   C4A66222  13.650  10.574   7.350
 8511POPC   C1B66223  13.845  10.643   6.450
 8511POPC   C2B66224  13.847  10.711   6.750
 8511POPC   C3B66225  13.832  10.652   7.050
 8511POPC   C4B66226  13.818  10.722   7.350
 8512POPC   NC366227   6.678  15.975   5.550
 8512POPC   PO466228   6.647  15.968   5.850
 8512POPC   GL166229   6.602  15.972   6.150
 8512POPC   GL266230   6.507  15.989   6.150
 8512POPC   C1A66231   6.687  15.960   6.450
 8512POPC   D2A66232   6.653  15.999   6.750
 8512POPC   C3A66233   6.607  15.986   7.050
 8512POPC   C4A66234   6.674  15.982   7.350
 8512POPC   C1B66235   6.427  16.006   6.450
 8512POPC   C2B66236   6.395  15.996   6.750
 8512POPC   C3B66237   6.358  16.046   7.050
 8512POPC   C4B66238   6.372  15.992   7.350
 8513POPC   NC366239  17.473  15.166   5.550
 8513POPC   PO466240  17.498  15.214   5.850
 8513POPC   GL166241  17.504  15.214   6.150
 8513POPC   GL266242  17.439  15.309   6.150
 8513POPC   C1A66243  17.482  15.195   6.450
 8513POPC   D2A66244  17.495  15.175   6.750
 8513POPC   C3A66245  17.480  15.196   7.050
 8513POPC   C4A66246  17.473  15.152   7.350
 8513POPC   C1B66247  17.360  15.443   6.450
 8513POPC   C2B66248  17.400  15.356   6.750
 8513POPC   C3B66249  17.427  15.429   7.050
 8513POPC   C4B66250  17.420  15.449   7.350
 8514POPC   NC366251  22.955  13.618   5.550
 8514POPC   PO466252  22.986  13.674   5.850
 8514POPC   GL166253  22.974  13.588   6.150
 8514POPC   GL266254  23.044  13.633   6.150
 8514POPC   C1A66255  22.953  13.637   6.450
 8514POPC   D2A66256  22.898  13.611   6.750
 8514POPC   C3A66257  22.930  13.628   7.050
 8514POPC   C4A66258  22.971  13.632   7.350
 8514POPC   C1B66259  23.183  13.700   6.450
 8514POPC   C2B66260  23.180  13.684   6.750
 8514POPC   C3B66261  23.192  13.694   7.050
 8514POPC   C4B66262  23.162  13.716   7.350
 8515POPC   NC366263  23.691  42.318   5.550
 8515POPC   PO466264  23.741  42.361   5.850
 8515POPC   GL166265  23.738  42.309   6.150
 8515POPC   GL266266  23.794  42.325   6.150
 8515POPC   C1A66267  23.723  42.373   6.450
 8515POPC   D2A66268  23.738  42.292   6.750
 8515POPC   C3A66269  23.710  42.287   7.050
 8515POPC   C4A66270  23.696  42.297   7.350
 8515POPC   C1B66271  23.908  42.452   6.450
 8515POPC   C2B66272  23.981  42.454   6.750
 8515POPC   C3B66273  23.993  42.389   7.050
 8515POPC   C4B66274  23.968  42.371   7.350
 8516POPC   NC366275  33.813  24.497   5.550
 8516POPC   PO466276  33.790  24.444   5.850
 8516POPC   GL166277  33.828  24.444   6.150
 8516POPC   GL266278  33.925  24.378   6.150
 8516POPC   C1A66279  33.764  24.534   6.450
 8516POPC   D2A66280  33.825  24.473   6.750
 8516POPC   C3A66281  33.841  24.492   7.050
 8516POPC   C4A66282  33.821  24.500   7.350
 8516POPC   C1B66283  33.965  24.269   6.450
 8516POPC   C2B66284  33.992  24.293   6.750
 8516POPC   C3B66285  33.998  24.241   7.050
 8516POPC   C4B66286  33.945  24.337   7.350
 8517POPC   NC366287   8.174   6.677   5.550
 8517POPC   PO466288   8.172   6.646   5.850
 8517POPC   GL166289   8.235   6.645   6.150
 8517POPC   GL266290   8.061   6.546   6.150
 8517POPC   C1A66291   8.192   6.690   6.450
 8517POPC   D2A66292   8.178   6.666   6.750
 8517POPC   C3A66293   8.162   6.626   7.050
 8517POPC   C4A66294   8.173   6.607   7.350
 8517POPC   C1B66295   8.036   6.482   6.450
 8517POPC   C2B66296   8.013   6.451   6.750
 8517POPC   C3B66297   8.067   6.421   7.050
 8517POPC   C4B66298   8.011   6.500   7.350
 8518POPC   NC366299  27.559  22.913   5.550
 8518POPC   PO466300  27.630  22.971   5.850
 8518POPC   GL166301  27.642  22.897   6.150
 8518POPC   GL266302  27.725  22.966   6.150
 8518POPC   C1A66303  27.606  22.912   6.450
 8518POPC   D2A66304  27.579  22.940   6.750
 8518POPC   C3A66305  27.583  22.940   7.050
 8518POPC   C4A66306  27.546  22.909   7.350
 8518POPC   C1B66307  27.795  23.001   6.450
 8518POPC   C2B66308  27.791  23.019   6.750
 8518POPC   C3B66309  27.876  22.995   7.050
 8518POPC   C4B66310  27.834  22.941   7.350
 8519POPC   NC366311   7.449  38.482   5.550
 8519POPC   PO466312   7.374  38.490   5.850
 8519POPC   GL166313   7.376  38.492   6.150
 8519POPC   GL266314   7.424  38.607   6.150
 8519POPC   C1A66315   7.462  38.455   6.450
 8519POPC   D2A66316   7.402  38.445   6.750
 8519POPC   C3A66317   7.386  38.485   7.050
 8519POPC   C4A66318   7.433  38.494   7.350
 8519POPC   C1B66319   7.330  38.716   6.450
 8519POPC   C2B66320   7.407  38.698   6.750
 8519POPC   C3B66321   7.361  38.665   7.050
 8519POPC   C4B66322   7.361  38.706   7.350
 8520POPC   NC366323  14.364   0.485   5.550
 8520POPC   PO466324  14.408   0.462   5.850
 8520POPC   GL166325  14.354   0.393   6.150
 8520POPC   GL266326  14.426   0.607   6.150
 8520POPC   C1A66327  14.356   0.483   6.450
 8520POPC   D2A66328  14.408   0.457   6.750
 8520POPC   C3A66329  14.448   0.413   7.050
 8520POPC   C4A66330  14.449   0.468   7.350
 8520POPC   C1B66331  14.394   0.712   6.450
 8520POPC   C2B66332  14.408   0.710   6.750
 8520POPC   C3B66333  14.396   0.701   7.050
 8520POPC   C4B66334  14.349   0.732   7.350
 8521POPC   NC366335  13.659  43.917   5.550
 8521POPC   PO466336  13.594  43.847   5.850
 8521POPC   GL166337  13.663  43.908   6.150
 8521POPC   GL266338  13.799  43.912   6.150
 8521POPC   C1A66339  13.618  43.870   6.450
 8521POPC   D2A66340  13.624  43.899   6.750
 8521POPC   C3A66341  13.591  43.921   7.050
 8521POPC   C4A66342  13.623  43.863   7.350
 8521POPC   C1B66343  13.827  43.887   6.450
 8521POPC   C2B66344  13.922  43.820   6.750
 8521POPC   C3B66345  13.865  43.830   7.050
 8521POPC   C4B66346  13.838  43.873   7.350
 8522POPC   NC366347  41.578  38.447   5.550
 8522POPC   PO466348  41.555  38.455   5.850
 8522POPC   GL166349  41.581  38.445   6.150
 8522POPC   GL266350  41.598  38.535   6.150
 8522POPC   C1A66351  41.521  38.419   6.450
 8522POPC   D2A66352  41.534  38.490   6.750
 8522POPC   C3A66353  41.608  38.409   7.050
 8522POPC   C4A66354  41.548  38.477   7.350
 8522POPC   C1B66355  41.649  38.694   6.450
 8522POPC   C2B66356  41.665  38.629   6.750
 8522POPC   C3B66357  41.725  38.660   7.050
 8522POPC   C4B66358  41.698  38.645   7.350
 8523POPC   NC366359  29.886  12.853   5.550
 8523POPC   PO466360  29.952  12.807   5.850
 8523POPC   GL166361  29.957  12.817   6.150
 8523POPC   GL266362  29.980  12.760   6.150
 8523POPC   C1A66363  29.929  12.880   6.450
 8523POPC   D2A66364  29.890  12.822   6.750
 8523POPC   C3A66365  29.892  12.860   7.050
 8523POPC   C4A66366  29.884  12.814   7.350
 8523POPC   C1B66367  30.174  12.670   6.450
 8523POPC   C2B66368  30.115  12.762   6.750
 8523POPC   C3B66369  30.170  12.699   7.050
 8523POPC   C4B66370  30.129  12.760   7.350
 8524POPC   NC366371  42.317   8.990   5.550
 8524POPC   PO466372  42.347   8.946   5.850
 8524POPC   GL166373  42.295   8.929   6.150
 8524POPC   GL266374  42.421   8.873   6.150
 8524POPC   C1A66375  42.338   8.931   6.450
 8524POPC   D2A66376  42.293   8.943   6.750
 8524POPC   C3A66377  42.365   8.988   7.050
 8524POPC   C4A66378  42.301   8.932   7.350
 8524POPC   C1B66379  42.449   8.784   6.450
 8524POPC   C2B66380  42.483   8.769   6.750
 8524POPC   C3B66381  42.465   8.705   7.050
 8524POPC   C4B66382  42.395   8.789   7.350
 8525POPC   NC366383  44.704  31.457   5.550
 8525POPC   PO466384  44.670  31.511   5.850
 8525POPC   GL166385  44.637  31.471   6.150
 8525POPC   GL266386  44.599  31.377   6.150
 8525POPC   C1A66387  44.702  31.511   6.450
 8525POPC   D2A66388  44.626  31.468   6.750
 8525POPC   C3A66389  44.652  31.513   7.050
 8525POPC   C4A66390  44.629  31.504   7.350
 8525POPC   C1B66391  44.513  31.300   6.450
 8525POPC   C2B66392  44.494  31.335   6.750
 8525POPC   C3B66393  44.482  31.356   7.050
 8525POPC   C4B66394  44.455  31.292   7.350
 8526POPC   NC366395  30.668  43.118   5.550
 8526POPC   PO466396  30.667  43.141   5.850
 8526POPC   GL166397  30.691  43.070   6.150
 8526POPC   GL266398  30.630  43.187   6.150
 8526POPC   C1A66399  30.675  43.082   6.450
 8526POPC   D2A66400  30.668  43.138   6.750
 8526POPC   C3A66401  30.649  43.087   7.050
 8526POPC   C4A66402  30.743  43.101   7.350
 8526POPC   C1B66403  30.500  43.309   6.450
 8526POPC   C2B66404  30.517  43.277   6.750
 8526POPC   C3B66405  30.560  43.283   7.050
 8526POPC   C4B66406  30.511  43.305   7.350
 8527POPC   NC366407  32.224  37.631   5.550
 8527POPC   PO466408  32.282  37.680   5.850
 8527POPC   GL166409  32.232  37.720   6.150
 8527POPC   GL266410  32.124  37.617   6.150
 8527POPC   C1A66411  32.229  37.675   6.450
 8527POPC   D2A66412  32.254  37.630   6.750
 8527POPC   C3A66413  32.252  37.664   7.050
 8527POPC   C4A66414  32.270  37.633   7.350
 8527POPC   C1B66415  32.004  37.601   6.450
 8527POPC   C2B66416  32.006  37.642   6.750
 8527POPC   C3B66417  32.011  37.635   7.050
 8527POPC   C4B66418  32.024  37.640   7.350
 8528POPC   NC366419   8.180  36.140   5.550
 8528POPC   PO466420   8.214  36.143   5.850
 8528POPC   GL166421   8.150  36.108   6.150
 8528POPC   GL266422   8.306  36.195   6.150
 8528POPC   C1A66423   8.169  36.101   6.450
 8528POPC   D2A66424   8.203  36.149   6.750
 8528POPC   C3A66425   8.204  36.174   7.050
 8528POPC   C4A66426   8.229  36.159   7.350
 8528POPC   C1B66427   8.448  36.203   6.450
 8528POPC   C2B66428   8.429  36.175   6.750
 8528POPC   C3B66429   8.442  36.151   7.050
 8528POPC   C4B66430   8.473  36.136   7.350
 8529POPC   NC366431  44.701  12.819   5.550
 8529POPC   PO466432  44.624  12.889   5.850
 8529POPC   GL166433  44.652  12.853   6.150
 8529POPC   GL266434  44.720  12.944   6.150
 8529POPC   C1A66435  44.699  12.818   6.450
 8529POPC   D2A66436  44.631  12.890   6.750
 8529POPC   C3A66437  44.676  12.834   7.050
 8529POPC   C4A66438  44.642  12.830   7.350
 8529POPC   C1B66439  44.774  13.131   6.450
 8529POPC   C2B66440  44.743  13.139   6.750
 8529POPC   C3B66441  44.718  13.108   7.050
 8529POPC   C4B66442  44.707  13.121   7.350
 8530POPC   NC366443  36.931  22.191   5.550
 8530POPC   PO466444  36.949  22.125   5.850
 8530POPC   GL166445  36.874  22.161   6.150
 8530POPC   GL266446  37.075  22.119   6.150
 8530POPC   C1A66447  36.931  22.204   6.450
 8530POPC   D2A66448  36.920  22.189   6.750
 8530POPC   C3A66449  36.917  22.129   7.050
 8530POPC   C4A66450  36.876  22.182   7.350
 8530POPC   C1B66451  37.179  22.206   6.450
 8530POPC   C2B66452  37.167  22.181   6.750
 8530POPC   C3B66453  37.118  22.148   7.050
 8530POPC   C4B66454  37.203  22.144   7.350
 8531POPC   NC366455  19.009  12.885   5.550
 8531POPC   PO466456  19.095  12.807   5.850
 8531POPC   GL166457  19.107  12.882   6.150
 8531POPC   GL266458  18.974  12.851   6.150
 8531POPC   C1A66459  19.020  12.877   6.450
 8531POPC   D2A66460  19.050  12.835   6.750
 8531POPC   C3A66461  19.075  12.819   7.050
 8531POPC   C4A66462  19.078  12.856   7.350
 8531POPC   C1B66463  18.794  12.868   6.450
 8531POPC   C2B66464  18.839  12.798   6.750
 8531POPC   C3B66465  18.782  12.874   7.050
 8531POPC   C4B66466  18.832  12.867   7.350
 8532POPC   NC366467  43.145  29.108   5.550
 8532POPC   PO466468  43.144  29.152   5.850
 8532POPC   GL166469  43.114  29.112   6.150
 8532POPC   GL266470  42.981  29.270   6.150
 8532POPC   C1A66471  43.067  29.188   6.450
 8532POPC   D2A66472  43.096  29.160   6.750
 8532POPC   C3A66473  43.063  29.148   7.050
 8532POPC   C4A66474  43.107  29.137   7.350
 8532POPC   C1B66475  42.974  29.301   6.450
 8532POPC   C2B66476  42.969  29.309   6.750
 8532POPC   C3B66477  42.959  29.354   7.050
 8532POPC   C4B66478  42.938  29.355   7.350
 8533POPC   NC366479  16.745   8.937   5.550
 8533POPC   PO466480  16.718   8.958   5.850
 8533POPC   GL166481  16.722   8.972   6.150
 8533POPC   GL266482  16.695   9.048   6.150
 8533POPC   C1A66483  16.779   8.942   6.450
 8533POPC   D2A66484  16.721   8.984   6.750
 8533POPC   C3A66485  16.760   8.977   7.050
 8533POPC   C4A66486  16.691   8.941   7.350
 8533POPC   C1B66487  16.635   9.195   6.450
 8533POPC   C2B66488  16.608   9.150   6.750
 8533POPC   C3B66489  16.540   9.153   7.050
 8533POPC   C4B66490  16.602   9.199   7.350
 8534POPC   NC366491  15.963  24.449   5.550
 8534POPC   PO466492  15.938  24.474   5.850
 8534POPC   GL166493  15.913  24.471   6.150
 8534POPC   GL266494  15.870  24.590   6.150
 8534POPC   C1A66495  15.960  24.538   6.450
 8534POPC   D2A66496  15.953  24.446   6.750
 8534POPC   C3A66497  15.970  24.450   7.050
 8534POPC   C4A66498  15.978  24.484   7.350
 8534POPC   C1B66499  15.807  24.612   6.450
 8534POPC   C2B66500  15.727  24.683   6.750
 8534POPC   C3B66501  15.755  24.637   7.050
 8534POPC   C4B66502  15.807  24.622   7.350
 8535POPC   NC366503  43.141  11.253   5.550
 8535POPC   PO466504  43.104  11.305   5.850
 8535POPC   GL166505  43.135  11.339   6.150
 8535POPC   GL266506  43.102  11.141   6.150
 8535POPC   C1A66507  43.086  11.335   6.450
 8535POPC   D2A66508  43.112  11.330   6.750
 8535POPC   C3A66509  43.126  11.281   7.050
 8535POPC   C4A66510  43.147  11.287   7.350
 8535POPC   C1B66511  43.125  11.037   6.450
 8535POPC   C2B66512  43.060  11.012   6.750
 8535POPC   C3B66513  43.075  11.098   7.050
 8535POPC   C4B66514  43.097  11.089   7.350
 8536POPC   NC366515  23.671  15.169   5.550
 8536POPC   PO466516  23.717  15.227   5.850
 8536POPC   GL166517  23.762  15.223   6.150
 8536POPC   GL266518  23.879  15.114   6.150
 8536POPC   C1A66519  23.699  15.204   6.450
 8536POPC   D2A66520  23.683  15.169   6.750
 8536POPC   C3A66521  23.749  15.153   7.050
 8536POPC   C4A66522  23.690  15.183   7.350
 8536POPC   C1B66523  23.997  15.104   6.450
 8536POPC   C2B66524  23.966  15.062   6.750
 8536POPC   C3B66525  23.907  15.117   7.050
 8536POPC   C4B66526  23.919  15.139   7.350
 8537POPC   NC366527  19.801  39.988   5.550
 8537POPC   PO466528  19.834  40.018   5.850
 8537POPC   GL166529  19.825  40.008   6.150
 8537POPC   GL266530  19.846  39.883   6.150
 8537POPC   C1A66531  19.873  40.029   6.450
 8537POPC   D2A66532  19.882  40.051   6.750
 8537POPC   C3A66533  19.875  40.024   7.050
 8537POPC   C4A66534  19.834  40.028   7.350
 8537POPC   C1B66535  19.794  39.749   6.450
 8537POPC   C2B66536  19.840  39.740   6.750
 8537POPC   C3B66537  19.784  39.776   7.050
 8537POPC   C4B66538  19.816  39.743   7.350
 8538POPC   NC366539  36.878  43.914   5.550
 8538POPC   PO466540  36.877  43.846   5.850
 8538POPC   GL166541  36.911  43.863   6.150
 8538POPC   GL266542  36.783  43.832   6.150
 8538POPC   C1A66543  36.901  43.868   6.450
 8538POPC   D2A66544  36.930  43.906   6.750
 8538POPC   C3A66545  36.918  43.913   7.050
 8538POPC   C4A66546  36.878  43.927   7.350
 8538POPC   C1B66547  36.740  43.649   6.450
 8538POPC   C2B66548  36.732  43.715   6.750
 8538POPC   C3B66549  36.767  43.699   7.050
 8538POPC   C4B66550  36.721  43.643   7.350
 8539POPC   NC366551  12.037   9.791   5.550
 8539POPC   PO466552  12.035   9.721   5.850
 8539POPC   GL166553  12.102   9.727   6.150
 8539POPC   GL266554  12.224   9.778   6.150
 8539POPC   C1A66555  12.054   9.718   6.450
 8539POPC   D2A66556  12.043   9.699   6.750
 8539POPC   C3A66557  12.116   9.740   7.050
 8539POPC   C4A66558  12.079   9.737   7.350
 8539POPC   C1B66559  12.278   9.822   6.450
 8539POPC   C2B66560  12.334   9.801   6.750
 8539POPC   C3B66561  12.298   9.769   7.050
 8539POPC   C4B66562  12.329   9.798   7.350
 8540POPC   NC366563   0.390   1.950   5.550
 8540POPC   PO466564   0.440   2.009   5.850
 8540POPC   GL166565   0.399   2.006   6.150
 8540POPC   GL266566   0.511   2.108   6.150
 8540POPC   C1A66567   0.446   2.010   6.450
 8540POPC   D2A66568   0.466   2.023   6.750
 8540POPC   C3A66569   0.392   2.018   7.050
 8540POPC   C4A66570   0.423   2.002   7.350
 8540POPC   C1B66571   0.479   2.215   6.450
 8540POPC   C2B66572   0.494   2.211   6.750
 8540POPC   C3B66573   0.542   2.177   7.050
 8540POPC   C4B66574   0.494   2.193   7.350
 8541POPC   NC366575  22.950  21.381   5.550
 8541POPC   PO466576  22.921  21.391   5.850
 8541POPC   GL166577  22.974  21.405   6.150
 8541POPC   GL266578  22.847  21.371   6.150
 8541POPC   C1A66579  22.896  21.390   6.450
 8541POPC   D2A66580  22.987  21.425   6.750
 8541POPC   C3A66581  22.923  21.356   7.050
 8541POPC   C4A66582  22.973  21.399   7.350
 8541POPC   C1B66583  22.653  21.291   6.450
 8541POPC   C2B66584  22.736  21.342   6.750
 8541POPC   C3B66585  22.667  21.337   7.050
 8541POPC   C4B66586  22.708  21.266   7.350
 8542POPC   NC366587  22.179  37.645   5.550
 8542POPC   PO466588  22.203  37.665   5.850
 8542POPC   GL166589  22.128  37.717   6.150
 8542POPC   GL266590  22.149  37.571   6.150
 8542POPC   C1A66591  22.173  37.641   6.450
 8542POPC   D2A66592  22.125  37.631   6.750
 8542POPC   C3A66593  22.124  37.726   7.050
 8542POPC   C4A66594  22.170  37.729   7.350
 8542POPC   C1B66595  22.174  37.386   6.450
 8542POPC   C2B66596  22.139  37.473   6.750
 8542POPC   C3B66597  22.163  37.454   7.050
 8542POPC   C4B66598  22.186  37.479   7.350
 8543POPC   NC366599   7.377  33.847   5.550
 8543POPC   PO466600   7.422  33.807   5.850
 8543POPC   GL166601   7.461  33.827   6.150
 8543POPC   GL266602   7.514  33.826   6.150
 8543POPC   C1A66603   7.433  33.764   6.450
 8543POPC   D2A66604   7.434  33.754   6.750
 8543POPC   C3A66605   7.413  33.762   7.050
 8543POPC   C4A66606   7.448  33.760   7.350
 8543POPC   C1B66607   7.655  33.848   6.450
 8543POPC   C2B66608   7.678  33.806   6.750
 8543POPC   C3B66609   7.658  33.883   7.050
 8543POPC   C4B66610   7.625  33.834   7.350
 8544POPC   NC366611   5.834   3.525   5.550
 8544POPC   PO466612   5.879   3.541   5.850
 8544POPC   GL166613   5.875   3.518   6.150
 8544POPC   GL266614   6.038   3.572   6.150
 8544POPC   C1A66615   5.914   3.575   6.450
 8544POPC   D2A66616   5.820   3.543   6.750
 8544POPC   C3A66617   5.868   3.524   7.050
 8544POPC   C4A66618   5.917   3.500   7.350
 8544POPC   C1B66619   6.127   3.516   6.450
 8544POPC   C2B66620   6.157   3.588   6.750
 8544POPC   C3B66621   6.154   3.562   7.050
 8544POPC   C4B66622   6.121   3.582   7.350
 8545POPC   NC366623  39.993  19.081   5.550
 8545POPC   PO466624  40.000  19.047   5.850
 8545POPC   GL166625  39.963  19.015   6.150
 8545POPC   GL266626  39.901  19.153   6.150
 8545POPC   C1A66627  40.004  19.051   6.450
 8545POPC   D2A66628  40.004  19.069   6.750
 8545POPC   C3A66629  40.028  19.078   7.050
 8545POPC   C4A66630  40.023  19.074   7.350
 8545POPC   C1B66631  39.854  19.236   6.450
 8545POPC   C2B66632  39.905  19.250   6.750
 8545POPC   C3B66633  39.817  19.260   7.050
 8545POPC   C4B66634  39.881  19.296   7.350
 8546POPC   NC366635   1.199  11.314   5.550
 8546POPC   PO466636   1.193  11.268   5.850
 8546POPC   GL166637   1.212  11.299   6.150
 8546POPC   GL266638   1.092  11.303   6.150
 8546POPC   C1A66639   1.217  11.306   6.450
 8546POPC   D2A66640   1.247  11.259   6.750
 8546POPC   C3A66641   1.170  11.344   7.050
 8546POPC   C4A66642   1.254  11.269   7.350
 8546POPC   C1B66643   0.985  11.337   6.450
 8546POPC   C2B66644   0.980  11.351   6.750
 8546POPC   C3B66645   0.920  11.273   7.050
 8546POPC   C4B66646   1.003  11.291   7.350
 8547POPC   NC366647  19.814  36.868   5.550
 8547POPC   PO466648  19.801  36.869   5.850
 8547POPC   GL166649  19.853  36.949   6.150
 8547POPC   GL266650  19.777  36.781   6.150
 8547POPC   C1A66651  19.858  36.917   6.450
 8547POPC   D2A66652  19.874  36.922   6.750
 8547POPC   C3A66653  19.817  36.862   7.050
 8547POPC   C4A66654  19.839  36.867   7.350
 8547POPC   C1B66655  19.829  36.669   6.450
 8547POPC   C2B66656  19.751  36.628   6.750
 8547POPC   C3B66657  19.753  36.626   7.050
 8547POPC   C4B66658  19.819  36.665   7.350
 8548POPC   NC366659   2.000   7.449   5.550
 8548POPC   PO466660   1.976   7.455   5.850
 8548POPC   GL166661   1.979   7.398   6.150
 8548POPC   GL266662   2.060   7.276   6.150
 8548POPC   C1A66663   2.014   7.393   6.450
 8548POPC   D2A66664   2.036   7.390   6.750
 8548POPC   C3A66665   2.031   7.435   7.050
 8548POPC   C4A66666   2.011   7.461   7.350
 8548POPC   C1B66667   2.160   7.229   6.450
 8548POPC   C2B66668   2.094   7.254   6.750
 8548POPC   C3B66669   2.128   7.211   7.050
 8548POPC   C4B66670   2.134   7.197   7.350
 8549POPC   NC366671   5.093  23.727   5.550
 8549POPC   PO466672   5.097  23.682   5.850
 8549POPC   GL166673   5.116  23.709   6.150
 8549POPC   GL266674   5.044  23.784   6.150
 8549POPC   C1A66675   5.115  23.716   6.450
 8549POPC   D2A66676   5.133  23.739   6.750
 8549POPC   C3A66677   5.113  23.674   7.050
 8549POPC   C4A66678   5.127  23.755   7.350
 8549POPC   C1B66679   4.889  23.827   6.450
 8549POPC   C2B66680   4.901  23.831   6.750
 8549POPC   C3B66681   4.921  23.836   7.050
 8549POPC   C4B66682   4.945  23.826   7.350
 8550POPC   NC366683   3.520   9.762   5.550
 8550POPC   PO466684   3.529   9.772   5.850
 8550POPC   GL166685   3.580   9.723   6.150
 8550POPC   GL266686   3.624   9.639   6.150
 8550POPC   C1A66687   3.572   9.717   6.450
 8550POPC   D2A66688   3.495   9.705   6.750
 8550POPC   C3A66689   3.555   9.724   7.050
 8550POPC   C4A66690   3.560   9.774   7.350
 8550POPC   C1B66691   3.655   9.499   6.450
 8550POPC   C2B66692   3.650   9.565   6.750
 8550POPC   C3B66693   3.688   9.505   7.050
 8550POPC   C4B66694   3.676   9.587   7.350
 8551POPC   NC366695  11.301  22.916   5.550
 8551POPC   PO466696  11.348  22.896   5.850
 8551POPC   GL166697  11.332  22.934   6.150
 8551POPC   GL266698  11.239  22.980   6.150
 8551POPC   C1A66699  11.308  22.932   6.450
 8551POPC   D2A66700  11.267  22.968   6.750
 8551POPC   C3A66701  11.284  22.903   7.050
 8551POPC   C4A66702  11.298  22.983   7.350
 8551POPC   C1B66703  11.071  23.155   6.450
 8551POPC   C2B66704  11.130  23.072   6.750
 8551POPC   C3B66705  11.081  23.139   7.050
 8551POPC   C4B66706  11.093  23.132   7.350
 8552POPC   NC366707  31.454  42.320   5.550
 8552POPC   PO466708  31.504  42.356   5.850
 8552POPC   GL166709  31.466  42.377   6.150
 8552POPC   GL266710  31.455  42.178   6.150
 8552POPC   C1A66711  31.423  42.372   6.450
 8552POPC   D2A66712  31.442  42.300   6.750
 8552POPC   C3A66713  31.511  42.303   7.050
 8552POPC   C4A66714  31.456  42.317   7.350
 8552POPC   C1B66715  31.552  42.124   6.450
 8552POPC   C2B66716  31.522  42.129   6.750
 8552POPC   C3B66717  31.560  42.080   7.050
 8552POPC   C4B66718  31.530  42.102   7.350
 8553POPC   NC366719  42.345  10.531   5.550
 8553POPC   PO466720  42.339  10.481   5.850
 8553POPC   GL166721  42.313  10.533   6.150
 8553POPC   GL266722  42.289  10.615   6.150
 8553POPC   C1A66723  42.326  10.507   6.450
 8553POPC   D2A66724  42.358  10.556   6.750
 8553POPC   C3A66725  42.337  10.475   7.050
 8553POPC   C4A66726  42.360  10.544   7.350
 8553POPC   C1B66727  42.230  10.743   6.450
 8553POPC   C2B66728  42.185  10.781   6.750
 8553POPC   C3B66729  42.246  10.783   7.050
 8553POPC   C4B66730  42.244  10.743   7.350
 8554POPC   NC366731  35.338  38.465   5.550
 8554POPC   PO466732  35.350  38.430   5.850
 8554POPC   GL166733  35.368  38.414   6.150
 8554POPC   GL266734  35.325  38.572   6.150
 8554POPC   C1A66735  35.376  38.451   6.450
 8554POPC   D2A66736  35.350  38.457   6.750
 8554POPC   C3A66737  35.318  38.460   7.050
 8554POPC   C4A66738  35.369  38.417   7.350
 8554POPC   C1B66739  35.223  38.642   6.450
 8554POPC   C2B66740  35.261  38.637   6.750
 8554POPC   C3B66741  35.204  38.685   7.050
 8554POPC   C4B66742  35.178  38.707   7.350
 8555POPC   NC366743  35.399  15.138   5.550
 8555POPC   PO466744  35.385  15.164   5.850
 8555POPC   GL166745  35.325  15.186   6.150
 8555POPC   GL266746  35.381  15.075   6.150
 8555POPC   C1A66747  35.384  15.193   6.450
 8555POPC   D2A66748  35.315  15.203   6.750
 8555POPC   C3A66749  35.350  15.175   7.050
 8555POPC   C4A66750  35.385  15.183   7.350
 8555POPC   C1B66751  35.415  14.915   6.450
 8555POPC   C2B66752  35.455  14.916   6.750
 8555POPC   C3B66753  35.413  14.963   7.050
 8555POPC   C4B66754  35.434  14.962   7.350
 8556POPC   NC366755   8.212  15.978   5.550
 8556POPC   PO466756   8.153  15.993   5.850
 8556POPC   GL166757   8.232  15.949   6.150
 8556POPC   GL266758   8.179  16.113   6.150
 8556POPC   C1A66759   8.218  15.995   6.450
 8556POPC   D2A66760   8.165  15.972   6.750
 8556POPC   C3A66761   8.227  15.920   7.050
 8556POPC   C4A66762   8.204  15.997   7.350
 8556POPC   C1B66763   8.240  16.246   6.450
 8556POPC   C2B66764   8.248  16.239   6.750
 8556POPC   C3B66765   8.197  16.193   7.050
 8556POPC   C4B66766   8.163  16.205   7.350
 8557POPC   NC366767  36.098  29.100   5.550
 8557POPC   PO466768  36.093  29.125   5.850
 8557POPC   GL166769  36.104  29.143   6.150
 8557POPC   GL266770  36.198  29.046   6.150
 8557POPC   C1A66771  36.089  29.102   6.450
 8557POPC   D2A66772  36.143  29.163   6.750
 8557POPC   C3A66773  36.166  29.130   7.050
 8557POPC   C4A66774  36.118  29.139   7.350
 8557POPC   C1B66775  36.144  28.925   6.450
 8557POPC   C2B66776  36.199  28.851   6.750
 8557POPC   C3B66777  36.138  28.884   7.050
 8557POPC   C4B66778  36.166  28.861   7.350
 8558POPC   NC366779  16.000  28.346   5.550
 8558POPC   PO466780  15.935  28.415   5.850
 8558POPC   GL166781  15.922  28.378   6.150
 8558POPC   GL266782  15.971  28.475   6.150
 8558POPC   C1A66783  15.933  28.417   6.450
 8558POPC   D2A66784  16.003  28.390   6.750
 8558POPC   C3A66785  15.931  28.412   7.050
 8558POPC   C4A66786  15.933  28.342   7.350
 8558POPC   C1B66787  16.018  28.604   6.450
 8558POPC   C2B66788  15.962  28.574   6.750
 8558POPC   C3B66789  16.010  28.624   7.050
 8558POPC   C4B66790  15.958  28.570   7.350
 8559POPC   NC366791  12.049   5.047   5.550
 8559POPC   PO466792  12.027   5.113   5.850
 8559POPC   GL166793  12.031   5.067   6.150
 8559POPC   GL266794  12.025   5.224   6.150
 8559POPC   C1A66795  12.096   5.052   6.450
 8559POPC   D2A66796  12.046   5.140   6.750
 8559POPC   C3A66797  12.104   5.059   7.050
 8559POPC   C4A66798  12.039   5.104   7.350
 8559POPC   C1B66799  12.088   5.323   6.450
 8559POPC   C2B66800  12.041   5.328   6.750
 8559POPC   C3B66801  12.023   5.330   7.050
 8559POPC   C4B66802  12.021   5.326   7.350
 8560POPC   NC366803  13.619   9.781   5.550
 8560POPC   PO466804  13.672   9.762   5.850
 8560POPC   GL166805  13.581   9.740   6.150
 8560POPC   GL266806  13.480   9.753   6.150
 8560POPC   C1A66807  13.605   9.774   6.450
 8560POPC   D2A66808  13.653   9.755   6.750
 8560POPC   C3A66809  13.669   9.784   7.050
 8560POPC   C4A66810  13.675   9.732   7.350
 8560POPC   C1B66811  13.363   9.792   6.450
 8560POPC   C2B66812  13.381   9.865   6.750
 8560POPC   C3B66813  13.412   9.813   7.050
 8560POPC   C4B66814  13.429   9.876   7.350
 8561POPC   NC366815  30.666  40.814   5.550
 8561POPC   PO466816  30.735  40.735   5.850
 8561POPC   GL166817  30.690  40.749   6.150
 8561POPC   GL266818  30.563  40.737   6.150
 8561POPC   C1A66819  30.723  40.822   6.450
 8561POPC   D2A66820  30.663  40.816   6.750
 8561POPC   C3A66821  30.719  40.789   7.050
 8561POPC   C4A66822  30.713  40.776   7.350
 8561POPC   C1B66823  30.543  40.552   6.450
 8561POPC   C2B66824  30.540  40.595   6.750
 8561POPC   C3B66825  30.539  40.594   7.050
 8561POPC   C4B66826  30.566  40.640   7.350
 8562POPC   NC366827   8.976  15.979   5.550
 8562POPC   PO466828   8.940  15.995   5.850
 8562POPC   GL166829   8.950  15.909   6.150
 8562POPC   GL266830   9.004  16.020   6.150
 8562POPC   C1A66831   8.976  16.005   6.450
 8562POPC   D2A66832   9.015  15.972   6.750
 8562POPC   C3A66833   9.004  15.993   7.050
 8562POPC   C4A66834   8.961  15.919   7.350
 8562POPC   C1B66835   9.075  16.142   6.450
 8562POPC   C2B66836   9.094  16.132   6.750
 8562POPC   C3B66837   9.075  16.169   7.050
 8562POPC   C4B66838   9.051  16.209   7.350
 8563POPC   NC366839  25.222   6.609   5.550
 8563POPC   PO466840  25.300   6.600   5.850
 8563POPC   GL166841  25.294   6.645   6.150
 8563POPC   GL266842  25.397   6.621   6.150
 8563POPC   C1A66843  25.305   6.596   6.450
 8563POPC   D2A66844  25.288   6.630   6.750
 8563POPC   C3A66845  25.280   6.652   7.050
 8563POPC   C4A66846  25.305   6.652   7.350
 8563POPC   C1B66847  25.540   6.580   6.450
 8563POPC   C2B66848  25.494   6.563   6.750
 8563POPC   C3B66849  25.478   6.587   7.050
 8563POPC   C4B66850  25.491   6.602   7.350
 8564POPC   NC366851  12.885  31.497   5.550
 8564POPC   PO466852  12.808  31.486   5.850
 8564POPC   GL166853  12.807  31.484   6.150
 8564POPC   GL266854  12.874  31.331   6.150
 8564POPC   C1A66855  12.807  31.483   6.450
 8564POPC   D2A66856  12.827  31.490   6.750
 8564POPC   C3A66857  12.827  31.512   7.050
 8564POPC   C4A66858  12.886  31.486   7.350
 8564POPC   C1B66859  12.893  31.267   6.450
 8564POPC   C2B66860  12.942  31.197   6.750
 8564POPC   C3B66861  12.968  31.229   7.050
 8564POPC   C4B66862  12.929  31.287   7.350
 8565POPC   NC366863   4.286  19.795   5.550
 8565POPC   PO466864   4.332  19.883   5.850
 8565POPC   GL166865   4.328  19.845   6.150
 8565POPC   GL266866   4.441  19.824   6.150
 8565POPC   C1A66867   4.280  19.881   6.450
 8565POPC   D2A66868   4.322  19.795   6.750
 8565POPC   C3A66869   4.268  19.813   7.050
 8565POPC   C4A66870   4.353  19.800   7.350
 8565POPC   C1B66871   4.586  19.864   6.450
 8565POPC   C2B66872   4.604  19.887   6.750
 8565POPC   C3B66873   4.616  19.877   7.050
 8565POPC   C4B66874   4.555  19.875   7.350
 8566POPC   NC366875  14.368  10.488   5.550
 8566POPC   PO466876  14.396  10.550   5.850
 8566POPC   GL166877  14.444  10.494   6.150
 8566POPC   GL266878  14.330  10.366   6.150
 8566POPC   C1A66879  14.420  10.492   6.450
 8566POPC   D2A66880  14.438  10.480   6.750
 8566POPC   C3A66881  14.389  10.551   7.050
 8566POPC   C4A66882  14.378  10.500   7.350
 8566POPC   C1B66883  14.299  10.263   6.450
 8566POPC   C2B66884  14.338  10.329   6.750
 8566POPC   C3B66885  14.303  10.265   7.050
 8566POPC   C4B66886  14.291  10.295   7.350
 8567POPC   NC366887   5.110  26.853   5.550
 8567POPC   PO466888   5.044  26.787   5.850
 8567POPC   GL166889   5.046  26.800   6.150
 8567POPC   GL266890   5.039  26.695   6.150
 8567POPC   C1A66891   5.046  26.781   6.450
 8567POPC   D2A66892   5.102  26.825   6.750
 8567POPC   C3A66893   5.093  26.802   7.050
 8567POPC   C4A66894   5.075  26.790   7.350
 8567POPC   C1B66895   4.974  26.610   6.450
 8567POPC   C2B66896   4.925  26.634   6.750
 8567POPC   C3B66897   4.923  26.634   7.050
 8567POPC   C4B66898   4.945  26.561   7.350
 8568POPC   NC366899   5.100   1.959   5.550
 8568POPC   PO466900   5.049   2.003   5.850
 8568POPC   GL166901   5.077   1.992   6.150
 8568POPC   GL266902   5.154   2.058   6.150
 8568POPC   C1A66903   5.060   2.031   6.450
 8568POPC   D2A66904   5.130   1.974   6.750
 8568POPC   C3A66905   5.070   2.002   7.050
 8568POPC   C4A66906   5.112   1.949   7.350
 8568POPC   C1B66907   5.347   2.156   6.450
 8568POPC   C2B66908   5.313   2.174   6.750
 8568POPC   C3B66909   5.314   2.094   7.050
 8568POPC   C4B66910   5.313   2.139   7.350
 8569POPC   NC366911  38.425  38.493   5.550
 8569POPC   PO466912  38.495  38.409   5.850
 8569POPC   GL166913  38.496  38.480   6.150
 8569POPC   GL266914  38.490  38.310   6.150
 8569POPC   C1A66915  38.423  38.443   6.450
 8569POPC   D2A66916  38.485  38.424   6.750
 8569POPC   C3A66917  38.426  38.425   7.050
 8569POPC   C4A66918  38.479  38.463   7.350
 8569POPC   C1B66919  38.562  38.241   6.450
 8569POPC   C2B66920  38.486  38.244   6.750
 8569POPC   C3B66921  38.473  38.250   7.050
 8569POPC   C4B66922  38.507  38.189   7.350
 8570POPC   NC366923  29.117  22.971   5.550
 8570POPC   PO466924  29.096  22.918   5.850
 8570POPC   GL166925  29.185  22.918   6.150
 8570POPC   GL266926  29.058  22.802   6.150
 8570POPC   C1A66927  29.167  22.914   6.450
 8570POPC   D2A66928  29.164  22.898   6.750
 8570POPC   C3A66929  29.162  22.896   7.050
 8570POPC   C4A66930  29.102  22.929   7.350
 8570POPC   C1B66931  29.025  22.740   6.450
 8570POPC   C2B66932  29.029  22.675   6.750
 8570POPC   C3B66933  29.086  22.697   7.050
 8570POPC   C4B66934  29.062  22.745   7.350
 8571POPC   NC366935  29.941   8.231   5.550
 8571POPC   PO466936  29.875   8.156   5.850
 8571POPC   GL166937  29.963   8.185   6.150
 8571POPC   GL266938  29.805   8.164   6.150
 8571POPC   C1A66939  29.943   8.174   6.450
 8571POPC   D2A66940  29.968   8.228   6.750
 8571POPC   C3A66941  29.896   8.165   7.050
 8571POPC   C4A66942  29.883   8.149   7.350
 8571POPC   C1B66943  29.740   8.010   6.450
 8571POPC   C2B66944  29.718   8.090   6.750
 8571POPC   C3B66945  29.685   8.022   7.050
 8571POPC   C4B66946  29.733   8.045   7.350
 8572POPC   NC366947   7.405   7.375   5.550
 8572POPC   PO466948   7.382   7.433   5.850
 8572POPC   GL166949   7.441   7.430   6.150
 8572POPC   GL266950   7.384   7.309   6.150
 8572POPC   C1A66951   7.447   7.459   6.450
 8572POPC   D2A66952   7.445   7.423   6.750
 8572POPC   C3A66953   7.440   7.433   7.050
 8572POPC   C4A66954   7.423   7.449   7.350
 8572POPC   C1B66955   7.439   7.220   6.450
 8572POPC   C2B66956   7.365   7.188   6.750
 8572POPC   C3B66957   7.437   7.162   7.050
 8572POPC   C4B66958   7.398   7.148   7.350
 8573POPC   NC366959  27.610  29.104   5.550
 8573POPC   PO466960  27.564  29.194   5.850
 8573POPC   GL166961  27.568  29.191   6.150
 8573POPC   GL266962  27.721  29.070   6.150
 8573POPC   C1A66963  27.598  29.136   6.450
 8573POPC   D2A66964  27.638  29.104   6.750
 8573POPC   C3A66965  27.582  29.106   7.050
 8573POPC   C4A66966  27.639  29.159   7.350
 8573POPC   C1B66967  27.775  28.955   6.450
 8573POPC   C2B66968  27.733  29.002   6.750
 8573POPC   C3B66969  27.773  28.908   7.050
 8573POPC   C4B66970  27.781  28.988   7.350
 8574POPC   NC366971  15.185  28.357   5.550
 8574POPC   PO466972  15.210  28.375   5.850
 8574POPC   GL166973  15.177  28.350   6.150
 8574POPC   GL266974  15.275  28.308   6.150
 8574POPC   C1A66975  15.188  28.349   6.450
 8574POPC   D2A66976  15.169  28.384   6.750
 8574POPC   C3A66977  15.213  28.388   7.050
 8574POPC   C4A66978  15.185  28.408   7.350
 8574POPC   C1B66979  15.393  28.347   6.450
 8574POPC   C2B66980  15.471  28.269   6.750
 8574POPC   C3B66981  15.433  28.322   7.050
 8574POPC   C4B66982  15.382  28.324   7.350
 8575POPC   NC366983   1.261  19.806   5.550
 8575POPC   PO466984   1.170  19.794   5.850
 8575POPC   GL166985   1.245  19.845   6.150
 8575POPC   GL266986   1.093  19.916   6.150
 8575POPC   C1A66987   1.214  19.796   6.450
 8575POPC   D2A66988   1.188  19.801   6.750
 8575POPC   C3A66989   1.206  19.842   7.050
 8575POPC   C4A66990   1.193  19.864   7.350
 8575POPC   C1B66991   0.924  19.853   6.450
 8575POPC   C2B66992   0.970  19.856   6.750
 8575POPC   C3B66993   0.978  19.915   7.050
 8575POPC   C4B66994   1.020  19.884   7.350
 8576POPC   NC366995   0.468   2.792   5.550
 8576POPC   PO466996   0.389   2.760   5.850
 8576POPC   GL166997   0.393   2.766   6.150
 8576POPC   GL266998   0.549   2.824   6.150
 8576POPC   C1A66999   0.403   2.786   6.450
 8576POPC   D2A67000   0.417   2.812   6.750
 8576POPC   C3A67001   0.452   2.807   7.050
 8576POPC   C4A67002   0.442   2.783   7.350
 8576POPC   C1B67003   0.587   2.947   6.450
 8576POPC   C2B67004   0.609   2.961   6.750
 8576POPC   C3B67005   0.599   2.991   7.050
 8576POPC   C4B67006   0.545   2.928   7.350
 8577POPC   NC367007  27.574  32.249   5.550
 8577POPC   PO467008  27.627  32.247   5.850
 8577POPC   GL167009  27.620  32.280   6.150
 8577POPC   GL267010  27.655  32.344   6.150
 8577POPC   C1A67011  27.566  32.227   6.450
 8577POPC   D2A67012  27.612  32.210   6.750
 8577POPC   C3A67013  27.543  32.298   7.050
 8577POPC   C4A67014  27.562  32.242   7.350
 8577POPC   C1B67015  27.690  32.423   6.450
 8577POPC   C2B67016  27.736  32.432   6.750
 8577POPC   C3B67017  27.713  32.436   7.050
 8577POPC   C4B67018  27.745  32.505   7.350
 8578POPC   NC367019  33.834  36.946   5.550
 8578POPC   PO467020  33.845  36.923   5.850
 8578POPC   GL167021  33.844  36.929   6.150
 8578POPC   GL267022  33.716  36.910   6.150
 8578POPC   C1A67023  33.786  36.883   6.450
 8578POPC   D2A67024  33.824  36.882   6.750
 8578POPC   C3A67025  33.767  36.936   7.050
 8578POPC   C4A67026  33.845  36.934   7.350
 8578POPC   C1B67027  33.560  36.879   6.450
 8578POPC   C2B67028  33.519  36.882   6.750
 8578POPC   C3B67029  33.567  36.877   7.050
 8578POPC   C4B67030  33.535  36.910   7.350
 8579POPC   NC367031  34.619  19.874   5.550
 8579POPC   PO467032  34.625  19.811   5.850
 8579POPC   GL167033  34.612  19.824   6.150
 8579POPC   GL267034  34.679  19.735   6.150
 8579POPC   C1A67035  34.578  19.859   6.450
 8579POPC   D2A67036  34.570  19.844   6.750
 8579POPC   C3A67037  34.532  19.867   7.050
 8579POPC   C4A67038  34.529  19.808   7.350
 8579POPC   C1B67039  34.704  19.670   6.450
 8579POPC   C2B67040  34.716  19.601   6.750
 8579POPC   C3B67041  34.692  19.614   7.050
 8579POPC   C4B67042  34.760  19.620   7.350
 8580POPC   NC367043  33.794  20.561   5.550
 8580POPC   PO467044  33.787  20.635   5.850
 8580POPC   GL167045  33.802  20.635   6.150
 8580POPC   GL267046  33.872  20.526   6.150
 8580POPC   C1A67047  33.763  20.618   6.450
 8580POPC   D2A67048  33.807  20.647   6.750
 8580POPC   C3A67049  33.806  20.577   7.050
 8580POPC   C4A67050  33.817  20.637   7.350
 8580POPC   C1B67051  33.916  20.398   6.450
 8580POPC   C2B67052  33.903  20.405   6.750
 8580POPC   C3B67053  33.876  20.374   7.050
 8580POPC   C4B67054  33.876  20.364   7.350
 8581POPC   NC367055   6.632  36.879   5.550
 8581POPC   PO467056   6.687  36.935   5.850
 8581POPC   GL167057   6.627  36.880   6.150
 8581POPC   GL267058   6.673  36.742   6.150
 8581POPC   C1A67059   6.620  36.953   6.450
 8581POPC   D2A67060   6.601  36.880   6.750
 8581POPC   C3A67061   6.633  36.928   7.050
 8581POPC   C4A67062   6.604  36.942   7.350
 8581POPC   C1B67063   6.684  36.635   6.450
 8581POPC   C2B67064   6.648  36.640   6.750
 8581POPC   C3B67065   6.677  36.640   7.050
 8581POPC   C4B67066   6.683  36.666   7.350
 8582POPC   NC367067  43.905  30.664   5.550
 8582POPC   PO467068  43.843  30.650   5.850
 8582POPC   GL167069  43.885  30.647   6.150
 8582POPC   GL267070  43.790  30.664   6.150
 8582POPC   C1A67071  43.918  30.692   6.450
 8582POPC   D2A67072  43.876  30.740   6.750
 8582POPC   C3A67073  43.876  30.661   7.050
 8582POPC   C4A67074  43.847  30.727   7.350
 8582POPC   C1B67075  43.651  30.601   6.450
 8582POPC   C2B67076  43.623  30.617   6.750
 8582POPC   C3B67077  43.647  30.592   7.050
 8582POPC   C4B67078  43.650  30.648   7.350
 8583POPC   NC367079  25.297  37.728   5.550
 8583POPC   PO467080  25.277  37.631   5.850
 8583POPC   GL167081  25.268  37.692   6.150
 8583POPC   GL267082  25.260  37.812   6.150
 8583POPC   C1A67083  25.289  37.712   6.450
 8583POPC   D2A67084  25.290  37.648   6.750
 8583POPC   C3A67085  25.261  37.679   7.050
 8583POPC   C4A67086  25.233  37.672   7.350
 8583POPC   C1B67087  25.306  37.945   6.450
 8583POPC   C2B67088  25.378  37.923   6.750
 8583POPC   C3B67089  25.381  37.888   7.050
 8583POPC   C4B67090  25.311  37.904   7.350
 8584POPC   NC367091  37.700  36.109   5.550
 8584POPC   PO467092  37.708  36.170   5.850
 8584POPC   GL167093  37.714  36.129   6.150
 8584POPC   GL267094  37.533  36.085   6.150
 8584POPC   C1A67095  37.666  36.097   6.450
 8584POPC   D2A67096  37.661  36.129   6.750
 8584POPC   C3A67097  37.691  36.084   7.050
 8584POPC   C4A67098  37.708  36.175   7.350
 8584POPC   C1B67099  37.415  36.057   6.450
 8584POPC   C2B67100  37.493  36.070   6.750
 8584POPC   C3B67101  37.411  36.078   7.050
 8584POPC   C4B67102  37.450  36.032   7.350
 8585POPC   NC367103   1.215  36.175   5.550
 8585POPC   PO467104   1.264  36.127   5.850
 8585POPC   GL167105   1.202  36.146   6.150
 8585POPC   GL267106   1.130  36.171   6.150
 8585POPC   C1A67107   1.217  36.145   6.450
 8585POPC   D2A67108   1.252  36.152   6.750
 8585POPC   C3A67109   1.191  36.162   7.050
 8585POPC   C4A67110   1.203  36.120   7.350
 8585POPC   C1B67111   0.970  36.220   6.450
 8585POPC   C2B67112   0.920  36.198   6.750
 8585POPC   C3B67113   1.003  36.230   7.050
 8585POPC   C4B67114   0.969  36.139   7.350
 8586POPC   NC367115  13.581  30.697   5.550
 8586POPC   PO467116  13.656  30.737   5.850
 8586POPC   GL167117  13.629  30.742   6.150
 8586POPC   GL267118  13.519  30.623   6.150
 8586POPC   C1A67119  13.668  30.667   6.450
 8586POPC   D2A67120  13.664  30.652   6.750
 8586POPC   C3A67121  13.643  30.667   7.050
 8586POPC   C4A67122  13.608  30.743   7.350
 8586POPC   C1B67123  13.513  30.452   6.450
 8586POPC   C2B67124  13.482  30.517   6.750
 8586POPC   C3B67125  13.445  30.445   7.050
 8586POPC   C4B67126  13.459  30.446   7.350
 8587POPC   NC367127  34.578   8.215   5.550
 8587POPC   PO467128  34.557   8.175   5.850
 8587POPC   GL167129  34.622   8.240   6.150
 8587POPC   GL267130  34.662   8.295   6.150
 8587POPC   C1A67131  34.592   8.202   6.450
 8587POPC   D2A67132  34.574   8.197   6.750
 8587POPC   C3A67133  34.547   8.177   7.050
 8587POPC   C4A67134  34.548   8.180   7.350
 8587POPC   C1B67135  34.725   8.376   6.450
 8587POPC   C2B67136  34.774   8.387   6.750
 8587POPC   C3B67137  34.761   8.418   7.050
 8587POPC   C4B67138  34.726   8.381   7.350
 8588POPC   NC367139  25.275  33.804   5.550
 8588POPC   PO467140  25.234  33.831   5.850
 8588POPC   GL167141  25.276  33.770   6.150
 8588POPC   GL267142  25.258  33.689   6.150
 8588POPC   C1A67143  25.255  33.813   6.450
 8588POPC   D2A67144  25.313  33.833   6.750
 8588POPC   C3A67145  25.262  33.772   7.050
 8588POPC   C4A67146  25.292  33.798   7.350
 8588POPC   C1B67147  25.339  33.525   6.450
 8588POPC   C2B67148  25.303  33.571   6.750
 8588POPC   C3B67149  25.315  33.570   7.050
 8588POPC   C4B67150  25.300  33.556   7.350
 8589POPC   NC367151  18.323  29.119   5.550
 8589POPC   PO467152  18.331  29.106   5.850
 8589POPC   GL167153  18.308  29.145   6.150
 8589POPC   GL267154  18.363  29.197   6.150
 8589POPC   C1A67155  18.289  29.132   6.450
 8589POPC   D2A67156  18.266  29.177   6.750
 8589POPC   C3A67157  18.308  29.106   7.050
 8589POPC   C4A67158  18.280  29.117   7.350
 8589POPC   C1B67159  18.486  29.217   6.450
 8589POPC   C2B67160  18.539  29.163   6.750
 8589POPC   C3B67161  18.566  29.221   7.050
 8589POPC   C4B67162  18.547  29.192   7.350
 8590POPC   NC367163  40.758  34.548   5.550
 8590POPC   PO467164  40.831  34.529   5.850
 8590POPC   GL167165  40.771  34.551   6.150
 8590POPC   GL267166  40.848  34.675   6.150
 8590POPC   C1A67167  40.765  34.606   6.450
 8590POPC   D2A67168  40.823  34.569   6.750
 8590POPC   C3A67169  40.766  34.609   7.050
 8590POPC   C4A67170  40.763  34.606   7.350
 8590POPC   C1B67171  40.939  34.708   6.450
 8590POPC   C2B67172  40.919  34.709   6.750
 8590POPC   C3B67173  40.932  34.783   7.050
 8590POPC   C4B67174  40.981  34.788   7.350
 8591POPC   NC367175   3.576  29.140   5.550
 8591POPC   PO467176   3.552  29.180   5.850
 8591POPC   GL167177   3.534  29.182   6.150
 8591POPC   GL267178   3.464  29.231   6.150
 8591POPC   C1A67179   3.511  29.101   6.450
 8591POPC   D2A67180   3.509  29.104   6.750
 8591POPC   C3A67181   3.529  29.124   7.050
 8591POPC   C4A67182   3.529  29.129   7.350
 8591POPC   C1B67183   3.329  29.257   6.450
 8591POPC   C2B67184   3.359  29.304   6.750
 8591POPC   C3B67185   3.389  29.260   7.050
 8591POPC   C4B67186   3.355  29.335   7.350
 8592POPC   NC367187  43.899  40.001   5.550
 8592POPC   PO467188  43.889  40.026   5.850
 8592POPC   GL167189  43.932  40.026   6.150
 8592POPC   GL267190  43.956  40.076   6.150
 8592POPC   C1A67191  43.854  40.030   6.450
 8592POPC   D2A67192  43.913  39.964   6.750
 8592POPC   C3A67193  43.925  40.050   7.050
 8592POPC   C4A67194  43.895  39.966   7.350
 8592POPC   C1B67195  44.060  40.207   6.450
 8592POPC   C2B67196  44.078  40.232   6.750
 8592POPC   C3B67197  44.015  40.206   7.050
 8592POPC   C4B67198  44.086  40.185   7.350
 8593POPC   NC367199  41.529   0.451   5.550
 8593POPC   PO467200  41.552   0.389   5.850
 8593POPC   GL167201  41.522   0.438   6.150
 8593POPC   GL267202  41.541   0.340   6.150
 8593POPC   C1A67203  41.571   0.414   6.450
 8593POPC   D2A67204  41.574   0.421   6.750
 8593POPC   C3A67205  41.518   0.483   7.050
 8593POPC   C4A67206  41.546   0.454   7.350
 8593POPC   C1B67207  41.540   0.174   6.450
 8593POPC   C2B67208  41.595   0.238   6.750
 8593POPC   C3B67209  41.549   0.141   7.050
 8593POPC   C4B67210  41.618   0.216   7.350
 8594POPC   NC367211  13.598  35.382   5.550
 8594POPC   PO467212  13.662  35.390   5.850
 8594POPC   GL167213  13.666  35.317   6.150
 8594POPC   GL267214  13.645  35.212   6.150
 8594POPC   C1A67215  13.588  35.313   6.450
 8594POPC   D2A67216  13.632  35.313   6.750
 8594POPC   C3A67217  13.673  35.304   7.050
 8594POPC   C4A67218  13.669  35.396   7.350
 8594POPC   C1B67219  13.537  35.116   6.450
 8594POPC   C2B67220  13.552  35.088   6.750
 8594POPC   C3B67221  13.527  35.140   7.050
 8594POPC   C4B67222  13.615  35.126   7.350
 8595POPC   NC367223  18.264  27.557   5.550
 8595POPC   PO467224  18.297  27.564   5.850
 8595POPC   GL167225  18.309  27.632   6.150
 8595POPC   GL267226  18.312  27.498   6.150
 8595POPC   C1A67227  18.242  27.554   6.450
 8595POPC   D2A67228  18.280  27.574   6.750
 8595POPC   C3A67229  18.298  27.629   7.050
 8595POPC   C4A67230  18.302  27.583   7.350
 8595POPC   C1B67231  18.231  27.344   6.450
 8595POPC   C2B67232  18.217  27.310   6.750
 8595POPC   C3B67233  18.241  27.309   7.050
 8595POPC   C4B67234  18.225  27.374   7.350
 8596POPC   NC367235  29.144  33.050   5.550
 8596POPC   PO467236  29.150  33.001   5.850
 8596POPC   GL167237  29.131  33.018   6.150
 8596POPC   GL267238  29.052  32.934   6.150
 8596POPC   C1A67239  29.150  32.979   6.450
 8596POPC   D2A67240  29.174  33.029   6.750
 8596POPC   C3A67241  29.110  32.988   7.050
 8596POPC   C4A67242  29.165  32.987   7.350
 8596POPC   C1B67243  28.934  32.953   6.450
 8596POPC   C2B67244  28.898  32.934   6.750
 8596POPC   C3B67245  28.931  32.986   7.050
 8596POPC   C4B67246  28.935  32.963   7.350
 8597POPC   NC367247   6.686  37.693   5.550
 8597POPC   PO467248   6.663  37.721   5.850
 8597POPC   GL167249   6.606  37.636   6.150
 8597POPC   GL267250   6.713  37.795   6.150
 8597POPC   C1A67251   6.618  37.682   6.450
 8597POPC   D2A67252   6.601  37.679   6.750
 8597POPC   C3A67253   6.651  37.684   7.050
 8597POPC   C4A67254   6.611  37.708   7.350
 8597POPC   C1B67255   6.811  37.865   6.450
 8597POPC   C2B67256   6.810  37.790   6.750
 8597POPC   C3B67257   6.803  37.804   7.050
 8597POPC   C4B67258   6.858  37.853   7.350
 8598POPC   NC367259  18.304  31.440   5.550
 8598POPC   PO467260  18.255  31.500   5.850
 8598POPC   GL167261  18.320  31.459   6.150
 8598POPC   GL267262  18.389  31.447   6.150
 8598POPC   C1A67263  18.316  31.493   6.450
 8598POPC   D2A67264  18.256  31.468   6.750
 8598POPC   C3A67265  18.303  31.518   7.050
 8598POPC   C4A67266  18.283  31.470   7.350
 8598POPC   C1B67267  18.500  31.461   6.450
 8598POPC   C2B67268  18.520  31.471   6.750
 8598POPC   C3B67269  18.489  31.448   7.050
 8598POPC   C4B67270  18.516  31.480   7.350
 8599POPC   NC367271  28.354  20.598   5.550
 8599POPC   PO467272  28.407  20.632   5.850
 8599POPC   GL167273  28.401  20.582   6.150
 8599POPC   GL267274  28.352  20.689   6.150
 8599POPC   C1A67275  28.386  20.595   6.450
 8599POPC   D2A67276  28.400  20.566   6.750
 8599POPC   C3A67277  28.334  20.624   7.050
 8599POPC   C4A67278  28.392  20.600   7.350
 8599POPC   C1B67279  28.337  20.818   6.450
 8599POPC   C2B67280  28.350  20.877   6.750
 8599POPC   C3B67281  28.329  20.819   7.050
 8599POPC   C4B67282  28.312  20.892   7.350
 8600POPC   NC367283  31.451  34.562   5.550
 8600POPC   PO467284  31.454  34.528   5.850
 8600POPC   GL167285  31.460  34.607   6.150
 8600POPC   GL267286  31.340  34.569   6.150
 8600POPC   C1A67287  31.477  34.574   6.450
 8600POPC   D2A67288  31.483  34.554   6.750
 8600POPC   C3A67289  31.487  34.595   7.050
 8600POPC   C4A67290  31.516  34.540   7.350
 8600POPC   C1B67291  31.243  34.690   6.450
 8600POPC   C2B67292  31.182  34.670   6.750
 8600POPC   C3B67293  31.194  34.681   7.050
 8600POPC   C4B67294  31.251  34.671   7.350
 8601POPC   NC367295   0.390  27.568   5.550
 8601POPC   PO467296   0.434  27.582   5.850
 8601POPC   GL167297   0.400  27.638   6.150
 8601POPC   GL267298   0.399  27.459   6.150
 8601POPC   C1A67299   0.418  27.617   6.450
 8601POPC   D2A67300   0.466  27.594   6.750
 8601POPC   C3A67301   0.459  27.614   7.050
 8601POPC   C4A67302   0.455  27.619   7.350
 8601POPC   C1B67303   0.384  27.356   6.450
 8601POPC   C2B67304   0.409  27.341   6.750
 8601POPC   C3B67305   0.446  27.376   7.050
 8601POPC   C4B67306   0.379  27.353   7.350
 8602POPC   NC367307  24.493  26.046   5.550
 8602POPC   PO467308  24.516  26.047   5.850
 8602POPC   GL167309  24.445  26.046   6.150
 8602POPC   GL267310  24.519  25.917   6.150
 8602POPC   C1A67311  24.510  26.089   6.450
 8602POPC   D2A67312  24.535  26.012   6.750
 8602POPC   C3A67313  24.507  26.086   7.050
 8602POPC   C4A67314  24.522  26.071   7.350
 8602POPC   C1B67315  24.661  25.799   6.450
 8602POPC   C2B67316  24.619  25.794   6.750
 8602POPC   C3B67317  24.579  25.785   7.050
 8602POPC   C4B67318  24.662  25.871   7.350
 8603POPC   NC367319  24.477  15.182   5.550
 8603POPC   PO467320  24.461  15.161   5.850
 8603POPC   GL167321  24.462  15.158   6.150
 8603POPC   GL267322  24.419  15.040   6.150
 8603POPC   C1A67323  24.533  15.204   6.450
 8603POPC   D2A67324  24.513  15.228   6.750
 8603POPC   C3A67325  24.441  15.155   7.050
 8603POPC   C4A67326  24.481  15.195   7.350
 8603POPC   C1B67327  24.391  14.962   6.450
 8603POPC   C2B67328  24.356  14.985   6.750
 8603POPC   C3B67329  24.370  14.920   7.050
 8603POPC   C4B67330  24.353  14.959   7.350
 8604POPC   NC367331  34.608  40.019   5.550
 8604POPC   PO467332  34.569  39.976   5.850
 8604POPC   GL167333  34.532  40.028   6.150
 8604POPC   GL267334  34.463  40.031   6.150
 8604POPC   C1A67335  34.569  39.969   6.450
 8604POPC   D2A67336  34.564  39.988   6.750
 8604POPC   C3A67337  34.619  40.042   7.050
 8604POPC   C4A67338  34.578  40.043   7.350
 8604POPC   C1B67339  34.297  40.074   6.450
 8604POPC   C2B67340  34.278  40.019   6.750
 8604POPC   C3B67341  34.281  40.081   7.050
 8604POPC   C4B67342  34.308  40.013   7.350
 8605POPC   NC367343  42.368  13.605   5.550
 8605POPC   PO467344  42.307  13.579   5.850
 8605POPC   GL167345  42.357  13.632   6.150
 8605POPC   GL267346  42.208  13.577   6.150
 8605POPC   C1A67347  42.367  13.628   6.450
 8605POPC   D2A67348  42.331  13.578   6.750
 8605POPC   C3A67349  42.320  13.637   7.050
 8605POPC   C4A67350  42.308  13.655   7.350
 8605POPC   C1B67351  42.082  13.564   6.450
 8605POPC   C2B67352  42.094  13.508   6.750
 8605POPC   C3B67353  42.145  13.570   7.050
 8605POPC   C4B67354  42.141  13.508   7.350
 8606POPC   NC367355  33.830  34.614   5.550
 8606POPC   PO467356  33.829  34.604   5.850
 8606POPC   GL167357  33.768  34.617   6.150
 8606POPC   GL267358  33.703  34.637   6.150
 8606POPC   C1A67359  33.838  34.560   6.450
 8606POPC   D2A67360  33.802  34.570   6.750
 8606POPC   C3A67361  33.750  34.550   7.050
 8606POPC   C4A67362  33.825  34.566   7.350
 8606POPC   C1B67363  33.581  34.636   6.450
 8606POPC   C2B67364  33.574  34.662   6.750
 8606POPC   C3B67365  33.532  34.595   7.050
 8606POPC   C4B67366  33.566  34.686   7.350
 8607POPC   NC367367  15.932   9.008   5.550
 8607POPC   PO467368  16.004   8.967   5.850
 8607POPC   GL167369  15.973   8.986   6.150
 8607POPC   GL267370  16.001   8.836   6.150
 8607POPC   C1A67371  15.915   8.977   6.450
 8607POPC   D2A67372  15.919   8.992   6.750
 8607POPC   C3A67373  15.963   8.966   7.050
 8607POPC   C4A67374  15.972   8.935   7.350
 8607POPC   C1B67375  16.135   8.849   6.450
 8607POPC   C2B67376  16.091   8.788   6.750
 8607POPC   C3B67377  16.087   8.844   7.050
 8607POPC   C4B67378  16.141   8.770   7.350
 8608POPC   NC367379  12.838  12.079   5.550
 8608POPC   PO467380  12.865  12.115   5.850
 8608POPC   GL167381  12.851  12.047   6.150
 8608POPC   GL267382  12.734  11.939   6.150
 8608POPC   C1A67383  12.861  12.029   6.450
 8608POPC   D2A67384  12.868  12.049   6.750
 8608POPC   C3A67385  12.821  12.037   7.050
 8608POPC   C4A67386  12.865  12.086   7.350
 8608POPC   C1B67387  12.706  11.902   6.450
 8608POPC   C2B67388  12.716  11.866   6.750
 8608POPC   C3B67389  12.687  11.910   7.050
 8608POPC   C4B67390  12.734  11.928   7.350
 8609POPC   NC367391   6.675  27.559   5.550
 8609POPC   PO467392   6.602  27.613   5.850
 8609POPC   GL167393   6.604  27.635   6.150
 8609POPC   GL267394   6.690  27.739   6.150
 8609POPC   C1A67395   6.649  27.590   6.450
 8609POPC   D2A67396   6.682  27.575   6.750
 8609POPC   C3A67397   6.607  27.600   7.050
 8609POPC   C4A67398   6.644  27.632   7.350
 8609POPC   C1B67399   6.725  27.793   6.450
 8609POPC   C2B67400   6.756  27.803   6.750
 8609POPC   C3B67401   6.785  27.832   7.050
 8609POPC   C4B67402   6.747  27.851   7.350
 8610POPC   NC367403   3.533  15.197   5.550
 8610POPC   PO467404   3.504  15.169   5.850
 8610POPC   GL167405   3.579  15.147   6.150
 8610POPC   GL267406   3.469  15.283   6.150
 8610POPC   C1A67407   3.499  15.141   6.450
 8610POPC   D2A67408   3.566  15.204   6.750
 8610POPC   C3A67409   3.590  15.169   7.050
 8610POPC   C4A67410   3.502  15.162   7.350
 8610POPC   C1B67411   3.415  15.361   6.450
 8610POPC   C2B67412   3.487  15.449   6.750
 8610POPC   C3B67413   3.419  15.364   7.050
 8610POPC   C4B67414   3.406  15.412   7.350
 8611POPC   NC367415  37.688  37.702   5.550
 8611POPC   PO467416  37.672  37.728   5.850
 8611POPC   GL167417  37.667  37.635   6.150
 8611POPC   GL267418  37.775  37.823   6.150
 8611POPC   C1A67419  37.664  37.688   6.450
 8611POPC   D2A67420  37.665  37.708   6.750
 8611POPC   C3A67421  37.704  37.711   7.050
 8611POPC   C4A67422  37.633  37.705   7.350
 8611POPC   C1B67423  37.830  37.893   6.450
 8611POPC   C2B67424  37.823  37.875   6.750
 8611POPC   C3B67425  37.862  37.895   7.050
 8611POPC   C4B67426  37.866  37.866   7.350
 8612POPC   NC367427  19.084  28.333   5.550
 8612POPC   PO467428  19.096  28.397   5.850
 8612POPC   GL167429  19.059  28.338   6.150
 8612POPC   GL267430  18.902  28.274   6.150
 8612POPC   C1A67431  19.075  28.348   6.450
 8612POPC   D2A67432  19.072  28.338   6.750
 8612POPC   C3A67433  19.035  28.366   7.050
 8612POPC   C4A67434  19.028  28.324   7.350
 8612POPC   C1B67435  18.866  28.215   6.450
 8612POPC   C2B67436  18.847  28.277   6.750
 8612POPC   C3B67437  18.882  28.240   7.050
 8612POPC   C4B67438  18.831  28.211   7.350
 8613POPC   NC367439  39.186   8.961   5.550
 8613POPC   PO467440  39.236   8.991   5.850
 8613POPC   GL167441  39.221   9.001   6.150
 8613POPC   GL267442  39.136   9.042   6.150
 8613POPC   C1A67443  39.256   8.925   6.450
 8613POPC   D2A67444  39.214   9.002   6.750
 8613POPC   C3A67445  39.255   9.000   7.050
 8613POPC   C4A67446  39.265   8.993   7.350
 8613POPC   C1B67447  38.998   9.116   6.450
 8613POPC   C2B67448  39.082   9.092   6.750
 8613POPC   C3B67449  39.052   9.155   7.050
 8613POPC   C4B67450  39.082   9.117   7.350
 8614POPC   NC367451   3.583   5.046   5.550
 8614POPC   PO467452   3.559   5.100   5.850
 8614POPC   GL167453   3.558   5.142   6.150
 8614POPC   GL267454   3.711   5.025   6.150
 8614POPC   C1A67455   3.544   5.067   6.450
 8614POPC   D2A67456   3.537   5.066   6.750
 8614POPC   C3A67457   3.538   5.083   7.050
 8614POPC   C4A67458   3.507   5.100   7.350
 8614POPC   C1B67459   3.814   5.026   6.450
 8614POPC   C2B67460   3.833   5.086   6.750
 8614POPC   C3B67461   3.808   5.060   7.050
 8614POPC   C4B67462   3.784   5.006   7.350
 8615POPC   NC367463  36.086  26.822   5.550
 8615POPC   PO467464  36.158  26.813   5.850
 8615POPC   GL167465  36.081  26.846   6.150
 8615POPC   GL267466  36.041  26.830   6.150
 8615POPC   C1A67467  36.118  26.795   6.450
 8615POPC   D2A67468  36.088  26.806   6.750
 8615POPC   C3A67469  36.168  26.788   7.050
 8615POPC   C4A67470  36.108  26.856   7.350
 8615POPC   C1B67471  35.915  26.847   6.450
 8615POPC   C2B67472  35.925  26.789   6.750
 8615POPC   C3B67473  35.860  26.852   7.050
 8615POPC   C4B67474  35.901  26.837   7.350
 8616POPC   NC367475  26.815  19.869   5.550
 8616POPC   PO467476  26.788  19.844   5.850
 8616POPC   GL167477  26.834  19.837   6.150
 8616POPC   GL267478  26.667  19.823   6.150
 8616POPC   C1A67479  26.823  19.798   6.450
 8616POPC   D2A67480  26.776  19.804   6.750
 8616POPC   C3A67481  26.770  19.814   7.050
 8616POPC   C4A67482  26.809  19.861   7.350
 8616POPC   C1B67483  26.543  19.734   6.450
 8616POPC   C2B67484  26.537  19.758   6.750
 8616POPC   C3B67485  26.529  19.798   7.050
 8616POPC   C4B67486  26.580  19.827   7.350
 8617POPC   NC367487  25.313  11.295   5.550
 8617POPC   PO467488  25.276  11.280   5.850
 8617POPC   GL167489  25.256  11.268   6.150
 8617POPC   GL267490  25.313  11.401   6.150
 8617POPC   C1A67491  25.297  11.290   6.450
 8617POPC   D2A67492  25.231  11.275   6.750
 8617POPC   C3A67493  25.252  11.254   7.050
 8617POPC   C4A67494  25.300  11.280   7.350
 8617POPC   C1B67495  25.397  11.527   6.450
 8617POPC   C2B67496  25.364  11.567   6.750
 8617POPC   C3B67497  25.364  11.533   7.050
 8617POPC   C4B67498  25.321  11.525   7.350
 8618POPC   NC367499   7.405  35.400   5.550
 8618POPC   PO467500   7.385  35.330   5.850
 8618POPC   GL167501   7.462  35.312   6.150
 8618POPC   GL267502   7.257  35.406   6.150
 8618POPC   C1A67503   7.379  35.380   6.450
 8618POPC   D2A67504   7.375  35.363   6.750
 8618POPC   C3A67505   7.460  35.398   7.050
 8618POPC   C4A67506   7.469  35.393   7.350
 8618POPC   C1B67507   7.183  35.352   6.450
 8618POPC   C2B67508   7.208  35.352   6.750
 8618POPC   C3B67509   7.208  35.415   7.050
 8618POPC   C4B67510   7.137  35.435   7.350
 8619POPC   NC367511  40.807   1.946   5.550
 8619POPC   PO467512  40.826   1.989   5.850
 8619POPC   GL167513  40.799   2.026   6.150
 8619POPC   GL267514  40.637   2.007   6.150
 8619POPC   C1A67515  40.737   1.998   6.450
 8619POPC   D2A67516  40.815   1.941   6.750
 8619POPC   C3A67517  40.757   2.038   7.050
 8619POPC   C4A67518  40.742   1.972   7.350
 8619POPC   C1B67519  40.541   1.908   6.450
 8619POPC   C2B67520  40.524   1.909   6.750
 8619POPC   C3B67521  40.495   1.903   7.050
 8619POPC   C4B67522  40.518   1.943   7.350
 8620POPC   NC367523   7.418   5.119   5.550
 8620POPC   PO467524   7.412   5.097   5.850
 8620POPC   GL167525   7.452   5.079   6.150
 8620POPC   GL267526   7.548   5.103   6.150
 8620POPC   C1A67527   7.438   5.064   6.450
 8620POPC   D2A67528   7.425   5.105   6.750
 8620POPC   C3A67529   7.463   5.090   7.050
 8620POPC   C4A67530   7.395   5.103   7.350
 8620POPC   C1B67531   7.708   5.102   6.450
 8620POPC   C2B67532   7.628   5.141   6.750
 8620POPC   C3B67533   7.717   5.137   7.050
 8620POPC   C4B67534   7.654   5.146   7.350
 8621POPC   NC367535  31.493  12.856   5.550
 8621POPC   PO467536  31.427  12.809   5.850
 8621POPC   GL167537  31.433  12.877   6.150
 8621POPC   GL267538  31.472  13.019   6.150
 8621POPC   C1A67539  31.518  12.835   6.450
 8621POPC   D2A67540  31.458  12.890   6.750
 8621POPC   C3A67541  31.428  12.875   7.050
 8621POPC   C4A67542  31.504  12.803   7.350
 8621POPC   C1B67543  31.475  13.100   6.450
 8621POPC   C2B67544  31.448  13.090   6.750
 8621POPC   C3B67545  31.461  13.093   7.050
 8621POPC   C4B67546  31.484  13.149   7.350
 8622POPC   NC367547  10.542  26.866   5.550
 8622POPC   PO467548  10.555  26.783   5.850
 8622POPC   GL167549  10.528  26.796   6.150
 8622POPC   GL267550  10.466  26.678   6.150
 8622POPC   C1A67551  10.552  26.789   6.450
 8622POPC   D2A67552  10.557  26.851   6.750
 8622POPC   C3A67553  10.507  26.824   7.050
 8622POPC   C4A67554  10.494  26.833   7.350
 8622POPC   C1B67555  10.409  26.549   6.450
 8622POPC   C2B67556  10.462  26.592   6.750
 8622POPC   C3B67557  10.454  26.584   7.050
 8622POPC   C4B67558  10.431  26.549   7.350
 8623POPC   NC367559  42.358  26.047   5.550
 8623POPC   PO467560  42.352  26.049   5.850
 8623POPC   GL167561  42.299  26.041   6.150
 8623POPC   GL267562  42.267  25.939   6.150
 8623POPC   C1A67563  42.303  26.039   6.450
 8623POPC   D2A67564  42.357  26.066   6.750
 8623POPC   C3A67565  42.303  26.011   7.050
 8623POPC   C4A67566  42.322  26.053   7.350
 8623POPC   C1B67567  42.157  25.885   6.450
 8623POPC   C2B67568  42.157  25.912   6.750
 8623POPC   C3B67569  42.128  25.851   7.050
 8623POPC   C4B67570  42.109  25.903   7.350
 8624POPC   NC367571  32.201   8.186   5.550
 8624POPC   PO467572  32.288   8.214   5.850
 8624POPC   GL167573  32.219   8.167   6.150
 8624POPC   GL267574  32.303   8.287   6.150
 8624POPC   C1A67575  32.209   8.228   6.450
 8624POPC   D2A67576  32.289   8.170   6.750
 8624POPC   C3A67577  32.258   8.242   7.050
 8624POPC   C4A67578  32.293   8.171   7.350
 8624POPC   C1B67579  32.262   8.405   6.450
 8624POPC   C2B67580  32.230   8.438   6.750
 8624POPC   C3B67581  32.236   8.397   7.050
 8624POPC   C4B67582  32.314   8.451   7.350
 8625POPC   NC367583  14.395  42.292   5.550
 8625POPC   PO467584  14.391  42.364   5.850
 8625POPC   GL167585  14.451  42.320   6.150
 8625POPC   GL267586  14.372  42.231   6.150
 8625POPC   C1A67587  14.395  42.380   6.450
 8625POPC   D2A67588  14.368  42.296   6.750
 8625POPC   C3A67589  14.382  42.327   7.050
 8625POPC   C4A67590  14.402  42.323   7.350
 8625POPC   C1B67591  14.241  42.084   6.450
 8625POPC   C2B67592  14.318  42.101   6.750
 8625POPC   C3B67593  14.337  42.069   7.050
 8625POPC   C4B67594  14.280  42.127   7.350
 8626POPC   NC367595   1.226  35.401   5.550
 8626POPC   PO467596   1.180  35.384   5.850
 8626POPC   GL167597   1.202  35.353   6.150
 8626POPC   GL267598   1.213  35.244   6.150
 8626POPC   C1A67599   1.165  35.349   6.450
 8626POPC   D2A67600   1.239  35.368   6.750
 8626POPC   C3A67601   1.181  35.357   7.050
 8626POPC   C4A67602   1.242  35.314   7.350
 8626POPC   C1B67603   1.162  35.093   6.450
 8626POPC   C2B67604   1.169  35.079   6.750
 8626POPC   C3B67605   1.214  35.077   7.050
 8626POPC   C4B67606   1.154  35.148   7.350
 8627POPC   NC367607   2.804  20.647   5.550
 8627POPC   PO467608   2.744  20.612   5.850
 8627POPC   GL167609   2.735  20.562   6.150
 8627POPC   GL267610   2.845  20.728   6.150
 8627POPC   C1A67611   2.725  20.594   6.450
 8627POPC   D2A67612   2.801  20.602   6.750
 8627POPC   C3A67613   2.767  20.572   7.050
 8627POPC   C4A67614   2.725  20.566   7.350
 8627POPC   C1B67615   2.829  20.839   6.450
 8627POPC   C2B67616   2.830  20.858   6.750
 8627POPC   C3B67617   2.904  20.848   7.050
 8627POPC   C4B67618   2.914  20.861   7.350
 8628POPC   NC367619   9.762   6.627   5.550
 8628POPC   PO467620   9.742   6.678   5.850
 8628POPC   GL167621   9.766   6.688   6.150
 8628POPC   GL267622   9.827   6.748   6.150
 8628POPC   C1A67623   9.786   6.629   6.450
 8628POPC   D2A67624   9.782   6.678   6.750
 8628POPC   C3A67625   9.698   6.666   7.050
 8628POPC   C4A67626   9.793   6.646   7.350
 8628POPC   C1B67627   9.945   6.787   6.450
 8628POPC   C2B67628   9.909   6.832   6.750
 8628POPC   C3B67629   9.928   6.834   7.050
 8628POPC   C4B67630   9.974   6.759   7.350
 8629POPC   NC367631  24.496  33.775   5.550
 8629POPC   PO467632  24.495  33.844   5.850
 8629POPC   GL167633  24.465  33.839   6.150
 8629POPC   GL267634  24.487  33.955   6.150
 8629POPC   C1A67635  24.496  33.823   6.450
 8629POPC   D2A67636  24.442  33.815   6.750
 8629POPC   C3A67637  24.481  33.835   7.050
 8629POPC   C4A67638  24.530  33.763   7.350
 8629POPC   C1B67639  24.470  34.045   6.450
 8629POPC   C2B67640  24.385  33.998   6.750
 8629POPC   C3B67641  24.389  34.030   7.050
 8629POPC   C4B67642  24.459  34.031   7.350
 8630POPC   NC367643  27.638  23.751   5.550
 8630POPC   PO467644  27.553  23.763   5.850
 8630POPC   GL167645  27.637  23.718   6.150
 8630POPC   GL267646  27.442  23.654   6.150
 8630POPC   C1A67647  27.553  23.722   6.450
 8630POPC   D2A67648  27.570  23.679   6.750
 8630POPC   C3A67649  27.640  23.732   7.050
 8630POPC   C4A67650  27.584  23.749   7.350
 8630POPC   C1B67651  27.311  23.615   6.450
 8630POPC   C2B67652  27.332  23.626   6.750
 8630POPC   C3B67653  27.345  23.659   7.050
 8630POPC   C4B67654  27.340  23.664   7.350
 8631POPC   NC367655  16.692   5.835   5.550
 8631POPC   PO467656  16.686   5.910   5.850
 8631POPC   GL167657  16.715   5.916   6.150
 8631POPC   GL267658  16.817   5.771   6.150
 8631POPC   C1A67659  16.745   5.912   6.450
 8631POPC   D2A67660  16.705   5.839   6.750
 8631POPC   C3A67661  16.734   5.865   7.050
 8631POPC   C4A67662  16.695   5.852   7.350
 8631POPC   C1B67663  16.893   5.620   6.450
 8631POPC   C2B67664  16.910   5.690   6.750
 8631POPC   C3B67665  16.853   5.683   7.050
 8631POPC   C4B67666  16.881   5.691   7.350
 8632POPC   NC367667  24.508  40.807   5.550
 8632POPC   PO467668  24.465  40.823   5.850
 8632POPC   GL167669  24.521  40.752   6.150
 8632POPC   GL267670  24.403  40.833   6.150
 8632POPC   C1A67671  24.518  40.786   6.450
 8632POPC   D2A67672  24.470  40.754   6.750
 8632POPC   C3A67673  24.466  40.823   7.050
 8632POPC   C4A67674  24.453  40.792   7.350
 8632POPC   C1B67675  24.268  40.857   6.450
 8632POPC   C2B67676  24.213  40.881   6.750
 8632POPC   C3B67677  24.213  40.887   7.050
 8632POPC   C4B67678  24.290  40.814   7.350
 8633POPC   NC367679  27.642  36.933   5.550
 8633POPC   PO467680  27.552  36.889   5.850
 8633POPC   GL167681  27.561  36.932   6.150
 8633POPC   GL267682  27.504  36.843   6.150
 8633POPC   C1A67683  27.549  36.934   6.450
 8633POPC   D2A67684  27.594  36.856   6.750
 8633POPC   C3A67685  27.560  36.944   7.050
 8633POPC   C4A67686  27.601  36.899   7.350
 8633POPC   C1B67687  27.327  36.848   6.450
 8633POPC   C2B67688  27.375  36.851   6.750
 8633POPC   C3B67689  27.307  36.808   7.050
 8633POPC   C4B67690  27.368  36.875   7.350
 8634POPC   NC367691  43.061  44.620   5.550
 8634POPC   PO467692  43.145  44.621   5.850
 8634POPC   GL167693  43.154  44.653   6.150
 8634POPC   GL267694  43.131  44.808   6.150
 8634POPC   C1A67695  43.129  44.706   6.450
 8634POPC   D2A67696  43.097  44.655   6.750
 8634POPC   C3A67697  43.104  44.701   7.050
 8634POPC   C4A67698  43.094  44.630   7.350
 8634POPC   C1B67699  43.294  44.890   6.450
 8634POPC   C2B67700  43.243  44.859   6.750
 8634POPC   C3B67701  43.235  44.823   7.050
 8634POPC   C4B67702  43.269  44.902   7.350
 8635POPC   NC367703  43.902  15.216   5.550
 8635POPC   PO467704  43.934  15.154   5.850
 8635POPC   GL167705  43.853  15.200   6.150
 8635POPC   GL267706  43.966  15.207   6.150
 8635POPC   C1A67707  43.875  15.208   6.450
 8635POPC   D2A67708  43.841  15.202   6.750
 8635POPC   C3A67709  43.864  15.155   7.050
 8635POPC   C4A67710  43.845  15.208   7.350
 8635POPC   C1B67711  44.114  15.216   6.450
 8635POPC   C2B67712  44.161  15.177   6.750
 8635POPC   C3B67713  44.122  15.187   7.050
 8635POPC   C4B67714  44.085  15.190   7.350
 8636POPC   NC367715   5.880  40.785   5.550
 8636POPC   PO467716   5.895  40.807   5.850
 8636POPC   GL167717   5.861  40.815   6.150
 8636POPC   GL267718   5.955  40.688   6.150
 8636POPC   C1A67719   5.828  40.735   6.450
 8636POPC   D2A67720   5.830  40.803   6.750
 8636POPC   C3A67721   5.873  40.771   7.050
 8636POPC   C4A67722   5.894  40.809   7.350
 8636POPC   C1B67723   6.043  40.584   6.450
 8636POPC   C2B67724   6.037  40.626   6.750
 8636POPC   C3B67725   6.037  40.606   7.050
 8636POPC   C4B67726   5.990  40.637   7.350
 8637POPC   NC367727  19.094  31.508   5.550
 8637POPC   PO467728  19.088  31.460   5.850
 8637POPC   GL167729  19.100  31.495   6.150
 8637POPC   GL267730  19.213  31.416   6.150
 8637POPC   C1A67731  19.059  31.463   6.450
 8637POPC   D2A67732  19.025  31.441   6.750
 8637POPC   C3A67733  19.058  31.434   7.050
 8637POPC   C4A67734  19.071  31.481   7.350
 8637POPC   C1B67735  19.237  31.320   6.450
 8637POPC   C2B67736  19.294  31.351   6.750
 8637POPC   C3B67737  19.253  31.372   7.050
 8637POPC   C4B67738  19.265  31.317   7.350
 8638POPC   NC367739  25.288  26.006   5.550
 8638POPC   PO467740  25.272  26.055   5.850
 8638POPC   GL167741  25.308  26.058   6.150
 8638POPC   GL267742  25.384  25.975   6.150
 8638POPC   C1A67743  25.289  26.006   6.450
 8638POPC   D2A67744  25.260  26.075   6.750
 8638POPC   C3A67745  25.289  26.023   7.050
 8638POPC   C4A67746  25.306  26.001   7.350
 8638POPC   C1B67747  25.462  25.935   6.450
 8638POPC   C2B67748  25.513  25.847   6.750
 8638POPC   C3B67749  25.497  25.918   7.050
 8638POPC   C4B67750  25.480  25.921   7.350
 8639POPC   NC367751  30.665   7.386   5.550
 8639POPC   PO467752  30.702   7.463   5.850
 8639POPC   GL167753  30.667   7.445   6.150
 8639POPC   GL267754  30.766   7.316   6.150
 8639POPC   C1A67755  30.691   7.400   6.450
 8639POPC   D2A67756  30.648   7.375   6.750
 8639POPC   C3A67757  30.686   7.433   7.050
 8639POPC   C4A67758  30.652   7.449   7.350
 8639POPC   C1B67759  30.906   7.243   6.450
 8639POPC   C2B67760  30.822   7.225   6.750
 8639POPC   C3B67761  30.823   7.264   7.050
 8639POPC   C4B67762  30.871   7.245   7.350
 8640POPC   NC367763  30.715  25.999   5.550
 8640POPC   PO467764  30.665  26.050   5.850
 8640POPC   GL167765  30.664  26.034   6.150
 8640POPC   GL267766  30.774  26.112   6.150
 8640POPC   C1A67767  30.683  26.009   6.450
 8640POPC   D2A67768  30.706  26.020   6.750
 8640POPC   C3A67769  30.653  26.024   7.050
 8640POPC   C4A67770  30.658  26.051   7.350
 8640POPC   C1B67771  30.923  26.221   6.450
 8640POPC   C2B67772  30.876  26.214   6.750
 8640POPC   C3B67773  30.937  26.188   7.050
 8640POPC   C4B67774  30.929  26.216   7.350
 8641POPC   NC367775  32.203   7.372   5.550
 8641POPC   PO467776  32.269   7.407   5.850
 8641POPC   GL167777  32.214   7.395   6.150
 8641POPC   GL267778  32.367   7.352   6.150
 8641POPC   C1A67779  32.281   7.388   6.450
 8641POPC   D2A67780  32.280   7.397   6.750
 8641POPC   C3A67781  32.289   7.449   7.050
 8641POPC   C4A67782  32.270   7.457   7.350
 8641POPC   C1B67783  32.456   7.197   6.450
 8641POPC   C2B67784  32.386   7.262   6.750
 8641POPC   C3B67785  32.449   7.220   7.050
 8641POPC   C4B67786  32.455   7.284   7.350
 8642POPC   NC367787  10.546  30.734   5.550
 8642POPC   PO467788  10.501  30.726   5.850
 8642POPC   GL167789  10.560  30.687   6.150
 8642POPC   GL267790  10.492  30.823   6.150
 8642POPC   C1A67791  10.570  30.684   6.450
 8642POPC   D2A67792  10.561  30.653   6.750
 8642POPC   C3A67793  10.484  30.692   7.050
 8642POPC   C4A67794  10.546  30.673   7.350
 8642POPC   C1B67795  10.496  30.947   6.450
 8642POPC   C2B67796  10.469  30.949   6.750
 8642POPC   C3B67797  10.472  30.949   7.050
 8642POPC   C4B67798  10.504  30.982   7.350
 8643POPC   NC367799  37.691  15.141   5.550
 8643POPC   PO467800  37.695  15.223   5.850
 8643POPC   GL167801  37.644  15.192   6.150
 8643POPC   GL267802  37.634  15.310   6.150
 8643POPC   C1A67803  37.665  15.139   6.450
 8643POPC   D2A67804  37.728  15.197   6.750
 8643POPC   C3A67805  37.655  15.179   7.050
 8643POPC   C4A67806  37.723  15.171   7.350
 8643POPC   C1B67807  37.653  15.455   6.450
 8643POPC   C2B67808  37.634  15.391   6.750
 8643POPC   C3B67809  37.629  15.434   7.050
 8643POPC   C4B67810  37.681  15.451   7.350
 8644POPC   NC367811  21.401  28.359   5.550
 8644POPC   PO467812  21.373  28.333   5.850
 8644POPC   GL167813  21.338  28.414   6.150
 8644POPC   GL267814  21.272  28.267   6.150
 8644POPC   C1A67815  21.406  28.347   6.450
 8644POPC   D2A67816  21.413  28.368   6.750
 8644POPC   C3A67817  21.395  28.344   7.050
 8644POPC   C4A67818  21.336  28.387   7.350
 8644POPC   C1B67819  21.164  28.213   6.450
 8644POPC   C2B67820  21.219  28.202   6.750
 8644POPC   C3B67821  21.173  28.207   7.050
 8644POPC   C4B67822  21.233  28.205   7.350
 8645POPC   NC367823  28.347  27.546   5.550
 8645POPC   PO467824  28.416  27.578   5.850
 8645POPC   GL167825  28.371  27.555   6.150
 8645POPC   GL267826  28.325  27.510   6.150
 8645POPC   C1A67827  28.417  27.605   6.450
 8645POPC   D2A67828  28.337  27.565   6.750
 8645POPC   C3A67829  28.417  27.571   7.050
 8645POPC   C4A67830  28.407  27.629   7.350
 8645POPC   C1B67831  28.236  27.397   6.450
 8645POPC   C2B67832  28.260  27.324   6.750
 8645POPC   C3B67833  28.247  27.379   7.050
 8645POPC   C4B67834  28.243  27.338   7.350
 8646POPC   NC367835  43.148  39.982   5.550
 8646POPC   PO467836  43.084  40.017   5.850
 8646POPC   GL167837  43.155  39.979   6.150
 8646POPC   GL267838  43.201  40.071   6.150
 8646POPC   C1A67839  43.141  40.038   6.450
 8646POPC   D2A67840  43.072  40.020   6.750
 8646POPC   C3A67841  43.097  39.961   7.050
 8646POPC   C4A67842  43.138  39.999   7.350
 8646POPC   C1B67843  43.367  40.020   6.450
 8646POPC   C2B67844  43.311  40.042   6.750
 8646POPC   C3B67845  43.310  40.023   7.050
 8646POPC   C4B67846  43.321  40.015   7.350
 8647POPC   NC367847  33.824  29.895   5.550
 8647POPC   PO467848  33.809  29.921   5.850
 8647POPC   GL167849  33.781  29.923   6.150
 8647POPC   GL267850  33.882  29.894   6.150
 8647POPC   C1A67851  33.800  29.931   6.450
 8647POPC   D2A67852  33.791  29.943   6.750
 8647POPC   C3A67853  33.788  29.940   7.050
 8647POPC   C4A67854  33.794  29.951   7.350
 8647POPC   C1B67855  34.035  29.884   6.450
 8647POPC   C2B67856  34.082  29.877   6.750
 8647POPC   C3B67857  34.005  29.922   7.050
 8647POPC   C4B67858  34.033  29.933   7.350
 8648POPC   NC367859  40.014  39.984   5.550
 8648POPC   PO467860  40.023  40.003   5.850
 8648POPC   GL167861  40.023  39.986   6.150
 8648POPC   GL267862  39.851  40.069   6.150
 8648POPC   C1A67863  39.983  39.973   6.450
 8648POPC   D2A67864  40.026  40.046   6.750
 8648POPC   C3A67865  39.988  40.006   7.050
 8648POPC   C4A67866  40.013  40.041   7.350
 8648POPC   C1B67867  39.811  40.108   6.450
 8648POPC   C2B67868  39.795  40.076   6.750
 8648POPC   C3B67869  39.815  40.145   7.050
 8648POPC   C4B67870  39.811  40.102   7.350
 8649POPC   NC367871  40.788   7.432   5.550
 8649POPC   PO467872  40.757   7.439   5.850
 8649POPC   GL167873  40.828   7.431   6.150
 8649POPC   GL267874  40.655   7.505   6.150
 8649POPC   C1A67875  40.802   7.462   6.450
 8649POPC   D2A67876  40.810   7.451   6.750
 8649POPC   C3A67877  40.748   7.465   7.050
 8649POPC   C4A67878  40.761   7.414   7.350
 8649POPC   C1B67879  40.522   7.476   6.450
 8649POPC   C2B67880  40.588   7.551   6.750
 8649POPC   C3B67881  40.581   7.526   7.050
 8649POPC   C4B67882  40.518   7.498   7.350
 8650POPC   NC367883  36.122  36.873   5.550
 8650POPC   PO467884  36.128  36.878   5.850
 8650POPC   GL167885  36.162  36.925   6.150
 8650POPC   GL267886  36.206  36.867   6.150
 8650POPC   C1A67887  36.079  36.923   6.450
 8650POPC   D2A67888  36.120  36.885   6.750
 8650POPC   C3A67889  36.079  36.930   7.050
 8650POPC   C4A67890  36.169  36.947   7.350
 8650POPC   C1B67891  36.359  36.806   6.450
 8650POPC   C2B67892  36.315  36.802   6.750
 8650POPC   C3B67893  36.355  36.848   7.050
 8650POPC   C4B67894  36.373  36.768   7.350
 8651POPC   NC367895  28.408   2.777   5.550
 8651POPC   PO467896  28.338   2.780   5.850
 8651POPC   GL167897  28.358   2.806   6.150
 8651POPC   GL267898  28.353   2.674   6.150
 8651POPC   C1A67899  28.369   2.728   6.450
 8651POPC   D2A67900  28.373   2.771   6.750
 8651POPC   C3A67901  28.363   2.786   7.050
 8651POPC   C4A67902  28.418   2.774   7.350
 8651POPC   C1B67903  28.327   2.542   6.450
 8651POPC   C2B67904  28.290   2.487   6.750
 8651POPC   C3B67905  28.304   2.474   7.050
 8651POPC   C4B67906  28.382   2.542   7.350
 8652POPC   NC367907   5.116   6.658   5.550
 8652POPC   PO467908   5.082   6.599   5.850
 8652POPC   GL167909   5.070   6.659   6.150
 8652POPC   GL267910   4.984   6.553   6.150
 8652POPC   C1A67911   5.047   6.647   6.450
 8652POPC   D2A67912   5.139   6.628   6.750
 8652POPC   C3A67913   5.056   6.681   7.050
 8652POPC   C4A67914   5.051   6.689   7.350
 8652POPC   C1B67915   4.940   6.479   6.450
 8652POPC   C2B67916   4.920   6.467   6.750
 8652POPC   C3B67917   4.951   6.425   7.050
 8652POPC   C4B67918   4.971   6.442   7.350
 8653POPC   NC367919  32.982  38.473   5.550
 8653POPC   PO467920  33.063  38.464   5.850
 8653POPC   GL167921  33.039  38.479   6.150
 8653POPC   GL267922  33.109  38.495   6.150
 8653POPC   C1A67923  33.033  38.410   6.450
 8653POPC   D2A67924  33.070  38.436   6.750
 8653POPC   C3A67925  33.046  38.458   7.050
 8653POPC   C4A67926  33.003  38.450   7.350
 8653POPC   C1B67927  33.225  38.494   6.450
 8653POPC   C2B67928  33.242  38.529   6.750
 8653POPC   C3B67929  33.287  38.512   7.050
 8653POPC   C4B67930  33.224  38.508   7.350
 8654POPC   NC367931  37.680  35.369   5.550
 8654POPC   PO467932  37.654  35.391   5.850
 8654POPC   GL167933  37.632  35.317   6.150
 8654POPC   GL267934  37.656  35.474   6.150
 8654POPC   C1A67935  37.691  35.371   6.450
 8654POPC   D2A67936  37.633  35.394   6.750
 8654POPC   C3A67937  37.639  35.390   7.050
 8654POPC   C4A67938  37.698  35.323   7.350
 8654POPC   C1B67939  37.529  35.563   6.450
 8654POPC   C2B67940  37.611  35.537   6.750
 8654POPC   C3B67941  37.585  35.600   7.050
 8654POPC   C4B67942  37.607  35.559   7.350
 8655POPC   NC367943  40.025  31.450   5.550
 8655POPC   PO467944  39.982  31.455   5.850
 8655POPC   GL167945  40.008  31.445   6.150
 8655POPC   GL267946  39.990  31.375   6.150
 8655POPC   C1A67947  40.053  31.473   6.450
 8655POPC   D2A67948  39.985  31.447   6.750
 8655POPC   C3A67949  39.974  31.434   7.050
 8655POPC   C4A67950  39.959  31.436   7.350
 8655POPC   C1B67951  39.896  31.264   6.450
 8655POPC   C2B67952  39.915  31.209   6.750
 8655POPC   C3B67953  39.904  31.282   7.050
 8655POPC   C4B67954  39.887  31.297   7.350
 8656POPC   NC367955  12.091  24.475   5.550
 8656POPC   PO467956  12.033  24.485   5.850
 8656POPC   GL167957  12.122  24.517   6.150
 8656POPC   GL267958  12.169  24.450   6.150
 8656POPC   C1A67959  12.027  24.452   6.450
 8656POPC   D2A67960  12.100  24.442   6.750
 8656POPC   C3A67961  12.035  24.528   7.050
 8656POPC   C4A67962  12.123  24.479   7.350
 8656POPC   C1B67963  12.316  24.370   6.450
 8656POPC   C2B67964  12.272  24.424   6.750
 8656POPC   C3B67965  12.291  24.349   7.050
 8656POPC   C4B67966  12.280  24.345   7.350
 8657POPC   NC367967   5.084  14.361   5.550
 8657POPC   PO467968   5.124  14.427   5.850
 8657POPC   GL167969   5.050  14.436   6.150
 8657POPC   GL267970   5.074  14.573   6.150
 8657POPC   C1A67971   5.059  14.357   6.450
 8657POPC   D2A67972   5.116  14.421   6.750
 8657POPC   C3A67973   5.103  14.428   7.050
 8657POPC   C4A67974   5.087  14.373   7.350
 8657POPC   C1B67975   5.173  14.689   6.450
 8657POPC   C2B67976   5.170  14.606   6.750
 8657POPC   C3B67977   5.151  14.624   7.050
 8657POPC   C4B67978   5.181  14.653   7.350
 8658POPC   NC367979   1.223   5.858   5.550
 8658POPC   PO467980   1.231   5.876   5.850
 8658POPC   GL167981   1.261   5.881   6.150
 8658POPC   GL267982   1.322   5.963   6.150
 8658POPC   C1A67983   1.217   5.839   6.450
 8658POPC   D2A67984   1.164   5.886   6.750
 8658POPC   C3A67985   1.217   5.884   7.050
 8658POPC   C4A67986   1.191   5.911   7.350
 8658POPC   C1B67987   1.347   6.060   6.450
 8658POPC   C2B67988   1.317   6.085   6.750
 8658POPC   C3B67989   1.390   6.046   7.050
 8658POPC   C4B67990   1.346   6.061   7.350
 8659POPC   NC367991  26.019  38.488   5.550
 8659POPC   PO467992  26.060  38.425   5.850
 8659POPC   GL167993  26.041  38.459   6.150
 8659POPC   GL267994  26.170  38.397   6.150
 8659POPC   C1A67995  26.004  38.458   6.450
 8659POPC   D2A67996  26.039  38.459   6.750
 8659POPC   C3A67997  26.087  38.467   7.050
 8659POPC   C4A67998  26.091  38.495   7.350
 8659POPC   C1B67999  26.179  38.292   6.450
 8659POPC   C2B68000  26.266  38.289   6.750
 8659POPC   C3B68001  26.246  38.241   7.050
 8659POPC   C4B68002  26.227  38.284   7.350
 8660POPC   NC368003  15.995  29.119   5.550
 8660POPC   PO468004  15.966  29.167   5.850
 8660POPC   GL168005  15.937  29.123   6.150
 8660POPC   GL268006  15.909  29.270   6.150
 8660POPC   C1A68007  15.977  29.099   6.450
 8660POPC   D2A68008  15.925  29.138   6.750
 8660POPC   C3A68009  15.931  29.175   7.050
 8660POPC   C4A68010  15.956  29.124   7.350
 8660POPC   C1B68011  15.901  29.383   6.450
 8660POPC   C2B68012  15.912  29.405   6.750
 8660POPC   C3B68013  15.890  29.425   7.050
 8660POPC   C4B68014  15.933  29.400   7.350
 8661POPC   NC368015  34.557  35.350   5.550
 8661POPC   PO468016  34.565  35.327   5.850
 8661POPC   GL168017  34.593  35.398   6.150
 8661POPC   GL268018  34.645  35.493   6.150
 8661POPC   C1A68019  34.552  35.360   6.450
 8661POPC   D2A68020  34.582  35.302   6.750
 8661POPC   C3A68021  34.619  35.345   7.050
 8661POPC   C4A68022  34.573  35.353   7.350
 8661POPC   C1B68023  34.608  35.549   6.450
 8661POPC   C2B68024  34.691  35.634   6.750
 8661POPC   C3B68025  34.695  35.624   7.050
 8661POPC   C4B68026  34.639  35.547   7.350
 8662POPC   NC368027  26.780  22.202   5.550
 8662POPC   PO468028  26.773  22.135   5.850
 8662POPC   GL168029  26.809  22.137   6.150
 8662POPC   GL268030  26.957  22.185   6.150
 8662POPC   C1A68031  26.833  22.160   6.450
 8662POPC   D2A68032  26.865  22.200   6.750
 8662POPC   C3A68033  26.815  22.158   7.050
 8662POPC   C4A68034  26.853  22.136   7.350
 8662POPC   C1B68035  27.054  22.279   6.450
 8662POPC   C2B68036  27.035  22.267   6.750
 8662POPC   C3B68037  27.038  22.242   7.050
 8662POPC   C4B68038  27.057  22.299   7.350
 8663POPC   NC368039  29.164  12.841   5.550
 8663POPC   PO468040  29.169  12.821   5.850
 8663POPC   GL168041  29.176  12.884   6.150
 8663POPC   GL268042  29.072  12.783   6.150
 8663POPC   C1A68043  29.104  12.847   6.450
 8663POPC   D2A68044  29.165  12.831   6.750
 8663POPC   C3A68045  29.152  12.805   7.050
 8663POPC   C4A68046  29.169  12.804   7.350
 8663POPC   C1B68047  29.026  12.598   6.450
 8663POPC   C2B68048  29.086  12.634   6.750
 8663POPC   C3B68049  29.086  12.656   7.050
 8663POPC   C4B68050  29.018  12.637   7.350
 8664POPC   NC368051   1.178   9.739   5.550
 8664POPC   PO468052   1.242   9.716   5.850
 8664POPC   GL168053   1.246   9.782   6.150
 8664POPC   GL268054   1.149   9.605   6.150
 8664POPC   C1A68055   1.225   9.719   6.450
 8664POPC   D2A68056   1.260   9.739   6.750
 8664POPC   C3A68057   1.167   9.743   7.050
 8664POPC   C4A68058   1.225   9.770   7.350
 8664POPC   C1B68059   1.196   9.473   6.450
 8664POPC   C2B68060   1.185   9.452   6.750
 8664POPC   C3B68061   1.138   9.514   7.050
 8664POPC   C4B68062   1.208   9.498   7.350
 8665POPC   NC368063  19.827  40.763   5.550
 8665POPC   PO468064  19.786  40.774   5.850
 8665POPC   GL168065  19.850  40.745   6.150
 8665POPC   GL268066  19.793  40.685   6.150
 8665POPC   C1A68067  19.827  40.744   6.450
 8665POPC   D2A68068  19.844  40.782   6.750
 8665POPC   C3A68069  19.863  40.763   7.050
 8665POPC   C4A68070  19.834  40.800   7.350
 8665POPC   C1B68071  19.751  40.539   6.450
 8665POPC   C2B68072  19.689  40.543   6.750
 8665POPC   C3B68073  19.687  40.525   7.050
 8665POPC   C4B68074  19.739  40.591   7.350
 8666POPC   NC368075  21.421  24.489   5.550
 8666POPC   PO468076  21.413  24.451   5.850
 8666POPC   GL168077  21.401  24.458   6.150
 8666POPC   GL268078  21.462  24.360   6.150
 8666POPC   C1A68079  21.420  24.471   6.450
 8666POPC   D2A68080  21.366  24.529   6.750
 8666POPC   C3A68081  21.358  24.461   7.050
 8666POPC   C4A68082  21.422  24.499   7.350
 8666POPC   C1B68083  21.519  24.318   6.450
 8666POPC   C2B68084  21.547  24.272   6.750
 8666POPC   C3B68085  21.568  24.263   7.050
 8666POPC   C4B68086  21.609  24.314   7.350
 8667POPC   NC368087  26.853  31.500   5.550
 8667POPC   PO468088  26.845  31.439   5.850
 8667POPC   GL168089  26.831  31.439   6.150
 8667POPC   GL268090  26.865  31.396   6.150
 8667POPC   C1A68091  26.791  31.487   6.450
 8667POPC   D2A68092  26.851  31.452   6.750
 8667POPC   C3A68093  26.826  31.428   7.050
 8667POPC   C4A68094  26.804  31.516   7.350
 8667POPC   C1B68095  26.853  31.208   6.450
 8667POPC   C2B68096  26.894  31.241   6.750
 8667POPC   C3B68097  26.884  31.269   7.050
 8667POPC   C4B68098  26.921  31.261   7.350
 8668POPC   NC368099  26.814  43.113   5.550
 8668POPC   PO468100  26.851  43.093   5.850
 8668POPC   GL168101  26.780  43.118   6.150
 8668POPC   GL268102  26.740  43.073   6.150
 8668POPC   C1A68103  26.770  43.078   6.450
 8668POPC   D2A68104  26.853  43.116   6.750
 8668POPC   C3A68105  26.857  43.159   7.050
 8668POPC   C4A68106  26.792  43.105   7.350
 8668POPC   C1B68107  26.611  43.061   6.450
 8668POPC   C2B68108  26.529  43.077   6.750
 8668POPC   C3B68109  26.552  43.110   7.050
 8668POPC   C4B68110  26.547  43.042   7.350
 8669POPC   NC368111  26.019  41.561   5.550
 8669POPC   PO468112  26.019  41.553   5.850
 8669POPC   GL168113  26.025  41.531   6.150
 8669POPC   GL268114  26.039  41.419   6.150
 8669POPC   C1A68115  26.007  41.562   6.450
 8669POPC   D2A68116  26.077  41.608   6.750
 8669POPC   C3A68117  26.082  41.557   7.050
 8669POPC   C4A68118  26.044  41.523   7.350
 8669POPC   C1B68119  26.126  41.328   6.450
 8669POPC   C2B68120  26.048  41.308   6.750
 8669POPC   C3B68121  26.090  41.274   7.050
 8669POPC   C4B68122  26.044  41.347   7.350
 8670POPC   NC368123   9.725  31.500   5.550
 8670POPC   PO468124   9.726  31.485   5.850
 8670POPC   GL168125   9.744  31.498   6.150
 8670POPC   GL268126   9.686  31.394   6.150
 8670POPC   C1A68127   9.772  31.432   6.450
 8670POPC   D2A68128   9.757  31.512   6.750
 8670POPC   C3A68129   9.730  31.434   7.050
 8670POPC   C4A68130   9.728  31.519   7.350
 8670POPC   C1B68131   9.488  31.331   6.450
 8670POPC   C2B68132   9.569  31.381   6.750
 8670POPC   C3B68133   9.538  31.354   7.050
 8670POPC   C4B68134   9.548  31.357   7.350
 8671POPC   NC368135  34.561   3.501   5.550
 8671POPC   PO468136  34.555   3.563   5.850
 8671POPC   GL168137  34.566   3.496   6.150
 8671POPC   GL268138  34.452   3.589   6.150
 8671POPC   C1A68139  34.557   3.546   6.450
 8671POPC   D2A68140  34.588   3.584   6.750
 8671POPC   C3A68141  34.558   3.571   7.050
 8671POPC   C4A68142  34.607   3.494   7.350
 8671POPC   C1B68143  34.369   3.550   6.450
 8671POPC   C2B68144  34.346   3.531   6.750
 8671POPC   C3B68145  34.372   3.581   7.050
 8671POPC   C4B68146  34.365   3.543   7.350
 8672POPC   NC368147  29.871  34.539   5.550
 8672POPC   PO468148  29.887  34.562   5.850
 8672POPC   GL168149  29.929  34.541   6.150
 8672POPC   GL268150  29.849  34.684   6.150
 8672POPC   C1A68151  29.880  34.533   6.450
 8672POPC   D2A68152  29.921  34.583   6.750
 8672POPC   C3A68153  29.881  34.548   7.050
 8672POPC   C4A68154  29.931  34.580   7.350
 8672POPC   C1B68155  29.906  34.803   6.450
 8672POPC   C2B68156  29.864  34.775   6.750
 8672POPC   C3B68157  29.916  34.833   7.050
 8672POPC   C4B68158  29.867  34.790   7.350
 8673POPC   NC368159  30.743  12.032   5.550
 8673POPC   PO468160  30.723  12.098   5.850
 8673POPC   GL168161  30.740  12.100   6.150
 8673POPC   GL268162  30.788  12.009   6.150
 8673POPC   C1A68163  30.742  12.090   6.450
 8673POPC   D2A68164  30.744  12.123   6.750
 8673POPC   C3A68165  30.695  12.121   7.050
 8673POPC   C4A68166  30.663  12.065   7.350
 8673POPC   C1B68167  30.897  11.905   6.450
 8673POPC   C2B68168  30.932  11.905   6.750
 8673POPC   C3B68169  30.908  11.901   7.050
 8673POPC   C4B68170  30.877  11.917   7.350
 8674POPC   NC368171  19.838  22.983   5.550
 8674POPC   PO468172  19.803  22.945   5.850
 8674POPC   GL168173  19.840  22.968   6.150
 8674POPC   GL268174  19.798  23.021   6.150
 8674POPC   C1A68175  19.831  22.894   6.450
 8674POPC   D2A68176  19.841  22.983   6.750
 8674POPC   C3A68177  19.847  22.964   7.050
 8674POPC   C4A68178  19.860  22.963   7.350
 8674POPC   C1B68179  19.657  23.189   6.450
 8674POPC   C2B68180  19.658  23.182   6.750
 8674POPC   C3B68181  19.665  23.152   7.050
 8674POPC   C4B68182  19.706  23.132   7.350
 8675POPC   NC368183  15.930   7.401   5.550
 8675POPC   PO468184  15.937   7.399   5.850
 8675POPC   GL168185  15.969   7.461   6.150
 8675POPC   GL268186  15.811   7.374   6.150
 8675POPC   C1A68187  15.912   7.398   6.450
 8675POPC   D2A68188  15.965   7.390   6.750
 8675POPC   C3A68189  15.964   7.406   7.050
 8675POPC   C4A68190  16.003   7.405   7.350
 8675POPC   C1B68191  15.756   7.417   6.450
 8675POPC   C2B68192  15.661   7.365   6.750
 8675POPC   C3B68193  15.686   7.345   7.050
 8675POPC   C4B68194  15.736   7.383   7.350
 8676POPC   NC368195   1.221   3.499   5.550
 8676POPC   PO468196   1.242   3.575   5.850
 8676POPC   GL168197   1.212   3.505   6.150
 8676POPC   GL268198   1.145   3.662   6.150
 8676POPC   C1A68199   1.184   3.498   6.450
 8676POPC   D2A68200   1.167   3.509   6.750
 8676POPC   C3A68201   1.183   3.537   7.050
 8676POPC   C4A68202   1.209   3.554   7.350
 8676POPC   C1B68203   1.116   3.803   6.450
 8676POPC   C2B68204   1.180   3.810   6.750
 8676POPC   C3B68205   1.182   3.827   7.050
 8676POPC   C4B68206   1.172   3.771   7.350
 8677POPC   NC368207  21.380  44.626   5.550
 8677POPC   PO468208  21.372  44.649   5.850
 8677POPC   GL168209  21.381  44.643   6.150
 8677POPC   GL268210  21.493  44.678   6.150
 8677POPC   C1A68211  21.341  44.624   6.450
 8677POPC   D2A68212  21.434  44.629   6.750
 8677POPC   C3A68213  21.348  44.633   7.050
 8677POPC   C4A68214  21.353  44.637   7.350
 8677POPC   C1B68215  21.608  44.673   6.450
 8677POPC   C2B68216  21.621  44.701   6.750
 8677POPC   C3B68217  21.630  44.660   7.050
 8677POPC   C4B68218  21.610  44.673   7.350
 8678POPC   NC368219   0.417  43.132   5.550
 8678POPC   PO468220   0.442  43.151   5.850
 8678POPC   GL168221   0.486  43.090   6.150
 8678POPC   GL268222   0.284  43.146   6.150
 8678POPC   C1A68223   0.396  43.096   6.450
 8678POPC   D2A68224   0.403  43.154   6.750
 8678POPC   C3A68225   0.477  43.088   7.050
 8678POPC   C4A68226   0.421  43.082   7.350
 8678POPC   C1B68227   0.182  43.162   6.450
 8678POPC   C2B68228   0.213  43.163   6.750
 8678POPC   C3B68229   0.149  43.162   7.050
 8678POPC   C4B68230   0.194  43.161   7.350
 8679POPC   NC368231   3.515  27.632   5.550
 8679POPC   PO468232   3.555  27.592   5.850
 8679POPC   GL168233   3.509  27.637   6.150
 8679POPC   GL268234   3.641  27.485   6.150
 8679POPC   C1A68235   3.526  27.549   6.450
 8679POPC   D2A68236   3.500  27.614   6.750
 8679POPC   C3A68237   3.550  27.545   7.050
 8679POPC   C4A68238   3.557  27.614   7.350
 8679POPC   C1B68239   3.722  27.486   6.450
 8679POPC   C2B68240   3.742  27.431   6.750
 8679POPC   C3B68241   3.701  27.398   7.050
 8679POPC   C4B68242   3.728  27.453   7.350
 8680POPC   NC368243  41.545   5.075   5.550
 8680POPC   PO468244  41.589   5.142   5.850
 8680POPC   GL168245  41.549   5.066   6.150
 8680POPC   GL268246  41.616   5.248   6.150
 8680POPC   C1A68247  41.528   5.049   6.450
 8680POPC   D2A68248  41.515   5.132   6.750
 8680POPC   C3A68249  41.592   5.099   7.050
 8680POPC   C4A68250  41.536   5.117   7.350
 8680POPC   C1B68251  41.592   5.341   6.450
 8680POPC   C2B68252  41.632   5.327   6.750
 8680POPC   C3B68253  41.576   5.303   7.050
 8680POPC   C4B68254  41.551   5.302   7.350
 8681POPC   NC368255  37.672  19.029   5.550
 8681POPC   PO468256  37.724  19.073   5.850
 8681POPC   GL168257  37.671  19.068   6.150
 8681POPC   GL268258  37.698  19.213   6.150
 8681POPC   C1A68259  37.654  19.009   6.450
 8681POPC   D2A68260  37.668  19.077   6.750
 8681POPC   C3A68261  37.711  19.087   7.050
 8681POPC   C4A68262  37.705  19.077   7.350
 8681POPC   C1B68263  37.637  19.303   6.450
 8681POPC   C2B68264  37.643  19.270   6.750
 8681POPC   C3B68265  37.651  19.333   7.050
 8681POPC   C4B68266  37.629  19.261   7.350
 8682POPC   NC368267  12.052   8.938   5.550
 8682POPC   PO468268  12.119   8.927   5.850
 8682POPC   GL168269  12.055   8.948   6.150
 8682POPC   GL268270  12.062   8.872   6.150
 8682POPC   C1A68271  12.096   8.941   6.450
 8682POPC   D2A68272  12.109   8.977   6.750
 8682POPC   C3A68273  12.076   8.975   7.050
 8682POPC   C4A68274  12.082   8.966   7.350
 8682POPC   C1B68275  12.159   8.714   6.450
 8682POPC   C2B68276  12.136   8.759   6.750
 8682POPC   C3B68277  12.159   8.732   7.050
 8682POPC   C4B68278  12.134   8.699   7.350
 8683POPC   NC368279  38.475   7.456   5.550
 8683POPC   PO468280  38.441   7.441   5.850
 8683POPC   GL168281  38.458   7.428   6.150
 8683POPC   GL268282  38.349   7.393   6.150
 8683POPC   C1A68283  38.481   7.387   6.450
 8683POPC   D2A68284  38.408   7.449   6.750
 8683POPC   C3A68285  38.424   7.455   7.050
 8683POPC   C4A68286  38.482   7.385   7.350
 8683POPC   C1B68287  38.224   7.262   6.450
 8683POPC   C2B68288  38.282   7.319   6.750
 8683POPC   C3B68289  38.231   7.267   7.050
 8683POPC   C4B68290  38.259   7.357   7.350
 8684POPC   NC368291  33.008  17.479   5.550
 8684POPC   PO468292  33.036  17.462   5.850
 8684POPC   GL168293  33.054  17.483   6.150
 8684POPC   GL268294  32.993  17.610   6.150
 8684POPC   C1A68295  33.041  17.472   6.450
 8684POPC   D2A68296  33.042  17.526   6.750
 8684POPC   C3A68297  33.005  17.470   7.050
 8684POPC   C4A68298  33.027  17.557   7.350
 8684POPC   C1B68299  32.974  17.786   6.450
 8684POPC   C2B68300  32.996  17.770   6.750
 8684POPC   C3B68301  33.011  17.723   7.050
 8684POPC   C4B68302  32.960  17.710   7.350
 8685POPC   NC368303  39.979  40.799   5.550
 8685POPC   PO468304  39.978  40.827   5.850
 8685POPC   GL168305  39.992  40.772   6.150
 8685POPC   GL268306  39.929  40.700   6.150
 8685POPC   C1A68307  39.961  40.763   6.450
 8685POPC   D2A68308  40.016  40.735   6.750
 8685POPC   C3A68309  39.984  40.798   7.050
 8685POPC   C4A68310  39.970  40.749   7.350
 8685POPC   C1B68311  39.772  40.711   6.450
 8685POPC   C2B68312  39.784  40.716   6.750
 8685POPC   C3B68313  39.790  40.684   7.050
 8685POPC   C4B68314  39.728  40.695   7.350
 8686POPC   NC368315  18.287  12.086   5.550
 8686POPC   PO468316  18.297  12.029   5.850
 8686POPC   GL168317  18.235  12.066   6.150
 8686POPC   GL268318  18.197  12.026   6.150
 8686POPC   C1A68319  18.258  12.111   6.450
 8686POPC   D2A68320  18.308  12.080   6.750
 8686POPC   C3A68321  18.314  12.038   7.050
 8686POPC   C4A68322  18.282  12.113   7.350
 8686POPC   C1B68323  18.025  12.065   6.450
 8686POPC   C2B68324  17.989  11.992   6.750
 8686POPC   C3B68325  17.989  12.031   7.050
 8686POPC   C4B68326  18.017  12.079   7.350
 8687POPC   NC368327  43.155   7.420   5.550
 8687POPC   PO468328  43.070   7.410   5.850
 8687POPC   GL168329  43.128   7.433   6.150
 8687POPC   GL268330  43.136   7.324   6.150
 8687POPC   C1A68331  43.133   7.464   6.450
 8687POPC   D2A68332  43.075   7.394   6.750
 8687POPC   C3A68333  43.092   7.460   7.050
 8687POPC   C4A68334  43.098   7.419   7.350
 8687POPC   C1B68335  43.258   7.210   6.450
 8687POPC   C2B68336  43.243   7.251   6.750
 8687POPC   C3B68337  43.211   7.241   7.050
 8687POPC   C4B68338  43.286   7.165   7.350
 8688POPC   NC368339  12.805  29.163   5.550
 8688POPC   PO468340  12.826  29.163   5.850
 8688POPC   GL168341  12.900  29.096   6.150
 8688POPC   GL268342  12.758  29.053   6.150
 8688POPC   C1A68343  12.826  29.153   6.450
 8688POPC   D2A68344  12.880  29.104   6.750
 8688POPC   C3A68345  12.826  29.153   7.050
 8688POPC   C4A68346  12.808  29.126   7.350
 8688POPC   C1B68347  12.677  29.009   6.450
 8688POPC   C2B68348  12.693  28.955   6.750
 8688POPC   C3B68349  12.684  28.970   7.050
 8688POPC   C4B68350  12.641  29.008   7.350
 8689POPC   NC368351  25.293  41.552   5.550
 8689POPC   PO468352  25.226  41.530   5.850
 8689POPC   GL168353  25.275  41.556   6.150
 8689POPC   GL268354  25.422  41.528   6.150
 8689POPC   C1A68355  25.222  41.517   6.450
 8689POPC   D2A68356  25.291  41.577   6.750
 8689POPC   C3A68357  25.313  41.604   7.050
 8689POPC   C4A68358  25.245  41.592   7.350
 8689POPC   C1B68359  25.500  41.556   6.450
 8689POPC   C2B68360  25.489  41.516   6.750
 8689POPC   C3B68361  25.527  41.584   7.050
 8689POPC   C4B68362  25.478  41.520   7.350
 8690POPC   NC368363  19.074  36.125   5.550
 8690POPC   PO468364  19.029  36.124   5.850
 8690POPC   GL168365  19.032  36.141   6.150
 8690POPC   GL268366  19.201  36.165   6.150
 8690POPC   C1A68367  19.017  36.097   6.450
 8690POPC   D2A68368  19.102  36.169   6.750
 8690POPC   C3A68369  19.082  36.125   7.050
 8690POPC   C4A68370  19.097  36.163   7.350
 8690POPC   C1B68371  19.283  36.209   6.450
 8690POPC   C2B68372  19.311  36.188   6.750
 8690POPC   C3B68373  19.346  36.166   7.050
 8690POPC   C4B68374  19.249  36.213   7.350
 8691POPC   NC368375   5.136  40.026   5.550
 8691POPC   PO468376   5.100  40.013   5.850
 8691POPC   GL168377   5.094  40.032   6.150
 8691POPC   GL268378   4.928  40.038   6.150
 8691POPC   C1A68379   5.075  39.971   6.450
 8691POPC   D2A68380   5.124  39.977   6.750
 8691POPC   C3A68381   5.114  39.963   7.050
 8691POPC   C4A68382   5.106  39.967   7.350
 8691POPC   C1B68383   4.877  40.068   6.450
 8691POPC   C2B68384   4.804  40.020   6.750
 8691POPC   C3B68385   4.848  40.039   7.050
 8691POPC   C4B68386   4.893  40.036   7.350
 8692POPC   NC368387  26.808  38.420   5.550
 8692POPC   PO468388  26.858  38.505   5.850
 8692POPC   GL168389  26.808  38.439   6.150
 8692POPC   GL268390  26.841  38.351   6.150
 8692POPC   C1A68391  26.857  38.431   6.450
 8692POPC   D2A68392  26.806  38.432   6.750
 8692POPC   C3A68393  26.825  38.497   7.050
 8692POPC   C4A68394  26.812  38.482   7.350
 8692POPC   C1B68395  26.939  38.271   6.450
 8692POPC   C2B68396  26.945  38.278   6.750
 8692POPC   C3B68397  26.932  38.270   7.050
 8692POPC   C4B68398  26.981  38.214   7.350
 8693POPC   NC368399  12.818  16.744   5.550
 8693POPC   PO468400  12.883  16.712   5.850
 8693POPC   GL168401  12.806  16.713   6.150
 8693POPC   GL268402  12.769  16.792   6.150
 8693POPC   C1A68403  12.895  16.689   6.450
 8693POPC   D2A68404  12.899  16.770   6.750
 8693POPC   C3A68405  12.874  16.754   7.050
 8693POPC   C4A68406  12.805  16.719   7.350
 8693POPC   C1B68407  12.631  16.886   6.450
 8693POPC   C2B68408  12.613  16.839   6.750
 8693POPC   C3B68409  12.679  16.878   7.050
 8693POPC   C4B68410  12.660  16.856   7.350
 8694POPC   NC368411  25.268  10.511   5.550
 8694POPC   PO468412  25.286  10.490   5.850
 8694POPC   GL168413  25.218  10.483   6.150
 8694POPC   GL268414  25.397  10.520   6.150
 8694POPC   C1A68415  25.257  10.560   6.450
 8694POPC   D2A68416  25.237  10.509   6.750
 8694POPC   C3A68417  25.289  10.487   7.050
 8694POPC   C4A68418  25.268  10.526   7.350
 8694POPC   C1B68419  25.513  10.482   6.450
 8694POPC   C2B68420  25.552  10.487   6.750
 8694POPC   C3B68421  25.527  10.501   7.050
 8694POPC   C4B68422  25.467  10.520   7.350
 8695POPC   NC368423   1.257  18.234   5.550
 8695POPC   PO468424   1.215  18.277   5.850
 8695POPC   GL168425   1.190  18.242   6.150
 8695POPC   GL268426   1.103  18.414   6.150
 8695POPC   C1A68427   1.232  18.290   6.450
 8695POPC   D2A68428   1.262  18.252   6.750
 8695POPC   C3A68429   1.173  18.270   7.050
 8695POPC   C4A68430   1.236  18.250   7.350
 8695POPC   C1B68431   1.050  18.436   6.450
 8695POPC   C2B68432   1.046  18.414   6.750
 8695POPC   C3B68433   1.061  18.449   7.050
 8695POPC   C4B68434   1.062  18.478   7.350
 8696POPC   NC368435  35.332  39.280   5.550
 8696POPC   PO468436  35.336  39.192   5.850
 8696POPC   GL168437  35.341  39.272   6.150
 8696POPC   GL268438  35.512  39.208   6.150
 8696POPC   C1A68439  35.313  39.206   6.450
 8696POPC   D2A68440  35.334  39.273   6.750
 8696POPC   C3A68441  35.380  39.217   7.050
 8696POPC   C4A68442  35.341  39.235   7.350
 8696POPC   C1B68443  35.630  39.092   6.450
 8696POPC   C2B68444  35.560  39.134   6.750
 8696POPC   C3B68445  35.621  39.180   7.050
 8696POPC   C4B68446  35.555  39.164   7.350
 8697POPC   NC368447  20.658  15.984   5.550
 8697POPC   PO468448  20.616  15.991   5.850
 8697POPC   GL168449  20.634  15.995   6.150
 8697POPC   GL268450  20.507  15.876   6.150
 8697POPC   C1A68451  20.593  15.928   6.450
 8697POPC   D2A68452  20.568  15.958   6.750
 8697POPC   C3A68453  20.602  15.950   7.050
 8697POPC   C4A68454  20.589  15.929   7.350
 8697POPC   C1B68455  20.433  15.714   6.450
 8697POPC   C2B68456  20.452  15.736   6.750
 8697POPC   C3B68457  20.491  15.750   7.050
 8697POPC   C4B68458  20.472  15.789   7.350
 8698POPC   NC368459  40.008  14.365   5.550
 8698POPC   PO468460  39.957  14.413   5.850
 8698POPC   GL168461  39.968  14.441   6.150
 8698POPC   GL268462  39.943  14.299   6.150
 8698POPC   C1A68463  39.987  14.412   6.450
 8698POPC   D2A68464  40.027  14.451   6.750
 8698POPC   C3A68465  39.969  14.354   7.050
 8698POPC   C4A68466  39.982  14.385   7.350
 8698POPC   C1B68467  39.890  14.115   6.450
 8698POPC   C2B68468  39.939  14.171   6.750
 8698POPC   C3B68469  39.949  14.137   7.050
 8698POPC   C4B68470  39.923  14.214   7.350
 8699POPC   NC368471  14.411  26.787   5.550
 8699POPC   PO468472  14.386  26.769   5.850
 8699POPC   GL168473  14.369  26.773   6.150
 8699POPC   GL268474  14.466  26.970   6.150
 8699POPC   C1A68475  14.404  26.833   6.450
 8699POPC   D2A68476  14.395  26.824   6.750
 8699POPC   C3A68477  14.430  26.850   7.050
 8699POPC   C4A68478  14.432  26.838   7.350
 8699POPC   C1B68479  14.513  27.031   6.450
 8699POPC   C2B68480  14.440  27.066   6.750
 8699POPC   C3B68481  14.462  27.020   7.050
 8699POPC   C4B68482  14.506  27.026   7.350
 8700POPC   NC368483  33.779  37.710   5.550
 8700POPC   PO468484  33.794  37.683   5.850
 8700POPC   GL168485  33.758  37.632   6.150
 8700POPC   GL268486  33.837  37.827   6.150
 8700POPC   C1A68487  33.767  37.659   6.450
 8700POPC   D2A68488  33.752  37.639   6.750
 8700POPC   C3A68489  33.773  37.705   7.050
 8700POPC   C4A68490  33.814  37.683   7.350
 8700POPC   C1B68491  33.818  37.955   6.450
 8700POPC   C2B68492  33.795  37.913   6.750
 8700POPC   C3B68493  33.818  37.953   7.050
 8700POPC   C4B68494  33.839  37.944   7.350
 8701POPC   NC368495  23.706   2.732   5.550
 8701POPC   PO468496  23.667   2.724   5.850
 8701POPC   GL168497  23.672   2.762   6.150
 8701POPC   GL268498  23.557   2.730   6.150
 8701POPC   C1A68499  23.716   2.753   6.450
 8701POPC   D2A68500  23.701   2.740   6.750
 8701POPC   C3A68501  23.744   2.783   7.050
 8701POPC   C4A68502  23.679   2.751   7.350
 8701POPC   C1B68503  23.511   2.733   6.450
 8701POPC   C2B68504  23.490   2.750   6.750
 8701POPC   C3B68505  23.473   2.768   7.050
 8701POPC   C4B68506  23.484   2.750   7.350
 8702POPC   NC368507  41.552   2.035   5.550
 8702POPC   PO468508  41.588   1.984   5.850
 8702POPC   GL168509  41.577   2.024   6.150
 8702POPC   GL268510  41.614   1.869   6.150
 8702POPC   C1A68511  41.579   2.019   6.450
 8702POPC   D2A68512  41.548   2.026   6.750
 8702POPC   C3A68513  41.524   2.039   7.050
 8702POPC   C4A68514  41.518   1.958   7.350
 8702POPC   C1B68515  41.761   1.811   6.450
 8702POPC   C2B68516  41.721   1.769   6.750
 8702POPC   C3B68517  41.704   1.767   7.050
 8702POPC   C4B68518  41.702   1.842   7.350
 8703POPC   NC368519  18.247   5.830   5.550
 8703POPC   PO468520  18.295   5.872   5.850
 8703POPC   GL168521  18.290   5.888   6.150
 8703POPC   GL268522  18.346   5.827   6.150
 8703POPC   C1A68523  18.270   5.837   6.450
 8703POPC   D2A68524  18.315   5.888   6.750
 8703POPC   C3A68525  18.324   5.834   7.050
 8703POPC   C4A68526  18.260   5.821   7.350
 8703POPC   C1B68527  18.516   5.802   6.450
 8703POPC   C2B68528  18.515   5.759   6.750
 8703POPC   C3B68529  18.544   5.775   7.050
 8703POPC   C4B68530  18.489   5.723   7.350
 8704POPC   NC368531  43.133  24.498   5.550
 8704POPC   PO468532  43.072  24.460   5.850
 8704POPC   GL168533  43.092  24.440   6.150
 8704POPC   GL268534  43.003  24.625   6.150
 8704POPC   C1A68535  43.111  24.531   6.450
 8704POPC   D2A68536  43.091  24.501   6.750
 8704POPC   C3A68537  43.120  24.514   7.050
 8704POPC   C4A68538  43.096  24.539   7.350
 8704POPC   C1B68539  42.958  24.655   6.450
 8704POPC   C2B68540  42.962  24.745   6.750
 8704POPC   C3B68541  42.931  24.697   7.050
 8704POPC   C4B68542  42.929  24.659   7.350
 8705POPC   NC368543  12.032  25.236   5.550
 8705POPC   PO468544  12.042  25.306   5.850
 8705POPC   GL168545  12.091  25.263   6.150
 8705POPC   GL268546  12.029  25.386   6.150
 8705POPC   C1A68547  12.111  25.255   6.450
 8705POPC   D2A68548  12.108  25.264   6.750
 8705POPC   C3A68549  12.077  25.287   7.050
 8705POPC   C4A68550  12.063  25.228   7.350
 8705POPC   C1B68551  12.062  25.493   6.450
 8705POPC   C2B68552  12.062  25.488   6.750
 8705POPC   C3B68553  12.107  25.492   7.050
 8705POPC   C4B68554  12.019  25.477   7.350
 8706POPC   NC368555  14.377  19.012   5.550
 8706POPC   PO468556  14.388  19.052   5.850
 8706POPC   GL168557  14.390  19.029   6.150
 8706POPC   GL268558  14.358  19.139   6.150
 8706POPC   C1A68559  14.380  19.058   6.450
 8706POPC   D2A68560  14.414  19.074   6.750
 8706POPC   C3A68561  14.452  19.031   7.050
 8706POPC   C4A68562  14.431  19.082   7.350
 8706POPC   C1B68563  14.452  19.327   6.450
 8706POPC   C2B68564  14.442  19.285   6.750
 8706POPC   C3B68565  14.428  19.343   7.050
 8706POPC   C4B68566  14.451  19.293   7.350
 8707POPC   NC368567  33.039   3.554   5.550
 8707POPC   PO468568  32.986   3.507   5.850
 8707POPC   GL168569  33.026   3.511   6.150
 8707POPC   GL268570  32.859   3.467   6.150
 8707POPC   C1A68571  32.986   3.496   6.450
 8707POPC   D2A68572  33.021   3.495   6.750
 8707POPC   C3A68573  33.037   3.568   7.050
 8707POPC   C4A68574  33.067   3.518   7.350
 8707POPC   C1B68575  32.819   3.454   6.450
 8707POPC   C2B68576  32.818   3.465   6.750
 8707POPC   C3B68577  32.824   3.448   7.050
 8707POPC   C4B68578  32.833   3.444   7.350
 8708POPC   NC368579  39.182   4.324   5.550
 8708POPC   PO468580  39.264   4.358   5.850
 8708POPC   GL168581  39.233   4.296   6.150
 8708POPC   GL268582  39.327   4.223   6.150
 8708POPC   C1A68583  39.264   4.349   6.450
 8708POPC   D2A68584  39.239   4.283   6.750
 8708POPC   C3A68585  39.257   4.310   7.050
 8708POPC   C4A68586  39.223   4.353   7.350
 8708POPC   C1B68587  39.353   4.107   6.450
 8708POPC   C2B68588  39.390   4.134   6.750
 8708POPC   C3B68589  39.378   4.086   7.050
 8708POPC   C4B68590  39.356   4.133   7.350
 8709POPC   NC368591  19.805   2.748   5.550
 8709POPC   PO468592  19.802   2.750   5.850
 8709POPC   GL168593  19.865   2.772   6.150
 8709POPC   GL268594  19.883   2.686   6.150
 8709POPC   C1A68595  19.883   2.772   6.450
 8709POPC   D2A68596  19.792   2.760   6.750
 8709POPC   C3A68597  19.822   2.757   7.050
 8709POPC   C4A68598  19.795   2.788   7.350
 8709POPC   C1B68599  19.913   2.565   6.450
 8709POPC   C2B68600  19.953   2.521   6.750
 8709POPC   C3B68601  19.943   2.525   7.050
 8709POPC   C4B68602  19.943   2.557   7.350
 8710POPC   NC368603   2.012  38.502   5.550
 8710POPC   PO468604   1.983  38.419   5.850
 8710POPC   GL168605   2.009  38.441   6.150
 8710POPC   GL268606   2.070  38.434   6.150
 8710POPC   C1A68607   2.039  38.441   6.450
 8710POPC   D2A68608   1.996  38.468   6.750
 8710POPC   C3A68609   1.953  38.482   7.050
 8710POPC   C4A68610   2.029  38.425   7.350
 8710POPC   C1B68611   2.247  38.382   6.450
 8710POPC   C2B68612   2.214  38.415   6.750
 8710POPC   C3B68613   2.250  38.429   7.050
 8710POPC   C4B68614   2.211  38.418   7.350
 8711POPC   NC368615  39.259   7.467   5.550
 8711POPC   PO468616  39.270   7.465   5.850
 8711POPC   GL168617  39.194   7.459   6.150
 8711POPC   GL268618  39.127   7.527   6.150
 8711POPC   C1A68619  39.203   7.461   6.450
 8711POPC   D2A68620  39.197   7.433   6.750
 8711POPC   C3A68621  39.185   7.404   7.050
 8711POPC   C4A68622  39.218   7.439   7.350
 8711POPC   C1B68623  39.108   7.660   6.450
 8711POPC   C2B68624  39.057   7.633   6.750
 8711POPC   C3B68625  39.098   7.635   7.050
 8711POPC   C4B68626  39.112   7.670   7.350
 8712POPC   NC368627  38.433  19.067   5.550
 8712POPC   PO468628  38.495  19.015   5.850
 8712POPC   GL168629  38.413  19.108   6.150
 8712POPC   GL268630  38.622  19.067   6.150
 8712POPC   C1A68631  38.499  19.093   6.450
 8712POPC   D2A68632  38.504  19.057   6.750
 8712POPC   C3A68633  38.473  19.096   7.050
 8712POPC   C4A68634  38.502  19.063   7.350
 8712POPC   C1B68635  38.699  18.956   6.450
 8712POPC   C2B68636  38.712  19.009   6.750
 8712POPC   C3B68637  38.649  19.002   7.050
 8712POPC   C4B68638  38.677  19.038   7.350
 8713POPC   NC368639  15.138  24.491   5.550
 8713POPC   PO468640  15.227  24.458   5.850
 8713POPC   GL168641  15.211  24.465   6.150
 8713POPC   GL268642  15.292  24.450   6.150
 8713POPC   C1A68643  15.153  24.484   6.450
 8713POPC   D2A68644  15.169  24.530   6.750
 8713POPC   C3A68645  15.198  24.532   7.050
 8713POPC   C4A68646  15.153  24.482   7.350
 8713POPC   C1B68647  15.439  24.418   6.450
 8713POPC   C2B68648  15.411  24.396   6.750
 8713POPC   C3B68649  15.391  24.425   7.050
 8713POPC   C4B68650  15.415  24.399   7.350
 8714POPC   NC368651  12.841   2.790   5.550
 8714POPC   PO468652  12.867   2.741   5.850
 8714POPC   GL168653  12.803   2.776   6.150
 8714POPC   GL268654  12.933   2.620   6.150
 8714POPC   C1A68655  12.896   2.755   6.450
 8714POPC   D2A68656  12.825   2.797   6.750
 8714POPC   C3A68657  12.817   2.736   7.050
 8714POPC   C4A68658  12.879   2.781   7.350
 8714POPC   C1B68659  12.968   2.571   6.450
 8714POPC   C2B68660  12.905   2.494   6.750
 8714POPC   C3B68661  12.997   2.501   7.050
 8714POPC   C4B68662  12.977   2.565   7.350
 8715POPC   NC368663   5.889  15.980   5.550
 8715POPC   PO468664   5.863  15.982   5.850
 8715POPC   GL168665   5.854  15.937   6.150
 8715POPC   GL268666   5.875  16.044   6.150
 8715POPC   C1A68667   5.909  15.980   6.450
 8715POPC   D2A68668   5.838  15.963   6.750
 8715POPC   C3A68669   5.840  15.996   7.050
 8715POPC   C4A68670   5.855  15.922   7.350
 8715POPC   C1B68671   5.943  16.192   6.450
 8715POPC   C2B68672   5.992  16.211   6.750
 8715POPC   C3B68673   5.975  16.232   7.050
 8715POPC   C4B68674   5.936  16.190   7.350
 8716POPC   NC368675  31.514  32.292   5.550
 8716POPC   PO468676  31.435  32.276   5.850
 8716POPC   GL168677  31.480  32.205   6.150
 8716POPC   GL268678  31.387  32.228   6.150
 8716POPC   C1A68679  31.458  32.213   6.450
 8716POPC   D2A68680  31.426  32.283   6.750
 8716POPC   C3A68681  31.489  32.283   7.050
 8716POPC   C4A68682  31.443  32.234   7.350
 8716POPC   C1B68683  31.186  32.191   6.450
 8716POPC   C2B68684  31.246  32.224   6.750
 8716POPC   C3B68685  31.189  32.169   7.050
 8716POPC   C4B68686  31.241  32.221   7.350
 8717POPC   NC368687  34.543  26.794   5.550
 8717POPC   PO468688  34.576  26.789   5.850
 8717POPC   GL168689  34.556  26.804   6.150
 8717POPC   GL268690  34.433  26.801   6.150
 8717POPC   C1A68691  34.588  26.787   6.450
 8717POPC   D2A68692  34.600  26.770   6.750
 8717POPC   C3A68693  34.604  26.834   7.050
 8717POPC   C4A68694  34.613  26.816   7.350
 8717POPC   C1B68695  34.375  26.827   6.450
 8717POPC   C2B68696  34.278  26.786   6.750
 8717POPC   C3B68697  34.337  26.823   7.050
 8717POPC   C4B68698  34.339  26.839   7.350
 8718POPC   NC368699  29.936  22.963   5.550
 8718POPC   PO468700  29.902  22.946   5.850
 8718POPC   GL168701  29.904  22.978   6.150
 8718POPC   GL268702  29.898  22.852   6.150
 8718POPC   C1A68703  29.954  22.953   6.450
 8718POPC   D2A68704  29.903  22.940   6.750
 8718POPC   C3A68705  29.890  22.966   7.050
 8718POPC   C4A68706  29.910  22.925   7.350
 8718POPC   C1B68707  29.893  22.721   6.450
 8718POPC   C2B68708  29.893  22.712   6.750
 8718POPC   C3B68709  29.902  22.676   7.050
 8718POPC   C4B68710  29.857  22.688   7.350
 8719POPC   NC368711  16.711  27.627   5.550
 8719POPC   PO468712  16.779  27.623   5.850
 8719POPC   GL168713  16.733  27.615   6.150
 8719POPC   GL268714  16.644  27.583   6.150
 8719POPC   C1A68715  16.757  27.553   6.450
 8719POPC   D2A68716  16.692  27.588   6.750
 8719POPC   C3A68717  16.713  27.581   7.050
 8719POPC   C4A68718  16.725  27.604   7.350
 8719POPC   C1B68719  16.452  27.565   6.450
 8719POPC   C2B68720  16.534  27.505   6.750
 8719POPC   C3B68721  16.526  27.586   7.050
 8719POPC   C4B68722  16.519  27.572   7.350
 8720POPC   NC368723  16.744  32.260   5.550
 8720POPC   PO468724  16.690  32.224   5.850
 8720POPC   GL168725  16.733  32.224   6.150
 8720POPC   GL268726  16.860  32.232   6.150
 8720POPC   C1A68727  16.759  32.214   6.450
 8720POPC   D2A68728  16.685  32.201   6.750
 8720POPC   C3A68729  16.682  32.257   7.050
 8720POPC   C4A68730  16.717  32.283   7.350
 8720POPC   C1B68731  17.008  32.211   6.450
 8720POPC   C2B68732  16.977  32.250   6.750
 8720POPC   C3B68733  16.991  32.213   7.050
 8720POPC   C4B68734  17.023  32.205   7.350
 8721POPC   NC368735  29.146   3.571   5.550
 8721POPC   PO468736  29.136   3.516   5.850
 8721POPC   GL168737  29.117   3.568   6.150
 8721POPC   GL268738  28.992   3.509   6.150
 8721POPC   C1A68739  29.110   3.504   6.450
 8721POPC   D2A68740  29.195   3.549   6.750
 8721POPC   C3A68741  29.192   3.559   7.050
 8721POPC   C4A68742  29.179   3.523   7.350
 8721POPC   C1B68743  28.937   3.559   6.450
 8721POPC   C2B68744  28.915   3.497   6.750
 8721POPC   C3B68745  28.918   3.542   7.050
 8721POPC   C4B68746  28.922   3.525   7.350
 8722POPC   NC368747  20.640  43.131   5.550
 8722POPC   PO468748  20.606  43.072   5.850
 8722POPC   GL168749  20.645  43.154   6.150
 8722POPC   GL268750  20.469  43.123   6.150
 8722POPC   C1A68751  20.570  43.112   6.450
 8722POPC   D2A68752  20.644  43.078   6.750
 8722POPC   C3A68753  20.635  43.078   7.050
 8722POPC   C4A68754  20.571  43.097   7.350
 8722POPC   C1B68755  20.328  43.029   6.450
 8722POPC   C2B68756  20.345  43.066   6.750
 8722POPC   C3B68757  20.386  43.069   7.050
 8722POPC   C4B68758  20.330  43.029   7.350
 8723POPC   NC368759   9.755  29.191   5.550
 8723POPC   PO468760   9.736  29.122   5.850
 8723POPC   GL168761   9.749  29.189   6.150
 8723POPC   GL268762   9.895  29.044   6.150
 8723POPC   C1A68763   9.702  29.115   6.450
 8723POPC   D2A68764   9.780  29.162   6.750
 8723POPC   C3A68765   9.709  29.165   7.050
 8723POPC   C4A68766   9.733  29.162   7.350
 8723POPC   C1B68767   9.900  28.942   6.450
 8723POPC   C2B68768   9.932  29.030   6.750
 8723POPC   C3B68769   9.956  29.029   7.050
 8723POPC   C4B68770   9.932  29.012   7.350
 8724POPC   NC368771   0.451  41.533   5.550
 8724POPC   PO468772   0.453  41.552   5.850
 8724POPC   GL168773   0.486  41.580   6.150
 8724POPC   GL268774   0.499  41.467   6.150
 8724POPC   C1A68775   0.425  41.521   6.450
 8724POPC   D2A68776   0.444  41.597   6.750
 8724POPC   C3A68777   0.440  41.515   7.050
 8724POPC   C4A68778   0.430  41.531   7.350
 8724POPC   C1B68779   0.516  41.294   6.450
 8724POPC   C2B68780   0.580  41.346   6.750
 8724POPC   C3B68781   0.541  41.280   7.050
 8724POPC   C4B68782   0.562  41.326   7.350
 8725POPC   NC368783  29.148  18.253   5.550
 8725POPC   PO468784  29.120  18.328   5.850
 8725POPC   GL168785  29.145  18.304   6.150
 8725POPC   GL268786  29.086  18.343   6.150
 8725POPC   C1A68787  29.195  18.284   6.450
 8725POPC   D2A68788  29.170  18.235   6.750
 8725POPC   C3A68789  29.156  18.254   7.050
 8725POPC   C4A68790  29.097  18.235   7.350
 8725POPC   C1B68791  28.965  18.450   6.450
 8725POPC   C2B68792  28.913  18.400   6.750
 8725POPC   C3B68793  28.985  18.416   7.050
 8725POPC   C4B68794  28.926  18.389   7.350
 8726POPC   NC368795  43.860  22.928   5.550
 8726POPC   PO468796  43.923  22.947   5.850
 8726POPC   GL168797  43.870  22.961   6.150
 8726POPC   GL268798  43.936  22.828   6.150
 8726POPC   C1A68799  43.919  22.944   6.450
 8726POPC   D2A68800  43.920  22.955   6.750
 8726POPC   C3A68801  43.894  22.907   7.050
 8726POPC   C4A68802  43.905  22.946   7.350
 8726POPC   C1B68803  43.918  22.710   6.450
 8726POPC   C2B68804  43.928  22.678   6.750
 8726POPC   C3B68805  43.870  22.647   7.050
 8726POPC   C4B68806  43.944  22.717   7.350
 8727POPC   NC368807  25.249  18.237   5.550
 8727POPC   PO468808  25.266  18.323   5.850
 8727POPC   GL168809  25.273  18.310   6.150
 8727POPC   GL268810  25.309  18.133   6.150
 8727POPC   C1A68811  25.251  18.327   6.450
 8727POPC   D2A68812  25.269  18.264   6.750
 8727POPC   C3A68813  25.311  18.329   7.050
 8727POPC   C4A68814  25.216  18.296   7.350
 8727POPC   C1B68815  25.280  17.989   6.450
 8727POPC   C2B68816  25.280  18.054   6.750
 8727POPC   C3B68817  25.268  18.078   7.050
 8727POPC   C4B68818  25.254  18.053   7.350
 8728POPC   NC368819  10.520  15.991   5.550
 8728POPC   PO468820  10.481  15.911   5.850
 8728POPC   GL168821  10.524  15.906   6.150
 8728POPC   GL268822  10.649  16.010   6.150
 8728POPC   C1A68823  10.531  15.990   6.450
 8728POPC   D2A68824  10.509  15.905   6.750
 8728POPC   C3A68825  10.547  15.991   7.050
 8728POPC   C4A68826  10.481  15.908   7.350
 8728POPC   C1B68827  10.761  16.036   6.450
 8728POPC   C2B68828  10.782  16.082   6.750
 8728POPC   C3B68829  10.737  16.114   7.050
 8728POPC   C4B68830  10.705  16.096   7.350
 8729POPC   NC368831  23.674  26.774   5.550
 8729POPC   PO468832  23.759  26.848   5.850
 8729POPC   GL168833  23.696  26.867   6.150
 8729POPC   GL268834  23.795  26.677   6.150
 8729POPC   C1A68835  23.732  26.866   6.450
 8729POPC   D2A68836  23.751  26.832   6.750
 8729POPC   C3A68837  23.706  26.861   7.050
 8729POPC   C4A68838  23.665  26.846   7.350
 8729POPC   C1B68839  23.848  26.596   6.450
 8729POPC   C2B68840  23.872  26.581   6.750
 8729POPC   C3B68841  23.814  26.623   7.050
 8729POPC   C4B68842  23.877  26.646   7.350
 8730POPC   NC368843  20.613  39.992   5.550
 8730POPC   PO468844  20.611  39.988   5.850
 8730POPC   GL168845  20.574  40.049   6.150
 8730POPC   GL268846  20.705  39.991   6.150
 8730POPC   C1A68847  20.625  39.992   6.450
 8730POPC   D2A68848  20.586  40.044   6.750
 8730POPC   C3A68849  20.659  40.003   7.050
 8730POPC   C4A68850  20.618  39.993   7.350
 8730POPC   C1B68851  20.852  39.961   6.450
 8730POPC   C2B68852  20.821  39.953   6.750
 8730POPC   C3B68853  20.862  39.974   7.050
 8730POPC   C4B68854  20.812  39.978   7.350
 8731POPC   NC368855  25.228  22.908   5.550
 8731POPC   PO468856  25.256  22.933   5.850
 8731POPC   GL168857  25.254  22.933   6.150
 8731POPC   GL268858  25.430  22.865   6.150
 8731POPC   C1A68859  25.239  22.945   6.450
 8731POPC   D2A68860  25.221  22.972   6.750
 8731POPC   C3A68861  25.275  22.940   7.050
 8731POPC   C4A68862  25.228  22.908   7.350
 8731POPC   C1B68863  25.462  22.822   6.450
 8731POPC   C2B68864  25.521  22.858   6.750
 8731POPC   C3B68865  25.465  22.896   7.050
 8731POPC   C4B68866  25.458  22.851   7.350
 8732POPC   NC368867   3.570  18.285   5.550
 8732POPC   PO468868   3.558  18.298   5.850
 8732POPC   GL168869   3.558  18.326   6.150
 8732POPC   GL268870   3.458  18.401   6.150
 8732POPC   C1A68871   3.522  18.277   6.450
 8732POPC   D2A68872   3.507  18.300   6.750
 8732POPC   C3A68873   3.514  18.297   7.050
 8732POPC   C4A68874   3.570  18.294   7.350
 8732POPC   C1B68875   3.418  18.500   6.450
 8732POPC   C2B68876   3.421  18.504   6.750
 8732POPC   C3B68877   3.393  18.430   7.050
 8732POPC   C4B68878   3.356  18.436   7.350
 8733POPC   NC368879  33.777  18.257   5.550
 8733POPC   PO468880  33.844  18.300   5.850
 8733POPC   GL168881  33.779  18.244   6.150
 8733POPC   GL268882  33.735  18.335   6.150
 8733POPC   C1A68883  33.769  18.325   6.450
 8733POPC   D2A68884  33.790  18.286   6.750
 8733POPC   C3A68885  33.801  18.321   7.050
 8733POPC   C4A68886  33.809  18.274   7.350
 8733POPC   C1B68887  33.657  18.417   6.450
 8733POPC   C2B68888  33.640  18.474   6.750
 8733POPC   C3B68889  33.635  18.468   7.050
 8733POPC   C4B68890  33.659  18.469   7.350
 8734POPC   NC368891  19.108  29.945   5.550
 8734POPC   PO468892  19.055  29.908   5.850
 8734POPC   GL168893  19.036  29.939   6.150
 8734POPC   GL268894  18.898  29.856   6.150
 8734POPC   C1A68895  19.079  29.884   6.450
 8734POPC   D2A68896  19.049  29.910   6.750
 8734POPC   C3A68897  19.046  29.894   7.050
 8734POPC   C4A68898  19.086  29.939   7.350
 8734POPC   C1B68899  18.866  29.871   6.450
 8734POPC   C2B68900  18.852  29.777   6.750
 8734POPC   C3B68901  18.865  29.821   7.050
 8734POPC   C4B68902  18.784  29.813   7.350
 8735POPC   NC368903  24.513   5.111   5.550
 8735POPC   PO468904  24.447   5.074   5.850
 8735POPC   GL168905  24.512   5.134   6.150
 8735POPC   GL268906  24.609   5.088   6.150
 8735POPC   C1A68907  24.483   5.090   6.450
 8735POPC   D2A68908  24.442   5.116   6.750
 8735POPC   C3A68909  24.458   5.071   7.050
 8735POPC   C4A68910  24.479   5.143   7.350
 8735POPC   C1B68911  24.718   5.026   6.450
 8735POPC   C2B68912  24.752   5.036   6.750
 8735POPC   C3B68913  24.764   5.075   7.050
 8735POPC   C4B68914  24.749   5.023   7.350
 8736POPC   NC368915  14.402  19.858   5.550
 8736POPC   PO468916  14.442  19.878   5.850
 8736POPC   GL168917  14.411  19.792   6.150
 8736POPC   GL268918  14.485  19.730   6.150
 8736POPC   C1A68919  14.383  19.854   6.450
 8736POPC   D2A68920  14.358  19.812   6.750
 8736POPC   C3A68921  14.365  19.834   7.050
 8736POPC   C4A68922  14.426  19.815   7.350
 8736POPC   C1B68923  14.571  19.736   6.450
 8736POPC   C2B68924  14.586  19.675   6.750
 8736POPC   C3B68925  14.629  19.717   7.050
 8736POPC   C4B68926  14.646  19.727   7.350
 8737POPC   NC368927  19.073  15.216   5.550
 8737POPC   PO468928  19.064  15.184   5.850
 8737POPC   GL168929  19.064  15.141   6.150
 8737POPC   GL268930  18.930  15.104   6.150
 8737POPC   C1A68931  19.093  15.166   6.450
 8737POPC   D2A68932  19.013  15.171   6.750
 8737POPC   C3A68933  19.025  15.186   7.050
 8737POPC   C4A68934  19.050  15.220   7.350
 8737POPC   C1B68935  18.826  15.037   6.450
 8737POPC   C2B68936  18.883  15.043   6.750
 8737POPC   C3B68937  18.870  15.000   7.050
 8737POPC   C4B68938  18.829  15.054   7.350
 8738POPC   NC368939  33.043  39.215   5.550
 8738POPC   PO468940  33.066  39.205   5.850
 8738POPC   GL168941  32.998  39.269   6.150
 8738POPC   GL268942  32.979  39.150   6.150
 8738POPC   C1A68943  32.986  39.231   6.450
 8738POPC   D2A68944  33.060  39.268   6.750
 8738POPC   C3A68945  33.042  39.261   7.050
 8738POPC   C4A68946  33.054  39.197   7.350
 8738POPC   C1B68947  32.965  39.019   6.450
 8738POPC   C2B68948  33.001  38.958   6.750
 8738POPC   C3B68949  33.047  39.002   7.050
 8738POPC   C4B68950  33.034  38.946   7.350
 8739POPC   NC368951   8.953  18.305   5.550
 8739POPC   PO468952   8.923  18.247   5.850
 8739POPC   GL168953   8.941  18.319   6.150
 8739POPC   GL268954   9.098  18.342   6.150
 8739POPC   C1A68955   8.953  18.267   6.450
 8739POPC   D2A68956   8.961  18.326   6.750
 8739POPC   C3A68957   9.016  18.260   7.050
 8739POPC   C4A68958   8.954  18.255   7.350
 8739POPC   C1B68959   9.092  18.420   6.450
 8739POPC   C2B68960   9.116  18.510   6.750
 8739POPC   C3B68961   9.184  18.447   7.050
 8739POPC   C4B68962   9.115  18.423   7.350
 8740POPC   NC368963  14.381  14.406   5.550
 8740POPC   PO468964  14.369  14.407   5.850
 8740POPC   GL168965  14.402  14.417   6.150
 8740POPC   GL268966  14.378  14.254   6.150
 8740POPC   C1A68967  14.387  14.386   6.450
 8740POPC   D2A68968  14.437  14.425   6.750
 8740POPC   C3A68969  14.382  14.428   7.050
 8740POPC   C4A68970  14.407  14.363   7.350
 8740POPC   C1B68971  14.232  14.184   6.450
 8740POPC   C2B68972  14.259  14.219   6.750
 8740POPC   C3B68973  14.307  14.232   7.050
 8740POPC   C4B68974  14.301  14.215   7.350
 8741POPC   NC368975  10.503   1.973   5.550
 8741POPC   PO468976  10.526   2.008   5.850
 8741POPC   GL168977  10.501   2.022   6.150
 8741POPC   GL268978  10.401   2.069   6.150
 8741POPC   C1A68979  10.479   2.033   6.450
 8741POPC   D2A68980  10.504   2.021   6.750
 8741POPC   C3A68981  10.480   1.988   7.050
 8741POPC   C4A68982  10.505   2.008   7.350
 8741POPC   C1B68983  10.354   2.071   6.450
 8741POPC   C2B68984  10.291   2.114   6.750
 8741POPC   C3B68985  10.285   2.090   7.050
 8741POPC   C4B68986  10.313   2.114   7.350
 8742POPC   NC368987  36.094  43.843   5.550
 8742POPC   PO468988  36.093  43.869   5.850
 8742POPC   GL168989  36.155  43.859   6.150
 8742POPC   GL268990  36.292  43.940   6.150
 8742POPC   C1A68991  36.132  43.912   6.450
 8742POPC   D2A68992  36.108  43.901   6.750
 8742POPC   C3A68993  36.167  43.844   7.050
 8742POPC   C4A68994  36.085  43.929   7.350
 8742POPC   C1B68995  36.417  43.928   6.450
 8742POPC   C2B68996  36.377  43.917   6.750
 8742POPC   C3B68997  36.396  43.877   7.050
 8742POPC   C4B68998  36.424  43.895   7.350
 8743POPC   NC368999  43.150  32.204   5.550
 8743POPC   PO469000  43.137  32.239   5.850
 8743POPC   GL169001  43.064  32.275   6.150
 8743POPC   GL269002  43.146  32.184   6.150
 8743POPC   C1A69003  43.142  32.214   6.450
 8743POPC   D2A69004  43.146  32.216   6.750
 8743POPC   C3A69005  43.062  32.259   7.050
 8743POPC   C4A69006  43.064  32.211   7.350
 8743POPC   C1B69007  43.240  32.087   6.450
 8743POPC   C2B69008  43.241  32.064   6.750
 8743POPC   C3B69009  43.256  32.009   7.050
 8743POPC   C4B69010  43.264  32.063   7.350
 8744POPC   NC369011   9.753  28.340   5.550
 8744POPC   PO469012   9.742  28.335   5.850
 8744POPC   GL169013   9.715  28.364   6.150
 8744POPC   GL269014   9.837  28.289   6.150
 8744POPC   C1A69015   9.792  28.415   6.450
 8744POPC   D2A69016   9.702  28.375   6.750
 8744POPC   C3A69017   9.729  28.353   7.050
 8744POPC   C4A69018   9.773  28.389   7.350
 8744POPC   C1B69019  10.025  28.319   6.450
 8744POPC   C2B69020   9.969  28.270   6.750
 8744POPC   C3B69021   9.971  28.288   7.050
 8744POPC   C4B69022   9.992  28.295   7.350
 8745POPC   NC369023  42.336   4.344   5.550
 8745POPC   PO469024  42.321   4.344   5.850
 8745POPC   GL169025  42.379   4.309   6.150
 8745POPC   GL269026  42.352   4.206   6.150
 8745POPC   C1A69027  42.293   4.361   6.450
 8745POPC   D2A69028  42.326   4.359   6.750
 8745POPC   C3A69029  42.328   4.299   7.050
 8745POPC   C4A69030  42.368   4.274   7.350
 8745POPC   C1B69031  42.494   4.113   6.450
 8745POPC   C2B69032  42.481   4.122   6.750
 8745POPC   C3B69033  42.430   4.112   7.050
 8745POPC   C4B69034  42.409   4.052   7.350
 8746POPC   NC369035   5.070  35.338   5.550
 8746POPC   PO469036   5.129  35.315   5.850
 8746POPC   GL169037   5.097  35.396   6.150
 8746POPC   GL269038   5.227  35.389   6.150
 8746POPC   C1A69039   5.140  35.397   6.450
 8746POPC   D2A69040   5.114  35.334   6.750
 8746POPC   C3A69041   5.089  35.348   7.050
 8746POPC   C4A69042   5.091  35.383   7.350
 8746POPC   C1B69043   5.298  35.448   6.450
 8746POPC   C2B69044   5.321  35.486   6.750
 8746POPC   C3B69045   5.322  35.442   7.050
 8746POPC   C4B69046   5.304  35.472   7.350
 8747POPC   NC369047   3.495  25.313   5.550
 8747POPC   PO469048   3.539  25.278   5.850
 8747POPC   GL169049   3.537  25.249   6.150
 8747POPC   GL269050   3.687  25.361   6.150
 8747POPC   C1A69051   3.562  25.301   6.450
 8747POPC   D2A69052   3.573  25.217   6.750
 8747POPC   C3A69053   3.553  25.260   7.050
 8747POPC   C4A69054   3.525  25.241   7.350
 8747POPC   C1B69055   3.782  25.379   6.450
 8747POPC   C2B69056   3.791  25.357   6.750
 8747POPC   C3B69057   3.792  25.413   7.050
 8747POPC   C4B69058   3.735  25.362   7.350
 8748POPC   NC369059   9.020   4.279   5.550
 8748POPC   PO469060   8.968   4.310   5.850
 8748POPC   GL169061   8.951   4.308   6.150
 8748POPC   GL269062   8.917   4.232   6.150
 8748POPC   C1A69063   8.980   4.346   6.450
 8748POPC   D2A69064   9.004   4.366   6.750
 8748POPC   C3A69065   9.010   4.288   7.050
 8748POPC   C4A69066   9.015   4.341   7.350
 8748POPC   C1B69067   8.803   4.120   6.450
 8748POPC   C2B69068   8.876   4.147   6.750
 8748POPC   C3B69069   8.893   4.132   7.050
 8748POPC   C4B69070   8.875   4.106   7.350
 8749POPC   NC369071  35.346   9.783   5.550
 8749POPC   PO469072  35.358   9.771   5.850
 8749POPC   GL169073  35.397   9.730   6.150
 8749POPC   GL269074  35.377   9.597   6.150
 8749POPC   C1A69075  35.350   9.748   6.450
 8749POPC   D2A69076  35.364   9.796   6.750
 8749POPC   C3A69077  35.326   9.731   7.050
 8749POPC   C4A69078  35.315   9.778   7.350
 8749POPC   C1B69079  35.346   9.536   6.450
 8749POPC   C2B69080  35.378   9.529   6.750
 8749POPC   C3B69081  35.331   9.519   7.050
 8749POPC   C4B69082  35.347   9.487   7.350
 8750POPC   NC369083  42.376  30.736   5.550
 8750POPC   PO469084  42.328  30.658   5.850
 8750POPC   GL169085  42.300  30.659   6.150
 8750POPC   GL269086  42.397  30.606   6.150
 8750POPC   C1A69087  42.312  30.660   6.450
 8750POPC   D2A69088  42.324  30.700   6.750
 8750POPC   C3A69089  42.296  30.698   7.050
 8750POPC   C4A69090  42.301  30.703   7.350
 8750POPC   C1B69091  42.494  30.517   6.450
 8750POPC   C2B69092  42.449  30.531   6.750
 8750POPC   C3B69093  42.459  30.503   7.050
 8750POPC   C4B69094  42.450  30.535   7.350
 8751POPC   NC369095  27.586  40.812   5.550
 8751POPC   PO469096  27.573  40.787   5.850
 8751POPC   GL169097  27.619  40.737   6.150
 8751POPC   GL269098  27.656  40.890   6.150
 8751POPC   C1A69099  27.624  40.753   6.450
 8751POPC   D2A69100  27.608  40.739   6.750
 8751POPC   C3A69101  27.573  40.771   7.050
 8751POPC   C4A69102  27.599  40.802   7.350
 8751POPC   C1B69103  27.698  40.988   6.450
 8751POPC   C2B69104  27.689  41.047   6.750
 8751POPC   C3B69105  27.646  41.022   7.050
 8751POPC   C4B69106  27.685  40.991   7.350
 8752POPC   NC369107  37.728  33.782   5.550
 8752POPC   PO469108  37.696  33.752   5.850
 8752POPC   GL169109  37.630  33.796   6.150
 8752POPC   GL269110  37.847  33.837   6.150
 8752POPC   C1A69111  37.642  33.814   6.450
 8752POPC   D2A69112  37.683  33.787   6.750
 8752POPC   C3A69113  37.638  33.792   7.050
 8752POPC   C4A69114  37.693  33.760   7.350
 8752POPC   C1B69115  37.979  33.788   6.450
 8752POPC   C2B69116  37.884  33.808   6.750
 8752POPC   C3B69117  37.912  33.830   7.050
 8752POPC   C4B69118  37.900  33.820   7.350
 8753POPC   NC369119   4.307  40.805   5.550
 8753POPC   PO469120   4.312  40.775   5.850
 8753POPC   GL169121   4.341  40.756   6.150
 8753POPC   GL269122   4.378  40.953   6.150
 8753POPC   C1A69123   4.331  40.748   6.450
 8753POPC   D2A69124   4.280  40.812   6.750
 8753POPC   C3A69125   4.337  40.819   7.050
 8753POPC   C4A69126   4.363  40.736   7.350
 8753POPC   C1B69127   4.345  40.988   6.450
 8753POPC   C2B69128   4.366  41.055   6.750
 8753POPC   C3B69129   4.373  41.020   7.050
 8753POPC   C4B69130   4.299  41.003   7.350
 8754POPC   NC369131  25.313  30.655   5.550
 8754POPC   PO469132  25.223  30.713   5.850
 8754POPC   GL169133  25.312  30.683   6.150
 8754POPC   GL269134  25.309  30.821   6.150
 8754POPC   C1A69135  25.259  30.672   6.450
 8754POPC   D2A69136  25.236  30.732   6.750
 8754POPC   C3A69137  25.280  30.706   7.050
 8754POPC   C4A69138  25.238  30.653   7.350
 8754POPC   C1B69139  25.280  30.930   6.450
 8754POPC   C2B69140  25.277  30.953   6.750
 8754POPC   C3B69141  25.293  30.945   7.050
 8754POPC   C4B69142  25.261  30.908   7.350
 8755POPC   NC369143  27.635  29.912   5.550
 8755POPC   PO469144  27.631  29.959   5.850
 8755POPC   GL169145  27.602  29.877   6.150
 8755POPC   GL269146  27.497  29.941   6.150
 8755POPC   C1A69147  27.574  29.901   6.450
 8755POPC   D2A69148  27.580  29.895   6.750
 8755POPC   C3A69149  27.571  29.891   7.050
 8755POPC   C4A69150  27.565  29.920   7.350
 8755POPC   C1B69151  27.320  29.998   6.450
 8755POPC   C2B69152  27.319  30.008   6.750
 8755POPC   C3B69153  27.370  30.015   7.050
 8755POPC   C4B69154  27.364  30.000   7.350
 8756POPC   NC369155  43.129   8.199   5.550
 8756POPC   PO469156  43.111   8.159   5.850
 8756POPC   GL169157  43.159   8.231   6.150
 8756POPC   GL269158  43.022   8.241   6.150
 8756POPC   C1A69159  43.116   8.174   6.450
 8756POPC   D2A69160  43.143   8.233   6.750
 8756POPC   C3A69161  43.122   8.178   7.050
 8756POPC   C4A69162  43.062   8.147   7.350
 8756POPC   C1B69163  42.856   8.348   6.450
 8756POPC   C2B69164  42.944   8.279   6.750
 8756POPC   C3B69165  42.866   8.308   7.050
 8756POPC   C4B69166  42.909   8.364   7.350
 8757POPC   NC369167  23.698  32.288   5.550
 8757POPC   PO469168  23.671  32.241   5.850
 8757POPC   GL169169  23.739  32.205   6.150
 8757POPC   GL269170  23.747  32.108   6.150
 8757POPC   C1A69171  23.752  32.294   6.450
 8757POPC   D2A69172  23.760  32.274   6.750
 8757POPC   C3A69173  23.713  32.287   7.050
 8757POPC   C4A69174  23.741  32.268   7.350
 8757POPC   C1B69175  23.680  32.029   6.450
 8757POPC   C2B69176  23.673  32.044   6.750
 8757POPC   C3B69177  23.672  31.999   7.050
 8757POPC   C4B69178  23.689  31.971   7.350
 8758POPC   NC369179  19.826  10.563   5.550
 8758POPC   PO469180  19.794  10.483   5.850
 8758POPC   GL169181  19.830  10.549   6.150
 8758POPC   GL269182  19.841  10.680   6.150
 8758POPC   C1A69183  19.865  10.505   6.450
 8758POPC   D2A69184  19.864  10.556   6.750
 8758POPC   C3A69185  19.830  10.547   7.050
 8758POPC   C4A69186  19.808  10.535   7.350
 8758POPC   C1B69187  19.890  10.750   6.450
 8758POPC   C2B69188  19.895  10.762   6.750
 8758POPC   C3B69189  19.916  10.777   7.050
 8758POPC   C4B69190  19.950  10.736   7.350
 8759POPC   NC369191  10.509  18.289   5.550
 8759POPC   PO469192  10.514  18.329   5.850
 8759POPC   GL169193  10.536  18.265   6.150
 8759POPC   GL269194  10.497  18.377   6.150
 8759POPC   C1A69195  10.514  18.260   6.450
 8759POPC   D2A69196  10.530  18.315   6.750
 8759POPC   C3A69197  10.496  18.297   7.050
 8759POPC   C4A69198  10.507  18.262   7.350
 8759POPC   C1B69199  10.548  18.570   6.450
 8759POPC   C2B69200  10.579  18.493   6.750
 8759POPC   C3B69201  10.580  18.521   7.050
 8759POPC   C4B69202  10.540  18.511   7.350
 8760POPC   NC369203   9.713   5.826   5.550
 8760POPC   PO469204   9.755   5.852   5.850
 8760POPC   GL169205   9.758   5.886   6.150
 8760POPC   GL269206   9.717   5.743   6.150
 8760POPC   C1A69207   9.724   5.901   6.450
 8760POPC   D2A69208   9.762   5.907   6.750
 8760POPC   C3A69209   9.719   5.889   7.050
 8760POPC   C4A69210   9.796   5.850   7.350
 8760POPC   C1B69211   9.755   5.580   6.450
 8760POPC   C2B69212   9.682   5.577   6.750
 8760POPC   C3B69213   9.746   5.637   7.050
 8760POPC   C4B69214   9.749   5.576   7.350
 8761POPC   NC369215  37.647  38.505   5.550
 8761POPC   PO469216  37.637  38.440   5.850
 8761POPC   GL169217  37.649  38.479   6.150
 8761POPC   GL269218  37.816  38.556   6.150
 8761POPC   C1A69219  37.650  38.436   6.450
 8761POPC   D2A69220  37.720  38.497   6.750
 8761POPC   C3A69221  37.630  38.472   7.050
 8761POPC   C4A69222  37.672  38.483   7.350
 8761POPC   C1B69223  37.936  38.550   6.450
 8761POPC   C2B69224  37.873  38.522   6.750
 8761POPC   C3B69225  37.931  38.582   7.050
 8761POPC   C4B69226  37.939  38.544   7.350
 8762POPC   NC369227   8.154  19.019   5.550
 8762POPC   PO469228   8.223  19.041   5.850
 8762POPC   GL169229   8.219  19.055   6.150
 8762POPC   GL269230   8.056  19.028   6.150
 8762POPC   C1A69231   8.149  19.075   6.450
 8762POPC   D2A69232   8.247  19.016   6.750
 8762POPC   C3A69233   8.193  19.011   7.050
 8762POPC   C4A69234   8.159  19.027   7.350
 8762POPC   C1B69235   8.017  18.897   6.450
 8762POPC   C2B69236   7.987  18.907   6.750
 8762POPC   C3B69237   7.969  18.922   7.050
 8762POPC   C4B69238   7.991  18.880   7.350
 8763POPC   NC369239  42.291  40.785   5.550
 8763POPC   PO469240  42.345  40.760   5.850
 8763POPC   GL169241  42.302  40.752   6.150
 8763POPC   GL269242  42.327  40.929   6.150
 8763POPC   C1A69243  42.335  40.753   6.450
 8763POPC   D2A69244  42.333  40.770   6.750
 8763POPC   C3A69245  42.317  40.754   7.050
 8763POPC   C4A69246  42.382  40.733   7.350
 8763POPC   C1B69247  42.331  41.078   6.450
 8763POPC   C2B69248  42.344  41.013   6.750
 8763POPC   C3B69249  42.390  41.075   7.050
 8763POPC   C4B69250  42.320  41.071   7.350
 8764POPC   NC369251   9.721  19.028   5.550
 8764POPC   PO469252   9.712  19.046   5.850
 8764POPC   GL169253   9.745  19.095   6.150
 8764POPC   GL269254   9.861  19.068   6.150
 8764POPC   C1A69255   9.721  19.026   6.450
 8764POPC   D2A69256   9.780  19.063   6.750
 8764POPC   C3A69257   9.765  19.073   7.050
 8764POPC   C4A69258   9.708  19.086   7.350
 8764POPC   C1B69259   9.956  19.074   6.450
 8764POPC   C2B69260   9.984  19.137   6.750
 8764POPC   C3B69261  10.025  19.125   7.050
 8764POPC   C4B69262  10.028  19.070   7.350
 8765POPC   NC369263  32.279  22.962   5.550
 8765POPC   PO469264  32.275  22.889   5.850
 8765POPC   GL169265  32.261  22.889   6.150
 8765POPC   GL269266  32.373  23.057   6.150
 8765POPC   C1A69267  32.207  22.917   6.450
 8765POPC   D2A69268  32.204  22.915   6.750
 8765POPC   C3A69269  32.200  22.959   7.050
 8765POPC   C4A69270  32.287  22.933   7.350
 8765POPC   C1B69271  32.401  23.066   6.450
 8765POPC   C2B69272  32.479  23.121   6.750
 8765POPC   C3B69273  32.442  23.111   7.050
 8765POPC   C4B69274  32.471  23.127   7.350
 8766POPC   NC369275  39.265  21.363   5.550
 8766POPC   PO469276  39.267  21.356   5.850
 8766POPC   GL169277  39.265  21.432   6.150
 8766POPC   GL269278  39.124  21.497   6.150
 8766POPC   C1A69279  39.229  21.419   6.450
 8766POPC   D2A69280  39.188  21.341   6.750
 8766POPC   C3A69281  39.210  21.359   7.050
 8766POPC   C4A69282  39.209  21.395   7.350
 8766POPC   C1B69283  39.045  21.586   6.450
 8766POPC   C2B69284  39.075  21.586   6.750
 8766POPC   C3B69285  39.061  21.547   7.050
 8766POPC   C4B69286  39.108  21.547   7.350
 8767POPC   NC369287  31.522  26.041   5.550
 8767POPC   PO469288  31.440  26.005   5.850
 8767POPC   GL169289  31.460  26.028   6.150
 8767POPC   GL269290  31.428  25.962   6.150
 8767POPC   C1A69291  31.476  26.040   6.450
 8767POPC   D2A69292  31.521  26.044   6.750
 8767POPC   C3A69293  31.454  26.073   7.050
 8767POPC   C4A69294  31.513  26.078   7.350
 8767POPC   C1B69295  31.287  25.907   6.450
 8767POPC   C2B69296  31.273  25.888   6.750
 8767POPC   C3B69297  31.259  25.854   7.050
 8767POPC   C4B69298  31.276  25.856   7.350
 8768POPC   NC369299  30.654   3.506   5.550
 8768POPC   PO469300  30.662   3.523   5.850
 8768POPC   GL169301  30.728   3.552   6.150
 8768POPC   GL269302  30.837   3.593   6.150
 8768POPC   C1A69303  30.744   3.532   6.450
 8768POPC   D2A69304  30.710   3.567   6.750
 8768POPC   C3A69305  30.724   3.560   7.050
 8768POPC   C4A69306  30.692   3.570   7.350
 8768POPC   C1B69307  30.840   3.747   6.450
 8768POPC   C2B69308  30.886   3.707   6.750
 8768POPC   C3B69309  30.864   3.719   7.050
 8768POPC   C4B69310  30.907   3.674   7.350
 8769POPC   NC369311  36.154  41.548   5.550
 8769POPC   PO469312  36.147  41.549   5.850
 8769POPC   GL169313  36.172  41.597   6.150
 8769POPC   GL269314  36.154  41.667   6.150
 8769POPC   C1A69315  36.124  41.511   6.450
 8769POPC   D2A69316  36.164  41.603   6.750
 8769POPC   C3A69317  36.158  41.605   7.050
 8769POPC   C4A69318  36.175  41.567   7.350
 8769POPC   C1B69319  36.052  41.768   6.450
 8769POPC   C2B69320  36.115  41.780   6.750
 8769POPC   C3B69321  36.064  41.840   7.050
 8769POPC   C4B69322  36.067  41.792   7.350
 8770POPC   NC369323   3.576  16.742   5.550
 8770POPC   PO469324   3.510  16.710   5.850
 8770POPC   GL169325   3.567  16.695   6.150
 8770POPC   GL269326   3.553  16.654   6.150
 8770POPC   C1A69327   3.507  16.746   6.450
 8770POPC   D2A69328   3.580  16.711   6.750
 8770POPC   C3A69329   3.547  16.757   7.050
 8770POPC   C4A69330   3.526  16.744   7.350
 8770POPC   C1B69331   3.564  16.493   6.450
 8770POPC   C2B69332   3.648  16.491   6.750
 8770POPC   C3B69333   3.596  16.489   7.050
 8770POPC   C4B69334   3.608  16.489   7.350
 8771POPC   NC369335  37.661  39.981   5.550
 8771POPC   PO469336  37.702  40.047   5.850
 8771POPC   GL169337  37.642  40.014   6.150
 8771POPC   GL269338  37.749  40.030   6.150
 8771POPC   C1A69339  37.663  40.042   6.450
 8771POPC   D2A69340  37.719  39.988   6.750
 8771POPC   C3A69341  37.642  39.977   7.050
 8771POPC   C4A69342  37.692  39.989   7.350
 8771POPC   C1B69343  37.888  40.090   6.450
 8771POPC   C2B69344  37.933  40.123   6.750
 8771POPC   C3B69345  37.946  40.127   7.050
 8771POPC   C4B69346  37.909  40.080   7.350
 8772POPC   NC369347  36.088  35.324   5.550
 8772POPC   PO469348  36.091  35.335   5.850
 8772POPC   GL169349  36.177  35.312   6.150
 8772POPC   GL269350  36.217  35.374   6.150
 8772POPC   C1A69351  36.152  35.402   6.450
 8772POPC   D2A69352  36.091  35.382   6.750
 8772POPC   C3A69353  36.110  35.317   7.050
 8772POPC   C4A69354  36.151  35.344   7.350
 8772POPC   C1B69355  36.372  35.532   6.450
 8772POPC   C2B69356  36.336  35.469   6.750
 8772POPC   C3B69357  36.368  35.526   7.050
 8772POPC   C4B69358  36.372  35.530   7.350
 8773POPC   NC369359  30.732  10.555   5.550
 8773POPC   PO469360  30.669  10.529   5.850
 8773POPC   GL169361  30.680  10.536   6.150
 8773POPC   GL269362  30.657  10.637   6.150
 8773POPC   C1A69363  30.654  10.497   6.450
 8773POPC   D2A69364  30.671  10.525   6.750
 8773POPC   C3A69365  30.680  10.504   7.050
 8773POPC   C4A69366  30.710  10.550   7.350
 8773POPC   C1B69367  30.574  10.703   6.450
 8773POPC   C2B69368  30.515  10.686   6.750
 8773POPC   C3B69369  30.578  10.684   7.050
 8773POPC   C4B69370  30.506  10.685   7.350
 8774POPC   NC369371  25.303   5.841   5.550
 8774POPC   PO469372  25.270   5.899   5.850
 8774POPC   GL169373  25.302   5.912   6.150
 8774POPC   GL269374  25.215   5.760   6.150
 8774POPC   C1A69375  25.258   5.826   6.450
 8774POPC   D2A69376  25.285   5.911   6.750
 8774POPC   C3A69377  25.263   5.880   7.050
 8774POPC   C4A69378  25.277   5.911   7.350
 8774POPC   C1B69379  25.213   5.650   6.450
 8774POPC   C2B69380  25.233   5.631   6.750
 8774POPC   C3B69381  25.244   5.637   7.050
 8774POPC   C4B69382  25.209   5.671   7.350
 8775POPC   NC369383  40.797  36.127   5.550
 8775POPC   PO469384  40.738  36.149   5.850
 8775POPC   GL169385  40.831  36.162   6.150
 8775POPC   GL269386  40.696  36.113   6.150
 8775POPC   C1A69387  40.736  36.107   6.450
 8775POPC   D2A69388  40.808  36.151   6.750
 8775POPC   C3A69389  40.770  36.106   7.050
 8775POPC   C4A69390  40.794  36.165   7.350
 8775POPC   C1B69391  40.485  36.169   6.450
 8775POPC   C2B69392  40.503  36.150   6.750
 8775POPC   C3B69393  40.562  36.147   7.050
 8775POPC   C4B69394  40.555  36.096   7.350
 8776POPC   NC369395   1.959  29.177   5.550
 8776POPC   PO469396   1.999  29.108   5.850
 8776POPC   GL169397   1.973  29.166   6.150
 8776POPC   GL269398   2.055  29.256   6.150
 8776POPC   C1A69399   1.985  29.178   6.450
 8776POPC   D2A69400   2.020  29.169   6.750
 8776POPC   C3A69401   2.019  29.098   7.050
 8776POPC   C4A69402   1.944  29.187   7.350
 8776POPC   C1B69403   2.091  29.368   6.450
 8776POPC   C2B69404   2.159  29.359   6.750
 8776POPC   C3B69405   2.111  29.360   7.050
 8776POPC   C4B69406   2.139  29.376   7.350
 8777POPC   NC369407  19.098   0.475   5.550
 8777POPC   PO469408  19.108   0.448   5.850
 8777POPC   GL169409  19.062   0.395   6.150
 8777POPC   GL269410  19.148   0.485   6.150
 8777POPC   C1A69411  19.044   0.428   6.450
 8777POPC   D2A69412  19.050   0.405   6.750
 8777POPC   C3A69413  19.107   0.421   7.050
 8777POPC   C4A69414  19.092   0.456   7.350
 8777POPC   C1B69415  19.347   0.441   6.450
 8777POPC   C2B69416  19.327   0.461   6.750
 8777POPC   C3B69417  19.347   0.402   7.050
 8777POPC   C4B69418  19.333   0.479   7.350
 8778POPC   NC369419  29.148  22.170   5.550
 8778POPC   PO469420  29.128  22.197   5.850
 8778POPC   GL169421  29.116  22.146   6.150
 8778POPC   GL269422  29.025  22.183   6.150
 8778POPC   C1A69423  29.122  22.182   6.450
 8778POPC   D2A69424  29.184  22.148   6.750
 8778POPC   C3A69425  29.099  22.208   7.050
 8778POPC   C4A69426  29.172  22.164   7.350
 8778POPC   C1B69427  28.892  22.175   6.450
 8778POPC   C2B69428  28.894  22.090   6.750
 8778POPC   C3B69429  28.936  22.147   7.050
 8778POPC   C4B69430  28.900  22.090   7.350
 8779POPC   NC369431   1.190   8.949   5.550
 8779POPC   PO469432   1.172   8.963   5.850
 8779POPC   GL169433   1.247   8.926   6.150
 8779POPC   GL269434   1.154   8.866   6.150
 8779POPC   C1A69435   1.208   8.963   6.450
 8779POPC   D2A69436   1.189   8.945   6.750
 8779POPC   C3A69437   1.250   8.946   7.050
 8779POPC   C4A69438   1.205   9.017   7.350
 8779POPC   C1B69439   1.154   8.690   6.450
 8779POPC   C2B69440   1.162   8.683   6.750
 8779POPC   C3B69441   1.155   8.728   7.050
 8779POPC   C4B69442   1.137   8.755   7.350
 8780POPC   NC369443   5.126  22.889   5.550
 8780POPC   PO469444   5.102  22.968   5.850
 8780POPC   GL169445   5.123  22.982   6.150
 8780POPC   GL269446   5.041  22.802   6.150
 8780POPC   C1A69447   5.047  22.900   6.450
 8780POPC   D2A69448   5.122  22.906   6.750
 8780POPC   C3A69449   5.117  22.948   7.050
 8780POPC   C4A69450   5.091  22.956   7.350
 8780POPC   C1B69451   4.992  22.721   6.450
 8780POPC   C2B69452   4.982  22.728   6.750
 8780POPC   C3B69453   5.052  22.669   7.050
 8780POPC   C4B69454   5.057  22.720   7.350
 8781POPC   NC369455  10.542   1.184   5.550
 8781POPC   PO469456  10.522   1.227   5.850
 8781POPC   GL169457  10.568   1.196   6.150
 8781POPC   GL269458  10.635   1.188   6.150
 8781POPC   C1A69459  10.511   1.213   6.450
 8781POPC   D2A69460  10.484   1.209   6.750
 8781POPC   C3A69461  10.566   1.181   7.050
 8781POPC   C4A69462  10.489   1.242   7.350
 8781POPC   C1B69463  10.782   1.060   6.450
 8781POPC   C2B69464  10.699   1.139   6.750
 8781POPC   C3B69465  10.765   1.096   7.050
 8781POPC   C4B69466  10.724   1.103   7.350
 8782POPC   NC369467   0.457  29.176   5.550
 8782POPC   PO469468   0.463  29.170   5.850
 8782POPC   GL169469   0.444  29.136   6.150
 8782POPC   GL269470   0.332  29.168   6.150
 8782POPC   C1A69471   0.443  29.111   6.450
 8782POPC   D2A69472   0.468  29.163   6.750
 8782POPC   C3A69473   0.440  29.190   7.050
 8782POPC   C4A69474   0.486  29.123   7.350
 8782POPC   C1B69475   0.232  29.298   6.450
 8782POPC   C2B69476   0.204  29.252   6.750
 8782POPC   C3B69477   0.216  29.318   7.050
 8782POPC   C4B69478   0.251  29.257   7.350
 8783POPC   NC369479  12.107  22.902   5.550
 8783POPC   PO469480  12.026  22.895   5.850
 8783POPC   GL169481  12.119  22.966   6.150
 8783POPC   GL269482  12.164  23.008   6.150
 8783POPC   C1A69483  12.048  22.895   6.450
 8783POPC   D2A69484  12.082  22.949   6.750
 8783POPC   C3A69485  12.096  22.910   7.050
 8783POPC   C4A69486  12.125  22.975   7.350
 8783POPC   C1B69487  12.134  23.140   6.450
 8783POPC   C2B69488  12.140  23.151   6.750
 8783POPC   C3B69489  12.198  23.179   7.050
 8783POPC   C4B69490  12.192  23.172   7.350
 8784POPC   NC369491  22.956  15.195   5.550
 8784POPC   PO469492  22.973  15.197   5.850
 8784POPC   GL169493  22.904  15.179   6.150
 8784POPC   GL269494  23.033  15.202   6.150
 8784POPC   C1A69495  22.960  15.179   6.450
 8784POPC   D2A69496  22.957  15.188   6.750
 8784POPC   C3A69497  22.916  15.205   7.050
 8784POPC   C4A69498  22.900  15.217   7.350
 8784POPC   C1B69499  23.196  15.208   6.450
 8784POPC   C2B69500  23.224  15.198   6.750
 8784POPC   C3B69501  23.174  15.162   7.050
 8784POPC   C4B69502  23.163  15.162   7.350
 8785POPC   NC369503  24.443  12.846   5.550
 8785POPC   PO469504  24.511  12.826   5.850
 8785POPC   GL169505  24.534  12.901   6.150
 8785POPC   GL269506  24.656  12.840   6.150
 8785POPC   C1A69507  24.520  12.887   6.450
 8785POPC   D2A69508  24.515  12.901   6.750
 8785POPC   C3A69509  24.509  12.822   7.050
 8785POPC   C4A69510  24.537  12.879   7.350
 8785POPC   C1B69511  24.730  12.891   6.450
 8785POPC   C2B69512  24.717  12.907   6.750
 8785POPC   C3B69513  24.777  12.864   7.050
 8785POPC   C4B69514  24.753  12.859   7.350
 8786POPC   NC369515  35.312  13.587   5.550
 8786POPC   PO469516  35.376  13.609   5.850
 8786POPC   GL169517  35.401  13.618   6.150
 8786POPC   GL269518  35.404  13.579   6.150
 8786POPC   C1A69519  35.332  13.599   6.450
 8786POPC   D2A69520  35.335  13.621   6.750
 8786POPC   C3A69521  35.358  13.625   7.050
 8786POPC   C4A69522  35.331  13.633   7.350
 8786POPC   C1B69523  35.565  13.450   6.450
 8786POPC   C2B69524  35.527  13.480   6.750
 8786POPC   C3B69525  35.523  13.448   7.050
 8786POPC   C4B69526  35.480  13.441   7.350
 8787POPC   NC369527  43.923  13.630   5.550
 8787POPC   PO469528  43.879  13.636   5.850
 8787POPC   GL169529  43.854  13.612   6.150
 8787POPC   GL269530  43.955  13.719   6.150
 8787POPC   C1A69531  43.856  13.590   6.450
 8787POPC   D2A69532  43.888  13.639   6.750
 8787POPC   C3A69533  43.909  13.608   7.050
 8787POPC   C4A69534  43.909  13.612   7.350
 8787POPC   C1B69535  44.055  13.784   6.450
 8787POPC   C2B69536  44.081  13.773   6.750
 8787POPC   C3B69537  44.033  13.824   7.050
 8787POPC   C4B69538  44.038  13.833   7.350
 8788POPC   NC369539  33.010  40.764   5.550
 8788POPC   PO469540  33.016  40.780   5.850
 8788POPC   GL169541  33.041  40.741   6.150
 8788POPC   GL269542  32.893  40.729   6.150
 8788POPC   C1A69543  32.981  40.784   6.450
 8788POPC   D2A69544  32.988  40.739   6.750
 8788POPC   C3A69545  33.073  40.789   7.050
 8788POPC   C4A69546  32.996  40.797   7.350
 8788POPC   C1B69547  32.848  40.591   6.450
 8788POPC   C2B69548  32.892  40.586   6.750
 8788POPC   C3B69549  32.897  40.567   7.050
 8788POPC   C4B69550  32.837  40.641   7.350
 8789POPC   NC369551  19.019  27.575   5.550
 8789POPC   PO469552  19.021  27.588   5.850
 8789POPC   GL169553  19.067  27.604   6.150
 8789POPC   GL269554  18.970  27.690   6.150
 8789POPC   C1A69555  19.071  27.619   6.450
 8789POPC   D2A69556  19.085  27.590   6.750
 8789POPC   C3A69557  19.039  27.587   7.050
 8789POPC   C4A69558  19.094  27.595   7.350
 8789POPC   C1B69559  18.806  27.679   6.450
 8789POPC   C2B69560  18.876  27.731   6.750
 8789POPC   C3B69561  18.856  27.741   7.050
 8789POPC   C4B69562  18.861  27.744   7.350
 8790POPC   NC369563  34.614  36.867   5.550
 8790POPC   PO469564  34.570  36.928   5.850
 8790POPC   GL169565  34.526  36.880   6.150
 8790POPC   GL269566  34.673  36.855   6.150
 8790POPC   C1A69567  34.586  36.902   6.450
 8790POPC   D2A69568  34.611  36.890   6.750
 8790POPC   C3A69569  34.589  36.924   7.050
 8790POPC   C4A69570  34.571  36.924   7.350
 8790POPC   C1B69571  34.716  36.772   6.450
 8790POPC   C2B69572  34.796  36.718   6.750
 8790POPC   C3B69573  34.752  36.747   7.050
 8790POPC   C4B69574  34.772  36.763   7.350
 8791POPC   NC369575  40.816  23.688   5.550
 8791POPC   PO469576  40.740  23.701   5.850
 8791POPC   GL169577  40.781  23.731   6.150
 8791POPC   GL269578  40.648  23.689   6.150
 8791POPC   C1A69579  40.829  23.672   6.450
 8791POPC   D2A69580  40.760  23.753   6.750
 8791POPC   C3A69581  40.806  23.693   7.050
 8791POPC   C4A69582  40.751  23.714   7.350
 8791POPC   C1B69583  40.548  23.562   6.450
 8791POPC   C2B69584  40.618  23.605   6.750
 8791POPC   C3B69585  40.581  23.557   7.050
 8791POPC   C4B69586  40.531  23.590   7.350
 8792POPC   NC369587   3.510  38.450   5.550
 8792POPC   PO469588   3.510  38.475   5.850
 8792POPC   GL169589   3.538  38.407   6.150
 8792POPC   GL269590   3.395  38.451   6.150
 8792POPC   C1A69591   3.565  38.407   6.450
 8792POPC   D2A69592   3.512  38.428   6.750
 8792POPC   C3A69593   3.559  38.459   7.050
 8792POPC   C4A69594   3.585  38.455   7.350
 8792POPC   C1B69595   3.294  38.414   6.450
 8792POPC   C2B69596   3.302  38.451   6.750
 8792POPC   C3B69597   3.293  38.450   7.050
 8792POPC   C4B69598   3.298  38.431   7.350
 8793POPC   NC369599   5.048   5.900   5.550
 8793POPC   PO469600   5.047   5.829   5.850
 8793POPC   GL169601   5.062   5.845   6.150
 8793POPC   GL269602   5.037   5.699   6.150
 8793POPC   C1A69603   5.082   5.906   6.450
 8793POPC   D2A69604   5.090   5.907   6.750
 8793POPC   C3A69605   5.131   5.870   7.050
 8793POPC   C4A69606   5.124   5.878   7.350
 8793POPC   C1B69607   5.030   5.596   6.450
 8793POPC   C2B69608   5.104   5.584   6.750
 8793POPC   C3B69609   5.054   5.665   7.050
 8793POPC   C4B69610   5.023   5.653   7.350
 8794POPC   NC369611  14.439   7.375   5.550
 8794POPC   PO469612  14.365   7.384   5.850
 8794POPC   GL169613  14.401   7.461   6.150
 8794POPC   GL269614  14.416   7.346   6.150
 8794POPC   C1A69615  14.394   7.393   6.450
 8794POPC   D2A69616  14.453   7.386   6.750
 8794POPC   C3A69617  14.423   7.460   7.050
 8794POPC   C4A69618  14.362   7.390   7.350
 8794POPC   C1B69619  14.328   7.209   6.450
 8794POPC   C2B69620  14.358   7.194   6.750
 8794POPC   C3B69621  14.349   7.153   7.050
 8794POPC   C4B69622  14.318   7.146   7.350
 8795POPC   NC369623  12.834  28.383   5.550
 8795POPC   PO469624  12.826  28.394   5.850
 8795POPC   GL169625  12.874  28.329   6.150
 8795POPC   GL269626  12.917  28.360   6.150
 8795POPC   C1A69627  12.880  28.336   6.450
 8795POPC   D2A69628  12.860  28.325   6.750
 8795POPC   C3A69629  12.836  28.366   7.050
 8795POPC   C4A69630  12.821  28.378   7.350
 8795POPC   C1B69631  13.098  28.266   6.450
 8795POPC   C2B69632  13.036  28.218   6.750
 8795POPC   C3B69633  13.110  28.282   7.050
 8795POPC   C4B69634  13.029  28.251   7.350
 8796POPC   NC369635  42.376  24.485   5.550
 8796POPC   PO469636  42.343  24.460   5.850
 8796POPC   GL169637  42.317  24.506   6.150
 8796POPC   GL269638  42.472  24.514   6.150
 8796POPC   C1A69639  42.312  24.528   6.450
 8796POPC   D2A69640  42.309  24.487   6.750
 8796POPC   C3A69641  42.297  24.490   7.050
 8796POPC   C4A69642  42.365  24.484   7.350
 8796POPC   C1B69643  42.618  24.499   6.450
 8796POPC   C2B69644  42.620  24.498   6.750
 8796POPC   C3B69645  42.620  24.484   7.050
 8796POPC   C4B69646  42.553  24.477   7.350
 8797POPC   NC369647  14.404  15.167   5.550
 8797POPC   PO469648  14.384  15.217   5.850
 8797POPC   GL169649  14.421  15.219   6.150
 8797POPC   GL269650  14.402  15.277   6.150
 8797POPC   C1A69651  14.354  15.152   6.450
 8797POPC   D2A69652  14.441  15.219   6.750
 8797POPC   C3A69653  14.415  15.170   7.050
 8797POPC   C4A69654  14.432  15.192   7.350
 8797POPC   C1B69655  14.401  15.394   6.450
 8797POPC   C2B69656  14.423  15.395   6.750
 8797POPC   C3B69657  14.426  15.399   7.050
 8797POPC   C4B69658  14.388  15.408   7.350
 8798POPC   NC369659  23.731  39.203   5.550
 8798POPC   PO469660  23.669  39.248   5.850
 8798POPC   GL169661  23.731  39.183   6.150
 8798POPC   GL269662  23.745  39.154   6.150
 8798POPC   C1A69663  23.723  39.273   6.450
 8798POPC   D2A69664  23.738  39.194   6.750
 8798POPC   C3A69665  23.691  39.203   7.050
 8798POPC   C4A69666  23.709  39.261   7.350
 8798POPC   C1B69667  23.802  39.005   6.450
 8798POPC   C2B69668  23.794  39.030   6.750
 8798POPC   C3B69669  23.791  38.991   7.050
 8798POPC   C4B69670  23.767  38.960   7.350
 8799POPC   NC369671  39.229  17.531   5.550
 8799POPC   PO469672  39.276  17.463   5.850
 8799POPC   GL169673  39.215  17.494   6.150
 8799POPC   GL269674  39.264  17.590   6.150
 8799POPC   C1A69675  39.189  17.553   6.450
 8799POPC   D2A69676  39.237  17.462   6.750
 8799POPC   C3A69677  39.197  17.532   7.050
 8799POPC   C4A69678  39.224  17.543   7.350
 8799POPC   C1B69679  39.394  17.739   6.450
 8799POPC   C2B69680  39.397  17.699   6.750
 8799POPC   C3B69681  39.393  17.734   7.050
 8799POPC   C4B69682  39.324  17.671   7.350
 8800POPC   NC369683   4.291   4.278   5.550
 8800POPC   PO469684   4.333   4.327   5.850
 8800POPC   GL169685   4.275   4.320   6.150
 8800POPC   GL269686   4.460   4.367   6.150
 8800POPC   C1A69687   4.314   4.343   6.450
 8800POPC   D2A69688   4.357   4.268   6.750
 8800POPC   C3A69689   4.344   4.273   7.050
 8800POPC   C4A69690   4.297   4.277   7.350
 8800POPC   C1B69691   4.603   4.370   6.450
 8800POPC   C2B69692   4.568   4.398   6.750
 8800POPC   C3B69693   4.598   4.350   7.050
 8800POPC   C4B69694   4.539   4.420   7.350
 8801POPC   NC369695  36.897  39.215   5.550
 8801POPC   PO469696  36.925  39.260   5.850
 8801POPC   GL169697  36.953  39.216   6.150
 8801POPC   GL269698  36.870  39.140   6.150
 8801POPC   C1A69699  36.926  39.221   6.450
 8801POPC   D2A69700  36.856  39.245   6.750
 8801POPC   C3A69701  36.907  39.265   7.050
 8801POPC   C4A69702  36.947  39.231   7.350
 8801POPC   C1B69703  36.904  39.030   6.450
 8801POPC   C2B69704  36.843  38.983   6.750
 8801POPC   C3B69705  36.888  39.009   7.050
 8801POPC   C4B69706  36.847  38.981   7.350
 8802POPC   NC369707  21.406   8.159   5.550
 8802POPC   PO469708  21.418   8.229   5.850
 8802POPC   GL169709  21.414   8.159   6.150
 8802POPC   GL269710  21.305   8.219   6.150
 8802POPC   C1A69711  21.410   8.216   6.450
 8802POPC   D2A69712  21.382   8.224   6.750
 8802POPC   C3A69713  21.351   8.155   7.050
 8802POPC   C4A69714  21.430   8.224   7.350
 8802POPC   C1B69715  21.185   8.267   6.450
 8802POPC   C2B69716  21.119   8.215   6.750
 8802POPC   C3B69717  21.092   8.276   7.050
 8802POPC   C4B69718  21.158   8.224   7.350
 8803POPC   NC369719  33.820   2.790   5.550
 8803POPC   PO469720  33.804   2.791   5.850
 8803POPC   GL169721  33.806   2.772   6.150
 8803POPC   GL269722  33.688   2.837   6.150
 8803POPC   C1A69723  33.754   2.775   6.450
 8803POPC   D2A69724  33.812   2.742   6.750
 8803POPC   C3A69725  33.815   2.717   7.050
 8803POPC   C4A69726  33.835   2.787   7.350
 8803POPC   C1B69727  33.520   2.839   6.450
 8803POPC   C2B69728  33.520   2.851   6.750
 8803POPC   C3B69729  33.540   2.802   7.050
 8803POPC   C4B69730  33.579   2.780   7.350
 8804POPC   NC369731   7.412  13.589   5.550
 8804POPC   PO469732   7.386  13.658   5.850
 8804POPC   GL169733   7.448  13.590   6.150
 8804POPC   GL269734   7.457  13.720   6.150
 8804POPC   C1A69735   7.374  13.602   6.450
 8804POPC   D2A69736   7.455  13.606   6.750
 8804POPC   C3A69737   7.390  13.650   7.050
 8804POPC   C4A69738   7.449  13.588   7.350
 8804POPC   C1B69739   7.490  13.844   6.450
 8804POPC   C2B69740   7.520  13.858   6.750
 8804POPC   C3B69741   7.513  13.851   7.050
 8804POPC   C4B69742   7.499  13.845   7.350
 8805POPC   NC369743  29.158  26.001   5.550
 8805POPC   PO469744  29.112  26.032   5.850
 8805POPC   GL169745  29.180  26.010   6.150
 8805POPC   GL269746  29.070  26.133   6.150
 8805POPC   C1A69747  29.108  26.045   6.450
 8805POPC   D2A69748  29.166  26.071   6.750
 8805POPC   C3A69749  29.105  26.042   7.050
 8805POPC   C4A69750  29.133  26.062   7.350
 8805POPC   C1B69751  29.012  26.212   6.450
 8805POPC   C2B69752  28.964  26.205   6.750
 8805POPC   C3B69753  28.960  26.260   7.050
 8805POPC   C4B69754  29.000  26.237   7.350
 8806POPC   NC369755   1.979  40.793   5.550
 8806POPC   PO469756   1.981  40.782   5.850
 8806POPC   GL169757   1.977  40.777   6.150
 8806POPC   GL269758   1.869  40.878   6.150
 8806POPC   C1A69759   2.021  40.780   6.450
 8806POPC   D2A69760   2.001  40.742   6.750
 8806POPC   C3A69761   2.012  40.743   7.050
 8806POPC   C4A69762   1.980  40.814   7.350
 8806POPC   C1B69763   1.718  40.836   6.450
 8806POPC   C2B69764   1.805  40.916   6.750
 8806POPC   C3B69765   1.724  40.864   7.050
 8806POPC   C4B69766   1.789  40.893   7.350
 8807POPC   NC369767  32.280  36.119   5.550
 8807POPC   PO469768  32.281  36.104   5.850
 8807POPC   GL169769  32.240  36.099   6.150
 8807POPC   GL269770  32.331  35.959   6.150
 8807POPC   C1A69771  32.229  36.160   6.450
 8807POPC   D2A69772  32.206  36.113   6.750
 8807POPC   C3A69773  32.200  36.170   7.050
 8807POPC   C4A69774  32.281  36.087   7.350
 8807POPC   C1B69775  32.313  35.844   6.450
 8807POPC   C2B69776  32.315  35.917   6.750
 8807POPC   C3B69777  32.284  35.863   7.050
 8807POPC   C4B69778  32.293  35.898   7.350
 8808POPC   NC369779   8.925  44.624   5.550
 8808POPC   PO469780   8.993  44.640   5.850
 8808POPC   GL169781   9.015  44.621   6.150
 8808POPC   GL269782   8.994  44.743   6.150
 8808POPC   C1A69783   9.012  44.640   6.450
 8808POPC   D2A69784   9.006  44.652   6.750
 8808POPC   C3A69785   8.950  44.650   7.050
 8808POPC   C4A69786   8.988  44.639   7.350
 8808POPC   C1B69787   9.048  44.873   6.450
 8808POPC   C2B69788   9.034  44.868   6.750
 8808POPC   C3B69789   9.049  44.864   7.050
 8808POPC   C4B69790   9.119  44.847   7.350
 8809POPC   NC369791  17.459   8.953   5.550
 8809POPC   PO469792  17.510   9.022   5.850
 8809POPC   GL169793  17.547   9.020   6.150
 8809POPC   GL269794  17.582   9.007   6.150
 8809POPC   C1A69795  17.507   8.954   6.450
 8809POPC   D2A69796  17.478   8.972   6.750
 8809POPC   C3A69797  17.511   9.013   7.050
 8809POPC   C4A69798  17.477   9.007   7.350
 8809POPC   C1B69799  17.711   9.083   6.450
 8809POPC   C2B69800  17.726   9.110   6.750
 8809POPC   C3B69801  17.706   9.149   7.050
 8809POPC   C4B69802  17.661   9.128   7.350
 8810POPC   NC369803  24.458  20.622   5.550
 8810POPC   PO469804  24.529  20.616   5.850
 8810POPC   GL169805  24.527  20.587   6.150
 8810POPC   GL269806  24.532  20.452   6.150
 8810POPC   C1A69807  24.451  20.642   6.450
 8810POPC   D2A69808  24.502  20.562   6.750
 8810POPC   C3A69809  24.489  20.583   7.050
 8810POPC   C4A69810  24.495  20.602   7.350
 8810POPC   C1B69811  24.601  20.411   6.450
 8810POPC   C2B69812  24.575  20.396   6.750
 8810POPC   C3B69813  24.567  20.405   7.050
 8810POPC   C4B69814  24.582  20.357   7.350
 8811POPC   NC369815  10.479   2.743   5.550
 8811POPC   PO469816  10.534   2.812   5.850
 8811POPC   GL169817  10.501   2.801   6.150
 8811POPC   GL269818  10.538   2.595   6.150
 8811POPC   C1A69819  10.556   2.788   6.450
 8811POPC   D2A69820  10.547   2.802   6.750
 8811POPC   C3A69821  10.476   2.791   7.050
 8811POPC   C4A69822  10.487   2.723   7.350
 8811POPC   C1B69823  10.526   2.473   6.450
 8811POPC   C2B69824  10.494   2.534   6.750
 8811POPC   C3B69825  10.513   2.559   7.050
 8811POPC   C4B69826  10.546   2.554   7.350
 8812POPC   NC369827  23.746  14.430   5.550
 8812POPC   PO469828  23.699  14.417   5.850
 8812POPC   GL169829  23.757  14.394   6.150
 8812POPC   GL269830  23.826  14.426   6.150
 8812POPC   C1A69831  23.706  14.355   6.450
 8812POPC   D2A69832  23.710  14.413   6.750
 8812POPC   C3A69833  23.734  14.365   7.050
 8812POPC   C4A69834  23.757  14.400   7.350
 8812POPC   C1B69835  23.972  14.418   6.450
 8812POPC   C2B69836  23.999  14.426   6.750
 8812POPC   C3B69837  23.954  14.445   7.050
 8812POPC   C4B69838  23.979  14.424   7.350
 8813POPC   NC369839   8.210  43.922   5.550
 8813POPC   PO469840   8.150  43.913   5.850
 8813POPC   GL169841   8.213  43.862   6.150
 8813POPC   GL269842   8.143  44.014   6.150
 8813POPC   C1A69843   8.244  43.919   6.450
 8813POPC   D2A69844   8.169  43.909   6.750
 8813POPC   C3A69845   8.191  43.842   7.050
 8813POPC   C4A69846   8.165  43.879   7.350
 8813POPC   C1B69847   8.113  44.142   6.450
 8813POPC   C2B69848   8.066  44.078   6.750
 8813POPC   C3B69849   8.074  44.072   7.050
 8813POPC   C4B69850   8.045  44.155   7.350
 8814POPC   NC369851  28.400  18.297   5.550
 8814POPC   PO469852  28.337  18.304   5.850
 8814POPC   GL169853  28.328  18.286   6.150
 8814POPC   GL269854  28.271  18.232   6.150
 8814POPC   C1A69855  28.404  18.245   6.450
 8814POPC   D2A69856  28.348  18.308   6.750
 8814POPC   C3A69857  28.383  18.311   7.050
 8814POPC   C4A69858  28.378  18.253   7.350
 8814POPC   C1B69859  28.145  18.098   6.450
 8814POPC   C2B69860  28.195  18.119   6.750
 8814POPC   C3B69861  28.185  18.149   7.050
 8814POPC   C4B69862  28.201  18.098   7.350
 8815POPC   NC369863  17.515  13.629   5.550
 8815POPC   PO469864  17.547  13.615   5.850
 8815POPC   GL169865  17.544  13.662   6.150
 8815POPC   GL269866  17.416  13.677   6.150
 8815POPC   C1A69867  17.473  13.651   6.450
 8815POPC   D2A69868  17.547  13.634   6.750
 8815POPC   C3A69869  17.550  13.667   7.050
 8815POPC   C4A69870  17.463  13.613   7.350
 8815POPC   C1B69871  17.281  13.750   6.450
 8815POPC   C2B69872  17.286  13.713   6.750
 8815POPC   C3B69873  17.300  13.768   7.050
 8815POPC   C4B69874  17.313  13.784   7.350
 8816POPC   NC369875  27.628   8.195   5.550
 8816POPC   PO469876  27.633   8.213   5.850
 8816POPC   GL169877  27.560   8.202   6.150
 8816POPC   GL269878  27.570   8.296   6.150
 8816POPC   C1A69879  27.620   8.181   6.450
 8816POPC   D2A69880  27.586   8.188   6.750
 8816POPC   C3A69881  27.584   8.226   7.050
 8816POPC   C4A69882  27.608   8.231   7.350
 8816POPC   C1B69883  27.479   8.461   6.450
 8816POPC   C2B69884  27.449   8.373   6.750
 8816POPC   C3B69885  27.475   8.417   7.050
 8816POPC   C4B69886  27.441   8.426   7.350
 8817POPC   NC369887   0.416  25.261   5.550
 8817POPC   PO469888   0.442  25.286   5.850
 8817POPC   GL169889   0.394  25.279   6.150
 8817POPC   GL269890   0.549  25.326   6.150
 8817POPC   C1A69891   0.418  25.295   6.450
 8817POPC   D2A69892   0.402  25.281   6.750
 8817POPC   C3A69893   0.427  25.311   7.050
 8817POPC   C4A69894   0.413  25.226   7.350
 8817POPC   C1B69895   0.627  25.423   6.450
 8817POPC   C2B69896   0.546  25.509   6.750
 8817POPC   C3B69897   0.633  25.510   7.050
 8817POPC   C4B69898   0.622  25.452   7.350
 8818POPC   NC369899   2.003  16.772   5.550
 8818POPC   PO469900   1.958  16.695   5.850
 8818POPC   GL169901   2.019  16.695   6.150
 8818POPC   GL269902   2.013  16.648   6.150
 8818POPC   C1A69903   1.980  16.701   6.450
 8818POPC   D2A69904   2.018  16.740   6.750
 8818POPC   C3A69905   2.006  16.741   7.050
 8818POPC   C4A69906   1.997  16.759   7.350
 8818POPC   C1B69907   2.147  16.467   6.450
 8818POPC   C2B69908   2.141  16.466   6.750
 8818POPC   C3B69909   2.143  16.555   7.050
 8818POPC   C4B69910   2.093  16.548   7.350
 8819POPC   NC369911  11.259  18.285   5.550
 8819POPC   PO469912  11.341  18.241   5.850
 8819POPC   GL169913  11.301  18.280   6.150
 8819POPC   GL269914  11.377  18.398   6.150
 8819POPC   C1A69915  11.303  18.263   6.450
 8819POPC   D2A69916  11.342  18.286   6.750
 8819POPC   C3A69917  11.312  18.281   7.050
 8819POPC   C4A69918  11.277  18.246   7.350
 8819POPC   C1B69919  11.516  18.421   6.450
 8819POPC   C2B69920  11.518  18.475   6.750
 8819POPC   C3B69921  11.532  18.432   7.050
 8819POPC   C4B69922  11.451  18.402   7.350
 8820POPC   NC369923  24.533  22.168   5.550
 8820POPC   PO469924  24.484  22.126   5.850
 8820POPC   GL169925  24.455  22.170   6.150
 8820POPC   GL269926  24.608  22.102   6.150
 8820POPC   C1A69927  24.481  22.153   6.450
 8820POPC   D2A69928  24.496  22.209   6.750
 8820POPC   C3A69929  24.473  22.134   7.050
 8820POPC   C4A69930  24.475  22.197   7.350
 8820POPC   C1B69931  24.671  22.063   6.450
 8820POPC   C2B69932  24.677  22.023   6.750
 8820POPC   C3B69933  24.719  22.045   7.050
 8820POPC   C4B69934  24.757  22.073   7.350
 8821POPC   NC369935  28.417  12.898   5.550
 8821POPC   PO469936  28.417  12.845   5.850
 8821POPC   GL169937  28.345  12.892   6.150
 8821POPC   GL269938  28.409  12.730   6.150
 8821POPC   C1A69939  28.403  12.898   6.450
 8821POPC   D2A69940  28.329  12.839   6.750
 8821POPC   C3A69941  28.340  12.843   7.050
 8821POPC   C4A69942  28.401  12.827   7.350
 8821POPC   C1B69943  28.529  12.694   6.450
 8821POPC   C2B69944  28.466  12.659   6.750
 8821POPC   C3B69945  28.533  12.674   7.050
 8821POPC   C4B69946  28.516  12.626   7.350
 8822POPC   NC369947  38.424  15.225   5.550
 8822POPC   PO469948  38.408  15.211   5.850
 8822POPC   GL169949  38.439  15.145   6.150
 8822POPC   GL269950  38.352  15.196   6.150
 8822POPC   C1A69951  38.431  15.171   6.450
 8822POPC   D2A69952  38.490  15.219   6.750
 8822POPC   C3A69953  38.420  15.210   7.050
 8822POPC   C4A69954  38.491  15.216   7.350
 8822POPC   C1B69955  38.222  15.163   6.450
 8822POPC   C2B69956  38.220  15.196   6.750
 8822POPC   C3B69957  38.161  15.179   7.050
 8822POPC   C4B69958  38.168  15.172   7.350
 8823POPC   NC369959   8.191  10.547   5.550
 8823POPC   PO469960   8.184  10.480   5.850
 8823POPC   GL169961   8.157  10.554   6.150
 8823POPC   GL269962   8.321  10.618   6.150
 8823POPC   C1A69963   8.204  10.526   6.450
 8823POPC   D2A69964   8.220  10.564   6.750
 8823POPC   C3A69965   8.238  10.487   7.050
 8823POPC   C4A69966   8.150  10.481   7.350
 8823POPC   C1B69967   8.413  10.660   6.450
 8823POPC   C2B69968   8.348  10.678   6.750
 8823POPC   C3B69969   8.362  10.690   7.050
 8823POPC   C4B69970   8.407  10.716   7.350
 8824POPC   NC369971   8.208  31.441   5.550
 8824POPC   PO469972   8.180  31.431   5.850
 8824POPC   GL169973   8.220  31.435   6.150
 8824POPC   GL269974   8.046  31.435   6.150
 8824POPC   C1A69975   8.201  31.467   6.450
 8824POPC   D2A69976   8.224  31.517   6.750
 8824POPC   C3A69977   8.172  31.520   7.050
 8824POPC   C4A69978   8.232  31.515   7.350
 8824POPC   C1B69979   7.985  31.403   6.450
 8824POPC   C2B69980   7.989  31.422   6.750
 8824POPC   C3B69981   7.909  31.425   7.050
 8824POPC   C4B69982   7.941  31.354   7.350
 8825POPC   NC369983  43.900  39.258   5.550
 8825POPC   PO469984  43.934  39.260   5.850
 8825POPC   GL169985  43.905  39.278   6.150
 8825POPC   GL269986  43.790  39.341   6.150
 8825POPC   C1A69987  43.913  39.184   6.450
 8825POPC   D2A69988  43.837  39.222   6.750
 8825POPC   C3A69989  43.922  39.254   7.050
 8825POPC   C4A69990  43.928  39.185   7.350
 8825POPC   C1B69991  43.773  39.415   6.450
 8825POPC   C2B69992  43.698  39.419   6.750
 8825POPC   C3B69993  43.696  39.408   7.050
 8825POPC   C4B69994  43.729  39.456   7.350
 8826POPC   NC369995  15.150  33.025   5.550
 8826POPC   PO469996  15.136  33.059   5.850
 8826POPC   GL169997  15.229  33.022   6.150
 8826POPC   GL269998  15.108  33.172   6.150
 8826POPC   C1A69999  15.190  33.018   6.450
 8826POPC   D2A70000  15.196  32.986   6.750
 8826POPC   C3A70001  15.144  33.027   7.050
 8826POPC   C4A70002  15.175  33.005   7.350
 8826POPC   C1B70003  15.181  33.290   6.450
 8826POPC   C2B70004  15.120  33.235   6.750
 8826POPC   C3B70005  15.177  33.236   7.050
 8826POPC   C4B70006  15.106  33.240   7.350
 8827POPC   NC370007  18.241  15.139   5.550
 8827POPC   PO470008  18.262  15.194   5.850
 8827POPC   GL170009  18.233  15.173   6.150
 8827POPC   GL270010  18.194  15.275   6.150
 8827POPC   C1A70011  18.251  15.213   6.450
 8827POPC   D2A70012  18.237  15.219   6.750
 8827POPC   C3A70013  18.320  15.174   7.050
 8827POPC   C4A70014  18.313  15.169   7.350
 8827POPC   C1B70015  18.203  15.448   6.450
 8827POPC   C2B70016  18.162  15.441   6.750
 8827POPC   C3B70017  18.172  15.385   7.050
 8827POPC   C4B70018  18.157  15.402   7.350
 8828POPC   NC370019  17.544  22.122   5.550
 8828POPC   PO470020  17.540  22.208   5.850
 8828POPC   GL170021  17.502  22.186   6.150
 8828POPC   GL270022  17.391  22.183   6.150
 8828POPC   C1A70023  17.519  22.140   6.450
 8828POPC   D2A70024  17.513  22.194   6.750
 8828POPC   C3A70025  17.555  22.127   7.050
 8828POPC   C4A70026  17.461  22.126   7.350
 8828POPC   C1B70027  17.252  22.170   6.450
 8828POPC   C2B70028  17.285  22.165   6.750
 8828POPC   C3B70029  17.241  22.225   7.050
 8828POPC   C4B70030  17.277  22.251   7.350
 8829POPC   NC370031  23.733  15.927   5.550
 8829POPC   PO470032  23.672  15.958   5.850
 8829POPC   GL170033  23.732  15.925   6.150
 8829POPC   GL270034  23.567  16.052   6.150
 8829POPC   C1A70035  23.703  15.967   6.450
 8829POPC   D2A70036  23.703  15.911   6.750
 8829POPC   C3A70037  23.728  15.951   7.050
 8829POPC   C4A70038  23.725  15.980   7.350
 8829POPC   C1B70039  23.554  16.079   6.450
 8829POPC   C2B70040  23.465  16.101   6.750
 8829POPC   C3B70041  23.561  16.071   7.050
 8829POPC   C4B70042  23.547  16.140   7.350
 8830POPC   NC370043  23.760  17.461   5.550
 8830POPC   PO470044  23.745  17.506   5.850
 8830POPC   GL170045  23.749  17.482   6.150
 8830POPC   GL270046  23.562  17.588   6.150
 8830POPC   C1A70047  23.714  17.534   6.450
 8830POPC   D2A70048  23.699  17.541   6.750
 8830POPC   C3A70049  23.682  17.463   7.050
 8830POPC   C4A70050  23.709  17.465   7.350
 8830POPC   C1B70051  23.540  17.583   6.450
 8830POPC   C2B70052  23.523  17.619   6.750
 8830POPC   C3B70053  23.520  17.639   7.050
 8830POPC   C4B70054  23.540  17.604   7.350
 8831POPC   NC370055  25.265   9.703   5.550
 8831POPC   PO470056  25.231   9.779   5.850
 8831POPC   GL170057  25.273   9.733   6.150
 8831POPC   GL270058  25.349   9.618   6.150
 8831POPC   C1A70059  25.309   9.786   6.450
 8831POPC   D2A70060  25.252   9.726   6.750
 8831POPC   C3A70061  25.254   9.727   7.050
 8831POPC   C4A70062  25.279   9.773   7.350
 8831POPC   C1B70063  25.371   9.467   6.450
 8831POPC   C2B70064  25.386   9.566   6.750
 8831POPC   C3B70065  25.325   9.555   7.050
 8831POPC   C4B70066  25.374   9.521   7.350
 8832POPC   NC370067  37.664  25.315   5.550
 8832POPC   PO470068  37.719  25.247   5.850
 8832POPC   GL170069  37.722  25.278   6.150
 8832POPC   GL270070  37.749  25.217   6.150
 8832POPC   C1A70071  37.693  25.274   6.450
 8832POPC   D2A70072  37.646  25.277   6.750
 8832POPC   C3A70073  37.715  25.262   7.050
 8832POPC   C4A70074  37.679  25.248   7.350
 8832POPC   C1B70075  37.888  25.160   6.450
 8832POPC   C2B70076  37.866  25.084   6.750
 8832POPC   C3B70077  37.915  25.073   7.050
 8832POPC   C4B70078  37.899  25.083   7.350
 8833POPC   NC370079  18.295  24.511   5.550
 8833POPC   PO470080  18.239  24.445   5.850
 8833POPC   GL170081  18.276  24.480   6.150
 8833POPC   GL270082  18.345  24.581   6.150
 8833POPC   C1A70083  18.312  24.501   6.450
 8833POPC   D2A70084  18.303  24.458   6.750
 8833POPC   C3A70085  18.330  24.477   7.050
 8833POPC   C4A70086  18.248  24.532   7.350
 8833POPC   C1B70087  18.432  24.687   6.450
 8833POPC   C2B70088  18.470  24.708   6.750
 8833POPC   C3B70089  18.454  24.652   7.050
 8833POPC   C4B70090  18.472  24.720   7.350
 8834POPC   NC370091   7.374  15.137   5.550
 8834POPC   PO470092   7.436  15.136   5.850
 8834POPC   GL170093   7.397  15.202   6.150
 8834POPC   GL270094   7.360  15.074   6.150
 8834POPC   C1A70095   7.398  15.215   6.450
 8834POPC   D2A70096   7.396  15.166   6.750
 8834POPC   C3A70097   7.431  15.135   7.050
 8834POPC   C4A70098   7.413  15.222   7.350
 8834POPC   C1B70099   7.223  14.944   6.450
 8834POPC   C2B70100   7.278  14.974   6.750
 8834POPC   C3B70101   7.287  14.985   7.050
 8834POPC   C4B70102   7.302  14.960   7.350
 8835POPC   NC370103  44.689  42.318   5.550
 8835POPC   PO470104  44.645  42.367   5.850
 8835POPC   GL170105  44.671  42.309   6.150
 8835POPC   GL270106  44.749  42.410   6.150
 8835POPC   C1A70107  44.652  42.305   6.450
 8835POPC   D2A70108  44.656  42.358   6.750
 8835POPC   C3A70109  44.614  42.325   7.050
 8835POPC   C4A70110  44.659  42.353   7.350
 8835POPC   C1B70111  44.877  42.376   6.450
 8835POPC   C2B70112  44.863  42.361   6.750
 8835POPC   C3B70113  44.914  42.440   7.050
 8835POPC   C4B70114  44.852  42.392   7.350
 8836POPC   NC370115  24.514   3.548   5.550
 8836POPC   PO470116  24.510   3.579   5.850
 8836POPC   GL170117  24.538   3.577   6.150
 8836POPC   GL270118  24.356   3.583   6.150
 8836POPC   C1A70119  24.449   3.558   6.450
 8836POPC   D2A70120  24.537   3.522   6.750
 8836POPC   C3A70121  24.466   3.507   7.050
 8836POPC   C4A70122  24.466   3.528   7.350
 8836POPC   C1B70123  24.276   3.594   6.450
 8836POPC   C2B70124  24.239   3.631   6.750
 8836POPC   C3B70125  24.277   3.583   7.050
 8836POPC   C4B70126  24.216   3.575   7.350
 8837POPC   NC370127  28.377  43.078   5.550
 8837POPC   PO470128  28.377  43.100   5.850
 8837POPC   GL170129  28.332  43.083   6.150
 8837POPC   GL270130  28.263  43.208   6.150
 8837POPC   C1A70131  28.343  43.126   6.450
 8837POPC   D2A70132  28.325  43.063   6.750
 8837POPC   C3A70133  28.390  43.069   7.050
 8837POPC   C4A70134  28.356  43.160   7.350
 8837POPC   C1B70135  28.205  43.222   6.450
 8837POPC   C2B70136  28.127  43.288   6.750
 8837POPC   C3B70137  28.212  43.283   7.050
 8837POPC   C4B70138  28.116  43.239   7.350
 8838POPC   NC370139  33.806  22.916   5.550
 8838POPC   PO470140  33.766  22.970   5.850
 8838POPC   GL170141  33.753  22.916   6.150
 8838POPC   GL270142  33.837  23.096   6.150
 8838POPC   C1A70143  33.823  22.983   6.450
 8838POPC   D2A70144  33.847  22.890   6.750
 8838POPC   C3A70145  33.794  22.958   7.050
 8838POPC   C4A70146  33.830  22.936   7.350
 8838POPC   C1B70147  33.789  23.203   6.450
 8838POPC   C2B70148  33.774  23.165   6.750
 8838POPC   C3B70149  33.845  23.139   7.050
 8838POPC   C4B70150  33.810  23.153   7.350
 8839POPC   NC370151  19.793  15.150   5.550
 8839POPC   PO470152  19.820  15.160   5.850
 8839POPC   GL170153  19.795  15.142   6.150
 8839POPC   GL270154  19.968  15.097   6.150
 8839POPC   C1A70155  19.873  15.139   6.450
 8839POPC   D2A70156  19.873  15.137   6.750
 8839POPC   C3A70157  19.874  15.145   7.050
 8839POPC   C4A70158  19.856  15.221   7.350
 8839POPC   C1B70159  20.049  15.091   6.450
 8839POPC   C2B70160  20.022  15.112   6.750
 8839POPC   C3B70161  20.073  15.100   7.050
 8839POPC   C4B70162  20.085  15.116   7.350
 8840POPC   NC370163  33.016   5.829   5.550
 8840POPC   PO470164  33.003   5.875   5.850
 8840POPC   GL170165  33.056   5.881   6.150
 8840POPC   GL270166  33.130   5.854   6.150
 8840POPC   C1A70167  33.050   5.835   6.450
 8840POPC   D2A70168  33.024   5.820   6.750
 8840POPC   C3A70169  32.992   5.893   7.050
 8840POPC   C4A70170  32.998   5.840   7.350
 8840POPC   C1B70171  33.239   5.875   6.450
 8840POPC   C2B70172  33.301   5.788   6.750
 8840POPC   C3B70173  33.260   5.836   7.050
 8840POPC   C4B70174  33.228   5.849   7.350
 8841POPC   NC370175  37.707  26.018   5.550
 8841POPC   PO470176  37.725  26.018   5.850
 8841POPC   GL170177  37.630  26.078   6.150
 8841POPC   GL270178  37.734  26.122   6.150
 8841POPC   C1A70179  37.721  26.037   6.450
 8841POPC   D2A70180  37.675  26.021   6.750
 8841POPC   C3A70181  37.689  26.041   7.050
 8841POPC   C4A70182  37.637  25.992   7.350
 8841POPC   C1B70183  37.807  26.218   6.450
 8841POPC   C2B70184  37.845  26.235   6.750
 8841POPC   C3B70185  37.853  26.191   7.050
 8841POPC   C4B70186  37.868  26.201   7.350
 8842POPC   NC370187  32.232  35.347   5.550
 8842POPC   PO470188  32.267  35.379   5.850
 8842POPC   GL170189  32.209  35.368   6.150
 8842POPC   GL270190  32.104  35.413   6.150
 8842POPC   C1A70191  32.243  35.372   6.450
 8842POPC   D2A70192  32.265  35.344   6.750
 8842POPC   C3A70193  32.277  35.397   7.050
 8842POPC   C4A70194  32.280  35.336   7.350
 8842POPC   C1B70195  31.966  35.415   6.450
 8842POPC   C2B70196  32.030  35.436   6.750
 8842POPC   C3B70197  32.025  35.359   7.050
 8842POPC   C4B70198  31.974  35.421   7.350
 8843POPC   NC370199  10.572  33.842   5.550
 8843POPC   PO470200  10.522  33.781   5.850
 8843POPC   GL170201  10.532  33.846   6.150
 8843POPC   GL270202  10.606  33.686   6.150
 8843POPC   C1A70203  10.479  33.788   6.450
 8843POPC   D2A70204  10.509  33.772   6.750
 8843POPC   C3A70205  10.490  33.820   7.050
 8843POPC   C4A70206  10.546  33.781   7.350
 8843POPC   C1B70207  10.779  33.658   6.450
 8843POPC   C2B70208  10.745  33.659   6.750
 8843POPC   C3B70209  10.735  33.635   7.050
 8843POPC   C4B70210  10.713  33.665   7.350
 8844POPC   NC370211  23.699  11.332   5.550
 8844POPC   PO470212  23.678  11.311   5.850
 8844POPC   GL170213  23.693  11.268   6.150
 8844POPC   GL270214  23.773  11.163   6.150
 8844POPC   C1A70215  23.750  11.325   6.450
 8844POPC   D2A70216  23.737  11.304   6.750
 8844POPC   C3A70217  23.709  11.261   7.050
 8844POPC   C4A70218  23.720  11.314   7.350
 8844POPC   C1B70219  23.745  11.102   6.450
 8844POPC   C2B70220  23.771  11.018   6.750
 8844POPC   C3B70221  23.824  11.019   7.050
 8844POPC   C4B70222  23.781  11.080   7.350
 8845POPC   NC370223   8.235  22.136   5.550
 8845POPC   PO470224   8.218  22.182   5.850
 8845POPC   GL170225   8.161  22.183   6.150
 8845POPC   GL270226   8.289  22.235   6.150
 8845POPC   C1A70227   8.193  22.172   6.450
 8845POPC   D2A70228   8.233  22.192   6.750
 8845POPC   C3A70229   8.160  22.186   7.050
 8845POPC   C4A70230   8.196  22.204   7.350
 8845POPC   C1B70231   8.356  22.333   6.450
 8845POPC   C2B70232   8.431  22.325   6.750
 8845POPC   C3B70233   8.444  22.328   7.050
 8845POPC   C4B70234   8.370  22.298   7.350
 8846POPC   NC370235  36.166  32.247   5.550
 8846POPC   PO470236  36.109  32.291   5.850
 8846POPC   GL170237  36.099  32.266   6.150
 8846POPC   GL270238  36.042  32.405   6.150
 8846POPC   C1A70239  36.115  32.296   6.450
 8846POPC   D2A70240  36.091  32.268   6.750
 8846POPC   C3A70241  36.165  32.254   7.050
 8846POPC   C4A70242  36.137  32.271   7.350
 8846POPC   C1B70243  36.045  32.468   6.450
 8846POPC   C2B70244  36.092  32.473   6.750
 8846POPC   C3B70245  36.083  32.532   7.050
 8846POPC   C4B70246  36.035  32.535   7.350
 8847POPC   NC370247  39.258  25.218   5.550
 8847POPC   PO470248  39.217  25.282   5.850
 8847POPC   GL170249  39.187  25.278   6.150
 8847POPC   GL270250  39.290  25.136   6.150
 8847POPC   C1A70251  39.200  25.247   6.450
 8847POPC   D2A70252  39.218  25.312   6.750
 8847POPC   C3A70253  39.222  25.250   7.050
 8847POPC   C4A70254  39.222  25.237   7.350
 8847POPC   C1B70255  39.464  25.146   6.450
 8847POPC   C2B70256  39.449  25.109   6.750
 8847POPC   C3B70257  39.470  25.095   7.050
 8847POPC   C4B70258  39.397  25.057   7.350
 8848POPC   NC370259   5.844  12.064   5.550
 8848POPC   PO470260   5.869  12.080   5.850
 8848POPC   GL170261   5.882  12.089   6.150
 8848POPC   GL270262   5.966  11.990   6.150
 8848POPC   C1A70263   5.861  12.035   6.450
 8848POPC   D2A70264   5.915  12.103   6.750
 8848POPC   C3A70265   5.861  12.105   7.050
 8848POPC   C4A70266   5.840  12.076   7.350
 8848POPC   C1B70267   6.049  11.973   6.450
 8848POPC   C2B70268   6.097  11.956   6.750
 8848POPC   C3B70269   6.107  11.939   7.050
 8848POPC   C4B70270   6.024  11.958   7.350
 8849POPC   NC370271   5.865  27.593   5.550
 8849POPC   PO470272   5.859  27.580   5.850
 8849POPC   GL170273   5.820  27.614   6.150
 8849POPC   GL270274   5.749  27.572   6.150
 8849POPC   C1A70275   5.830  27.610   6.450
 8849POPC   D2A70276   5.892  27.606   6.750
 8849POPC   C3A70277   5.828  27.559   7.050
 8849POPC   C4A70278   5.848  27.600   7.350
 8849POPC   C1B70279   5.667  27.574   6.450
 8849POPC   C2B70280   5.597  27.523   6.750
 8849POPC   C3B70281   5.623  27.568   7.050
 8849POPC   C4B70282   5.655  27.561   7.350
 8850POPC   NC370283  16.001  35.353   5.550
 8850POPC   PO470284  15.928  35.384   5.850
 8850POPC   GL170285  15.924  35.349   6.150
 8850POPC   GL270286  15.868  35.300   6.150
 8850POPC   C1A70287  15.945  35.358   6.450
 8850POPC   D2A70288  15.969  35.391   6.750
 8850POPC   C3A70289  15.968  35.364   7.050
 8850POPC   C4A70290  15.998  35.384   7.350
 8850POPC   C1B70291  15.746  35.228   6.450
 8850POPC   C2B70292  15.784  35.181   6.750
 8850POPC   C3B70293  15.721  35.217   7.050
 8850POPC   C4B70294  15.774  35.227   7.350
 8851POPC   NC370295  15.987  33.783   5.550
 8851POPC   PO470296  15.967  33.842   5.850
 8851POPC   GL170297  15.952  33.798   6.150
 8851POPC   GL270298  16.030  33.756   6.150
 8851POPC   C1A70299  15.920  33.788   6.450
 8851POPC   D2A70300  15.962  33.840   6.750
 8851POPC   C3A70301  15.926  33.772   7.050
 8851POPC   C4A70302  15.983  33.751   7.350
 8851POPC   C1B70303  16.167  33.691   6.450
 8851POPC   C2B70304  16.231  33.721   6.750
 8851POPC   C3B70305  16.136  33.708   7.050
 8851POPC   C4B70306  16.230  33.693   7.350
 8852POPC   NC370307   1.175  34.538   5.550
 8852POPC   PO470308   1.250  34.565   5.850
 8852POPC   GL170309   1.171  34.547   6.150
 8852POPC   GL270310   1.242  34.745   6.150
 8852POPC   C1A70311   1.167  34.587   6.450
 8852POPC   D2A70312   1.254  34.624   6.750
 8852POPC   C3A70313   1.229  34.558   7.050
 8852POPC   C4A70314   1.188  34.606   7.350
 8852POPC   C1B70315   1.282  34.855   6.450
 8852POPC   C2B70316   1.257  34.783   6.750
 8852POPC   C3B70317   1.259  34.786   7.050
 8852POPC   C4B70318   1.253  34.806   7.350
 8853POPC   NC370319  18.311  22.922   5.550
 8853POPC   PO470320  18.289  22.956   5.850
 8853POPC   GL170321  18.239  22.982   6.150
 8853POPC   GL270322  18.405  22.857   6.150
 8853POPC   C1A70323  18.314  22.980   6.450
 8853POPC   D2A70324  18.244  22.979   6.750
 8853POPC   C3A70325  18.241  22.937   7.050
 8853POPC   C4A70326  18.325  22.899   7.350
 8853POPC   C1B70327  18.455  22.787   6.450
 8853POPC   C2B70328  18.459  22.819   6.750
 8853POPC   C3B70329  18.505  22.771   7.050
 8853POPC   C4B70330  18.461  22.797   7.350
 8854POPC   NC370331   6.677  28.392   5.550
 8854POPC   PO470332   6.652  28.325   5.850
 8854POPC   GL170333   6.665  28.418   6.150
 8854POPC   GL270334   6.721  28.369   6.150
 8854POPC   C1A70335   6.691  28.334   6.450
 8854POPC   D2A70336   6.633  28.393   6.750
 8854POPC   C3A70337   6.653  28.334   7.050
 8854POPC   C4A70338   6.610  28.411   7.350
 8854POPC   C1B70339   6.882  28.467   6.450
 8854POPC   C2B70340   6.871  28.435   6.750
 8854POPC   C3B70341   6.889  28.439   7.050
 8854POPC   C4B70342   6.903  28.436   7.350
 8855POPC   NC370343  12.830  35.317   5.550
 8855POPC   PO470344  12.894  35.349   5.850
 8855POPC   GL170345  12.899  35.330   6.150
 8855POPC   GL270346  12.982  35.364   6.150
 8855POPC   C1A70347  12.808  35.382   6.450
 8855POPC   D2A70348  12.886  35.320   6.750
 8855POPC   C3A70349  12.881  35.378   7.050
 8855POPC   C4A70350  12.805  35.311   7.350
 8855POPC   C1B70351  13.103  35.464   6.450
 8855POPC   C2B70352  13.108  35.429   6.750
 8855POPC   C3B70353  13.044  35.440   7.050
 8855POPC   C4B70354  13.067  35.474   7.350
 8856POPC   NC370355  36.149  20.644   5.550
 8856POPC   PO470356  36.084  20.649   5.850
 8856POPC   GL170357  36.164  20.590   6.150
 8856POPC   GL270358  36.191  20.490   6.150
 8856POPC   C1A70359  36.150  20.583   6.450
 8856POPC   D2A70360  36.088  20.591   6.750
 8856POPC   C3A70361  36.104  20.566   7.050
 8856POPC   C4A70362  36.100  20.567   7.350
 8856POPC   C1B70363  36.260  20.445   6.450
 8856POPC   C2B70364  36.249  20.362   6.750
 8856POPC   C3B70365  36.289  20.433   7.050
 8856POPC   C4B70366  36.256  20.428   7.350
 8857POPC   NC370367  15.217  40.777   5.550
 8857POPC   PO470368  15.222  40.799   5.850
 8857POPC   GL170369  15.130  40.807   6.150
 8857POPC   GL270370  15.243  40.667   6.150
 8857POPC   C1A70371  15.192  40.806   6.450
 8857POPC   D2A70372  15.199  40.796   6.750
 8857POPC   C3A70373  15.210  40.814   7.050
 8857POPC   C4A70374  15.142  40.740   7.350
 8857POPC   C1B70375  15.187  40.571   6.450
 8857POPC   C2B70376  15.187  40.542   6.750
 8857POPC   C3B70377  15.282  40.564   7.050
 8857POPC   C4B70378  15.278  40.580   7.350
 8858POPC   NC370379  12.088  28.355   5.550
 8858POPC   PO470380  12.032  28.391   5.850
 8858POPC   GL170381  12.105  28.407   6.150
 8858POPC   GL270382  12.209  28.345   6.150
 8858POPC   C1A70383  12.068  28.378   6.450
 8858POPC   D2A70384  12.032  28.341   6.750
 8858POPC   C3A70385  12.055  28.411   7.050
 8858POPC   C4A70386  12.090  28.390   7.350
 8858POPC   C1B70387  12.289  28.305   6.450
 8858POPC   C2B70388  12.339  28.239   6.750
 8858POPC   C3B70389  12.346  28.278   7.050
 8858POPC   C4B70390  12.273  28.238   7.350
 8859POPC   NC370391  16.755  22.164   5.550
 8859POPC   PO470392  16.769  22.171   5.850
 8859POPC   GL170393  16.681  22.183   6.150
 8859POPC   GL270394  16.591  22.180   6.150
 8859POPC   C1A70395  16.778  22.183   6.450
 8859POPC   D2A70396  16.736  22.194   6.750
 8859POPC   C3A70397  16.716  22.192   7.050
 8859POPC   C4A70398  16.726  22.126   7.350
 8859POPC   C1B70399  16.486  22.150   6.450
 8859POPC   C2B70400  16.522  22.094   6.750
 8859POPC   C3B70401  16.505  22.081   7.050
 8859POPC   C4B70402  16.464  22.059   7.350
 8860POPC   NC370403  16.719   8.211   5.550
 8860POPC   PO470404  16.717   8.184   5.850
 8860POPC   GL170405  16.696   8.232   6.150
 8860POPC   GL270406  16.638   8.115   6.150
 8860POPC   C1A70407  16.725   8.224   6.450
 8860POPC   D2A70408  16.718   8.194   6.750
 8860POPC   C3A70409  16.685   8.147   7.050
 8860POPC   C4A70410  16.762   8.158   7.350
 8860POPC   C1B70411  16.629   7.921   6.450
 8860POPC   C2B70412  16.617   7.915   6.750
 8860POPC   C3B70413  16.640   7.994   7.050
 8860POPC   C4B70414  16.674   7.978   7.350
 8861POPC   NC370415  38.445   2.034   5.550
 8861POPC   PO470416  38.491   2.027   5.850
 8861POPC   GL170417  38.490   1.965   6.150
 8861POPC   GL270418  38.492   2.146   6.150
 8861POPC   C1A70419  38.478   2.037   6.450
 8861POPC   D2A70420  38.428   1.979   6.750
 8861POPC   C3A70421  38.498   1.997   7.050
 8861POPC   C4A70422  38.453   1.977   7.350
 8861POPC   C1B70423  38.513   2.266   6.450
 8861POPC   C2B70424  38.524   2.197   6.750
 8861POPC   C3B70425  38.453   2.228   7.050
 8861POPC   C4B70426  38.522   2.279   7.350
 8862POPC   NC370427  42.355  18.307   5.550
 8862POPC   PO470428  42.382  18.309   5.850
 8862POPC   GL170429  42.370  18.313   6.150
 8862POPC   GL270430  42.205  18.342   6.150
 8862POPC   C1A70431  42.333  18.238   6.450
 8862POPC   D2A70432  42.344  18.312   6.750
 8862POPC   C3A70433  42.311  18.322   7.050
 8862POPC   C4A70434  42.310  18.233   7.350
 8862POPC   C1B70435  42.179  18.479   6.450
 8862POPC   C2B70436  42.126  18.422   6.750
 8862POPC   C3B70437  42.182  18.454   7.050
 8862POPC   C4B70438  42.192  18.429   7.350
 8863POPC   NC370439  13.623  28.332   5.550
 8863POPC   PO470440  13.646  28.344   5.850
 8863POPC   GL170441  13.590  28.378   6.150
 8863POPC   GL270442  13.695  28.295   6.150
 8863POPC   C1A70443  13.584  28.364   6.450
 8863POPC   D2A70444  13.675  28.325   6.750
 8863POPC   C3A70445  13.666  28.326   7.050
 8863POPC   C4A70446  13.590  28.364   7.350
 8863POPC   C1B70447  13.749  28.107   6.450
 8863POPC   C2B70448  13.724  28.112   6.750
 8863POPC   C3B70449  13.700  28.159   7.050
 8863POPC   C4B70450  13.777  28.196   7.350
 8864POPC   NC370451  44.622  16.724   5.550
 8864POPC   PO470452  44.622  16.711   5.850
 8864POPC   GL170453  44.707  16.704   6.150
 8864POPC   GL270454  44.794  16.698   6.150
 8864POPC   C1A70455  44.671  16.704   6.450
 8864POPC   D2A70456  44.661  16.687   6.750
 8864POPC   C3A70457  44.664  16.709   7.050
 8864POPC   C4A70458  44.686  16.774   7.350
 8864POPC   C1B70459  44.922  16.645   6.450
 8864POPC   C2B70460  44.884  16.606   6.750
 8864POPC   C3B70461  44.884  16.610   7.050
 8864POPC   C4B70462  44.890  16.646   7.350
 8865POPC   NC370463  31.510  16.726   5.550
 8865POPC   PO470464  31.464  16.714   5.850
 8865POPC   GL170465  31.439  16.767   6.150
 8865POPC   GL270466  31.443  16.610   6.150
 8865POPC   C1A70467  31.495  16.761   6.450
 8865POPC   D2A70468  31.501  16.738   6.750
 8865POPC   C3A70469  31.517  16.759   7.050
 8865POPC   C4A70470  31.511  16.749   7.350
 8865POPC   C1B70471  31.463  16.499   6.450
 8865POPC   C2B70472  31.411  16.478   6.750
 8865POPC   C3B70473  31.488  16.465   7.050
 8865POPC   C4B70474  31.496  16.495   7.350
 8866POPC   NC370475   5.850  23.701   5.550
 8866POPC   PO470476   5.821  23.737   5.850
 8866POPC   GL170477   5.917  23.675   6.150
 8866POPC   GL270478   5.720  23.710   6.150
 8866POPC   C1A70479   5.879  23.736   6.450
 8866POPC   D2A70480   5.892  23.667   6.750
 8866POPC   C3A70481   5.905  23.743   7.050
 8866POPC   C4A70482   5.821  23.712   7.350
 8866POPC   C1B70483   5.656  23.693   6.450
 8866POPC   C2B70484   5.639  23.758   6.750
 8866POPC   C3B70485   5.615  23.680   7.050
 8866POPC   C4B70486   5.617  23.718   7.350
 8867POPC   NC370487  37.726   6.679   5.550
 8867POPC   PO470488  37.642   6.656   5.850
 8867POPC   GL170489  37.675   6.656   6.150
 8867POPC   GL270490  37.710   6.485   6.150
 8867POPC   C1A70491  37.648   6.631   6.450
 8867POPC   D2A70492  37.665   6.636   6.750
 8867POPC   C3A70493  37.652   6.647   7.050
 8867POPC   C4A70494  37.641   6.685   7.350
 8867POPC   C1B70495  37.789   6.435   6.450
 8867POPC   C2B70496  37.711   6.393   6.750
 8867POPC   C3B70497  37.758   6.361   7.050
 8867POPC   C4B70498  37.727   6.375   7.350
 8868POPC   NC370499  33.755   9.742   5.550
 8868POPC   PO470500  33.840   9.741   5.850
 8868POPC   GL170501  33.818   9.775   6.150
 8868POPC   GL270502  33.899   9.636   6.150
 8868POPC   C1A70503  33.756   9.705   6.450
 8868POPC   D2A70504  33.793   9.723   6.750
 8868POPC   C3A70505  33.837   9.743   7.050
 8868POPC   C4A70506  33.776   9.758   7.350
 8868POPC   C1B70507  33.981   9.567   6.450
 8868POPC   C2B70508  34.014   9.582   6.750
 8868POPC   C3B70509  33.944   9.557   7.050
 8868POPC   C4B70510  33.939   9.577   7.350
 8869POPC   NC370511  40.825  32.287   5.550
 8869POPC   PO470512  40.805  32.242   5.850
 8869POPC   GL170513  40.771  32.238   6.150
 8869POPC   GL270514  40.857  32.124   6.150
 8869POPC   C1A70515  40.767  32.273   6.450
 8869POPC   D2A70516  40.805  32.273   6.750
 8869POPC   C3A70517  40.795  32.263   7.050
 8869POPC   C4A70518  40.801  32.258   7.350
 8869POPC   C1B70519  40.971  32.055   6.450
 8869POPC   C2B70520  41.008  32.052   6.750
 8869POPC   C3B70521  40.933  32.089   7.050
 8869POPC   C4B70522  40.952  32.131   7.350
 8870POPC   NC370523  15.948  25.292   5.550
 8870POPC   PO470524  15.996  25.310   5.850
 8870POPC   GL170525  15.974  25.294   6.150
 8870POPC   GL270526  15.897  25.358   6.150
 8870POPC   C1A70527  15.959  25.259   6.450
 8870POPC   D2A70528  15.938  25.228   6.750
 8870POPC   C3A70529  15.956  25.260   7.050
 8870POPC   C4A70530  15.944  25.280   7.350
 8870POPC   C1B70531  15.845  25.530   6.450
 8870POPC   C2B70532  15.885  25.490   6.750
 8870POPC   C3B70533  15.871  25.468   7.050
 8870POPC   C4B70534  15.850  25.534   7.350
 8871POPC   NC370535  12.831  17.525   5.550
 8871POPC   PO470536  12.887  17.509   5.850
 8871POPC   GL170537  12.841  17.499   6.150
 8871POPC   GL270538  12.792  17.421   6.150
 8871POPC   C1A70539  12.855  17.496   6.450
 8871POPC   D2A70540  12.857  17.502   6.750
 8871POPC   C3A70541  12.882  17.515   7.050
 8871POPC   C4A70542  12.860  17.541   7.350
 8871POPC   C1B70543  12.754  17.234   6.450
 8871POPC   C2B70544  12.733  17.291   6.750
 8871POPC   C3B70545  12.742  17.306   7.050
 8871POPC   C4B70546  12.799  17.225   7.350
 8872POPC   NC370547   8.190  34.535   5.550
 8872POPC   PO470548   8.156  34.539   5.850
 8872POPC   GL170549   8.202  34.615   6.150
 8872POPC   GL270550   8.229  34.674   6.150
 8872POPC   C1A70551   8.235  34.596   6.450
 8872POPC   D2A70552   8.224  34.565   6.750
 8872POPC   C3A70553   8.159  34.623   7.050
 8872POPC   C4A70554   8.155  34.610   7.350
 8872POPC   C1B70555   8.319  34.764   6.450
 8872POPC   C2B70556   8.356  34.744   6.750
 8872POPC   C3B70557   8.356  34.795   7.050
 8872POPC   C4B70558   8.312  34.752   7.350
 8873POPC   NC370559  27.616  24.535   5.550
 8873POPC   PO470560  27.563  24.498   5.850
 8873POPC   GL170561  27.638  24.505   6.150
 8873POPC   GL270562  27.510  24.643   6.150
 8873POPC   C1A70563  27.578  24.521   6.450
 8873POPC   D2A70564  27.622  24.487   6.750
 8873POPC   C3A70565  27.571  24.467   7.050
 8873POPC   C4A70566  27.562  24.502   7.350
 8873POPC   C1B70567  27.442  24.744   6.450
 8873POPC   C2B70568  27.437  24.737   6.750
 8873POPC   C3B70569  27.457  24.699   7.050
 8873POPC   C4B70570  27.456  24.761   7.350
 8874POPC   NC370571  26.855  41.598   5.550
 8874POPC   PO470572  26.816  41.559   5.850
 8874POPC   GL170573  26.831  41.559   6.150
 8874POPC   GL270574  26.725  41.446   6.150
 8874POPC   C1A70575  26.844  41.597   6.450
 8874POPC   D2A70576  26.817  41.604   6.750
 8874POPC   C3A70577  26.823  41.565   7.050
 8874POPC   C4A70578  26.769  41.570   7.350
 8874POPC   C1B70579  26.702  41.325   6.450
 8874POPC   C2B70580  26.724  41.302   6.750
 8874POPC   C3B70581  26.669  41.360   7.050
 8874POPC   C4B70582  26.636  41.395   7.350
 8875POPC   NC370583  32.992  12.078   5.550
 8875POPC   PO470584  33.062  12.049   5.850
 8875POPC   GL170585  33.044  12.028   6.150
 8875POPC   GL270586  32.914  12.026   6.150
 8875POPC   C1A70587  33.071  12.080   6.450
 8875POPC   D2A70588  33.000  12.091   6.750
 8875POPC   C3A70589  33.058  12.101   7.050
 8875POPC   C4A70590  33.035  12.101   7.350
 8875POPC   C1B70591  32.870  11.931   6.450
 8875POPC   C2B70592  32.843  11.939   6.750
 8875POPC   C3B70593  32.875  11.914   7.050
 8875POPC   C4B70594  32.803  11.884   7.350
 8876POPC   NC370595  44.635   2.038   5.550
 8876POPC   PO470596  44.672   1.995   5.850
 8876POPC   GL170597  44.619   1.956   6.150
 8876POPC   GL270598  44.563   2.095   6.150
 8876POPC   C1A70599  44.681   1.979   6.450
 8876POPC   D2A70600  44.619   1.983   6.750
 8876POPC   C3A70601  44.648   1.973   7.050
 8876POPC   C4A70602  44.653   1.956   7.350
 8876POPC   C1B70603  44.529   2.228   6.450
 8876POPC   C2B70604  44.575   2.162   6.750
 8876POPC   C3B70605  44.497   2.244   7.050
 8876POPC   C4B70606  44.534   2.233   7.350
 8877POPC   NC370607  12.033  41.588   5.550
 8877POPC   PO470608  12.033  41.540   5.850
 8877POPC   GL170609  12.054  41.602   6.150
 8877POPC   GL270610  12.229  41.558   6.150
 8877POPC   C1A70611  12.107  41.522   6.450
 8877POPC   D2A70612  12.123  41.519   6.750
 8877POPC   C3A70613  12.071  41.539   7.050
 8877POPC   C4A70614  12.064  41.530   7.350
 8877POPC   C1B70615  12.316  41.414   6.450
 8877POPC   C2B70616  12.259  41.458   6.750
 8877POPC   C3B70617  12.309  41.495   7.050
 8877POPC   C4B70618  12.278  41.433   7.350
 8878POPC   NC370619  16.757  20.568   5.550
 8878POPC   PO470620  16.768  20.578   5.850
 8878POPC   GL170621  16.707  20.636   6.150
 8878POPC   GL270622  16.881  20.529   6.150
 8878POPC   C1A70623  16.776  20.603   6.450
 8878POPC   D2A70624  16.781  20.638   6.750
 8878POPC   C3A70625  16.770  20.645   7.050
 8878POPC   C4A70626  16.702  20.575   7.350
 8878POPC   C1B70627  16.959  20.516   6.450
 8878POPC   C2B70628  16.966  20.497   6.750
 8878POPC   C3B70629  16.970  20.514   7.050
 8878POPC   C4B70630  16.914  20.431   7.350
 8879POPC   NC370631  26.790   0.396   5.550
 8879POPC   PO470632  26.832   0.474   5.850
 8879POPC   GL170633  26.774   0.454   6.150
 8879POPC   GL270634  26.915   0.429   6.150
 8879POPC   C1A70635  26.839   0.404   6.450
 8879POPC   D2A70636  26.830   0.454   6.750
 8879POPC   C3A70637  26.818   0.462   7.050
 8879POPC   C4A70638  26.826   0.403   7.350
 8879POPC   C1B70639  27.025   0.480   6.450
 8879POPC   C2B70640  27.035   0.492   6.750
 8879POPC   C3B70641  27.062   0.444   7.050
 8879POPC   C4B70642  27.030   0.448   7.350
 8880POPC   NC370643   0.398   8.930   5.550
 8880POPC   PO470644   0.468   8.924   5.850
 8880POPC   GL170645   0.448   8.952   6.150
 8880POPC   GL270646   0.575   8.912   6.150
 8880POPC   C1A70647   0.483   8.942   6.450
 8880POPC   D2A70648   0.455   9.020   6.750
 8880POPC   C3A70649   0.442   8.955   7.050
 8880POPC   C4A70650   0.487   9.019   7.350
 8880POPC   C1B70651   0.624   8.788   6.450
 8880POPC   C2B70652   0.624   8.846   6.750
 8880POPC   C3B70653   0.671   8.800   7.050
 8880POPC   C4B70654   0.667   8.772   7.350
 8881POPC   NC370655  36.927  24.515   5.550
 8881POPC   PO470656  36.898  24.504   5.850
 8881POPC   GL170657  36.921  24.504   6.150
 8881POPC   GL270658  36.860  24.381   6.150
 8881POPC   C1A70659  36.934  24.472   6.450
 8881POPC   D2A70660  36.920  24.460   6.750
 8881POPC   C3A70661  36.884  24.490   7.050
 8881POPC   C4A70662  36.879  24.525   7.350
 8881POPC   C1B70663  36.845  24.242   6.450
 8881POPC   C2B70664  36.775  24.290   6.750
 8881POPC   C3B70665  36.817  24.246   7.050
 8881POPC   C4B70666  36.811  24.270   7.350
 8882POPC   NC370667  38.481  39.194   5.550
 8882POPC   PO470668  38.442  39.270   5.850
 8882POPC   GL170669  38.491  39.278   6.150
 8882POPC   GL270670  38.562  39.292   6.150
 8882POPC   C1A70671  38.414  39.184   6.450
 8882POPC   D2A70672  38.432  39.265   6.750
 8882POPC   C3A70673  38.501  39.192   7.050
 8882POPC   C4A70674  38.483  39.221   7.350
 8882POPC   C1B70675  38.658  39.364   6.450
 8882POPC   C2B70676  38.696  39.327   6.750
 8882POPC   C3B70677  38.714  39.403   7.050
 8882POPC   C4B70678  38.689  39.357   7.350
 8883POPC   NC370679  24.516  12.101   5.550
 8883POPC   PO470680  24.517  12.120   5.850
 8883POPC   GL170681  24.464  12.105   6.150
 8883POPC   GL270682  24.605  12.059   6.150
 8883POPC   C1A70683  24.539  12.056   6.450
 8883POPC   D2A70684  24.513  12.066   6.750
 8883POPC   C3A70685  24.498  12.042   7.050
 8883POPC   C4A70686  24.520  12.064   7.350
 8883POPC   C1B70687  24.716  11.945   6.450
 8883POPC   C2B70688  24.726  11.938   6.750
 8883POPC   C3B70689  24.692  11.942   7.050
 8883POPC   C4B70690  24.755  11.952   7.350
 8884POPC   NC370691  41.516  42.328   5.550
 8884POPC   PO470692  41.562  42.330   5.850
 8884POPC   GL170693  41.523  42.307   6.150
 8884POPC   GL270694  41.588  42.396   6.150
 8884POPC   C1A70695  41.569  42.352   6.450
 8884POPC   D2A70696  41.540  42.329   6.750
 8884POPC   C3A70697  41.534  42.352   7.050
 8884POPC   C4A70698  41.548  42.348   7.350
 8884POPC   C1B70699  41.690  42.572   6.450
 8884POPC   C2B70700  41.724  42.515   6.750
 8884POPC   C3B70701  41.719  42.547   7.050
 8884POPC   C4B70702  41.666  42.583   7.350
 8885POPC   NC370703  25.309  17.464   5.550
 8885POPC   PO470704  25.250  17.458   5.850
 8885POPC   GL170705  25.225  17.460   6.150
 8885POPC   GL270706  25.201  17.415   6.150
 8885POPC   C1A70707  25.229  17.478   6.450
 8885POPC   D2A70708  25.286  17.530   6.750
 8885POPC   C3A70709  25.216  17.525   7.050
 8885POPC   C4A70710  25.237  17.499   7.350
 8885POPC   C1B70711  25.054  17.306   6.450
 8885POPC   C2B70712  25.087  17.331   6.750
 8885POPC   C3B70713  25.133  17.368   7.050
 8885POPC   C4B70714  25.097  17.355   7.350
 8886POPC   NC370715  14.421   9.725   5.550
 8886POPC   PO470716  14.361   9.768   5.850
 8886POPC   GL170717  14.399   9.760   6.150
 8886POPC   GL270718  14.388   9.645   6.150
 8886POPC   C1A70719  14.441   9.793   6.450
 8886POPC   D2A70720  14.421   9.783   6.750
 8886POPC   C3A70721  14.453   9.702   7.050
 8886POPC   C4A70722  14.449   9.784   7.350
 8886POPC   C1B70723  14.440   9.518   6.450
 8886POPC   C2B70724  14.450   9.502   6.750
 8886POPC   C3B70725  14.387   9.454   7.050
 8886POPC   C4B70726  14.459   9.466   7.350
 8887POPC   NC370727  43.135  23.760   5.550
 8887POPC   PO470728  43.135  23.760   5.850
 8887POPC   GL170729  43.061  23.763   6.150
 8887POPC   GL270730  43.261  23.614   6.150
 8887POPC   C1A70731  43.145  23.725   6.450
 8887POPC   D2A70732  43.151  23.679   6.750
 8887POPC   C3A70733  43.100  23.750   7.050
 8887POPC   C4A70734  43.117  23.671   7.350
 8887POPC   C1B70735  43.371  23.567   6.450
 8887POPC   C2B70736  43.298  23.595   6.750
 8887POPC   C3B70737  43.347  23.585   7.050
 8887POPC   C4B70738  43.292  23.591   7.350
 8888POPC   NC370739  35.401   8.998   5.550
 8888POPC   PO470740  35.372   8.952   5.850
 8888POPC   GL170741  35.352   8.958   6.150
 8888POPC   GL270742  35.220   8.870   6.150
 8888POPC   C1A70743  35.392   8.931   6.450
 8888POPC   D2A70744  35.401   9.012   6.750
 8888POPC   C3A70745  35.348   8.932   7.050
 8888POPC   C4A70746  35.355   8.945   7.350
 8888POPC   C1B70747  35.174   8.786   6.450
 8888POPC   C2B70748  35.206   8.810   6.750
 8888POPC   C3B70749  35.156   8.745   7.050
 8888POPC   C4B70750  35.214   8.825   7.350
 8889POPC   NC370751  41.552  13.580   5.550
 8889POPC   PO470752  41.603  13.642   5.850
 8889POPC   GL170753  41.597  13.621   6.150
 8889POPC   GL270754  41.446  13.700   6.150
 8889POPC   C1A70755  41.561  13.672   6.450
 8889POPC   D2A70756  41.562  13.642   6.750
 8889POPC   C3A70757  41.547  13.588   7.050
 8889POPC   C4A70758  41.545  13.636   7.350
 8889POPC   C1B70759  41.388  13.754   6.450
 8889POPC   C2B70760  41.348  13.757   6.750
 8889POPC   C3B70761  41.343  13.818   7.050
 8889POPC   C4B70762  41.348  13.794   7.350
 8890POPC   NC370763  24.470   5.829   5.550
 8890POPC   PO470764  24.477   5.822   5.850
 8890POPC   GL170765  24.447   5.915   6.150
 8890POPC   GL270766  24.426   6.000   6.150
 8890POPC   C1A70767  24.475   5.862   6.450
 8890POPC   D2A70768  24.531   5.887   6.750
 8890POPC   C3A70769  24.454   5.819   7.050
 8890POPC   C4A70770  24.470   5.882   7.350
 8890POPC   C1B70771  24.350   6.067   6.450
 8890POPC   C2B70772  24.339   5.999   6.750
 8890POPC   C3B70773  24.271   6.037   7.050
 8890POPC   C4B70774  24.303   6.085   7.350
 8891POPC   NC370775  40.738  29.180   5.550
 8891POPC   PO470776  40.823  29.139   5.850
 8891POPC   GL170777  40.824  29.184   6.150
 8891POPC   GL270778  40.792  29.279   6.150
 8891POPC   C1A70779  40.760  29.121   6.450
 8891POPC   D2A70780  40.803  29.103   6.750
 8891POPC   C3A70781  40.810  29.180   7.050
 8891POPC   C4A70782  40.761  29.113   7.350
 8891POPC   C1B70783  40.786  29.388   6.450
 8891POPC   C2B70784  40.831  29.348   6.750
 8891POPC   C3B70785  40.799  29.409   7.050
 8891POPC   C4B70786  40.784  29.383   7.350
 8892POPC   NC370787  39.994   5.052   5.550
 8892POPC   PO470788  40.046   5.052   5.850
 8892POPC   GL170789  39.991   5.101   6.150
 8892POPC   GL270790  40.046   5.152   6.150
 8892POPC   C1A70791  40.046   5.131   6.450
 8892POPC   D2A70792  40.007   5.086   6.750
 8892POPC   C3A70793  39.975   5.078   7.050
 8892POPC   C4A70794  40.014   5.137   7.350
 8892POPC   C1B70795  40.228   5.238   6.450
 8892POPC   C2B70796  40.181   5.305   6.750
 8892POPC   C3B70797  40.208   5.266   7.050
 8892POPC   C4B70798  40.205   5.310   7.350
 8893POPC   NC370799  10.564  34.557   5.550
 8893POPC   PO470800  10.506  34.557   5.850
 8893POPC   GL170801  10.489  34.584   6.150
 8893POPC   GL270802  10.443  34.475   6.150
 8893POPC   C1A70803  10.559  34.600   6.450
 8893POPC   D2A70804  10.508  34.571   6.750
 8893POPC   C3A70805  10.556  34.529   7.050
 8893POPC   C4A70806  10.505  34.558   7.350
 8893POPC   C1B70807  10.371  34.390   6.450
 8893POPC   C2B70808  10.374  34.397   6.750
 8893POPC   C3B70809  10.360  34.420   7.050
 8893POPC   C4B70810  10.352  34.445   7.350
 8894POPC   NC370811  10.554  14.400   5.550
 8894POPC   PO470812  10.540  14.379   5.850
 8894POPC   GL170813  10.526  14.382   6.150
 8894POPC   GL270814  10.622  14.283   6.150
 8894POPC   C1A70815  10.571  14.400   6.450
 8894POPC   D2A70816  10.505  14.394   6.750
 8894POPC   C3A70817  10.476  14.450   7.050
 8894POPC   C4A70818  10.497  14.366   7.350
 8894POPC   C1B70819  10.770  14.235   6.450
 8894POPC   C2B70820  10.731  14.270   6.750
 8894POPC   C3B70821  10.775  14.260   7.050
 8894POPC   C4B70822  10.721  14.309   7.350
 8895POPC   NC370823  40.024  43.872   5.550
 8895POPC   PO470824  39.988  43.890   5.850
 8895POPC   GL170825  40.019  43.849   6.150
 8895POPC   GL270826  40.155  43.873   6.150
 8895POPC   C1A70827  40.001  43.861   6.450
 8895POPC   D2A70828  39.984  43.915   6.750
 8895POPC   C3A70829  39.994  43.850   7.050
 8895POPC   C4A70830  40.023  43.872   7.350
 8895POPC   C1B70831  40.262  43.832   6.450
 8895POPC   C2B70832  40.245  43.875   6.750
 8895POPC   C3B70833  40.231  43.876   7.050
 8895POPC   C4B70834  40.228  43.816   7.350
 8896POPC   NC370835   4.304   7.417   5.550
 8896POPC   PO470836   4.297   7.402   5.850
 8896POPC   GL170837   4.329   7.461   6.150
 8896POPC   GL270838   4.464   7.390   6.150
 8896POPC   C1A70839   4.336   7.470   6.450
 8896POPC   D2A70840   4.282   7.428   6.750
 8896POPC   C3A70841   4.297   7.415   7.050
 8896POPC   C4A70842   4.343   7.413   7.350
 8896POPC   C1B70843   4.606   7.312   6.450
 8896POPC   C2B70844   4.553   7.340   6.750
 8896POPC   C3B70845   4.561   7.333   7.050
 8896POPC   C4B70846   4.567   7.343   7.350
 8897POPC   NC370847   9.786  44.616   5.550
 8897POPC   PO470848   9.768  44.690   5.850
 8897POPC   GL170849   9.778  44.677   6.150
 8897POPC   GL270850   9.709  44.560   6.150
 8897POPC   C1A70851   9.735  44.657   6.450
 8897POPC   D2A70852   9.727  44.650   6.750
 8897POPC   C3A70853   9.719  44.622   7.050
 8897POPC   C4A70854   9.765  44.695   7.350
 8897POPC   C1B70855   9.605  44.420   6.450
 8897POPC   C2B70856   9.616  44.507   6.750
 8897POPC   C3B70857   9.558  44.421   7.050
 8897POPC   C4B70858   9.633  44.490   7.350
 8898POPC   NC370859  17.458   5.143   5.550
 8898POPC   PO470860  17.475   5.139   5.850
 8898POPC   GL170861  17.513   5.078   6.150
 8898POPC   GL270862  17.523   4.983   6.150
 8898POPC   C1A70863  17.515   5.051   6.450
 8898POPC   D2A70864  17.513   5.119   6.750
 8898POPC   C3A70865  17.521   5.142   7.050
 8898POPC   C4A70866  17.499   5.075   7.350
 8898POPC   C1B70867  17.597   4.839   6.450
 8898POPC   C2B70868  17.510   4.803   6.750
 8898POPC   C3B70869  17.564   4.834   7.050
 8898POPC   C4B70870  17.519   4.821   7.350
 8899POPC   NC370871  36.122  19.807   5.550
 8899POPC   PO470872  36.079  19.787   5.850
 8899POPC   GL170873  36.079  19.813   6.150
 8899POPC   GL270874  36.265  19.888   6.150
 8899POPC   C1A70875  36.145  19.817   6.450
 8899POPC   D2A70876  36.162  19.883   6.750
 8899POPC   C3A70877  36.127  19.832   7.050
 8899POPC   C4A70878  36.128  19.835   7.350
 8899POPC   C1B70879  36.382  19.953   6.450
 8899POPC   C2B70880  36.354  19.928   6.750
 8899POPC   C3B70881  36.307  19.927   7.050
 8899POPC   C4B70882  36.308  19.937   7.350
 8900POPC   NC370883  18.281   2.006   5.550
 8900POPC   PO470884  18.240   1.977   5.850
 8900POPC   GL170885  18.292   1.948   6.150
 8900POPC   GL270886  18.299   2.104   6.150
 8900POPC   C1A70887  18.254   1.993   6.450
 8900POPC   D2A70888  18.305   1.991   6.750
 8900POPC   C3A70889  18.244   1.984   7.050
 8900POPC   C4A70890  18.243   1.964   7.350
 8900POPC   C1B70891  18.270   2.258   6.450
 8900POPC   C2B70892  18.280   2.236   6.750
 8900POPC   C3B70893  18.265   2.279   7.050
 8900POPC   C4B70894  18.197   2.267   7.350
 8901POPC   NC370895  32.243  36.912   5.550
 8901POPC   PO470896  32.235  36.907   5.850
 8901POPC   GL170897  32.286  36.928   6.150
 8901POPC   GL270898  32.180  36.811   6.150
 8901POPC   C1A70899  32.255  36.944   6.450
 8901POPC   D2A70900  32.243  36.882   6.750
 8901POPC   C3A70901  32.226  36.866   7.050
 8901POPC   C4A70902  32.296  36.911   7.350
 8901POPC   C1B70903  32.158  36.656   6.450
 8901POPC   C2B70904  32.174  36.667   6.750
 8901POPC   C3B70905  32.110  36.655   7.050
 8901POPC   C4B70906  32.097  36.699   7.350
 8902POPC   NC370907  18.298   8.195   5.550
 8902POPC   PO470908  18.255   8.203   5.850
 8902POPC   GL170909  18.333   8.246   6.150
 8902POPC   GL270910  18.399   8.077   6.150
 8902POPC   C1A70911  18.290   8.179   6.450
 8902POPC   D2A70912  18.254   8.227   6.750
 8902POPC   C3A70913  18.308   8.205   7.050
 8902POPC   C4A70914  18.257   8.231   7.350
 8902POPC   C1B70915  18.449   7.966   6.450
 8902POPC   C2B70916  18.432   7.988   6.750
 8902POPC   C3B70917  18.415   8.021   7.050
 8902POPC   C4B70918  18.424   8.011   7.350
 8903POPC   NC370919  16.721   3.585   5.550
 8903POPC   PO470920  16.706   3.580   5.850
 8903POPC   GL170921  16.761   3.568   6.150
 8903POPC   GL270922  16.692   3.644   6.150
 8903POPC   C1A70923  16.742   3.538   6.450
 8903POPC   D2A70924  16.759   3.558   6.750
 8903POPC   C3A70925  16.766   3.528   7.050
 8903POPC   C4A70926  16.686   3.548   7.350
 8903POPC   C1B70927  16.643   3.732   6.450
 8903POPC   C2B70928  16.630   3.806   6.750
 8903POPC   C3B70929  16.659   3.753   7.050
 8903POPC   C4B70930  16.659   3.745   7.350
 8904POPC   NC370931  18.244  40.801   5.550
 8904POPC   PO470932  18.312  40.769   5.850
 8904POPC   GL170933  18.296  40.823   6.150
 8904POPC   GL270934  18.156  40.899   6.150
 8904POPC   C1A70935  18.294  40.746   6.450
 8904POPC   D2A70936  18.291  40.811   6.750
 8904POPC   C3A70937  18.332  40.771   7.050
 8904POPC   C4A70938  18.252  40.801   7.350
 8904POPC   C1B70939  18.087  40.946   6.450
 8904POPC   C2B70940  18.054  40.902   6.750
 8904POPC   C3B70941  18.087  40.929   7.050
 8904POPC   C4B70942  18.066  40.917   7.350
 8905POPC   NC370943  17.551  40.042   5.550
 8905POPC   PO470944  17.488  39.968   5.850
 8905POPC   GL170945  17.539  40.040   6.150
 8905POPC   GL270946  17.568  40.118   6.150
 8905POPC   C1A70947  17.556  40.035   6.450
 8905POPC   D2A70948  17.464  40.010   6.750
 8905POPC   C3A70949  17.467  39.978   7.050
 8905POPC   C4A70950  17.457  40.038   7.350
 8905POPC   C1B70951  17.686  40.189   6.450
 8905POPC   C2B70952  17.751  40.139   6.750
 8905POPC   C3B70953  17.753  40.137   7.050
 8905POPC   C4B70954  17.720  40.146   7.350
 8906POPC   NC370955   7.379  43.838   5.550
 8906POPC   PO470956   7.469  43.873   5.850
 8906POPC   GL170957   7.424  43.897   6.150
 8906POPC   GL270958   7.320  43.957   6.150
 8906POPC   C1A70959   7.402  43.877   6.450
 8906POPC   D2A70960   7.458  43.895   6.750
 8906POPC   C3A70961   7.372  43.895   7.050
 8906POPC   C4A70962   7.387  43.882   7.350
 8906POPC   C1B70963   7.169  43.910   6.450
 8906POPC   C2B70964   7.164  43.938   6.750
 8906POPC   C3B70965   7.230  43.926   7.050
 8906POPC   C4B70966   7.180  43.968   7.350
 8907POPC   NC370967  22.952  38.477   5.550
 8907POPC   PO470968  22.954  38.433   5.850
 8907POPC   GL170969  22.930  38.461   6.150
 8907POPC   GL270970  23.106  38.488   6.150
 8907POPC   C1A70971  22.922  38.479   6.450
 8907POPC   D2A70972  22.916  38.480   6.750
 8907POPC   C3A70973  22.973  38.432   7.050
 8907POPC   C4A70974  22.972  38.462   7.350
 8907POPC   C1B70975  23.183  38.473   6.450
 8907POPC   C2B70976  23.197  38.481   6.750
 8907POPC   C3B70977  23.177  38.472   7.050
 8907POPC   C4B70978  23.173  38.501   7.350
 8908POPC   NC370979   9.752  13.654   5.550
 8908POPC   PO470980   9.777  13.653   5.850
 8908POPC   GL170981   9.776  13.637   6.150
 8908POPC   GL270982   9.833  13.676   6.150
 8908POPC   C1A70983   9.793  13.654   6.450
 8908POPC   D2A70984   9.763  13.619   6.750
 8908POPC   C3A70985   9.788  13.640   7.050
 8908POPC   C4A70986   9.740  13.656   7.350
 8908POPC   C1B70987  10.015  13.672   6.450
 8908POPC   C2B70988   9.947  13.665   6.750
 8908POPC   C3B70989   9.979  13.721   7.050
 8908POPC   C4B70990   9.939  13.688   7.350
 8909POPC   NC370991   3.547   2.790   5.550
 8909POPC   PO470992   3.561   2.752   5.850
 8909POPC   GL170993   3.574   2.771   6.150
 8909POPC   GL270994   3.565   2.654   6.150
 8909POPC   C1A70995   3.517   2.737   6.450
 8909POPC   D2A70996   3.495   2.747   6.750
 8909POPC   C3A70997   3.546   2.741   7.050
 8909POPC   C4A70998   3.530   2.776   7.350
 8909POPC   C1B70999   3.544   2.528   6.450
 8909POPC   C2B71000   3.545   2.508   6.750
 8909POPC   C3B71001   3.569   2.508   7.050
 8909POPC   C4B71002   3.521   2.487   7.350
 8910POPC   NC371003  33.061  19.027   5.550
 8910POPC   PO471004  32.991  19.093   5.850
 8910POPC   GL171005  33.062  19.061   6.150
 8910POPC   GL271006  33.075  19.164   6.150
 8910POPC   C1A71007  33.008  19.081   6.450
 8910POPC   D2A71008  32.994  19.104   6.750
 8910POPC   C3A71009  33.051  19.020   7.050
 8910POPC   C4A71010  33.033  19.053   7.350
 8910POPC   C1B71011  33.255  19.238   6.450
 8910POPC   C2B71012  33.175  19.191   6.750
 8910POPC   C3B71013  33.269  19.206   7.050
 8910POPC   C4B71014  33.261  19.183   7.350
 8911POPC   NC371015   2.788   3.565   5.550
 8911POPC   PO471016   2.768   3.501   5.850
 8911POPC   GL171017   2.812   3.591   6.150
 8911POPC   GL271018   2.686   3.391   6.150
 8911POPC   C1A71019   2.767   3.585   6.450
 8911POPC   D2A71020   2.790   3.546   6.750
 8911POPC   C3A71021   2.757   3.496   7.050
 8911POPC   C4A71022   2.809   3.586   7.350
 8911POPC   C1B71023   2.652   3.297   6.450
 8911POPC   C2B71024   2.685   3.300   6.750
 8911POPC   C3B71025   2.663   3.277   7.050
 8911POPC   C4B71026   2.598   3.360   7.350
 8912POPC   NC371027  33.765   4.274   5.550
 8912POPC   PO471028  33.802   4.362   5.850
 8912POPC   GL171029  33.799   4.345   6.150
 8912POPC   GL271030  33.940   4.288   6.150
 8912POPC   C1A71031  33.816   4.272   6.450
 8912POPC   D2A71032  33.812   4.320   6.750
 8912POPC   C3A71033  33.802   4.337   7.050
 8912POPC   C4A71034  33.774   4.304   7.350
 8912POPC   C1B71035  34.062   4.263   6.450
 8912POPC   C2B71036  34.071   4.273   6.750
 8912POPC   C3B71037  34.021   4.326   7.050
 8912POPC   C4B71038  34.027   4.295   7.350
 8913POPC   NC371039  18.257  33.055   5.550
 8913POPC   PO471040  18.249  33.030   5.850
 8913POPC   GL171041  18.328  33.024   6.150
 8913POPC   GL271042  18.194  32.962   6.150
 8913POPC   C1A71043  18.312  33.000   6.450
 8913POPC   D2A71044  18.252  33.003   6.750
 8913POPC   C3A71045  18.265  33.027   7.050
 8913POPC   C4A71046  18.234  33.020   7.350
 8913POPC   C1B71047  18.092  32.916   6.450
 8913POPC   C2B71048  18.073  32.930   6.750
 8913POPC   C3B71049  18.101  32.943   7.050
 8913POPC   C4B71050  18.072  32.918   7.350
 8914POPC   NC371051  28.349  40.761   5.550
 8914POPC   PO471052  28.364  40.780   5.850
 8914POPC   GL171053  28.391  40.759   6.150
 8914POPC   GL271054  28.295  40.890   6.150
 8914POPC   C1A71055  28.344  40.750   6.450
 8914POPC   D2A71056  28.328  40.747   6.750
 8914POPC   C3A71057  28.400  40.773   7.050
 8914POPC   C4A71058  28.366  40.747   7.350
 8914POPC   C1B71059  28.313  41.070   6.450
 8914POPC   C2B71060  28.358  41.041   6.750
 8914POPC   C3B71061  28.297  40.995   7.050
 8914POPC   C4B71062  28.364  40.990   7.350
 8915POPC   NC371063  23.759  43.117   5.550
 8915POPC   PO471064  23.759  43.081   5.850
 8915POPC   GL171065  23.750  43.100   6.150
 8915POPC   GL271066  23.709  42.970   6.150
 8915POPC   C1A71067  23.691  43.146   6.450
 8915POPC   D2A71068  23.698  43.098   6.750
 8915POPC   C3A71069  23.738  43.116   7.050
 8915POPC   C4A71070  23.731  43.107   7.350
 8915POPC   C1B71071  23.670  42.885   6.450
 8915POPC   C2B71072  23.636  42.902   6.750
 8915POPC   C3B71073  23.667  42.856   7.050
 8915POPC   C4B71074  23.653  42.881   7.350
 8916POPC   NC371075  26.835  43.852   5.550
 8916POPC   PO471076  26.826  43.872   5.850
 8916POPC   GL171077  26.788  43.889   6.150
 8916POPC   GL271078  26.751  44.037   6.150
 8916POPC   C1A71079  26.830  43.918   6.450
 8916POPC   D2A71080  26.816  43.841   6.750
 8916POPC   C3A71081  26.816  43.895   7.050
 8916POPC   C4A71082  26.820  43.864   7.350
 8916POPC   C1B71083  26.754  44.161   6.450
 8916POPC   C2B71084  26.736  44.071   6.750
 8916POPC   C3B71085  26.748  44.085   7.050
 8916POPC   C4B71086  26.700  44.118   7.350
 8917POPC   NC371087   2.031  11.266   5.550
 8917POPC   PO471088   2.003  11.295   5.850
 8917POPC   GL171089   2.027  11.312   6.150
 8917POPC   GL271090   1.979  11.172   6.150
 8917POPC   C1A71091   2.039  11.275   6.450
 8917POPC   D2A71092   2.019  11.332   6.750
 8917POPC   C3A71093   1.942  11.312   7.050
 8917POPC   C4A71094   1.995  11.254   7.350
 8917POPC   C1B71095   2.001  11.101   6.450
 8917POPC   C2B71096   2.045  11.059   6.750
 8917POPC   C3B71097   1.990  11.059   7.050
 8917POPC   C4B71098   2.065  11.090   7.350
 8918POPC   NC371099  16.730  14.365   5.550
 8918POPC   PO471100  16.747  14.355   5.850
 8918POPC   GL171101  16.742  14.415   6.150
 8918POPC   GL271102  16.668  14.290   6.150
 8918POPC   C1A71103  16.728  14.415   6.450
 8918POPC   D2A71104  16.695  14.418   6.750
 8918POPC   C3A71105  16.690  14.385   7.050
 8918POPC   C4A71106  16.702  14.388   7.350
 8918POPC   C1B71107  16.567  14.265   6.450
 8918POPC   C2B71108  16.517  14.218   6.750
 8918POPC   C3B71109  16.562  14.220   7.050
 8918POPC   C4B71110  16.563  14.265   7.350
 8919POPC   NC371111  10.563  41.514   5.550
 8919POPC   PO471112  10.481  41.607   5.850
 8919POPC   GL171113  10.551  41.584   6.150
 8919POPC   GL271114  10.526  41.640   6.150
 8919POPC   C1A71115  10.493  41.556   6.450
 8919POPC   D2A71116  10.526  41.594   6.750
 8919POPC   C3A71117  10.528  41.561   7.050
 8919POPC   C4A71118  10.540  41.520   7.350
 8919POPC   C1B71119  10.592  41.778   6.450
 8919POPC   C2B71120  10.527  41.812   6.750
 8919POPC   C3B71121  10.512  41.770   7.050
 8919POPC   C4B71122  10.572  41.822   7.350
 8920POPC   NC371123  21.379  26.855   5.550
 8920POPC   PO471124  21.367  26.801   5.850
 8920POPC   GL171125  21.363  26.840   6.150
 8920POPC   GL271126  21.457  26.744   6.150
 8920POPC   C1A71127  21.409  26.819   6.450
 8920POPC   D2A71128  21.404  26.828   6.750
 8920POPC   C3A71129  21.436  26.786   7.050
 8920POPC   C4A71130  21.413  26.827   7.350
 8920POPC   C1B71131  21.588  26.722   6.450
 8920POPC   C2B71132  21.577  26.730   6.750
 8920POPC   C3B71133  21.594  26.703   7.050
 8920POPC   C4B71134  21.592  26.703   7.350
 8921POPC   NC371135   9.771   8.148   5.550
 8921POPC   PO471136   9.759   8.190   5.850
 8921POPC   GL171137   9.722   8.201   6.150
 8921POPC   GL271138   9.798   8.302   6.150
 8921POPC   C1A71139   9.777   8.171   6.450
 8921POPC   D2A71140   9.735   8.216   6.750
 8921POPC   C3A71141   9.774   8.241   7.050
 8921POPC   C4A71142   9.714   8.201   7.350
 8921POPC   C1B71143   9.843   8.381   6.450
 8921POPC   C2B71144   9.788   8.392   6.750
 8921POPC   C3B71145   9.796   8.426   7.050
 8921POPC   C4B71146   9.846   8.443   7.350
 8922POPC   NC371147   0.472  44.637   5.550
 8922POPC   PO471148   0.392  44.638   5.850
 8922POPC   GL171149   0.484  44.634   6.150
 8922POPC   GL271150   0.476  44.745   6.150
 8922POPC   C1A71151   0.403  44.688   6.450
 8922POPC   D2A71152   0.443  44.696   6.750
 8922POPC   C3A71153   0.478  44.706   7.050
 8922POPC   C4A71154   0.450  44.647   7.350
 8922POPC   C1B71155   0.562  44.943   6.450
 8922POPC   C2B71156   0.556  44.848   6.750
 8922POPC   C3B71157   0.575  44.914   7.050
 8922POPC   C4B71158   0.511  44.906   7.350
 8923POPC   NC371159  23.752  12.805   5.550
 8923POPC   PO471160  23.752  12.831   5.850
 8923POPC   GL171161  23.763  12.858   6.150
 8923POPC   GL271162  23.824  12.913   6.150
 8923POPC   C1A71163  23.729  12.892   6.450
 8923POPC   D2A71164  23.745  12.846   6.750
 8923POPC   C3A71165  23.724  12.867   7.050
 8923POPC   C4A71166  23.690  12.871   7.350
 8923POPC   C1B71167  23.818  13.065   6.450
 8923POPC   C2B71168  23.827  13.037   6.750
 8923POPC   C3B71169  23.861  13.118   7.050
 8923POPC   C4B71170  23.811  13.046   7.350
 8924POPC   NC371171   4.283  21.354   5.550
 8924POPC   PO471172   4.328  21.389   5.850
 8924POPC   GL171173   4.307  21.374   6.150
 8924POPC   GL271174   4.401  21.319   6.150
 8924POPC   C1A71175   4.274  21.432   6.450
 8924POPC   D2A71176   4.319  21.368   6.750
 8924POPC   C3A71177   4.348  21.355   7.050
 8924POPC   C4A71178   4.323  21.394   7.350
 8924POPC   C1B71179   4.418  21.122   6.450
 8924POPC   C2B71180   4.444  21.182   6.750
 8924POPC   C3B71181   4.481  21.176   7.050
 8924POPC   C4B71182   4.412  21.177   7.350
 8925POPC   NC371183   5.131  11.326   5.550
 8925POPC   PO471184   5.136  11.290   5.850
 8925POPC   GL171185   5.051  11.325   6.150
 8925POPC   GL271186   5.006  11.263   6.150
 8925POPC   C1A71187   5.114  11.276   6.450
 8925POPC   D2A71188   5.128  11.270   6.750
 8925POPC   C3A71189   5.105  11.307   7.050
 8925POPC   C4A71190   5.048  11.270   7.350
 8925POPC   C1B71191   4.883  11.269   6.450
 8925POPC   C2B71192   4.844  11.226   6.750
 8925POPC   C3B71193   4.893  11.199   7.050
 8925POPC   C4B71194   4.883  11.194   7.350
 8926POPC   NC371195   6.621  12.853   5.550
 8926POPC   PO471196   6.598  12.804   5.850
 8926POPC   GL171197   6.686  12.876   6.150
 8926POPC   GL271198   6.790  12.963   6.150
 8926POPC   C1A71199   6.694  12.901   6.450
 8926POPC   D2A71200   6.659  12.852   6.750
 8926POPC   C3A71201   6.694  12.812   7.050
 8926POPC   C4A71202   6.638  12.846   7.350
 8926POPC   C1B71203   6.873  12.952   6.450
 8926POPC   C2B71204   6.799  13.014   6.750
 8926POPC   C3B71205   6.833  13.005   7.050
 8926POPC   C4B71206   6.853  13.038   7.350
 8927POPC   NC371207  35.316  34.582   5.550
 8927POPC   PO471208  35.379  34.581   5.850
 8927POPC   GL171209  35.314  34.550   6.150
 8927POPC   GL271210  35.290  34.410   6.150
 8927POPC   C1A71211  35.359  34.530   6.450
 8927POPC   D2A71212  35.390  34.606   6.750
 8927POPC   C3A71213  35.371  34.618   7.050
 8927POPC   C4A71214  35.395  34.550   7.350
 8927POPC   C1B71215  35.235  34.385   6.450
 8927POPC   C2B71216  35.236  34.371   6.750
 8927POPC   C3B71217  35.290  34.341   7.050
 8927POPC   C4B71218  35.300  34.380   7.350
 8928POPC   NC371219  29.935  21.417   5.550
 8928POPC   PO471220  29.878  21.401   5.850
 8928POPC   GL171221  29.910  21.365   6.150
 8928POPC   GL271222  29.807  21.313   6.150
 8928POPC   C1A71223  29.907  21.356   6.450
 8928POPC   D2A71224  29.943  21.336   6.750
 8928POPC   C3A71225  29.906  21.392   7.050
 8928POPC   C4A71226  29.928  21.391   7.350
 8928POPC   C1B71227  29.726  21.169   6.450
 8928POPC   C2B71228  29.715  21.221   6.750
 8928POPC   C3B71229  29.717  21.225   7.050
 8928POPC   C4B71230  29.754  21.197   7.350
 8929POPC   NC371231  25.282  42.302   5.550
 8929POPC   PO471232  25.243  42.302   5.850
 8929POPC   GL171233  25.301  42.346   6.150
 8929POPC   GL271234  25.384  42.416   6.150
 8929POPC   C1A71235  25.272  42.360   6.450
 8929POPC   D2A71236  25.264  42.346   6.750
 8929POPC   C3A71237  25.316  42.375   7.050
 8929POPC   C4A71238  25.236  42.364   7.350
 8929POPC   C1B71239  25.548  42.388   6.450
 8929POPC   C2B71240  25.462  42.464   6.750
 8929POPC   C3B71241  25.536  42.414   7.050
 8929POPC   C4B71242  25.524  42.409   7.350
 8930POPC   NC371243  31.430  41.598   5.550
 8930POPC   PO471244  31.451  41.548   5.850
 8930POPC   GL171245  31.505  41.585   6.150
 8930POPC   GL271246  31.406  41.470   6.150
 8930POPC   C1A71247  31.461  41.529   6.450
 8930POPC   D2A71248  31.490  41.568   6.750
 8930POPC   C3A71249  31.465  41.550   7.050
 8930POPC   C4A71250  31.482  41.574   7.350
 8930POPC   C1B71251  31.266  41.398   6.450
 8930POPC   C2B71252  31.277  41.395   6.750
 8930POPC   C3B71253  31.277  41.388   7.050
 8930POPC   C4B71254  31.315  41.419   7.350
 8931POPC   NC371255   8.165  13.666   5.550
 8931POPC   PO471256   8.173  13.642   5.850
 8931POPC   GL171257   8.183  13.666   6.150
 8931POPC   GL271258   8.196  13.729   6.150
 8931POPC   C1A71259   8.244  13.663   6.450
 8931POPC   D2A71260   8.162  13.642   6.750
 8931POPC   C3A71261   8.198  13.587   7.050
 8931POPC   C4A71262   8.166  13.666   7.350
 8931POPC   C1B71263   8.259  13.898   6.450
 8931POPC   C2B71264   8.264  13.852   6.750
 8931POPC   C3B71265   8.185  13.877   7.050
 8931POPC   C4B71266   8.219  13.881   7.350
 8932POPC   NC371267  19.084   8.159   5.550
 8932POPC   PO471268  19.014   8.177   5.850
 8932POPC   GL171269  19.096   8.156   6.150
 8932POPC   GL271270  19.196   8.191   6.150
 8932POPC   C1A71271  19.072   8.201   6.450
 8932POPC   D2A71272  19.022   8.201   6.750
 8932POPC   C3A71273  19.040   8.189   7.050
 8932POPC   C4A71274  19.019   8.157   7.350
 8932POPC   C1B71275  19.337   8.203   6.450
 8932POPC   C2B71276  19.281   8.245   6.750
 8932POPC   C3B71277  19.289   8.207   7.050
 8932POPC   C4B71278  19.264   8.230   7.350
 8933POPC   NC371279   4.341  31.453   5.550
 8933POPC   PO471280   4.326  31.439   5.850
 8933POPC   GL171281   4.327  31.436   6.150
 8933POPC   GL271282   4.273  31.600   6.150
 8933POPC   C1A71283   4.328  31.445   6.450
 8933POPC   D2A71284   4.320  31.441   6.750
 8933POPC   C3A71285   4.297  31.477   7.050
 8933POPC   C4A71286   4.346  31.431   7.350
 8933POPC   C1B71287   4.310  31.688   6.450
 8933POPC   C2B71288   4.297  31.741   6.750
 8933POPC   C3B71289   4.295  31.770   7.050
 8933POPC   C4B71290   4.318  31.677   7.350
 8934POPC   NC371291  19.081   1.945   5.550
 8934POPC   PO471292  19.101   2.017   5.850
 8934POPC   GL171293  19.011   1.979   6.150
 8934POPC   GL271294  18.955   1.968   6.150
 8934POPC   C1A71295  19.016   1.992   6.450
 8934POPC   D2A71296  19.032   2.005   6.750
 8934POPC   C3A71297  19.074   2.027   7.050
 8934POPC   C4A71298  19.061   2.034   7.350
 8934POPC   C1B71299  18.820   1.853   6.450
 8934POPC   C2B71300  18.894   1.855   6.750
 8934POPC   C3B71301  18.820   1.879   7.050
 8934POPC   C4B71302  18.817   1.827   7.350
 8935POPC   NC371303  16.750  13.615   5.550
 8935POPC   PO471304  16.713  13.627   5.850
 8935POPC   GL171305  16.740  13.672   6.150
 8935POPC   GL271306  16.583  13.628   6.150
 8935POPC   C1A71307  16.745  13.663   6.450
 8935POPC   D2A71308  16.731  13.589   6.750
 8935POPC   C3A71309  16.694  13.662   7.050
 8935POPC   C4A71310  16.780  13.634   7.350
 8935POPC   C1B71311  16.453  13.702   6.450
 8935POPC   C2B71312  16.480  13.694   6.750
 8935POPC   C3B71313  16.458  13.696   7.050
 8935POPC   C4B71314  16.516  13.715   7.350
 8936POPC   NC371315  40.785  21.346   5.550
 8936POPC   PO471316  40.798  21.373   5.850
 8936POPC   GL171317  40.806  21.376   6.150
 8936POPC   GL271318  40.880  21.419   6.150
 8936POPC   C1A71319  40.803  21.410   6.450
 8936POPC   D2A71320  40.756  21.436   6.750
 8936POPC   C3A71321  40.742  21.343   7.050
 8936POPC   C4A71322  40.747  21.411   7.350
 8936POPC   C1B71323  41.067  21.362   6.450
 8936POPC   C2B71324  41.071  21.315   6.750
 8936POPC   C3B71325  41.079  21.344   7.050
 8936POPC   C4B71326  41.024  21.357   7.350
 8937POPC   NC371327  25.259  32.235   5.550
 8937POPC   PO471328  25.288  32.280   5.850
 8937POPC   GL171329  25.284  32.239   6.150
 8937POPC   GL271330  25.394  32.336   6.150
 8937POPC   C1A71331  25.256  32.224   6.450
 8937POPC   D2A71332  25.236  32.255   6.750
 8937POPC   C3A71333  25.234  32.247   7.050
 8937POPC   C4A71334  25.264  32.266   7.350
 8937POPC   C1B71335  25.512  32.301   6.450
 8937POPC   C2B71336  25.483  32.298   6.750
 8937POPC   C3B71337  25.472  32.296   7.050
 8937POPC   C4B71338  25.517  32.363   7.350
 8938POPC   NC371339   0.470  29.887   5.550
 8938POPC   PO471340   0.454  29.930   5.850
 8938POPC   GL171341   0.431  29.920   6.150
 8938POPC   GL271342   0.317  29.828   6.150
 8938POPC   C1A71343   0.409  29.917   6.450
 8938POPC   D2A71344   0.474  29.886   6.750
 8938POPC   C3A71345   0.473  29.907   7.050
 8938POPC   C4A71346   0.473  29.891   7.350
 8938POPC   C1B71347   0.256  29.775   6.450
 8938POPC   C2B71348   0.233  29.861   6.750
 8938POPC   C3B71349   0.246  29.865   7.050
 8938POPC   C4B71350   0.205  29.860   7.350
 8939POPC   NC371351  36.903  15.225   5.550
 8939POPC   PO471352  36.885  15.133   5.850
 8939POPC   GL171353  36.860  15.180   6.150
 8939POPC   GL271354  37.031  15.140   6.150
 8939POPC   C1A71355  36.916  15.214   6.450
 8939POPC   D2A71356  36.937  15.184   6.750
 8939POPC   C3A71357  36.899  15.185   7.050
 8939POPC   C4A71358  36.950  15.229   7.350
 8939POPC   C1B71359  37.116  15.109   6.450
 8939POPC   C2B71360  37.143  15.162   6.750
 8939POPC   C3B71361  37.175  15.117   7.050
 8939POPC   C4B71362  37.160  15.142   7.350
 8940POPC   NC371363  35.355  23.742   5.550
 8940POPC   PO471364  35.304  23.667   5.850
 8940POPC   GL171365  35.399  23.760   6.150
 8940POPC   GL271366  35.426  23.795   6.150
 8940POPC   C1A71367  35.312  23.759   6.450
 8940POPC   D2A71368  35.352  23.695   6.750
 8940POPC   C3A71369  35.361  23.687   7.050
 8940POPC   C4A71370  35.304  23.701   7.350
 8940POPC   C1B71371  35.539  23.905   6.450
 8940POPC   C2B71372  35.534  23.867   6.750
 8940POPC   C3B71373  35.563  23.811   7.050
 8940POPC   C4B71374  35.553  23.857   7.350
 8941POPC   NC371375  42.367  12.065   5.550
 8941POPC   PO471376  42.286  12.068   5.850
 8941POPC   GL171377  42.332  12.073   6.150
 8941POPC   GL271378  42.315  11.945   6.150
 8941POPC   C1A71379  42.324  12.116   6.450
 8941POPC   D2A71380  42.348  12.085   6.750
 8941POPC   C3A71381  42.326  12.079   7.050
 8941POPC   C4A71382  42.372  12.036   7.350
 8941POPC   C1B71383  42.333  11.826   6.450
 8941POPC   C2B71384  42.322  11.793   6.750
 8941POPC   C3B71385  42.337  11.790   7.050
 8941POPC   C4B71386  42.252  11.853   7.350
 8942POPC   NC371387  23.742  38.487   5.550
 8942POPC   PO471388  23.681  38.437   5.850
 8942POPC   GL171389  23.701  38.504   6.150
 8942POPC   GL271390  23.823  38.349   6.150
 8942POPC   C1A71391  23.731  38.435   6.450
 8942POPC   D2A71392  23.697  38.433   6.750
 8942POPC   C3A71393  23.754  38.484   7.050
 8942POPC   C4A71394  23.740  38.466   7.350
 8942POPC   C1B71395  23.938  38.312   6.450
 8942POPC   C2B71396  23.905  38.304   6.750
 8942POPC   C3B71397  23.955  38.364   7.050
 8942POPC   C4B71398  23.952  38.299   7.350
 8943POPC   NC371399   0.433  19.813   5.550
 8943POPC   PO471400   0.421  19.812   5.850
 8943POPC   GL171401   0.436  19.839   6.150
 8943POPC   GL271402   0.451  19.936   6.150
 8943POPC   C1A71403   0.436  19.849   6.450
 8943POPC   D2A71404   0.456  19.786   6.750
 8943POPC   C3A71405   0.486  19.839   7.050
 8943POPC   C4A71406   0.455  19.829   7.350
 8943POPC   C1B71407   0.499  20.037   6.450
 8943POPC   C2B71408   0.557  20.076   6.750
 8943POPC   C3B71409   0.567  20.015   7.050
 8943POPC   C4B71410   0.590  20.082   7.350
 8944POPC   NC371411  16.756  36.085   5.550
 8944POPC   PO471412  16.682  36.098   5.850
 8944POPC   GL171413  16.717  36.084   6.150
 8944POPC   GL271414  16.792  36.260   6.150
 8944POPC   C1A71415  16.761  36.102   6.450
 8944POPC   D2A71416  16.737  36.132   6.750
 8944POPC   C3A71417  16.774  36.166   7.050
 8944POPC   C4A71418  16.780  36.087   7.350
 8944POPC   C1B71419  16.787  36.374   6.450
 8944POPC   C2B71420  16.874  36.325   6.750
 8944POPC   C3B71421  16.830  36.393   7.050
 8944POPC   C4B71422  16.878  36.353   7.350
 8945POPC   NC371423  36.133  39.242   5.550
 8945POPC   PO471424  36.173  39.261   5.850
 8945POPC   GL171425  36.091  39.238   6.150
 8945POPC   GL271426  36.121  39.095   6.150
 8945POPC   C1A71427  36.112  39.251   6.450
 8945POPC   D2A71428  36.126  39.193   6.750
 8945POPC   C3A71429  36.154  39.223   7.050
 8945POPC   C4A71430  36.095  39.223   7.350
 8945POPC   C1B71431  35.996  38.974   6.450
 8945POPC   C2B71432  36.064  38.985   6.750
 8945POPC   C3B71433  36.006  39.041   7.050
 8945POPC   C4B71434  36.019  38.999   7.350
 8946POPC   NC371435  26.064  11.256   5.550
 8946POPC   PO471436  26.048  11.255   5.850
 8946POPC   GL171437  26.072  11.259   6.150
 8946POPC   GL271438  26.040  11.440   6.150
 8946POPC   C1A71439  26.077  11.285   6.450
 8946POPC   D2A71440  26.026  11.276   6.750
 8946POPC   C3A71441  26.015  11.256   7.050
 8946POPC   C4A71442  25.997  11.331   7.350
 8946POPC   C1B71443  25.927  11.562   6.450
 8946POPC   C2B71444  25.970  11.518   6.750
 8946POPC   C3B71445  25.964  11.515   7.050
 8946POPC   C4B71446  25.946  11.558   7.350
 8947POPC   NC371447  13.579  22.903   5.550
 8947POPC   PO471448  13.631  22.901   5.850
 8947POPC   GL171449  13.634  22.949   6.150
 8947POPC   GL271450  13.629  23.039   6.150
 8947POPC   C1A71451  13.598  22.907   6.450
 8947POPC   D2A71452  13.578  22.908   6.750
 8947POPC   C3A71453  13.652  22.960   7.050
 8947POPC   C4A71454  13.606  22.912   7.350
 8947POPC   C1B71455  13.664  23.191   6.450
 8947POPC   C2B71456  13.735  23.168   6.750
 8947POPC   C3B71457  13.752  23.144   7.050
 8947POPC   C4B71458  13.723  23.178   7.350
 8948POPC   NC371459  22.199  42.378   5.550
 8948POPC   PO471460  22.131  42.379   5.850
 8948POPC   GL171461  22.133  42.364   6.150
 8948POPC   GL271462  22.189  42.225   6.150
 8948POPC   C1A71463  22.193  42.331   6.450
 8948POPC   D2A71464  22.168  42.326   6.750
 8948POPC   C3A71465  22.126  42.304   7.050
 8948POPC   C4A71466  22.187  42.360   7.350
 8948POPC   C1B71467  22.090  42.068   6.450
 8948POPC   C2B71468  22.154  42.092   6.750
 8948POPC   C3B71469  22.101  42.085   7.050
 8948POPC   C4B71470  22.112  42.079   7.350
 8949POPC   NC371471  19.832  19.077   5.550
 8949POPC   PO471472  19.868  19.051   5.850
 8949POPC   GL171473  19.831  19.092   6.150
 8949POPC   GL271474  19.846  19.135   6.150
 8949POPC   C1A71475  19.882  19.069   6.450
 8949POPC   D2A71476  19.828  19.028   6.750
 8949POPC   C3A71477  19.792  19.044   7.050
 8949POPC   C4A71478  19.816  19.089   7.350
 8949POPC   C1B71479  19.931  19.320   6.450
 8949POPC   C2B71480  19.930  19.279   6.750
 8949POPC   C3B71481  19.935  19.252   7.050
 8949POPC   C4B71482  19.926  19.258   7.350
 8950POPC   NC371483  40.035  34.539   5.550
 8950POPC   PO471484  40.003  34.540   5.850
 8950POPC   GL171485  40.030  34.590   6.150
 8950POPC   GL271486  39.896  34.616   6.150
 8950POPC   C1A71487  40.014  34.567   6.450
 8950POPC   D2A71488  39.973  34.569   6.750
 8950POPC   C3A71489  39.959  34.589   7.050
 8950POPC   C4A71490  40.012  34.594   7.350
 8950POPC   C1B71491  39.726  34.621   6.450
 8950POPC   C2B71492  39.780  34.548   6.750
 8950POPC   C3B71493  39.797  34.548   7.050
 8950POPC   C4B71494  39.725  34.605   7.350
 8951POPC   NC371495  12.029  20.612   5.550
 8951POPC   PO471496  12.054  20.651   5.850
 8951POPC   GL171497  12.061  20.644   6.150
 8951POPC   GL271498  12.192  20.708   6.150
 8951POPC   C1A71499  12.082  20.623   6.450
 8951POPC   D2A71500  12.029  20.600   6.750
 8951POPC   C3A71501  12.030  20.658   7.050
 8951POPC   C4A71502  12.087  20.645   7.350
 8951POPC   C1B71503  12.298  20.700   6.450
 8951POPC   C2B71504  12.291  20.766   6.750
 8951POPC   C3B71505  12.288  20.710   7.050
 8951POPC   C4B71506  12.267  20.680   7.350
 8952POPC   NC371507  42.336  17.460   5.550
 8952POPC   PO471508  42.307  17.536   5.850
 8952POPC   GL171509  42.308  17.466   6.150
 8952POPC   GL271510  42.306  17.343   6.150
 8952POPC   C1A71511  42.312  17.525   6.450
 8952POPC   D2A71512  42.304  17.545   6.750
 8952POPC   C3A71513  42.347  17.510   7.050
 8952POPC   C4A71514  42.291  17.503   7.350
 8952POPC   C1B71515  42.375  17.217   6.450
 8952POPC   C2B71516  42.312  17.274   6.750
 8952POPC   C3B71517  42.310  17.271   7.050
 8952POPC   C4B71518  42.327  17.231   7.350
 8953POPC   NC371519  38.479  19.876   5.550
 8953POPC   PO471520  38.430  19.821   5.850
 8953POPC   GL171521  38.406  19.809   6.150
 8953POPC   GL271522  38.511  19.757   6.150
 8953POPC   C1A71523  38.484  19.838   6.450
 8953POPC   D2A71524  38.434  19.828   6.750
 8953POPC   C3A71525  38.480  19.875   7.050
 8953POPC   C4A71526  38.465  19.804   7.350
 8953POPC   C1B71527  38.564  19.572   6.450
 8953POPC   C2B71528  38.535  19.583   6.750
 8953POPC   C3B71529  38.568  19.639   7.050
 8953POPC   C4B71530  38.554  19.590   7.350
 8954POPC   NC371531  32.220  20.618   5.550
 8954POPC   PO471532  32.247  20.614   5.850
 8954POPC   GL171533  32.232  20.616   6.150
 8954POPC   GL271534  32.275  20.475   6.150
 8954POPC   C1A71535  32.284  20.615   6.450
 8954POPC   D2A71536  32.227  20.650   6.750
 8954POPC   C3A71537  32.290  20.620   7.050
 8954POPC   C4A71538  32.236  20.574   7.350
 8954POPC   C1B71539  32.264  20.344   6.450
 8954POPC   C2B71540  32.225  20.386   6.750
 8954POPC   C3B71541  32.240  20.365   7.050
 8954POPC   C4B71542  32.290  20.340   7.350
 8955POPC   NC371543   6.615  44.696   5.550
 8955POPC   PO471544   6.642  44.658   5.850
 8955POPC   GL171545   6.638  44.673   6.150
 8955POPC   GL271546   6.555  44.735   6.150
 8955POPC   C1A71547   6.597  44.616   6.450
 8955POPC   D2A71548   6.677  44.685   6.750
 8955POPC   C3A71549   6.604  44.630   7.050
 8955POPC   C4A71550   6.630  44.678   7.350
 8955POPC   C1B71551   6.440  44.796   6.450
 8955POPC   C2B71552   6.461  44.794   6.750
 8955POPC   C3B71553   6.421  44.810   7.050
 8955POPC   C4B71554   6.384  44.799   7.350
 8956POPC   NC371555   8.939  23.754   5.550
 8956POPC   PO471556   8.973  23.747   5.850
 8956POPC   GL171557   8.958  23.691   6.150
 8956POPC   GL271558   9.019  23.597   6.150
 8956POPC   C1A71559   9.008  23.755   6.450
 8956POPC   D2A71560   8.970  23.710   6.750
 8956POPC   C3A71561   9.005  23.751   7.050
 8956POPC   C4A71562   8.934  23.747   7.350
 8956POPC   C1B71563   9.063  23.446   6.450
 8956POPC   C2B71564   9.092  23.477   6.750
 8956POPC   C3B71565   9.029  23.457   7.050
 8956POPC   C4B71566   9.061  23.485   7.350
 8957POPC   NC371567  44.614  34.612   5.550
 8957POPC   PO471568  44.709  34.547   5.850
 8957POPC   GL171569  44.626  34.548   6.150
 8957POPC   GL271570  44.750  34.651   6.150
 8957POPC   C1A71571  44.617  34.567   6.450
 8957POPC   D2A71572  44.697  34.594   6.750
 8957POPC   C3A71573  44.678  34.533   7.050
 8957POPC   C4A71574  44.647  34.559   7.350
 8957POPC   C1B71575  44.819  34.743   6.450
 8957POPC   C2B71576  44.824  34.761   6.750
 8957POPC   C3B71577  44.878  34.706   7.050
 8957POPC   C4B71578  44.810  34.689   7.350
 8958POPC   NC371579  42.371  22.204   5.550
 8958POPC   PO471580  42.311  22.186   5.850
 8958POPC   GL171581  42.350  22.123   6.150
 8958POPC   GL271582  42.197  22.228   6.150
 8958POPC   C1A71583  42.362  22.177   6.450
 8958POPC   D2A71584  42.324  22.162   6.750
 8958POPC   C3A71585  42.336  22.123   7.050
 8958POPC   C4A71586  42.304  22.119   7.350
 8958POPC   C1B71587  42.078  22.311   6.450
 8958POPC   C2B71588  42.067  22.218   6.750
 8958POPC   C3B71589  42.097  22.230   7.050
 8958POPC   C4B71590  42.129  22.252   7.350
 8959POPC   NC371591  40.812  33.750   5.550
 8959POPC   PO471592  40.771  33.752   5.850
 8959POPC   GL171593  40.794  33.756   6.150
 8959POPC   GL271594  40.773  33.683   6.150
 8959POPC   C1A71595  40.829  33.839   6.450
 8959POPC   D2A71596  40.762  33.813   6.750
 8959POPC   C3A71597  40.768  33.803   7.050
 8959POPC   C4A71598  40.739  33.804   7.350
 8959POPC   C1B71599  40.808  33.521   6.450
 8959POPC   C2B71600  40.784  33.544   6.750
 8959POPC   C3B71601  40.795  33.582   7.050
 8959POPC   C4B71602  40.726  33.509   7.350
 8960POPC   NC371603  35.342  25.297   5.550
 8960POPC   PO471604  35.338  25.303   5.850
 8960POPC   GL171605  35.326  25.253   6.150
 8960POPC   GL271606  35.313  25.422   6.150
 8960POPC   C1A71607  35.374  25.300   6.450
 8960POPC   D2A71608  35.302  25.303   6.750
 8960POPC   C3A71609  35.361  25.219   7.050
 8960POPC   C4A71610  35.331  25.225   7.350
 8960POPC   C1B71611  35.294  25.467   6.450
 8960POPC   C2B71612  35.333  25.544   6.750
 8960POPC   C3B71613  35.341  25.550   7.050
 8960POPC   C4B71614  35.296  25.542   7.350
 8961POPC   NC371615  25.313   8.962   5.550
 8961POPC   PO471616  25.309   8.983   5.850
 8961POPC   GL171617  25.275   8.966   6.150
 8961POPC   GL271618  25.400   8.995   6.150
 8961POPC   C1A71619  25.300   8.981   6.450
 8961POPC   D2A71620  25.232   8.938   6.750
 8961POPC   C3A71621  25.274   8.990   7.050
 8961POPC   C4A71622  25.282   8.924   7.350
 8961POPC   C1B71623  25.446   9.077   6.450
 8961POPC   C2B71624  25.455   9.129   6.750
 8961POPC   C3B71625  25.466   9.060   7.050
 8961POPC   C4B71626  25.448   9.051   7.350
 8962POPC   NC371627  11.292  23.702   5.550
 8962POPC   PO471628  11.347  23.726   5.850
 8962POPC   GL171629  11.303  23.735   6.150
 8962POPC   GL271630  11.278  23.616   6.150
 8962POPC   C1A71631  11.253  23.702   6.450
 8962POPC   D2A71632  11.256  23.712   6.750
 8962POPC   C3A71633  11.284  23.737   7.050
 8962POPC   C4A71634  11.265  23.736   7.350
 8962POPC   C1B71635  11.272  23.505   6.450
 8962POPC   C2B71636  11.211  23.475   6.750
 8962POPC   C3B71637  11.212  23.486   7.050
 8962POPC   C4B71638  11.301  23.499   7.350
 8963POPC   NC371639  39.974   8.928   5.550
 8963POPC   PO471640  40.057   8.922   5.850
 8963POPC   GL171641  39.983   8.957   6.150
 8963POPC   GL271642  40.065   8.840   6.150
 8963POPC   C1A71643  40.032   8.945   6.450
 8963POPC   D2A71644  39.969   8.987   6.750
 8963POPC   C3A71645  40.029   8.958   7.050
 8963POPC   C4A71646  39.998   8.946   7.350
 8963POPC   C1B71647  40.155   8.722   6.450
 8963POPC   C2B71648  40.130   8.754   6.750
 8963POPC   C3B71649  40.116   8.782   7.050
 8963POPC   C4B71650  40.190   8.746   7.350
 8964POPC   NC371651  39.203   2.002   5.550
 8964POPC   PO471652  39.206   1.965   5.850
 8964POPC   GL171653  39.267   1.956   6.150
 8964POPC   GL271654  39.250   1.830   6.150
 8964POPC   C1A71655  39.208   2.022   6.450
 8964POPC   D2A71656  39.225   1.950   6.750
 8964POPC   C3A71657  39.222   1.978   7.050
 8964POPC   C4A71658  39.255   2.028   7.350
 8964POPC   C1B71659  39.220   1.716   6.450
 8964POPC   C2B71660  39.177   1.772   6.750
 8964POPC   C3B71661  39.133   1.700   7.050
 8964POPC   C4B71662  39.135   1.748   7.350
 8965POPC   NC371663  36.106  29.958   5.550
 8965POPC   PO471664  36.078  29.894   5.850
 8965POPC   GL171665  36.120  29.893   6.150
 8965POPC   GL271666  36.071  30.040   6.150
 8965POPC   C1A71667  36.092  29.898   6.450
 8965POPC   D2A71668  36.092  29.874   6.750
 8965POPC   C3A71669  36.106  29.939   7.050
 8965POPC   C4A71670  36.112  29.873   7.350
 8965POPC   C1B71671  36.058  30.199   6.450
 8965POPC   C2B71672  36.004  30.156   6.750
 8965POPC   C3B71673  36.047  30.155   7.050
 8965POPC   C4B71674  36.037  30.168   7.350
 8966POPC   NC371675   6.605  23.718   5.550
 8966POPC   PO471676   6.645  23.764   5.850
 8966POPC   GL171677   6.650  23.761   6.150
 8966POPC   GL271678   6.524  23.736   6.150
 8966POPC   C1A71679   6.695  23.719   6.450
 8966POPC   D2A71680   6.657  23.759   6.750
 8966POPC   C3A71681   6.641  23.672   7.050
 8966POPC   C4A71682   6.598  23.691   7.350
 8966POPC   C1B71683   6.386  23.787   6.450
 8966POPC   C2B71684   6.408  23.713   6.750
 8966POPC   C3B71685   6.390  23.790   7.050
 8966POPC   C4B71686   6.443  23.787   7.350
 8967POPC   NC371687  43.913   2.778   5.550
 8967POPC   PO471688  43.877   2.786   5.850
 8967POPC   GL171689  43.887   2.783   6.150
 8967POPC   GL271690  43.787   2.688   6.150
 8967POPC   C1A71691  43.892   2.786   6.450
 8967POPC   D2A71692  43.891   2.767   6.750
 8967POPC   C3A71693  43.901   2.798   7.050
 8967POPC   C4A71694  43.839   2.815   7.350
 8967POPC   C1B71695  43.653   2.573   6.450
 8967POPC   C2B71696  43.692   2.661   6.750
 8967POPC   C3B71697  43.637   2.591   7.050
 8967POPC   C4B71698  43.715   2.628   7.350
 8968POPC   NC371699   2.005   9.016   5.550
 8968POPC   PO471700   1.976   8.938   5.850
 8968POPC   GL171701   2.015   8.964   6.150
 8968POPC   GL271702   2.073   9.125   6.150
 8968POPC   C1A71703   2.029   9.019   6.450
 8968POPC   D2A71704   1.953   8.928   6.750
 8968POPC   C3A71705   1.970   8.955   7.050
 8968POPC   C4A71706   1.979   8.982   7.350
 8968POPC   C1B71707   2.146   9.202   6.450
 8968POPC   C2B71708   2.082   9.192   6.750
 8968POPC   C3B71709   2.106   9.236   7.050
 8968POPC   C4B71710   2.080   9.159   7.350
 8969POPC   NC371711  20.582  24.500   5.550
 8969POPC   PO471712  20.654  24.496   5.850
 8969POPC   GL171713  20.645  24.441   6.150
 8969POPC   GL271714  20.695  24.520   6.150
 8969POPC   C1A71715  20.568  24.467   6.450
 8969POPC   D2A71716  20.609  24.449   6.750
 8969POPC   C3A71717  20.603  24.469   7.050
 8969POPC   C4A71718  20.632  24.477   7.350
 8969POPC   C1B71719  20.873  24.463   6.450
 8969POPC   C2B71720  20.878  24.493   6.750
 8969POPC   C3B71721  20.858  24.464   7.050
 8969POPC   C4B71722  20.887  24.530   7.350
 8970POPC   NC371723  43.888  18.280   5.550
 8970POPC   PO471724  43.904  18.276   5.850
 8970POPC   GL171725  43.865  18.324   6.150
 8970POPC   GL271726  43.721  18.346   6.150
 8970POPC   C1A71727  43.917  18.296   6.450
 8970POPC   D2A71728  43.885  18.243   6.750
 8970POPC   C3A71729  43.843  18.248   7.050
 8970POPC   C4A71730  43.883  18.287   7.350
 8970POPC   C1B71731  43.633  18.356   6.450
 8970POPC   C2B71732  43.612  18.327   6.750
 8970POPC   C3B71733  43.632  18.362   7.050
 8970POPC   C4B71734  43.594  18.373   7.350
 8971POPC   NC371735  15.165   8.207   5.550
 8971POPC   PO471736  15.187   8.158   5.850
 8971POPC   GL171737  15.131   8.235   6.150
 8971POPC   GL271738  15.058   8.119   6.150
 8971POPC   C1A71739  15.167   8.231   6.450
 8971POPC   D2A71740  15.159   8.228   6.750
 8971POPC   C3A71741  15.169   8.160   7.050
 8971POPC   C4A71742  15.180   8.158   7.350
 8971POPC   C1B71743  14.996   7.992   6.450
 8971POPC   C2B71744  14.978   7.998   6.750
 8971POPC   C3B71745  15.030   8.023   7.050
 8971POPC   C4B71746  14.967   8.000   7.350
 8972POPC   NC371747  36.090  43.093   5.550
 8972POPC   PO471748  36.110  43.116   5.850
 8972POPC   GL171749  36.127  43.121   6.150
 8972POPC   GL271750  36.144  42.940   6.150
 8972POPC   C1A71751  36.170  43.152   6.450
 8972POPC   D2A71752  36.117  43.149   6.750
 8972POPC   C3A71753  36.127  43.122   7.050
 8972POPC   C4A71754  36.079  43.070   7.350
 8972POPC   C1B71755  36.169  42.830   6.450
 8972POPC   C2B71756  36.158  42.881   6.750
 8972POPC   C3B71757  36.162  42.816   7.050
 8972POPC   C4B71758  36.113  42.815   7.350
 8973POPC   NC371759  21.359  12.088   5.550
 8973POPC   PO471760  21.390  12.090   5.850
 8973POPC   GL171761  21.426  12.054   6.150
 8973POPC   GL271762  21.418  11.984   6.150
 8973POPC   C1A71763  21.408  12.051   6.450
 8973POPC   D2A71764  21.359  12.027   6.750
 8973POPC   C3A71765  21.362  12.029   7.050
 8973POPC   C4A71766  21.367  12.105   7.350
 8973POPC   C1B71767  21.447  11.847   6.450
 8973POPC   C2B71768  21.510  11.852   6.750
 8973POPC   C3B71769  21.535  11.802   7.050
 8973POPC   C4B71770  21.467  11.877   7.350
 8974POPC   NC371771  44.674  15.184   5.550
 8974POPC   PO471772  44.627  15.163   5.850
 8974POPC   GL171773  44.655  15.205   6.150
 8974POPC   GL271774  44.772  15.128   6.150
 8974POPC   C1A71775  44.651  15.134   6.450
 8974POPC   D2A71776  44.655  15.142   6.750
 8974POPC   C3A71777  44.615  15.194   7.050
 8974POPC   C4A71778  44.620  15.165   7.350
 8974POPC   C1B71779  44.943  15.174   6.450
 8974POPC   C2B71780  44.943  15.163   6.750
 8974POPC   C3B71781  44.929  15.162   7.050
 8974POPC   C4B71782  44.883  15.174   7.350
 8975POPC   NC371783  34.588   5.117   5.550
 8975POPC   PO471784  34.603   5.088   5.850
 8975POPC   GL171785  34.623   5.119   6.150
 8975POPC   GL271786  34.516   5.051   6.150
 8975POPC   C1A71787  34.528   5.052   6.450
 8975POPC   D2A71788  34.576   5.102   6.750
 8975POPC   C3A71789  34.595   5.080   7.050
 8975POPC   C4A71790  34.610   5.125   7.350
 8975POPC   C1B71791  34.405   4.943   6.450
 8975POPC   C2B71792  34.361   4.919   6.750
 8975POPC   C3B71793  34.369   4.949   7.050
 8975POPC   C4B71794  34.374   4.920   7.350
 8976POPC   NC371795  17.482  21.401   5.550
 8976POPC   PO471796  17.534  21.349   5.850
 8976POPC   GL171797  17.503  21.391   6.150
 8976POPC   GL271798  17.521  21.277   6.150
 8976POPC   C1A71799  17.479  21.398   6.450
 8976POPC   D2A71800  17.486  21.380   6.750
 8976POPC   C3A71801  17.533  21.349   7.050
 8976POPC   C4A71802  17.475  21.360   7.350
 8976POPC   C1B71803  17.473  21.103   6.450
 8976POPC   C2B71804  17.470  21.129   6.750
 8976POPC   C3B71805  17.403  21.106   7.050
 8976POPC   C4B71806  17.400  21.116   7.350
 8977POPC   NC371807  39.995   5.899   5.550
 8977POPC   PO471808  40.052   5.876   5.850
 8977POPC   GL171809  39.997   5.853   6.150
 8977POPC   GL271810  39.991   5.741   6.150
 8977POPC   C1A71811  39.964   5.912   6.450
 8977POPC   D2A71812  40.045   5.869   6.750
 8977POPC   C3A71813  39.960   5.838   7.050
 8977POPC   C4A71814  40.023   5.882   7.350
 8977POPC   C1B71815  40.055   5.655   6.450
 8977POPC   C2B71816  40.061   5.601   6.750
 8977POPC   C3B71817  40.082   5.598   7.050
 8977POPC   C4B71818  40.074   5.582   7.350
 8978POPC   NC371819  36.120  15.909   5.550
 8978POPC   PO471820  36.105  15.929   5.850
 8978POPC   GL171821  36.131  15.909   6.150
 8978POPC   GL271822  36.018  15.938   6.150
 8978POPC   C1A71823  36.163  15.940   6.450
 8978POPC   D2A71824  36.133  15.963   6.750
 8978POPC   C3A71825  36.150  15.922   7.050
 8978POPC   C4A71826  36.124  15.930   7.350
 8978POPC   C1B71827  35.849  15.942   6.450
 8978POPC   C2B71828  35.890  15.985   6.750
 8978POPC   C3B71829  35.845  15.987   7.050
 8978POPC   C4B71830  35.864  15.997   7.350
 8979POPC   NC371831  26.856  10.547   5.550
 8979POPC   PO471832  26.800  10.545   5.850
 8979POPC   GL171833  26.829  10.496   6.150
 8979POPC   GL271834  26.820  10.418   6.150
 8979POPC   C1A71835  26.790  10.513   6.450
 8979POPC   D2A71836  26.843  10.479   6.750
 8979POPC   C3A71837  26.859  10.522   7.050
 8979POPC   C4A71838  26.797  10.563   7.350
 8979POPC   C1B71839  26.751  10.239   6.450
 8979POPC   C2B71840  26.763  10.275   6.750
 8979POPC   C3B71841  26.720  10.327   7.050
 8979POPC   C4B71842  26.774  10.306   7.350
 8980POPC   NC371843  39.257  33.792   5.550
 8980POPC   PO471844  39.235  33.776   5.850
 8980POPC   GL171845  39.233  33.762   6.150
 8980POPC   GL271846  39.177  33.944   6.150
 8980POPC   C1A71847  39.213  33.809   6.450
 8980POPC   D2A71848  39.210  33.841   6.750
 8980POPC   C3A71849  39.185  33.823   7.050
 8980POPC   C4A71850  39.209  33.840   7.350
 8980POPC   C1B71851  39.165  33.985   6.450
 8980POPC   C2B71852  39.139  34.006   6.750
 8980POPC   C3B71853  39.175  34.038   7.050
 8980POPC   C4B71854  39.096  34.012   7.350
 8981POPC   NC371855  10.490  10.529   5.550
 8981POPC   PO471856  10.556  10.514   5.850
 8981POPC   GL171857  10.502  10.499   6.150
 8981POPC   GL271858  10.366  10.517   6.150
 8981POPC   C1A71859  10.533  10.479   6.450
 8981POPC   D2A71860  10.509  10.515   6.750
 8981POPC   C3A71861  10.492  10.493   7.050
 8981POPC   C4A71862  10.496  10.540   7.350
 8981POPC   C1B71863  10.300  10.472   6.450
 8981POPC   C2B71864  10.299  10.527   6.750
 8981POPC   C3B71865  10.266  10.519   7.050
 8981POPC   C4B71866  10.269  10.461   7.350
 8982POPC   NC371867  41.572  22.895   5.550
 8982POPC   PO471868  41.585  22.958   5.850
 8982POPC   GL171869  41.558  22.952   6.150
 8982POPC   GL271870  41.620  22.824   6.150
 8982POPC   C1A71871  41.587  22.953   6.450
 8982POPC   D2A71872  41.526  22.931   6.750
 8982POPC   C3A71873  41.562  22.979   7.050
 8982POPC   C4A71874  41.527  22.960   7.350
 8982POPC   C1B71875  41.751  22.776   6.450
 8982POPC   C2B71876  41.801  22.803   6.750
 8982POPC   C3B71877  41.738  22.804   7.050
 8982POPC   C4B71878  41.777  22.761   7.350
 8983POPC   NC371879  29.900  36.941   5.550
 8983POPC   PO471880  29.950  36.881   5.850
 8983POPC   GL171881  29.945  36.936   6.150
 8983POPC   GL271882  29.872  36.832   6.150
 8983POPC   C1A71883  29.924  36.874   6.450
 8983POPC   D2A71884  29.957  36.860   6.750
 8983POPC   C3A71885  29.883  36.897   7.050
 8983POPC   C4A71886  29.929  36.863   7.350
 8983POPC   C1B71887  29.838  36.712   6.450
 8983POPC   C2B71888  29.832  36.665   6.750
 8983POPC   C3B71889  29.772  36.658   7.050
 8983POPC   C4B71890  29.795  36.646   7.350
 8984POPC   NC371891  18.282  15.908   5.550
 8984POPC   PO471892  18.273  15.913   5.850
 8984POPC   GL171893  18.255  15.989   6.150
 8984POPC   GL271894  18.162  15.936   6.150
 8984POPC   C1A71895  18.315  15.940   6.450
 8984POPC   D2A71896  18.287  15.917   6.750
 8984POPC   C3A71897  18.289  15.979   7.050
 8984POPC   C4A71898  18.302  15.973   7.350
 8984POPC   C1B71899  18.080  16.034   6.450
 8984POPC   C2B71900  18.039  16.028   6.750
 8984POPC   C3B71901  17.998  16.064   7.050
 8984POPC   C4B71902  18.079  16.050   7.350
 8985POPC   NC371903  10.518  27.581   5.550
 8985POPC   PO471904  10.518  27.597   5.850
 8985POPC   GL171905  10.505  27.600   6.150
 8985POPC   GL271906  10.571  27.457   6.150
 8985POPC   C1A71907  10.521  27.548   6.450
 8985POPC   D2A71908  10.477  27.585   6.750
 8985POPC   C3A71909  10.530  27.577   7.050
 8985POPC   C4A71910  10.508  27.604   7.350
 8985POPC   C1B71911  10.572  27.313   6.450
 8985POPC   C2B71912  10.526  27.322   6.750
 8985POPC   C3B71913  10.520  27.319   7.050
 8985POPC   C4B71914  10.597  27.353   7.350
 8986POPC   NC371915  12.846  10.511   5.550
 8986POPC   PO471916  12.845  10.563   5.850
 8986POPC   GL171917  12.856  10.487   6.150
 8986POPC   GL271918  12.759  10.432   6.150
 8986POPC   C1A71919  12.805  10.573   6.450
 8986POPC   D2A71920  12.803  10.509   6.750
 8986POPC   C3A71921  12.875  10.529   7.050
 8986POPC   C4A71922  12.832  10.489   7.350
 8986POPC   C1B71923  12.728  10.292   6.450
 8986POPC   C2B71924  12.807  10.246   6.750
 8986POPC   C3B71925  12.724  10.290   7.050
 8986POPC   C4B71926  12.736  10.265   7.350
 8987POPC   NC371927  15.228  35.393   5.550
 8987POPC   PO471928  15.193  35.393   5.850
 8987POPC   GL171929  15.183  35.373   6.150
 8987POPC   GL271930  15.110  35.196   6.150
 8987POPC   C1A71931  15.141  35.398   6.450
 8987POPC   D2A71932  15.137  35.350   6.750
 8987POPC   C3A71933  15.130  35.323   7.050
 8987POPC   C4A71934  15.155  35.323   7.350
 8987POPC   C1B71935  15.053  35.184   6.450
 8987POPC   C2B71936  15.028  35.156   6.750
 8987POPC   C3B71937  15.004  35.143   7.050
 8987POPC   C4B71938  15.070  35.166   7.350
 8988POPC   NC371939  39.255   8.241   5.550
 8988POPC   PO471940  39.245   8.225   5.850
 8988POPC   GL171941  39.216   8.237   6.150
 8988POPC   GL271942  39.143   8.123   6.150
 8988POPC   C1A71943  39.256   8.192   6.450
 8988POPC   D2A71944  39.281   8.221   6.750
 8988POPC   C3A71945  39.269   8.183   7.050
 8988POPC   C4A71946  39.225   8.226   7.350
 8988POPC   C1B71947  38.988   8.125   6.450
 8988POPC   C2B71948  39.035   8.136   6.750
 8988POPC   C3B71949  39.011   8.176   7.050
 8988POPC   C4B71950  38.978   8.089   7.350
 8989POPC   NC371951  34.526  36.152   5.550
 8989POPC   PO471952  34.601  36.088   5.850
 8989POPC   GL171953  34.597  36.174   6.150
 8989POPC   GL271954  34.714  36.248   6.150
 8989POPC   C1A71955  34.534  36.148   6.450
 8989POPC   D2A71956  34.620  36.098   6.750
 8989POPC   C3A71957  34.529  36.172   7.050
 8989POPC   C4A71958  34.596  36.095   7.350
 8989POPC   C1B71959  34.808  36.279   6.450
 8989POPC   C2B71960  34.730  36.258   6.750
 8989POPC   C3B71961  34.724  36.284   7.050
 8989POPC   C4B71962  34.731  36.292   7.350
 8990POPC   NC371963  14.372  27.580   5.550
 8990POPC   PO471964  14.448  27.635   5.850
 8990POPC   GL171965  14.358  27.618   6.150
 8990POPC   GL271966  14.485  27.520   6.150
 8990POPC   C1A71967  14.386  27.609   6.450
 8990POPC   D2A71968  14.382  27.548   6.750
 8990POPC   C3A71969  14.436  27.580   7.050
 8990POPC   C4A71970  14.399  27.581   7.350
 8990POPC   C1B71971  14.659  27.557   6.450
 8990POPC   C2B71972  14.628  27.567   6.750
 8990POPC   C3B71973  14.694  27.483   7.050
 8990POPC   C4B71974  14.627  27.535   7.350
 8991POPC   NC371975  39.184  40.823   5.550
 8991POPC   PO471976  39.219  40.816   5.850
 8991POPC   GL171977  39.198  40.771   6.150
 8991POPC   GL271978  39.362  40.722   6.150
 8991POPC   C1A71979  39.224  40.759   6.450
 8991POPC   D2A71980  39.281  40.772   6.750
 8991POPC   C3A71981  39.268  40.831   7.050
 8991POPC   C4A71982  39.230  40.743   7.350
 8991POPC   C1B71983  39.427  40.705   6.450
 8991POPC   C2B71984  39.463  40.687   6.750
 8991POPC   C3B71985  39.439  40.683   7.050
 8991POPC   C4B71986  39.492  40.722   7.350
 8992POPC   NC371987   5.085  28.354   5.550
 8992POPC   PO471988   5.111  28.409   5.850
 8992POPC   GL171989   5.056  28.412   6.150
 8992POPC   GL271990   5.237  28.433   6.150
 8992POPC   C1A71991   5.095  28.341   6.450
 8992POPC   D2A71992   5.046  28.345   6.750
 8992POPC   C3A71993   5.107  28.391   7.050
 8992POPC   C4A71994   5.078  28.371   7.350
 8992POPC   C1B71995   5.298  28.460   6.450
 8992POPC   C2B71996   5.366  28.429   6.750
 8992POPC   C3B71997   5.366  28.467   7.050
 8992POPC   C4B71998   5.356  28.497   7.350
 8993POPC   NC371999   5.907  21.362   5.550
 8993POPC   PO472000   5.882  21.359   5.850
 8993POPC   GL172001   5.874  21.386   6.150
 8993POPC   GL272002   5.742  21.506   6.150
 8993POPC   C1A72003   5.823  21.389   6.450
 8993POPC   D2A72004   5.854  21.356   6.750
 8993POPC   C3A72005   5.918  21.400   7.050
 8993POPC   C4A72006   5.861  21.384   7.350
 8993POPC   C1B72007   5.731  21.522   6.450
 8993POPC   C2B72008   5.673  21.542   6.750
 8993POPC   C3B72009   5.659  21.597   7.050
 8993POPC   C4B72010   5.690  21.597   7.350
 8994POPC   NC372011  17.540  19.068   5.550
 8994POPC   PO472012  17.514  19.103   5.850
 8994POPC   GL172013  17.550  19.066   6.150
 8994POPC   GL272014  17.606  19.041   6.150
 8994POPC   C1A72015  17.554  19.065   6.450
 8994POPC   D2A72016  17.537  19.013   6.750
 8994POPC   C3A72017  17.468  19.050   7.050
 8994POPC   C4A72018  17.509  19.062   7.350
 8994POPC   C1B72019  17.762  19.026   6.450
 8994POPC   C2B72020  17.718  19.065   6.750
 8994POPC   C3B72021  17.708  19.052   7.050
 8994POPC   C4B72022  17.785  19.033   7.350
 8995POPC   NC372023  32.213  31.513   5.550
 8995POPC   PO472024  32.225  31.445   5.850
 8995POPC   GL172025  32.215  31.464   6.150
 8995POPC   GL272026  32.240  31.611   6.150
 8995POPC   C1A72027  32.284  31.499   6.450
 8995POPC   D2A72028  32.234  31.517   6.750
 8995POPC   C3A72029  32.242  31.458   7.050
 8995POPC   C4A72030  32.252  31.520   7.350
 8995POPC   C1B72031  32.232  31.719   6.450
 8995POPC   C2B72032  32.257  31.688   6.750
 8995POPC   C3B72033  32.232  31.750   7.050
 8995POPC   C4B72034  32.269  31.697   7.350
 8996POPC   NC372035  21.361  10.500   5.550
 8996POPC   PO472036  21.422  10.503   5.850
 8996POPC   GL172037  21.413  10.554   6.150
 8996POPC   GL272038  21.322  10.436   6.150
 8996POPC   C1A72039  21.417  10.524   6.450
 8996POPC   D2A72040  21.356  10.519   6.750
 8996POPC   C3A72041  21.407  10.513   7.050
 8996POPC   C4A72042  21.423  10.530   7.350
 8996POPC   C1B72043  21.263  10.300   6.450
 8996POPC   C2B72044  21.260  10.365   6.750
 8996POPC   C3B72045  21.227  10.302   7.050
 8996POPC   C4B72046  21.266  10.319   7.350
 8997POPC   NC372047  15.952  26.010   5.550
 8997POPC   PO472048  15.990  26.003   5.850
 8997POPC   GL172049  15.955  26.080   6.150
 8997POPC   GL272050  15.902  25.978   6.150
 8997POPC   C1A72051  15.930  26.033   6.450
 8997POPC   D2A72052  15.946  26.052   6.750
 8997POPC   C3A72053  15.940  26.073   7.050
 8997POPC   C4A72054  15.948  26.034   7.350
 8997POPC   C1B72055  15.837  25.870   6.450
 8997POPC   C2B72056  15.746  25.866   6.750
 8997POPC   C3B72057  15.811  25.848   7.050
 8997POPC   C4B72058  15.822  25.813   7.350
 8998POPC   NC372059  22.154   2.033   5.550
 8998POPC   PO472060  22.122   1.976   5.850
 8998POPC   GL172061  22.205   1.974   6.150
 8998POPC   GL272062  22.209   2.101   6.150
 8998POPC   C1A72063  22.189   1.980   6.450
 8998POPC   D2A72064  22.145   1.984   6.750
 8998POPC   C3A72065  22.151   1.976   7.050
 8998POPC   C4A72066  22.188   2.023   7.350
 8998POPC   C1B72067  22.298   2.189   6.450
 8998POPC   C2B72068  22.345   2.114   6.750
 8998POPC   C3B72069  22.301   2.133   7.050
 8998POPC   C4B72070  22.384   2.114   7.350
 8999POPC   NC372071  25.228  43.152   5.550
 8999POPC   PO472072  25.305  43.156   5.850
 8999POPC   GL172073  25.264  43.087   6.150
 8999POPC   GL272074  25.277  43.220   6.150
 8999POPC   C1A72075  25.284  43.120   6.450
 8999POPC   D2A72076  25.304  43.081   6.750
 8999POPC   C3A72077  25.283  43.134   7.050
 8999POPC   C4A72078  25.276  43.113   7.350
 8999POPC   C1B72079  25.353  43.364   6.450
 8999POPC   C2B72080  25.411  43.312   6.750
 8999POPC   C3B72081  25.352  43.286   7.050
 8999POPC   C4B72082  25.361  43.378   7.350
 9000POPC   NC372083   9.795  36.940   5.550
 9000POPC   PO472084   9.738  36.948   5.850
 9000POPC   GL172085   9.706  36.889   6.150
 9000POPC   GL272086   9.875  36.987   6.150
 9000POPC   C1A72087   9.711  36.890   6.450
 9000POPC   D2A72088   9.724  36.921   6.750
 9000POPC   C3A72089   9.701  36.946   7.050
 9000POPC   C4A72090   9.758  36.894   7.350
 9000POPC   C1B72091  10.003  36.966   6.450
 9000POPC   C2B72092   9.967  36.991   6.750
 9000POPC   C3B72093   9.992  37.032   7.050
 9000POPC   C4B72094   9.928  37.003   7.350
 9001POPC   NC372095   5.822  22.941   5.550
 9001POPC   PO472096   5.901  22.984   5.850
 9001POPC   GL172097   5.878  22.949   6.150
 9001POPC   GL272098   5.767  23.037   6.150
 9001POPC   C1A72099   5.869  22.890   6.450
 9001POPC   D2A72100   5.906  22.938   6.750
 9001POPC   C3A72101   5.916  22.909   7.050
 9001POPC   C4A72102   5.853  22.987   7.350
 9001POPC   C1B72103   5.649  23.073   6.450
 9001POPC   C2B72104   5.665  23.071   6.750
 9001POPC   C3B72105   5.632  23.092   7.050
 9001POPC   C4B72106   5.680  22.999   7.350
 9002POPC   NC372107  35.311  27.593   5.550
 9002POPC   PO472108  35.367  27.592   5.850
 9002POPC   GL172109  35.326  27.638   6.150
 9002POPC   GL272110  35.266  27.520   6.150
 9002POPC   C1A72111  35.401  27.627   6.450
 9002POPC   D2A72112  35.363  27.631   6.750
 9002POPC   C3A72113  35.329  27.618   7.050
 9002POPC   C4A72114  35.378  27.593   7.350
 9002POPC   C1B72115  35.227  27.402   6.450
 9002POPC   C2B72116  35.218  27.428   6.750
 9002POPC   C3B72117  35.130  27.377   7.050
 9002POPC   C4B72118  35.174  27.407   7.350
 9003POPC   NC372119   7.416  28.369   5.550
 9003POPC   PO472120   7.405  28.372   5.850
 9003POPC   GL172121   7.431  28.353   6.150
 9003POPC   GL272122   7.413  28.468   6.150
 9003POPC   C1A72123   7.455  28.372   6.450
 9003POPC   D2A72124   7.448  28.388   6.750
 9003POPC   C3A72125   7.454  28.346   7.050
 9003POPC   C4A72126   7.419  28.370   7.350
 9003POPC   C1B72127   7.476  28.663   6.450
 9003POPC   C2B72128   7.431  28.642   6.750
 9003POPC   C3B72129   7.437  28.597   7.050
 9003POPC   C4B72130   7.488  28.640   7.350
 9004POPC   NC372131   7.440  22.909   5.550
 9004POPC   PO472132   7.414  22.988   5.850
 9004POPC   GL172133   7.413  22.936   6.150
 9004POPC   GL272134   7.553  22.858   6.150
 9004POPC   C1A72135   7.431  22.926   6.450
 9004POPC   D2A72136   7.387  22.987   6.750
 9004POPC   C3A72137   7.444  22.975   7.050
 9004POPC   C4A72138   7.385  22.962   7.350
 9004POPC   C1B72139   7.641  22.835   6.450
 9004POPC   C2B72140   7.686  22.854   6.750
 9004POPC   C3B72141   7.676  22.807   7.050
 9004POPC   C4B72142   7.660  22.862   7.350
 9005POPC   NC372143  33.002   4.327   5.550
 9005POPC   PO472144  32.989   4.333   5.850
 9005POPC   GL172145  32.976   4.304   6.150
 9005POPC   GL272146  32.984   4.225   6.150
 9005POPC   C1A72147  32.990   4.352   6.450
 9005POPC   D2A72148  33.021   4.367   6.750
 9005POPC   C3A72149  33.041   4.272   7.050
 9005POPC   C4A72150  33.073   4.312   7.350
 9005POPC   C1B72151  32.962   4.031   6.450
 9005POPC   C2B72152  33.021   4.041   6.750
 9005POPC   C3B72153  33.028   4.111   7.050
 9005POPC   C4B72154  32.950   4.114   7.350
 9006POPC   NC372155  20.635   5.842   5.550
 9006POPC   PO472156  20.597   5.918   5.850
 9006POPC   GL172157  20.598   5.915   6.150
 9006POPC   GL272158  20.556   5.718   6.150
 9006POPC   C1A72159  20.594   5.883   6.450
 9006POPC   D2A72160  20.594   5.886   6.750
 9006POPC   C3A72161  20.659   5.889   7.050
 9006POPC   C4A72162  20.566   5.873   7.350
 9006POPC   C1B72163  20.519   5.605   6.450
 9006POPC   C2B72164  20.514   5.593   6.750
 9006POPC   C3B72165  20.462   5.641   7.050
 9006POPC   C4B72166  20.515   5.626   7.350
 9007POPC   NC372167  41.533  20.640   5.550
 9007POPC   PO472168  41.599  20.615   5.850
 9007POPC   GL172169  41.553  20.622   6.150
 9007POPC   GL272170  41.569  20.461   6.150
 9007POPC   C1A72171  41.602  20.648   6.450
 9007POPC   D2A72172  41.605  20.615   6.750
 9007POPC   C3A72173  41.602  20.608   7.050
 9007POPC   C4A72174  41.531  20.599   7.350
 9007POPC   C1B72175  41.619  20.361   6.450
 9007POPC   C2B72176  41.673  20.381   6.750
 9007POPC   C3B72177  41.629  20.344   7.050
 9007POPC   C4B72178  41.578  20.344   7.350
 9008POPC   NC372179  29.189  43.920   5.550
 9008POPC   PO472180  29.103  43.852   5.850
 9008POPC   GL172181  29.138  43.896   6.150
 9008POPC   GL272182  29.007  43.850   6.150
 9008POPC   C1A72183  29.161  43.863   6.450
 9008POPC   D2A72184  29.105  43.904   6.750
 9008POPC   C3A72185  29.185  43.856   7.050
 9008POPC   C4A72186  29.155  43.930   7.350
 9008POPC   C1B72187  28.852  43.790   6.450
 9008POPC   C2B72188  28.933  43.859   6.750
 9008POPC   C3B72189  28.852  43.797   7.050
 9008POPC   C4B72190  28.899  43.817   7.350
 9009POPC   NC372191   5.889  44.698   5.550
 9009POPC   PO472192   5.860  44.645   5.850
 9009POPC   GL172193   5.884  44.707   6.150
 9009POPC   GL272194   5.869  44.530   6.150
 9009POPC   C1A72195   5.913  44.633   6.450
 9009POPC   D2A72196   5.896  44.696   6.750
 9009POPC   C3A72197   5.882  44.681   7.050
 9009POPC   C4A72198   5.829  44.612   7.350
 9009POPC   C1B72199   5.825  44.441   6.450
 9009POPC   C2B72200   5.793  44.388   6.750
 9009POPC   C3B72201   5.758  44.391   7.050
 9009POPC   C4B72202   5.796  44.419   7.350
 9010POPC   NC372203  22.939  43.105   5.550
 9010POPC   PO472204  22.972  43.071   5.850
 9010POPC   GL172205  22.974  43.129   6.150
 9010POPC   GL272206  23.011  42.954   6.150
 9010POPC   C1A72207  22.896  43.078   6.450
 9010POPC   D2A72208  22.987  43.079   6.750
 9010POPC   C3A72209  22.931  43.145   7.050
 9010POPC   C4A72210  22.911  43.124   7.350
 9010POPC   C1B72211  23.072  42.879   6.450
 9010POPC   C2B72212  23.085  42.851   6.750
 9010POPC   C3B72213  23.023  42.874   7.050
 9010POPC   C4B72214  23.072  42.930   7.350
 9011POPC   NC372215  33.781  22.124   5.550
 9011POPC   PO472216  33.774  22.186   5.850
 9011POPC   GL172217  33.785  22.204   6.150
 9011POPC   GL272218  33.912  22.170   6.150
 9011POPC   C1A72219  33.846  22.158   6.450
 9011POPC   D2A72220  33.825  22.153   6.750
 9011POPC   C3A72221  33.815  22.126   7.050
 9011POPC   C4A72222  33.780  22.185   7.350
 9011POPC   C1B72223  34.059  22.185   6.450
 9011POPC   C2B72224  34.057  22.153   6.750
 9011POPC   C3B72225  34.024  22.199   7.050
 9011POPC   C4B72226  34.021  22.131   7.350
 9012POPC   NC372227   1.245  30.699   5.550
 9012POPC   PO472228   1.209  30.740   5.850
 9012POPC   GL172229   1.223  30.685   6.150
 9012POPC   GL272230   1.325  30.731   6.150
 9012POPC   C1A72231   1.216  30.680   6.450
 9012POPC   D2A72232   1.215  30.713   6.750
 9012POPC   C3A72233   1.236  30.740   7.050
 9012POPC   C4A72234   1.235  30.699   7.350
 9012POPC   C1B72235   1.457  30.831   6.450
 9012POPC   C2B72236   1.397  30.774   6.750
 9012POPC   C3B72237   1.399  30.833   7.050
 9012POPC   C4B72238   1.395  30.849   7.350
 9013POPC   NC372239  16.729  26.066   5.550
 9013POPC   PO472240  16.758  26.041   5.850
 9013POPC   GL172241  16.710  26.049   6.150
 9013POPC   GL272242  16.592  26.142   6.150
 9013POPC   C1A72243  16.740  26.035   6.450
 9013POPC   D2A72244  16.721  26.082   6.750
 9013POPC   C3A72245  16.716  26.073   7.050
 9013POPC   C4A72246  16.745  25.995   7.350
 9013POPC   C1B72247  16.496  26.140   6.450
 9013POPC   C2B72248  16.478  26.147   6.750
 9013POPC   C3B72249  16.528  26.227   7.050
 9013POPC   C4B72250  16.526  26.150   7.350
 9014POPC   NC372251  22.905  11.338   5.550
 9014POPC   PO472252  22.981  11.287   5.850
 9014POPC   GL172253  22.936  11.334   6.150
 9014POPC   GL272254  22.979  11.254   6.150
 9014POPC   C1A72255  22.915  11.286   6.450
 9014POPC   D2A72256  22.986  11.338   6.750
 9014POPC   C3A72257  22.951  11.256   7.050
 9014POPC   C4A72258  22.918  11.272   7.350
 9014POPC   C1B72259  23.126  11.166   6.450
 9014POPC   C2B72260  23.069  11.120   6.750
 9014POPC   C3B72261  23.080  11.110   7.050
 9014POPC   C4B72262  23.114  11.084   7.350
 9015POPC   NC372263  18.289  18.261   5.550
 9015POPC   PO472264  18.298  18.269   5.850
 9015POPC   GL172265  18.250  18.299   6.150
 9015POPC   GL272266  18.191  18.288   6.150
 9015POPC   C1A72267  18.293  18.274   6.450
 9015POPC   D2A72268  18.288  18.259   6.750
 9015POPC   C3A72269  18.262  18.308   7.050
 9015POPC   C4A72270  18.298  18.325   7.350
 9015POPC   C1B72271  18.008  18.342   6.450
 9015POPC   C2B72272  18.025  18.300   6.750
 9015POPC   C3B72273  18.049  18.288   7.050
 9015POPC   C4B72274  18.065  18.344   7.350
 9016POPC   NC372275  43.915   7.453   5.550
 9016POPC   PO472276  43.842   7.413   5.850
 9016POPC   GL172277  43.857   7.442   6.150
 9016POPC   GL272278  44.013   7.484   6.150
 9016POPC   C1A72279  43.852   7.443   6.450
 9016POPC   D2A72280  43.894   7.372   6.750
 9016POPC   C3A72281  43.863   7.445   7.050
 9016POPC   C4A72282  43.917   7.455   7.350
 9016POPC   C1B72283  44.075   7.589   6.450
 9016POPC   C2B72284  44.086   7.591   6.750
 9016POPC   C3B72285  44.112   7.559   7.050
 9016POPC   C4B72286  44.030   7.579   7.350
 9017POPC   NC372287  15.944   9.770   5.550
 9017POPC   PO472288  15.975   9.720   5.850
 9017POPC   GL172289  15.911   9.727   6.150
 9017POPC   GL272290  15.894   9.671   6.150
 9017POPC   C1A72291  15.917   9.701   6.450
 9017POPC   D2A72292  15.954   9.712   6.750
 9017POPC   C3A72293  16.001   9.777   7.050
 9017POPC   C4A72294  15.994   9.702   7.350
 9017POPC   C1B72295  15.823   9.515   6.450
 9017POPC   C2B72296  15.824   9.542   6.750
 9017POPC   C3B72297  15.822   9.565   7.050
 9017POPC   C4B72298  15.773   9.602   7.350
 9018POPC   NC372299  41.541  10.498   5.550
 9018POPC   PO472300  41.577  10.534   5.850
 9018POPC   GL172301  41.549  10.545   6.150
 9018POPC   GL272302  41.487  10.511   6.150
 9018POPC   C1A72303  41.539  10.553   6.450
 9018POPC   D2A72304  41.536  10.569   6.750
 9018POPC   C3A72305  41.510  10.562   7.050
 9018POPC   C4A72306  41.593  10.537   7.350
 9018POPC   C1B72307  41.324  10.450   6.450
 9018POPC   C2B72308  41.311  10.488   6.750
 9018POPC   C3B72309  41.358  10.444   7.050
 9018POPC   C4B72310  41.338  10.427   7.350
 9019POPC   NC372311  33.821  33.816   5.550
 9019POPC   PO472312  33.753  33.773   5.850
 9019POPC   GL172313  33.774  33.772   6.150
 9019POPC   GL272314  33.883  33.881   6.150
 9019POPC   C1A72315  33.780  33.762   6.450
 9019POPC   D2A72316  33.838  33.847   6.750
 9019POPC   C3A72317  33.788  33.762   7.050
 9019POPC   C4A72318  33.849  33.777   7.350
 9019POPC   C1B72319  34.074  33.925   6.450
 9019POPC   C2B72320  33.984  33.883   6.750
 9019POPC   C3B72321  33.978  33.864   7.050
 9019POPC   C4B72322  33.986  33.891   7.350
 9020POPC   NC372323  22.920  33.758   5.550
 9020POPC   PO472324  22.963  33.811   5.850
 9020POPC   GL172325  22.955  33.760   6.150
 9020POPC   GL272326  22.946  33.880   6.150
 9020POPC   C1A72327  22.912  33.850   6.450
 9020POPC   D2A72328  22.962  33.799   6.750
 9020POPC   C3A72329  22.957  33.804   7.050
 9020POPC   C4A72330  22.965  33.835   7.350
 9020POPC   C1B72331  22.894  34.054   6.450
 9020POPC   C2B72332  22.924  34.077   6.750
 9020POPC   C3B72333  22.870  34.046   7.050
 9020POPC   C4B72334  22.918  34.038   7.350
 9021POPC   NC372335  41.528  19.817   5.550
 9021POPC   PO472336  41.518  19.881   5.850
 9021POPC   GL172337  41.563  19.802   6.150
 9021POPC   GL272338  41.524  19.913   6.150
 9021POPC   C1A72339  41.586  19.824   6.450
 9021POPC   D2A72340  41.571  19.873   6.750
 9021POPC   C3A72341  41.570  19.827   7.050
 9021POPC   C4A72342  41.605  19.856   7.350
 9021POPC   C1B72343  41.472  20.102   6.450
 9021POPC   C2B72344  41.404  20.096   6.750
 9021POPC   C3B72345  41.461  20.045   7.050
 9021POPC   C4B72346  41.417  20.032   7.350
 9022POPC   NC372347  29.938   4.276   5.550
 9022POPC   PO472348  29.945   4.367   5.850
 9022POPC   GL172349  29.891   4.337   6.150
 9022POPC   GL272350  30.062   4.211   6.150
 9022POPC   C1A72351  29.924   4.337   6.450
 9022POPC   D2A72352  29.879   4.268   6.750
 9022POPC   C3A72353  29.883   4.324   7.050
 9022POPC   C4A72354  29.960   4.346   7.350
 9022POPC   C1B72355  30.101   4.163   6.450
 9022POPC   C2B72356  30.083   4.187   6.750
 9022POPC   C3B72357  30.134   4.144   7.050
 9022POPC   C4B72358  30.149   4.147   7.350
 9023POPC   NC372359  34.577   2.027   5.550
 9023POPC   PO472360  34.555   1.945   5.850
 9023POPC   GL172361  34.595   1.942   6.150
 9023POPC   GL272362  34.692   1.970   6.150
 9023POPC   C1A72363  34.585   2.034   6.450
 9023POPC   D2A72364  34.612   1.986   6.750
 9023POPC   C3A72365  34.542   2.022   7.050
 9023POPC   C4A72366  34.604   1.969   7.350
 9023POPC   C1B72367  34.856   1.969   6.450
 9023POPC   C2B72368  34.859   2.027   6.750
 9023POPC   C3B72369  34.845   2.002   7.050
 9023POPC   C4B72370  34.792   2.041   7.350
 9024POPC   NC372371  42.380  33.784   5.550
 9024POPC   PO472372  42.361  33.834   5.850
 9024POPC   GL172373  42.316  33.785   6.150
 9024POPC   GL272374  42.409  33.697   6.150
 9024POPC   C1A72375  42.310  33.779   6.450
 9024POPC   D2A72376  42.319  33.800   6.750
 9024POPC   C3A72377  42.320  33.839   7.050
 9024POPC   C4A72378  42.291  33.770   7.350
 9024POPC   C1B72379  42.528  33.637   6.450
 9024POPC   C2B72380  42.505  33.713   6.750
 9024POPC   C3B72381  42.544  33.653   7.050
 9024POPC   C4B72382  42.565  33.708   7.350
 9025POPC   NC372383  19.075  11.334   5.550
 9025POPC   PO472384  19.011  11.339   5.850
 9025POPC   GL172385  19.013  11.310   6.150
 9025POPC   GL272386  19.061  11.224   6.150
 9025POPC   C1A72387  19.024  11.309   6.450
 9025POPC   D2A72388  19.039  11.306   6.750
 9025POPC   C3A72389  19.087  11.320   7.050
 9025POPC   C4A72390  19.025  11.317   7.350
 9025POPC   C1B72391  19.008  11.063   6.450
 9025POPC   C2B72392  19.034  11.030   6.750
 9025POPC   C3B72393  18.971  11.084   7.050
 9025POPC   C4B72394  19.017  11.102   7.350
 9026POPC   NC372395   6.643  25.241   5.550
 9026POPC   PO472396   6.634  25.314   5.850
 9026POPC   GL172397   6.684  25.270   6.150
 9026POPC   GL272398   6.552  25.198   6.150
 9026POPC   C1A72399   6.640  25.284   6.450
 9026POPC   D2A72400   6.652  25.243   6.750
 9026POPC   C3A72401   6.603  25.218   7.050
 9026POPC   C4A72402   6.692  25.264   7.350
 9026POPC   C1B72403   6.534  25.063   6.450
 9026POPC   C2B72404   6.493  25.019   6.750
 9026POPC   C3B72405   6.509  25.030   7.050
 9026POPC   C4B72406   6.544  25.066   7.350
 9027POPC   NC372407  23.724  10.542   5.550
 9027POPC   PO472408  23.743  10.528   5.850
 9027POPC   GL172409  23.671  10.492   6.150
 9027POPC   GL272410  23.600  10.485   6.150
 9027POPC   C1A72411  23.674  10.478   6.450
 9027POPC   D2A72412  23.722  10.533   6.750
 9027POPC   C3A72413  23.715  10.511   7.050
 9027POPC   C4A72414  23.734  10.491   7.350
 9027POPC   C1B72415  23.500  10.433   6.450
 9027POPC   C2B72416  23.454  10.402   6.750
 9027POPC   C3B72417  23.469  10.418   7.050
 9027POPC   C4B72418  23.448  10.428   7.350
 9028POPC   NC372419  40.809   5.828   5.550
 9028POPC   PO472420  40.817   5.844   5.850
 9028POPC   GL172421  40.788   5.848   6.150
 9028POPC   GL272422  40.766   5.780   6.150
 9028POPC   C1A72423  40.775   5.889   6.450
 9028POPC   D2A72424  40.770   5.844   6.750
 9028POPC   C3A72425  40.799   5.872   7.050
 9028POPC   C4A72426  40.794   5.884   7.350
 9028POPC   C1B72427  40.757   5.595   6.450
 9028POPC   C2B72428  40.772   5.613   6.750
 9028POPC   C3B72429  40.813   5.580   7.050
 9028POPC   C4B72430  40.797   5.655   7.350
 9029POPC   NC372431   9.707   5.067   5.550
 9029POPC   PO472432   9.779   5.100   5.850
 9029POPC   GL172433   9.752   5.143   6.150
 9029POPC   GL272434   9.700   5.163   6.150
 9029POPC   C1A72435   9.750   5.083   6.450
 9029POPC   D2A72436   9.747   5.099   6.750
 9029POPC   C3A72437   9.741   5.047   7.050
 9029POPC   C4A72438   9.732   5.138   7.350
 9029POPC   C1B72439   9.629   5.326   6.450
 9029POPC   C2B72440   9.564   5.338   6.750
 9029POPC   C3B72441   9.655   5.293   7.050
 9029POPC   C4B72442   9.617   5.286   7.350
 9030POPC   NC372443  13.669  24.480   5.550
 9030POPC   PO472444  13.625  24.441   5.850
 9030POPC   GL172445  13.665  24.511   6.150
 9030POPC   GL272446  13.725  24.619   6.150
 9030POPC   C1A72447  13.588  24.470   6.450
 9030POPC   D2A72448  13.653  24.533   6.750
 9030POPC   C3A72449  13.667  24.509   7.050
 9030POPC   C4A72450  13.670  24.508   7.350
 9030POPC   C1B72451  13.820  24.703   6.450
 9030POPC   C2B72452  13.731  24.696   6.750
 9030POPC   C3B72453  13.812  24.673   7.050
 9030POPC   C4B72454  13.741  24.743   7.350
 9031POPC   NC372455  26.076  26.062   5.550
 9031POPC   PO472456  26.056  26.014   5.850
 9031POPC   GL172457  26.066  26.000   6.150
 9031POPC   GL272458  26.188  26.105   6.150
 9031POPC   C1A72459  26.018  26.067   6.450
 9031POPC   D2A72460  26.073  26.091   6.750
 9031POPC   C3A72461  26.081  26.044   7.050
 9031POPC   C4A72462  26.017  26.062   7.350
 9031POPC   C1B72463  26.237  26.155   6.450
 9031POPC   C2B72464  26.288  26.198   6.750
 9031POPC   C3B72465  26.254  26.176   7.050
 9031POPC   C4B72466  26.229  26.169   7.350
 9032POPC   NC372467  16.758  38.430   5.550
 9032POPC   PO472468  16.780  38.493   5.850
 9032POPC   GL172469  16.712  38.501   6.150
 9032POPC   GL272470  16.872  38.498   6.150
 9032POPC   C1A72471  16.780  38.415   6.450
 9032POPC   D2A72472  16.771  38.410   6.750
 9032POPC   C3A72473  16.777  38.461   7.050
 9032POPC   C4A72474  16.706  38.438   7.350
 9032POPC   C1B72475  16.946  38.492   6.450
 9032POPC   C2B72476  16.955  38.521   6.750
 9032POPC   C3B72477  16.980  38.450   7.050
 9032POPC   C4B72478  16.959  38.529   7.350
 9033POPC   NC372479  12.845  39.253   5.550
 9033POPC   PO472480  12.900  39.226   5.850
 9033POPC   GL172481  12.837  39.278   6.150
 9033POPC   GL272482  12.736  39.156   6.150
 9033POPC   C1A72483  12.845  39.266   6.450
 9033POPC   D2A72484  12.864  39.232   6.750
 9033POPC   C3A72485  12.833  39.195   7.050
 9033POPC   C4A72486  12.814  39.274   7.350
 9033POPC   C1B72487  12.694  39.028   6.450
 9033POPC   C2B72488  12.730  38.999   6.750
 9033POPC   C3B72489  12.710  39.066   7.050
 9033POPC   C4B72490  12.711  39.038   7.350
 9034POPC   NC372491  42.376  15.187   5.550
 9034POPC   PO472492  42.368  15.144   5.850
 9034POPC   GL172493  42.306  15.228   6.150
 9034POPC   GL272494  42.197  15.208   6.150
 9034POPC   C1A72495  42.324  15.180   6.450
 9034POPC   D2A72496  42.316  15.210   6.750
 9034POPC   C3A72497  42.381  15.153   7.050
 9034POPC   C4A72498  42.326  15.181   7.350
 9034POPC   C1B72499  42.048  15.204   6.450
 9034POPC   C2B72500  42.129  15.203   6.750
 9034POPC   C3B72501  42.037  15.211   7.050
 9034POPC   C4B72502  42.066  15.223   7.350
 9035POPC   NC372503  33.801  14.368   5.550
 9035POPC   PO472504  33.770  14.415   5.850
 9035POPC   GL172505  33.751  14.419   6.150
 9035POPC   GL272506  33.808  14.237   6.150
 9035POPC   C1A72507  33.843  14.449   6.450
 9035POPC   D2A72508  33.807  14.379   6.750
 9035POPC   C3A72509  33.754  14.360   7.050
 9035POPC   C4A72510  33.803  14.361   7.350
 9035POPC   C1B72511  33.771  14.117   6.450
 9035POPC   C2B72512  33.758  14.180   6.750
 9035POPC   C3B72513  33.758  14.176   7.050
 9035POPC   C4B72514  33.728  14.111   7.350
 9036POPC   NC372515  26.025  33.783   5.550
 9036POPC   PO472516  26.090  33.829   5.850
 9036POPC   GL172517  26.073  33.810   6.150
 9036POPC   GL272518  25.957  33.941   6.150
 9036POPC   C1A72519  26.034  33.814   6.450
 9036POPC   D2A72520  26.076  33.841   6.750
 9036POPC   C3A72521  26.063  33.847   7.050
 9036POPC   C4A72522  26.001  33.750   7.350
 9036POPC   C1B72523  25.888  33.954   6.450
 9036POPC   C2B72524  25.911  33.970   6.750
 9036POPC   C3B72525  25.849  33.988   7.050
 9036POPC   C4B72526  25.892  33.991   7.350
 9037POPC   NC372527   1.970  42.375   5.550
 9037POPC   PO472528   2.013  42.310   5.850
 9037POPC   GL172529   2.016  42.347   6.150
 9037POPC   GL272530   2.075  42.373   6.150
 9037POPC   C1A72531   2.009  42.321   6.450
 9037POPC   D2A72532   2.037  42.342   6.750
 9037POPC   C3A72533   2.007  42.325   7.050
 9037POPC   C4A72534   1.984  42.359   7.350
 9037POPC   C1B72535   2.217  42.394   6.450
 9037POPC   C2B72536   2.221  42.395   6.750
 9037POPC   C3B72537   2.211  42.467   7.050
 9037POPC   C4B72538   2.185  42.452   7.350
 9038POPC   NC372539  15.996   0.436   5.550
 9038POPC   PO472540  15.967   0.457   5.850
 9038POPC   GL172541  16.004   0.433   6.150
 9038POPC   GL272542  16.012   0.346   6.150
 9038POPC   C1A72543  15.977   0.484   6.450
 9038POPC   D2A72544  15.959   0.438   6.750
 9038POPC   C3A72545  15.959   0.444   7.050
 9038POPC   C4A72546  15.940   0.402   7.350
 9038POPC   C1B72547  16.151   0.270   6.450
 9038POPC   C2B72548  16.107   0.308   6.750
 9038POPC   C3B72549  16.163   0.223   7.050
 9038POPC   C4B72550  16.136   0.288   7.350
 9039POPC   NC372551  35.328  44.625   5.550
 9039POPC   PO472552  35.394  44.617   5.850
 9039POPC   GL172553  35.393  44.690   6.150
 9039POPC   GL272554  35.222  44.651   6.150
 9039POPC   C1A72555  35.375  44.691   6.450
 9039POPC   D2A72556  35.365  44.618   6.750
 9039POPC   C3A72557  35.374  44.678   7.050
 9039POPC   C4A72558  35.336  44.679   7.350
 9039POPC   C1B72559  35.086  44.594   6.450
 9039POPC   C2B72560  35.079  44.594   6.750
 9039POPC   C3B72561  35.096  44.631   7.050
 9039POPC   C4B72562  35.074  44.615   7.350
 9040POPC   NC372563  23.702   9.722   5.550
 9040POPC   PO472564  23.697   9.729   5.850
 9040POPC   GL172565  23.760   9.777   6.150
 9040POPC   GL272566  23.571   9.793   6.150
 9040POPC   C1A72567  23.715   9.760   6.450
 9040POPC   D2A72568  23.762   9.777   6.750
 9040POPC   C3A72569  23.718   9.705   7.050
 9040POPC   C4A72570  23.701   9.715   7.350
 9040POPC   C1B72571  23.525   9.892   6.450
 9040POPC   C2B72572  23.449   9.862   6.750
 9040POPC   C3B72573  23.459   9.838   7.050
 9040POPC   C4B72574  23.479   9.838   7.350
 9041POPC   NC372575  10.480  24.525   5.550
 9041POPC   PO472576  10.568  24.475   5.850
 9041POPC   GL172577  10.532  24.510   6.150
 9041POPC   GL272578  10.456  24.356   6.150
 9041POPC   C1A72579  10.483  24.451   6.450
 9041POPC   D2A72580  10.522  24.459   6.750
 9041POPC   C3A72581  10.543  24.443   7.050
 9041POPC   C4A72582  10.520  24.538   7.350
 9041POPC   C1B72583  10.429  24.237   6.450
 9041POPC   C2B72584  10.406  24.215   6.750
 9041POPC   C3B72585  10.413  24.301   7.050
 9041POPC   C4B72586  10.433  24.225   7.350
 9042POPC   NC372587  12.829  14.432   5.550
 9042POPC   PO472588  12.854  14.388   5.850
 9042POPC   GL172589  12.847  14.431   6.150
 9042POPC   GL272590  12.733  14.287   6.150
 9042POPC   C1A72591  12.851  14.446   6.450
 9042POPC   D2A72592  12.893  14.366   6.750
 9042POPC   C3A72593  12.814  14.409   7.050
 9042POPC   C4A72594  12.892  14.437   7.350
 9042POPC   C1B72595  12.727  14.177   6.450
 9042POPC   C2B72596  12.672  14.208   6.750
 9042POPC   C3B72597  12.699  14.210   7.050
 9042POPC   C4B72598  12.699  14.164   7.350
 9043POPC   NC372599  21.365  25.270   5.550
 9043POPC   PO472600  21.386  25.281   5.850
 9043POPC   GL172601  21.354  25.299   6.150
 9043POPC   GL272602  21.322  25.158   6.150
 9043POPC   C1A72603  21.385  25.245   6.450
 9043POPC   D2A72604  21.407  25.238   6.750
 9043POPC   C3A72605  21.359  25.250   7.050
 9043POPC   C4A72606  21.346  25.255   7.350
 9043POPC   C1B72607  21.235  25.117   6.450
 9043POPC   C2B72608  21.229  25.072   6.750
 9043POPC   C3B72609  21.214  25.146   7.050
 9043POPC   C4B72610  21.167  25.088   7.350
 9044POPC   NC372611  20.616  23.676   5.550
 9044POPC   PO472612  20.582  23.689   5.850
 9044POPC   GL172613  20.602  23.703   6.150
 9044POPC   GL272614  20.587  23.604   6.150
 9044POPC   C1A72615  20.576  23.722   6.450
 9044POPC   D2A72616  20.569  23.742   6.750
 9044POPC   C3A72617  20.650  23.698   7.050
 9044POPC   C4A72618  20.632  23.743   7.350
 9044POPC   C1B72619  20.515  23.494   6.450
 9044POPC   C2B72620  20.429  23.490   6.750
 9044POPC   C3B72621  20.478  23.501   7.050
 9044POPC   C4B72622  20.441  23.503   7.350
 9045POPC   NC372623  38.429  28.328   5.550
 9045POPC   PO472624  38.497  28.402   5.850
 9045POPC   GL172625  38.468  28.382   6.150
 9045POPC   GL272626  38.572  28.238   6.150
 9045POPC   C1A72627  38.484  28.349   6.450
 9045POPC   D2A72628  38.451  28.343   6.750
 9045POPC   C3A72629  38.469  28.390   7.050
 9045POPC   C4A72630  38.429  28.409   7.350
 9045POPC   C1B72631  38.619  28.195   6.450
 9045POPC   C2B72632  38.614  28.163   6.750
 9045POPC   C3B72633  38.621  28.180   7.050
 9045POPC   C4B72634  38.610  28.236   7.350
 9046POPC   NC372635  36.908   7.376   5.550
 9046POPC   PO472636  36.944   7.438   5.850
 9046POPC   GL172637  36.947   7.407   6.150
 9046POPC   GL272638  36.962   7.267   6.150
 9046POPC   C1A72639  36.926   7.459   6.450
 9046POPC   D2A72640  36.863   7.460   6.750
 9046POPC   C3A72641  36.913   7.430   7.050
 9046POPC   C4A72642  36.921   7.466   7.350
 9046POPC   C1B72643  37.044   7.194   6.450
 9046POPC   C2B72644  37.013   7.190   6.750
 9046POPC   C3B72645  37.070   7.206   7.050
 9046POPC   C4B72646  37.023   7.196   7.350
 9047POPC   NC372647  27.583  21.346   5.550
 9047POPC   PO472648  27.635  21.387   5.850
 9047POPC   GL172649  27.583  21.376   6.150
 9047POPC   GL272650  27.607  21.265   6.150
 9047POPC   C1A72651  27.632  21.421   6.450
 9047POPC   D2A72652  27.554  21.366   6.750
 9047POPC   C3A72653  27.606  21.415   7.050
 9047POPC   C4A72654  27.563  21.423   7.350
 9047POPC   C1B72655  27.658  21.105   6.450
 9047POPC   C2B72656  27.647  21.150   6.750
 9047POPC   C3B72657  27.659  21.141   7.050
 9047POPC   C4B72658  27.712  21.143   7.350
 9048POPC   NC372659  21.402   9.014   5.550
 9048POPC   PO472660  21.409   8.964   5.850
 9048POPC   GL172661  21.416   9.016   6.150
 9048POPC   GL272662  21.245   8.948   6.150
 9048POPC   C1A72663  21.341   8.928   6.450
 9048POPC   D2A72664  21.362   8.978   6.750
 9048POPC   C3A72665  21.373   8.976   7.050
 9048POPC   C4A72666  21.336   9.018   7.350
 9048POPC   C1B72667  21.117   8.965   6.450
 9048POPC   C2B72668  21.171   8.884   6.750
 9048POPC   C3B72669  21.175   8.920   7.050
 9048POPC   C4B72670  21.140   8.940   7.350
 9049POPC   NC372671  28.327  22.211   5.550
 9049POPC   PO472672  28.379  22.201   5.850
 9049POPC   GL172673  28.382  22.192   6.150
 9049POPC   GL272674  28.448  22.113   6.150
 9049POPC   C1A72675  28.338  22.139   6.450
 9049POPC   D2A72676  28.332  22.167   6.750
 9049POPC   C3A72677  28.409  22.138   7.050
 9049POPC   C4A72678  28.400  22.120   7.350
 9049POPC   C1B72679  28.573  22.019   6.450
 9049POPC   C2B72680  28.564  22.066   6.750
 9049POPC   C3B72681  28.630  22.099   7.050
 9049POPC   C4B72682  28.627  22.102   7.350
 9050POPC   NC372683  36.143   8.999   5.550
 9050POPC   PO472684  36.174   8.962   5.850
 9050POPC   GL172685  36.143   9.006   6.150
 9050POPC   GL272686  36.030   8.842   6.150
 9050POPC   C1A72687  36.112   8.935   6.450
 9050POPC   D2A72688  36.109   8.933   6.750
 9050POPC   C3A72689  36.089   9.000   7.050
 9050POPC   C4A72690  36.153   8.950   7.350
 9050POPC   C1B72691  35.927   8.848   6.450
 9050POPC   C2B72692  35.910   8.800   6.750
 9050POPC   C3B72693  35.922   8.848   7.050
 9050POPC   C4B72694  35.962   8.803   7.350
 9051POPC   NC372695  42.286  42.382   5.550
 9051POPC   PO472696  42.311  42.360   5.850
 9051POPC   GL172697  42.300  42.332   6.150
 9051POPC   GL272698  42.444  42.415   6.150
 9051POPC   C1A72699  42.304  42.378   6.450
 9051POPC   D2A72700  42.293  42.376   6.750
 9051POPC   C3A72701  42.323  42.319   7.050
 9051POPC   C4A72702  42.344  42.359   7.350
 9051POPC   C1B72703  42.490  42.460   6.450
 9051POPC   C2B72704  42.509  42.526   6.750
 9051POPC   C3B72705  42.555  42.493   7.050
 9051POPC   C4B72706  42.547  42.499   7.350
 9052POPC   NC372707  28.320  37.680   5.550
 9052POPC   PO472708  28.373  37.686   5.850
 9052POPC   GL172709  28.380  37.705   6.150
 9052POPC   GL272710  28.228  37.696   6.150
 9052POPC   C1A72711  28.414  37.689   6.450
 9052POPC   D2A72712  28.394  37.648   6.750
 9052POPC   C3A72713  28.386  37.631   7.050
 9052POPC   C4A72714  28.358  37.728   7.350
 9052POPC   C1B72715  28.082  37.789   6.450
 9052POPC   C2B72716  28.153  37.768   6.750
 9052POPC   C3B72717  28.137  37.768   7.050
 9052POPC   C4B72718  28.102  37.762   7.350
 9053POPC   NC372719  16.752  12.804   5.550
 9053POPC   PO472720  16.765  12.823   5.850
 9053POPC   GL172721  16.739  12.888   6.150
 9053POPC   GL272722  16.618  12.903   6.150
 9053POPC   C1A72723  16.756  12.898   6.450
 9053POPC   D2A72724  16.751  12.880   6.750
 9053POPC   C3A72725  16.685  12.849   7.050
 9053POPC   C4A72726  16.747  12.898   7.350
 9053POPC   C1B72727  16.523  12.902   6.450
 9053POPC   C2B72728  16.461  12.950   6.750
 9053POPC   C3B72729  16.467  12.898   7.050
 9053POPC   C4B72730  16.533  12.939   7.350
 9054POPC   NC372731  15.133  23.717   5.550
 9054POPC   PO472732  15.173  23.710   5.850
 9054POPC   GL172733  15.192  23.740   6.150
 9054POPC   GL272734  15.108  23.805   6.150
 9054POPC   C1A72735  15.143  23.714   6.450
 9054POPC   D2A72736  15.162  23.678   6.750
 9054POPC   C3A72737  15.162  23.686   7.050
 9054POPC   C4A72738  15.179  23.754   7.350
 9054POPC   C1B72739  15.038  23.854   6.450
 9054POPC   C2B72740  15.014  23.891   6.750
 9054POPC   C3B72741  14.989  23.837   7.050
 9054POPC   C4B72742  14.992  23.865   7.350
 9055POPC   NC372743  22.128   9.770   5.550
 9055POPC   PO472744  22.162   9.726   5.850
 9055POPC   GL172745  22.170   9.752   6.150
 9055POPC   GL272746  22.048   9.798   6.150
 9055POPC   C1A72747  22.148   9.763   6.450
 9055POPC   D2A72748  22.190   9.791   6.750
 9055POPC   C3A72749  22.209   9.730   7.050
 9055POPC   C4A72750  22.157   9.719   7.350
 9055POPC   C1B72751  21.981   9.893   6.450
 9055POPC   C2B72752  21.961   9.958   6.750
 9055POPC   C3B72753  21.962   9.918   7.050
 9055POPC   C4B72754  21.994   9.932   7.350
 9056POPC   NC372755  19.106  15.953   5.550
 9056POPC   PO472756  19.080  15.955   5.850
 9056POPC   GL172757  19.036  15.937   6.150
 9056POPC   GL272758  18.974  15.881   6.150
 9056POPC   C1A72759  19.101  15.991   6.450
 9056POPC   D2A72760  19.108  15.919   6.750
 9056POPC   C3A72761  19.097  15.916   7.050
 9056POPC   C4A72762  19.107  15.986   7.350
 9056POPC   C1B72763  18.852  15.799   6.450
 9056POPC   C2B72764  18.818  15.836   6.750
 9056POPC   C3B72765  18.818  15.811   7.050
 9056POPC   C4B72766  18.853  15.807   7.350
 9057POPC   NC372767  12.030  39.218   5.550
 9057POPC   PO472768  12.042  39.272   5.850
 9057POPC   GL172769  12.122  39.265   6.150
 9057POPC   GL272770  12.188  39.144   6.150
 9057POPC   C1A72771  12.049  39.219   6.450
 9057POPC   D2A72772  12.059  39.191   6.750
 9057POPC   C3A72773  12.056  39.212   7.050
 9057POPC   C4A72774  12.078  39.195   7.350
 9057POPC   C1B72775  12.308  39.071   6.450
 9057POPC   C2B72776  12.330  39.074   6.750
 9057POPC   C3B72777  12.307  39.101   7.050
 9057POPC   C4B72778  12.252  39.132   7.350
 9058POPC   NC372779  17.475  11.278   5.550
 9058POPC   PO472780  17.538  11.349   5.850
 9058POPC   GL172781  17.474  11.334   6.150
 9058POPC   GL272782  17.508  11.138   6.150
 9058POPC   C1A72783  17.518  11.274   6.450
 9058POPC   D2A72784  17.508  11.331   6.750
 9058POPC   C3A72785  17.489  11.343   7.050
 9058POPC   C4A72786  17.463  11.330   7.350
 9058POPC   C1B72787  17.513  11.093   6.450
 9058POPC   C2B72788  17.470  11.098   6.750
 9058POPC   C3B72789  17.522  11.072   7.050
 9058POPC   C4B72790  17.514  11.070   7.350
 9059POPC   NC372791  42.379   3.525   5.550
 9059POPC   PO472792  42.299   3.508   5.850
 9059POPC   GL172793  42.369   3.556   6.150
 9059POPC   GL272794  42.219   3.453   6.150
 9059POPC   C1A72795  42.299   3.583   6.450
 9059POPC   D2A72796  42.375   3.496   6.750
 9059POPC   C3A72797  42.347   3.537   7.050
 9059POPC   C4A72798  42.311   3.536   7.350
 9059POPC   C1B72799  42.210   3.386   6.450
 9059POPC   C2B72800  42.183   3.324   6.750
 9059POPC   C3B72801  42.113   3.393   7.050
 9059POPC   C4B72802  42.194   3.357   7.350
 9060POPC   NC372803  30.680  18.235   5.550
 9060POPC   PO472804  30.678  18.250   5.850
 9060POPC   GL172805  30.719  18.327   6.150
 9060POPC   GL272806  30.681  18.150   6.150
 9060POPC   C1A72807  30.715  18.293   6.450
 9060POPC   D2A72808  30.702  18.272   6.750
 9060POPC   C3A72809  30.698  18.323   7.050
 9060POPC   C4A72810  30.685  18.249   7.350
 9060POPC   C1B72811  30.627  18.005   6.450
 9060POPC   C2B72812  30.689  18.072   6.750
 9060POPC   C3B72813  30.629  18.054   7.050
 9060POPC   C4B72814  30.643  18.051   7.350
 9061POPC   NC372815  16.761   7.401   5.550
 9061POPC   PO472816  16.719   7.419   5.850
 9061POPC   GL172817  16.742   7.467   6.150
 9061POPC   GL272818  16.592   7.362   6.150
 9061POPC   C1A72819  16.736   7.466   6.450
 9061POPC   D2A72820  16.758   7.426   6.750
 9061POPC   C3A72821  16.699   7.392   7.050
 9061POPC   C4A72822  16.777   7.428   7.350
 9061POPC   C1B72823  16.572   7.229   6.450
 9061POPC   C2B72824  16.534   7.246   6.750
 9061POPC   C3B72825  16.549   7.234   7.050
 9061POPC   C4B72826  16.530   7.240   7.350
 9062POPC   NC372827  38.424  33.034   5.550
 9062POPC   PO472828  38.474  33.009   5.850
 9062POPC   GL172829  38.504  32.992   6.150
 9062POPC   GL272830  38.578  32.955   6.150
 9062POPC   C1A72831  38.487  32.992   6.450
 9062POPC   D2A72832  38.485  33.059   6.750
 9062POPC   C3A72833  38.444  33.015   7.050
 9062POPC   C4A72834  38.491  32.994   7.350
 9062POPC   C1B72835  38.606  32.846   6.450
 9062POPC   C2B72836  38.616  32.898   6.750
 9062POPC   C3B72837  38.614  32.896   7.050
 9062POPC   C4B72838  38.633  32.821   7.350
 9063POPC   NC372839  36.160  23.665   5.550
 9063POPC   PO472840  36.120  23.706   5.850
 9063POPC   GL172841  36.078  23.732   6.150
 9063POPC   GL272842  36.091  23.829   6.150
 9063POPC   C1A72843  36.082  23.749   6.450
 9063POPC   D2A72844  36.093  23.752   6.750
 9063POPC   C3A72845  36.098  23.756   7.050
 9063POPC   C4A72846  36.130  23.726   7.350
 9063POPC   C1B72847  36.016  23.956   6.450
 9063POPC   C2B72848  36.034  23.940   6.750
 9063POPC   C3B72849  36.031  23.930   7.050
 9063POPC   C4B72850  36.022  23.932   7.350
 9064POPC   NC372851  35.366  40.040   5.550
 9064POPC   PO472852  35.308  40.018   5.850
 9064POPC   GL172853  35.335  39.989   6.150
 9064POPC   GL272854  35.379  39.870   6.150
 9064POPC   C1A72855  35.386  39.988   6.450
 9064POPC   D2A72856  35.343  40.020   6.750
 9064POPC   C3A72857  35.340  40.053   7.050
 9064POPC   C4A72858  35.373  39.959   7.350
 9064POPC   C1B72859  35.316  39.743   6.450
 9064POPC   C2B72860  35.341  39.733   6.750
 9064POPC   C3B72861  35.379  39.726   7.050
 9064POPC   C4B72862  35.404  39.749   7.350
 9065POPC   NC372863   4.325   8.998   5.550
 9065POPC   PO472864   4.305   9.022   5.850
 9065POPC   GL172865   4.268   9.014   6.150
 9065POPC   GL272866   4.157   8.970   6.150
 9065POPC   C1A72867   4.354   9.001   6.450
 9065POPC   D2A72868   4.330   8.940   6.750
 9065POPC   C3A72869   4.358   9.001   7.050
 9065POPC   C4A72870   4.275   8.958   7.350
 9065POPC   C1B72871   4.053   8.883   6.450
 9065POPC   C2B72872   4.087   8.883   6.750
 9065POPC   C3B72873   4.028   8.932   7.050
 9065POPC   C4B72874   4.025   8.921   7.350
 9066POPC   NC372875   2.725  12.871   5.550
 9066POPC   PO472876   2.773  12.841   5.850
 9066POPC   GL172877   2.719  12.807   6.150
 9066POPC   GL272878   2.879  12.920   6.150
 9066POPC   C1A72879   2.748  12.865   6.450
 9066POPC   D2A72880   2.757  12.836   6.750
 9066POPC   C3A72881   2.805  12.892   7.050
 9066POPC   C4A72882   2.733  12.839   7.350
 9066POPC   C1B72883   3.015  12.972   6.450
 9066POPC   C2B72884   3.033  12.911   6.750
 9066POPC   C3B72885   3.030  12.910   7.050
 9066POPC   C4B72886   3.045  12.877   7.350
 9067POPC   NC372887  11.267  17.529   5.550
 9067POPC   PO472888  11.253  17.514   5.850
 9067POPC   GL172889  11.318  17.540   6.150
 9067POPC   GL272890  11.345  17.425   6.150
 9067POPC   C1A72891  11.328  17.492   6.450
 9067POPC   D2A72892  11.289  17.492   6.750
 9067POPC   C3A72893  11.325  17.490   7.050
 9067POPC   C4A72894  11.344  17.552   7.350
 9067POPC   C1B72895  11.348  17.223   6.450
 9067POPC   C2B72896  11.372  17.210   6.750
 9067POPC   C3B72897  11.308  17.251   7.050
 9067POPC   C4B72898  11.340  17.252   7.350
 9068POPC   NC372899  25.261  29.894   5.550
 9068POPC   PO472900  25.274  29.871   5.850
 9068POPC   GL172901  25.275  29.921   6.150
 9068POPC   GL272902  25.213  30.040   6.150
 9068POPC   C1A72903  25.300  29.969   6.450
 9068POPC   D2A72904  25.290  29.958   6.750
 9068POPC   C3A72905  25.219  29.886   7.050
 9068POPC   C4A72906  25.300  29.889   7.350
 9068POPC   C1B72907  25.208  30.162   6.450
 9068POPC   C2B72908  25.294  30.150   6.750
 9068POPC   C3B72909  25.230  30.161   7.050
 9068POPC   C4B72910  25.216  30.160   7.350
 9069POPC   NC372911  20.587  28.382   5.550
 9069POPC   PO472912  20.627  28.336   5.850
 9069POPC   GL172913  20.563  28.415   6.150
 9069POPC   GL272914  20.510  28.496   6.150
 9069POPC   C1A72915  20.582  28.397   6.450
 9069POPC   D2A72916  20.648  28.400   6.750
 9069POPC   C3A72917  20.657  28.364   7.050
 9069POPC   C4A72918  20.643  28.367   7.350
 9069POPC   C1B72919  20.510  28.622   6.450
 9069POPC   C2B72920  20.463  28.598   6.750
 9069POPC   C3B72921  20.458  28.569   7.050
 9069POPC   C4B72922  20.458  28.592   7.350
 9070POPC   NC372923  26.858  34.555   5.550
 9070POPC   PO472924  26.865  34.540   5.850
 9070POPC   GL172925  26.771  34.604   6.150
 9070POPC   GL272926  26.675  34.696   6.150
 9070POPC   C1A72927  26.795  34.532   6.450
 9070POPC   D2A72928  26.851  34.615   6.750
 9070POPC   C3A72929  26.866  34.581   7.050
 9070POPC   C4A72930  26.838  34.553   7.350
 9070POPC   C1B72931  26.599  34.766   6.450
 9070POPC   C2B72932  26.667  34.690   6.750
 9070POPC   C3B72933  26.620  34.735   7.050
 9070POPC   C4B72934  26.609  34.779   7.350
 9071POPC   NC372935   5.043   8.966   5.550
 9071POPC   PO472936   5.095   8.953   5.850
 9071POPC   GL172937   5.084   8.938   6.150
 9071POPC   GL272938   5.210   9.031   6.150
 9071POPC   C1A72939   5.102   8.958   6.450
 9071POPC   D2A72940   5.126   8.983   6.750
 9071POPC   C3A72941   5.091   8.964   7.050
 9071POPC   C4A72942   5.074   8.992   7.350
 9071POPC   C1B72943   5.276   9.082   6.450
 9071POPC   C2B72944   5.276   9.148   6.750
 9071POPC   C3B72945   5.308   9.161   7.050
 9071POPC   C4B72946   5.346   9.161   7.350
 9072POPC   NC372947  40.811   5.115   5.550
 9072POPC   PO472948  40.807   5.061   5.850
 9072POPC   GL172949  40.798   5.049   6.150
 9072POPC   GL272950  40.632   5.134   6.150
 9072POPC   C1A72951  40.831   5.123   6.450
 9072POPC   D2A72952  40.812   5.087   6.750
 9072POPC   C3A72953  40.775   5.121   7.050
 9072POPC   C4A72954  40.733   5.117   7.350
 9072POPC   C1B72955  40.565   5.146   6.450
 9072POPC   C2B72956  40.527   5.155   6.750
 9072POPC   C3B72957  40.525   5.232   7.050
 9072POPC   C4B72958  40.573   5.174   7.350
 9073POPC   NC372959  15.143   1.996   5.550
 9073POPC   PO472960  15.182   1.963   5.850
 9073POPC   GL172961  15.188   1.964   6.150
 9073POPC   GL272962  15.155   2.073   6.150
 9073POPC   C1A72963  15.210   2.020   6.450
 9073POPC   D2A72964  15.203   1.953   6.750
 9073POPC   C3A72965  15.193   2.027   7.050
 9073POPC   C4A72966  15.192   1.989   7.350
 9073POPC   C1B72967  15.146   2.206   6.450
 9073POPC   C2B72968  15.170   2.270   6.750
 9073POPC   C3B72969  15.103   2.257   7.050
 9073POPC   C4B72970  15.188   2.204   7.350
 9074POPC   NC372971  41.532  31.517   5.550
 9074POPC   PO472972  41.531  31.493   5.850
 9074POPC   GL172973  41.601  31.521   6.150
 9074POPC   GL272974  41.470  31.549   6.150
 9074POPC   C1A72975  41.580  31.445   6.450
 9074POPC   D2A72976  41.564  31.514   6.750
 9074POPC   C3A72977  41.585  31.432   7.050
 9074POPC   C4A72978  41.536  31.435   7.350
 9074POPC   C1B72979  41.392  31.598   6.450
 9074POPC   C2B72980  41.407  31.599   6.750
 9074POPC   C3B72981  41.406  31.676   7.050
 9074POPC   C4B72982  41.380  31.609   7.350
 9075POPC   NC372983  29.098  31.434   5.550
 9075POPC   PO472984  29.128  31.437   5.850
 9075POPC   GL172985  29.130  31.511   6.150
 9075POPC   GL272986  29.199  31.408   6.150
 9075POPC   C1A72987  29.099  31.513   6.450
 9075POPC   D2A72988  29.166  31.454   6.750
 9075POPC   C3A72989  29.151  31.457   7.050
 9075POPC   C4A72990  29.122  31.423   7.350
 9075POPC   C1B72991  29.236  31.219   6.450
 9075POPC   C2B72992  29.269  31.207   6.750
 9075POPC   C3B72993  29.285  31.281   7.050
 9075POPC   C4B72994  29.283  31.223   7.350
 9076POPC   NC372995  31.512  33.781   5.550
 9076POPC   PO472996  31.460  33.778   5.850
 9076POPC   GL172997  31.483  33.801   6.150
 9076POPC   GL272998  31.389  33.722   6.150
 9076POPC   C1A72999  31.458  33.811   6.450
 9076POPC   D2A73000  31.498  33.807   6.750
 9076POPC   C3A73001  31.493  33.827   7.050
 9076POPC   C4A73002  31.514  33.760   7.350
 9076POPC   C1B73003  31.349  33.567   6.450
 9076POPC   C2B73004  31.370  33.573   6.750
 9076POPC   C3B73005  31.370  33.550   7.050
 9076POPC   C4B73006  31.345  33.608   7.350
 9077POPC   NC373007  40.738  15.195   5.550
 9077POPC   PO473008  40.800  15.139   5.850
 9077POPC   GL173009  40.749  15.219   6.150
 9077POPC   GL273010  40.860  15.216   6.150
 9077POPC   C1A73011  40.764  15.180   6.450
 9077POPC   D2A73012  40.801  15.217   6.750
 9077POPC   C3A73013  40.789  15.142   7.050
 9077POPC   C4A73014  40.777  15.225   7.350
 9077POPC   C1B73015  41.024  15.250   6.450
 9077POPC   C2B73016  41.051  15.314   6.750
 9077POPC   C3B73017  41.003  15.251   7.050
 9077POPC   C4B73018  40.997  15.299   7.350
 9078POPC   NC373019  12.036  34.608   5.550
 9078POPC   PO473020  12.069  34.617   5.850
 9078POPC   GL173021  12.120  34.560   6.150
 9078POPC   GL273022  11.990  34.432   6.150
 9078POPC   C1A73023  12.123  34.559   6.450
 9078POPC   D2A73024  12.117  34.528   6.750
 9078POPC   C3A73025  12.027  34.623   7.050
 9078POPC   C4A73026  12.069  34.583   7.350
 9078POPC   C1B73027  11.976  34.384   6.450
 9078POPC   C2B73028  12.006  34.390   6.750
 9078POPC   C3B73029  12.034  34.344   7.050
 9078POPC   C4B73030  11.951  34.299   7.350
 9079POPC   NC373031  42.320  29.928   5.550
 9079POPC   PO473032  42.294  29.969   5.850
 9079POPC   GL173033  42.301  29.921   6.150
 9079POPC   GL273034  42.293  30.011   6.150
 9079POPC   C1A73035  42.382  29.942   6.450
 9079POPC   D2A73036  42.338  29.899   6.750
 9079POPC   C3A73037  42.369  29.905   7.050
 9079POPC   C4A73038  42.338  29.899   7.350
 9079POPC   C1B73039  42.272  30.164   6.450
 9079POPC   C2B73040  42.313  30.137   6.750
 9079POPC   C3B73041  42.275  30.127   7.050
 9079POPC   C4B73042  42.260  30.207   7.350
 9080POPC   NC373043  27.615  43.090   5.550
 9080POPC   PO473044  27.587  43.150   5.850
 9080POPC   GL173045  27.626  43.085   6.150
 9080POPC   GL273046  27.618  43.018   6.150
 9080POPC   C1A73047  27.562  43.078   6.450
 9080POPC   D2A73048  27.606  43.099   6.750
 9080POPC   C3A73049  27.588  43.108   7.050
 9080POPC   C4A73050  27.627  43.151   7.350
 9080POPC   C1B73051  27.551  42.865   6.450
 9080POPC   C2B73052  27.588  42.897   6.750
 9080POPC   C3B73053  27.555  42.903   7.050
 9080POPC   C4B73054  27.599  42.864   7.350
 9081POPC   NC373055   5.851   9.773   5.550
 9081POPC   PO473056   5.863   9.748   5.850
 9081POPC   GL173057   5.917   9.738   6.150
 9081POPC   GL273058   5.968   9.789   6.150
 9081POPC   C1A73059   5.874   9.713   6.450
 9081POPC   D2A73060   5.826   9.730   6.750
 9081POPC   C3A73061   5.901   9.737   7.050
 9081POPC   C4A73062   5.872   9.754   7.350
 9081POPC   C1B73063   6.118   9.832   6.450
 9081POPC   C2B73064   6.113   9.854   6.750
 9081POPC   C3B73065   6.122   9.838   7.050
 9081POPC   C4B73066   6.066   9.831   7.350
 9082POPC   NC373067  36.082  28.419   5.550
 9082POPC   PO473068  36.162  28.383   5.850
 9082POPC   GL173069  36.173  28.418   6.150
 9082POPC   GL273070  36.053  28.337   6.150
 9082POPC   C1A73071  36.112  28.354   6.450
 9082POPC   D2A73072  36.092  28.347   6.750
 9082POPC   C3A73073  36.119  28.415   7.050
 9082POPC   C4A73074  36.093  28.345   7.350
 9082POPC   C1B73075  35.926  28.319   6.450
 9082POPC   C2B73076  35.880  28.310   6.750
 9082POPC   C3B73077  35.852  28.394   7.050
 9082POPC   C4B73078  35.913  28.357   7.350
 9083POPC   NC373079  14.418  33.845   5.550
 9083POPC   PO473080  14.417  33.797   5.850
 9083POPC   GL173081  14.409  33.829   6.150
 9083POPC   GL273082  14.529  33.872   6.150
 9083POPC   C1A73083  14.447  33.789   6.450
 9083POPC   D2A73084  14.365  33.788   6.750
 9083POPC   C3A73085  14.429  33.837   7.050
 9083POPC   C4A73086  14.398  33.829   7.350
 9083POPC   C1B73087  14.644  33.848   6.450
 9083POPC   C2B73088  14.659  33.840   6.750
 9083POPC   C3B73089  14.601  33.908   7.050
 9083POPC   C4B73090  14.647  33.923   7.350
 9084POPC   NC373091  24.489  32.992   5.550
 9084POPC   PO473092  24.453  33.021   5.850
 9084POPC   GL173093  24.537  33.069   6.150
 9084POPC   GL273094  24.528  33.170   6.150
 9084POPC   C1A73095  24.454  32.975   6.450
 9084POPC   D2A73096  24.510  33.022   6.750
 9084POPC   C3A73097  24.505  33.048   7.050
 9084POPC   C4A73098  24.539  33.007   7.350
 9084POPC   C1B73099  24.627  33.295   6.450
 9084POPC   C2B73100  24.620  33.267   6.750
 9084POPC   C3B73101  24.554  33.249   7.050
 9084POPC   C4B73102  24.561  33.250   7.350
 9085POPC   NC373103   2.791  31.510   5.550
 9085POPC   PO473104   2.782  31.430   5.850
 9085POPC   GL173105   2.719  31.481   6.150
 9085POPC   GL273106   2.621  31.527   6.150
 9085POPC   C1A73107   2.750  31.428   6.450
 9085POPC   D2A73108   2.801  31.452   6.750
 9085POPC   C3A73109   2.764  31.509   7.050
 9085POPC   C4A73110   2.815  31.498   7.350
 9085POPC   C1B73111   2.567  31.585   6.450
 9085POPC   C2B73112   2.581  31.614   6.750
 9085POPC   C3B73113   2.551  31.573   7.050
 9085POPC   C4B73114   2.543  31.583   7.350
 9086POPC   NC373115  10.520  16.700   5.550
 9086POPC   PO473116  10.496  16.750   5.850
 9086POPC   GL173117  10.488  16.684   6.150
 9086POPC   GL273118  10.628  16.717   6.150
 9086POPC   C1A73119  10.525  16.710   6.450
 9086POPC   D2A73120  10.513  16.726   6.750
 9086POPC   C3A73121  10.553  16.757   7.050
 9086POPC   C4A73122  10.504  16.731   7.350
 9086POPC   C1B73123  10.783  16.575   6.450
 9086POPC   C2B73124  10.757  16.649   6.750
 9086POPC   C3B73125  10.774  16.634   7.050
 9086POPC   C4B73126  10.787  16.647   7.350
 9087POPC   NC373127  33.049  25.245   5.550
 9087POPC   PO473128  33.058  25.232   5.850
 9087POPC   GL173129  32.999  25.295   6.150
 9087POPC   GL273130  32.890  25.340   6.150
 9087POPC   C1A73131  33.010  25.288   6.450
 9087POPC   D2A73132  32.997  25.295   6.750
 9087POPC   C3A73133  33.015  25.252   7.050
 9087POPC   C4A73134  33.058  25.304   7.350
 9087POPC   C1B73135  32.862  25.409   6.450
 9087POPC   C2B73136  32.844  25.469   6.750
 9087POPC   C3B73137  32.868  25.403   7.050
 9087POPC   C4B73138  32.848  25.420   7.350
 9088POPC   NC373139  13.617  21.415   5.550
 9088POPC   PO473140  13.588  21.356   5.850
 9088POPC   GL173141  13.660  21.381   6.150
 9088POPC   GL273142  13.791  21.363   6.150
 9088POPC   C1A73143  13.648  21.416   6.450
 9088POPC   D2A73144  13.653  21.395   6.750
 9088POPC   C3A73145  13.658  21.397   7.050
 9088POPC   C4A73146  13.592  21.360   7.350
 9088POPC   C1B73147  13.917  21.389   6.450
 9088POPC   C2B73148  13.904  21.422   6.750
 9088POPC   C3B73149  13.902  21.404   7.050
 9088POPC   C4B73150  13.838  21.405   7.350
 9089POPC   NC373151  39.959  15.213   5.550
 9089POPC   PO473152  40.012  15.147   5.850
 9089POPC   GL173153  40.047  15.143   6.150
 9089POPC   GL273154  40.043  15.091   6.150
 9089POPC   C1A73155  40.053  15.141   6.450
 9089POPC   D2A73156  40.049  15.152   6.750
 9089POPC   C3A73157  40.049  15.170   7.050
 9089POPC   C4A73158  40.006  15.221   7.350
 9089POPC   C1B73159  40.150  14.959   6.450
 9089POPC   C2B73160  40.141  14.991   6.750
 9089POPC   C3B73161  40.109  14.900   7.050
 9089POPC   C4B73162  40.090  14.996   7.350
 9090POPC   NC373163   4.350  18.332   5.550
 9090POPC   PO473164   4.317  18.283   5.850
 9090POPC   GL173165   4.318  18.236   6.150
 9090POPC   GL273166   4.463  18.194   6.150
 9090POPC   C1A73167   4.314  18.288   6.450
 9090POPC   D2A73168   4.313  18.328   6.750
 9090POPC   C3A73169   4.302  18.300   7.050
 9090POPC   C4A73170   4.366  18.273   7.350
 9090POPC   C1B73171   4.520  18.172   6.450
 9090POPC   C2B73172   4.527  18.241   6.750
 9090POPC   C3B73173   4.512  18.165   7.050
 9090POPC   C4B73174   4.594  18.204   7.350
 9091POPC   NC373175  12.052  43.843   5.550
 9091POPC   PO473176  12.055  43.907   5.850
 9091POPC   GL173177  12.072  43.846   6.150
 9091POPC   GL273178  12.217  43.848   6.150
 9091POPC   C1A73179  12.066  43.914   6.450
 9091POPC   D2A73180  12.046  43.928   6.750
 9091POPC   C3A73181  12.089  43.903   7.050
 9091POPC   C4A73182  12.112  43.852   7.350
 9091POPC   C1B73183  12.286  43.867   6.450
 9091POPC   C2B73184  12.277  43.823   6.750
 9091POPC   C3B73185  12.337  43.863   7.050
 9091POPC   C4B73186  12.354  43.866   7.350
 9092POPC   NC373187   5.860  30.694   5.550
 9092POPC   PO473188   5.901  30.671   5.850
 9092POPC   GL173189   5.840  30.739   6.150
 9092POPC   GL273190   5.909  30.542   6.150
 9092POPC   C1A73191   5.907  30.722   6.450
 9092POPC   D2A73192   5.915  30.710   6.750
 9092POPC   C3A73193   5.899  30.732   7.050
 9092POPC   C4A73194   5.914  30.654   7.350
 9092POPC   C1B73195   5.943  30.433   6.450
 9092POPC   C2B73196   5.935  30.458   6.750
 9092POPC   C3B73197   5.922  30.469   7.050
 9092POPC   C4B73198   5.931  30.465   7.350
 9093POPC   NC373199   2.812  27.619   5.550
 9093POPC   PO473200   2.784  27.580   5.850
 9093POPC   GL173201   2.727  27.607   6.150
 9093POPC   GL273202   2.778  27.694   6.150
 9093POPC   C1A73203   2.787  27.559   6.450
 9093POPC   D2A73204   2.792  27.635   6.750
 9093POPC   C3A73205   2.750  27.569   7.050
 9093POPC   C4A73206   2.814  27.602   7.350
 9093POPC   C1B73207   2.682  27.838   6.450
 9093POPC   C2B73208   2.698  27.802   6.750
 9093POPC   C3B73209   2.685  27.793   7.050
 9093POPC   C4B73210   2.753  27.864   7.350
 9094POPC   NC373211   5.882  39.277   5.550
 9094POPC   PO473212   5.864  39.230   5.850
 9094POPC   GL173213   5.832  39.259   6.150
 9094POPC   GL273214   5.797  39.227   6.150
 9094POPC   C1A73215   5.875  39.194   6.450
 9094POPC   D2A73216   5.824  39.202   6.750
 9094POPC   C3A73217   5.909  39.225   7.050
 9094POPC   C4A73218   5.881  39.193   7.350
 9094POPC   C1B73219   5.638  39.165   6.450
 9094POPC   C2B73220   5.633  39.102   6.750
 9094POPC   C3B73221   5.619  39.145   7.050
 9094POPC   C4B73222   5.592  39.176   7.350
 9095POPC   NC373223  28.412  12.114   5.550
 9095POPC   PO473224  28.400  12.047   5.850
 9095POPC   GL173225  28.360  12.058   6.150
 9095POPC   GL273226  28.252  12.203   6.150
 9095POPC   C1A73227  28.319  12.049   6.450
 9095POPC   D2A73228  28.374  12.103   6.750
 9095POPC   C3A73229  28.341  12.090   7.050
 9095POPC   C4A73230  28.332  12.056   7.350
 9095POPC   C1B73231  28.230  12.242   6.450
 9095POPC   C2B73232  28.261  12.229   6.750
 9095POPC   C3B73233  28.191  12.316   7.050
 9095POPC   C4B73234  28.243  12.252   7.350
 9096POPC   NC373235  12.113  35.347   5.550
 9096POPC   PO473236  12.040  35.328   5.850
 9096POPC   GL173237  12.076  35.372   6.150
 9096POPC   GL273238  11.937  35.394   6.150
 9096POPC   C1A73239  12.047  35.308   6.450
 9096POPC   D2A73240  12.086  35.334   6.750
 9096POPC   C3A73241  12.097  35.303   7.050
 9096POPC   C4A73242  12.041  35.366   7.350
 9096POPC   C1B73243  11.824  35.474   6.450
 9096POPC   C2B73244  11.828  35.445   6.750
 9096POPC   C3B73245  11.857  35.464   7.050
 9096POPC   C4B73246  11.888  35.447   7.350
 9097POPC   NC373247   5.090  40.763   5.550
 9097POPC   PO473248   5.104  40.824   5.850
 9097POPC   GL173249   5.049  40.789   6.150
 9097POPC   GL273250   5.177  40.629   6.150
 9097POPC   C1A73251   5.098  40.785   6.450
 9097POPC   D2A73252   5.097  40.787   6.750
 9097POPC   C3A73253   5.046  40.766   7.050
 9097POPC   C4A73254   5.075  40.760   7.350
 9097POPC   C1B73255   5.183  40.534   6.450
 9097POPC   C2B73256   5.228  40.520   6.750
 9097POPC   C3B73257   5.198  40.553   7.050
 9097POPC   C4B73258   5.236  40.519   7.350
 9098POPC   NC373259  15.943  26.768   5.550
 9098POPC   PO473260  16.003  26.854   5.850
 9098POPC   GL173261  16.005  26.837   6.150
 9098POPC   GL273262  15.826  26.825   6.150
 9098POPC   C1A73263  15.952  26.805   6.450
 9098POPC   D2A73264  15.982  26.785   6.750
 9098POPC   C3A73265  15.917  26.784   7.050
 9098POPC   C4A73266  15.953  26.776   7.350
 9098POPC   C1B73267  15.723  26.792   6.450
 9098POPC   C2B73268  15.742  26.761   6.750
 9098POPC   C3B73269  15.680  26.793   7.050
 9098POPC   C4B73270  15.710  26.808   7.350
 9099POPC   NC373271  10.481  17.533   5.550
 9099POPC   PO473272  10.567  17.486   5.850
 9099POPC   GL173273  10.500  17.482   6.150
 9099POPC   GL273274  10.659  17.539   6.150
 9099POPC   C1A73275  10.556  17.547   6.450
 9099POPC   D2A73276  10.542  17.507   6.750
 9099POPC   C3A73277  10.568  17.520   7.050
 9099POPC   C4A73278  10.504  17.505   7.350
 9099POPC   C1B73279  10.727  17.543   6.450
 9099POPC   C2B73280  10.776  17.547   6.750
 9099POPC   C3B73281  10.809  17.533   7.050
 9099POPC   C4B73282  10.776  17.551   7.350
 9100POPC   NC373283  36.080  22.133   5.550
 9100POPC   PO473284  36.085  22.141   5.850
 9100POPC   GL173285  36.114  22.171   6.150
 9100POPC   GL273286  36.192  22.285   6.150
 9100POPC   C1A73287  36.155  22.178   6.450
 9100POPC   D2A73288  36.122  22.207   6.750
 9100POPC   C3A73289  36.168  22.140   7.050
 9100POPC   C4A73290  36.173  22.177   7.350
 9100POPC   C1B73291  36.235  22.370   6.450
 9100POPC   C2B73292  36.218  22.376   6.750
 9100POPC   C3B73293  36.223  22.416   7.050
 9100POPC   C4B73294  36.174  22.377   7.350
 9101POPC   NC373295   8.983  16.740   5.550
 9101POPC   PO473296   9.013  16.744   5.850
 9101POPC   GL173297   8.932  16.688   6.150
 9101POPC   GL273298   9.106  16.752   6.150
 9101POPC   C1A73299   8.930  16.748   6.450
 9101POPC   D2A73300   9.004  16.683   6.750
 9101POPC   C3A73301   8.962  16.760   7.050
 9101POPC   C4A73302   9.007  16.757   7.350
 9101POPC   C1B73303   9.186  16.660   6.450
 9101POPC   C2B73304   9.251  16.647   6.750
 9101POPC   C3B73305   9.263  16.638   7.050
 9101POPC   C4B73306   9.239  16.645   7.350
 9102POPC   NC373307  38.418  29.929   5.550
 9102POPC   PO473308  38.458  29.943   5.850
 9102POPC   GL173309  38.449  29.926   6.150
 9102POPC   GL273310  38.566  30.029   6.150
 9102POPC   C1A73311  38.439  29.952   6.450
 9102POPC   D2A73312  38.447  29.923   6.750
 9102POPC   C3A73313  38.417  29.909   7.050
 9102POPC   C4A73314  38.464  29.886   7.350
 9102POPC   C1B73315  38.632  30.106   6.450
 9102POPC   C2B73316  38.605  30.124   6.750
 9102POPC   C3B73317  38.588  30.120   7.050
 9102POPC   C4B73318  38.662  30.108   7.350
 9103POPC   NC373319  39.961   4.277   5.550
 9103POPC   PO473320  39.962   4.310   5.850
 9103POPC   GL173321  40.046   4.290   6.150
 9103POPC   GL273322  40.043   4.434   6.150
 9103POPC   C1A73323  39.993   4.367   6.450
 9103POPC   D2A73324  39.997   4.288   6.750
 9103POPC   C3A73325  39.980   4.295   7.050
 9103POPC   C4A73326  39.968   4.331   7.350
 9103POPC   C1B73327  40.064   4.586   6.450
 9103POPC   C2B73328  40.101   4.600   6.750
 9103POPC   C3B73329  40.070   4.572   7.050
 9103POPC   C4B73330  40.078   4.561   7.350
 9104POPC   NC373331   7.388  12.108   5.550
 9104POPC   PO473332   7.439  12.041   5.850
 9104POPC   GL173333   7.409  12.032   6.150
 9104POPC   GL273334   7.482  12.168   6.150
 9104POPC   C1A73335   7.391  12.062   6.450
 9104POPC   D2A73336   7.460  12.098   6.750
 9104POPC   C3A73337   7.403  12.048   7.050
 9104POPC   C4A73338   7.433  12.125   7.350
 9104POPC   C1B73339   7.479  12.280   6.450
 9104POPC   C2B73340   7.428  12.355   6.750
 9104POPC   C3B73341   7.462  12.336   7.050
 9104POPC   C4B73342   7.514  12.272   7.350
 9105POPC   NC373343  22.169   5.870   5.550
 9105POPC   PO473344  22.206   5.888   5.850
 9105POPC   GL173345  22.207   5.854   6.150
 9105POPC   GL273346  22.178   5.986   6.150
 9105POPC   C1A73347  22.116   5.877   6.450
 9105POPC   D2A73348  22.147   5.892   6.750
 9105POPC   C3A73349  22.131   5.833   7.050
 9105POPC   C4A73350  22.115   5.821   7.350
 9105POPC   C1B73351  22.117   6.123   6.450
 9105POPC   C2B73352  22.177   6.082   6.750
 9105POPC   C3B73353  22.121   6.122   7.050
 9105POPC   C4B73354  22.167   6.079   7.350
 9106POPC   NC373355  19.058  22.899   5.550
 9106POPC   PO473356  19.092  22.964   5.850
 9106POPC   GL173357  19.037  22.917   6.150
 9106POPC   GL273358  19.116  22.771   6.150
 9106POPC   C1A73359  19.102  22.955   6.450
 9106POPC   D2A73360  19.089  22.945   6.750
 9106POPC   C3A73361  19.041  22.947   7.050
 9106POPC   C4A73362  19.063  22.950   7.350
 9106POPC   C1B73363  19.121  22.649   6.450
 9106POPC   C2B73364  19.098  22.739   6.750
 9106POPC   C3B73365  19.067  22.668   7.050
 9106POPC   C4B73366  19.089  22.676   7.350
 9107POPC   NC373367  30.734  12.892   5.550
 9107POPC   PO473368  30.684  12.868   5.850
 9107POPC   GL173369  30.730  12.885   6.150
 9107POPC   GL273370  30.827  12.924   6.150
 9107POPC   C1A73371  30.701  12.855   6.450
 9107POPC   D2A73372  30.732  12.897   6.750
 9107POPC   C3A73373  30.690  12.879   7.050
 9107POPC   C4A73374  30.653  12.872   7.350
 9107POPC   C1B73375  30.980  12.890   6.450
 9107POPC   C2B73376  30.965  12.945   6.750
 9107POPC   C3B73377  30.899  12.931   7.050
 9107POPC   C4B73378  30.899  12.947   7.350
 9108POPC   NC373379  11.291   2.750   5.550
 9108POPC   PO473380  11.311   2.722   5.850
 9108POPC   GL173381  11.254   2.759   6.150
 9108POPC   GL273382  11.211   2.754   6.150
 9108POPC   C1A73383  11.310   2.775   6.450
 9108POPC   D2A73384  11.299   2.792   6.750
 9108POPC   C3A73385  11.315   2.719   7.050
 9108POPC   C4A73386  11.319   2.752   7.350
 9108POPC   C1B73387  11.030   2.746   6.450
 9108POPC   C2B73388  11.081   2.731   6.750
 9108POPC   C3B73389  11.087   2.733   7.050
 9108POPC   C4B73390  11.077   2.767   7.350
 9109POPC   NC373391   3.546  15.925   5.550
 9109POPC   PO473392   3.492  15.959   5.850
 9109POPC   GL173393   3.584  15.909   6.150
 9109POPC   GL273394   3.622  15.923   6.150
 9109POPC   C1A73395   3.540  15.970   6.450
 9109POPC   D2A73396   3.544  15.970   6.750
 9109POPC   C3A73397   3.533  15.972   7.050
 9109POPC   C4A73398   3.571  15.990   7.350
 9109POPC   C1B73399   3.788  15.835   6.450
 9109POPC   C2B73400   3.790  15.847   6.750
 9109POPC   C3B73401   3.807  15.818   7.050
 9109POPC   C4B73402   3.713  15.816   7.350
 9110POPC   NC373403  16.765  40.813   5.550
 9110POPC   PO473404  16.723  40.769   5.850
 9110POPC   GL173405  16.738  40.783   6.150
 9110POPC   GL273406  16.642  40.810   6.150
 9110POPC   C1A73407  16.737  40.767   6.450
 9110POPC   D2A73408  16.741  40.756   6.750
 9110POPC   C3A73409  16.683  40.760   7.050
 9110POPC   C4A73410  16.743  40.832   7.350
 9110POPC   C1B73411  16.480  40.837   6.450
 9110POPC   C2B73412  16.498  40.844   6.750
 9110POPC   C3B73413  16.499  40.888   7.050
 9110POPC   C4B73414  16.476  40.854   7.350
 9111POPC   NC373415  43.837  15.943   5.550
 9111POPC   PO473416  43.851  16.003   5.850
 9111POPC   GL173417  43.881  15.986   6.150
 9111POPC   GL273418  43.984  15.833   6.150
 9111POPC   C1A73419  43.927  15.961   6.450
 9111POPC   D2A73420  43.881  15.995   6.750
 9111POPC   C3A73421  43.925  15.909   7.050
 9111POPC   C4A73422  43.842  15.944   7.350
 9111POPC   C1B73423  44.084  15.720   6.450
 9111POPC   C2B73424  44.019  15.749   6.750
 9111POPC   C3B73425  43.991  15.798   7.050
 9111POPC   C4B73426  43.997  15.749   7.350
 9112POPC   NC373427  18.285   9.700   5.550
 9112POPC   PO473428  18.286   9.742   5.850
 9112POPC   GL173429  18.272   9.762   6.150
 9112POPC   GL273430  18.369   9.756   6.150
 9112POPC   C1A73431  18.246   9.719   6.450
 9112POPC   D2A73432  18.292   9.796   6.750
 9112POPC   C3A73433  18.251   9.790   7.050
 9112POPC   C4A73434  18.260   9.772   7.350
 9112POPC   C1B73435  18.504   9.724   6.450
 9112POPC   C2B73436  18.577   9.774   6.750
 9112POPC   C3B73437  18.539   9.717   7.050
 9112POPC   C4B73438  18.579   9.766   7.350
 9113POPC   NC373439  39.186  43.864   5.550
 9113POPC   PO473440  39.187  43.870   5.850
 9113POPC   GL173441  39.207  43.872   6.150
 9113POPC   GL273442  39.123  43.808   6.150
 9113POPC   C1A73443  39.276  43.919   6.450
 9113POPC   D2A73444  39.256  43.901   6.750
 9113POPC   C3A73445  39.240  43.920   7.050
 9113POPC   C4A73446  39.265  43.930   7.350
 9113POPC   C1B73447  39.049  43.696   6.450
 9113POPC   C2B73448  39.054  43.710   6.750
 9113POPC   C3B73449  39.085  43.686   7.050
 9113POPC   C4B73450  39.027  43.690   7.350
 9114POPC   NC373451  12.900  38.451   5.550
 9114POPC   PO473452  12.804  38.430   5.850
 9114POPC   GL173453  12.891  38.434   6.150
 9114POPC   GL273454  12.823  38.536   6.150
 9114POPC   C1A73455  12.858  38.430   6.450
 9114POPC   D2A73456  12.891  38.407   6.750
 9114POPC   C3A73457  12.860  38.503   7.050
 9114POPC   C4A73458  12.893  38.440   7.350
 9114POPC   C1B73459  12.802  38.659   6.450
 9114POPC   C2B73460  12.725  38.736   6.750
 9114POPC   C3B73461  12.783  38.699   7.050
 9114POPC   C4B73462  12.808  38.674   7.350
 9115POPC   NC373463  33.046  19.830   5.550
 9115POPC   PO473464  33.026  19.880   5.850
 9115POPC   GL173465  33.064  19.815   6.150
 9115POPC   GL273466  32.901  19.957   6.150
 9115POPC   C1A73467  33.003  19.835   6.450
 9115POPC   D2A73468  33.054  19.884   6.750
 9115POPC   C3A73469  33.000  19.791   7.050
 9115POPC   C4A73470  32.984  19.822   7.350
 9115POPC   C1B73471  32.909  20.033   6.450
 9115POPC   C2B73472  32.882  20.007   6.750
 9115POPC   C3B73473  32.856  20.031   7.050
 9115POPC   C4B73474  32.856  20.055   7.350
 9116POPC   NC373475  40.780  31.435   5.550
 9116POPC   PO473476  40.818  31.428   5.850
 9116POPC   GL173477  40.797  31.449   6.150
 9116POPC   GL273478  40.661  31.526   6.150
 9116POPC   C1A73479  40.758  31.507   6.450
 9116POPC   D2A73480  40.828  31.488   6.750
 9116POPC   C3A73481  40.799  31.492   7.050
 9116POPC   C4A73482  40.770  31.497   7.350
 9116POPC   C1B73483  40.594  31.576   6.450
 9116POPC   C2B73484  40.575  31.565   6.750
 9116POPC   C3B73485  40.604  31.641   7.050
 9116POPC   C4B73486  40.603  31.556   7.350
 9117POPC   NC373487  36.116   1.965   5.550
 9117POPC   PO473488  36.129   2.001   5.850
 9117POPC   GL173489  36.121   2.030   6.150
 9117POPC   GL273490  36.017   1.908   6.150
 9117POPC   C1A73491  36.127   2.039   6.450
 9117POPC   D2A73492  36.080   1.973   6.750
 9117POPC   C3A73493  36.138   2.011   7.050
 9117POPC   C4A73494  36.167   1.955   7.350
 9117POPC   C1B73495  35.850   1.910   6.450
 9117POPC   C2B73496  35.926   1.959   6.750
 9117POPC   C3B73497  35.849   1.893   7.050
 9117POPC   C4B73498  35.893   1.942   7.350
 9118POPC   NC373499  27.592   6.636   5.550
 9118POPC   PO473500  27.610   6.606   5.850
 9118POPC   GL173501  27.572   6.642   6.150
 9118POPC   GL273502  27.669   6.555   6.150
 9118POPC   C1A73503  27.589   6.630   6.450
 9118POPC   D2A73504  27.624   6.602   6.750
 9118POPC   C3A73505  27.615   6.664   7.050
 9118POPC   C4A73506  27.552   6.598   7.350
 9118POPC   C1B73507  27.730   6.416   6.450
 9118POPC   C2B73508  27.721   6.479   6.750
 9118POPC   C3B73509  27.796   6.441   7.050
 9118POPC   C4B73510  27.772   6.475   7.350
 9119POPC   NC373511  31.451  36.870   5.550
 9119POPC   PO473512  31.429  36.936   5.850
 9119POPC   GL173513  31.485  36.910   6.150
 9119POPC   GL273514  31.467  36.739   6.150
 9119POPC   C1A73515  31.502  36.900   6.450
 9119POPC   D2A73516  31.438  36.872   6.750
 9119POPC   C3A73517  31.502  36.941   7.050
 9119POPC   C4A73518  31.518  36.918   7.350
 9119POPC   C1B73519  31.504  36.707   6.450
 9119POPC   C2B73520  31.509  36.653   6.750
 9119POPC   C3B73521  31.554  36.612   7.050
 9119POPC   C4B73522  31.524  36.639   7.350
 9120POPC   NC373523   1.948  19.040   5.550
 9120POPC   PO473524   1.977  19.018   5.850
 9120POPC   GL173525   2.019  19.030   6.150
 9120POPC   GL273526   2.081  19.146   6.150
 9120POPC   C1A73527   2.032  19.062   6.450
 9120POPC   D2A73528   1.953  19.095   6.750
 9120POPC   C3A73529   1.979  19.085   7.050
 9120POPC   C4A73530   2.018  19.069   7.350
 9120POPC   C1B73531   2.136  19.314   6.450
 9120POPC   C2B73532   2.049  19.327   6.750
 9120POPC   C3B73533   2.126  19.322   7.050
 9120POPC   C4B73534   2.042  19.243   7.350
 9121POPC   NC373535   8.927  10.490   5.550
 9121POPC   PO473536   9.016  10.523   5.850
 9121POPC   GL173537   8.939  10.570   6.150
 9121POPC   GL273538   9.113  10.549   6.150
 9121POPC   C1A73539   8.971  10.512   6.450
 9121POPC   D2A73540   8.999  10.566   6.750
 9121POPC   C3A73541   8.923  10.500   7.050
 9121POPC   C4A73542   8.972  10.501   7.350
 9121POPC   C1B73543   9.203  10.476   6.450
 9121POPC   C2B73544   9.206  10.523   6.750
 9121POPC   C3B73545   9.241  10.532   7.050
 9121POPC   C4B73546   9.199  10.523   7.350
 9122POPC   NC373547  23.735  22.938   5.550
 9122POPC   PO473548  23.759  22.916   5.850
 9122POPC   GL173549  23.695  22.947   6.150
 9122POPC   GL273550  23.795  22.842   6.150
 9122POPC   C1A73551  23.670  22.986   6.450
 9122POPC   D2A73552  23.674  22.916   6.750
 9122POPC   C3A73553  23.746  22.898   7.050
 9122POPC   C4A73554  23.689  22.966   7.350
 9122POPC   C1B73555  23.854  22.718   6.450
 9122POPC   C2B73556  23.846  22.740   6.750
 9122POPC   C3B73557  23.806  22.694   7.050
 9122POPC   C4B73558  23.834  22.767   7.350
 9123POPC   NC373559  19.861  11.290   5.550
 9123POPC   PO473560  19.797  11.347   5.850
 9123POPC   GL173561  19.846  11.258   6.150
 9123POPC   GL273562  19.707  11.409   6.150
 9123POPC   C1A73563  19.792  11.323   6.450
 9123POPC   D2A73564  19.861  11.349   6.750
 9123POPC   C3A73565  19.812  11.323   7.050
 9123POPC   C4A73566  19.859  11.320   7.350
 9123POPC   C1B73567  19.606  11.492   6.450
 9123POPC   C2B73568  19.665  11.439   6.750
 9123POPC   C3B73569  19.641  11.461   7.050
 9123POPC   C4B73570  19.632  11.473   7.350
 9124POPC   NC373571   0.404  11.320   5.550
 9124POPC   PO473572   0.432  11.264   5.850
 9124POPC   GL173573   0.486  11.292   6.150
 9124POPC   GL273574   0.283  11.366   6.150
 9124POPC   C1A73575   0.432  11.315   6.450
 9124POPC   D2A73576   0.409  11.266   6.750
 9124POPC   C3A73577   0.482  11.307   7.050
 9124POPC   C4A73578   0.465  11.285   7.350
 9124POPC   C1B73579   0.197  11.386   6.450
 9124POPC   C2B73580   0.194  11.389   6.750
 9124POPC   C3B73581   0.242  11.399   7.050
 9124POPC   C4B73582   0.252  11.473   7.350
 9125POPC   NC373583   5.088  41.552   5.550
 9125POPC   PO473584   5.050  41.565   5.850
 9125POPC   GL173585   5.119  41.530   6.150
 9125POPC   GL273586   5.254  41.493   6.150
 9125POPC   C1A73587   5.096  41.587   6.450
 9125POPC   D2A73588   5.091  41.529   6.750
 9125POPC   C3A73589   5.061  41.606   7.050
 9125POPC   C4A73590   5.111  41.575   7.350
 9125POPC   C1B73591   5.345  41.443   6.450
 9125POPC   C2B73592   5.316  41.458   6.750
 9125POPC   C3B73593   5.359  41.413   7.050
 9125POPC   C4B73594   5.314  41.406   7.350
 9126POPC   NC373595   9.005   3.579   5.550
 9126POPC   PO473596   9.022   3.549   5.850
 9126POPC   GL173597   8.936   3.566   6.150
 9126POPC   GL273598   8.934   3.428   6.150
 9126POPC   C1A73599   8.996   3.551   6.450
 9126POPC   D2A73600   9.004   3.534   6.750
 9126POPC   C3A73601   9.011   3.508   7.050
 9126POPC   C4A73602   8.933   3.575   7.350
 9126POPC   C1B73603   8.815   3.370   6.450
 9126POPC   C2B73604   8.821   3.320   6.750
 9126POPC   C3B73605   8.794   3.379   7.050
 9126POPC   C4B73606   8.794   3.308   7.350
 9127POPC   NC373607  40.804  16.005   5.550
 9127POPC   PO473608  40.792  15.955   5.850
 9127POPC   GL173609  40.813  16.002   6.150
 9127POPC   GL273610  40.637  15.965   6.150
 9127POPC   C1A73611  40.827  16.004   6.450
 9127POPC   D2A73612  40.789  15.994   6.750
 9127POPC   C3A73613  40.767  15.955   7.050
 9127POPC   C4A73614  40.748  15.923   7.350
 9127POPC   C1B73615  40.503  15.997   6.450
 9127POPC   C2B73616  40.513  16.025   6.750
 9127POPC   C3B73617  40.529  16.087   7.050
 9127POPC   C4B73618  40.541  16.033   7.350
 9128POPC   NC373619  20.568  15.186   5.550
 9128POPC   PO473620  20.614  15.213   5.850
 9128POPC   GL173621  20.659  15.178   6.150
 9128POPC   GL273622  20.730  15.141   6.150
 9128POPC   C1A73623  20.574  15.147   6.450
 9128POPC   D2A73624  20.606  15.224   6.750
 9128POPC   C3A73625  20.619  15.205   7.050
 9128POPC   C4A73626  20.646  15.147   7.350
 9128POPC   C1B73627  20.816  15.213   6.450
 9128POPC   C2B73628  20.835  15.141   6.750
 9128POPC   C3B73629  20.871  15.130   7.050
 9128POPC   C4B73630  20.850  15.178   7.350
 9129POPC   NC373631  41.530  35.381   5.550
 9129POPC   PO473632  41.549  35.338   5.850
 9129POPC   GL173633  41.535  35.369   6.150
 9129POPC   GL273634  41.558  35.510   6.150
 9129POPC   C1A73635  41.589  35.304   6.450
 9129POPC   D2A73636  41.588  35.328   6.750
 9129POPC   C3A73637  41.537  35.333   7.050
 9129POPC   C4A73638  41.589  35.379   7.350
 9129POPC   C1B73639  41.608  35.623   6.450
 9129POPC   C2B73640  41.636  35.586   6.750
 9129POPC   C3B73641  41.618  35.544   7.050
 9129POPC   C4B73642  41.665  35.585   7.350
 9130POPC   NC373643  41.545   3.582   5.550
 9130POPC   PO473644  41.593   3.500   5.850
 9130POPC   GL173645  41.533   3.574   6.150
 9130POPC   GL273646  41.590   3.713   6.150
 9130POPC   C1A73647  41.533   3.576   6.450
 9130POPC   D2A73648  41.539   3.522   6.750
 9130POPC   C3A73649  41.577   3.511   7.050
 9130POPC   C4A73650  41.573   3.586   7.350
 9130POPC   C1B73651  41.555   3.796   6.450
 9130POPC   C2B73652  41.558   3.801   6.750
 9130POPC   C3B73653  41.581   3.757   7.050
 9130POPC   C4B73654  41.521   3.813   7.350
 9131POPC   NC373655  19.822  20.563   5.550
 9131POPC   PO473656  19.882  20.641   5.850
 9131POPC   GL173657  19.804  20.604   6.150
 9131POPC   GL273658  19.703  20.609   6.150
 9131POPC   C1A73659  19.848  20.584   6.450
 9131POPC   D2A73660  19.869  20.630   6.750
 9131POPC   C3A73661  19.809  20.651   7.050
 9131POPC   C4A73662  19.792  20.590   7.350
 9131POPC   C1B73663  19.571  20.487   6.450
 9131POPC   C2B73664  19.561  20.552   6.750
 9131POPC   C3B73665  19.568  20.549   7.050
 9131POPC   C4B73666  19.562  20.519   7.350
 9132POPC   NC373667  26.807  40.744   5.550
 9132POPC   PO473668  26.818  40.767   5.850
 9132POPC   GL173669  26.786  40.811   6.150
 9132POPC   GL273670  26.921  40.724   6.150
 9132POPC   C1A73671  26.803  40.747   6.450
 9132POPC   D2A73672  26.804  40.768   6.750
 9132POPC   C3A73673  26.773  40.783   7.050
 9132POPC   C4A73674  26.851  40.765   7.350
 9132POPC   C1B73675  27.003  40.691   6.450
 9132POPC   C2B73676  27.087  40.699   6.750
 9132POPC   C3B73677  27.039  40.661   7.050
 9132POPC   C4B73678  27.079  40.678   7.350
 9133POPC   NC373679   5.863  17.507   5.550
 9133POPC   PO473680   5.897  17.480   5.850
 9133POPC   GL173681   5.895  17.495   6.150
 9133POPC   GL273682   5.804  17.604   6.150
 9133POPC   C1A73683   5.916  17.490   6.450
 9133POPC   D2A73684   5.862  17.512   6.750
 9133POPC   C3A73685   5.868  17.477   7.050
 9133POPC   C4A73686   5.910  17.475   7.350
 9133POPC   C1B73687   5.690  17.645   6.450
 9133POPC   C2B73688   5.657  17.640   6.750
 9133POPC   C3B73689   5.687  17.664   7.050
 9133POPC   C4B73690   5.666  17.644   7.350
 9134POPC   NC373691  20.599  18.319   5.550
 9134POPC   PO473692  20.630  18.259   5.850
 9134POPC   GL173693  20.577  18.329   6.150
 9134POPC   GL273694  20.509  18.237   6.150
 9134POPC   C1A73695  20.573  18.286   6.450
 9134POPC   D2A73696  20.641  18.281   6.750
 9134POPC   C3A73697  20.587  18.323   7.050
 9134POPC   C4A73698  20.595  18.315   7.350
 9134POPC   C1B73699  20.399  18.231   6.450
 9134POPC   C2B73700  20.424  18.195   6.750
 9134POPC   C3B73701  20.340  18.142   7.050
 9134POPC   C4B73702  20.424  18.216   7.350
 9135POPC   NC373703  33.828  35.387   5.550
 9135POPC   PO473704  33.781  35.322   5.850
 9135POPC   GL173705  33.753  35.381   6.150
 9135POPC   GL273706  33.841  35.209   6.150
 9135POPC   C1A73707  33.780  35.315   6.450
 9135POPC   D2A73708  33.773  35.387   6.750
 9135POPC   C3A73709  33.837  35.391   7.050
 9135POPC   C4A73710  33.766  35.329   7.350
 9135POPC   C1B73711  33.989  35.193   6.450
 9135POPC   C2B73712  33.932  35.110   6.750
 9135POPC   C3B73713  33.915  35.124   7.050
 9135POPC   C4B73714  33.989  35.128   7.350
 9136POPC   NC373715  16.708   0.430   5.550
 9136POPC   PO473716  16.703   0.417   5.850
 9136POPC   GL173717  16.714   0.439   6.150
 9136POPC   GL273718  16.804   0.327   6.150
 9136POPC   C1A73719  16.702   0.469   6.450
 9136POPC   D2A73720  16.724   0.481   6.750
 9136POPC   C3A73721  16.708   0.413   7.050
 9136POPC   C4A73722  16.770   0.476   7.350
 9136POPC   C1B73723  16.821   0.225   6.450
 9136POPC   C2B73724  16.894   0.245   6.750
 9136POPC   C3B73725  16.914   0.277   7.050
 9136POPC   C4B73726  16.860   0.263   7.350
 9137POPC   NC373727  41.580  17.511   5.550
 9137POPC   PO473728  41.576  17.462   5.850
 9137POPC   GL173729  41.587  17.508   6.150
 9137POPC   GL273730  41.609  17.571   6.150
 9137POPC   C1A73731  41.516  17.471   6.450
 9137POPC   D2A73732  41.545  17.547   6.750
 9137POPC   C3A73733  41.578  17.543   7.050
 9137POPC   C4A73734  41.607  17.556   7.350
 9137POPC   C1B73735  41.662  17.670   6.450
 9137POPC   C2B73736  41.756  17.743   6.750
 9137POPC   C3B73737  41.672  17.748   7.050
 9137POPC   C4B73738  41.699  17.665   7.350
 9138POPC   NC373739  22.936  29.928   5.550
 9138POPC   PO473740  22.951  29.927   5.850
 9138POPC   GL173741  22.966  29.906   6.150
 9138POPC   GL273742  23.071  29.884   6.150
 9138POPC   C1A73743  22.965  29.896   6.450
 9138POPC   D2A73744  22.982  29.918   6.750
 9138POPC   C3A73745  22.978  29.901   7.050
 9138POPC   C4A73746  22.939  29.963   7.350
 9138POPC   C1B73747  23.179  29.747   6.450
 9138POPC   C2B73748  23.174  29.784   6.750
 9138POPC   C3B73749  23.092  29.811   7.050
 9138POPC   C4B73750  23.166  29.770   7.350
 9139POPC   NC373751  32.244  26.861   5.550
 9139POPC   PO473752  32.250  26.768   5.850
 9139POPC   GL173753  32.220  26.856   6.150
 9139POPC   GL273754  32.176  26.675   6.150
 9139POPC   C1A73755  32.223  26.834   6.450
 9139POPC   D2A73756  32.224  26.813   6.750
 9139POPC   C3A73757  32.217  26.838   7.050
 9139POPC   C4A73758  32.283  26.817   7.350
 9139POPC   C1B73759  32.103  26.569   6.450
 9139POPC   C2B73760  32.098  26.569   6.750
 9139POPC   C3B73761  32.103  26.629   7.050
 9139POPC   C4B73762  32.129  26.652   7.350
 9140POPC   NC373763  14.388  43.845   5.550
 9140POPC   PO473764  14.431  43.890   5.850
 9140POPC   GL173765  14.365  43.913   6.150
 9140POPC   GL273766  14.498  43.785   6.150
 9140POPC   C1A73767  14.440  43.933   6.450
 9140POPC   D2A73768  14.450  43.857   6.750
 9140POPC   C3A73769  14.371  43.854   7.050
 9140POPC   C4A73770  14.410  43.844   7.350
 9140POPC   C1B73771  14.598  43.673   6.450
 9140POPC   C2B73772  14.608  43.715   6.750
 9140POPC   C3B73773  14.620  43.700   7.050
 9140POPC   C4B73774  14.571  43.687   7.350
 9141POPC   NC373775  10.524   4.276   5.550
 9141POPC   PO473776  10.549   4.274   5.850
 9141POPC   GL173777  10.486   4.348   6.150
 9141POPC   GL273778  10.555   4.264   6.150
 9141POPC   C1A73779  10.516   4.315   6.450
 9141POPC   D2A73780  10.568   4.317   6.750
 9141POPC   C3A73781  10.505   4.323   7.050
 9141POPC   C4A73782  10.564   4.335   7.350
 9141POPC   C1B73783  10.629   4.073   6.450
 9141POPC   C2B73784  10.632   4.071   6.750
 9141POPC   C3B73785  10.623   4.147   7.050
 9141POPC   C4B73786  10.654   4.128   7.350
 9142POPC   NC373787  36.952  33.026   5.550
 9142POPC   PO473788  36.861  32.996   5.850
 9142POPC   GL173789  36.882  33.018   6.150
 9142POPC   GL273790  36.891  32.857   6.150
 9142POPC   C1A73791  36.949  33.038   6.450
 9142POPC   D2A73792  36.908  32.989   6.750
 9142POPC   C3A73793  36.892  32.990   7.050
 9142POPC   C4A73794  36.875  32.998   7.350
 9142POPC   C1B73795  36.907  32.747   6.450
 9142POPC   C2B73796  36.880  32.799   6.750
 9142POPC   C3B73797  36.916  32.769   7.050
 9142POPC   C4B73798  36.846  32.766   7.350
 9143POPC   NC373799  44.625  44.624   5.550
 9143POPC   PO473800  44.712  44.628   5.850
 9143POPC   GL173801  44.662  44.629   6.150
 9143POPC   GL273802  44.761  44.687   6.150
 9143POPC   C1A73803  44.633  44.679   6.450
 9143POPC   D2A73804  44.642  44.651   6.750
 9143POPC   C3A73805  44.632  44.711   7.050
 9143POPC   C4A73806  44.686  44.622   7.350
 9143POPC   C1B73807  44.961  44.639   6.450
 9143POPC   C2B73808  44.900  44.655   6.750
 9143POPC   C3B73809  44.900  44.650   7.050
 9143POPC   C4B73810  44.888  44.642   7.350
 9144POPC   NC373811  43.898  25.266   5.550
 9144POPC   PO473812  43.872  25.230   5.850
 9144POPC   GL173813  43.874  25.226   6.150
 9144POPC   GL273814  43.995  25.251   6.150
 9144POPC   C1A73815  43.853  25.251   6.450
 9144POPC   D2A73816  43.935  25.249   6.750
 9144POPC   C3A73817  43.909  25.312   7.050
 9144POPC   C4A73818  43.935  25.310   7.350
 9144POPC   C1B73819  44.091  25.177   6.450
 9144POPC   C2B73820  44.144  25.222   6.750
 9144POPC   C3B73821  44.151  25.207   7.050
 9144POPC   C4B73822  44.158  25.204   7.350
 9145POPC   NC373823  16.776  39.210   5.550
 9145POPC   PO473824  16.739  39.276   5.850
 9145POPC   GL173825  16.709  39.231   6.150
 9145POPC   GL273826  16.808  39.315   6.150
 9145POPC   C1A73827  16.712  39.251   6.450
 9145POPC   D2A73828  16.709  39.278   6.750
 9145POPC   C3A73829  16.749  39.271   7.050
 9145POPC   C4A73830  16.682  39.270   7.350
 9145POPC   C1B73831  16.900  39.375   6.450
 9145POPC   C2B73832  16.887  39.442   6.750
 9145POPC   C3B73833  16.904  39.422   7.050
 9145POPC   C4B73834  16.881  39.397   7.350
 9146POPC   NC373835   7.446  27.547   5.550
 9146POPC   PO473836   7.378  27.553   5.850
 9146POPC   GL173837   7.421  27.634   6.150
 9146POPC   GL273838   7.572  27.620   6.150
 9146POPC   C1A73839   7.422  27.611   6.450
 9146POPC   D2A73840   7.467  27.546   6.750
 9146POPC   C3A73841   7.372  27.582   7.050
 9146POPC   C4A73842   7.420  27.548   7.350
 9146POPC   C1B73843   7.611  27.707   6.450
 9146POPC   C2B73844   7.628  27.703   6.750
 9146POPC   C3B73845   7.657  27.733   7.050
 9146POPC   C4B73846   7.694  27.657   7.350
 9147POPC   NC373847  40.017  41.519   5.550
 9147POPC   PO473848  39.966  41.542   5.850
 9147POPC   GL173849  40.051  41.600   6.150
 9147POPC   GL273850  40.081  41.472   6.150
 9147POPC   C1A73851  40.036  41.517   6.450
 9147POPC   D2A73852  40.035  41.547   6.750
 9147POPC   C3A73853  39.988  41.605   7.050
 9147POPC   C4A73854  40.034  41.560   7.350
 9147POPC   C1B73855  40.158  41.313   6.450
 9147POPC   C2B73856  40.131  41.372   6.750
 9147POPC   C3B73857  40.142  41.381   7.050
 9147POPC   C4B73858  40.104  41.301   7.350
 9148POPC   NC373859  43.861  17.540   5.550
 9148POPC   PO473860  43.905  17.463   5.850
 9148POPC   GL173861  43.877  17.556   6.150
 9148POPC   GL273862  43.757  17.615   6.150
 9148POPC   C1A73863  43.904  17.535   6.450
 9148POPC   D2A73864  43.892  17.552   6.750
 9148POPC   C3A73865  43.900  17.476   7.050
 9148POPC   C4A73866  43.913  17.544   7.350
 9148POPC   C1B73867  43.646  17.628   6.450
 9148POPC   C2B73868  43.711  17.657   6.750
 9148POPC   C3B73869  43.640  17.666   7.050
 9148POPC   C4B73870  43.732  17.680   7.350
 9149POPC   NC373871  33.028  29.939   5.550
 9149POPC   PO473872  33.015  29.885   5.850
 9149POPC   GL173873  32.998  29.945   6.150
 9149POPC   GL273874  33.106  29.875   6.150
 9149POPC   C1A73875  33.053  29.956   6.450
 9149POPC   D2A73876  33.002  29.955   6.750
 9149POPC   C3A73877  33.070  29.934   7.050
 9149POPC   C4A73878  33.049  29.878   7.350
 9149POPC   C1B73879  33.244  29.927   6.450
 9149POPC   C2B73880  33.234  29.944   6.750
 9149POPC   C3B73881  33.273  29.932   7.050
 9149POPC   C4B73882  33.310  29.964   7.350
 9150POPC   NC373883  43.156  12.065   5.550
 9150POPC   PO473884  43.114  12.092   5.850
 9150POPC   GL173885  43.143  12.124   6.150
 9150POPC   GL273886  43.121  11.966   6.150
 9150POPC   C1A73887  43.099  12.044   6.450
 9150POPC   D2A73888  43.150  12.121   6.750
 9150POPC   C3A73889  43.085  12.074   7.050
 9150POPC   C4A73890  43.136  12.063   7.350
 9150POPC   C1B73891  43.114  11.787   6.450
 9150POPC   C2B73892  43.028  11.839   6.750
 9150POPC   C3B73893  43.026  11.806   7.050
 9150POPC   C4B73894  43.107  11.833   7.350
 9151POPC   NC373895  10.546  11.296   5.550
 9151POPC   PO473896  10.572  11.343   5.850
 9151POPC   GL173897  10.543  11.272   6.150
 9151POPC   GL273898  10.513  11.224   6.150
 9151POPC   C1A73899  10.513  11.311   6.450
 9151POPC   D2A73900  10.515  11.294   6.750
 9151POPC   C3A73901  10.567  11.263   7.050
 9151POPC   C4A73902  10.541  11.338   7.350
 9151POPC   C1B73903  10.430  11.044   6.450
 9151POPC   C2B73904  10.388  11.038   6.750
 9151POPC   C3B73905  10.421  11.091   7.050
 9151POPC   C4B73906  10.427  11.131   7.350
 9152POPC   NC373907  29.187  35.401   5.550
 9152POPC   PO473908  29.183  35.389   5.850
 9152POPC   GL173909  29.176  35.351   6.150
 9152POPC   GL273910  29.203  35.484   6.150
 9152POPC   C1A73911  29.185  35.324   6.450
 9152POPC   D2A73912  29.184  35.402   6.750
 9152POPC   C3A73913  29.114  35.334   7.050
 9152POPC   C4A73914  29.184  35.389   7.350
 9152POPC   C1B73915  29.254  35.602   6.450
 9152POPC   C2B73916  29.247  35.557   6.750
 9152POPC   C3B73917  29.250  35.596   7.050
 9152POPC   C4B73918  29.293  35.584   7.350
 9153POPC   NC373919  37.700  40.794   5.550
 9153POPC   PO473920  37.715  40.774   5.850
 9153POPC   GL173921  37.686  40.744   6.150
 9153POPC   GL273922  37.793  40.910   6.150
 9153POPC   C1A73923  37.703  40.740   6.450
 9153POPC   D2A73924  37.717  40.791   6.750
 9153POPC   C3A73925  37.700  40.832   7.050
 9153POPC   C4A73926  37.630  40.810   7.350
 9153POPC   C1B73927  37.825  40.975   6.450
 9153POPC   C2B73928  37.811  41.013   6.750
 9153POPC   C3B73929  37.805  40.947   7.050
 9153POPC   C4B73930  37.822  40.955   7.350
 9154POPC   NC373931  15.962  36.174   5.550
 9154POPC   PO473932  15.980  36.164   5.850
 9154POPC   GL173933  15.997  36.130   6.150
 9154POPC   GL273934  15.941  36.251   6.150
 9154POPC   C1A73935  15.947  36.091   6.450
 9154POPC   D2A73936  15.984  36.126   6.750
 9154POPC   C3A73937  15.929  36.104   7.050
 9154POPC   C4A73938  15.948  36.116   7.350
 9154POPC   C1B73939  15.866  36.333   6.450
 9154POPC   C2B73940  15.851  36.409   6.750
 9154POPC   C3B73941  15.931  36.362   7.050
 9154POPC   C4B73942  15.884  36.415   7.350
 9155POPC   NC373943  15.135  42.348   5.550
 9155POPC   PO473944  15.218  42.341   5.850
 9155POPC   GL173945  15.214  42.320   6.150
 9155POPC   GL273946  15.161  42.243   6.150
 9155POPC   C1A73947  15.196  42.294   6.450
 9155POPC   D2A73948  15.162  42.289   6.750
 9155POPC   C3A73949  15.171  42.301   7.050
 9155POPC   C4A73950  15.212  42.362   7.350
 9155POPC   C1B73951  15.158  42.083   6.450
 9155POPC   C2B73952  15.131  42.058   6.750
 9155POPC   C3B73953  15.186  42.045   7.050
 9155POPC   C4B73954  15.134  42.130   7.350
 9156POPC   NC373955  28.325  10.549   5.550
 9156POPC   PO473956  28.340  10.537   5.850
 9156POPC   GL173957  28.405  10.569   6.150
 9156POPC   GL273958  28.517  10.549   6.150
 9156POPC   C1A73959  28.323  10.475   6.450
 9156POPC   D2A73960  28.371  10.484   6.750
 9156POPC   C3A73961  28.328  10.555   7.050
 9156POPC   C4A73962  28.399  10.475   7.350
 9156POPC   C1B73963  28.550  10.692   6.450
 9156POPC   C2B73964  28.562  10.618   6.750
 9156POPC   C3B73965  28.623  10.691   7.050
 9156POPC   C4B73966  28.619  10.640   7.350
 9157POPC   NC373967  37.665  32.244   5.550
 9157POPC   PO473968  37.680  32.255   5.850
 9157POPC   GL173969  37.633  32.237   6.150
 9157POPC   GL273970  37.738  32.317   6.150
 9157POPC   C1A73971  37.679  32.210   6.450
 9157POPC   D2A73972  37.682  32.240   6.750
 9157POPC   C3A73973  37.671  32.244   7.050
 9157POPC   C4A73974  37.706  32.212   7.350
 9157POPC   C1B73975  37.898  32.368   6.450
 9157POPC   C2B73976  37.920  32.422   6.750
 9157POPC   C3B73977  37.863  32.450   7.050
 9157POPC   C4B73978  37.901  32.402   7.350
 9158POPC   NC373979  36.943  30.729   5.550
 9158POPC   PO473980  36.901  30.667   5.850
 9158POPC   GL173981  36.925  30.678   6.150
 9158POPC   GL273982  36.753  30.745   6.150
 9158POPC   C1A73983  36.884  30.715   6.450
 9158POPC   D2A73984  36.949  30.706   6.750
 9158POPC   C3A73985  36.942  30.708   7.050
 9158POPC   C4A73986  36.884  30.660   7.350
 9158POPC   C1B73987  36.680  30.778   6.450
 9158POPC   C2B73988  36.627  30.791   6.750
 9158POPC   C3B73989  36.658  30.757   7.050
 9158POPC   C4B73990  36.633  30.731   7.350
 9159POPC   NC373991  44.635  10.544   5.550
 9159POPC   PO473992  44.613  10.518   5.850
 9159POPC   GL173993  44.690  10.516   6.150
 9159POPC   GL273994  44.749  10.595   6.150
 9159POPC   C1A73995  44.651  10.554   6.450
 9159POPC   D2A73996  44.649  10.510   6.750
 9159POPC   C3A73997  44.630  10.479   7.050
 9159POPC   C4A73998  44.679  10.556   7.350
 9159POPC   C1B73999  44.881  10.689   6.450
 9159POPC   C2B74000  44.831  10.655   6.750
 9159POPC   C3B74001  44.913  10.652   7.050
 9159POPC   C4B74002  44.887  10.612   7.350
 9160POPC   NC374003   5.904  25.275   5.550
 9160POPC   PO474004   5.831  25.257   5.850
 9160POPC   GL174005   5.823  25.252   6.150
 9160POPC   GL274006   5.830  25.337   6.150
 9160POPC   C1A74007   5.856  25.221   6.450
 9160POPC   D2A74008   5.875  25.228   6.750
 9160POPC   C3A74009   5.879  25.262   7.050
 9160POPC   C4A74010   5.905  25.308   7.350
 9160POPC   C1B74011   5.753  25.421   6.450
 9160POPC   C2B74012   5.735  25.493   6.750
 9160POPC   C3B74013   5.757  25.448   7.050
 9160POPC   C4B74014   5.721  25.451   7.350
 9161POPC   NC374015  17.484  34.606   5.550
 9161POPC   PO474016  17.468  34.530   5.850
 9161POPC   GL174017  17.495  34.554   6.150
 9161POPC   GL274018  17.426  34.493   6.150
 9161POPC   C1A74019  17.547  34.543   6.450
 9161POPC   D2A74020  17.506  34.535   6.750
 9161POPC   C3A74021  17.557  34.542   7.050
 9161POPC   C4A74022  17.473  34.567   7.350
 9161POPC   C1B74023  17.281  34.407   6.450
 9161POPC   C2B74024  17.270  34.392   6.750
 9161POPC   C3B74025  17.340  34.417   7.050
 9161POPC   C4B74026  17.272  34.406   7.350
 9162POPC   NC374027   7.407  34.578   5.550
 9162POPC   PO474028   7.450  34.549   5.850
 9162POPC   GL174029   7.396  34.571   6.150
 9162POPC   GL274030   7.479  34.647   6.150
 9162POPC   C1A74031   7.427  34.550   6.450
 9162POPC   D2A74032   7.439  34.598   6.750
 9162POPC   C3A74033   7.439  34.623   7.050
 9162POPC   C4A74034   7.417  34.533   7.350
 9162POPC   C1B74035   7.613  34.688   6.450
 9162POPC   C2B74036   7.647  34.705   6.750
 9162POPC   C3B74037   7.668  34.701   7.050
 9162POPC   C4B74038   7.630  34.664   7.350
 9163POPC   NC374039  41.598   6.622   5.550
 9163POPC   PO474040  41.556   6.652   5.850
 9163POPC   GL174041  41.520   6.610   6.150
 9163POPC   GL274042  41.446   6.735   6.150
 9163POPC   C1A74043  41.566   6.650   6.450
 9163POPC   D2A74044  41.535   6.595   6.750
 9163POPC   C3A74045  41.557   6.651   7.050
 9163POPC   C4A74046  41.512   6.677   7.350
 9163POPC   C1B74047  41.439   6.834   6.450
 9163POPC   C2B74048  41.413   6.872   6.750
 9163POPC   C3B74049  41.459   6.902   7.050
 9163POPC   C4B74050  41.384   6.843   7.350
 9164POPC   NC374051  38.482  43.159   5.550
 9164POPC   PO474052  38.487  43.089   5.850
 9164POPC   GL174053  38.504  43.103   6.150
 9164POPC   GL274054  38.452  43.197   6.150
 9164POPC   C1A74055  38.446  43.072   6.450
 9164POPC   D2A74056  38.469  43.146   6.750
 9164POPC   C3A74057  38.417  43.156   7.050
 9164POPC   C4A74058  38.433  43.138   7.350
 9164POPC   C1B74059  38.535  43.337   6.450
 9164POPC   C2B74060  38.574  43.351   6.750
 9164POPC   C3B74061  38.524  43.375   7.050
 9164POPC   C4B74062  38.492  43.333   7.350
 9165POPC   NC374063   4.328  39.987   5.550
 9165POPC   PO474064   4.311  40.029   5.850
 9165POPC   GL174065   4.349  39.989   6.150
 9165POPC   GL274066   4.276  39.846   6.150
 9165POPC   C1A74067   4.363  39.979   6.450
 9165POPC   D2A74068   4.358  39.968   6.750
 9165POPC   C3A74069   4.268  40.007   7.050
 9165POPC   C4A74070   4.306  39.973   7.350
 9165POPC   C1B74071   4.250  39.803   6.450
 9165POPC   C2B74072   4.286  39.725   6.750
 9165POPC   C3B74073   4.228  39.781   7.050
 9165POPC   C4B74074   4.259  39.726   7.350
 9166POPC   NC374075  23.694  24.514   5.550
 9166POPC   PO474076  23.704  24.505   5.850
 9166POPC   GL174077  23.700  24.466   6.150
 9166POPC   GL274078  23.803  24.341   6.150
 9166POPC   C1A74079  23.736  24.499   6.450
 9166POPC   D2A74080  23.753  24.474   6.750
 9166POPC   C3A74081  23.717  24.477   7.050
 9166POPC   C4A74082  23.718  24.528   7.350
 9166POPC   C1B74083  23.797  24.247   6.450
 9166POPC   C2B74084  23.827  24.315   6.750
 9166POPC   C3B74085  23.800  24.319   7.050
 9166POPC   C4B74086  23.844  24.311   7.350
 9167POPC   NC374087  38.466  36.129   5.550
 9167POPC   PO474088  38.462  36.105   5.850
 9167POPC   GL174089  38.414  36.150   6.150
 9167POPC   GL274090  38.497  36.015   6.150
 9167POPC   C1A74091  38.436  36.132   6.450
 9167POPC   D2A74092  38.422  36.161   6.750
 9167POPC   C3A74093  38.412  36.160   7.050
 9167POPC   C4A74094  38.448  36.089   7.350
 9167POPC   C1B74095  38.523  35.902   6.450
 9167POPC   C2B74096  38.587  35.932   6.750
 9167POPC   C3B74097  38.603  35.926   7.050
 9167POPC   C4B74098  38.524  35.892   7.350
 9168POPC   NC374099  36.938   4.268   5.550
 9168POPC   PO474100  36.862   4.288   5.850
 9168POPC   GL174101  36.902   4.300   6.150
 9168POPC   GL274102  36.868   4.173   6.150
 9168POPC   C1A74103  36.861   4.293   6.450
 9168POPC   D2A74104  36.854   4.316   6.750
 9168POPC   C3A74105  36.907   4.273   7.050
 9168POPC   C4A74106  36.878   4.291   7.350
 9168POPC   C1B74107  36.802   4.095   6.450
 9168POPC   C2B74108  36.771   4.110   6.750
 9168POPC   C3B74109  36.758   4.056   7.050
 9168POPC   C4B74110  36.742   4.109   7.350
 9169POPC   NC374111   6.685  26.045   5.550
 9169POPC   PO474112   6.608  26.033   5.850
 9169POPC   GL174113   6.648  26.008   6.150
 9169POPC   GL274114   6.516  26.028   6.150
 9169POPC   C1A74115   6.631  26.058   6.450
 9169POPC   D2A74116   6.603  26.088   6.750
 9169POPC   C3A74117   6.604  26.007   7.050
 9169POPC   C4A74118   6.631  26.082   7.350
 9169POPC   C1B74119   6.364  26.033   6.450
 9169POPC   C2B74120   6.394  26.061   6.750
 9169POPC   C3B74121   6.371  26.061   7.050
 9169POPC   C4B74122   6.433  26.062   7.350
 9170POPC   NC374123   8.978  25.255   5.550
 9170POPC   PO474124   8.963  25.276   5.850
 9170POPC   GL174125   9.000  25.243   6.150
 9170POPC   GL274126   8.886  25.176   6.150
 9170POPC   C1A74127   8.949  25.262   6.450
 9170POPC   D2A74128   8.989  25.279   6.750
 9170POPC   C3A74129   8.934  25.231   7.050
 9170POPC   C4A74130   9.008  25.254   7.350
 9170POPC   C1B74131   8.871  25.052   6.450
 9170POPC   C2B74132   8.805  25.048   6.750
 9170POPC   C3B74133   8.819  25.051   7.050
 9170POPC   C4B74134   8.776  25.016   7.350
 9171POPC   NC374135   7.397  20.588   5.550
 9171POPC   PO474136   7.400  20.601   5.850
 9171POPC   GL174137   7.468  20.642   6.150
 9171POPC   GL274138   7.433  20.699   6.150
 9171POPC   C1A74139   7.458  20.579   6.450
 9171POPC   D2A74140   7.447  20.625   6.750
 9171POPC   C3A74141   7.438  20.602   7.050
 9171POPC   C4A74142   7.432  20.634   7.350
 9171POPC   C1B74143   7.526  20.860   6.450
 9171POPC   C2B74144   7.464  20.856   6.750
 9171POPC   C3B74145   7.471  20.880   7.050
 9171POPC   C4B74146   7.522  20.809   7.350
 9172POPC   NC374147   5.110  24.527   5.550
 9172POPC   PO474148   5.080  24.469   5.850
 9172POPC   GL174149   5.137  24.489   6.150
 9172POPC   GL274150   5.090  24.378   6.150
 9172POPC   C1A74151   5.095  24.522   6.450
 9172POPC   D2A74152   5.126  24.518   6.750
 9172POPC   C3A74153   5.081  24.463   7.050
 9172POPC   C4A74154   5.044  24.521   7.350
 9172POPC   C1B74155   5.082  24.259   6.450
 9172POPC   C2B74156   5.079  24.233   6.750
 9172POPC   C3B74157   5.020  24.217   7.050
 9172POPC   C4B74158   5.108  24.267   7.350
 9173POPC   NC374159  17.551  36.123   5.550
 9173POPC   PO474160  17.525  36.143   5.850
 9173POPC   GL174161  17.535  36.142   6.150
 9173POPC   GL274162  17.509  36.226   6.150
 9173POPC   C1A74163  17.520  36.134   6.450
 9173POPC   D2A74164  17.538  36.169   6.750
 9173POPC   C3A74165  17.538  36.129   7.050
 9173POPC   C4A74166  17.511  36.141   7.350
 9173POPC   C1B74167  17.580  36.360   6.450
 9173POPC   C2B74168  17.602  36.329   6.750
 9173POPC   C3B74169  17.547  36.354   7.050
 9173POPC   C4B74170  17.628  36.324   7.350
 9174POPC   NC374171   1.256  16.709   5.550
 9174POPC   PO474172   1.170  16.684   5.850
 9174POPC   GL174173   1.220  16.728   6.150
 9174POPC   GL274174   1.132  16.733   6.150
 9174POPC   C1A74175   1.232  16.717   6.450
 9174POPC   D2A74176   1.178  16.705   6.750
 9174POPC   C3A74177   1.209  16.757   7.050
 9174POPC   C4A74178   1.239  16.685   7.350
 9174POPC   C1B74179   1.003  16.740   6.450
 9174POPC   C2B74180   0.972  16.736   6.750
 9174POPC   C3B74181   0.962  16.670   7.050
 9174POPC   C4B74182   0.998  16.710   7.350
 9175POPC   NC374183  15.987  22.199   5.550
 9175POPC   PO474184  15.984  22.115   5.850
 9175POPC   GL174185  15.997  22.177   6.150
 9175POPC   GL274186  15.864  22.026   6.150
 9175POPC   C1A74187  16.000  22.176   6.450
 9175POPC   D2A74188  16.003  22.157   6.750
 9175POPC   C3A74189  15.968  22.149   7.050
 9175POPC   C4A74190  15.950  22.159   7.350
 9175POPC   C1B74191  15.856  21.962   6.450
 9175POPC   C2B74192  15.859  21.939   6.750
 9175POPC   C3B74193  15.807  21.911   7.050
 9175POPC   C4B74194  15.893  21.946   7.350
 9176POPC   NC374195  28.391   1.220   5.550
 9176POPC   PO474196  28.382   1.236   5.850
 9176POPC   GL174197  28.411   1.226   6.150
 9176POPC   GL274198  28.303   1.171   6.150
 9176POPC   C1A74199  28.369   1.212   6.450
 9176POPC   D2A74200  28.397   1.215   6.750
 9176POPC   C3A74201  28.354   1.262   7.050
 9176POPC   C4A74202  28.410   1.217   7.350
 9176POPC   C1B74203  28.191   1.042   6.450
 9176POPC   C2B74204  28.209   1.048   6.750
 9176POPC   C3B74205  28.154   1.031   7.050
 9176POPC   C4B74206  28.146   1.029   7.350
 9177POPC   NC374207  38.500  25.278   5.550
 9177POPC   PO474208  38.445  25.285   5.850
 9177POPC   GL174209  38.481  25.309   6.150
 9177POPC   GL274210  38.320  25.329   6.150
 9177POPC   C1A74211  38.477  25.221   6.450
 9177POPC   D2A74212  38.455  25.245   6.750
 9177POPC   C3A74213  38.418  25.272   7.050
 9177POPC   C4A74214  38.441  25.308   7.350
 9177POPC   C1B74215  38.184  25.339   6.450
 9177POPC   C2B74216  38.231  25.281   6.750
 9177POPC   C3B74217  38.218  25.304   7.050
 9177POPC   C4B74218  38.192  25.318   7.350
 9178POPC   NC374219  19.034  40.777   5.550
 9178POPC   PO474220  19.013  40.763   5.850
 9178POPC   GL174221  19.103  40.832   6.150
 9178POPC   GL274222  18.955  40.740   6.150
 9178POPC   C1A74223  19.067  40.761   6.450
 9178POPC   D2A74224  19.068  40.752   6.750
 9178POPC   C3A74225  19.060  40.771   7.050
 9178POPC   C4A74226  19.049  40.758   7.350
 9178POPC   C1B74227  18.904  40.625   6.450
 9178POPC   C2B74228  18.894  40.644   6.750
 9178POPC   C3B74229  18.904  40.607   7.050
 9178POPC   C4B74230  18.880  40.618   7.350
 9179POPC   NC374231  43.906  40.750   5.550
 9179POPC   PO474232  43.875  40.774   5.850
 9179POPC   GL174233  43.843  40.830   6.150
 9179POPC   GL274234  43.845  40.705   6.150
 9179POPC   C1A74235  43.902  40.738   6.450
 9179POPC   D2A74236  43.910  40.819   6.750
 9179POPC   C3A74237  43.904  40.740   7.050
 9179POPC   C4A74238  43.881  40.739   7.350
 9179POPC   C1B74239  43.691  40.618   6.450
 9179POPC   C2B74240  43.741  40.577   6.750
 9179POPC   C3B74241  43.754  40.623   7.050
 9179POPC   C4B74242  43.686  40.553   7.350
 9180POPC   NC374243  26.857  28.400   5.550
 9180POPC   PO474244  26.848  28.335   5.850
 9180POPC   GL174245  26.858  28.331   6.150
 9180POPC   GL274246  26.838  28.259   6.150
 9180POPC   C1A74247  26.789  28.370   6.450
 9180POPC   D2A74248  26.797  28.366   6.750
 9180POPC   C3A74249  26.796  28.412   7.050
 9180POPC   C4A74250  26.793  28.321   7.350
 9180POPC   C1B74251  26.954  28.126   6.450
 9180POPC   C2B74252  26.929  28.133   6.750
 9180POPC   C3B74253  26.982  28.118   7.050
 9180POPC   C4B74254  26.998  28.206   7.350
 9181POPC   NC374255  18.291  20.600   5.550
 9181POPC   PO474256  18.316  20.566   5.850
 9181POPC   GL174257  18.239  20.620   6.150
 9181POPC   GL274258  18.153  20.610   6.150
 9181POPC   C1A74259  18.324  20.607   6.450
 9181POPC   D2A74260  18.269  20.609   6.750
 9181POPC   C3A74261  18.270  20.596   7.050
 9181POPC   C4A74262  18.248  20.650   7.350
 9181POPC   C1B74263  18.080  20.521   6.450
 9181POPC   C2B74264  18.056  20.561   6.750
 9181POPC   C3B74265  18.002  20.578   7.050
 9181POPC   C4B74266  17.990  20.599   7.350
 9182POPC   NC374267  25.253  13.664   5.550
 9182POPC   PO474268  25.253  13.661   5.850
 9182POPC   GL174269  25.247  13.611   6.150
 9182POPC   GL274270  25.315  13.774   6.150
 9182POPC   C1A74271  25.223  13.653   6.450
 9182POPC   D2A74272  25.306  13.598   6.750
 9182POPC   C3A74273  25.245  13.603   7.050
 9182POPC   C4A74274  25.277  13.654   7.350
 9182POPC   C1B74275  25.379  13.818   6.450
 9182POPC   C2B74276  25.412  13.855   6.750
 9182POPC   C3B74277  25.375  13.828   7.050
 9182POPC   C4B74278  25.380  13.807   7.350
 9183POPC   NC374279  20.635  38.493   5.550
 9183POPC   PO474280  20.599  38.458   5.850
 9183POPC   GL174281  20.652  38.454   6.150
 9183POPC   GL274282  20.604  38.296   6.150
 9183POPC   C1A74283  20.575  38.478   6.450
 9183POPC   D2A74284  20.648  38.434   6.750
 9183POPC   C3A74285  20.637  38.424   7.050
 9183POPC   C4A74286  20.640  38.446   7.350
 9183POPC   C1B74287  20.592  38.205   6.450
 9183POPC   C2B74288  20.622  38.228   6.750
 9183POPC   C3B74289  20.575  38.209   7.050
 9183POPC   C4B74290  20.597  38.173   7.350
 9184POPC   NC374291   9.768  32.249   5.550
 9184POPC   PO474292   9.783  32.214   5.850
 9184POPC   GL174293   9.797  32.237   6.150
 9184POPC   GL274294   9.748  32.364   6.150
 9184POPC   C1A74295   9.769  32.249   6.450
 9184POPC   D2A74296   9.768  32.202   6.750
 9184POPC   C3A74297   9.737  32.294   7.050
 9184POPC   C4A74298   9.783  32.217   7.350
 9184POPC   C1B74299   9.857  32.440   6.450
 9184POPC   C2B74300   9.776  32.526   6.750
 9184POPC   C3B74301   9.774  32.500   7.050
 9184POPC   C4B74302   9.860  32.518   7.350
 9185POPC   NC374303  23.666   1.992   5.550
 9185POPC   PO474304  23.732   1.976   5.850
 9185POPC   GL174305  23.666   1.996   6.150
 9185POPC   GL274306  23.751   2.107   6.150
 9185POPC   C1A74307  23.737   1.977   6.450
 9185POPC   D2A74308  23.669   2.007   6.750
 9185POPC   C3A74309  23.733   1.996   7.050
 9185POPC   C4A74310  23.669   2.008   7.350
 9185POPC   C1B74311  23.733   2.242   6.450
 9185POPC   C2B74312  23.750   2.223   6.750
 9185POPC   C3B74313  23.787   2.202   7.050
 9185POPC   C4B74314  23.810   2.212   7.350
 9186POPC   NC374315  21.360  41.552   5.550
 9186POPC   PO474316  21.393  41.559   5.850
 9186POPC   GL174317  21.382  41.556   6.150
 9186POPC   GL274318  21.291  41.618   6.150
 9186POPC   C1A74319  21.433  41.524   6.450
 9186POPC   D2A74320  21.345  41.608   6.750
 9186POPC   C3A74321  21.368  41.512   7.050
 9186POPC   C4A74322  21.409  41.513   7.350
 9186POPC   C1B74323  21.136  41.662   6.450
 9186POPC   C2B74324  21.199  41.716   6.750
 9186POPC   C3B74325  21.178  41.665   7.050
 9186POPC   C4B74326  21.214  41.689   7.350
 9187POPC   NC374327  37.712   4.271   5.550
 9187POPC   PO474328  37.643   4.307   5.850
 9187POPC   GL174329  37.714   4.322   6.150
 9187POPC   GL274330  37.804   4.250   6.150
 9187POPC   C1A74331  37.639   4.354   6.450
 9187POPC   D2A74332  37.682   4.317   6.750
 9187POPC   C3A74333  37.677   4.323   7.050
 9187POPC   C4A74334  37.717   4.321   7.350
 9187POPC   C1B74335  37.850   4.138   6.450
 9187POPC   C2B74336  37.889   4.160   6.750
 9187POPC   C3B74337  37.826   4.122   7.050
 9187POPC   C4B74338  37.874   4.161   7.350
 9188POPC   NC374339  15.975  11.348   5.550
 9188POPC   PO474340  16.000  11.298   5.850
 9188POPC   GL174341  15.951  11.270   6.150
 9188POPC   GL274342  15.887  11.450   6.150
 9188POPC   C1A74343  15.996  11.332   6.450
 9188POPC   D2A74344  15.912  11.267   6.750
 9188POPC   C3A74345  15.970  11.325   7.050
 9188POPC   C4A74346  15.915  11.309   7.350
 9188POPC   C1B74347  15.795  11.513   6.450
 9188POPC   C2B74348  15.869  11.525   6.750
 9188POPC   C3B74349  15.819  11.553   7.050
 9188POPC   C4B74350  15.872  11.535   7.350
 9189POPC   NC374351  39.996   2.733   5.550
 9189POPC   PO474352  39.973   2.741   5.850
 9189POPC   GL174353  40.045   2.776   6.150
 9189POPC   GL274354  40.113   2.883   6.150
 9189POPC   C1A74355  39.973   2.720   6.450
 9189POPC   D2A74356  39.972   2.730   6.750
 9189POPC   C3A74357  39.968   2.796   7.050
 9189POPC   C4A74358  39.960   2.732   7.350
 9189POPC   C1B74359  40.188   3.022   6.450
 9189POPC   C2B74360  40.169   3.014   6.750
 9189POPC   C3B74361  40.107   2.962   7.050
 9189POPC   C4B74362  40.159   2.965   7.350
 9190POPC   NC374363  29.889  30.691   5.550
 9190POPC   PO474364  29.938  30.647   5.850
 9190POPC   GL174365  29.954  30.690   6.150
 9190POPC   GL274366  29.803  30.591   6.150
 9190POPC   C1A74367  29.885  30.710   6.450
 9190POPC   D2A74368  29.950  30.710   6.750
 9190POPC   C3A74369  29.884  30.720   7.050
 9190POPC   C4A74370  29.881  30.717   7.350
 9190POPC   C1B74371  29.753  30.554   6.450
 9190POPC   C2B74372  29.700  30.533   6.750
 9190POPC   C3B74373  29.758  30.555   7.050
 9190POPC   C4B74374  29.738  30.527   7.350
 9191POPC   NC374375  20.656   0.445   5.550
 9191POPC   PO474376  20.643   0.416   5.850
 9191POPC   GL174377  20.571   0.403   6.150
 9191POPC   GL274378  20.492   0.538   6.150
 9191POPC   C1A74379  20.591   0.390   6.450
 9191POPC   D2A74380  20.635   0.488   6.750
 9191POPC   C3A74381  20.601   0.455   7.050
 9191POPC   C4A74382  20.627   0.429   7.350
 9191POPC   C1B74383  20.396   0.605   6.450
 9191POPC   C2B74384  20.414   0.614   6.750
 9191POPC   C3B74385  20.463   0.625   7.050
 9191POPC   C4B74386  20.426   0.639   7.350
 9192POPC   NC374387  26.058   4.309   5.550
 9192POPC   PO474388  26.018   4.323   5.850
 9192POPC   GL174389  26.078   4.287   6.150
 9192POPC   GL274390  25.901   4.274   6.150
 9192POPC   C1A74391  25.997   4.318   6.450
 9192POPC   D2A74392  26.002   4.306   6.750
 9192POPC   C3A74393  26.050   4.332   7.050
 9192POPC   C4A74394  26.054   4.271   7.350
 9192POPC   C1B74395  25.788   4.261   6.450
 9192POPC   C2B74396  25.831   4.283   6.750
 9192POPC   C3B74397  25.825   4.271   7.050
 9192POPC   C4B74398  25.805   4.283   7.350
 9193POPC   NC374399   5.884  12.868   5.550
 9193POPC   PO474400   5.889  12.876   5.850
 9193POPC   GL174401   5.853  12.813   6.150
 9193POPC   GL274402   5.913  12.767   6.150
 9193POPC   C1A74403   5.894  12.880   6.450
 9193POPC   D2A74404   5.820  12.854   6.750
 9193POPC   C3A74405   5.881  12.890   7.050
 9193POPC   C4A74406   5.830  12.868   7.350
 9193POPC   C1B74407   5.970  12.662   6.450
 9193POPC   C2B74408   5.977  12.628   6.750
 9193POPC   C3B74409   5.976  12.638   7.050
 9193POPC   C4B74410   5.946  12.669   7.350
 9194POPC   NC374411  43.874   3.496   5.550
 9194POPC   PO474412  43.887   3.555   5.850
 9194POPC   GL174413  43.906   3.501   6.150
 9194POPC   GL274414  43.889   3.389   6.150
 9194POPC   C1A74415  43.892   3.501   6.450
 9194POPC   D2A74416  43.931   3.525   6.750
 9194POPC   C3A74417  43.870   3.537   7.050
 9194POPC   C4A74418  43.871   3.582   7.350
 9194POPC   C1B74419  43.929   3.282   6.450
 9194POPC   C2B74420  43.861   3.283   6.750
 9194POPC   C3B74421  43.949   3.252   7.050
 9194POPC   C4B74422  43.877   3.271   7.350
 9195POPC   NC374423  13.654  34.572   5.550
 9195POPC   PO474424  13.627  34.553   5.850
 9195POPC   GL174425  13.599  34.565   6.150
 9195POPC   GL274426  13.508  34.563   6.150
 9195POPC   C1A74427  13.664  34.546   6.450
 9195POPC   D2A74428  13.673  34.603   6.750
 9195POPC   C3A74429  13.606  34.531   7.050
 9195POPC   C4A74430  13.605  34.587   7.350
 9195POPC   C1B74431  13.422  34.657   6.450
 9195POPC   C2B74432  13.384  34.663   6.750
 9195POPC   C3B74433  13.403  34.608   7.050
 9195POPC   C4B74434  13.337  34.642   7.350
 9196POPC   NC374435  12.035  19.868   5.550
 9196POPC   PO474436  12.109  19.860   5.850
 9196POPC   GL174437  12.083  19.785   6.150
 9196POPC   GL274438  11.971  19.748   6.150
 9196POPC   C1A74439  12.059  19.786   6.450
 9196POPC   D2A74440  12.122  19.817   6.750
 9196POPC   C3A74441  12.057  19.860   7.050
 9196POPC   C4A74442  12.101  19.858   7.350
 9196POPC   C1B74443  11.866  19.661   6.450
 9196POPC   C2B74444  11.914  19.656   6.750
 9196POPC   C3B74445  11.913  19.681   7.050
 9196POPC   C4B74446  11.878  19.725   7.350
 9197POPC   NC374447  15.926  10.560   5.550
 9197POPC   PO474448  15.909  10.507   5.850
 9197POPC   GL174449  15.940  10.539   6.150
 9197POPC   GL274450  16.077  10.600   6.150
 9197POPC   C1A74451  15.945  10.536   6.450
 9197POPC   D2A74452  15.997  10.509   6.750
 9197POPC   C3A74453  15.939  10.564   7.050
 9197POPC   C4A74454  15.978  10.513   7.350
 9197POPC   C1B74455  16.199  10.600   6.450
 9197POPC   C2B74456  16.152  10.618   6.750
 9197POPC   C3B74457  16.149  10.584   7.050
 9197POPC   C4B74458  16.165  10.576   7.350
 9198POPC   NC374459   1.943  34.622   5.550
 9198POPC   PO474460   2.039  34.534   5.850
 9198POPC   GL174461   2.002  34.612   6.150
 9198POPC   GL274462   1.935  34.703   6.150
 9198POPC   C1A74463   1.994  34.581   6.450
 9198POPC   D2A74464   1.968  34.596   6.750
 9198POPC   C3A74465   1.981  34.548   7.050
 9198POPC   C4A74466   1.970  34.558   7.350
 9198POPC   C1B74467   1.831  34.779   6.450
 9198POPC   C2B74468   1.759  34.767   6.750
 9198POPC   C3B74469   1.762  34.765   7.050
 9198POPC   C4B74470   1.829  34.783   7.350
 9199POPC   NC374471   9.016  12.816   5.550
 9199POPC   PO474472   8.961  12.900   5.850
 9199POPC   GL174473   9.015  12.838   6.150
 9199POPC   GL274474   9.108  12.949   6.150
 9199POPC   C1A74475   8.924  12.900   6.450
 9199POPC   D2A74476   8.960  12.839   6.750
 9199POPC   C3A74477   8.980  12.824   7.050
 9199POPC   C4A74478   9.011  12.809   7.350
 9199POPC   C1B74479   9.195  13.007   6.450
 9199POPC   C2B74480   9.147  13.001   6.750
 9199POPC   C3B74481   9.188  12.943   7.050
 9199POPC   C4B74482   9.160  12.983   7.350
 9200POPC   NC374483  17.485  12.825   5.550
 9200POPC   PO474484  17.462  12.806   5.850
 9200POPC   GL174485  17.498  12.886   6.150
 9200POPC   GL274486  17.529  12.953   6.150
 9200POPC   C1A74487  17.520  12.871   6.450
 9200POPC   D2A74488  17.504  12.822   6.750
 9200POPC   C3A74489  17.465  12.886   7.050
 9200POPC   C4A74490  17.496  12.824   7.350
 9200POPC   C1B74491  17.512  13.139   6.450
 9200POPC   C2B74492  17.582  13.106   6.750
 9200POPC   C3B74493  17.524  13.077   7.050
 9200POPC   C4B74494  17.568  13.061   7.350
 9201POPC   NC374495  44.670  22.904   5.550
 9201POPC   PO474496  44.618  22.908   5.850
 9201POPC   GL174497  44.661  22.985   6.150
 9201POPC   GL274498  44.553  22.845   6.150
 9201POPC   C1A74499  44.619  22.982   6.450
 9201POPC   D2A74500  44.641  22.985   6.750
 9201POPC   C3A74501  44.701  22.889   7.050
 9201POPC   C4A74502  44.662  22.942   7.350
 9201POPC   C1B74503  44.573  22.707   6.450
 9201POPC   C2B74504  44.515  22.768   6.750
 9201POPC   C3B74505  44.565  22.712   7.050
 9201POPC   C4B74506  44.553  22.759   7.350
 9202POPC   NC374507  24.458  29.168   5.550
 9202POPC   PO474508  24.479  29.192   5.850
 9202POPC   GL174509  24.497  29.101   6.150
 9202POPC   GL274510  24.546  29.097   6.150
 9202POPC   C1A74511  24.451  29.133   6.450
 9202POPC   D2A74512  24.536  29.135   6.750
 9202POPC   C3A74513  24.529  29.189   7.050
 9202POPC   C4A74514  24.489  29.154   7.350
 9202POPC   C1B74515  24.699  29.029   6.450
 9202POPC   C2B74516  24.684  28.969   6.750
 9202POPC   C3B74517  24.679  28.992   7.050
 9202POPC   C4B74518  24.710  29.012   7.350
 9203POPC   NC374519  11.320   9.745   5.550
 9203POPC   PO474520  11.264   9.780   5.850
 9203POPC   GL174521  11.336   9.773   6.150
 9203POPC   GL274522  11.312   9.648   6.150
 9203POPC   C1A74523  11.284   9.771   6.450
 9203POPC   D2A74524  11.294   9.739   6.750
 9203POPC   C3A74525  11.253   9.795   7.050
 9203POPC   C4A74526  11.261   9.740   7.350
 9203POPC   C1B74527  11.291   9.545   6.450
 9203POPC   C2B74528  11.321   9.548   6.750
 9203POPC   C3B74529  11.252   9.470   7.050
 9203POPC   C4B74530  11.309   9.516   7.350
 9204POPC   NC374531  24.468  10.496   5.550
 9204POPC   PO474532  24.515  10.513   5.850
 9204POPC   GL174533  24.538  10.531   6.150
 9204POPC   GL274534  24.535  10.466   6.150
 9204POPC   C1A74535  24.503  10.518   6.450
 9204POPC   D2A74536  24.527  10.538   6.750
 9204POPC   C3A74537  24.502  10.564   7.050
 9204POPC   C4A74538  24.457  10.514   7.350
 9204POPC   C1B74539  24.644  10.309   6.450
 9204POPC   C2B74540  24.671  10.343   6.750
 9204POPC   C3B74541  24.638  10.332   7.050
 9204POPC   C4B74542  24.622  10.335   7.350
 9205POPC   NC374543   5.907  35.345   5.550
 9205POPC   PO474544   5.836  35.342   5.850
 9205POPC   GL174545   5.839  35.328   6.150
 9205POPC   GL274546   5.965  35.416   6.150
 9205POPC   C1A74547   5.843  35.337   6.450
 9205POPC   D2A74548   5.826  35.362   6.750
 9205POPC   C3A74549   5.878  35.358   7.050
 9205POPC   C4A74550   5.827  35.310   7.350
 9205POPC   C1B74551   6.043  35.457   6.450
 9205POPC   C2B74552   6.083  35.532   6.750
 9205POPC   C3B74553   6.102  35.464   7.050
 9205POPC   C4B74554   6.064  35.519   7.350
 9206POPC   NC374555  36.949  16.687   5.550
 9206POPC   PO474556  36.952  16.695   5.850
 9206POPC   GL174557  36.935  16.716   6.150
 9206POPC   GL274558  36.752  16.753   6.150
 9206POPC   C1A74559  36.875  16.695   6.450
 9206POPC   D2A74560  36.883  16.773   6.750
 9206POPC   C3A74561  36.864  16.697   7.050
 9206POPC   C4A74562  36.879  16.777   7.350
 9206POPC   C1B74563  36.646  16.806   6.450
 9206POPC   C2B74564  36.698  16.844   6.750
 9206POPC   C3B74565  36.668  16.833   7.050
 9206POPC   C4B74566  36.644  16.766   7.350
 9207POPC   NC374567   8.234  37.727   5.550
 9207POPC   PO474568   8.179  37.634   5.850
 9207POPC   GL174569   8.234  37.652   6.150
 9207POPC   GL274570   8.228  37.552   6.150
 9207POPC   C1A74571   8.157  37.635   6.450
 9207POPC   D2A74572   8.180  37.677   6.750
 9207POPC   C3A74573   8.164  37.655   7.050
 9207POPC   C4A74574   8.221  37.633   7.350
 9207POPC   C1B74575   8.262  37.456   6.450
 9207POPC   C2B74576   8.264  37.444   6.750
 9207POPC   C3B74577   8.318  37.413   7.050
 9207POPC   C4B74578   8.283  37.411   7.350
 9208POPC   NC374579   3.563  10.525   5.550
 9208POPC   PO474580   3.501  10.542   5.850
 9208POPC   GL174581   3.525  10.512   6.150
 9208POPC   GL274582   3.503  10.392   6.150
 9208POPC   C1A74583   3.500  10.559   6.450
 9208POPC   D2A74584   3.591  10.534   6.750
 9208POPC   C3A74585   3.501  10.571   7.050
 9208POPC   C4A74586   3.521  10.556   7.350
 9208POPC   C1B74587   3.510  10.279   6.450
 9208POPC   C2B74588   3.561  10.309   6.750
 9208POPC   C3B74589   3.555  10.278   7.050
 9208POPC   C4B74590   3.546  10.263   7.350
 9209POPC   NC374591   5.910  19.105   5.550
 9209POPC   PO474592   5.895  19.050   5.850
 9209POPC   GL174593   5.878  19.032   6.150
 9209POPC   GL274594   5.855  19.188   6.150
 9209POPC   C1A74595   5.864  19.054   6.450
 9209POPC   D2A74596   5.821  19.106   6.750
 9209POPC   C3A74597   5.859  19.041   7.050
 9209POPC   C4A74598   5.844  19.067   7.350
 9209POPC   C1B74599   5.768  19.313   6.450
 9209POPC   C2B74600   5.781  19.277   6.750
 9209POPC   C3B74601   5.732  19.295   7.050
 9209POPC   C4B74602   5.708  19.306   7.350
 9210POPC   NC374603  15.908   6.616   5.550
 9210POPC   PO474604  15.918   6.609   5.850
 9210POPC   GL174605  15.997   6.681   6.150
 9210POPC   GL274606  15.841   6.560   6.150
 9210POPC   C1A74607  15.996   6.618   6.450
 9210POPC   D2A74608  15.914   6.674   6.750
 9210POPC   C3A74609  15.972   6.611   7.050
 9210POPC   C4A74610  15.911   6.632   7.350
 9210POPC   C1B74611  15.752   6.411   6.450
 9210POPC   C2B74612  15.747   6.457   6.750
 9210POPC   C3B74613  15.782   6.449   7.050
 9210POPC   C4B74614  15.811   6.446   7.350
 9211POPC   NC374615  28.353  19.094   5.550
 9211POPC   PO474616  28.339  19.092   5.850
 9211POPC   GL174617  28.375  19.043   6.150
 9211POPC   GL274618  28.243  19.076   6.150
 9211POPC   C1A74619  28.330  19.028   6.450
 9211POPC   D2A74620  28.353  19.097   6.750
 9211POPC   C3A74621  28.396  19.069   7.050
 9211POPC   C4A74622  28.379  19.084   7.350
 9211POPC   C1B74623  28.107  19.130   6.450
 9211POPC   C2B74624  28.185  19.209   6.750
 9211POPC   C3B74625  28.110  19.194   7.050
 9211POPC   C4B74626  28.123  19.152   7.350
 9212POPC   NC374627  44.695  11.315   5.550
 9212POPC   PO474628  44.709  11.255   5.850
 9212POPC   GL174629  44.667  11.309   6.150
 9212POPC   GL274630  44.569  11.364   6.150
 9212POPC   C1A74631  44.627  11.264   6.450
 9212POPC   D2A74632  44.645  11.283   6.750
 9212POPC   C3A74633  44.685  11.265   7.050
 9212POPC   C4A74634  44.667  11.255   7.350
 9212POPC   C1B74635  44.456  11.396   6.450
 9212POPC   C2B74636  44.391  11.364   6.750
 9212POPC   C3B74637  44.455  11.387   7.050
 9212POPC   C4B74638  44.454  11.365   7.350
 9213POPC   NC374639  21.410  42.347   5.550
 9213POPC   PO474640  21.403  42.310   5.850
 9213POPC   GL174641  21.381  42.344   6.150
 9213POPC   GL274642  21.517  42.361   6.150
 9213POPC   C1A74643  21.344  42.295   6.450
 9213POPC   D2A74644  21.420  42.287   6.750
 9213POPC   C3A74645  21.432  42.315   7.050
 9213POPC   C4A74646  21.430  42.353   7.350
 9213POPC   C1B74647  21.575  42.438   6.450
 9213POPC   C2B74648  21.582  42.411   6.750
 9213POPC   C3B74649  21.619  42.429   7.050
 9213POPC   C4B74650  21.558  42.446   7.350
 9214POPC   NC374651  29.140  23.721   5.550
 9214POPC   PO474652  29.162  23.738   5.850
 9214POPC   GL174653  29.154  23.723   6.150
 9214POPC   GL274654  29.244  23.661   6.150
 9214POPC   C1A74655  29.130  23.703   6.450
 9214POPC   D2A74656  29.148  23.715   6.750
 9214POPC   C3A74657  29.175  23.669   7.050
 9214POPC   C4A74658  29.098  23.682   7.350
 9214POPC   C1B74659  29.365  23.706   6.450
 9214POPC   C2B74660  29.368  23.746   6.750
 9214POPC   C3B74661  29.442  23.756   7.050
 9214POPC   C4B74662  29.347  23.692   7.350
 9215POPC   NC374663   6.634  10.541   5.550
 9215POPC   PO474664   6.634  10.515   5.850
 9215POPC   GL174665   6.635  10.502   6.150
 9215POPC   GL274666   6.754  10.577   6.150
 9215POPC   C1A74667   6.684  10.508   6.450
 9215POPC   D2A74668   6.691  10.530   6.750
 9215POPC   C3A74669   6.621  10.570   7.050
 9215POPC   C4A74670   6.664  10.510   7.350
 9215POPC   C1B74671   6.802  10.688   6.450
 9215POPC   C2B74672   6.771  10.712   6.750
 9215POPC   C3B74673   6.827  10.698   7.050
 9215POPC   C4B74674   6.800  10.740   7.350
 9216POPC   NC374675   7.450  37.654   5.550
 9216POPC   PO474676   7.421  37.684   5.850
 9216POPC   GL174677   7.371  37.663   6.150
 9216POPC   GL274678   7.384  37.613   6.150
 9216POPC   C1A74679   7.404  37.654   6.450
 9216POPC   D2A74680   7.404  37.696   6.750
 9216POPC   C3A74681   7.456  37.647   7.050
 9216POPC   C4A74682   7.466  37.694   7.350
 9216POPC   C1B74683   7.316  37.499   6.450
 9216POPC   C2B74684   7.268  37.457   6.750
 9216POPC   C3B74685   7.290  37.501   7.050
 9216POPC   C4B74686   7.325  37.473   7.350
 9217POPC   NC374687  19.090   9.773   5.550
 9217POPC   PO474688  19.073   9.739   5.850
 9217POPC   GL174689  19.042   9.745   6.150
 9217POPC   GL274690  19.226   9.735   6.150
 9217POPC   C1A74691  19.094   9.699   6.450
 9217POPC   D2A74692  19.057   9.773   6.750
 9217POPC   C3A74693  19.025   9.699   7.050
 9217POPC   C4A74694  19.022   9.705   7.350
 9217POPC   C1B74695  19.304   9.747   6.450
 9217POPC   C2B74696  19.318   9.684   6.750
 9217POPC   C3B74697  19.260   9.697   7.050
 9217POPC   C4B74698  19.292   9.675   7.350
 9218POPC   NC374699  29.183   2.716   5.550
 9218POPC   PO474700  29.131   2.740   5.850
 9218POPC   GL174701  29.191   2.796   6.150
 9218POPC   GL274702  28.986   2.669   6.150
 9218POPC   C1A74703  29.189   2.759   6.450
 9218POPC   D2A74704  29.122   2.772   6.750
 9218POPC   C3A74705  29.101   2.753   7.050
 9218POPC   C4A74706  29.167   2.798   7.350
 9218POPC   C1B74707  28.903   2.679   6.450
 9218POPC   C2B74708  28.913   2.689   6.750
 9218POPC   C3B74709  28.903   2.632   7.050
 9218POPC   C4B74710  28.906   2.647   7.350
 9219POPC   NC374711  15.913  40.823   5.550
 9219POPC   PO474712  15.951  40.782   5.850
 9219POPC   GL174713  15.946  40.742   6.150
 9219POPC   GL274714  16.006  40.625   6.150
 9219POPC   C1A74715  15.996  40.789   6.450
 9219POPC   D2A74716  15.954  40.797   6.750
 9219POPC   C3A74717  15.924  40.803   7.050
 9219POPC   C4A74718  15.956  40.740   7.350
 9219POPC   C1B74719  15.954  40.553   6.450
 9219POPC   C2B74720  16.000  40.533   6.750
 9219POPC   C3B74721  15.947  40.583   7.050
 9219POPC   C4B74722  15.992  40.574   7.350
 9220POPC   NC374723   2.737  17.473   5.550
 9220POPC   PO474724   2.794  17.503   5.850
 9220POPC   GL174725   2.776  17.481   6.150
 9220POPC   GL274726   2.703  17.336   6.150
 9220POPC   C1A74727   2.757  17.554   6.450
 9220POPC   D2A74728   2.776  17.470   6.750
 9220POPC   C3A74729   2.788  17.506   7.050
 9220POPC   C4A74730   2.721  17.464   7.350
 9220POPC   C1B74731   2.675  17.256   6.450
 9220POPC   C2B74732   2.677  17.284   6.750
 9220POPC   C3B74733   2.710  17.231   7.050
 9220POPC   C4B74734   2.746  17.239   7.350
 9221POPC   NC374735   5.903  13.673   5.550
 9221POPC   PO474736   5.912  13.603   5.850
 9221POPC   GL174737   5.861  13.641   6.150
 9221POPC   GL274738   5.970  13.684   6.150
 9221POPC   C1A74739   5.846  13.603   6.450
 9221POPC   D2A74740   5.898  13.643   6.750
 9221POPC   C3A74741   5.827  13.621   7.050
 9221POPC   C4A74742   5.869  13.675   7.350
 9221POPC   C1B74743   6.091  13.643   6.450
 9221POPC   C2B74744   6.083  13.641   6.750
 9221POPC   C3B74745   6.094  13.681   7.050
 9221POPC   C4B74746   6.163  13.704   7.350
 9222POPC   NC374747   2.775  29.108   5.550
 9222POPC   PO474748   2.726  29.135   5.850
 9222POPC   GL174749   2.747  29.168   6.150
 9222POPC   GL274750   2.775  29.026   6.150
 9222POPC   C1A74751   2.771  29.163   6.450
 9222POPC   D2A74752   2.814  29.152   6.750
 9222POPC   C3A74753   2.801  29.101   7.050
 9222POPC   C4A74754   2.761  29.141   7.350
 9222POPC   C1B74755   2.849  28.897   6.450
 9222POPC   C2B74756   2.897  28.912   6.750
 9222POPC   C3B74757   2.806  28.920   7.050
 9222POPC   C4B74758   2.835  28.865   7.350
 9223POPC   NC374759  33.006  35.387   5.550
 9223POPC   PO474760  32.979  35.319   5.850
 9223POPC   GL174761  33.009  35.316   6.150
 9223POPC   GL274762  32.950  35.294   6.150
 9223POPC   C1A74763  33.054  35.306   6.450
 9223POPC   D2A74764  33.058  35.385   6.750
 9223POPC   C3A74765  33.074  35.388   7.050
 9223POPC   C4A74766  32.983  35.330   7.350
 9223POPC   C1B74767  32.747  35.324   6.450
 9223POPC   C2B74768  32.793  35.290   6.750
 9223POPC   C3B74769  32.744  35.328   7.050
 9223POPC   C4B74770  32.762  35.348   7.350
 9224POPC   NC374771  41.606  28.374   5.550
 9224POPC   PO474772  41.526  28.397   5.850
 9224POPC   GL174773  41.550  28.391   6.150
 9224POPC   GL274774  41.501  28.519   6.150
 9224POPC   C1A74775  41.529  28.419   6.450
 9224POPC   D2A74776  41.538  28.346   6.750
 9224POPC   C3A74777  41.595  28.366   7.050
 9224POPC   C4A74778  41.558  28.396   7.350
 9224POPC   C1B74779  41.448  28.606   6.450
 9224POPC   C2B74780  41.457  28.628   6.750
 9224POPC   C3B74781  41.383  28.575   7.050
 9224POPC   C4B74782  41.379  28.609   7.350
 9225POPC   NC374783  22.895  40.758   5.550
 9225POPC   PO474784  22.940  40.815   5.850
 9225POPC   GL174785  22.965  40.828   6.150
 9225POPC   GL274786  22.808  40.828   6.150
 9225POPC   C1A74787  22.893  40.772   6.450
 9225POPC   D2A74788  22.888  40.775   6.750
 9225POPC   C3A74789  22.946  40.809   7.050
 9225POPC   C4A74790  22.935  40.793   7.350
 9225POPC   C1B74791  22.686  40.823   6.450
 9225POPC   C2B74792  22.682  40.770   6.750
 9225POPC   C3B74793  22.720  40.779   7.050
 9225POPC   C4B74794  22.709  40.778   7.350
 9226POPC   NC374795  26.786   4.289   5.550
 9226POPC   PO474796  26.825   4.281   5.850
 9226POPC   GL174797  26.769   4.307   6.150
 9226POPC   GL274798  26.895   4.394   6.150
 9226POPC   C1A74799  26.767   4.286   6.450
 9226POPC   D2A74800  26.789   4.303   6.750
 9226POPC   C3A74801  26.768   4.319   7.050
 9226POPC   C4A74802  26.769   4.318   7.350
 9226POPC   C1B74803  27.033   4.433   6.450
 9226POPC   C2B74804  27.007   4.506   6.750
 9226POPC   C3B74805  27.054   4.474   7.050
 9226POPC   C4B74806  27.051   4.434   7.350
 9227POPC   NC374807  16.728  23.697   5.550
 9227POPC   PO474808  16.743  23.712   5.850
 9227POPC   GL174809  16.690  23.733   6.150
 9227POPC   GL274810  16.816  23.628   6.150
 9227POPC   C1A74811  16.690  23.723   6.450
 9227POPC   D2A74812  16.724  23.728   6.750
 9227POPC   C3A74813  16.741  23.740   7.050
 9227POPC   C4A74814  16.687  23.680   7.350
 9227POPC   C1B74815  16.960  23.562   6.450
 9227POPC   C2B74816  16.923  23.600   6.750
 9227POPC   C3B74817  17.001  23.637   7.050
 9227POPC   C4B74818  16.935  23.614   7.350
 9228POPC   NC374819  41.602  41.528   5.550
 9228POPC   PO474820  41.584  41.592   5.850
 9228POPC   GL174821  41.549  41.509   6.150
 9228POPC   GL274822  41.609  41.643   6.150
 9228POPC   C1A74823  41.569  41.581   6.450
 9228POPC   D2A74824  41.528  41.574   6.750
 9228POPC   C3A74825  41.575  41.535   7.050
 9228POPC   C4A74826  41.545  41.509   7.350
 9228POPC   C1B74827  41.719  41.749   6.450
 9228POPC   C2B74828  41.780  41.697   6.750
 9228POPC   C3B74829  41.734  41.681   7.050
 9228POPC   C4B74830  41.782  41.760   7.350
 9229POPC   NC374831  10.531  19.024   5.550
 9229POPC   PO474832  10.527  19.074   5.850
 9229POPC   GL174833  10.476  19.061   6.150
 9229POPC   GL274834  10.461  18.954   6.150
 9229POPC   C1A74835  10.520  19.037   6.450
 9229POPC   D2A74836  10.524  19.082   6.750
 9229POPC   C3A74837  10.529  19.027   7.050
 9229POPC   C4A74838  10.540  19.069   7.350
 9229POPC   C1B74839  10.331  18.942   6.450
 9229POPC   C2B74840  10.284  18.982   6.750
 9229POPC   C3B74841  10.347  18.944   7.050
 9229POPC   C4B74842  10.311  18.952   7.350
 9230POPC   NC374843  33.010  26.090   5.550
 9230POPC   PO474844  33.047  26.068   5.850
 9230POPC   GL174845  33.064  26.053   6.150
 9230POPC   GL274846  33.040  26.195   6.150
 9230POPC   C1A74847  33.016  26.012   6.450
 9230POPC   D2A74848  33.018  26.059   6.750
 9230POPC   C3A74849  33.052  26.023   7.050
 9230POPC   C4A74850  32.979  26.003   7.350
 9230POPC   C1B74851  32.929  26.254   6.450
 9230POPC   C2B74852  32.996  26.273   6.750
 9230POPC   C3B74853  33.009  26.279   7.050
 9230POPC   C4B74854  32.968  26.297   7.350
 9231POPC   NC374855  39.245  24.519   5.550
 9231POPC   PO474856  39.225  24.514   5.850
 9231POPC   GL174857  39.184  24.495   6.150
 9231POPC   GL274858  39.138  24.603   6.150
 9231POPC   C1A74859  39.256  24.449   6.450
 9231POPC   D2A74860  39.263  24.514   6.750
 9231POPC   C3A74861  39.236  24.514   7.050
 9231POPC   C4A74862  39.205  24.473   7.350
 9231POPC   C1B74863  39.142  24.687   6.450
 9231POPC   C2B74864  39.076  24.705   6.750
 9231POPC   C3B74865  39.119  24.728   7.050
 9231POPC   C4B74866  39.102  24.726   7.350
 9232POPC   NC374867  19.786  26.865   5.550
 9232POPC   PO474868  19.829  26.768   5.850
 9232POPC   GL174869  19.849  26.788   6.150
 9232POPC   GL274870  19.896  26.723   6.150
 9232POPC   C1A74871  19.856  26.816   6.450
 9232POPC   D2A74872  19.877  26.776   6.750
 9232POPC   C3A74873  19.809  26.776   7.050
 9232POPC   C4A74874  19.882  26.782   7.350
 9232POPC   C1B74875  19.908  26.563   6.450
 9232POPC   C2B74876  19.895  26.585   6.750
 9232POPC   C3B74877  19.869  26.600   7.050
 9232POPC   C4B74878  19.870  26.579   7.350
 9233POPC   NC374879  35.314  18.246   5.550
 9233POPC   PO474880  35.357  18.270   5.850
 9233POPC   GL174881  35.364  18.245   6.150
 9233POPC   GL274882  35.351  18.196   6.150
 9233POPC   C1A74883  35.379  18.267   6.450
 9233POPC   D2A74884  35.315  18.296   6.750
 9233POPC   C3A74885  35.392  18.285   7.050
 9233POPC   C4A74886  35.376  18.320   7.350
 9233POPC   C1B74887  35.362  17.998   6.450
 9233POPC   C2B74888  35.306  17.987   6.750
 9233POPC   C3B74889  35.307  18.026   7.050
 9233POPC   C4B74890  35.302  18.024   7.350
 9234POPC   NC374891  17.510   5.834   5.550
 9234POPC   PO474892  17.464   5.891   5.850
 9234POPC   GL174893  17.460   5.894   6.150
 9234POPC   GL274894  17.507   5.754   6.150
 9234POPC   C1A74895  17.534   5.840   6.450
 9234POPC   D2A74896  17.527   5.882   6.750
 9234POPC   C3A74897  17.541   5.834   7.050
 9234POPC   C4A74898  17.538   5.884   7.350
 9234POPC   C1B74899  17.570   5.677   6.450
 9234POPC   C2B74900  17.615   5.622   6.750
 9234POPC   C3B74901  17.536   5.629   7.050
 9234POPC   C4B74902  17.555   5.581   7.350
 9235POPC   NC374903  34.538  32.270   5.550
 9235POPC   PO474904  34.541  32.215   5.850
 9235POPC   GL174905  34.584  32.296   6.150
 9235POPC   GL274906  34.626  32.106   6.150
 9235POPC   C1A74907  34.597  32.282   6.450
 9235POPC   D2A74908  34.597  32.282   6.750
 9235POPC   C3A74909  34.558  32.282   7.050
 9235POPC   C4A74910  34.543  32.280   7.350
 9235POPC   C1B74911  34.663  32.048   6.450
 9235POPC   C2B74912  34.705  32.060   6.750
 9235POPC   C3B74913  34.720  32.012   7.050
 9235POPC   C4B74914  34.655  32.020   7.350
 9236POPC   NC374915  38.498  15.935   5.550
 9236POPC   PO474916  38.411  15.994   5.850
 9236POPC   GL174917  38.411  15.908   6.150
 9236POPC   GL274918  38.369  15.955   6.150
 9236POPC   C1A74919  38.481  15.921   6.450
 9236POPC   D2A74920  38.494  15.940   6.750
 9236POPC   C3A74921  38.406  15.991   7.050
 9236POPC   C4A74922  38.481  15.941   7.350
 9236POPC   C1B74923  38.239  15.962   6.450
 9236POPC   C2B74924  38.243  16.024   6.750
 9236POPC   C3B74925  38.247  15.981   7.050
 9236POPC   C4B74926  38.164  16.023   7.350
 9237POPC   NC374927  25.285   7.444   5.550
 9237POPC   PO474928  25.263   7.371   5.850
 9237POPC   GL174929  25.235   7.429   6.150
 9237POPC   GL274930  25.179   7.407   6.150
 9237POPC   C1A74931  25.306   7.386   6.450
 9237POPC   D2A74932  25.225   7.398   6.750
 9237POPC   C3A74933  25.300   7.467   7.050
 9237POPC   C4A74934  25.314   7.460   7.350
 9237POPC   C1B74935  25.023   7.397   6.450
 9237POPC   C2B74936  25.048   7.357   6.750
 9237POPC   C3B74937  24.977   7.379   7.050
 9237POPC   C4B74938  24.970   7.346   7.350
 9238POPC   NC374939  23.760  44.639   5.550
 9238POPC   PO474940  23.750  44.647   5.850
 9238POPC   GL174941  23.739  44.688   6.150
 9238POPC   GL274942  23.698  44.544   6.150
 9238POPC   C1A74943  23.698  44.649   6.450
 9238POPC   D2A74944  23.709  44.661   6.750
 9238POPC   C3A74945  23.667  44.665   7.050
 9238POPC   C4A74946  23.674  44.672   7.350
 9238POPC   C1B74947  23.802  44.436   6.450
 9238POPC   C2B74948  23.762  44.451   6.750
 9238POPC   C3B74949  23.826  44.393   7.050
 9238POPC   C4B74950  23.737  44.422   7.350
 9239POPC   NC374951   3.515  12.100   5.550
 9239POPC   PO474952   3.503  12.069   5.850
 9239POPC   GL174953   3.558  12.121   6.150
 9239POPC   GL274954   3.685  12.144   6.150
 9239POPC   C1A74955   3.576  12.029   6.450
 9239POPC   D2A74956   3.542  12.084   6.750
 9239POPC   C3A74957   3.520  12.100   7.050
 9239POPC   C4A74958   3.527  12.104   7.350
 9239POPC   C1B74959   3.788  12.103   6.450
 9239POPC   C2B74960   3.810  12.133   6.750
 9239POPC   C3B74961   3.762  12.113   7.050
 9239POPC   C4B74962   3.818  12.086   7.350
 9240POPC   NC374963  26.814  17.511   5.550
 9240POPC   PO474964  26.860  17.533   5.850
 9240POPC   GL174965  26.770  17.496   6.150
 9240POPC   GL274966  26.728  17.580   6.150
 9240POPC   C1A74967  26.857  17.550   6.450
 9240POPC   D2A74968  26.790  17.474   6.750
 9240POPC   C3A74969  26.828  17.505   7.050
 9240POPC   C4A74970  26.792  17.505   7.350
 9240POPC   C1B74971  26.662  17.735   6.450
 9240POPC   C2B74972  26.604  17.674   6.750
 9240POPC   C3B74973  26.638  17.717   7.050
 9240POPC   C4B74974  26.675  17.741   7.350
 9241POPC   NC374975  12.833  22.177   5.550
 9241POPC   PO474976  12.831  22.209   5.850
 9241POPC   GL174977  12.870  22.155   6.150
 9241POPC   GL274978  12.763  22.027   6.150
 9241POPC   C1A74979  12.892  22.171   6.450
 9241POPC   D2A74980  12.877  22.132   6.750
 9241POPC   C3A74981  12.830  22.165   7.050
 9241POPC   C4A74982  12.833  22.211   7.350
 9241POPC   C1B74983  12.715  21.978   6.450
 9241POPC   C2B74984  12.804  21.929   6.750
 9241POPC   C3B74985  12.774  21.948   7.050
 9241POPC   C4B74986  12.746  21.966   7.350
 9242POPC   NC374987  15.153  39.979   5.550
 9242POPC   PO474988  15.191  39.962   5.850
 9242POPC   GL174989  15.170  40.005   6.150
 9242POPC   GL274990  15.256  39.939   6.150
 9242POPC   C1A74991  15.187  39.975   6.450
 9242POPC   D2A74992  15.141  40.046   6.750
 9242POPC   C3A74993  15.191  39.960   7.050
 9242POPC   C4A74994  15.140  40.047   7.350
 9242POPC   C1B74995  15.355  39.889   6.450
 9242POPC   C2B74996  15.355  39.869   6.750
 9242POPC   C3B74997  15.444  39.906   7.050
 9242POPC   C4B74998  15.377  39.896   7.350
 9243POPC   NC374999  29.891  26.777   5.550
 9243POPC   PO475000  29.951  26.772   5.850
 9243POPC   GL175001  29.923  26.809   6.150
 9243POPC   GL275002  29.769  26.938   6.150
 9243POPC   C1A75003  29.936  26.817   6.450
 9243POPC   D2A75004  29.927  26.847   6.750
 9243POPC   C3A75005  29.967  26.772   7.050
 9243POPC   C4A75006  29.903  26.810   7.350
 9243POPC   C1B75007  29.700  26.932   6.450
 9243POPC   C2B75008  29.757  26.955   6.750
 9243POPC   C3B75009  29.755  26.937   7.050
 9243POPC   C4B75010  29.684  26.941   7.350
 9244POPC   NC375011   8.186  30.746   5.550
 9244POPC   PO475012   8.180  30.679   5.850
 9244POPC   GL175013   8.227  30.718   6.150
 9244POPC   GL275014   8.292  30.742   6.150
 9244POPC   C1A75015   8.176  30.651   6.450
 9244POPC   D2A75016   8.194  30.731   6.750
 9244POPC   C3A75017   8.172  30.691   7.050
 9244POPC   C4A75018   8.208  30.729   7.350
 9244POPC   C1B75019   8.424  30.840   6.450
 9244POPC   C2B75020   8.384  30.796   6.750
 9244POPC   C3B75021   8.402  30.880   7.050
 9244POPC   C4B75022   8.365  30.807   7.350
 9245POPC   NC375023   0.460  26.835   5.550
 9245POPC   PO475024   0.434  26.852   5.850
 9245POPC   GL175025   0.458  26.859   6.150
 9245POPC   GL275026   0.465  26.917   6.150
 9245POPC   C1A75027   0.459  26.818   6.450
 9245POPC   D2A75028   0.398  26.826   6.750
 9245POPC   C3A75029   0.482  26.815   7.050
 9245POPC   C4A75030   0.462  26.792   7.350
 9245POPC   C1B75031   0.595  27.043   6.450
 9245POPC   C2B75032   0.541  27.034   6.750
 9245POPC   C3B75033   0.555  27.062   7.050
 9245POPC   C4B75034   0.517  27.075   7.350
 9246POPC   NC375035  33.795  33.005   5.550
 9246POPC   PO475036  33.813  32.993   5.850
 9246POPC   GL175037  33.812  32.976   6.150
 9246POPC   GL275038  33.756  32.874   6.150
 9246POPC   C1A75039  33.821  33.035   6.450
 9246POPC   D2A75040  33.839  32.986   6.750
 9246POPC   C3A75041  33.769  33.007   7.050
 9246POPC   C4A75042  33.777  32.977   7.350
 9246POPC   C1B75043  33.657  32.823   6.450
 9246POPC   C2B75044  33.624  32.850   6.750
 9246POPC   C3B75045  33.676  32.829   7.050
 9246POPC   C4B75046  33.664  32.811   7.350
 9247POPC   NC375047  39.206  26.795   5.550
 9247POPC   PO475048  39.198  26.867   5.850
 9247POPC   GL175049  39.273  26.819   6.150
 9247POPC   GL275050  39.152  26.849   6.150
 9247POPC   C1A75051  39.260  26.806   6.450
 9247POPC   D2A75052  39.195  26.785   6.750
 9247POPC   C3A75053  39.230  26.808   7.050
 9247POPC   C4A75054  39.214  26.864   7.350
 9247POPC   C1B75055  39.044  26.954   6.450
 9247POPC   C2B75056  38.972  26.933   6.750
 9247POPC   C3B75057  39.014  26.874   7.050
 9247POPC   C4B75058  38.967  26.894   7.350
 9248POPC   NC375059   5.832  36.941   5.550
 9248POPC   PO475060   5.916  36.910   5.850
 9248POPC   GL175061   5.909  36.941   6.150
 9248POPC   GL275062   5.696  36.890   6.150
 9248POPC   C1A75063   5.904  36.928   6.450
 9248POPC   D2A75064   5.874  36.936   6.750
 9248POPC   C3A75065   5.896  36.881   7.050
 9248POPC   C4A75066   5.832  36.870   7.350
 9248POPC   C1B75067   5.622  36.980   6.450
 9248POPC   C2B75068   5.617  36.942   6.750
 9248POPC   C3B75069   5.630  36.910   7.050
 9248POPC   C4B75070   5.575  36.953   7.350
 9249POPC   NC375071  31.467  24.512   5.550
 9249POPC   PO475072  31.428  24.516   5.850
 9249POPC   GL175073  31.436  24.499   6.150
 9249POPC   GL275074  31.340  24.575   6.150
 9249POPC   C1A75075  31.433  24.537   6.450
 9249POPC   D2A75076  31.482  24.538   6.750
 9249POPC   C3A75077  31.465  24.500   7.050
 9249POPC   C4A75078  31.487  24.501   7.350
 9249POPC   C1B75079  31.275  24.578   6.450
 9249POPC   C2B75080  31.288  24.592   6.750
 9249POPC   C3B75081  31.295  24.576   7.050
 9249POPC   C4B75082  31.266  24.593   7.350
 9250POPC   NC375083   1.210   1.248   5.550
 9250POPC   PO475084   1.174   1.224   5.850
 9250POPC   GL175085   1.205   1.253   6.150
 9250POPC   GL275086   1.288   1.119   6.150
 9250POPC   C1A75087   1.196   1.215   6.450
 9250POPC   D2A75088   1.232   1.221   6.750
 9250POPC   C3A75089   1.197   1.196   7.050
 9250POPC   C4A75090   1.201   1.239   7.350
 9250POPC   C1B75091   1.414   1.156   6.450
 9250POPC   C2B75092   1.424   1.162   6.750
 9250POPC   C3B75093   1.439   1.109   7.050
 9250POPC   C4B75094   1.441   1.117   7.350
 9251POPC   NC375095   3.581  28.374   5.550
 9251POPC   PO475096   3.572  28.418   5.850
 9251POPC   GL175097   3.572  28.402   6.150
 9251POPC   GL275098   3.502  28.531   6.150
 9251POPC   C1A75099   3.493  28.370   6.450
 9251POPC   D2A75100   3.560  28.337   6.750
 9251POPC   C3A75101   3.492  28.352   7.050
 9251POPC   C4A75102   3.541  28.367   7.350
 9251POPC   C1B75103   3.502  28.572   6.450
 9251POPC   C2B75104   3.512  28.654   6.750
 9251POPC   C3B75105   3.559  28.634   7.050
 9251POPC   C4B75106   3.479  28.573   7.350
 9252POPC   NC375107  44.630  33.040   5.550
 9252POPC   PO475108  44.706  33.074   5.850
 9252POPC   GL175109  44.652  32.992   6.150
 9252POPC   GL275110  44.739  32.943   6.150
 9252POPC   C1A75111  44.659  33.040   6.450
 9252POPC   D2A75112  44.660  32.999   6.750
 9252POPC   C3A75113  44.690  32.975   7.050
 9252POPC   C4A75114  44.670  32.977   7.350
 9252POPC   C1B75115  44.714  32.768   6.450
 9252POPC   C2B75116  44.780  32.794   6.750
 9252POPC   C3B75117  44.739  32.766   7.050
 9252POPC   C4B75118  44.754  32.739   7.350
 9253POPC   NC375119  12.831  36.882   5.550
 9253POPC   PO475120  12.872  36.947   5.850
 9253POPC   GL175121  12.839  36.901   6.150
 9253POPC   GL275122  12.735  36.850   6.150
 9253POPC   C1A75123  12.872  36.909   6.450
 9253POPC   D2A75124  12.851  36.903   6.750
 9253POPC   C3A75125  12.853  36.884   7.050
 9253POPC   C4A75126  12.884  36.859   7.350
 9253POPC   C1B75127  12.653  36.693   6.450
 9253POPC   C2B75128  12.735  36.667   6.750
 9253POPC   C3B75129  12.693  36.678   7.050
 9253POPC   C4B75130  12.717  36.693   7.350
 9254POPC   NC375131  30.722   0.468   5.550
 9254POPC   PO475132  30.693   0.398   5.850
 9254POPC   GL175133  30.729   0.421   6.150
 9254POPC   GL275134  30.620   0.401   6.150
 9254POPC   C1A75135  30.700   0.465   6.450
 9254POPC   D2A75136  30.729   0.440   6.750
 9254POPC   C3A75137  30.691   0.467   7.050
 9254POPC   C4A75138  30.660   0.484   7.350
 9254POPC   C1B75139  30.446   0.255   6.450
 9254POPC   C2B75140  30.440   0.281   6.750
 9254POPC   C3B75141  30.506   0.274   7.050
 9254POPC   C4B75142  30.479   0.266   7.350
 9255POPC   NC375143   3.526  33.844   5.550
 9255POPC   PO475144   3.539  33.779   5.850
 9255POPC   GL175145   3.545  33.806   6.150
 9255POPC   GL275146   3.398  33.779   6.150
 9255POPC   C1A75147   3.502  33.815   6.450
 9255POPC   D2A75148   3.501  33.814   6.750
 9255POPC   C3A75149   3.545  33.771   7.050
 9255POPC   C4A75150   3.532  33.767   7.350
 9255POPC   C1B75151   3.294  33.792   6.450
 9255POPC   C2B75152   3.258  33.735   6.750
 9255POPC   C3B75153   3.244  33.760   7.050
 9255POPC   C4B75154   3.291  33.789   7.350
 9256POPC   NC375155   9.725  40.786   5.550
 9256POPC   PO475156   9.785  40.788   5.850
 9256POPC   GL175157   9.791  40.782   6.150
 9256POPC   GL275158   9.840  40.755   6.150
 9256POPC   C1A75159   9.760  40.771   6.450
 9256POPC   D2A75160   9.772  40.766   6.750
 9256POPC   C3A75161   9.721  40.824   7.050
 9256POPC   C4A75162   9.764  40.807   7.350
 9256POPC   C1B75163   9.971  40.818   6.450
 9256POPC   C2B75164  10.027  40.778   6.750
 9256POPC   C3B75165  10.030  40.830   7.050
 9256POPC   C4B75166   9.958  40.853   7.350
 9257POPC   NC375167  38.483  14.356   5.550
 9257POPC   PO475168  38.418  14.448   5.850
 9257POPC   GL175169  38.437  14.423   6.150
 9257POPC   GL275170  38.306  14.448   6.150
 9257POPC   C1A75171  38.469  14.433   6.450
 9257POPC   D2A75172  38.479  14.399   6.750
 9257POPC   C3A75173  38.412  14.398   7.050
 9257POPC   C4A75174  38.497  14.376   7.350
 9257POPC   C1B75175  38.215  14.418   6.450
 9257POPC   C2B75176  38.215  14.432   6.750
 9257POPC   C3B75177  38.245  14.448   7.050
 9257POPC   C4B75178  38.175  14.448   7.350
 9258POPC   NC375179  26.044   5.115   5.550
 9258POPC   PO475180  26.040   5.135   5.850
 9258POPC   GL175181  26.059   5.055   6.150
 9258POPC   GL275182  26.103   4.986   6.150
 9258POPC   C1A75183  26.062   5.099   6.450
 9258POPC   D2A75184  26.027   5.138   6.750
 9258POPC   C3A75185  26.018   5.078   7.050
 9258POPC   C4A75186  26.041   5.139   7.350
 9258POPC   C1B75187  26.057   4.864   6.450
 9258POPC   C2B75188  26.075   4.877   6.750
 9258POPC   C3B75189  26.112   4.851   7.050
 9258POPC   C4B75190  26.104   4.825   7.350
 9259POPC   NC375191  15.184   1.207   5.550
 9259POPC   PO475192  15.169   1.209   5.850
 9259POPC   GL175193  15.182   1.210   6.150
 9259POPC   GL275194  15.044   1.248   6.150
 9259POPC   C1A75195  15.220   1.243   6.450
 9259POPC   D2A75196  15.204   1.226   6.750
 9259POPC   C3A75197  15.216   1.246   7.050
 9259POPC   C4A75198  15.198   1.191   7.350
 9259POPC   C1B75199  14.942   1.241   6.450
 9259POPC   C2B75200  14.886   1.242   6.750
 9259POPC   C3B75201  14.951   1.318   7.050
 9259POPC   C4B75202  14.952   1.270   7.350
 9260POPC   NC375203  29.164  26.851   5.550
 9260POPC   PO475204  29.181  26.812   5.850
 9260POPC   GL175205  29.113  26.849   6.150
 9260POPC   GL275206  29.275  26.766   6.150
 9260POPC   C1A75207  29.165  26.804   6.450
 9260POPC   D2A75208  29.130  26.793   6.750
 9260POPC   C3A75209  29.121  26.837   7.050
 9260POPC   C4A75210  29.185  26.797   7.350
 9260POPC   C1B75211  29.379  26.785   6.450
 9260POPC   C2B75212  29.417  26.755   6.750
 9260POPC   C3B75213  29.380  26.710   7.050
 9260POPC   C4B75214  29.356  26.694   7.350
 9261POPC   NC375215  40.831   8.930   5.550
 9261POPC   PO475216  40.748   9.021   5.850
 9261POPC   GL175217  40.799   8.995   6.150
 9261POPC   GL275218  40.859   9.048   6.150
 9261POPC   C1A75219  40.806   9.017   6.450
 9261POPC   D2A75220  40.816   9.001   6.750
 9261POPC   C3A75221  40.825   9.007   7.050
 9261POPC   C4A75222  40.770   8.970   7.350
 9261POPC   C1B75223  41.064   9.107   6.450
 9261POPC   C2B75224  41.023   9.071   6.750
 9261POPC   C3B75225  40.983   9.028   7.050
 9261POPC   C4B75226  41.033   9.099   7.350
 9262POPC   NC375227   9.716   7.434   5.550
 9262POPC   PO475228   9.748   7.458   5.850
 9262POPC   GL175229   9.778   7.413   6.150
 9262POPC   GL275230   9.645   7.533   6.150
 9262POPC   C1A75231   9.794   7.466   6.450
 9262POPC   D2A75232   9.717   7.469   6.750
 9262POPC   C3A75233   9.767   7.399   7.050
 9262POPC   C4A75234   9.748   7.385   7.350
 9262POPC   C1B75235   9.598   7.673   6.450
 9262POPC   C2B75236   9.582   7.609   6.750
 9262POPC   C3B75237   9.591   7.660   7.050
 9262POPC   C4B75238   9.610   7.675   7.350
 9263POPC   NC375239   0.470  15.200   5.550
 9263POPC   PO475240   0.388  15.176   5.850
 9263POPC   GL175241   0.466  15.178   6.150
 9263POPC   GL275242   0.435  15.289   6.150
 9263POPC   C1A75243   0.403  15.229   6.450
 9263POPC   D2A75244   0.445  15.170   6.750
 9263POPC   C3A75245   0.455  15.154   7.050
 9263POPC   C4A75246   0.443  15.138   7.350
 9263POPC   C1B75247   0.420  15.443   6.450
 9263POPC   C2B75248   0.441  15.388   6.750
 9263POPC   C3B75249   0.356  15.390   7.050
 9263POPC   C4B75250   0.364  15.388   7.350
 9264POPC   NC375251  27.594  32.983   5.550
 9264POPC   PO475252  27.554  32.986   5.850
 9264POPC   GL175253  27.590  33.063   6.150
 9264POPC   GL275254  27.500  32.965   6.150
 9264POPC   C1A75255  27.586  32.995   6.450
 9264POPC   D2A75256  27.631  33.009   6.750
 9264POPC   C3A75257  27.619  33.048   7.050
 9264POPC   C4A75258  27.555  33.064   7.350
 9264POPC   C1B75259  27.397  32.802   6.450
 9264POPC   C2B75260  27.458  32.846   6.750
 9264POPC   C3B75261  27.450  32.834   7.050
 9264POPC   C4B75262  27.446  32.845   7.350
 9265POPC   NC375263  40.053  42.341   5.550
 9265POPC   PO475264  40.015  42.293   5.850
 9265POPC   GL175265  39.968  42.370   6.150
 9265POPC   GL275266  39.926  42.425   6.150
 9265POPC   C1A75267  39.963  42.293   6.450
 9265POPC   D2A75268  39.973  42.322   6.750
 9265POPC   C3A75269  40.046  42.331   7.050
 9265POPC   C4A75270  40.028  42.299   7.350
 9265POPC   C1B75271  39.877  42.592   6.450
 9265POPC   C2B75272  39.908  42.593   6.750
 9265POPC   C3B75273  39.849  42.589   7.050
 9265POPC   C4B75274  39.874  42.597   7.350
 9266POPC   NC375275  34.543  10.516   5.550
 9266POPC   PO475276  34.618  10.565   5.850
 9266POPC   GL175277  34.568  10.538   6.150
 9266POPC   GL275278  34.609  10.608   6.150
 9266POPC   C1A75279  34.567  10.556   6.450
 9266POPC   D2A75280  34.559  10.481   6.750
 9266POPC   C3A75281  34.590  10.543   7.050
 9266POPC   C4A75282  34.580  10.562   7.350
 9266POPC   C1B75283  34.606  10.819   6.450
 9266POPC   C2B75284  34.652  10.813   6.750
 9266POPC   C3B75285  34.570  10.818   7.050
 9266POPC   C4B75286  34.574  10.792   7.350
 9267POPC   NC375287   9.013  26.073   5.550
 9267POPC   PO475288   8.994  26.006   5.850
 9267POPC   GL175289   8.992  26.057   6.150
 9267POPC   GL275290   8.966  26.198   6.150
 9267POPC   C1A75291   8.996  26.016   6.450
 9267POPC   D2A75292   8.969  26.060   6.750
 9267POPC   C3A75293   8.933  26.062   7.050
 9267POPC   C4A75294   8.974  26.025   7.350
 9267POPC   C1B75295   8.957  26.244   6.450
 9267POPC   C2B75296   8.992  26.294   6.750
 9267POPC   C3B75297   8.965  26.279   7.050
 9267POPC   C4B75298   9.025  26.289   7.350
 9268POPC   NC375299  26.851  33.793   5.550
 9268POPC   PO475300  26.801  33.789   5.850
 9268POPC   GL175301  26.848  33.827   6.150
 9268POPC   GL275302  26.964  33.737   6.150
 9268POPC   C1A75303  26.825  33.829   6.450
 9268POPC   D2A75304  26.805  33.799   6.750
 9268POPC   C3A75305  26.854  33.763   7.050
 9268POPC   C4A75306  26.791  33.818   7.350
 9268POPC   C1B75307  26.989  33.596   6.450
 9268POPC   C2B75308  27.015  33.664   6.750
 9268POPC   C3B75309  27.040  33.696   7.050
 9268POPC   C4B75310  27.001  33.657   7.350
 9269POPC   NC375311  36.896   8.157   5.550
 9269POPC   PO475312  36.930   8.204   5.850
 9269POPC   GL175313  36.873   8.176   6.150
 9269POPC   GL275314  36.803   8.183   6.150
 9269POPC   C1A75315  36.921   8.244   6.450
 9269POPC   D2A75316  36.909   8.164   6.750
 9269POPC   C3A75317  36.908   8.185   7.050
 9269POPC   C4A75318  36.878   8.216   7.350
 9269POPC   C1B75319  36.680   8.275   6.450
 9269POPC   C2B75320  36.671   8.230   6.750
 9269POPC   C3B75321  36.671   8.186   7.050
 9269POPC   C4B75322  36.646   8.248   7.350
 9270POPC   NC375323  31.467   2.726   5.550
 9270POPC   PO475324  31.448   2.775   5.850
 9270POPC   GL175325  31.428   2.808   6.150
 9270POPC   GL275326  31.624   2.819   6.150
 9270POPC   C1A75327  31.501   2.743   6.450
 9270POPC   D2A75328  31.455   2.773   6.750
 9270POPC   C3A75329  31.428   2.786   7.050
 9270POPC   C4A75330  31.511   2.727   7.350
 9270POPC   C1B75331  31.722   2.829   6.450
 9270POPC   C2B75332  31.728   2.830   6.750
 9270POPC   C3B75333  31.675   2.916   7.050
 9270POPC   C4B75334  31.651   2.873   7.350
 9271POPC   NC375335  43.107  31.480   5.550
 9271POPC   PO475336  43.155  31.469   5.850
 9271POPC   GL175337  43.113  31.508   6.150
 9271POPC   GL275338  43.131  31.308   6.150
 9271POPC   C1A75339  43.145  31.481   6.450
 9271POPC   D2A75340  43.155  31.501   6.750
 9271POPC   C3A75341  43.099  31.502   7.050
 9271POPC   C4A75342  43.117  31.484   7.350
 9271POPC   C1B75343  43.152  31.265   6.450
 9271POPC   C2B75344  43.096  31.180   6.750
 9271POPC   C3B75345  43.108  31.215   7.050
 9271POPC   C4B75346  43.109  31.217   7.350
 9272POPC   NC375347  33.774  39.212   5.550
 9272POPC   PO475348  33.835  39.236   5.850
 9272POPC   GL175349  33.792  39.257   6.150
 9272POPC   GL275350  33.751  39.147   6.150
 9272POPC   C1A75351  33.782  39.267   6.450
 9272POPC   D2A75352  33.846  39.245   6.750
 9272POPC   C3A75353  33.806  39.243   7.050
 9272POPC   C4A75354  33.783  39.216   7.350
 9272POPC   C1B75355  33.711  39.030   6.450
 9272POPC   C2B75356  33.705  38.957   6.750
 9272POPC   C3B75357  33.753  38.975   7.050
 9272POPC   C4B75358  33.702  38.937   7.350
 9273POPC   NC375359   1.237  33.066   5.550
 9273POPC   PO475360   1.166  32.995   5.850
 9273POPC   GL175361   1.220  32.976   6.150
 9273POPC   GL275362   1.197  33.132   6.150
 9273POPC   C1A75363   1.249  33.036   6.450
 9273POPC   D2A75364   1.168  33.011   6.750
 9273POPC   C3A75365   1.169  33.048   7.050
 9273POPC   C4A75366   1.194  32.993   7.350
 9273POPC   C1B75367   1.263  33.231   6.450
 9273POPC   C2B75368   1.237  33.305   6.750
 9273POPC   C3B75369   1.254  33.290   7.050
 9273POPC   C4B75370   1.270  33.291   7.350
 9274POPC   NC375371  22.909  26.863   5.550
 9274POPC   PO475372  22.892  26.805   5.850
 9274POPC   GL175373  22.918  26.828   6.150
 9274POPC   GL275374  23.029  26.809   6.150
 9274POPC   C1A75375  22.922  26.805   6.450
 9274POPC   D2A75376  22.958  26.827   6.750
 9274POPC   C3A75377  22.954  26.832   7.050
 9274POPC   C4A75378  22.938  26.807   7.350
 9274POPC   C1B75379  23.226  26.702   6.450
 9274POPC   C2B75380  23.189  26.778   6.750
 9274POPC   C3B75381  23.197  26.782   7.050
 9274POPC   C4B75382  23.205  26.724   7.350
 9275POPC   NC375383  44.615  39.189   5.550
 9275POPC   PO475384  44.681  39.205   5.850
 9275POPC   GL175385  44.614  39.240   6.150
 9275POPC   GL275386  44.682  39.111   6.150
 9275POPC   C1A75387  44.626  39.217   6.450
 9275POPC   D2A75388  44.705  39.256   6.750
 9275POPC   C3A75389  44.702  39.206   7.050
 9275POPC   C4A75390  44.637  39.230   7.350
 9275POPC   C1B75391  44.636  39.004   6.450
 9275POPC   C2B75392  44.672  39.009   6.750
 9275POPC   C3B75393  44.622  38.954   7.050
 9275POPC   C4B75394  44.606  38.958   7.350
 9276POPC   NC375395   1.974  14.415   5.550
 9276POPC   PO475396   1.956  14.372   5.850
 9276POPC   GL175397   1.975  14.373   6.150
 9276POPC   GL275398   2.057  14.497   6.150
 9276POPC   C1A75399   1.951  14.374   6.450
 9276POPC   D2A75400   2.036  14.427   6.750
 9276POPC   C3A75401   2.004  14.383   7.050
 9276POPC   C4A75402   2.039  14.429   7.350
 9276POPC   C1B75403   2.124  14.597   6.450
 9276POPC   C2B75404   2.124  14.612   6.750
 9276POPC   C3B75405   2.114  14.678   7.050
 9276POPC   C4B75406   2.067  14.680   7.350
 9277POPC   NC375407  26.778  25.240   5.550
 9277POPC   PO475408  26.782  25.221   5.850
 9277POPC   GL175409  26.865  25.293   6.150
 9277POPC   GL275410  26.861  25.332   6.150
 9277POPC   C1A75411  26.866  25.227   6.450
 9277POPC   D2A75412  26.811  25.293   6.750
 9277POPC   C3A75413  26.822  25.241   7.050
 9277POPC   C4A75414  26.803  25.250   7.350
 9277POPC   C1B75415  26.900  25.509   6.450
 9277POPC   C2B75416  26.957  25.436   6.750
 9277POPC   C3B75417  26.932  25.441   7.050
 9277POPC   C4B75418  26.953  25.469   7.350
 9278POPC   NC375419  12.820  27.631   5.550
 9278POPC   PO475420  12.865  27.614   5.850
 9278POPC   GL175421  12.868  27.598   6.150
 9278POPC   GL275422  12.957  27.660   6.150
 9278POPC   C1A75423  12.821  27.624   6.450
 9278POPC   D2A75424  12.890  27.621   6.750
 9278POPC   C3A75425  12.891  27.635   7.050
 9278POPC   C4A75426  12.893  27.620   7.350
 9278POPC   C1B75427  13.147  27.655   6.450
 9278POPC   C2B75428  13.049  27.647   6.750
 9278POPC   C3B75429  13.138  27.663   7.050
 9278POPC   C4B75430  13.071  27.669   7.350
 9279POPC   NC375431  42.363  20.660   5.550
 9279POPC   PO475432  42.352  20.647   5.850
 9279POPC   GL175433  42.288  20.614   6.150
 9279POPC   GL275434  42.285  20.705   6.150
 9279POPC   C1A75435  42.291  20.579   6.450
 9279POPC   D2A75436  42.296  20.612   6.750
 9279POPC   C3A75437  42.360  20.653   7.050
 9279POPC   C4A75438  42.350  20.597   7.350
 9279POPC   C1B75439  42.180  20.771   6.450
 9279POPC   C2B75440  42.196  20.761   6.750
 9279POPC   C3B75441  42.194  20.781   7.050
 9279POPC   C4B75442  42.181  20.856   7.350
 9280POPC   NC375443  23.755   8.981   5.550
 9280POPC   PO475444  23.719   8.996   5.850
 9280POPC   GL175445  23.675   8.928   6.150
 9280POPC   GL275446  23.651   8.877   6.150
 9280POPC   C1A75447  23.682   8.926   6.450
 9280POPC   D2A75448  23.751   8.990   6.750
 9280POPC   C3A75449  23.719   9.001   7.050
 9280POPC   C4A75450  23.763   8.963   7.350
 9280POPC   C1B75451  23.666   8.737   6.450
 9280POPC   C2B75452  23.683   8.736   6.750
 9280POPC   C3B75453  23.659   8.773   7.050
 9280POPC   C4B75454  23.591   8.736   7.350
 9281POPC   NC375455  35.376  29.159   5.550
 9281POPC   PO475456  35.346  29.172   5.850
 9281POPC   GL175457  35.386  29.137   6.150
 9281POPC   GL275458  35.292  29.233   6.150
 9281POPC   C1A75459  35.309  29.163   6.450
 9281POPC   D2A75460  35.335  29.164   6.750
 9281POPC   C3A75461  35.376  29.152   7.050
 9281POPC   C4A75462  35.395  29.166   7.350
 9281POPC   C1B75463  35.299  29.365   6.450
 9281POPC   C2B75464  35.289  29.370   6.750
 9281POPC   C3B75465  35.268  29.359   7.050
 9281POPC   C4B75466  35.225  29.352   7.350
 9282POPC   NC375467  35.316  30.704   5.550
 9282POPC   PO475468  35.394  30.698   5.850
 9282POPC   GL175469  35.396  30.742   6.150
 9282POPC   GL275470  35.425  30.561   6.150
 9282POPC   C1A75471  35.372  30.728   6.450
 9282POPC   D2A75472  35.307  30.654   6.750
 9282POPC   C3A75473  35.380  30.732   7.050
 9282POPC   C4A75474  35.387  30.731   7.350
 9282POPC   C1B75475  35.458  30.500   6.450
 9282POPC   C2B75476  35.534  30.455   6.750
 9282POPC   C3B75477  35.451  30.444   7.050
 9282POPC   C4B75478  35.442  30.467   7.350
 9283POPC   NC375479  30.657  32.276   5.550
 9283POPC   PO475480  30.724  32.297   5.850
 9283POPC   GL175481  30.714  32.225   6.150
 9283POPC   GL275482  30.550  32.197   6.150
 9283POPC   C1A75483  30.662  32.257   6.450
 9283POPC   D2A75484  30.701  32.270   6.750
 9283POPC   C3A75485  30.717  32.267   7.050
 9283POPC   C4A75486  30.710  32.270   7.350
 9283POPC   C1B75487  30.475  32.241   6.450
 9283POPC   C2B75488  30.430  32.196   6.750
 9283POPC   C3B75489  30.464  32.256   7.050
 9283POPC   C4B75490  30.474  32.262   7.350
 9284POPC   NC375491  21.395  33.063   5.550
 9284POPC   PO475492  21.397  33.045   5.850
 9284POPC   GL175493  21.427  33.024   6.150
 9284POPC   GL275494  21.311  32.939   6.150
 9284POPC   C1A75495  21.428  32.990   6.450
 9284POPC   D2A75496  21.377  33.014   6.750
 9284POPC   C3A75497  21.391  32.995   7.050
 9284POPC   C4A75498  21.339  33.016   7.350
 9284POPC   C1B75499  21.171  32.982   6.450
 9284POPC   C2B75500  21.158  32.955   6.750
 9284POPC   C3B75501  21.196  32.971   7.050
 9284POPC   C4B75502  21.153  32.992   7.350
 9285POPC   NC375503  42.295   7.432   5.550
 9285POPC   PO475504  42.367   7.384   5.850
 9285POPC   GL175505  42.350   7.377   6.150
 9285POPC   GL275506  42.216   7.461   6.150
 9285POPC   C1A75507  42.354   7.390   6.450
 9285POPC   D2A75508  42.328   7.392   6.750
 9285POPC   C3A75509  42.340   7.438   7.050
 9285POPC   C4A75510  42.324   7.468   7.350
 9285POPC   C1B75511  42.183   7.588   6.450
 9285POPC   C2B75512  42.199   7.609   6.750
 9285POPC   C3B75513  42.181   7.623   7.050
 9285POPC   C4B75514  42.151   7.612   7.350
 9286POPC   NC375515   5.054   7.467   5.550
 9286POPC   PO475516   5.128   7.388   5.850
 9286POPC   GL175517   5.132   7.393   6.150
 9286POPC   GL275518   5.220   7.383   6.150
 9286POPC   C1A75519   5.070   7.377   6.450
 9286POPC   D2A75520   5.057   7.406   6.750
 9286POPC   C3A75521   5.111   7.414   7.050
 9286POPC   C4A75522   5.108   7.379   7.350
 9286POPC   C1B75523   5.376   7.380   6.450
 9286POPC   C2B75524   5.338   7.354   6.750
 9286POPC   C3B75525   5.291   7.317   7.050
 9286POPC   C4B75526   5.367   7.330   7.350
 9287POPC   NC375527  29.159  37.676   5.550
 9287POPC   PO475528  29.180  37.706   5.850
 9287POPC   GL175529  29.179  37.679   6.150
 9287POPC   GL275530  28.982  37.641   6.150
 9287POPC   C1A75531  29.141  37.676   6.450
 9287POPC   D2A75532  29.115  37.702   6.750
 9287POPC   C3A75533  29.115  37.662   7.050
 9287POPC   C4A75534  29.113  37.683   7.350
 9287POPC   C1B75535  28.846  37.705   6.450
 9287POPC   C2B75536  28.910  37.731   6.750
 9287POPC   C3B75537  28.940  37.649   7.050
 9287POPC   C4B75538  28.846  37.680   7.350
 9288POPC   NC375539  43.904  31.520   5.550
 9288POPC   PO475540  43.846  31.485   5.850
 9288POPC   GL175541  43.862  31.436   6.150
 9288POPC   GL275542  43.965  31.535   6.150
 9288POPC   C1A75543  43.852  31.501   6.450
 9288POPC   D2A75544  43.872  31.516   6.750
 9288POPC   C3A75545  43.887  31.443   7.050
 9288POPC   C4A75546  43.882  31.510   7.350
 9288POPC   C1B75547  44.145  31.491   6.450
 9288POPC   C2B75548  44.119  31.564   6.750
 9288POPC   C3B75549  44.158  31.533   7.050
 9288POPC   C4B75550  44.083  31.540   7.350
 9289POPC   NC375551  22.194  25.229   5.550
 9289POPC   PO475552  22.155  25.267   5.850
 9289POPC   GL175553  22.140  25.315   6.150
 9289POPC   GL275554  22.231  25.194   6.150
 9289POPC   C1A75555  22.143  25.226   6.450
 9289POPC   D2A75556  22.151  25.281   6.750
 9289POPC   C3A75557  22.158  25.298   7.050
 9289POPC   C4A75558  22.150  25.236   7.350
 9289POPC   C1B75559  22.240  25.077   6.450
 9289POPC   C2B75560  22.272  25.060   6.750
 9289POPC   C3B75561  22.218  25.023   7.050
 9289POPC   C4B75562  22.244  25.018   7.350
 9290POPC   NC375563  15.202   9.008   5.550
 9290POPC   PO475564  15.150   8.995   5.850
 9290POPC   GL175565  15.172   9.002   6.150
 9290POPC   GL275566  15.117   9.092   6.150
 9290POPC   C1A75567  15.182   8.924   6.450
 9290POPC   D2A75568  15.177   8.997   6.750
 9290POPC   C3A75569  15.154   9.019   7.050
 9290POPC   C4A75570  15.224   9.010   7.350
 9290POPC   C1B75571  15.055   9.172   6.450
 9290POPC   C2B75572  15.049   9.238   6.750
 9290POPC   C3B75573  15.043   9.187   7.050
 9290POPC   C4B75574  15.085   9.191   7.350
 9291POPC   NC375575  36.157  30.739   5.550
 9291POPC   PO475576  36.163  30.741   5.850
 9291POPC   GL175577  36.132  30.717   6.150
 9291POPC   GL275578  36.046  30.634   6.150
 9291POPC   C1A75579  36.111  30.703   6.450
 9291POPC   D2A75580  36.078  30.662   6.750
 9291POPC   C3A75581  36.154  30.648   7.050
 9291POPC   C4A75582  36.152  30.746   7.350
 9291POPC   C1B75583  35.875  30.587   6.450
 9291POPC   C2B75584  35.871  30.653   6.750
 9291POPC   C3B75585  35.892  30.617   7.050
 9291POPC   C4B75586  35.867  30.563   7.350
 9292POPC   NC375587  30.722  22.953   5.550
 9292POPC   PO475588  30.718  22.972   5.850
 9292POPC   GL175589  30.700  22.901   6.150
 9292POPC   GL275590  30.574  22.947   6.150
 9292POPC   C1A75591  30.652  22.909   6.450
 9292POPC   D2A75592  30.722  22.916   6.750
 9292POPC   C3A75593  30.725  22.907   7.050
 9292POPC   C4A75594  30.735  22.925   7.350
 9292POPC   C1B75595  30.457  23.004   6.450
 9292POPC   C2B75596  30.499  22.960   6.750
 9292POPC   C3B75597  30.470  23.008   7.050
 9292POPC   C4B75598  30.485  22.993   7.350
 9293POPC   NC375599   3.505  33.029   5.550
 9293POPC   PO475600   3.561  33.032   5.850
 9293POPC   GL175601   3.503  32.989   6.150
 9293POPC   GL275602   3.466  32.955   6.150
 9293POPC   C1A75603   3.493  33.022   6.450
 9293POPC   D2A75604   3.508  33.019   6.750
 9293POPC   C3A75605   3.524  33.021   7.050
 9293POPC   C4A75606   3.587  32.982   7.350
 9293POPC   C1B75607   3.470  32.761   6.450
 9293POPC   C2B75608   3.461  32.747   6.750
 9293POPC   C3B75609   3.454  32.788   7.050
 9293POPC   C4B75610   3.475  32.788   7.350
 9294POPC   NC375611  38.419  43.891   5.550
 9294POPC   PO475612  38.467  43.882   5.850
 9294POPC   GL175613  38.455  43.864   6.150
 9294POPC   GL275614  38.450  43.774   6.150
 9294POPC   C1A75615  38.447  43.928   6.450
 9294POPC   D2A75616  38.423  43.893   6.750
 9294POPC   C3A75617  38.464  43.854   7.050
 9294POPC   C4A75618  38.428  43.908   7.350
 9294POPC   C1B75619  38.537  43.602   6.450
 9294POPC   C2B75620  38.497  43.645   6.750
 9294POPC   C3B75621  38.526  43.661   7.050
 9294POPC   C4B75622  38.505  43.624   7.350
 9295POPC   NC375623  33.831  41.542   5.550
 9295POPC   PO475624  33.751  41.546   5.850
 9295POPC   GL175625  33.762  41.589   6.150
 9295POPC   GL275626  33.839  41.634   6.150
 9295POPC   C1A75627  33.777  41.518   6.450
 9295POPC   D2A75628  33.831  41.528   6.750
 9295POPC   C3A75629  33.782  41.591   7.050
 9295POPC   C4A75630  33.840  41.601   7.350
 9295POPC   C1B75631  33.795  41.793   6.450
 9295POPC   C2B75632  33.844  41.792   6.750
 9295POPC   C3B75633  33.825  41.799   7.050
 9295POPC   C4B75634  33.814  41.846   7.350
 9296POPC   NC375635  36.139  33.752   5.550
 9296POPC   PO475636  36.128  33.762   5.850
 9296POPC   GL175637  36.102  33.774   6.150
 9296POPC   GL275638  36.001  33.702   6.150
 9296POPC   C1A75639  36.110  33.850   6.450
 9296POPC   D2A75640  36.147  33.791   6.750
 9296POPC   C3A75641  36.148  33.809   7.050
 9296POPC   C4A75642  36.144  33.816   7.350
 9296POPC   C1B75643  35.932  33.667   6.450
 9296POPC   C2B75644  35.896  33.659   6.750
 9296POPC   C3B75645  35.985  33.619   7.050
 9296POPC   C4B75646  35.947  33.601   7.350
 9297POPC   NC375647  42.369   2.733   5.550
 9297POPC   PO475648  42.367   2.801   5.850
 9297POPC   GL175649  42.304   2.803   6.150
 9297POPC   GL275650  42.444   2.821   6.150
 9297POPC   C1A75651  42.377   2.771   6.450
 9297POPC   D2A75652  42.366   2.787   6.750
 9297POPC   C3A75653  42.325   2.802   7.050
 9297POPC   C4A75654  42.323   2.763   7.350
 9297POPC   C1B75655  42.549   2.833   6.450
 9297POPC   C2B75656  42.559   2.784   6.750
 9297POPC   C3B75657  42.545   2.794   7.050
 9297POPC   C4B75658  42.611   2.779   7.350
 9298POPC   NC375659  33.007  36.126   5.550
 9298POPC   PO475660  33.062  36.138   5.850
 9298POPC   GL175661  32.982  36.112   6.150
 9298POPC   GL275662  33.025  36.220   6.150
 9298POPC   C1A75663  33.048  36.115   6.450
 9298POPC   D2A75664  33.006  36.105   6.750
 9298POPC   C3A75665  32.993  36.106   7.050
 9298POPC   C4A75666  33.072  36.092   7.350
 9298POPC   C1B75667  33.012  36.365   6.450
 9298POPC   C2B75668  33.030  36.402   6.750
 9298POPC   C3B75669  33.013  36.425   7.050
 9298POPC   C4B75670  33.018  36.414   7.350
 9299POPC   NC375671  37.666  26.839   5.550
 9299POPC   PO475672  37.711  26.772   5.850
 9299POPC   GL175673  37.636  26.864   6.150
 9299POPC   GL275674  37.596  26.716   6.150
 9299POPC   C1A75675  37.690  26.824   6.450
 9299POPC   D2A75676  37.689  26.853   6.750
 9299POPC   C3A75677  37.670  26.840   7.050
 9299POPC   C4A75678  37.696  26.845   7.350
 9299POPC   C1B75679  37.576  26.562   6.450
 9299POPC   C2B75680  37.521  26.624   6.750
 9299POPC   C3B75681  37.549  26.597   7.050
 9299POPC   C4B75682  37.537  26.583   7.350
 9300POPC   NC375683  19.805  39.258   5.550
 9300POPC   PO475684  19.853  39.240   5.850
 9300POPC   GL175685  19.876  39.217   6.150
 9300POPC   GL275686  19.809  39.394   6.150
 9300POPC   C1A75687  19.876  39.272   6.450
 9300POPC   D2A75688  19.884  39.218   6.750
 9300POPC   C3A75689  19.820  39.190   7.050
 9300POPC   C4A75690  19.820  39.265   7.350
 9300POPC   C1B75691  19.753  39.501   6.450
 9300POPC   C2B75692  19.797  39.462   6.750
 9300POPC   C3B75693  19.744  39.461   7.050
 9300POPC   C4B75694  19.816  39.475   7.350
 9301POPC   NC375695  18.314   4.277   5.550
 9301POPC   PO475696  18.255   4.268   5.850
 9301POPC   GL175697  18.313   4.333   6.150
 9301POPC   GL275698  18.409   4.277   6.150
 9301POPC   C1A75699  18.303   4.314   6.450
 9301POPC   D2A75700  18.285   4.346   6.750
 9301POPC   C3A75701  18.320   4.334   7.050
 9301POPC   C4A75702  18.248   4.282   7.350
 9301POPC   C1B75703  18.460   4.162   6.450
 9301POPC   C2B75704  18.437   4.128   6.750
 9301POPC   C3B75705  18.490   4.189   7.050
 9301POPC   C4B75706  18.453   4.198   7.350
 9302POPC   NC375707  44.648  22.116   5.550
 9302POPC   PO475708  44.687  22.198   5.850
 9302POPC   GL175709  44.696  22.151   6.150
 9302POPC   GL275710  44.699  22.315   6.150
 9302POPC   C1A75711  44.705  22.195   6.450
 9302POPC   D2A75712  44.625  22.147   6.750
 9302POPC   C3A75713  44.691  22.155   7.050
 9302POPC   C4A75714  44.661  22.193   7.350
 9302POPC   C1B75715  44.758  22.423   6.450
 9302POPC   C2B75716  44.806  22.339   6.750
 9302POPC   C3B75717  44.842  22.370   7.050
 9302POPC   C4B75718  44.814  22.353   7.350
 9303POPC   NC375719  16.754  29.191   5.550
 9303POPC   PO475720  16.695  29.110   5.850
 9303POPC   GL175721  16.777  29.152   6.150
 9303POPC   GL275722  16.824  29.117   6.150
 9303POPC   C1A75723  16.736  29.140   6.450
 9303POPC   D2A75724  16.695  29.138   6.750
 9303POPC   C3A75725  16.778  29.161   7.050
 9303POPC   C4A75726  16.691  29.178   7.350
 9303POPC   C1B75727  16.943  29.076   6.450
 9303POPC   C2B75728  17.028  29.112   6.750
 9303POPC   C3B75729  16.970  29.066   7.050
 9303POPC   C4B75730  16.933  29.095   7.350
 9304POPC   NC375731  43.921  23.757   5.550
 9304POPC   PO475732  43.928  23.698   5.850
 9304POPC   GL175733  43.896  23.690   6.150
 9304POPC   GL275734  43.994  23.731   6.150
 9304POPC   C1A75735  43.897  23.681   6.450
 9304POPC   D2A75736  43.898  23.730   6.750
 9304POPC   C3A75737  43.858  23.694   7.050
 9304POPC   C4A75738  43.916  23.711   7.350
 9304POPC   C1B75739  44.149  23.633   6.450
 9304POPC   C2B75740  44.080  23.679   6.750
 9304POPC   C3B75741  44.102  23.689   7.050
 9304POPC   C4B75742  44.165  23.659   7.350
 9305POPC   NC375743  40.799  30.710   5.550
 9305POPC   PO475744  40.761  30.737   5.850
 9305POPC   GL175745  40.798  30.701   6.150
 9305POPC   GL275746  40.941  30.614   6.150
 9305POPC   C1A75747  40.766  30.663   6.450
 9305POPC   D2A75748  40.794  30.679   6.750
 9305POPC   C3A75749  40.762  30.691   7.050
 9305POPC   C4A75750  40.786  30.651   7.350
 9305POPC   C1B75751  40.991  30.639   6.450
 9305POPC   C2B75752  41.023  30.655   6.750
 9305POPC   C3B75753  40.983  30.576   7.050
 9305POPC   C4B75754  41.014  30.641   7.350
 9306POPC   NC375755  24.465  16.744   5.550
 9306POPC   PO475756  24.480  16.719   5.850
 9306POPC   GL175757  24.482  16.686   6.150
 9306POPC   GL275758  24.388  16.791   6.150
 9306POPC   C1A75759  24.444  16.770   6.450
 9306POPC   D2A75760  24.527  16.731   6.750
 9306POPC   C3A75761  24.485  16.691   7.050
 9306POPC   C4A75762  24.457  16.738   7.350
 9306POPC   C1B75763  24.257  16.849   6.450
 9306POPC   C2B75764  24.270  16.866   6.750
 9306POPC   C3B75765  24.253  16.881   7.050
 9306POPC   C4B75766  24.315  16.896   7.350
 9307POPC   NC375767   2.774  34.616   5.550
 9307POPC   PO475768   2.730  34.619   5.850
 9307POPC   GL175769   2.796  34.592   6.150
 9307POPC   GL275770   2.648  34.625   6.150
 9307POPC   C1A75771   2.770  34.565   6.450
 9307POPC   D2A75772   2.799  34.549   6.750
 9307POPC   C3A75773   2.739  34.609   7.050
 9307POPC   C4A75774   2.765  34.615   7.350
 9307POPC   C1B75775   2.548  34.659   6.450
 9307POPC   C2B75776   2.580  34.637   6.750
 9307POPC   C3B75777   2.520  34.652   7.050
 9307POPC   C4B75778   2.502  34.703   7.350
 9308POPC   NC375779  16.701  39.990   5.550
 9308POPC   PO475780  16.759  40.027   5.850
 9308POPC   GL175781  16.734  40.020   6.150
 9308POPC   GL275782  16.588  39.982   6.150
 9308POPC   C1A75783  16.690  39.986   6.450
 9308POPC   D2A75784  16.698  39.975   6.750
 9308POPC   C3A75785  16.725  39.995   7.050
 9308POPC   C4A75786  16.699  40.018   7.350
 9308POPC   C1B75787  16.449  39.999   6.450
 9308POPC   C2B75788  16.477  39.983   6.750
 9308POPC   C3B75789  16.470  39.962   7.050
 9308POPC   C4B75790  16.494  39.911   7.350
 9309POPC   NC375791  21.341  26.074   5.550
 9309POPC   PO475792  21.391  26.084   5.850
 9309POPC   GL175793  21.378  26.026   6.150
 9309POPC   GL275794  21.451  25.999   6.150
 9309POPC   C1A75795  21.360  26.080   6.450
 9309POPC   D2A75796  21.342  25.992   6.750
 9309POPC   C3A75797  21.354  26.012   7.050
 9309POPC   C4A75798  21.397  26.011   7.350
 9309POPC   C1B75799  21.633  25.938   6.450
 9309POPC   C2B75800  21.586  25.887   6.750
 9309POPC   C3B75801  21.585  25.920   7.050
 9309POPC   C4B75802  21.629  25.899   7.350
 9310POPC   NC375803  33.809  25.239   5.550
 9310POPC   PO475804  33.842  25.265   5.850
 9310POPC   GL175805  33.762  25.230   6.150
 9310POPC   GL275806  33.868  25.430   6.150
 9310POPC   C1A75807  33.764  25.297   6.450
 9310POPC   D2A75808  33.830  25.278   6.750
 9310POPC   C3A75809  33.777  25.255   7.050
 9310POPC   C4A75810  33.761  25.279   7.350
 9310POPC   C1B75811  33.923  25.475   6.450
 9310POPC   C2B75812  33.910  25.512   6.750
 9310POPC   C3B75813  33.837  25.493   7.050
 9310POPC   C4B75814  33.835  25.483   7.350
 9311POPC   NC375815  41.598  12.035   5.550
 9311POPC   PO475816  41.528  12.094   5.850
 9311POPC   GL175817  41.557  12.106   6.150
 9311POPC   GL275818  41.518  12.163   6.150
 9311POPC   C1A75819  41.598  12.097   6.450
 9311POPC   D2A75820  41.524  12.077   6.750
 9311POPC   C3A75821  41.607  12.072   7.050
 9311POPC   C4A75822  41.560  12.069   7.350
 9311POPC   C1B75823  41.493  12.310   6.450
 9311POPC   C2B75824  41.569  12.295   6.750
 9311POPC   C3B75825  41.568  12.327   7.050
 9311POPC   C4B75826  41.543  12.367   7.350
 9312POPC   NC375827  43.122  26.027   5.550
 9312POPC   PO475828  43.144  26.071   5.850
 9312POPC   GL175829  43.141  26.038   6.150
 9312POPC   GL275830  43.087  25.885   6.150
 9312POPC   C1A75831  43.112  26.006   6.450
 9312POPC   D2A75832  43.092  26.077   6.750
 9312POPC   C3A75833  43.114  26.042   7.050
 9312POPC   C4A75834  43.160  26.002   7.350
 9312POPC   C1B75835  43.128  25.832   6.450
 9312POPC   C2B75836  43.058  25.769   6.750
 9312POPC   C3B75837  43.101  25.780   7.050
 9312POPC   C4B75838  43.107  25.755   7.350
 9313POPC   NC375839  32.294   2.796   5.550
 9313POPC   PO475840  32.251   2.735   5.850
 9313POPC   GL175841  32.288   2.815   6.150
 9313POPC   GL275842  32.166   2.753   6.150
 9313POPC   C1A75843  32.279   2.758   6.450
 9313POPC   D2A75844  32.203   2.772   6.750
 9313POPC   C3A75845  32.224   2.730   7.050
 9313POPC   C4A75846  32.291   2.809   7.350
 9313POPC   C1B75847  31.954   2.807   6.450
 9313POPC   C2B75848  32.031   2.814   6.750
 9313POPC   C3B75849  32.033   2.804   7.050
 9313POPC   C4B75850  31.954   2.758   7.350
 9314POPC   NC375851  11.307  34.564   5.550
 9314POPC   PO475852  11.301  34.610   5.850
 9314POPC   GL175853  11.348  34.562   6.150
 9314POPC   GL275854  11.266  34.738   6.150
 9314POPC   C1A75855  11.303  34.549   6.450
 9314POPC   D2A75856  11.343  34.597   6.750
 9314POPC   C3A75857  11.294  34.599   7.050
 9314POPC   C4A75858  11.290  34.555   7.350
 9314POPC   C1B75859  11.232  34.829   6.450
 9314POPC   C2B75860  11.223  34.850   6.750
 9314POPC   C3B75861  11.243  34.845   7.050
 9314POPC   C4B75862  11.176  34.789   7.350
 9315POPC   NC375863  28.354  32.277   5.550
 9315POPC   PO475864  28.405  32.257   5.850
 9315POPC   GL175865  28.371  32.232   6.150
 9315POPC   GL275866  28.474  32.177   6.150
 9315POPC   C1A75867  28.352  32.244   6.450
 9315POPC   D2A75868  28.411  32.272   6.750
 9315POPC   C3A75869  28.352  32.268   7.050
 9315POPC   C4A75870  28.378  32.268   7.350
 9315POPC   C1B75871  28.547  32.097   6.450
 9315POPC   C2B75872  28.551  32.120   6.750
 9315POPC   C3B75873  28.576  32.083   7.050
 9315POPC   C4B75874  28.536  32.110   7.350
 9316POPC   NC375875   8.232  39.982   5.550
 9316POPC   PO475876   8.241  39.991   5.850
 9316POPC   GL175877   8.238  40.003   6.150
 9316POPC   GL275878   8.309  40.014   6.150
 9316POPC   C1A75879   8.168  40.036   6.450
 9316POPC   D2A75880   8.153  40.035   6.750
 9316POPC   C3A75881   8.204  40.026   7.050
 9316POPC   C4A75882   8.152  40.024   7.350
 9316POPC   C1B75883   8.401  40.064   6.450
 9316POPC   C2B75884   8.396  40.047   6.750
 9316POPC   C3B75885   8.391  40.114   7.050
 9316POPC   C4B75886   8.467  40.058   7.350
 9317POPC   NC375887  36.866  40.041   5.550
 9317POPC   PO475888  36.866  40.049   5.850
 9317POPC   GL175889  36.931  39.991   6.150
 9317POPC   GL275890  36.811  40.012   6.150
 9317POPC   C1A75891  36.948  39.978   6.450
 9317POPC   D2A75892  36.927  40.026   6.750
 9317POPC   C3A75893  36.953  40.042   7.050
 9317POPC   C4A75894  36.950  40.056   7.350
 9317POPC   C1B75895  36.647  40.079   6.450
 9317POPC   C2B75896  36.671  40.104   6.750
 9317POPC   C3B75897  36.620  40.031   7.050
 9317POPC   C4B75898  36.664  40.011   7.350
 9318POPC   NC375899  43.077  17.460   5.550
 9318POPC   PO475900  43.088  17.461   5.850
 9318POPC   GL175901  43.141  17.467   6.150
 9318POPC   GL275902  43.230  17.491   6.150
 9318POPC   C1A75903  43.125  17.534   6.450
 9318POPC   D2A75904  43.142  17.529   6.750
 9318POPC   C3A75905  43.094  17.497   7.050
 9318POPC   C4A75906  43.128  17.478   7.350
 9318POPC   C1B75907  43.377  17.544   6.450
 9318POPC   C2B75908  43.380  17.522   6.750
 9318POPC   C3B75909  43.329  17.534   7.050
 9318POPC   C4B75910  43.337  17.560   7.350
 9319POPC   NC375911  26.804  39.240   5.550
 9319POPC   PO475912  26.861  39.201   5.850
 9319POPC   GL175913  26.784  39.206   6.150
 9319POPC   GL275914  26.842  39.354   6.150
 9319POPC   C1A75915  26.865  39.275   6.450
 9319POPC   D2A75916  26.806  39.194   6.750
 9319POPC   C3A75917  26.781  39.259   7.050
 9319POPC   C4A75918  26.790  39.212   7.350
 9319POPC   C1B75919  26.988  39.417   6.450
 9319POPC   C2B75920  26.938  39.448   6.750
 9319POPC   C3B75921  26.900  39.437   7.050
 9319POPC   C4B75922  26.904  39.468   7.350
 9320POPC   NC375923  22.925  16.724   5.550
 9320POPC   PO475924  22.977  16.690   5.850
 9320POPC   GL175925  22.946  16.709   6.150
 9320POPC   GL275926  23.110  16.771   6.150
 9320POPC   C1A75927  22.916  16.766   6.450
 9320POPC   D2A75928  22.909  16.764   6.750
 9320POPC   C3A75929  22.896  16.707   7.050
 9320POPC   C4A75930  22.896  16.694   7.350
 9320POPC   C1B75931  23.198  16.790   6.450
 9320POPC   C2B75932  23.153  16.793   6.750
 9320POPC   C3B75933  23.191  16.768   7.050
 9320POPC   C4B75934  23.199  16.716   7.350
 9321POPC   NC375935  23.730  40.004   5.550
 9321POPC   PO475936  23.691  39.995   5.850
 9321POPC   GL175937  23.676  39.967   6.150
 9321POPC   GL275938  23.778  39.855   6.150
 9321POPC   C1A75939  23.720  39.962   6.450
 9321POPC   D2A75940  23.720  39.963   6.750
 9321POPC   C3A75941  23.710  40.007   7.050
 9321POPC   C4A75942  23.680  40.047   7.350
 9321POPC   C1B75943  23.777  39.730   6.450
 9321POPC   C2B75944  23.700  39.744   6.750
 9321POPC   C3B75945  23.754  39.721   7.050
 9321POPC   C4B75946  23.737  39.738   7.350
 9322POPC   NC375947  24.500  15.999   5.550
 9322POPC   PO475948  24.505  15.942   5.850
 9322POPC   GL175949  24.448  15.913   6.150
 9322POPC   GL275950  24.495  16.059   6.150
 9322POPC   C1A75951  24.445  15.918   6.450
 9322POPC   D2A75952  24.506  15.930   6.750
 9322POPC   C3A75953  24.506  15.982   7.050
 9322POPC   C4A75954  24.514  15.927   7.350
 9322POPC   C1B75955  24.455  16.239   6.450
 9322POPC   C2B75956  24.440  16.205   6.750
 9322POPC   C3B75957  24.407  16.197   7.050
 9322POPC   C4B75958  24.400  16.213   7.350
 9323POPC   NC375959  41.601  25.269   5.550
 9323POPC   PO475960  41.588  25.225   5.850
 9323POPC   GL175961  41.556  25.302   6.150
 9323POPC   GL275962  41.703  25.202   6.150
 9323POPC   C1A75963  41.577  25.279   6.450
 9323POPC   D2A75964  41.511  25.225   6.750
 9323POPC   C3A75965  41.569  25.219   7.050
 9323POPC   C4A75966  41.592  25.312   7.350
 9323POPC   C1B75967  41.852  25.197   6.450
 9323POPC   C2B75968  41.814  25.194   6.750
 9323POPC   C3B75969  41.814  25.168   7.050
 9323POPC   C4B75970  41.831  25.217   7.350
 9324POPC   NC375971  38.410  30.689   5.550
 9324POPC   PO475972  38.495  30.686   5.850
 9324POPC   GL175973  38.471  30.699   6.150
 9324POPC   GL275974  38.553  30.572   6.150
 9324POPC   C1A75975  38.457  30.662   6.450
 9324POPC   D2A75976  38.454  30.719   6.750
 9324POPC   C3A75977  38.418  30.744   7.050
 9324POPC   C4A75978  38.460  30.666   7.350
 9324POPC   C1B75979  38.653  30.557   6.450
 9324POPC   C2B75980  38.658  30.535   6.750
 9324POPC   C3B75981  38.580  30.539   7.050
 9324POPC   C4B75982  38.638  30.500   7.350
 9325POPC   NC375983   5.881  14.356   5.550
 9325POPC   PO475984   5.849  14.445   5.850
 9325POPC   GL175985   5.863  14.437   6.150
 9325POPC   GL275986   5.946  14.464   6.150
 9325POPC   C1A75987   5.870  14.450   6.450
 9325POPC   D2A75988   5.859  14.384   6.750
 9325POPC   C3A75989   5.886  14.403   7.050
 9325POPC   C4A75990   5.860  14.419   7.350
 9325POPC   C1B75991   6.111  14.451   6.450
 9325POPC   C2B75992   6.087  14.442   6.750
 9325POPC   C3B75993   6.077  14.513   7.050
 9325POPC   C4B75994   6.131  14.482   7.350
 9326POPC   NC375995   1.252  32.284   5.550
 9326POPC   PO475996   1.198  32.282   5.850
 9326POPC   GL175997   1.218  32.204   6.150
 9326POPC   GL275998   1.101  32.349   6.150
 9326POPC   C1A75999   1.165  32.231   6.450
 9326POPC   D2A76000   1.214  32.229   6.750
 9326POPC   C3A76001   1.262  32.230   7.050
 9326POPC   C4A76002   1.219  32.237   7.350
 9326POPC   C1B76003   1.087  32.450   6.450
 9326POPC   C2B76004   1.040  32.427   6.750
 9326POPC   C3B76005   1.077  32.436   7.050
 9326POPC   C4B76006   1.087  32.494   7.350
 9327POPC   NC376007  30.662  38.408   5.550
 9327POPC   PO476008  30.728  38.476   5.850
 9327POPC   GL176009  30.703  38.502   6.150
 9327POPC   GL276010  30.629  38.332   6.150
 9327POPC   C1A76011  30.730  38.452   6.450
 9327POPC   D2A76012  30.662  38.488   6.750
 9327POPC   C3A76013  30.690  38.504   7.050
 9327POPC   C4A76014  30.703  38.457   7.350
 9327POPC   C1B76015  30.692  38.167   6.450
 9327POPC   C2B76016  30.651  38.174   6.750
 9327POPC   C3B76017  30.642  38.184   7.050
 9327POPC   C4B76018  30.637  38.232   7.350
 9328POPC   NC376019   3.522  11.349   5.550
 9328POPC   PO476020   3.570  11.324   5.850
 9328POPC   GL176021   3.500  11.318   6.150
 9328POPC   GL276022   3.461  11.158   6.150
 9328POPC   C1A76023   3.495  11.277   6.450
 9328POPC   D2A76024   3.568  11.282   6.750
 9328POPC   C3A76025   3.504  11.264   7.050
 9328POPC   C4A76026   3.505  11.259   7.350
 9328POPC   C1B76027   3.449  11.017   6.450
 9328POPC   C2B76028   3.471  11.050   6.750
 9328POPC   C3B76029   3.509  11.017   7.050
 9328POPC   C4B76030   3.445  11.060   7.350
 9329POPC   NC376031  40.821  40.807   5.550
 9329POPC   PO476032  40.777  40.808   5.850
 9329POPC   GL176033  40.790  40.749   6.150
 9329POPC   GL276034  40.670  40.705   6.150
 9329POPC   C1A76035  40.794  40.773   6.450
 9329POPC   D2A76036  40.744  40.777   6.750
 9329POPC   C3A76037  40.828  40.741   7.050
 9329POPC   C4A76038  40.813  40.770   7.350
 9329POPC   C1B76039  40.614  40.616   6.450
 9329POPC   C2B76040  40.612  40.598   6.750
 9329POPC   C3B76041  40.597  40.660   7.050
 9329POPC   C4B76042  40.583  40.646   7.350
 9330POPC   NC376043  19.036   5.855   5.550
 9330POPC   PO476044  19.081   5.834   5.850
 9330POPC   GL176045  19.072   5.906   6.150
 9330POPC   GL276046  19.166   5.838   6.150
 9330POPC   C1A76047  19.024   5.866   6.450
 9330POPC   D2A76048  19.089   5.892   6.750
 9330POPC   C3A76049  19.029   5.865   7.050
 9330POPC   C4A76050  19.012   5.905   7.350
 9330POPC   C1B76051  19.335   5.811   6.450
 9330POPC   C2B76052  19.275   5.749   6.750
 9330POPC   C3B76053  19.251   5.753   7.050
 9330POPC   C4B76054  19.257   5.824   7.350
 9331POPC   NC376055   1.997  36.894   5.550
 9331POPC   PO476056   1.961  36.895   5.850
 9331POPC   GL176057   1.982  36.888   6.150
 9331POPC   GL276058   1.911  36.741   6.150
 9331POPC   C1A76059   1.951  36.856   6.450
 9331POPC   D2A76060   2.008  36.942   6.750
 9331POPC   C3A76061   1.960  36.903   7.050
 9331POPC   C4A76062   2.006  36.875   7.350
 9331POPC   C1B76063   1.963  36.658   6.450
 9331POPC   C2B76064   1.955  36.663   6.750
 9331POPC   C3B76065   1.950  36.679   7.050
 9331POPC   C4B76066   1.931  36.711   7.350
 9332POPC   NC376067  28.371  43.920   5.550
 9332POPC   PO476068  28.349  43.932   5.850
 9332POPC   GL176069  28.416  43.848   6.150
 9332POPC   GL276070  28.449  43.893   6.150
 9332POPC   C1A76071  28.399  43.907   6.450
 9332POPC   D2A76072  28.376  43.840   6.750
 9332POPC   C3A76073  28.368  43.865   7.050
 9332POPC   C4A76074  28.378  43.929   7.350
 9332POPC   C1B76075  28.628  43.897   6.450
 9332POPC   C2B76076  28.641  43.910   6.750
 9332POPC   C3B76077  28.592  43.906   7.050
 9332POPC   C4B76078  28.596  43.883   7.350
 9333POPC   NC376079  18.255   8.993   5.550
 9333POPC   PO476080  18.261   8.979   5.850
 9333POPC   GL176081  18.256   8.937   6.150
 9333POPC   GL276082  18.156   8.912   6.150
 9333POPC   C1A76083  18.261   8.958   6.450
 9333POPC   D2A76084  18.318   8.968   6.750
 9333POPC   C3A76085  18.327   9.012   7.050
 9333POPC   C4A76086  18.316   8.951   7.350
 9333POPC   C1B76087  18.003   8.912   6.450
 9333POPC   C2B76088  18.015   8.875   6.750
 9333POPC   C3B76089  18.046   8.872   7.050
 9333POPC   C4B76090  18.031   8.842   7.350
 9334POPC   NC376091  17.530  29.877   5.550
 9334POPC   PO476092  17.516  29.886   5.850
 9334POPC   GL176093  17.498  29.927   6.150
 9334POPC   GL276094  17.525  29.831   6.150
 9334POPC   C1A76095  17.488  29.938   6.450
 9334POPC   D2A76096  17.550  29.967   6.750
 9334POPC   C3A76097  17.493  29.951   7.050
 9334POPC   C4A76098  17.522  29.969   7.350
 9334POPC   C1B76099  17.432  29.659   6.450
 9334POPC   C2B76100  17.461  29.662   6.750
 9334POPC   C3B76101  17.503  29.723   7.050
 9334POPC   C4B76102  17.423  29.648   7.350
 9335POPC   NC376103  38.425  35.305   5.550
 9335POPC   PO476104  38.483  35.357   5.850
 9335POPC   GL176105  38.489  35.372   6.150
 9335POPC   GL276106  38.305  35.323   6.150
 9335POPC   C1A76107  38.472  35.390   6.450
 9335POPC   D2A76108  38.433  35.390   6.750
 9335POPC   C3A76109  38.411  35.370   7.050
 9335POPC   C4A76110  38.410  35.379   7.350
 9335POPC   C1B76111  38.202  35.253   6.450
 9335POPC   C2B76112  38.181  35.319   6.750
 9335POPC   C3B76113  38.263  35.302   7.050
 9335POPC   C4B76114  38.197  35.273   7.350
 9336POPC   NC376115  19.011  13.645   5.550
 9336POPC   PO476116  19.084  13.598   5.850
 9336POPC   GL176117  19.072  13.626   6.150
 9336POPC   GL276118  18.983  13.740   6.150
 9336POPC   C1A76119  19.091  13.648   6.450
 9336POPC   D2A76120  19.036  13.586   6.750
 9336POPC   C3A76121  19.056  13.643   7.050
 9336POPC   C4A76122  19.088  13.662   7.350
 9336POPC   C1B76123  18.958  13.870   6.450
 9336POPC   C2B76124  19.013  13.872   6.750
 9336POPC   C3B76125  19.028  13.836   7.050
 9336POPC   C4B76126  18.968  13.913   7.350
 9337POPC   NC376127  31.448   7.387   5.550
 9337POPC   PO476128  31.456   7.464   5.850
 9337POPC   GL176129  31.486   7.469   6.150
 9337POPC   GL276130  31.383   7.375   6.150
 9337POPC   C1A76131  31.481   7.422   6.450
 9337POPC   D2A76132  31.424   7.378   6.750
 9337POPC   C3A76133  31.499   7.411   7.050
 9337POPC   C4A76134  31.429   7.400   7.350
 9337POPC   C1B76135  31.271   7.432   6.450
 9337POPC   C2B76136  31.221   7.461   6.750
 9337POPC   C3B76137  31.272   7.404   7.050
 9337POPC   C4B76138  31.242   7.396   7.350
 9338POPC   NC376139  14.412  13.618   5.550
 9338POPC   PO476140  14.437  13.579   5.850
 9338POPC   GL176141  14.418  13.676   6.150
 9338POPC   GL276142  14.351  13.534   6.150
 9338POPC   C1A76143  14.365  13.596   6.450
 9338POPC   D2A76144  14.453  13.588   6.750
 9338POPC   C3A76145  14.429  13.586   7.050
 9338POPC   C4A76146  14.358  13.622   7.350
 9338POPC   C1B76147  14.394  13.364   6.450
 9338POPC   C2B76148  14.375  13.369   6.750
 9338POPC   C3B76149  14.333  13.363   7.050
 9338POPC   C4B76150  14.349  13.358   7.350
 9339POPC   NC376151  17.529  32.216   5.550
 9339POPC   PO476152  17.524  32.292   5.850
 9339POPC   GL176153  17.494  32.240   6.150
 9339POPC   GL276154  17.470  32.192   6.150
 9339POPC   C1A76155  17.527  32.279   6.450
 9339POPC   D2A76156  17.536  32.241   6.750
 9339POPC   C3A76157  17.529  32.263   7.050
 9339POPC   C4A76158  17.505  32.209   7.350
 9339POPC   C1B76159  17.385  32.073   6.450
 9339POPC   C2B76160  17.320  32.080   6.750
 9339POPC   C3B76161  17.379  32.047   7.050
 9339POPC   C4B76162  17.295  32.042   7.350
 9340POPC   NC376163  36.122   4.281   5.550
 9340POPC   PO476164  36.177   4.322   5.850
 9340POPC   GL176165  36.082   4.319   6.150
 9340POPC   GL276166  36.063   4.233   6.150
 9340POPC   C1A76167  36.132   4.333   6.450
 9340POPC   D2A76168  36.088   4.299   6.750
 9340POPC   C3A76169  36.098   4.301   7.050
 9340POPC   C4A76170  36.100   4.306   7.350
 9340POPC   C1B76171  36.037   4.127   6.450
 9340POPC   C2B76172  36.069   4.084   6.750
 9340POPC   C3B76173  36.080   4.099   7.050
 9340POPC   C4B76174  36.035   4.063   7.350
 9341POPC   NC376175  12.895  19.044   5.550
 9341POPC   PO476176  12.836  19.076   5.850
 9341POPC   GL176177  12.824  19.082   6.150
 9341POPC   GL276178  12.784  19.190   6.150
 9341POPC   C1A76179  12.879  19.018   6.450
 9341POPC   D2A76180  12.884  19.035   6.750
 9341POPC   C3A76181  12.869  19.069   7.050
 9341POPC   C4A76182  12.856  19.093   7.350
 9341POPC   C1B76183  12.731  19.311   6.450
 9341POPC   C2B76184  12.752  19.332   6.750
 9341POPC   C3B76185  12.779  19.333   7.050
 9341POPC   C4B76186  12.747  19.338   7.350
 9342POPC   NC376187  22.201  10.519   5.550
 9342POPC   PO476188  22.140  10.569   5.850
 9342POPC   GL176189  22.116  10.513   6.150
 9342POPC   GL276190  22.064  10.429   6.150
 9342POPC   C1A76191  22.211  10.517   6.450
 9342POPC   D2A76192  22.148  10.490   6.750
 9342POPC   C3A76193  22.193  10.531   7.050
 9342POPC   C4A76194  22.168  10.571   7.350
 9342POPC   C1B76195  22.028  10.329   6.450
 9342POPC   C2B76196  22.029  10.287   6.750
 9342POPC   C3B76197  21.989  10.347   7.050
 9342POPC   C4B76198  22.027  10.322   7.350
 9343POPC   NC376199  30.724  33.773   5.550
 9343POPC   PO476200  30.740  33.786   5.850
 9343POPC   GL176201  30.667  33.761   6.150
 9343POPC   GL276202  30.796  33.737   6.150
 9343POPC   C1A76203  30.727  33.759   6.450
 9343POPC   D2A76204  30.663  33.849   6.750
 9343POPC   C3A76205  30.725  33.752   7.050
 9343POPC   C4A76206  30.680  33.849   7.350
 9343POPC   C1B76207  30.854  33.592   6.450
 9343POPC   C2B76208  30.793  33.621   6.750
 9343POPC   C3B76209  30.796  33.559   7.050
 9343POPC   C4B76210  30.785  33.560   7.350
 9344POPC   NC376211  13.606  31.450   5.550
 9344POPC   PO476212  13.631  31.495   5.850
 9344POPC   GL176213  13.589  31.509   6.150
 9344POPC   GL276214  13.750  31.507   6.150
 9344POPC   C1A76215  13.639  31.490   6.450
 9344POPC   D2A76216  13.621  31.465   6.750
 9344POPC   C3A76217  13.658  31.501   7.050
 9344POPC   C4A76218  13.595  31.495   7.350
 9344POPC   C1B76219  13.849  31.637   6.450
 9344POPC   C2B76220  13.843  31.606   6.750
 9344POPC   C3B76221  13.790  31.625   7.050
 9344POPC   C4B76222  13.786  31.654   7.350
 9345POPC   NC376223   5.903  28.336   5.550
 9345POPC   PO476224   5.863  28.402   5.850
 9345POPC   GL176225   5.841  28.406   6.150
 9345POPC   GL276226   5.759  28.322   6.150
 9345POPC   C1A76227   5.888  28.320   6.450
 9345POPC   D2A76228   5.890  28.371   6.750
 9345POPC   C3A76229   5.873  28.355   7.050
 9345POPC   C4A76230   5.877  28.361   7.350
 9345POPC   C1B76231   5.655  28.306   6.450
 9345POPC   C2B76232   5.665  28.303   6.750
 9345POPC   C3B76233   5.578  28.302   7.050
 9345POPC   C4B76234   5.638  28.346   7.350
 9346POPC   NC376235   0.487   9.734   5.550
 9346POPC   PO476236   0.436   9.767   5.850
 9346POPC   GL176237   0.466   9.724   6.150
 9346POPC   GL276238   0.447   9.602   6.150
 9346POPC   C1A76239   0.400   9.716   6.450
 9346POPC   D2A76240   0.425   9.699   6.750
 9346POPC   C3A76241   0.467   9.770   7.050
 9346POPC   C4A76242   0.441   9.770   7.350
 9346POPC   C1B76243   0.568   9.491   6.450
 9346POPC   C2B76244   0.574   9.519   6.750
 9346POPC   C3B76245   0.568   9.484   7.050
 9346POPC   C4B76246   0.548   9.539   7.350
 9347POPC   NC376247  23.744  36.912   5.550
 9347POPC   PO476248  23.754  36.877   5.850
 9347POPC   GL176249  23.737  36.858   6.150
 9347POPC   GL276250  23.704  36.998   6.150
 9347POPC   C1A76251  23.688  36.882   6.450
 9347POPC   D2A76252  23.737  36.861   6.750
 9347POPC   C3A76253  23.679  36.894   7.050
 9347POPC   C4A76254  23.682  36.950   7.350
 9347POPC   C1B76255  23.647  37.108   6.450
 9347POPC   C2B76256  23.660  37.144   6.750
 9347POPC   C3B76257  23.628  37.122   7.050
 9347POPC   C4B76258  23.614  37.125   7.350
 9348POPC   NC376259  10.512  26.052   5.550
 9348POPC   PO476260  10.514  26.083   5.850
 9348POPC   GL176261  10.526  26.044   6.150
 9348POPC   GL276262  10.381  25.974   6.150
 9348POPC   C1A76263  10.486  26.002   6.450
 9348POPC   D2A76264  10.571  26.039   6.750
 9348POPC   C3A76265  10.537  26.036   7.050
 9348POPC   C4A76266  10.498  26.002   7.350
 9348POPC   C1B76267  10.325  26.002   6.450
 9348POPC   C2B76268  10.264  25.935   6.750
 9348POPC   C3B76269  10.336  25.912   7.050
 9348POPC   C4B76270  10.275  25.997   7.350
 9349POPC   NC376271  25.261  39.239   5.550
 9349POPC   PO476272  25.267  39.183   5.850
 9349POPC   GL176273  25.251  39.267   6.150
 9349POPC   GL276274  25.402  39.199   6.150
 9349POPC   C1A76275  25.302  39.231   6.450
 9349POPC   D2A76276  25.223  39.240   6.750
 9349POPC   C3A76277  25.295  39.216   7.050
 9349POPC   C4A76278  25.314  39.197   7.350
 9349POPC   C1B76279  25.487  39.166   6.450
 9349POPC   C2B76280  25.501  39.228   6.750
 9349POPC   C3B76281  25.515  39.254   7.050
 9349POPC   C4B76282  25.497  39.241   7.350
 9350POPC   NC376283  22.975  10.571   5.550
 9350POPC   PO476284  22.904  10.495   5.850
 9350POPC   GL176285  22.958  10.486   6.150
 9350POPC   GL276286  22.896  10.617   6.150
 9350POPC   C1A76287  22.922  10.568   6.450
 9350POPC   D2A76288  22.943  10.496   6.750
 9350POPC   C3A76289  22.915  10.513   7.050
 9350POPC   C4A76290  22.918  10.523   7.350
 9350POPC   C1B76291  22.896  10.821   6.450
 9350POPC   C2B76292  22.965  10.822   6.750
 9350POPC   C3B76293  22.929  10.820   7.050
 9350POPC   C4B76294  22.950  10.755   7.350
 9351POPC   NC376295  22.200  36.157   5.550
 9351POPC   PO476296  22.192  36.167   5.850
 9351POPC   GL176297  22.150  36.172   6.150
 9351POPC   GL276298  22.248  36.187   6.150
 9351POPC   C1A76299  22.124  36.153   6.450
 9351POPC   D2A76300  22.113  36.146   6.750
 9351POPC   C3A76301  22.178  36.084   7.050
 9351POPC   C4A76302  22.153  36.122   7.350
 9351POPC   C1B76303  22.254  36.291   6.450
 9351POPC   C2B76304  22.268  36.310   6.750
 9351POPC   C3B76305  22.337  36.349   7.050
 9351POPC   C4B76306  22.266  36.308   7.350
 9352POPC   NC376307  43.874  10.488   5.550
 9352POPC   PO476308  43.861  10.525   5.850
 9352POPC   GL176309  43.911  10.481   6.150
 9352POPC   GL276310  43.803  10.503   6.150
 9352POPC   C1A76311  43.840  10.477   6.450
 9352POPC   D2A76312  43.872  10.492   6.750
 9352POPC   C3A76313  43.874  10.478   7.050
 9352POPC   C4A76314  43.891  10.505   7.350
 9352POPC   C1B76315  43.662  10.512   6.450
 9352POPC   C2B76316  43.659  10.526   6.750
 9352POPC   C3B76317  43.594  10.468   7.050
 9352POPC   C4B76318  43.627  10.459   7.350
 9353POPC   NC376319   9.744  11.347   5.550
 9353POPC   PO476320   9.702  11.257   5.850
 9353POPC   GL176321   9.736  11.322   6.150
 9353POPC   GL276322   9.840  11.212   6.150
 9353POPC   C1A76323   9.756  11.349   6.450
 9353POPC   D2A76324   9.777  11.322   6.750
 9353POPC   C3A76325   9.741  11.288   7.050
 9353POPC   C4A76326   9.708  11.314   7.350
 9353POPC   C1B76327   9.965  11.206   6.450
 9353POPC   C2B76328   9.954  11.205   6.750
 9353POPC   C3B76329   9.986  11.266   7.050
 9353POPC   C4B76330   9.973  11.229   7.350
 9354POPC   NC376331  26.825  23.727   5.550
 9354POPC   PO476332  26.846  23.707   5.850
 9354POPC   GL176333  26.825  23.752   6.150
 9354POPC   GL276334  26.841  23.827   6.150
 9354POPC   C1A76335  26.787  23.734   6.450
 9354POPC   D2A76336  26.778  23.723   6.750
 9354POPC   C3A76337  26.794  23.733   7.050
 9354POPC   C4A76338  26.866  23.763   7.350
 9354POPC   C1B76339  26.842  23.940   6.450
 9354POPC   C2B76340  26.850  24.001   6.750
 9354POPC   C3B76341  26.825  24.003   7.050
 9354POPC   C4B76342  26.830  23.924   7.350
 9355POPC   NC376343  32.995  22.169   5.550
 9355POPC   PO476344  33.002  22.135   5.850
 9355POPC   GL176345  32.977  22.170   6.150
 9355POPC   GL276346  32.888  22.159   6.150
 9355POPC   C1A76347  32.995  22.211   6.450
 9355POPC   D2A76348  33.010  22.198   6.750
 9355POPC   C3A76349  33.011  22.131   7.050
 9355POPC   C4A76350  33.008  22.196   7.350
 9355POPC   C1B76351  32.772  22.248   6.450
 9355POPC   C2B76352  32.797  22.198   6.750
 9355POPC   C3B76353  32.782  22.240   7.050
 9355POPC   C4B76354  32.774  22.250   7.350
 9356POPC   NC376355  41.532   8.210   5.550
 9356POPC   PO476356  41.599   8.221   5.850
 9356POPC   GL176357  41.529   8.152   6.150
 9356POPC   GL276358  41.716   8.218   6.150
 9356POPC   C1A76359  41.604   8.219   6.450
 9356POPC   D2A76360  41.574   8.193   6.750
 9356POPC   C3A76361  41.559   8.181   7.050
 9356POPC   C4A76362  41.551   8.221   7.350
 9356POPC   C1B76363  41.831   8.277   6.450
 9356POPC   C2B76364  41.796   8.255   6.750
 9356POPC   C3B76365  41.811   8.271   7.050
 9356POPC   C4B76366  41.771   8.254   7.350
 9357POPC   NC376367  20.609  13.607   5.550
 9357POPC   PO476368  20.591  13.646   5.850
 9357POPC   GL176369  20.599  13.663   6.150
 9357POPC   GL276370  20.636  13.712   6.150
 9357POPC   C1A76371  20.583  13.602   6.450
 9357POPC   D2A76372  20.641  13.674   6.750
 9357POPC   C3A76373  20.621  13.590   7.050
 9357POPC   C4A76374  20.572  13.670   7.350
 9357POPC   C1B76375  20.570  13.914   6.450
 9357POPC   C2B76376  20.605  13.834   6.750
 9357POPC   C3B76377  20.597  13.904   7.050
 9357POPC   C4B76378  20.627  13.893   7.350
 9358POPC   NC376379  19.065  21.372   5.550
 9358POPC   PO476380  19.044  21.384   5.850
 9358POPC   GL176381  19.042  21.365   6.150
 9358POPC   GL276382  19.149  21.277   6.150
 9358POPC   C1A76383  19.060  21.385   6.450
 9358POPC   D2A76384  19.046  21.367   6.750
 9358POPC   C3A76385  19.035  21.352   7.050
 9358POPC   C4A76386  19.094  21.420   7.350
 9358POPC   C1B76387  19.233  21.233   6.450
 9358POPC   C2B76388  19.207  21.177   6.750
 9358POPC   C3B76389  19.281  21.220   7.050
 9358POPC   C4B76390  19.215  21.255   7.350
 9359POPC   NC376391   2.729   5.098   5.550
 9359POPC   PO476392   2.774   5.120   5.850
 9359POPC   GL176393   2.769   5.079   6.150
 9359POPC   GL276394   2.739   4.922   6.150
 9359POPC   C1A76395   2.738   5.055   6.450
 9359POPC   D2A76396   2.744   5.114   6.750
 9359POPC   C3A76397   2.813   5.127   7.050
 9359POPC   C4A76398   2.759   5.044   7.350
 9359POPC   C1B76399   2.681   4.879   6.450
 9359POPC   C2B76400   2.713   4.874   6.750
 9359POPC   C3B76401   2.736   4.800   7.050
 9359POPC   C4B76402   2.668   4.869   7.350
 9360POPC   NC376403  34.552  43.851   5.550
 9360POPC   PO476404  34.580  43.860   5.850
 9360POPC   GL176405  34.624  43.874   6.150
 9360POPC   GL276406  34.555  43.774   6.150
 9360POPC   C1A76407  34.536  43.923   6.450
 9360POPC   D2A76408  34.599  43.878   6.750
 9360POPC   C3A76409  34.534  43.844   7.050
 9360POPC   C4A76410  34.560  43.880   7.350
 9360POPC   C1B76411  34.447  43.700   6.450
 9360POPC   C2B76412  34.474  43.689   6.750
 9360POPC   C3B76413  34.447  43.661   7.050
 9360POPC   C4B76414  34.452  43.643   7.350
 9361POPC   NC376415   2.795   7.392   5.550
 9361POPC   PO476416   2.754   7.432   5.850
 9361POPC   GL176417   2.748   7.438   6.150
 9361POPC   GL276418   2.728   7.488   6.150
 9361POPC   C1A76419   2.742   7.435   6.450
 9361POPC   D2A76420   2.773   7.415   6.750
 9361POPC   C3A76421   2.790   7.454   7.050
 9361POPC   C4A76422   2.740   7.404   7.350
 9361POPC   C1B76423   2.658   7.603   6.450
 9361POPC   C2B76424   2.598   7.584   6.750
 9361POPC   C3B76425   2.603   7.622   7.050
 9361POPC   C4B76426   2.621   7.661   7.350
 9362POPC   NC376427  18.285  37.680   5.550
 9362POPC   PO476428  18.276  37.687   5.850
 9362POPC   GL176429  18.306  37.694   6.150
 9362POPC   GL276430  18.371  37.764   6.150
 9362POPC   C1A76431  18.236  37.652   6.450
 9362POPC   D2A76432  18.264  37.727   6.750
 9362POPC   C3A76433  18.234  37.725   7.050
 9362POPC   C4A76434  18.261  37.725   7.350
 9362POPC   C1B76435  18.503  37.899   6.450
 9362POPC   C2B76436  18.413  37.822   6.750
 9362POPC   C3B76437  18.500  37.811   7.050
 9362POPC   C4B76438  18.487  37.881   7.350
 9363POPC   NC376439  29.942  15.134   5.550
 9363POPC   PO476440  29.898  15.201   5.850
 9363POPC   GL176441  29.908  15.220   6.150
 9363POPC   GL276442  30.031  15.248   6.150
 9363POPC   C1A76443  29.964  15.207   6.450
 9363POPC   D2A76444  29.890  15.166   6.750
 9363POPC   C3A76445  29.878  15.139   7.050
 9363POPC   C4A76446  29.956  15.157   7.350
 9363POPC   C1B76447  30.139  15.251   6.450
 9363POPC   C2B76448  30.197  15.278   6.750
 9363POPC   C3B76449  30.141  15.233   7.050
 9363POPC   C4B76450  30.213  15.280   7.350
 9364POPC   NC376451  36.910  14.441   5.550
 9364POPC   PO476452  36.885  14.386   5.850
 9364POPC   GL176453  36.942  14.426   6.150
 9364POPC   GL276454  36.875  14.537   6.150
 9364POPC   C1A76455  36.901  14.426   6.450
 9364POPC   D2A76456  36.915  14.368   6.750
 9364POPC   C3A76457  36.940  14.433   7.050
 9364POPC   C4A76458  36.923  14.447   7.350
 9364POPC   C1B76459  36.959  14.663   6.450
 9364POPC   C2B76460  36.901  14.675   6.750
 9364POPC   C3B76461  36.897  14.662   7.050
 9364POPC   C4B76462  36.965  14.662   7.350
 9365POPC   NC376463  24.504  35.362   5.550
 9365POPC   PO476464  24.455  35.386   5.850
 9365POPC   GL176465  24.488  35.306   6.150
 9365POPC   GL276466  24.404  35.334   6.150
 9365POPC   C1A76467  24.483  35.339   6.450
 9365POPC   D2A76468  24.504  35.324   6.750
 9365POPC   C3A76469  24.521  35.380   7.050
 9365POPC   C4A76470  24.506  35.343   7.350
 9365POPC   C1B76471  24.281  35.373   6.450
 9365POPC   C2B76472  24.283  35.363   6.750
 9365POPC   C3B76473  24.241  35.397   7.050
 9365POPC   C4B76474  24.215  35.350   7.350
 9366POPC   NC376475   9.780  26.785   5.550
 9366POPC   PO476476   9.743  26.788   5.850
 9366POPC   GL176477   9.752  26.823   6.150
 9366POPC   GL276478   9.593  26.794   6.150
 9366POPC   C1A76479   9.723  26.770   6.450
 9366POPC   D2A76480   9.784  26.832   6.750
 9366POPC   C3A76481   9.734  26.793   7.050
 9366POPC   C4A76482   9.716  26.801   7.350
 9366POPC   C1B76483   9.547  26.772   6.450
 9366POPC   C2B76484   9.534  26.773   6.750
 9366POPC   C3B76485   9.541  26.699   7.050
 9366POPC   C4B76486   9.481  26.749   7.350
 9367POPC   NC376487   8.997  39.275   5.550
 9367POPC   PO476488   8.964  39.275   5.850
 9367POPC   GL176489   8.981  39.221   6.150
 9367POPC   GL276490   9.110  39.261   6.150
 9367POPC   C1A76491   8.993  39.260   6.450
 9367POPC   D2A76492   8.932  39.198   6.750
 9367POPC   C3A76493   9.014  39.237   7.050
 9367POPC   C4A76494   8.976  39.210   7.350
 9367POPC   C1B76495   9.238  39.294   6.450
 9367POPC   C2B76496   9.253  39.329   6.750
 9367POPC   C3B76497   9.240  39.297   7.050
 9367POPC   C4B76498   9.187  39.317   7.350
 9368POPC   NC376499  20.658  43.922   5.550
 9368POPC   PO476500  20.578  43.880   5.850
 9368POPC   GL176501  20.644  43.905   6.150
 9368POPC   GL276502  20.744  43.964   6.150
 9368POPC   C1A76503  20.627  43.933   6.450
 9368POPC   D2A76504  20.599  43.929   6.750
 9368POPC   C3A76505  20.579  43.920   7.050
 9368POPC   C4A76506  20.562  43.879   7.350
 9368POPC   C1B76507  20.884  43.929   6.450
 9368POPC   C2B76508  20.809  44.006   6.750
 9368POPC   C3B76509  20.881  43.941   7.050
 9368POPC   C4B76510  20.811  43.919   7.350
 9369POPC   NC376511  38.487  44.646   5.550
 9369POPC   PO476512  38.476  44.687   5.850
 9369POPC   GL176513  38.490  44.612   6.150
 9369POPC   GL276514  38.405  44.534   6.150
 9369POPC   C1A76515  38.478  44.670   6.450
 9369POPC   D2A76516  38.477  44.670   6.750
 9369POPC   C3A76517  38.505  44.617   7.050
 9369POPC   C4A76518  38.503  44.624   7.350
 9369POPC   C1B76519  38.447  44.446   6.450
 9369POPC   C2B76520  38.459  44.416   6.750
 9369POPC   C3B76521  38.400  44.424   7.050
 9369POPC   C4B76522  38.452  44.381   7.350
 9370POPC   NC376523   1.212  36.864   5.550
 9370POPC   PO476524   1.253  36.864   5.850
 9370POPC   GL176525   1.258  36.951   6.150
 9370POPC   GL276526   1.207  37.035   6.150
 9370POPC   C1A76527   1.181  36.942   6.450
 9370POPC   D2A76528   1.228  36.950   6.750
 9370POPC   C3A76529   1.215  36.947   7.050
 9370POPC   C4A76530   1.246  36.874   7.350
 9370POPC   C1B76531   1.266  37.183   6.450
 9370POPC   C2B76532   1.209  37.192   6.750
 9370POPC   C3B76533   1.216  37.132   7.050
 9370POPC   C4B76534   1.206  37.120   7.350
 9371POPC   NC376535  22.968  19.872   5.550
 9371POPC   PO476536  22.909  19.820   5.850
 9371POPC   GL176537  22.906  19.805   6.150
 9371POPC   GL276538  23.076  19.934   6.150
 9371POPC   C1A76539  22.952  19.815   6.450
 9371POPC   D2A76540  22.931  19.787   6.750
 9371POPC   C3A76541  22.972  19.877   7.050
 9371POPC   C4A76542  22.982  19.874   7.350
 9371POPC   C1B76543  23.131  19.935   6.450
 9371POPC   C2B76544  23.174  19.911   6.750
 9371POPC   C3B76545  23.170  19.896   7.050
 9371POPC   C4B76546  23.196  19.964   7.350
 9372POPC   NC376547  44.708  15.920   5.550
 9372POPC   PO476548  44.620  15.946   5.850
 9372POPC   GL176549  44.615  15.954   6.150
 9372POPC   GL276550  44.686  15.856   6.150
 9372POPC   C1A76551  44.682  15.992   6.450
 9372POPC   D2A76552  44.676  15.963   6.750
 9372POPC   C3A76553  44.651  15.985   7.050
 9372POPC   C4A76554  44.678  15.921   7.350
 9372POPC   C1B76555  44.698  15.751   6.450
 9372POPC   C2B76556  44.709  15.694   6.750
 9372POPC   C3B76557  44.717  15.713   7.050
 9372POPC   C4B76558  44.791  15.743   7.350
 9373POPC   NC376559  16.742  33.059   5.550
 9373POPC   PO476560  16.709  33.044   5.850
 9373POPC   GL176561  16.741  33.044   6.150
 9373POPC   GL276562  16.726  33.187   6.150
 9373POPC   C1A76563  16.744  33.061   6.450
 9373POPC   D2A76564  16.692  33.002   6.750
 9373POPC   C3A76565  16.753  33.002   7.050
 9373POPC   C4A76566  16.777  33.021   7.350
 9373POPC   C1B76567  16.760  33.264   6.450
 9373POPC   C2B76568  16.702  33.324   6.750
 9373POPC   C3B76569  16.773  33.244   7.050
 9373POPC   C4B76570  16.687  33.294   7.350
 9374POPC   NC376571  34.539  30.726   5.550
 9374POPC   PO476572  34.527  30.723   5.850
 9374POPC   GL176573  34.558  30.694   6.150
 9374POPC   GL276574  34.597  30.806   6.150
 9374POPC   C1A76575  34.583  30.681   6.450
 9374POPC   D2A76576  34.558  30.736   6.750
 9374POPC   C3A76577  34.528  30.647   7.050
 9374POPC   C4A76578  34.558  30.667   7.350
 9374POPC   C1B76579  34.576  30.969   6.450
 9374POPC   C2B76580  34.528  30.919   6.750
 9374POPC   C3B76581  34.557  30.902   7.050
 9374POPC   C4B76582  34.578  30.928   7.350
 9375POPC   NC376583  24.488  27.632   5.550
 9375POPC   PO476584  24.517  27.563   5.850
 9375POPC   GL176585  24.456  27.641   6.150
 9375POPC   GL276586  24.495  27.715   6.150
 9375POPC   C1A76587  24.514  27.596   6.450
 9375POPC   D2A76588  24.510  27.638   6.750
 9375POPC   C3A76589  24.497  27.570   7.050
 9375POPC   C4A76590  24.520  27.643   7.350
 9375POPC   C1B76591  24.527  27.810   6.450
 9375POPC   C2B76592  24.553  27.851   6.750
 9375POPC   C3B76593  24.550  27.861   7.050
 9375POPC   C4B76594  24.579  27.806   7.350
 9376POPC   NC376595  29.915  32.237   5.550
 9376POPC   PO476596  29.965  32.279   5.850
 9376POPC   GL176597  29.945  32.213   6.150
 9376POPC   GL276598  29.821  32.124   6.150
 9376POPC   C1A76599  29.896  32.263   6.450
 9376POPC   D2A76600  29.966  32.202   6.750
 9376POPC   C3A76601  29.890  32.214   7.050
 9376POPC   C4A76602  29.891  32.266   7.350
 9376POPC   C1B76603  29.714  32.112   6.450
 9376POPC   C2B76604  29.715  32.123   6.750
 9376POPC   C3B76605  29.746  32.032   7.050
 9376POPC   C4B76606  29.776  32.069   7.350
 9377POPC   NC376607  12.874  33.800   5.550
 9377POPC   PO476608  12.836  33.767   5.850
 9377POPC   GL176609  12.812  33.786   6.150
 9377POPC   GL276610  12.944  33.670   6.150
 9377POPC   C1A76611  12.878  33.778   6.450
 9377POPC   D2A76612  12.833  33.774   6.750
 9377POPC   C3A76613  12.899  33.848   7.050
 9377POPC   C4A76614  12.817  33.831   7.350
 9377POPC   C1B76615  13.076  33.616   6.450
 9377POPC   C2B76616  13.044  33.649   6.750
 9377POPC   C3B76617  13.002  33.596   7.050
 9377POPC   C4B76618  13.022  33.663   7.350
 9378POPC   NC376619  11.339  22.199   5.550
 9378POPC   PO476620  11.339  22.186   5.850
 9378POPC   GL176621  11.317  22.206   6.150
 9378POPC   GL276622  11.299  22.317   6.150
 9378POPC   C1A76623  11.293  22.136   6.450
 9378POPC   D2A76624  11.288  22.169   6.750
 9378POPC   C3A76625  11.348  22.193   7.050
 9378POPC   C4A76626  11.282  22.172   7.350
 9378POPC   C1B76627  11.303  22.458   6.450
 9378POPC   C2B76628  11.243  22.375   6.750
 9378POPC   C3B76629  11.310  22.443   7.050
 9378POPC   C4B76630  11.325  22.417   7.350
 9379POPC   NC376631  40.037  25.246   5.550
 9379POPC   PO476632  40.042  25.226   5.850
 9379POPC   GL176633  40.005  25.282   6.150
 9379POPC   GL276634  40.091  25.253   6.150
 9379POPC   C1A76635  39.991  25.263   6.450
 9379POPC   D2A76636  40.039  25.246   6.750
 9379POPC   C3A76637  40.038  25.302   7.050
 9379POPC   C4A76638  40.054  25.312   7.350
 9379POPC   C1B76639  40.191  25.112   6.450
 9379POPC   C2B76640  40.192  25.164   6.750
 9379POPC   C3B76641  40.217  25.157   7.050
 9379POPC   C4B76642  40.200  25.105   7.350
 9380POPC   NC376643   9.746   3.511   5.550
 9380POPC   PO476644   9.785   3.566   5.850
 9380POPC   GL176645   9.744   3.499   6.150
 9380POPC   GL276646   9.622   3.556   6.150
 9380POPC   C1A76647   9.757   3.493   6.450
 9380POPC   D2A76648   9.702   3.580   6.750
 9380POPC   C3A76649   9.785   3.586   7.050
 9380POPC   C4A76650   9.726   3.522   7.350
 9380POPC   C1B76651   9.518   3.674   6.450
 9380POPC   C2B76652   9.546   3.661   6.750
 9380POPC   C3B76653   9.557   3.652   7.050
 9380POPC   C4B76654   9.472   3.654   7.350
 9381POPC   NC376655   1.258  41.579   5.550
 9381POPC   PO476656   1.198  41.564   5.850
 9381POPC   GL176657   1.214  41.536   6.150
 9381POPC   GL276658   1.099  41.518   6.150
 9381POPC   C1A76659   1.253  41.588   6.450
 9381POPC   D2A76660   1.176  41.578   6.750
 9381POPC   C3A76661   1.228  41.552   7.050
 9381POPC   C4A76662   1.228  41.547   7.350
 9381POPC   C1B76663   0.988  41.427   6.450
 9381POPC   C2B76664   1.057  41.408   6.750
 9381POPC   C3B76665   1.046  41.350   7.050
 9381POPC   C4B76666   1.052  41.418   7.350
 9382POPC   NC376667  43.905  32.993   5.550
 9382POPC   PO476668  43.932  33.061   5.850
 9382POPC   GL176669  43.869  33.047   6.150
 9382POPC   GL276670  43.913  33.175   6.150
 9382POPC   C1A76671  43.915  33.055   6.450
 9382POPC   D2A76672  43.837  33.066   6.750
 9382POPC   C3A76673  43.854  33.005   7.050
 9382POPC   C4A76674  43.905  33.041   7.350
 9382POPC   C1B76675  44.022  33.237   6.450
 9382POPC   C2B76676  43.988  33.180   6.750
 9382POPC   C3B76677  44.063  33.227   7.050
 9382POPC   C4B76678  44.025  33.255   7.350
 9383POPC   NC376679   9.757  29.953   5.550
 9383POPC   PO476680   9.766  29.907   5.850
 9383POPC   GL176681   9.714  29.893   6.150
 9383POPC   GL276682   9.814  30.013   6.150
 9383POPC   C1A76683   9.782  29.891   6.450
 9383POPC   D2A76684   9.753  29.894   6.750
 9383POPC   C3A76685   9.710  29.941   7.050
 9383POPC   C4A76686   9.794  29.912   7.350
 9383POPC   C1B76687  10.000  30.032   6.450
 9383POPC   C2B76688   9.936  30.021   6.750
 9383POPC   C3B76689  10.009  30.079   7.050
 9383POPC   C4B76690   9.916  30.055   7.350
 9384POPC   NC376691   8.958  28.362   5.550
 9384POPC   PO476692   8.996  28.337   5.850
 9384POPC   GL176693   9.020  28.328   6.150
 9384POPC   GL276694   9.069  28.275   6.150
 9384POPC   C1A76695   8.981  28.399   6.450
 9384POPC   D2A76696   9.015  28.398   6.750
 9384POPC   C3A76697   8.936  28.363   7.050
 9384POPC   C4A76698   8.990  28.409   7.350
 9384POPC   C1B76699   9.236  28.231   6.450
 9384POPC   C2B76700   9.186  28.202   6.750
 9384POPC   C3B76701   9.152  28.252   7.050
 9384POPC   C4B76702   9.207  28.267   7.350
 9385POPC   NC376703  36.151  10.501   5.550
 9385POPC   PO476704  36.128  10.568   5.850
 9385POPC   GL176705  36.136  10.527   6.150
 9385POPC   GL276706  36.041  10.385   6.150
 9385POPC   C1A76707  36.172  10.573   6.450
 9385POPC   D2A76708  36.081  10.478   6.750
 9385POPC   C3A76709  36.135  10.529   7.050
 9385POPC   C4A76710  36.128  10.499   7.350
 9385POPC   C1B76711  35.983  10.364   6.450
 9385POPC   C2B76712  36.006  10.284   6.750
 9385POPC   C3B76713  35.975  10.348   7.050
 9385POPC   C4B76714  36.021  10.338   7.350
 9386POPC   NC376715   9.012  22.981   5.550
 9386POPC   PO476716   8.960  22.931   5.850
 9386POPC   GL176717   8.965  22.974   6.150
 9386POPC   GL276718   8.872  22.931   6.150
 9386POPC   C1A76719   8.997  22.982   6.450
 9386POPC   D2A76720   9.000  22.954   6.750
 9386POPC   C3A76721   8.982  22.972   7.050
 9386POPC   C4A76722   8.974  22.891   7.350
 9386POPC   C1B76723   8.743  23.023   6.450
 9386POPC   C2B76724   8.758  22.952   6.750
 9386POPC   C3B76725   8.724  22.960   7.050
 9386POPC   C4B76726   8.752  22.960   7.350
 9387POPC   NC376727  38.444  20.595   5.550
 9387POPC   PO476728  38.458  20.656   5.850
 9387POPC   GL176729  38.451  20.650   6.150
 9387POPC   GL276730  38.290  20.556   6.150
 9387POPC   C1A76731  38.424  20.660   6.450
 9387POPC   D2A76732  38.451  20.595   6.750
 9387POPC   C3A76733  38.450  20.641   7.050
 9387POPC   C4A76734  38.467  20.569   7.350
 9387POPC   C1B76735  38.160  20.588   6.450
 9387POPC   C2B76736  38.248  20.561   6.750
 9387POPC   C3B76737  38.190  20.552   7.050
 9387POPC   C4B76738  38.255  20.578   7.350
 9388POPC   NC376739  22.896  29.096   5.550
 9388POPC   PO476740  22.926  29.125   5.850
 9388POPC   GL176741  22.966  29.169   6.150
 9388POPC   GL276742  23.033  29.093   6.150
 9388POPC   C1A76743  22.937  29.150   6.450
 9388POPC   D2A76744  22.899  29.158   6.750
 9388POPC   C3A76745  22.926  29.168   7.050
 9388POPC   C4A76746  22.920  29.137   7.350
 9388POPC   C1B76747  23.177  29.048   6.450
 9388POPC   C2B76748  23.196  29.056   6.750
 9388POPC   C3B76749  23.159  29.113   7.050
 9388POPC   C4B76750  23.132  29.075   7.350
 9389POPC   NC376751  39.982   1.235   5.550
 9389POPC   PO476752  40.005   1.233   5.850
 9389POPC   GL176753  40.055   1.232   6.150
 9389POPC   GL276754  40.095   1.295   6.150
 9389POPC   C1A76755  40.021   1.256   6.450
 9389POPC   D2A76756  39.999   1.180   6.750
 9389POPC   C3A76757  39.992   1.185   7.050
 9389POPC   C4A76758  40.021   1.215   7.350
 9389POPC   C1B76759  40.254   1.377   6.450
 9389POPC   C2B76760  40.171   1.408   6.750
 9389POPC   C3B76761  40.227   1.361   7.050
 9389POPC   C4B76762  40.250   1.409   7.350
 9390POPC   NC376763  39.986  17.467   5.550
 9390POPC   PO476764  39.961  17.535   5.850
 9390POPC   GL176765  40.011  17.545   6.150
 9390POPC   GL276766  39.998  17.368   6.150
 9390POPC   C1A76767  39.987  17.510   6.450
 9390POPC   D2A76768  40.056  17.461   6.750
 9390POPC   C3A76769  40.003  17.551   7.050
 9390POPC   C4A76770  40.008  17.469   7.350
 9390POPC   C1B76771  40.024  17.306   6.450
 9390POPC   C2B76772  40.038  17.276   6.750
 9390POPC   C3B76773  40.019  17.263   7.050
 9390POPC   C4B76774  39.982  17.305   7.350
 9391POPC   NC376775  11.302  43.857   5.550
 9391POPC   PO476776  11.302  43.870   5.850
 9391POPC   GL176777  11.347  43.855   6.150
 9391POPC   GL276778  11.386  43.754   6.150
 9391POPC   C1A76779  11.282  43.845   6.450
 9391POPC   D2A76780  11.262  43.866   6.750
 9391POPC   C3A76781  11.286  43.885   7.050
 9391POPC   C4A76782  11.322  43.920   7.350
 9391POPC   C1B76783  11.368  43.675   6.450
 9391POPC   C2B76784  11.450  43.619   6.750
 9391POPC   C3B76785  11.405  43.621   7.050
 9391POPC   C4B76786  11.383  43.697   7.350
 9392POPC   NC376787  22.129  43.086   5.550
 9392POPC   PO476788  22.162  43.114   5.850
 9392POPC   GL176789  22.147  43.152   6.150
 9392POPC   GL276790  22.085  43.112   6.150
 9392POPC   C1A76791  22.200  43.129   6.450
 9392POPC   D2A76792  22.129  43.063   6.750
 9392POPC   C3A76793  22.176  43.149   7.050
 9392POPC   C4A76794  22.160  43.099   7.350
 9392POPC   C1B76795  21.913  43.134   6.450
 9392POPC   C2B76796  21.907  43.118   6.750
 9392POPC   C3B76797  21.879  43.142   7.050
 9392POPC   C4B76798  21.930  43.121   7.350
 9393POPC   NC376799  18.259  10.543   5.550
 9393POPC   PO476800  18.242  10.569   5.850
 9393POPC   GL176801  18.291  10.506   6.150
 9393POPC   GL276802  18.404  10.374   6.150
 9393POPC   C1A76803  18.319  10.546   6.450
 9393POPC   D2A76804  18.271  10.569   6.750
 9393POPC   C3A76805  18.325  10.480   7.050
 9393POPC   C4A76806  18.244  10.525   7.350
 9393POPC   C1B76807  18.392  10.281   6.450
 9393POPC   C2B76808  18.461  10.323   6.750
 9393POPC   C3B76809  18.406  10.355   7.050
 9393POPC   C4B76810  18.479  10.345   7.350
 9394POPC   NC376811  43.158   5.912   5.550
 9394POPC   PO476812  43.065   5.850   5.850
 9394POPC   GL176813  43.078   5.913   6.150
 9394POPC   GL276814  43.106   5.942   6.150
 9394POPC   C1A76815  43.139   5.888   6.450
 9394POPC   D2A76816  43.149   5.913   6.750
 9394POPC   C3A76817  43.133   5.885   7.050
 9394POPC   C4A76818  43.093   5.856   7.350
 9394POPC   C1B76819  43.081   6.064   6.450
 9394POPC   C2B76820  43.062   6.089   6.750
 9394POPC   C3B76821  43.040   6.089   7.050
 9394POPC   C4B76822  42.988   6.134   7.350
 9395POPC   NC376823   5.874  26.802   5.550
 9395POPC   PO476824   5.917  26.848   5.850
 9395POPC   GL176825   5.915  26.850   6.150
 9395POPC   GL276826   5.936  26.883   6.150
 9395POPC   C1A76827   5.833  26.827   6.450
 9395POPC   D2A76828   5.915  26.777   6.750
 9395POPC   C3A76829   5.898  26.838   7.050
 9395POPC   C4A76830   5.896  26.783   7.350
 9395POPC   C1B76831   6.040  27.061   6.450
 9395POPC   C2B76832   6.036  26.995   6.750
 9395POPC   C3B76833   5.996  27.001   7.050
 9395POPC   C4B76834   6.032  27.034   7.350
 9396POPC   NC376835   0.407  26.003   5.550
 9396POPC   PO476836   0.484  26.022   5.850
 9396POPC   GL176837   0.400  26.012   6.150
 9396POPC   GL276838   0.423  26.183   6.150
 9396POPC   C1A76839   0.452  26.003   6.450
 9396POPC   D2A76840   0.464  26.065   6.750
 9396POPC   C3A76841   0.448  26.013   7.050
 9396POPC   C4A76842   0.412  26.085   7.350
 9396POPC   C1B76843   0.487  26.316   6.450
 9396POPC   C2B76844   0.493  26.252   6.750
 9396POPC   C3B76845   0.513  26.277   7.050
 9396POPC   C4B76846   0.522  26.305   7.350
 9397POPC   NC376847  33.832  38.423   5.550
 9397POPC   PO476848  33.778  38.462   5.850
 9397POPC   GL176849  33.781  38.447   6.150
 9397POPC   GL276850  33.875  38.490   6.150
 9397POPC   C1A76851  33.753  38.482   6.450
 9397POPC   D2A76852  33.788  38.432   6.750
 9397POPC   C3A76853  33.838  38.426   7.050
 9397POPC   C4A76854  33.800  38.495   7.350
 9397POPC   C1B76855  34.023  38.473   6.450
 9397POPC   C2B76856  34.010  38.459   6.750
 9397POPC   C3B76857  34.016  38.460   7.050
 9397POPC   C4B76858  34.010  38.418   7.350
 9398POPC   NC376859  35.336   6.624   5.550
 9398POPC   PO476860  35.398   6.684   5.850
 9398POPC   GL176861  35.332   6.641   6.150
 9398POPC   GL276862  35.275   6.766   6.150
 9398POPC   C1A76863  35.335   6.604   6.450
 9398POPC   D2A76864  35.400   6.687   6.750
 9398POPC   C3A76865  35.372   6.607   7.050
 9398POPC   C4A76866  35.372   6.644   7.350
 9398POPC   C1B76867  35.184   6.856   6.450
 9398POPC   C2B76868  35.203   6.820   6.750
 9398POPC   C3B76869  35.126   6.796   7.050
 9398POPC   C4B76870  35.189   6.857   7.350
 9399POPC   NC376871   7.389   9.707   5.550
 9399POPC   PO476872   7.411   9.786   5.850
 9399POPC   GL176873   7.393   9.775   6.150
 9399POPC   GL276874   7.411   9.896   6.150
 9399POPC   C1A76875   7.444   9.729   6.450
 9399POPC   D2A76876   7.452   9.748   6.750
 9399POPC   C3A76877   7.452   9.732   7.050
 9399POPC   C4A76878   7.438   9.780   7.350
 9399POPC   C1B76879   7.363   9.990   6.450
 9399POPC   C2B76880   7.273   9.988   6.750
 9399POPC   C3B76881   7.295   9.930   7.050
 9399POPC   C4B76882   7.358   9.997   7.350
 9400POPC   NC376883  18.287  22.136   5.550
 9400POPC   PO476884  18.315  22.141   5.850
 9400POPC   GL176885  18.303  22.134   6.150
 9400POPC   GL276886  18.201  22.104   6.150
 9400POPC   C1A76887  18.281  22.134   6.450
 9400POPC   D2A76888  18.330  22.163   6.750
 9400POPC   C3A76889  18.315  22.146   7.050
 9400POPC   C4A76890  18.250  22.149   7.350
 9400POPC   C1B76891  17.997  22.104   6.450
 9400POPC   C2B76892  17.997  22.075   6.750
 9400POPC   C3B76893  18.080  22.065   7.050
 9400POPC   C4B76894  18.009  22.042   7.350
 9401POPC   NC376895   4.289  15.956   5.550
 9401POPC   PO476896   4.361  15.986   5.850
 9401POPC   GL176897   4.336  15.953   6.150
 9401POPC   GL276898   4.245  15.901   6.150
 9401POPC   C1A76899   4.330  15.925   6.450
 9401POPC   D2A76900   4.319  15.917   6.750
 9401POPC   C3A76901   4.326  15.965   7.050
 9401POPC   C4A76902   4.312  15.934   7.350
 9401POPC   C1B76903   4.105  15.745   6.450
 9401POPC   C2B76904   4.100  15.726   6.750
 9401POPC   C3B76905   4.157  15.811   7.050
 9401POPC   C4B76906   4.174  15.729   7.350
 9402POPC   NC376907  39.263  41.525   5.550
 9402POPC   PO476908  39.274  41.601   5.850
 9402POPC   GL176909  39.211  41.531   6.150
 9402POPC   GL276910  39.289  41.424   6.150
 9402POPC   C1A76911  39.186  41.532   6.450
 9402POPC   D2A76912  39.278  41.522   6.750
 9402POPC   C3A76913  39.251  41.524   7.050
 9402POPC   C4A76914  39.226  41.557   7.350
 9402POPC   C1B76915  39.345  41.346   6.450
 9402POPC   C2B76916  39.417  41.313   6.750
 9402POPC   C3B76917  39.380  41.384   7.050
 9402POPC   C4B76918  39.345  41.319   7.350
 9403POPC   NC376919  33.783  15.200   5.550
 9403POPC   PO476920  33.824  15.162   5.850
 9403POPC   GL176921  33.815  15.183   6.150
 9403POPC   GL276922  33.718  15.225   6.150
 9403POPC   C1A76923  33.770  15.159   6.450
 9403POPC   D2A76924  33.763  15.196   6.750
 9403POPC   C3A76925  33.779  15.191   7.050
 9403POPC   C4A76926  33.802  15.147   7.350
 9403POPC   C1B76927  33.579  15.305   6.450
 9403POPC   C2B76928  33.561  15.268   6.750
 9403POPC   C3B76929  33.535  15.280   7.050
 9403POPC   C4B76930  33.542  15.232   7.350
 9404POPC   NC376931  43.067   6.679   5.550
 9404POPC   PO476932  43.080   6.604   5.850
 9404POPC   GL176933  43.097   6.626   6.150
 9404POPC   GL276934  43.017   6.704   6.150
 9404POPC   C1A76935  43.111   6.605   6.450
 9404POPC   D2A76936  43.116   6.671   6.750
 9404POPC   C3A76937  43.087   6.606   7.050
 9404POPC   C4A76938  43.081   6.630   7.350
 9404POPC   C1B76939  42.897   6.793   6.450
 9404POPC   C2B76940  42.899   6.830   6.750
 9404POPC   C3B76941  42.876   6.823   7.050
 9404POPC   C4B76942  42.872   6.807   7.350
 9405POPC   NC376943   0.454  14.362   5.550
 9405POPC   PO476944   0.474  14.384   5.850
 9405POPC   GL176945   0.443  14.450   6.150
 9405POPC   GL276946   0.314  14.391   6.150
 9405POPC   C1A76947   0.428  14.438   6.450
 9405POPC   D2A76948   0.411  14.439   6.750
 9405POPC   C3A76949   0.456  14.401   7.050
 9405POPC   C4A76950   0.413  14.356   7.350
 9405POPC   C1B76951   0.215  14.367   6.450
 9405POPC   C2B76952   0.185  14.269   6.750
 9405POPC   C3B76953   0.215  14.279   7.050
 9405POPC   C4B76954   0.181  14.368   7.350
 9406POPC   NC376955   4.343  26.067   5.550
 9406POPC   PO476956   4.329  26.022   5.850
 9406POPC   GL176957   4.343  26.036   6.150
 9406POPC   GL276958   4.425  26.053   6.150
 9406POPC   C1A76959   4.286  26.010   6.450
 9406POPC   D2A76960   4.341  26.021   6.750
 9406POPC   C3A76961   4.276  26.026   7.050
 9406POPC   C4A76962   4.267  26.038   7.350
 9406POPC   C1B76963   4.615  26.012   6.450
 9406POPC   C2B76964   4.527  25.973   6.750
 9406POPC   C3B76965   4.522  26.055   7.050
 9406POPC   C4B76966   4.517  26.054   7.350
 9407POPC   NC376967  19.841  29.102   5.550
 9407POPC   PO476968  19.800  29.150   5.850
 9407POPC   GL176969  19.797  29.125   6.150
 9407POPC   GL276970  19.787  29.300   6.150
 9407POPC   C1A76971  19.835  29.096   6.450
 9407POPC   D2A76972  19.852  29.143   6.750
 9407POPC   C3A76973  19.828  29.153   7.050
 9407POPC   C4A76974  19.832  29.158   7.350
 9407POPC   C1B76975  19.797  29.419   6.450
 9407POPC   C2B76976  19.772  29.343   6.750
 9407POPC   C3B76977  19.853  29.350   7.050
 9407POPC   C4B76978  19.760  29.370   7.350
 9408POPC   NC376979  39.964  16.778   5.550
 9408POPC   PO476980  39.960  16.764   5.850
 9408POPC   GL176981  39.983  16.780   6.150
 9408POPC   GL276982  39.916  16.811   6.150
 9408POPC   C1A76983  40.027  16.706   6.450
 9408POPC   D2A76984  39.964  16.721   6.750
 9408POPC   C3A76985  40.022  16.706   7.050
 9408POPC   C4A76986  40.043  16.708   7.350
 9408POPC   C1B76987  39.906  16.919   6.450
 9408POPC   C2B76988  39.956  16.915   6.750
 9408POPC   C3B76989  39.885  16.928   7.050
 9408POPC   C4B76990  39.878  16.973   7.350
 9409POPC   NC376991  36.940  15.973   5.550
 9409POPC   PO476992  36.897  15.906   5.850
 9409POPC   GL176993  36.923  15.949   6.150
 9409POPC   GL276994  36.783  15.877   6.150
 9409POPC   C1A76995  36.936  15.936   6.450
 9409POPC   D2A76996  36.953  15.925   6.750
 9409POPC   C3A76997  36.884  15.947   7.050
 9409POPC   C4A76998  36.858  15.945   7.350
 9409POPC   C1B76999  36.660  15.860   6.450
 9409POPC   C2B77000  36.644  15.801   6.750
 9409POPC   C3B77001  36.686  15.838   7.050
 9409POPC   C4B77002  36.713  15.887   7.350
 9410POPC   NC377003  42.352  32.269   5.550
 9410POPC   PO477004  42.356  32.254   5.850
 9410POPC   GL177005  42.306  32.271   6.150
 9410POPC   GL277006  42.478  32.193   6.150
 9410POPC   C1A77007  42.377  32.249   6.450
 9410POPC   D2A77008  42.330  32.259   6.750
 9410POPC   C3A77009  42.366  32.208   7.050
 9410POPC   C4A77010  42.375  32.258   7.350
 9410POPC   C1B77011  42.570  32.086   6.450
 9410POPC   C2B77012  42.527  32.065   6.750
 9410POPC   C3B77013  42.528  32.064   7.050
 9410POPC   C4B77014  42.519  32.095   7.350
 9411POPC   NC377015   6.689  31.499   5.550
 9411POPC   PO477016   6.681  31.516   5.850
 9411POPC   GL177017   6.680  31.473   6.150
 9411POPC   GL277018   6.732  31.624   6.150
 9411POPC   C1A77019   6.597  31.426   6.450
 9411POPC   D2A77020   6.606  31.495   6.750
 9411POPC   C3A77021   6.685  31.502   7.050
 9411POPC   C4A77022   6.606  31.461   7.350
 9411POPC   C1B77023   6.780  31.694   6.450
 9411POPC   C2B77024   6.749  31.725   6.750
 9411POPC   C3B77025   6.681  31.697   7.050
 9411POPC   C4B77026   6.690  31.711   7.350
 9412POPC   NC377027  43.852  44.704   5.550
 9412POPC   PO477028  43.847  44.691   5.850
 9412POPC   GL177029  43.864  44.625   6.150
 9412POPC   GL277030  43.926  44.718   6.150
 9412POPC   C1A77031  43.848  44.676   6.450
 9412POPC   D2A77032  43.855  44.696   6.750
 9412POPC   C3A77033  43.855  44.699   7.050
 9412POPC   C4A77034  43.898  44.684   7.350
 9412POPC   C1B77035  44.016  44.833   6.450
 9412POPC   C2B77036  44.013  44.818   6.750
 9412POPC   C3B77037  44.015  44.846   7.050
 9412POPC   C4B77038  44.081  44.884   7.350
 9413POPC   NC377039  33.797  16.002   5.550
 9413POPC   PO477040  33.812  15.980   5.850
 9413POPC   GL177041  33.786  15.932   6.150
 9413POPC   GL277042  33.912  15.924   6.150
 9413POPC   C1A77043  33.848  15.925   6.450
 9413POPC   D2A77044  33.848  15.982   6.750
 9413POPC   C3A77045  33.786  15.907   7.050
 9413POPC   C4A77046  33.768  15.985   7.350
 9413POPC   C1B77047  34.073  15.939   6.450
 9413POPC   C2B77048  34.013  15.885   6.750
 9413POPC   C3B77049  34.007  15.892   7.050
 9413POPC   C4B77050  34.024  15.938   7.350
 9414POPC   NC377051  14.400  35.396   5.550
 9414POPC   PO477052  14.356  35.348   5.850
 9414POPC   GL177053  14.424  35.302   6.150
 9414POPC   GL277054  14.470  35.501   6.150
 9414POPC   C1A77055  14.403  35.306   6.450
 9414POPC   D2A77056  14.418  35.381   6.750
 9414POPC   C3A77057  14.409  35.305   7.050
 9414POPC   C4A77058  14.403  35.328   7.350
 9414POPC   C1B77059  14.503  35.549   6.450
 9414POPC   C2B77060  14.462  35.550   6.750
 9414POPC   C3B77061  14.497  35.614   7.050
 9414POPC   C4B77062  14.484  35.622   7.350
 9415POPC   NC377063   0.410  32.229   5.550
 9415POPC   PO477064   0.420  32.227   5.850
 9415POPC   GL177065   0.398  32.262   6.150
 9415POPC   GL277066   0.334  32.292   6.150
 9415POPC   C1A77067   0.440  32.276   6.450
 9415POPC   D2A77068   0.453  32.265   6.750
 9415POPC   C3A77069   0.407  32.205   7.050
 9415POPC   C4A77070   0.469  32.284   7.350
 9415POPC   C1B77071   0.146  32.304   6.450
 9415POPC   C2B77072   0.236  32.238   6.750
 9415POPC   C3B77073   0.170  32.296   7.050
 9415POPC   C4B77074   0.162  32.286   7.350
 9416POPC   NC377075  14.372  38.431   5.550
 9416POPC   PO477076  14.442  38.491   5.850
 9416POPC   GL177077  14.440  38.414   6.150
 9416POPC   GL277078  14.260  38.452   6.150
 9416POPC   C1A77079  14.443  38.489   6.450
 9416POPC   D2A77080  14.435  38.504   6.750
 9416POPC   C3A77081  14.447  38.480   7.050
 9416POPC   C4A77082  14.425  38.421   7.350
 9416POPC   C1B77083  14.171  38.369   6.450
 9416POPC   C2B77084  14.156  38.395   6.750
 9416POPC   C3B77085  14.172  38.417   7.050
 9416POPC   C4B77086  14.159  38.427   7.350
 9417POPC   NC377087   6.632  35.312   5.550
 9417POPC   PO477088   6.608  35.352   5.850
 9417POPC   GL177089   6.680  35.392   6.150
 9417POPC   GL277090   6.544  35.359   6.150
 9417POPC   C1A77091   6.615  35.317   6.450
 9417POPC   D2A77092   6.610  35.326   6.750
 9417POPC   C3A77093   6.626  35.344   7.050
 9417POPC   C4A77094   6.627  35.346   7.350
 9417POPC   C1B77095   6.453  35.470   6.450
 9417POPC   C2B77096   6.383  35.464   6.750
 9417POPC   C3B77097   6.412  35.482   7.050
 9417POPC   C4B77098   6.448  35.482   7.350
 9418POPC   NC377099  33.769  42.352   5.550
 9418POPC   PO477100  33.757  42.352   5.850
 9418POPC   GL177101  33.814  42.380   6.150
 9418POPC   GL277102  33.686  42.207   6.150
 9418POPC   C1A77103  33.845  42.333   6.450
 9418POPC   D2A77104  33.794  42.307   6.750
 9418POPC   C3A77105  33.837  42.285   7.050
 9418POPC   C4A77106  33.769  42.314   7.350
 9418POPC   C1B77107  33.613  42.143   6.450
 9418POPC   C2B77108  33.603  42.159   6.750
 9418POPC   C3B77109  33.602  42.167   7.050
 9418POPC   C4B77110  33.644  42.114   7.350
 9419POPC   NC377111  22.175  18.319   5.550
 9419POPC   PO477112  22.204  18.293   5.850
 9419POPC   GL177113  22.138  18.238   6.150
 9419POPC   GL277114  22.126  18.174   6.150
 9419POPC   C1A77115  22.128  18.288   6.450
 9419POPC   D2A77116  22.176  18.282   6.750
 9419POPC   C3A77117  22.132  18.255   7.050
 9419POPC   C4A77118  22.160  18.258   7.350
 9419POPC   C1B77119  22.117  18.029   6.450
 9419POPC   C2B77120  22.166  18.022   6.750
 9419POPC   C3B77121  22.206  18.018   7.050
 9419POPC   C4B77122  22.134  17.989   7.350
 9420POPC   NC377123  40.018   6.654   5.550
 9420POPC   PO477124  39.971   6.658   5.850
 9420POPC   GL177125  40.029   6.662   6.150
 9420POPC   GL277126  39.851   6.585   6.150
 9420POPC   C1A77127  39.971   6.617   6.450
 9420POPC   D2A77128  40.035   6.655   6.750
 9420POPC   C3A77129  40.043   6.642   7.050
 9420POPC   C4A77130  39.958   6.641   7.350
 9420POPC   C1B77131  39.719   6.583   6.450
 9420POPC   C2B77132  39.799   6.621   6.750
 9420POPC   C3B77133  39.726   6.569   7.050
 9420POPC   C4B77134  39.769   6.566   7.350
 9421POPC   NC377135  25.249  12.827   5.550
 9421POPC   PO477136  25.260  12.852   5.850
 9421POPC   GL177137  25.268  12.862   6.150
 9421POPC   GL277138  25.429  12.892   6.150
 9421POPC   C1A77139  25.261  12.861   6.450
 9421POPC   D2A77140  25.243  12.852   6.750
 9421POPC   C3A77141  25.293  12.844   7.050
 9421POPC   C4A77142  25.218  12.810   7.350
 9421POPC   C1B77143  25.477  12.848   6.450
 9421POPC   C2B77144  25.524  12.824   6.750
 9421POPC   C3B77145  25.535  12.807   7.050
 9421POPC   C4B77146  25.559  12.832   7.350
 9422POPC   NC377147   2.744  14.391   5.550
 9422POPC   PO477148   2.764  14.367   5.850
 9422POPC   GL177149   2.727  14.402   6.150
 9422POPC   GL277150   2.891  14.520   6.150
 9422POPC   C1A77151   2.803  14.393   6.450
 9422POPC   D2A77152   2.765  14.373   6.750
 9422POPC   C3A77153   2.759  14.365   7.050
 9422POPC   C4A77154   2.746  14.382   7.350
 9422POPC   C1B77155   2.927  14.590   6.450
 9422POPC   C2B77156   2.943  14.527   6.750
 9422POPC   C3B77157   2.921  14.555   7.050
 9422POPC   C4B77158   2.957  14.558   7.350
 9423POPC   NC377159   9.772  34.565   5.550
 9423POPC   PO477160   9.749  34.564   5.850
 9423POPC   GL177161   9.704  34.559   6.150
 9423POPC   GL277162   9.810  34.707   6.150
 9423POPC   C1A77163   9.732  34.621   6.450
 9423POPC   D2A77164   9.795  34.611   6.750
 9423POPC   C3A77165   9.704  34.570   7.050
 9423POPC   C4A77166   9.784  34.567   7.350
 9423POPC   C1B77167   9.821  34.828   6.450
 9423POPC   C2B77168   9.832  34.850   6.750
 9423POPC   C3B77169   9.845  34.839   7.050
 9423POPC   C4B77170   9.852  34.830   7.350
 9424POPC   NC377171  42.341  43.853   5.550
 9424POPC   PO477172  42.352  43.890   5.850
 9424POPC   GL177173  42.294  43.922   6.150
 9424POPC   GL277174  42.266  43.998   6.150
 9424POPC   C1A77175  42.345  43.881   6.450
 9424POPC   D2A77176  42.370  43.920   6.750
 9424POPC   C3A77177  42.301  43.894   7.050
 9424POPC   C4A77178  42.289  43.851   7.350
 9424POPC   C1B77179  42.307  44.171   6.450
 9424POPC   C2B77180  42.286  44.148   6.750
 9424POPC   C3B77181  42.238  44.146   7.050
 9424POPC   C4B77182  42.288  44.155   7.350
 9425POPC   NC377183  26.809   5.899   5.550
 9425POPC   PO477184  26.816   5.855   5.850
 9425POPC   GL177185  26.848   5.916   6.150
 9425POPC   GL277186  26.971   5.878   6.150
 9425POPC   C1A77187  26.796   5.845   6.450
 9425POPC   D2A77188  26.794   5.886   6.750
 9425POPC   C3A77189  26.773   5.908   7.050
 9425POPC   C4A77190  26.779   5.835   7.350
 9425POPC   C1B77191  27.048   5.943   6.450
 9425POPC   C2B77192  27.044   5.910   6.750
 9425POPC   C3B77193  27.097   5.887   7.050
 9425POPC   C4B77194  27.097   5.885   7.350
 9426POPC   NC377195   3.537   6.607   5.550
 9426POPC   PO477196   3.567   6.627   5.850
 9426POPC   GL177197   3.565   6.634   6.150
 9426POPC   GL277198   3.554   6.524   6.150
 9426POPC   C1A77199   3.551   6.605   6.450
 9426POPC   D2A77200   3.579   6.618   6.750
 9426POPC   C3A77201   3.530   6.675   7.050
 9426POPC   C4A77202   3.580   6.627   7.350
 9426POPC   C1B77203   3.607   6.402   6.450
 9426POPC   C2B77204   3.606   6.434   6.750
 9426POPC   C3B77205   3.661   6.422   7.050
 9426POPC   C4B77206   3.651   6.381   7.350
 9427POPC   NC377207  20.569  25.225   5.550
 9427POPC   PO477208  20.647  25.250   5.850
 9427POPC   GL177209  20.563  25.286   6.150
 9427POPC   GL277210  20.674  25.314   6.150
 9427POPC   C1A77211  20.593  25.300   6.450
 9427POPC   D2A77212  20.571  25.241   6.750
 9427POPC   C3A77213  20.582  25.231   7.050
 9427POPC   C4A77214  20.659  25.239   7.350
 9427POPC   C1B77215  20.857  25.359   6.450
 9427POPC   C2B77216  20.805  25.374   6.750
 9427POPC   C3B77217  20.838  25.398   7.050
 9427POPC   C4B77218  20.847  25.374   7.350
 9428POPC   NC377219   6.634   3.492   5.550
 9428POPC   PO477220   6.597   3.530   5.850
 9428POPC   GL177221   6.597   3.507   6.150
 9428POPC   GL277222   6.547   3.446   6.150
 9428POPC   C1A77223   6.686   3.535   6.450
 9428POPC   D2A77224   6.666   3.524   6.750
 9428POPC   C3A77225   6.608   3.576   7.050
 9428POPC   C4A77226   6.630   3.518   7.350
 9428POPC   C1B77227   6.492   3.301   6.450
 9428POPC   C2B77228   6.500   3.332   6.750
 9428POPC   C3B77229   6.479   3.313   7.050
 9428POPC   C4B77230   6.508   3.356   7.350
 9429POPC   NC377231  22.953  19.070   5.550
 9429POPC   PO477232  22.924  19.012   5.850
 9429POPC   GL177233  22.933  19.080   6.150
 9429POPC   GL277234  22.865  19.211   6.150
 9429POPC   C1A77235  22.982  19.100   6.450
 9429POPC   D2A77236  22.907  19.038   6.750
 9429POPC   C3A77237  22.899  19.067   7.050
 9429POPC   C4A77238  22.936  19.059   7.350
 9429POPC   C1B77239  22.775  19.276   6.450
 9429POPC   C2B77240  22.859  19.323   6.750
 9429POPC   C3B77241  22.826  19.262   7.050
 9429POPC   C4B77242  22.870  19.322   7.350
 9430POPC   NC377243  33.036  24.445   5.550
 9430POPC   PO477244  33.023  24.467   5.850
 9430POPC   GL177245  33.008  24.443   6.150
 9430POPC   GL277246  33.178  24.531   6.150
 9430POPC   C1A77247  33.040  24.481   6.450
 9430POPC   D2A77248  33.044  24.511   6.750
 9430POPC   C3A77249  33.044  24.538   7.050
 9430POPC   C4A77250  33.023  24.451   7.350
 9430POPC   C1B77251  33.272  24.558   6.450
 9430POPC   C2B77252  33.312  24.531   6.750
 9430POPC   C3B77253  33.272  24.513   7.050
 9430POPC   C4B77254  33.292  24.515   7.350
 9431POPC   NC377255   8.924  39.994   5.550
 9431POPC   PO477256   9.003  40.012   5.850
 9431POPC   GL177257   8.985  39.988   6.150
 9431POPC   GL277258   8.855  40.002   6.150
 9431POPC   C1A77259   8.982  40.010   6.450
 9431POPC   D2A77260   8.972  40.027   6.750
 9431POPC   C3A77261   8.930  39.985   7.050
 9431POPC   C4A77262   9.016  40.042   7.350
 9431POPC   C1B77263   8.766  40.016   6.450
 9431POPC   C2B77264   8.707  39.988   6.750
 9431POPC   C3B77265   8.701  39.979   7.050
 9431POPC   C4B77266   8.754  40.051   7.350
 9432POPC   NC377267  23.725  25.279   5.550
 9432POPC   PO477268  23.708  25.254   5.850
 9432POPC   GL177269  23.748  25.298   6.150
 9432POPC   GL277270  23.812  25.131   6.150
 9432POPC   C1A77271  23.711  25.255   6.450
 9432POPC   D2A77272  23.747  25.310   6.750
 9432POPC   C3A77273  23.682  25.310   7.050
 9432POPC   C4A77274  23.703  25.249   7.350
 9432POPC   C1B77275  23.867  25.119   6.450
 9432POPC   C2B77276  23.886  25.079   6.750
 9432POPC   C3B77277  23.880  25.051   7.050
 9432POPC   C4B77278  23.924  25.087   7.350
 9433POPC   NC377279  43.866  26.860   5.550
 9433POPC   PO477280  43.907  26.816   5.850
 9433POPC   GL177281  43.881  26.846   6.150
 9433POPC   GL277282  43.800  26.768   6.150
 9433POPC   C1A77283  43.904  26.823   6.450
 9433POPC   D2A77284  43.917  26.827   6.750
 9433POPC   C3A77285  43.932  26.816   7.050
 9433POPC   C4A77286  43.928  26.771   7.350
 9433POPC   C1B77287  43.733  26.630   6.450
 9433POPC   C2B77288  43.701  26.631   6.750
 9433POPC   C3B77289  43.703  26.694   7.050
 9433POPC   C4B77290  43.735  26.619   7.350
 9434POPC   NC377291  24.460   9.769   5.550
 9434POPC   PO477292  24.524   9.701   5.850
 9434POPC   GL177293  24.482   9.766   6.150
 9434POPC   GL277294  24.364   9.740   6.150
 9434POPC   C1A77295  24.455   9.775   6.450
 9434POPC   D2A77296  24.527   9.753   6.750
 9434POPC   C3A77297  24.440   9.787   7.050
 9434POPC   C4A77298  24.466   9.726   7.350
 9434POPC   C1B77299  24.204   9.650   6.450
 9434POPC   C2B77300  24.255   9.738   6.750
 9434POPC   C3B77301  24.278   9.690   7.050
 9434POPC   C4B77302  24.283   9.727   7.350
 9435POPC   NC377303  31.427   6.632   5.550
 9435POPC   PO477304  31.453   6.658   5.850
 9435POPC   GL177305  31.442   6.630   6.150
 9435POPC   GL277306  31.372   6.547   6.150
 9435POPC   C1A77307  31.471   6.684   6.450
 9435POPC   D2A77308  31.506   6.674   6.750
 9435POPC   C3A77309  31.494   6.602   7.050
 9435POPC   C4A77310  31.455   6.623   7.350
 9435POPC   C1B77311  31.337   6.467   6.450
 9435POPC   C2B77312  31.312   6.390   6.750
 9435POPC   C3B77313  31.362   6.390   7.050
 9435POPC   C4B77314  31.387   6.438   7.350
 9436POPC   NC377315  39.219   9.704   5.550
 9436POPC   PO477316  39.200   9.763   5.850
 9436POPC   GL177317  39.280   9.778   6.150
 9436POPC   GL277318  39.304   9.883   6.150
 9436POPC   C1A77319  39.194   9.747   6.450
 9436POPC   D2A77320  39.260   9.702   6.750
 9436POPC   C3A77321  39.252   9.797   7.050
 9436POPC   C4A77322  39.258   9.776   7.350
 9436POPC   C1B77323  39.455   9.930   6.450
 9436POPC   C2B77324  39.438   9.953   6.750
 9436POPC   C3B77325  39.369   9.936   7.050
 9436POPC   C4B77326  39.442   9.900   7.350
 9437POPC   NC377327  32.262  15.177   5.550
 9437POPC   PO477328  32.214  15.191   5.850
 9437POPC   GL177329  32.202  15.216   6.150
 9437POPC   GL277330  32.096  15.189   6.150
 9437POPC   C1A77331  32.209  15.208   6.450
 9437POPC   D2A77332  32.288  15.180   6.750
 9437POPC   C3A77333  32.233  15.160   7.050
 9437POPC   C4A77334  32.289  15.228   7.350
 9437POPC   C1B77335  32.045  15.124   6.450
 9437POPC   C2B77336  32.046  15.185   6.750
 9437POPC   C3B77337  31.980  15.165   7.050
 9437POPC   C4B77338  31.992  15.115   7.350
 9438POPC   NC377339   1.178  14.431   5.550
 9438POPC   PO477340   1.186  14.363   5.850
 9438POPC   GL177341   1.199  14.410   6.150
 9438POPC   GL277342   1.190  14.273   6.150
 9438POPC   C1A77343   1.247  14.426   6.450
 9438POPC   D2A77344   1.258  14.387   6.750
 9438POPC   C3A77345   1.237  14.416   7.050
 9438POPC   C4A77346   1.200  14.354   7.350
 9438POPC   C1B77347   1.154  14.186   6.450
 9438POPC   C2B77348   1.161  14.179   6.750
 9438POPC   C3B77349   1.205  14.196   7.050
 9438POPC   C4B77350   1.139  14.161   7.350
 9439POPC   NC377351  13.672  15.167   5.550
 9439POPC   PO477352  13.587  15.148   5.850
 9439POPC   GL177353  13.667  15.135   6.150
 9439POPC   GL277354  13.767  15.196   6.150
 9439POPC   C1A77355  13.590  15.213   6.450
 9439POPC   D2A77356  13.610  15.146   6.750
 9439POPC   C3A77357  13.641  15.195   7.050
 9439POPC   C4A77358  13.674  15.130   7.350
 9439POPC   C1B77359  13.853  15.188   6.450
 9439POPC   C2B77360  13.920  15.211   6.750
 9439POPC   C3B77361  13.876  15.187   7.050
 9439POPC   C4B77362  13.895  15.129   7.350
 9440POPC   NC377363  17.476  39.216   5.550
 9440POPC   PO477364  17.457  39.234   5.850
 9440POPC   GL177365  17.472  39.247   6.150
 9440POPC   GL277366  17.366  39.214   6.150
 9440POPC   C1A77367  17.474  39.258   6.450
 9440POPC   D2A77368  17.528  39.237   6.750
 9440POPC   C3A77369  17.468  39.188   7.050
 9440POPC   C4A77370  17.460  39.279   7.350
 9440POPC   C1B77371  17.219  39.194   6.450
 9440POPC   C2B77372  17.291  39.228   6.750
 9440POPC   C3B77373  17.242  39.200   7.050
 9440POPC   C4B77374  17.235  39.186   7.350
 9441POPC   NC377375   6.625   1.960   5.550
 9441POPC   PO477376   6.625   1.946   5.850
 9441POPC   GL177377   6.685   1.949   6.150
 9441POPC   GL277378   6.623   1.877   6.150
 9441POPC   C1A77379   6.657   1.994   6.450
 9441POPC   D2A77380   6.626   1.940   6.750
 9441POPC   C3A77381   6.688   1.975   7.050
 9441POPC   C4A77382   6.650   2.007   7.350
 9441POPC   C1B77383   6.602   1.758   6.450
 9441POPC   C2B77384   6.622   1.697   6.750
 9441POPC   C3B77385   6.649   1.761   7.050
 9441POPC   C4B77386   6.662   1.790   7.350
 9442POPC   NC377387  30.726  25.254   5.550
 9442POPC   PO477388  30.687  25.219   5.850
 9442POPC   GL177389  30.726  25.289   6.150
 9442POPC   GL277390  30.622  25.293   6.150
 9442POPC   C1A77391  30.681  25.271   6.450
 9442POPC   D2A77392  30.724  25.312   6.750
 9442POPC   C3A77393  30.736  25.289   7.050
 9442POPC   C4A77394  30.686  25.238   7.350
 9442POPC   C1B77395  30.479  25.257   6.450
 9442POPC   C2B77396  30.423  25.260   6.750
 9442POPC   C3B77397  30.438  25.321   7.050
 9442POPC   C4B77398  30.419  25.268   7.350
 9443POPC   NC377399  32.218   5.898   5.550
 9443POPC   PO477400  32.234   5.870   5.850
 9443POPC   GL177401  32.210   5.910   6.150
 9443POPC   GL277402  32.344   5.755   6.150
 9443POPC   C1A77403  32.291   5.886   6.450
 9443POPC   D2A77404  32.282   5.913   6.750
 9443POPC   C3A77405  32.253   5.845   7.050
 9443POPC   C4A77406  32.251   5.822   7.350
 9443POPC   C1B77407  32.319   5.603   6.450
 9443POPC   C2B77408  32.334   5.635   6.750
 9443POPC   C3B77409  32.307   5.613   7.050
 9443POPC   C4B77410  32.348   5.651   7.350
 9444POPC   NC377411  15.923  44.664   5.550
 9444POPC   PO477412  15.956  44.708   5.850
 9444POPC   GL177413  15.964  44.650   6.150
 9444POPC   GL277414  16.062  44.575   6.150
 9444POPC   C1A77415  15.945  44.669   6.450
 9444POPC   D2A77416  15.986  44.673   6.750
 9444POPC   C3A77417  15.928  44.690   7.050
 9444POPC   C4A77418  15.947  44.688   7.350
 9444POPC   C1B77419  16.081  44.498   6.450
 9444POPC   C2B77420  16.096  44.512   6.750
 9444POPC   C3B77421  16.097  44.492   7.050
 9444POPC   C4B77422  16.130  44.485   7.350
 9445POPC   NC377423  15.131  11.308   5.550
 9445POPC   PO477424  15.130  11.327   5.850
 9445POPC   GL177425  15.191  11.277   6.150
 9445POPC   GL277426  15.147  11.197   6.150
 9445POPC   C1A77427  15.167  11.328   6.450
 9445POPC   D2A77428  15.200  11.330   6.750
 9445POPC   C3A77429  15.166  11.323   7.050
 9445POPC   C4A77430  15.226  11.335   7.350
 9445POPC   C1B77431  15.032  11.146   6.450
 9445POPC   C2B77432  15.056  11.100   6.750
 9445POPC   C3B77433  15.012  11.106   7.050
 9445POPC   C4B77434  15.060  11.138   7.350
 9446POPC   NC377435  32.225  19.088   5.550
 9446POPC   PO477436  32.259  19.012   5.850
 9446POPC   GL177437  32.284  19.036   6.150
 9446POPC   GL277438  32.172  19.140   6.150
 9446POPC   C1A77439  32.240  19.081   6.450
 9446POPC   D2A77440  32.218  19.085   6.750
 9446POPC   C3A77441  32.253  19.017   7.050
 9446POPC   C4A77442  32.265  19.020   7.350
 9446POPC   C1B77443  32.096  19.221   6.450
 9446POPC   C2B77444  32.039  19.187   6.750
 9446POPC   C3B77445  32.033  19.225   7.050
 9446POPC   C4B77446  32.059  19.190   7.350
 9447POPC   NC377447   6.613   2.771   5.550
 9447POPC   PO477448   6.684   2.771   5.850
 9447POPC   GL177449   6.600   2.738   6.150
 9447POPC   GL277450   6.497   2.736   6.150
 9447POPC   C1A77451   6.664   2.789   6.450
 9447POPC   D2A77452   6.692   2.725   6.750
 9447POPC   C3A77453   6.675   2.753   7.050
 9447POPC   C4A77454   6.675   2.809   7.350
 9447POPC   C1B77455   6.367   2.825   6.450
 9447POPC   C2B77456   6.356   2.764   6.750
 9447POPC   C3B77457   6.416   2.750   7.050
 9447POPC   C4B77458   6.417   2.817   7.350
 9448POPC   NC377459  10.564  21.341   5.550
 9448POPC   PO477460  10.528  21.435   5.850
 9448POPC   GL177461  10.533  21.341   6.150
 9448POPC   GL277462  10.541  21.315   6.150
 9448POPC   C1A77463  10.503  21.406   6.450
 9448POPC   D2A77464  10.479  21.366   6.750
 9448POPC   C3A77465  10.548  21.425   7.050
 9448POPC   C4A77466  10.558  21.405   7.350
 9448POPC   C1B77467  10.606  21.199   6.450
 9448POPC   C2B77468  10.693  21.123   6.750
 9448POPC   C3B77469  10.613  21.172   7.050
 9448POPC   C4B77470  10.663  21.188   7.350
 9449POPC   NC377471  38.418  34.622   5.550
 9449POPC   PO477472  38.451  34.624   5.850
 9449POPC   GL177473  38.450  34.562   6.150
 9449POPC   GL277474  38.592  34.458   6.150
 9449POPC   C1A77475  38.426  34.594   6.450
 9449POPC   D2A77476  38.467  34.598   6.750
 9449POPC   C3A77477  38.491  34.555   7.050
 9449POPC   C4A77478  38.429  34.574   7.350
 9449POPC   C1B77479  38.612  34.450   6.450
 9449POPC   C2B77480  38.595  34.392   6.750
 9449POPC   C3B77481  38.684  34.414   7.050
 9449POPC   C4B77482  38.679  34.450   7.350
 9450POPC   NC377483  29.970   2.793   5.550
 9450POPC   PO477484  29.896   2.730   5.850
 9450POPC   GL177485  29.899   2.801   6.150
 9450POPC   GL277486  29.891   2.878   6.150
 9450POPC   C1A77487  29.874   2.718   6.450
 9450POPC   D2A77488  29.905   2.735   6.750
 9450POPC   C3A77489  29.888   2.787   7.050
 9450POPC   C4A77490  29.950   2.784   7.350
 9450POPC   C1B77491  29.830   2.978   6.450
 9450POPC   C2B77492  29.772   2.988   6.750
 9450POPC   C3B77493  29.774   3.025   7.050
 9450POPC   C4B77494  29.795   3.034   7.350
 9451POPC   NC377495  18.307  13.651   5.550
 9451POPC   PO477496  18.246  13.672   5.850
 9451POPC   GL177497  18.280  13.597   6.150
 9451POPC   GL277498  18.338  13.497   6.150
 9451POPC   C1A77499  18.248  13.607   6.450
 9451POPC   D2A77500  18.253  13.601   6.750
 9451POPC   C3A77501  18.238  13.620   7.050
 9451POPC   C4A77502  18.238  13.638   7.350
 9451POPC   C1B77503  18.416  13.449   6.450
 9451POPC   C2B77504  18.376  13.400   6.750
 9451POPC   C3B77505  18.382  13.400   7.050
 9451POPC   C4B77506  18.370  13.458   7.350
 9452POPC   NC377507  17.500  40.743   5.550
 9452POPC   PO477508  17.541  40.743   5.850
 9452POPC   GL177509  17.529  40.832   6.150
 9452POPC   GL277510  17.363  40.839   6.150
 9452POPC   C1A77511  17.540  40.828   6.450
 9452POPC   D2A77512  17.532  40.736   6.750
 9452POPC   C3A77513  17.459  40.748   7.050
 9452POPC   C4A77514  17.542  40.795   7.350
 9452POPC   C1B77515  17.323  40.913   6.450
 9452POPC   C2B77516  17.297  40.907   6.750
 9452POPC   C3B77517  17.345  40.894   7.050
 9452POPC   C4B77518  17.304  40.964   7.350
 9453POPC   NC377519  12.831  26.030   5.550
 9453POPC   PO477520  12.816  26.033   5.850
 9453POPC   GL177521  12.850  26.001   6.150
 9453POPC   GL277522  12.762  25.929   6.150
 9453POPC   C1A77523  12.837  26.049   6.450
 9453POPC   D2A77524  12.898  26.086   6.750
 9453POPC   C3A77525  12.831  26.062   7.050
 9453POPC   C4A77526  12.820  26.048   7.350
 9453POPC   C1B77527  12.715  25.855   6.450
 9453POPC   C2B77528  12.648  25.854   6.750
 9453POPC   C3B77529  12.709  25.848   7.050
 9453POPC   C4B77530  12.641  25.825   7.350
 9454POPC   NC377531  32.261  12.028   5.550
 9454POPC   PO477532  32.287  12.091   5.850
 9454POPC   GL177533  32.287  12.096   6.150
 9454POPC   GL277534  32.109  12.092   6.150
 9454POPC   C1A77535  32.254  12.037   6.450
 9454POPC   D2A77536  32.241  12.082   6.750
 9454POPC   C3A77537  32.216  12.087   7.050
 9454POPC   C4A77538  32.238  12.043   7.350
 9454POPC   C1B77539  32.075  12.246   6.450
 9454POPC   C2B77540  31.993  12.246   6.750
 9454POPC   C3B77541  32.074  12.173   7.050
 9454POPC   C4B77542  32.012  12.167   7.350
 9455POPC   NC377543  36.930  40.735   5.550
 9455POPC   PO477544  36.894  40.808   5.850
 9455POPC   GL177545  36.938  40.782   6.150
 9455POPC   GL277546  36.851  40.671   6.150
 9455POPC   C1A77547  36.875  40.795   6.450
 9455POPC   D2A77548  36.932  40.763   6.750
 9455POPC   C3A77549  36.857  40.816   7.050
 9455POPC   C4A77550  36.862  40.733   7.350
 9455POPC   C1B77551  36.691  40.585   6.450
 9455POPC   C2B77552  36.706  40.627   6.750
 9455POPC   C3B77553  36.721  40.635   7.050
 9455POPC   C4B77554  36.715  40.617   7.350
 9456POPC   NC377555  29.187  17.489   5.550
 9456POPC   PO477556  29.115  17.528   5.850
 9456POPC   GL177557  29.140  17.460   6.150
 9456POPC   GL277558  29.173  17.621   6.150
 9456POPC   C1A77559  29.170  17.476   6.450
 9456POPC   D2A77560  29.190  17.471   6.750
 9456POPC   C3A77561  29.182  17.547   7.050
 9456POPC   C4A77562  29.115  17.511   7.350
 9456POPC   C1B77563  29.245  17.710   6.450
 9456POPC   C2B77564  29.219  17.777   6.750
 9456POPC   C3B77565  29.259  17.725   7.050
 9456POPC   C4B77566  29.298  17.723   7.350
 9457POPC   NC377567  40.009  33.024   5.550
 9457POPC   PO477568  40.049  33.022   5.850
 9457POPC   GL177569  39.965  33.037   6.150
 9457POPC   GL277570  40.066  32.896   6.150
 9457POPC   C1A77571  39.962  32.983   6.450
 9457POPC   D2A77572  40.057  33.026   6.750
 9457POPC   C3A77573  40.012  32.983   7.050
 9457POPC   C4A77574  40.038  33.058   7.350
 9457POPC   C1B77575  40.146  32.831   6.450
 9457POPC   C2B77576  40.102  32.769   6.750
 9457POPC   C3B77577  40.167  32.787   7.050
 9457POPC   C4B77578  40.191  32.790   7.350
 9458POPC   NC377579  10.511  28.402   5.550
 9458POPC   PO477580  10.503  28.403   5.850
 9458POPC   GL177581  10.546  28.396   6.150
 9458POPC   GL277582  10.540  28.204   6.150
 9458POPC   C1A77583  10.505  28.348   6.450
 9458POPC   D2A77584  10.474  28.412   6.750
 9458POPC   C3A77585  10.490  28.409   7.050
 9458POPC   C4A77586  10.521  28.345   7.350
 9458POPC   C1B77587  10.566  28.159   6.450
 9458POPC   C2B77588  10.565  28.081   6.750
 9458POPC   C3B77589  10.564  28.130   7.050
 9458POPC   C4B77590  10.636  28.136   7.350
 9459POPC   NC377591  17.543  30.666   5.550
 9459POPC   PO477592  17.501  30.732   5.850
 9459POPC   GL177593  17.460  30.677   6.150
 9459POPC   GL277594  17.481  30.548   6.150
 9459POPC   C1A77595  17.525  30.731   6.450
 9459POPC   D2A77596  17.544  30.667   6.750
 9459POPC   C3A77597  17.523  30.739   7.050
 9459POPC   C4A77598  17.533  30.659   7.350
 9459POPC   C1B77599  17.462  30.409   6.450
 9459POPC   C2B77600  17.517  30.410   6.750
 9459POPC   C3B77601  17.491  30.422   7.050
 9459POPC   C4B77602  17.496  30.443   7.350
 9460POPC   NC377603  37.723   8.987   5.550
 9460POPC   PO477604  37.646   8.930   5.850
 9460POPC   GL177605  37.698   9.022   6.150
 9460POPC   GL277606  37.782   9.022   6.150
 9460POPC   C1A77607  37.710   8.934   6.450
 9460POPC   D2A77608  37.716   9.010   6.750
 9460POPC   C3A77609  37.703   8.951   7.050
 9460POPC   C4A77610  37.640   8.997   7.350
 9460POPC   C1B77611  37.953   9.080   6.450
 9460POPC   C2B77612  37.888   9.129   6.750
 9460POPC   C3B77613  37.939   9.076   7.050
 9460POPC   C4B77614  37.919   9.072   7.350
 9461POPC   NC377615  22.150   6.629   5.550
 9461POPC   PO477616  22.180   6.626   5.850
 9461POPC   GL177617  22.147   6.632   6.150
 9461POPC   GL277618  22.007   6.658   6.150
 9461POPC   C1A77619  22.148   6.613   6.450
 9461POPC   D2A77620  22.145   6.678   6.750
 9461POPC   C3A77621  22.192   6.644   7.050
 9461POPC   C4A77622  22.191   6.679   7.350
 9461POPC   C1B77623  21.880   6.669   6.450
 9461POPC   C2B77624  21.941   6.643   6.750
 9461POPC   C3B77625  21.874   6.664   7.050
 9461POPC   C4B77626  21.933   6.626   7.350
 9462POPC   NC377627  16.746  26.800   5.550
 9462POPC   PO477628  16.696  26.840   5.850
 9462POPC   GL177629  16.752  26.842   6.150
 9462POPC   GL277630  16.654  26.678   6.150
 9462POPC   C1A77631  16.709  26.829   6.450
 9462POPC   D2A77632  16.716  26.834   6.750
 9462POPC   C3A77633  16.725  26.864   7.050
 9462POPC   C4A77634  16.757  26.858   7.350
 9462POPC   C1B77635  16.679  26.544   6.450
 9462POPC   C2B77636  16.627  26.619   6.750
 9462POPC   C3B77637  16.610  26.598   7.050
 9462POPC   C4B77638  16.667  26.618   7.350
 9463POPC   NC377639  43.131  18.316   5.550
 9463POPC   PO477640  43.125  18.237   5.850
 9463POPC   GL177641  43.089  18.320   6.150
 9463POPC   GL277642  43.221  18.178   6.150
 9463POPC   C1A77643  43.091  18.285   6.450
 9463POPC   D2A77644  43.123  18.329   6.750
 9463POPC   C3A77645  43.081  18.245   7.050
 9463POPC   C4A77646  43.135  18.274   7.350
 9463POPC   C1B77647  43.293  18.047   6.450
 9463POPC   C2B77648  43.226  18.061   6.750
 9463POPC   C3B77649  43.243  18.061   7.050
 9463POPC   C4B77650  43.248  18.130   7.350
 9464POPC   NC377651  19.096  24.521   5.550
 9464POPC   PO477652  19.095  24.515   5.850
 9464POPC   GL177653  19.080  24.505   6.150
 9464POPC   GL277654  19.202  24.454   6.150
 9464POPC   C1A77655  19.080  24.469   6.450
 9464POPC   D2A77656  19.041  24.497   6.750
 9464POPC   C3A77657  19.095  24.472   7.050
 9464POPC   C4A77658  19.053  24.491   7.350
 9464POPC   C1B77659  19.339  24.424   6.450
 9464POPC   C2B77660  19.325  24.429   6.750
 9464POPC   C3B77661  19.298  24.423   7.050
 9464POPC   C4B77662  19.265  24.420   7.350
 9465POPC   NC377663   9.735  16.684   5.550
 9465POPC   PO477664   9.747  16.690   5.850
 9465POPC   GL177665   9.730  16.698   6.150
 9465POPC   GL277666   9.882  16.688   6.150
 9465POPC   C1A77667   9.749  16.738   6.450
 9465POPC   D2A77668   9.768  16.717   6.750
 9465POPC   C3A77669   9.706  16.778   7.050
 9465POPC   C4A77670   9.797  16.744   7.350
 9465POPC   C1B77671   9.923  16.547   6.450
 9465POPC   C2B77672   9.934  16.514   6.750
 9465POPC   C3B77673   9.924  16.582   7.050
 9465POPC   C4B77674   9.873  16.553   7.350
 9466POPC   NC377675   9.736  17.474   5.550
 9466POPC   PO477676   9.796  17.541   5.850
 9466POPC   GL177677   9.723  17.470   6.150
 9466POPC   GL277678   9.664  17.516   6.150
 9466POPC   C1A77679   9.782  17.463   6.450
 9466POPC   D2A77680   9.772  17.479   6.750
 9466POPC   C3A77681   9.702  17.525   7.050
 9466POPC   C4A77682   9.703  17.458   7.350
 9466POPC   C1B77683   9.532  17.612   6.450
 9466POPC   C2B77684   9.563  17.666   6.750
 9466POPC   C3B77685   9.559  17.667   7.050
 9466POPC   C4B77686   9.479  17.619   7.350
 9467POPC   NC377687  28.338  29.174   5.550
 9467POPC   PO477688  28.334  29.137   5.850
 9467POPC   GL177689  28.396  29.116   6.150
 9467POPC   GL277690  28.312  28.982   6.150
 9467POPC   C1A77691  28.362  29.187   6.450
 9467POPC   D2A77692  28.340  29.173   6.750
 9467POPC   C3A77693  28.397  29.194   7.050
 9467POPC   C4A77694  28.354  29.189   7.350
 9467POPC   C1B77695  28.337  28.916   6.450
 9467POPC   C2B77696  28.395  28.877   6.750
 9467POPC   C3B77697  28.357  28.889   7.050
 9467POPC   C4B77698  28.385  28.875   7.350
 9468POPC   NC377699  37.673  18.297   5.550
 9468POPC   PO477700  37.663  18.234   5.850
 9468POPC   GL177701  37.710  18.235   6.150
 9468POPC   GL277702  37.637  18.452   6.150
 9468POPC   C1A77703  37.712  18.327   6.450
 9468POPC   D2A77704  37.689  18.250   6.750
 9468POPC   C3A77705  37.727  18.240   7.050
 9468POPC   C4A77706  37.722  18.264   7.350
 9468POPC   C1B77707  37.657  18.485   6.450
 9468POPC   C2B77708  37.632  18.514   6.750
 9468POPC   C3B77709  37.678  18.519   7.050
 9468POPC   C4B77710  37.652  18.484   7.350
 9469POPC   NC377711  30.688  15.187   5.550
 9469POPC   PO477712  30.669  15.180   5.850
 9469POPC   GL177713  30.659  15.136   6.150
 9469POPC   GL277714  30.700  15.061   6.150
 9469POPC   C1A77715  30.680  15.156   6.450
 9469POPC   D2A77716  30.703  15.194   6.750
 9469POPC   C3A77717  30.720  15.141   7.050
 9469POPC   C4A77718  30.667  15.210   7.350
 9469POPC   C1B77719  30.648  14.897   6.450
 9469POPC   C2B77720  30.649  14.989   6.750
 9469POPC   C3B77721  30.612  14.935   7.050
 9469POPC   C4B77722  30.566  14.991   7.350
 9470POPC   NC377723  29.124  33.806   5.550
 9470POPC   PO477724  29.178  33.782   5.850
 9470POPC   GL177725  29.126  33.802   6.150
 9470POPC   GL277726  29.224  33.925   6.150
 9470POPC   C1A77727  29.195  33.830   6.450
 9470POPC   D2A77728  29.131  33.835   6.750
 9470POPC   C3A77729  29.096  33.758   7.050
 9470POPC   C4A77730  29.097  33.789   7.350
 9470POPC   C1B77731  29.371  33.950   6.450
 9470POPC   C2B77732  29.330  33.993   6.750
 9470POPC   C3B77733  29.340  33.948   7.050
 9470POPC   C4B77734  29.355  33.949   7.350
 9471POPC   NC377735  20.591  33.777   5.550
 9471POPC   PO477736  20.639  33.769   5.850
 9471POPC   GL177737  20.642  33.837   6.150
 9471POPC   GL277738  20.461  33.825   6.150
 9471POPC   C1A77739  20.648  33.764   6.450
 9471POPC   D2A77740  20.575  33.818   6.750
 9471POPC   C3A77741  20.621  33.820   7.050
 9471POPC   C4A77742  20.601  33.773   7.350
 9471POPC   C1B77743  20.313  33.811   6.450
 9471POPC   C2B77744  20.316  33.752   6.750
 9471POPC   C3B77745  20.323  33.764   7.050
 9471POPC   C4B77746  20.338  33.816   7.350
 9472POPC   NC377747  43.156  14.424   5.550
 9472POPC   PO477748  43.099  14.409   5.850
 9472POPC   GL177749  43.077  14.367   6.150
 9472POPC   GL277750  43.252  14.454   6.150
 9472POPC   C1A77751  43.085  14.361   6.450
 9472POPC   D2A77752  43.125  14.405   6.750
 9472POPC   C3A77753  43.089  14.386   7.050
 9472POPC   C4A77754  43.118  14.444   7.350
 9472POPC   C1B77755  43.288  14.554   6.450
 9472POPC   C2B77756  43.300  14.544   6.750
 9472POPC   C3B77757  43.326  14.529   7.050
 9472POPC   C4B77758  43.315  14.505   7.350
 9473POPC   NC377759  43.069  42.293   5.550
 9473POPC   PO477760  43.122  42.346   5.850
 9473POPC   GL177761  43.158  42.307   6.150
 9473POPC   GL277762  43.255  42.325   6.150
 9473POPC   C1A77763  43.079  42.375   6.450
 9473POPC   D2A77764  43.074  42.314   6.750
 9473POPC   C3A77765  43.061  42.365   7.050
 9473POPC   C4A77766  43.108  42.308   7.350
 9473POPC   C1B77767  43.340  42.276   6.450
 9473POPC   C2B77768  43.308  42.255   6.750
 9473POPC   C3B77769  43.397  42.213   7.050
 9473POPC   C4B77770  43.342  42.216   7.350
 9474POPC   NC377771  11.326  30.736   5.550
 9474POPC   PO477772  11.329  30.657   5.850
 9474POPC   GL177773  11.290  30.686   6.150
 9474POPC   GL277774  11.425  30.670   6.150
 9474POPC   C1A77775  11.289  30.706   6.450
 9474POPC   D2A77776  11.266  30.713   6.750
 9474POPC   C3A77777  11.258  30.723   7.050
 9474POPC   C4A77778  11.264  30.733   7.350
 9474POPC   C1B77779  11.544  30.757   6.450
 9474POPC   C2B77780  11.540  30.738   6.750
 9474POPC   C3B77781  11.522  30.705   7.050
 9474POPC   C4B77782  11.530  30.764   7.350
 9475POPC   NC377783  19.103  12.044   5.550
 9475POPC   PO477784  19.066  12.104   5.850
 9475POPC   GL177785  19.029  12.101   6.150
 9475POPC   GL277786  19.058  11.962   6.150
 9475POPC   C1A77787  19.059  12.044   6.450
 9475POPC   D2A77788  19.015  12.035   6.750
 9475POPC   C3A77789  19.017  12.110   7.050
 9475POPC   C4A77790  19.014  12.034   7.350
 9475POPC   C1B77791  18.977  11.846   6.450
 9475POPC   C2B77792  18.985  11.880   6.750
 9475POPC   C3B77793  18.974  11.797   7.050
 9475POPC   C4B77794  18.929  11.891   7.350
 9476POPC   NC377795   3.535  13.652   5.550
 9476POPC   PO477796   3.554  13.662   5.850
 9476POPC   GL177797   3.590  13.657   6.150
 9476POPC   GL277798   3.482  13.700   6.150
 9476POPC   C1A77799   3.533  13.633   6.450
 9476POPC   D2A77800   3.584  13.639   6.750
 9476POPC   C3A77801   3.545  13.614   7.050
 9476POPC   C4A77802   3.504  13.613   7.350
 9476POPC   C1B77803   3.437  13.853   6.450
 9476POPC   C2B77804   3.419  13.804   6.750
 9476POPC   C3B77805   3.407  13.858   7.050
 9476POPC   C4B77806   3.384  13.877   7.350
 9477POPC   NC377807  19.874   6.616   5.550
 9477POPC   PO477808  19.853   6.629   5.850
 9477POPC   GL177809  19.807   6.597   6.150
 9477POPC   GL277810  19.828   6.545   6.150
 9477POPC   C1A77811  19.797   6.681   6.450
 9477POPC   D2A77812  19.851   6.674   6.750
 9477POPC   C3A77813  19.816   6.673   7.050
 9477POPC   C4A77814  19.835   6.595   7.350
 9477POPC   C1B77815  19.725   6.457   6.450
 9477POPC   C2B77816  19.681   6.469   6.750
 9477POPC   C3B77817  19.714   6.398   7.050
 9477POPC   C4B77818  19.727   6.437   7.350
 9478POPC   NC377819  15.989  29.878   5.550
 9478POPC   PO477820  15.998  29.920   5.850
 9478POPC   GL177821  15.933  29.916   6.150
 9478POPC   GL277822  16.088  29.829   6.150
 9478POPC   C1A77823  15.941  29.879   6.450
 9478POPC   D2A77824  15.942  29.967   6.750
 9478POPC   C3A77825  15.917  29.962   7.050
 9478POPC   C4A77826  15.949  29.919   7.350
 9478POPC   C1B77827  16.114  29.710   6.450
 9478POPC   C2B77828  16.116  29.752   6.750
 9478POPC   C3B77829  16.115  29.763   7.050
 9478POPC   C4B77830  16.150  29.777   7.350
 9479POPC   NC377831  22.138  26.064   5.550
 9479POPC   PO477832  22.195  25.993   5.850
 9479POPC   GL177833  22.171  26.046   6.150
 9479POPC   GL277834  22.084  25.999   6.150
 9479POPC   C1A77835  22.196  26.037   6.450
 9479POPC   D2A77836  22.124  25.999   6.750
 9479POPC   C3A77837  22.116  26.047   7.050
 9479POPC   C4A77838  22.183  26.006   7.350
 9479POPC   C1B77839  21.865  26.081   6.450
 9479POPC   C2B77840  21.903  26.020   6.750
 9479POPC   C3B77841  21.939  26.043   7.050
 9479POPC   C4B77842  21.887  26.083   7.350
 9480W        W77843  39.315  15.085   0.744
 9481W        W77844  32.997  29.035  13.006
 9482W        W77845  16.583  16.703   3.787
 9483W        W77846  16.095   3.341   5.317
 9484W        W77847  36.027  20.184   0.417
 9485W        W77848  41.832  22.179   1.298
 9486W        W77849  44.801  16.191  10.561
 9487W        W77850  35.010  18.655  13.942
 9488W        W77851  16.187  15.230   2.874
 9489W        W77852  35.524  32.582   1.215
 9490W        W77853  16.644  25.695   1.828
 9491W        W77854  26.600   8.168   0.800
 9492W        W77855   4.232  44.772  11.502
 9493W        W77856   8.388  27.622  13.358
 9494W        W77857  14.283  29.073  14.943
 9495W        W77858  31.022  33.418   0.270
 9496W        W77859  42.030   1.738   2.795
 9497W        W77860  25.214   9.296   0.397
 9498W        W77861  40.451  12.135   3.855
 9499W        W77862  21.112   2.246   4.294
 9500W        W77863  26.153  18.788   4.685
 9501W        W77864   1.394  27.600   4.608
 9502W        W77865   2.791  11.719  11.460
 9503W        W77866  26.579  41.976   3.325
 9504W        W77867   8.306  15.272  12.997
 9505W        W77868  27.534  26.107  13.351
 9506W        W77869  25.559  41.880  13.444
 9507W        W77870  14.632  37.000  14.007
 9508W        W77871  27.493   8.291   1.910
 9509W        W77872  23.548  26.155   4.804
 9510W        W77873   6.775   5.420  14.376
 9511W        W77874  35.996   7.279  12.531
 9512W        W77875   4.918  11.352  14.787
 9513W        W77876  28.503  31.099   4.276
 9514W        W77877  10.147   6.277   4.649
 9515W        W77878   4.816  36.349   2.284
 9516W        W77879   5.934  43.767  10.998
 9517W        W77880   4.856  24.131  10.014
 9518W        W77881  20.057   8.181   0.305
 9519W        W77882  36.948  34.031  10.517
 9520W        W77883  10.342   1.375   4.243
 9521W        W77884   4.370   6.748  14.899
 9522W        W77885  13.260   9.384   0.822
 9523W        W77886  13.332  30.648  14.471
 9524W        W77887   3.284   1.963  14.512
 9525W        W77888  44.262   1.899   0.931
 9526W        W77889  20.092  32.494   1.319
 9527W        W77890  11.302  40.886  10.584
 9528W        W77891  37.954  31.510   4.286
 9529W        W77892  30.910   8.772  12.955
 9530W        W77893  13.163  39.466   3.201
 9531W        W77894  19.195  23.584   4.645
 9532W        W77895  38.967   9.354  13.334
 9533W        W77896  36.472  20.652   0.362
 9534W        W77897  12.154   5.810  14.831
 9535W        W77898  13.705   6.777   9.934
 9536W        W77899  42.842  17.192  14.896
 9537W        W77900   0.391  32.581  11.090
 9538W        W77901  31.527  44.258   0.409
 9539W        W77902  24.719  34.103   0.304
 9540W        W77903  28.009   7.270  13.470
 9541W        W77904  32.498  13.191   4.316
 9542W        W77905  40.988  27.940  11.611
 9543W        W77906  24.054  14.149  13.874
 9544W        W77907  29.511  15.664   3.220
 9545W        W77908  16.158   0.966   4.347
 9546W        W77909  43.388  16.168   1.728
 9547W        W77910  39.320  37.372  11.104
 9548W        W77911  15.721   3.729  12.917
 9549W        W77912  16.117  12.773  12.425
 9550W        W77913   0.296  19.743   3.663
 9551W        W77914  39.363  30.110   0.929
 9552W        W77915  39.043   2.388   4.661
 9553W        W77916   6.391  22.176   2.227
 9554W        W77917  10.366   3.791  14.802
 9555W        W77918  28.555  36.898  14.434
 9556W        W77919  29.519   7.901   3.298
 9557W        W77920  20.702   7.768   2.251
 9558W        W77921  44.753  30.133  11.550
 9559W        W77922   2.901  31.032   2.705
 9560W        W77923  18.558  24.067  14.352
 9561W        W77924  33.507  27.666  13.902
 9562W        W77925  11.764  34.053   1.835
 9563W        W77926   4.403  42.455   3.292
 9564W        W77927   2.332  37.943   0.399
 9565W        W77928  33.951  25.529   4.176
 9566W        W77929  39.400  22.232   0.369
 9567W        W77930  15.635  37.901  14.773
 9568W        W77931  32.462  19.168  14.461
 9569W        W77932   5.886   2.943  10.643
 9570W        W77933  35.956  18.276   4.644
 9571W        W77934  33.388  14.761  13.874
 9572W        W77935  26.461  43.020   1.350
 9573W        W77936  11.164  35.437   4.687
 9574W        W77937   8.268   3.305   4.299
 9575W        W77938   4.784   6.425  14.408
 9576W        W77939  31.597   6.723  12.096
 9577W        W77940   7.740  19.745   1.232
 9578W        W77941   4.942   8.247  11.608
 9579W        W77942   7.287  43.966  14.883
 9580W        W77943  23.114  15.093   1.928
 9581W        W77944  29.612  11.356  10.088
 9582W        W77945  11.741   0.763   2.686
 9583W        W77946   2.750  30.548  10.549
 9584W        W77947  23.496  19.634  13.833
 9585W        W77948   1.837  25.513   0.350
 9586W        W77949  32.898  19.712   2.223
 9587W        W77950   0.374  28.441  13.020
 9588W        W77951  27.077  18.080  14.481
 9589W        W77952   3.292   6.401   4.623
 9590W        W77953  13.643  43.892   1.349
 9591W        W77954  25.032  25.101  12.961
 9592W        W77955  12.123  28.014  11.502
 9593W        W77956  25.083  13.306   1.342
 9594W        W77957  16.282  20.573   2.758
 9595W        W77958  37.925  34.500  10.583
 9596W        W77959  24.191  36.349  11.563
 9597W        W77960  19.570  44.349  14.287
 9598W        W77961   9.311  33.408  13.330
 9599W        W77962  21.087  33.928  11.021
 9600W        W77963   4.743  19.137  13.942
 9601W        W77964  20.557  30.535  12.927
 9602W        W77965  42.506  36.454   3.731
 9603W        W77966  38.522  28.597  13.877
 9604W        W77967  30.112  44.473   3.706
 9605W        W77968  28.444  19.061   0.872
 9606W        W77969  13.183  38.477   2.824
 9607W        W77970  44.364  19.744   5.154
 9608W        W77971  43.270  28.650   1.258
 9609W        W77972  36.436  25.196  11.935
 9610W        W77973  33.546   6.822   0.330
 9611W        W77974   0.467  44.877   1.363
 9612W        W77975   0.894   8.869   9.970
 9613W        W77976  14.151  29.112  14.280
 9614W        W77977  23.235  19.162   0.364
 9615W        W77978  44.348  26.640  14.908
 9616W        W77979  23.057  37.380   1.905
 9617W        W77980  13.706  25.998  12.547
 9618W        W77981  24.211  13.619  11.096
 9619W        W77982  10.814  17.756  13.982
 9620W        W77983  34.003  41.514   0.317
 9621W        W77984  13.329  42.839   4.689
 9622W        W77985  29.101  17.206   2.332
 9623W        W77986  43.499  38.487  14.297
 9624W        W77987  26.521   5.695   1.287
 9625W        W77988  19.734   5.282   0.284
 9626W        W77989  31.560  27.466   9.484
 9627W        W77990  36.864  43.012  12.941
 9628W        W77991  36.072  27.628  14.400
 9629W        W77992   0.283  30.092  13.469
 9630W        W77993   1.323  35.005  10.979
 9631W        W77994   5.758  29.575  14.313
 9632W        W77995  10.183  37.504  14.964
 9633W        W77996  26.685  35.441   1.767
 9634W        W77997  16.647  18.549   1.903
 9635W        W77998  34.519  39.529   1.736
 9636W        W77999  19.724  31.440   4.230
 9637W        W78000  12.785  18.771  11.109
 9638W        W78001  18.731  13.236  14.441
 9639W        W78002   1.856  34.087  14.995
 9640W        W78003   5.815  17.646  14.338
 9641W        W78004  22.041  31.100   1.243
 9642W        W78005   2.452  35.447  12.095
 9643W        W78006   5.784  29.953  14.905
 9644W        W78007  23.196  41.901  14.395
 9645W        W78008  36.012  39.514  13.062
 9646W        W78009   6.240  41.429  14.498
 9647W        W78010  34.994  18.719  11.489
 9648W        W78011  33.031  37.388  11.855
 9649W        W78012  29.656  10.325   2.834
 9650W        W78013  20.566  29.026   4.751
 9651W        W78014  21.141  44.956   4.146
 9652W        W78015   3.775  40.999   1.272
 9653W        W78016  18.209  21.744   2.759
 9654W        W78017  21.581  20.750   1.390
 9655W        W78018  37.965  18.710  11.382
 9656W        W78019  33.985  43.939  13.535
 9657W        W78020   3.391  13.808   3.851
 9658W        W78021  44.845  35.442   2.284
 9659W        W78022   9.754   9.287  11.582
 9660W        W78023  43.463   6.869   2.870
 9661W        W78024  37.433  39.988   4.223
 9662W        W78025  33.947  23.169  10.540
 9663W        W78026  10.176  34.590  10.106
 9664W        W78027  20.211  37.977   4.831
 9665W        W78028  41.808  35.074  14.794
 9666W        W78029  36.968   7.325   0.273
 9667W        W78030  36.380  32.429   0.960
 9668W        W78031  32.986  35.469   2.679
 9669W        W78032  37.965  43.516   0.414
 9670W        W78033  21.619   0.965   3.348
 9671W        W78034  29.994  32.393   4.711
 9672W        W78035   3.940  34.566   9.972
 9673W        W78036  33.452  16.145  14.022
 9674W        W78037   6.844   7.266   0.394
 9675W        W78038  37.498  22.045  13.878
 9676W        W78039  24.142   8.716   3.229
 9677W        W78040   6.197  38.529   2.410
 9678W        W78041  11.177   3.235   0.361
 9679W        W78042  21.129  39.525   1.433
 9680W        W78043  27.497  13.737  13.513
 9681W        W78044  41.028  19.732   2.881
 9682W        W78045  24.067  25.077  11.933
 9683W        W78046  30.516   6.781   0.815
 9684W        W78047  10.383  40.535  10.966
 9685W        W78048  31.611  25.064   4.659
 9686W        W78049  19.241   3.942   3.322
 9687W        W78050  35.042  24.072   4.806
 9688W        W78051  29.632  25.513   0.820
 9689W        W78052   1.929  41.338  10.993
 9690W        W78053  10.683  11.750  11.901
 9691W        W78054  39.372  11.637  12.488
 9692W        W78055  11.661   3.426  13.796
 9693W        W78056   8.900  40.853  11.989
 9694W        W78057  32.609  39.870   3.227
 9695W        W78058  25.174  24.483   4.337
 9696W        W78059  40.992  16.261  10.552
 9697W        W78060  22.017  19.664   2.381
 9698W        W78061  37.402  21.112  11.958
 9699W        W78062  17.664  15.711   2.374
 9700W        W78063  17.753   6.908   2.366
 9701W        W78064   4.738  24.087  12.003
 9702W        W78065  16.206  13.167   2.903
 9703W        W78066  24.638  12.138  14.409
 9704W        W78067  23.617  31.486  12.916
 9705W        W78068  18.063   6.780   4.342
 9706W        W78069  19.766  14.289  14.511
 9707W        W78070  16.781  32.529  13.867
 9708W        W78071  26.521  27.977  13.902
 9709W        W78072   2.239  21.092   1.901
 9710W        W78073  35.985  16.770  14.815
 9711W        W78074   2.350  20.550  14.366
 9712W        W78075  30.457   3.353  13.502
 9713W        W78076   2.411  32.469   3.859
 9714W        W78077  24.225  25.568  10.523
 9715W        W78078   6.839  42.368  11.514
 9716W        W78079  40.399  22.995   1.273
 9717W        W78080  44.798  34.934   3.679
 9718W        W78081   0.907  37.498   4.763
 9719W        W78082  33.474  30.454   2.409
 9720W        W78083  31.053  22.102  14.839
 9721W        W78084  12.830  20.752  14.840
 9722W        W78085  29.122  41.010  12.425
 9723W        W78086  25.479  14.245   3.634
 9724W        W78087  44.953   6.700  11.864
 9725W        W78088  25.519   2.351   4.797
 9726W        W78089  32.528  17.713  11.593
 9727W        W78090  29.622   7.226  14.814
 9728W        W78091  17.636  43.407  13.922
 9729W        W78092   7.259  33.937  15.000
 9730W        W78093  32.041  37.086   4.266
 9731W        W78094  11.814  20.167  13.545
 9732W        W78095   2.268  32.562  12.486
 9733W        W78096  39.054   3.783   4.789
 9734W        W78097  26.969  18.269  12.497
 9735W        W78098   7.713  11.625  13.025
 9736W        W78099   6.907  33.043  12.548
 9737W        W78100  40.491  13.649   2.222
 9738W        W78101  29.427  16.112   1.876
 9739W        W78102  35.006   8.404  13.968
 9740W        W78103  21.125   5.204  14.438
 9741W        W78104   8.692  36.589   1.931
 9742W        W78105  34.871  19.534   0.354
 9743W        W78106   4.240  18.183  11.020
 9744W        W78107   1.313  17.758   2.319
 9745W        W78108  37.350  14.148  10.409
 9746W        W78109   4.281  19.261  12.885
 9747W        W78110  43.954   3.814  14.003
 9748W        W78111  44.364  25.632  12.365
 9749W        W78112  25.183  40.818   1.382
 9750W        W78113  11.690   5.405  10.944
 9751W        W78114  17.193   1.772   1.411
 9752W        W78115   0.816  42.358  11.121
 9753W        W78116  21.609  11.734  11.385
 9754W        W78117  19.631   9.646   1.439
 9755W        W78118   1.867  32.543  14.445
 9756W        W78119  23.238  33.119   4.308
 9757W        W78120  23.121  28.578   4.632
 9758W        W78121   3.416  40.507  14.902
 9759W        W78122  41.364  34.987  12.961
 9760W        W78123  14.782  44.958   2.835
 9761W        W78124  37.522  19.148  14.933
 9762W        W78125  14.784   1.296  11.477
 9763W        W78126  19.161  19.225   0.370
 9764W        W78127  23.510  19.552  12.040
 9765W        W78128  18.755  20.077   3.381
 9766W        W78129  10.741   0.481  14.775
 9767W        W78130   6.188  29.981   1.211
 9768W        W78131   5.785  42.465   2.848
 9769W        W78132  14.699  39.928   2.868
 9770W        W78133  19.609  44.382  13.532
 9771W        W78134   9.247   4.924   1.816
 9772W        W78135  31.433   6.729   0.820
 9773W        W78136  36.347  30.630  14.286
 9774W        W78137  29.015  33.024   1.724
 9775W        W78138  17.783   5.709  13.891
 9776W        W78139   0.864  21.610  13.346
 9777W        W78140  17.570  38.955   4.648
 9778W        W78141   8.229  37.347   2.742
 9779W        W78142  21.709  39.895  12.408
 9780W        W78143  19.176  41.364   4.288
 9781W        W78144  13.627   4.707  14.981
 9782W        W78145  18.092  44.872   5.804
 9783W        W78146  13.255  32.099   2.412
 9784W        W78147  12.172  24.504  10.892
 9785W        W78148  11.218  24.184   1.232
 9786W        W78149   4.332   0.397  12.543
 9787W        W78150  22.726  35.525  10.462
 9788W        W78151  28.455  28.543  11.577
 9789W        W78152  42.975  11.667  14.881
 9790W        W78153   5.833  36.550   3.674
 9791W        W78154  21.034  35.854   2.304
 9792W        W78155  40.053  18.600   0.849
 9793W        W78156  12.205   1.905  13.056
 9794W        W78157  35.429  17.780  11.566
 9795W        W78158  29.444  36.372   0.272
 9796W        W78159   7.827  11.716   2.875
 9797W        W78160  39.993   0.832   1.386
 9798W        W78161  22.730   3.290   3.699
 9799W        W78162  40.014   4.361   0.769
 9800W        W78163  42.511  39.816   4.601
 9801W        W78164   7.723  17.302  14.417
 9802W        W78165  11.743   8.753   2.348
 9803W        W78166  29.564  18.262   0.789
 9804W        W78167  38.376  43.839  14.852
 9805W        W78168  32.579  24.064   2.305
 9806W        W78169  34.568  13.689   3.827
 9807W        W78170  15.122  33.398   0.768
 9808W        W78171   2.415   0.425   5.693
 9809W        W78172  32.915  32.050   1.702
 9810W        W78173  26.530  40.802  10.579
 9811W        W78174  44.872   9.253  11.976
 9812W        W78175  24.989   0.845   4.274
 9813W        W78176  12.320  41.538  10.601
 9814W        W78177  33.088  10.638  13.021
 9815W        W78178  37.352  39.384  11.578
 9816W        W78179  28.539  41.018  10.418
 9817W        W78180  19.162  41.833   9.976
 9818W        W78181  38.364  33.401  13.326
 9819W        W78182  18.723  21.123  11.610
 9820W        W78183  21.125  22.627  11.555
 9821W        W78184  18.643  14.835  10.464
 9822W        W78185  40.920   5.841  11.896
 9823W        W78186  30.550  39.958  14.434
 9824W        W78187  18.650  16.226   0.271
 9825W        W78188  42.338  42.391   1.728
 9826W        W78189  34.525  23.678  11.928
 9827W        W78190  14.601  16.300   5.589
 9828W        W78191   7.368  27.188   0.386
 9829W        W78192  21.585  24.495  11.918
 9830W        W78193  17.173  11.322  10.472
 9831W        W78194  19.180  30.026  11.090
 9832W        W78195   6.288  17.266  11.391
 9833W        W78196  23.035  39.811   0.930
 9834W        W78197   6.775  43.772   0.406
 9835W        W78198   6.693   4.779   2.208
 9836W        W78199  31.466   1.896   4.266
 9837W        W78200  43.004  43.296  13.491
 9838W        W78201  31.416  41.897   0.243
 9839W        W78202  21.018   7.265  14.431
 9840W        W78203  30.580  40.376   1.229
 9841W        W78204  31.504  23.695  14.396
 9842W        W78205   9.829  37.939  14.809
 9843W        W78206   4.221   4.821   2.801
 9844W        W78207  44.294  29.623   4.300
 9845W        W78208  25.535   1.376   3.852
 9846W        W78209  41.850  15.631  14.900
 9847W        W78210  44.870  11.684   3.738
 9848W        W78211   3.223  35.565  12.828
 9849W        W78212   4.900  11.630   0.745
 9850W        W78213  30.986  33.027  13.803
 9851W        W78214   5.199   1.865  14.387
 9852W        W78215  35.854   4.262  14.987
 9853W        W78216   9.885  43.990   1.285
 9854W        W78217   0.492  18.724   4.123
 9855W        W78218  42.826   2.331  13.496
 9856W        W78219  25.677  38.465  14.817
 9857W        W78220  23.003   1.820  14.901
 9858W        W78221   2.276  35.421  10.937
 9859W        W78222   8.381  19.582   3.361
 9860W        W78223   9.177   2.924  12.828
 9861W        W78224  31.093  39.010  13.005
 9862W        W78225   9.829  30.923   1.788
 9863W        W78226   4.933  43.436   1.823
 9864W        W78227   6.918  44.326   3.152
 9865W        W78228  30.560  35.003  11.464
 9866W        W78229  41.010  29.035  12.505
 9867W        W78230  35.560   0.372  13.821
 9868W        W78231  33.604  33.572  11.570
 9869W        W78232  26.663  28.673   4.331
 9870W        W78233  38.022   5.342  12.060
 9871W        W78234  21.608  43.341   3.760
 9872W        W78235   5.714  40.312  10.592
 9873W        W78236   4.224   9.160  11.049
 9874W        W78237  29.127  39.971  11.408
 9875W        W78238  43.375   4.734   4.140
 9876W        W78239  37.450  13.161  10.145
 9877W        W78240  20.665  29.950  11.050
 9878W        W78241  20.571  38.066   4.168
 9879W        W78242  15.818  19.111   2.851
 9880W        W78243  12.227  31.556  11.987
 9881W        W78244  16.606  32.942   2.717
 9882W        W78245  33.107  21.228  14.762
 9883W        W78246  43.900   4.333  13.013
 9884W        W78247  37.973  15.140  12.071
 9885W        W78248  25.490  14.702  10.100
 9886W        W78249  12.344  34.513   2.762
 9887W        W78250  38.466   6.806   0.368
 9888W        W78251  44.979   3.934   0.731
 9889W        W78252  17.247  13.639   1.916
 9890W        W78253  30.423  38.471  13.437
 9891W        W78254  32.954  24.017   1.278
 9892W        W78255  12.128  35.909  14.002
 9893W        W78256  42.489  41.303  12.429
 9894W        W78257  28.973  40.398  10.994
 9895W        W78258   8.192   4.357   0.363
 9896W        W78259  19.154  20.176  14.777
 9897W        W78260  32.126   2.773  11.021
 9898W        W78261  25.558  40.939   3.759
 9899W        W78262  25.054  24.695  13.821
 9900W        W78263  11.327  23.206   4.656
 9901W        W78264  12.616  19.613  12.939
 9902W        W78265  10.192   3.412  10.491
 9903W        W78266  20.524  13.682  12.425
 9904W        W78267   7.906   1.323   0.820
 9905W        W78268  39.362  29.451  14.889
 9906W        W78269  35.989  31.524   0.728
 9907W        W78270  21.076   5.255   2.817
 9908W        W78271  36.565  34.540   4.821
 9909W        W78272  19.621  39.342  13.991
 9910W        W78273  11.224  19.619   3.268
 9911W        W78274   6.366  38.373   4.133
 9912W        W78275  42.029  42.882   9.970
 9913W        W78276  44.505  21.515   0.801
 9914W        W78277  13.347   1.824   4.116
 9915W        W78278  28.524  28.182   2.415
 9916W        W78279   6.234  31.088   4.601
 9917W        W78280   1.360  12.297  13.453
 9918W        W78281  40.413  40.035   4.642
 9919W        W78282  28.089   7.179  10.133
 9920W        W78283  26.967  14.238   0.933
 9921W        W78284  19.601  38.979  13.913
 9922W        W78285  24.184  39.005   1.796
 9923W        W78286  42.022  30.057  12.024
 9924W        W78287  18.056  29.165  11.568
 9925W        W78288  32.599  42.013   2.803
 9926W        W78289   2.247  35.512   3.182
 9927W        W78290  29.492   5.245  12.846
 9928W        W78291   6.721  24.149   1.760
 9929W        W78292  36.586  20.221   3.202
 9930W        W78293  28.132  24.659  10.904
 9931W        W78294   8.813   2.796  12.508
 9932W        W78295  26.680   2.232  11.062
 9933W        W78296   2.816  16.752   4.125
 9934W        W78297  11.287  44.925  10.606
 9935W        W78298  15.610   4.339  13.955
 9936W        W78299   7.328   3.337   2.720
 9937W        W78300  20.698  44.828   4.229
 9938W        W78301  17.084  21.095  13.021
 9939W        W78302  20.134  19.735   3.855
 9940W        W78303  35.875  17.193   1.222
 9941W        W78304  29.034  17.269   0.390
 9942W        W78305  10.774  20.670  11.424
 9943W        W78306   8.822  21.573  10.445
 9944W        W78307  17.138  37.998   3.196
 9945W        W78308  20.161  40.877  13.524
 9946W        W78309   4.448  20.586   4.334
 9947W        W78310  29.430  34.441  14.832
 9948W        W78311  34.587  26.120   3.217
 9949W        W78312  11.629  37.487  14.467
 9950W        W78313  20.763  19.548   3.851
 9951W        W78314  23.007  43.991   4.137
 9952W        W78315  17.141  23.510  11.062
 9953W        W78316   2.288   6.697   0.948
 9954W        W78317   5.217   0.294   2.679
 9955W        W78318  44.435  30.569   2.761
 9956W        W78319  32.599   1.833  12.375
 9957W        W78320  24.511   5.269   1.366
 9958W        W78321  13.654   2.731   3.290
 9959W        W78322   9.671  24.702  14.783
 9960W        W78323  16.109  37.382  13.870
 9961W        W78324   7.245  13.696   3.798
 9962W        W78325   0.921  34.908   4.244
 9963W        W78326  31.553  14.639   0.357
 9964W        W78327  35.089   3.225  10.932
 9965W        W78328  36.493   4.400  11.035
 9966W        W78329  19.059  17.565  14.024
 9967W        W78330  31.912   6.788   0.320
 9968W        W78331  14.210  30.104  10.441
 9969W        W78332  35.373  26.131   2.837
 9970W        W78333  16.813  27.631   1.789
 9971W        W78334  14.691  34.377  14.903
 9972W        W78335  24.202  21.736  10.904
 9973W        W78336   2.322  19.196  10.438
 9974W        W78337   1.852  40.463  12.957
 9975W        W78338  10.337  35.925  13.898
 9976W        W78339   6.805  35.478  11.390
 9977W        W78340  18.613   2.752   3.689
 9978W        W78341   7.314  27.050  10.942
 9979W        W78342  31.019  33.586   2.287
 9980W        W78343  37.548  37.928   4.644
 9981W        W78344   2.311  40.882  11.893
 9982W        W78345  25.585  37.409  12.981
 9983W        W78346  34.004  23.616  14.827
 9984W        W78347  33.064  31.115   1.271
 9985W        W78348  37.867  18.608   2.352
 9986W        W78349   4.863  41.373   1.832
 9987W        W78350  35.523  11.681  13.520
 9988W        W78351  39.513  27.462   0.260
 9989W        W78352  32.075   7.400   3.744
 9990W        W78353   3.408  31.127  13.984
 9991W        W78354  15.655  39.560  12.046
 9992W        W78355  43.296   8.866   4.738
 9993W        W78356  10.172   8.247  11.546
 9994W        W78357  17.124   9.732   4.739
 9995W        W78358  41.890  28.051   0.405
 9996W        W78359   9.867  35.395  12.998
 9997W        W78360  36.984  31.933  12.483
 9998W        W78361  33.389  15.716  12.846
 9999W        W78362  42.408  26.540   4.664
10000W        W78363  30.469  15.176   2.824
10001W        W78364  33.474  17.716   3.717
10002W        W78365  23.057  37.948  10.552
10003W        W78366  39.903   4.812  14.861
10004W        W78367  22.684  37.456  10.903
10005W        W78368  44.928  29.475  14.029
10006W        W78369   7.701   9.241  10.405
10007W        W78370  20.110   9.665   1.427
10008W        W78371  31.929  30.604  13.862
10009W        W78372   6.199  18.138  13.028
10010W        W78373  14.779  41.324   4.351
10011W        W78374  35.980  10.288  13.967
10012W        W78375  14.737  34.524  12.854
10013W        W78376  13.743  23.659  13.825
10014W        W78377  26.156  15.147   1.416
10015W        W78378  36.963  26.967  13.972
10016W        W78379  30.981  17.289  13.419
10017W        W78380   0.794  22.027   1.797
10018W        W78381  10.858  22.188   3.666
10019W        W78382  34.114  22.038  13.491
10020W        W78383  44.285  15.192   1.331
10021W        W78384  26.970  17.303   1.376
10022W        W78385   1.478  40.318   2.227
10023W        W78386  18.182   7.242  10.535
10024W        W78387  38.962  13.657  11.371
10025W        W78388  41.960  35.554  13.329
10026W        W78389  31.447  29.570  13.333
10027W        W78390  27.518  42.800  14.432
10028W        W78391  18.640  34.434   2.811
10029W        W78392  28.514  30.976   3.656
10030W        W78393  37.929  44.881  13.042
10031W        W78394  26.173  44.974  13.859
10032W        W78395   0.410  32.111   5.281
10033W        W78396  14.771  43.948   4.115
10034W        W78397  33.391  44.792  13.386
10035W        W78398  23.005   7.810  11.518
10036W        W78399  21.694  12.219   1.751
10037W        W78400  20.059   4.935   5.229
10038W        W78401  11.283  16.275   0.778
10039W        W78402  13.341   2.416   0.838
10040W        W78403  23.565  31.495  10.904
10041W        W78404   3.444   8.331  12.462
10042W        W78405  29.958  33.060  11.018
10043W        W78406  11.711   7.368   2.272
10044W        W78407   7.305  37.421   3.772
10045W        W78408  33.561  41.530  14.406
10046W        W78409  36.032   7.715  14.417
10047W        W78410   6.324  33.003   1.296
10048W        W78411  13.845   9.261   3.761
10049W        W78412  21.531  15.776  12.456
10050W        W78413  39.381  38.529   2.730
10051W        W78414  10.681   9.696  14.435
10052W        W78415  24.058   3.876   2.793
10053W        W78416  17.757  29.530  11.480
10054W        W78417  38.552  20.251  13.828
10055W        W78418  22.104  28.181  10.486
10056W        W78419  43.431  18.228  14.777
10057W        W78420  21.605  43.499  10.897
10058W        W78421   2.332  22.567   0.254
10059W        W78422  19.122  23.065  11.071
10060W        W78423  33.522   2.385   0.436
10061W        W78424   6.898  44.812  10.897
10062W        W78425  11.809  18.692   1.382
10063W        W78426  24.001  12.632  13.372
10064W        W78427  21.547  29.038  12.408
10065W        W78428  40.398  21.732   1.257
10066W        W78429  39.535  20.133   0.836
10067W        W78430  27.139  18.140   1.911
10068W        W78431  26.075  30.441   3.743
10069W        W78432  13.308  42.820  13.542
10070W        W78433  28.577  34.501  13.950
10071W        W78434   6.242  11.639   1.748
10072W        W78435  15.117  24.514   1.243
10073W        W78436  38.484  23.213  12.526
10074W        W78437  28.471  29.050  10.942
10075W        W78438   3.234   3.755  11.933
10076W        W78439  23.195  41.956   0.923
10077W        W78440  22.195  42.514   3.788
10078W        W78441  25.696  44.323   4.609
10079W        W78442  30.990  25.028   9.997
10080W        W78443  38.894  35.944   4.137
10081W        W78444  23.177  22.681  14.905
10082W        W78445  15.211  31.485   4.607
10083W        W78446  37.054  28.453  11.550
10084W        W78447  18.618  38.931  13.429
10085W        W78448   2.277  41.888  10.433
10086W        W78449  21.644  10.363  12.948
10087W        W78450  12.718  41.339  13.795
10088W        W78451   2.399  38.047   2.865
10089W        W78452  18.281  39.382   1.414
10090W        W78453  43.924   5.208  11.113
10091W        W78454   1.853  27.129   2.810
10092W        W78455  36.525  25.999   4.207
10093W        W78456  15.277  34.094   4.203
10094W        W78457  41.944  27.554   0.913
10095W        W78458  34.434   0.474  14.817
10096W        W78459  39.863  11.196   3.747
10097W        W78460  15.781  43.895   5.282
10098W        W78461  42.028  14.146  14.350
10099W        W78462  36.894  16.098   2.738
10100W        W78463  29.505  33.412  14.444
10101W        W78464  29.489   6.758   2.778
10102W        W78465  19.189  29.135  14.004
10103W        W78466  37.995  33.091   3.289
10104W        W78467  42.821  18.721  12.472
10105W        W78468  11.831  20.213   0.275
10106W        W78469   5.289   1.779  11.515
10107W        W78470  24.087   0.258  12.412
10108W        W78471  28.138   5.274  10.025
10109W        W78472  20.224   8.817   4.738
10110W        W78473  22.567  25.993   3.274
10111W        W78474  23.730  10.813  10.503
10112W        W78475  22.542  31.033  12.059
10113W        W78476  27.134  18.687  11.078
10114W        W78477  40.967  14.112   1.712
10115W        W78478   6.415   6.377   3.675
10116W        W78479  30.105  25.029  10.465
10117W        W78480   9.276  14.125  13.486
10118W        W78481  43.941  26.118   4.298
10119W        W78482  20.102   7.745  13.428
10120W        W78483  19.221  32.106   4.277
10121W        W78484  20.136  14.831   2.248
10122W        W78485  34.021  14.766  10.970
10123W        W78486   3.846   5.861  11.907
10124W        W78487  15.234  15.313  14.854
10125W        W78488  36.385   1.909   3.252
10126W        W78489   5.782   8.732   2.207
10127W        W78490  18.141  11.697  12.888
10128W        W78491  22.073  44.758   4.142
10129W        W78492   3.265  30.950  14.918
10130W        W78493  26.031  42.847  12.367
10131W        W78494  39.007   3.731   0.269
10132W        W78495  25.134  25.656   0.787
10133W        W78496   8.313   0.444   2.794
10134W        W78497   4.207  29.041   3.190
10135W        W78498  13.190   5.332  10.998
10136W        W78499  30.606  24.668   0.267
10137W        W78500  44.992  28.991   4.196
10138W        W78501  35.526   2.445  12.358
10139W        W78502  10.227  11.640   2.273
10140W        W78503  19.129   8.756   3.714
10141W        W78504   1.775  12.217  10.606
10142W        W78505  17.704   1.458   1.339
10143W        W78506  42.504   2.753  12.528
10144W        W78507   5.268  18.259   4.205
10145W        W78508   0.346   2.285   0.437
10146W        W78509  29.970  19.631  11.525
10147W        W78510   0.785  36.377   1.876
10148W        W78511  26.075  34.018   1.218
10149W        W78512   2.763   5.795   3.643
10150W        W78513  41.038  31.531  12.068
10151W        W78514  16.205  24.031   4.623
10152W        W78515  28.964  17.653   1.419
10153W        W78516  31.480  35.380  13.063
10154W        W78517   0.404  26.480  13.909
10155W        W78518   6.192  24.128   0.929
10156W        W78519  44.265  26.488  14.377
10157W        W78520  27.027  12.812   3.173
10158W        W78521  29.967  39.048   4.758
10159W        W78522  13.832  17.578   0.466
10160W        W78523  32.624  36.984   1.236
10161W        W78524   4.790  34.994  13.051
10162W        W78525   3.956   1.741  12.046
10163W        W78526  36.431  17.798  13.907
10164W        W78527   5.740  22.216  13.810
10165W        W78528  18.781  19.565  14.387
10166W        W78529   0.922  34.560  12.877
10167W        W78530   8.352  12.705   3.870
10168W        W78531  17.287  32.904   0.956
10169W        W78532  43.445   7.287   1.791
10170W        W78533  27.664  37.929   4.664
10171W        W78534  13.680  37.361  13.427
10172W        W78535  42.829   7.848  13.431
10173W        W78536   3.404  29.165   0.264
10174W        W78537  17.585  18.063   1.360
10175W        W78538  41.008   2.925   1.444
10176W        W78539   3.405  39.013   3.226
10177W        W78540  19.240  21.161  12.919
10178W        W78541  31.137   6.919   4.121
10179W        W78542   8.269  24.120  13.503
10180W        W78543  13.685   2.960  12.032
10181W        W78544  16.219  22.681  10.621
10182W        W78545  33.544  42.494  14.006
10183W        W78546  33.896   5.266  13.970
10184W        W78547   2.272  26.195  11.414
10185W        W78548  19.736  33.121  13.879
10186W        W78549  38.077  42.524  14.936
10187W        W78550  12.354  14.196  13.429
10188W        W78551  33.969  44.371  10.479
10189W        W78552  40.894  37.506  10.963
10190W        W78553  13.754  36.438  12.369
10191W        W78554  21.177   1.298  13.464
10192W        W78555  27.633  13.294  14.937
10193W        W78556  34.033  25.199  12.547
10194W        W78557  41.430  21.637  10.505
10195W        W78558  44.897  35.593   5.129
10196W        W78559  10.873   1.437   3.329
10197W        W78560  11.797  32.446   0.757
10198W        W78561  18.730  34.528   1.821
10199W        W78562  43.777  29.036   1.398
10200W        W78563  18.784   2.441  14.439
10201W        W78564  32.485  41.804   2.263
10202W        W78565  22.217  11.847   1.443
10203W        W78566  41.021  19.120   2.781
10204W        W78567   6.394   7.292  13.512
10205W        W78568  37.432  17.155  12.072
10206W        W78569  39.047  38.405   4.321
10207W        W78570  30.097  32.506   1.780
10208W        W78571  43.772  13.172   2.734
10209W        W78572  40.391   8.751   5.149
10210W        W78573  29.518  37.969  11.417
10211W        W78574  19.043  20.626  14.509
10212W        W78575  41.519  34.596  12.517
10213W        W78576  37.442  12.324  14.306
10214W        W78577  28.015  43.274   3.816
10215W        W78578  24.591  25.004  11.473
10216W        W78579  40.489  25.683  12.842
10217W        W78580   3.261  43.357   5.213
10218W        W78581  42.889  19.240  12.506
10219W        W78582  11.627  31.040   2.348
10220W        W78583  22.121  44.261   2.220
10221W        W78584  41.341  18.659   5.273
10222W        W78585  39.044  21.757   0.388
10223W        W78586  15.642  18.216   5.232
10224W        W78587  25.519  29.046   0.380
10225W        W78588  25.966   2.431  14.005
10226W        W78589  19.233  11.248   2.753
10227W        W78590  26.569   4.919  12.497
10228W        W78591  42.926  17.115   0.271
10229W        W78592  28.143  26.108   4.292
10230W        W78593  27.136   3.400  11.074
10231W        W78594   9.233  39.025   0.484
10232W        W78595  23.632  37.574   1.239
10233W        W78596  27.001  36.936  12.951
10234W        W78597  39.359   8.725  11.934
10235W        W78598  14.588  26.019  14.503
10236W        W78599  21.680   4.943   3.168
10237W        W78600  28.100  17.115   1.697
10238W        W78601  41.874  40.816   1.797
10239W        W78602  43.799  27.093   3.287
10240W        W78603   4.914  43.819   1.887
10241W        W78604  32.490  24.205   2.869
10242W        W78605   2.899  18.122   2.339
10243W        W78606  13.685  13.809  13.527
10244W        W78607  22.579   7.221   0.734
10245W        W78608  42.838  43.857  10.407
10246W        W78609  20.063  20.097  10.536
10247W        W78610   2.722   8.660  12.851
10248W        W78611   8.895  14.670   1.828
10249W        W78612  40.849  29.433   3.363
10250W        W78613   9.764  15.600  13.481
10251W        W78614  40.919  24.522  12.515
10252W        W78615  29.092  44.887  13.499
10253W        W78616   6.710  36.872   0.890
10254W        W78617  18.688   7.827   0.281
10255W        W78618   8.175   3.271   4.604
10256W        W78619  27.103  33.596  11.457
10257W        W78620  35.973  12.663  13.416
10258W        W78621  25.010  35.021  11.522
10259W        W78622  38.511   6.305  10.907
10260W        W78623  29.052   1.475  14.885
10261W        W78624  44.953  22.115   2.321
10262W        W78625  43.975  18.608   3.682
10263W        W78626  34.507  16.264  14.444
10264W        W78627  10.772   5.261  13.060
10265W        W78628  21.593  43.769  13.016
10266W        W78629   9.271  25.042  13.547
10267W        W78630  22.996  11.297  12.935
10268W        W78631  18.565  37.996   0.396
10269W        W78632  42.493   8.897   0.267
10270W        W78633  22.664  44.789   1.392
10271W        W78634   4.320  12.307  10.619
10272W        W78635  26.961  16.079  12.008
10273W        W78636  39.445  22.712  14.392
10274W        W78637  10.728   2.275   3.253
10275W        W78638   4.914   7.273  14.339
10276W        W78639  19.557  24.542   1.303
10277W        W78640   9.307  15.166   2.740
10278W        W78641  37.390  31.439  10.900
10279W        W78642  23.668  23.701   2.178
10280W        W78643  42.898   3.351   0.403
10281W        W78644   4.390   8.230   1.252
10282W        W78645  30.111  16.135   1.716
10283W        W78646  22.049  23.127  11.117
10284W        W78647  28.144  44.833  11.524
10285W        W78648  17.131  10.746   1.276
10286W        W78649  19.610   4.857  14.831
10287W        W78650  29.606  32.547  14.771
10288W        W78651  42.432  39.475   1.713
10289W        W78652  38.870  40.420  14.872
10290W        W78653  30.164  41.882  11.543
10291W        W78654  11.323  23.546   2.673
10292W        W78655  44.010  40.435  10.585
10293W        W78656   3.754  14.339  12.931
10294W        W78657  29.117  11.654   0.755
10295W        W78658  17.223  23.040   0.770
10296W        W78659   8.863  16.574   3.205
10297W        W78660  38.502  42.017   0.302
10298W        W78661  14.829  33.054   2.187
10299W        W78662  21.112  30.995   4.818
10300W        W78663  41.423   4.726   5.293
10301W        W78664   5.265  36.096  10.935
10302W        W78665  38.996  43.854  12.929
10303W        W78666  22.185  41.449  13.446
10304W        W78667  37.038  32.431   4.303
10305W        W78668  22.524  43.287   3.335
10306W        W78669  36.535   0.343   4.271
10307W        W78670   7.375  19.719  10.425
10308W        W78671  20.264  25.217  13.443
10309W        W78672  41.004   9.793   4.343
10310W        W78673  21.192  30.510  14.396
10311W        W78674  40.495  18.715   3.832
10312W        W78675  23.033  36.902   1.731
10313W        W78676  35.945  41.923  14.358
10314W        W78677  10.144  12.814  11.917
10315W        W78678  35.892  16.237   0.336
10316W        W78679  17.674  33.981  14.795
10317W        W78680  17.770  19.078   4.718
10318W        W78681  42.509  31.566  11.080
10319W        W78682   5.310  22.632   3.759
10320W        W78683   3.281  15.116   2.807
10321W        W78684  26.016  38.981   1.349
10322W        W78685   6.902  25.084   1.871
10323W        W78686   4.398  28.502   4.666
10324W        W78687   6.852  20.632  13.884
10325W        W78688   2.818   4.326  11.492
10326W        W78689   2.373  40.896  12.402
10327W        W78690  31.606   5.326   2.766
10328W        W78691  17.303  12.831   3.208
10329W        W78692  13.191   5.198   3.785
10330W        W78693  14.755  22.018  13.504
10331W        W78694  37.553  39.039   5.131
10332W        W78695  38.913  32.535  12.094
10333W        W78696  31.070   8.307  13.424
10334W        W78697  39.838  12.148  11.501
10335W        W78698  16.698   6.789   2.882
10336W        W78699  41.934  33.056  13.904
10337W        W78700  35.533  31.645   0.813
10338W        W78701  25.136  22.223  13.386
10339W        W78702  42.869  21.032  13.313
10340W        W78703  29.495  18.061   2.193
10341W        W78704  29.438  39.864   9.935
10342W        W78705  14.164  44.975  14.377
10343W        W78706  14.686  39.816   1.271
10344W        W78707  25.523  39.829  13.029
10345W        W78708   0.838  34.568   2.261
10346W        W78709  27.564  43.334   0.310
10347W        W78710  36.927  10.336   2.403
10348W        W78711  19.069   1.874   3.265
10349W        W78712  38.511  26.645  11.394
10350W        W78713  19.051  41.375  14.798
10351W        W78714  17.137   6.347  14.516
10352W        W78715  25.048   8.334  14.488
10353W        W78716  15.668   2.909   3.276
10354W        W78717  26.472   8.794   4.222
10355W        W78718  25.551  17.618   4.311
10356W        W78719  16.205  24.720   0.414
10357W        W78720   9.379   3.762  10.600
10358W        W78721  11.723  35.900  14.376
10359W        W78722   4.430   6.872  12.884
10360W        W78723  13.802  31.573   4.208
10361W        W78724  40.824  13.188  13.867
10362W        W78725  29.627  24.044  11.558
10363W        W78726   6.745  40.382  14.802
10364W        W78727   1.457  32.944   1.359
10365W        W78728  13.653  17.293   0.805
10366W        W78729   9.706  15.223  10.423
10367W        W78730  14.651  27.449  12.534
10368W        W78731  35.387   1.471   3.201
10369W        W78732  31.471  13.802  12.537
10370W        W78733  29.525   3.268  14.435
10371W        W78734  34.046  26.139  12.465
10372W        W78735  42.926   9.218   2.228
10373W        W78736  36.026  26.501  11.549
10374W        W78737  22.538   3.733  11.030
10375W        W78738  39.377  18.556  10.546
10376W        W78739  19.260   5.319   2.266
10377W        W78740  14.644   7.183   0.357
10378W        W78741  37.869  10.652  13.454
10379W        W78742   1.928   0.360   2.259
10380W        W78743  11.717  17.226   0.470
10381W        W78744  41.985  17.141   1.290
10382W        W78745   0.764  40.548  11.015
10383W        W78746  16.654   2.326   4.350
10384W        W78747   6.812  44.417   0.399
10385W        W78748   6.904  31.932   9.926
10386W        W78749  29.053   5.804  12.830
10387W        W78750  29.439   4.212  13.063
10388W        W78751  37.887  33.898  11.465
10389W        W78752  16.191  23.499   4.786
10390W        W78753  31.997  41.496  13.889
10391W        W78754  35.019   7.803   0.379
10392W        W78755  21.168  37.362  13.475
10393W        W78756  19.780  13.638  10.979
10394W        W78757  22.553  25.136   9.925
10395W        W78758  43.443  17.204   2.662
10396W        W78759  26.201  22.711   1.281
10397W        W78760  16.310  40.820  11.904
10398W        W78761  11.723  28.043   1.378
10399W        W78762   0.395  36.467   1.227
10400W        W78763   3.801   0.971  14.396
10401W        W78764  44.787  23.069  11.607
10402W        W78765   0.258   2.434   4.265
10403W        W78766  14.335  25.119   2.896
10404W        W78767  40.336   1.771  12.530
10405W        W78768  17.304   1.379   2.352
10406W        W78769  34.053   4.403  11.005
10407W        W78770  39.941   0.437  11.918
10408W        W78771  16.589   1.749   1.349
10409W        W78772  19.240  15.327   1.886
10410W        W78773  38.382  23.581  14.407
10411W        W78774  13.659  29.630  10.943
10412W        W78775  25.644   8.170   2.737
10413W        W78776   2.838  10.150  10.424
10414W        W78777  42.477  26.158  14.386
10415W        W78778  43.769  26.011   0.452
10416W        W78779  28.100  43.784  14.327
10417W        W78780  35.008   3.713   2.733
10418W        W78781  28.519   0.916   0.807
10419W        W78782   4.740  35.039  13.355
10420W        W78783  12.622  31.624   3.640
10421W        W78784  20.044  41.041  10.943
10422W        W78785   9.157  14.777  13.375
10423W        W78786  20.664   1.786  10.515
10424W        W78787  39.455  12.284  13.957
10425W        W78788  38.898  18.256  13.008
10426W        W78789   6.308   9.344  10.587
10427W        W78790  15.654   4.283   2.307
10428W        W78791  15.595   4.406   3.828
10429W        W78792  28.597  34.436  11.869
10430W        W78793  26.007   2.784   1.736
10431W        W78794  34.398   0.880  13.499
10432W        W78795  14.641   6.716  14.866
10433W        W78796  44.429  11.793  13.982
10434W        W78797   3.358  18.675  11.519
10435W        W78798  34.991  15.136  12.860
10436W        W78799  13.637   2.465   3.170
10437W        W78800  30.083  44.357  10.982
10438W        W78801  36.560  27.550   3.753
10439W        W78802  43.912  34.991  13.800
10440W        W78803   5.715  14.284  14.913
10441W        W78804   6.204  33.064   2.276
10442W        W78805  36.979  23.142   1.806
10443W        W78806  29.937  11.351   2.902
10444W        W78807   5.724  21.260  14.832
10445W        W78808  42.391  40.487  11.423
10446W        W78809  12.312  21.198   0.458
10447W        W78810   2.840   8.658  12.043
10448W        W78811   5.761  42.800  14.298
10449W        W78812   1.890  39.492  14.355
10450W        W78813  24.203  23.032   4.184
10451W        W78814  33.448  19.185  14.815
10452W        W78815  27.585  25.115   0.790
10453W        W78816  37.564  10.355   0.322
10454W        W78817  27.669   7.281  13.005
10455W        W78818   3.909  17.178  13.962
10456W        W78819  20.110   5.927  12.053
10457W        W78820  44.369   1.835  11.538
10458W        W78821   0.321  22.566  12.431
10459W        W78822  37.549  41.986   0.242
10460W        W78823  28.001  37.918   0.779
10461W        W78824  25.605  32.136   0.458
10462W        W78825  37.368  18.777  13.791
10463W        W78826  13.763  35.425   1.868
10464W        W78827  27.087  35.907  14.974
10465W        W78828  31.024  43.287  14.948
10466W        W78829  36.360  33.078  12.847
10467W        W78830  18.284  41.437  10.506
10468W        W78831  27.165  37.076   2.801
10469W        W78832  10.726  24.990   4.348
10470W        W78833   0.270  29.984  11.520
10471W        W78834  36.057   0.270  12.954
10472W        W78835  37.031  11.763   3.870
10473W        W78836   9.711  36.435   2.787
10474W        W78837  12.188  13.763  14.347
10475W        W78838   5.718   6.306  14.870
10476W        W78839  23.538   2.799   3.295
10477W        W78840  26.551   9.761  14.346
10478W        W78841  16.633  13.708  14.340
10479W        W78842  32.581  44.451  14.445
10480W        W78843  12.674   4.343   4.620
10481W        W78844  20.566   3.904  12.869
10482W        W78845  33.582   3.418   5.264
10483W        W78846  38.012  21.562   3.808
10484W        W78847  20.183   6.380   0.865
10485W        W78848  39.907  29.513   4.628
10486W        W78849   1.927  24.185   3.760
10487W        W78850  32.942  39.029  12.902
10488W        W78851  42.021   3.354   0.829
10489W        W78852  41.011  20.556   1.405
10490W        W78853   9.851  21.645  13.481
10491W        W78854  23.632  35.942   2.300
10492W        W78855  25.688   1.949  10.516
10493W        W78856  37.544  43.844   3.179
10494W        W78857  13.751  19.231   0.255
10495W        W78858   1.943  31.075   4.269
10496W        W78859  21.642  31.079  10.555
10497W        W78860  37.991   1.904  12.542
10498W        W78861   3.856  41.480  10.622
10499W        W78862  36.458  42.938  12.417
10500W        W78863  33.493  10.291  11.462
10501W        W78864  39.930  13.777   2.334
10502W        W78865  39.498  12.275  11.953
10503W        W78866  12.209  37.927  13.897
10504W        W78867  21.043  31.923  10.563
10505W        W78868   2.398  41.852   1.450
10506W        W78869  37.070  30.494   3.261
10507W        W78870   0.273  23.230  14.875
10508W        W78871  38.923  41.392  14.283
10509W        W78872  20.623  36.001   0.439
10510W        W78873  15.824  34.601   2.829
10511W        W78874   6.682   3.412   4.733
10512W        W78875   2.421  24.024  11.878
10513W        W78876  15.589  20.564   1.320
10514W        W78877  34.044   6.191  14.321
10515W        W78878  29.656  43.388   0.455
10516W        W78879  32.552  41.532  11.525
10517W        W78880  23.022   1.816  14.287
10518W        W78881  37.852  21.602   1.918
10519W        W78882  11.712   6.412   1.786
10520W        W78883  23.531  44.933   4.249
10521W        W78884  28.053  28.548   1.850
10522W        W78885  42.376  14.692   4.613
10523W        W78886  44.432  39.321   1.236
10524W        W78887  12.275  35.552   4.836
10525W        W78888   3.726  40.921   3.369
10526W        W78889  30.470  34.500   1.246
10527W        W78890  24.989  26.456  13.355
10528W        W78891  25.602  42.344  11.563
10529W        W78892  22.096  18.055  14.857
10530W        W78893  16.190   8.683   3.296
10531W        W78894  31.028  44.951   9.474
10532W        W78895  16.784   3.929   2.798
10533W        W78896  13.254  15.712  12.453
10534W        W78897  44.756   0.806   3.150
10535W        W78898   8.862  28.022   3.847
10536W        W78899  10.375  40.397  12.054
10537W        W78900  40.046   0.327   2.186
10538W        W78901  38.327  39.323   2.408
10539W        W78902   0.987  10.820  12.480
10540W        W78903  10.360   1.803   3.224
10541W        W78904   2.291   0.822   5.176
10542W        W78905   7.404   4.897  10.995
10543W        W78906  40.887  38.465   4.115
10544W        W78907  35.852  35.383   0.336
10545W        W78908  32.625  28.071  12.915
10546W        W78909  35.393  19.543  13.496
10547W        W78910  29.560  11.823  11.920
10548W        W78911  37.484  43.966  11.890
10549W        W78912   5.353  21.656  14.843
10550W        W78913  20.121  34.017   3.188
10551W        W78914  11.332  40.934   0.364
10552W        W78915   0.787  29.985   3.807
10553W        W78916  29.658  23.135  11.923
10554W        W78917  41.998  35.458   3.260
10555W        W78918  13.303  39.933   1.876
10556W        W78919   9.683  32.538   3.382
10557W        W78920   5.404  30.437   1.364
10558W        W78921  34.079  20.172  11.127
10559W        W78922  25.968   5.929  13.027
10560W        W78923  23.513  14.232  13.057
10561W        W78924  16.194  28.583  13.799
10562W        W78925  21.743  37.567  12.905
10563W        W78926   7.775  44.900   4.795
10564W        W78927  12.736  42.032   4.276
10565W        W78928  14.109  42.398   2.339
10566W        W78929   5.723  29.595   2.849
10567W        W78930  20.680   5.383  10.953
10568W        W78931  29.921  28.580   1.917
10569W        W78932  36.366  31.458  11.501
10570W        W78933  32.904  33.126   0.330
10571W        W78934  28.148   3.940  11.931
10572W        W78935  10.255  14.748  14.378
10573W        W78936  12.174  29.938  12.847
10574W        W78937  18.200  35.435   4.639
10575W        W78938  19.580  25.551  14.363
10576W        W78939  21.031  13.655   1.880
10577W        W78940   9.172  11.751   3.332
10578W        W78941  20.661   4.324   3.293
10579W        W78942   5.364  42.869   1.309
10580W        W78943   4.281  10.830   2.686
10581W        W78944   2.822  25.067   5.179
10582W        W78945  43.879  11.220  14.949
10583W        W78946  18.675   1.925  10.602
10584W        W78947   8.870  27.099  11.581
10585W        W78948  16.313  44.972  14.283
10586W        W78949  36.964   8.695  13.893
10587W        W78950  29.470  15.206   1.704
10588W        W78951   1.464  12.688  12.082
10589W        W78952  16.236   9.355  12.461
10590W        W78953  39.868  18.088   4.241
10591W        W78954   6.740   0.861  14.417
10592W        W78955  43.822  42.467   3.297
10593W        W78956   1.348   9.252   4.238
10594W        W78957   3.291  41.917   1.446
10595W        W78958  21.553   3.391   4.346
10596W        W78959  39.901  31.105  10.591
10597W        W78960  27.176  14.830  10.640
10598W        W78961  10.633  17.733   2.263
10599W        W78962  32.888  40.425   2.881
10600W        W78963  10.315  25.558  14.821
10601W        W78964   0.446  18.620  11.077
10602W        W78965  31.516   7.372  13.348
10603W        W78966  13.786  21.117  13.919
10604W        W78967  35.855  25.994   0.793
10605W        W78968  30.025   5.193   4.798
10606W        W78969  24.693  17.157   2.817
10607W        W78970   5.925  25.126   1.755
10608W        W78971   1.911  19.766  13.972
10609W        W78972  13.698  31.117   3.715
10610W        W78973  35.988  31.907  12.896
10611W        W78974  31.104   8.367  13.917
10612W        W78975  27.074  22.227   2.870
10613W        W78976  37.569  23.588   0.854
10614W        W78977   6.254  18.158  14.920
10615W        W78978   9.807  11.855   1.310
10616W        W78979  13.709  16.210   3.331
10617W        W78980  13.223  14.216   1.780
10618W        W78981  36.995  37.335  12.852
10619W        W78982  35.857  42.405   0.367
10620W        W78983  22.100  23.527  12.398
10621W        W78984  16.162   7.872  10.407
10622W        W78985  34.992  18.226   1.777
10623W        W78986  16.771  34.940  13.965
10624W        W78987  35.556   3.445   2.228
10625W        W78988  40.393  40.370   0.949
10626W        W78989  40.934  21.591  11.122
10627W        W78990  30.500  21.712   2.890
10628W        W78991  38.569  15.791  10.910
10629W        W78992  39.811  39.880  13.474
10630W        W78993  15.303   0.749  11.883
10631W        W78994  21.135  21.622   4.833
10632W        W78995  39.559  10.180   5.152
10633W        W78996  15.756  29.611  13.416
10634W        W78997  35.382  26.598   2.290
10635W        W78998  40.839  13.284  13.018
10636W        W78999  26.508  28.451  13.839
10637W        W79000  28.151  26.630  11.945
10638W        W79001  36.874   2.425  10.456
10639W        W79002  11.637  31.648  14.356
10640W        W79003  33.383  11.831  10.521
10641W        W79004   9.844   4.848  11.547
10642W        W79005  10.656  44.443  11.938
10643W        W79006  20.739  31.454   2.834
10644W        W79007  40.333  25.004   3.274
10645W        W79008  32.978  31.447  12.574
10646W        W79009  29.134  38.470   1.704
10647W        W79010  24.174   5.862   4.254
10648W        W79011  14.161   9.716  11.521
10649W        W79012  18.196  37.955   1.396
10650W        W79013  18.105  18.634  13.826
10651W        W79014  26.035  15.086  12.576
10652W        W79015  25.102   0.907   3.788
10653W        W79016  27.162   1.924   2.669
10654W        W79017   2.278  28.952  10.420
10655W        W79018  12.131  22.608   3.676
10656W        W79019  32.889  24.517  14.405
10657W        W79020  18.630   6.862  12.519
10658W        W79021  18.785  15.709  10.000
10659W        W79022  41.428  11.313   4.304
10660W        W79023  42.982  29.040   2.368
10661W        W79024  37.892  22.634  14.927
10662W        W79025   2.934  15.697   3.669
10663W        W79026  22.528  44.436  13.016
10664W        W79027   9.156  11.352   1.226
10665W        W79028   7.711  32.070  14.897
10666W        W79029  14.145  27.013  12.939
10667W        W79030   0.443  17.601   0.265
10668W        W79031  43.474  38.960   5.131
10669W        W79032  37.906  28.161   3.384
10670W        W79033  12.789  30.950  14.434
10671W        W79034  34.073  35.367   0.282
10672W        W79035  33.970  25.103  11.544
10673W        W79036  31.000  23.668  10.441
10674W        W79037  17.212  10.749  10.498
10675W        W79038  27.632  26.691  11.562
10676W        W79039  15.219  43.781   1.418
10677W        W79040  10.810  23.999   3.279
10678W        W79041   4.843  40.877  11.444
10679W        W79042  19.727   4.245  13.803
10680W        W79043  30.041  42.933  12.537
10681W        W79044  11.702  42.510  14.468
10682W        W79045  10.258  18.079   4.270
10683W        W79046   1.379  42.959  10.415
10684W        W79047  39.012  11.646  14.853
10685W        W79048  37.935  36.589   4.655
10686W        W79049  24.495  37.033   4.824
10687W        W79050   4.771  10.636   2.315
10688W        W79051  42.882  27.993  14.390
10689W        W79052  16.668  43.496  14.364
10690W        W79053  43.787  35.871   2.699
10691W        W79054  14.106  36.429  12.957
10692W        W79055  37.544  16.783   0.257
10693W        W79056  28.186  28.982   3.723
10694W        W79057  36.442   3.249  11.601
10695W        W79058  36.497  20.225   0.339
10696W        W79059  34.507  27.075   4.707
10697W        W79060   0.469   9.334  14.006
10698W        W79061  33.398  11.350   3.146
10699W        W79062  29.486  18.648  13.011
10700W        W79063  10.664  16.694  13.372
10701W        W79064  28.578  12.168   2.801
10702W        W79065  24.653  42.824   2.871
10703W        W79066  35.999  27.062  11.001
10704W        W79067   4.412  30.418  13.952
10705W        W79068  24.208  17.273  11.422
10706W        W79069   8.873  16.097   3.716
10707W        W79070   2.337  12.250   4.680
10708W        W79071  28.439  24.551   2.238
10709W        W79072  28.609  33.520  13.040
10710W        W79073  18.099   2.830   4.240
10711W        W79074  10.192   3.946   0.443
10712W        W79075  25.565  28.079  13.858
10713W        W79076  30.149  26.068   1.296
10714W        W79077   2.814  26.997  13.859
10715W        W79078   4.372  26.205   2.868
10716W        W79079  15.181  16.253   0.781
10717W        W79080  17.270  14.623  12.495
10718W        W79081  27.580  40.489   1.715
10719W        W79082   1.312   1.253   2.681
10720W        W79083   8.375   4.924   4.834
10721W        W79084  20.601  23.071  12.911
10722W        W79085  25.539  21.259   4.126
10723W        W79086  34.575  36.979  13.426
10724W        W79087  35.376   8.669  11.868
10725W        W79088  25.524   1.849   2.287
10726W        W79089  41.899  17.245   4.317
10727W        W79090  39.536   6.880   2.691
10728W        W79091  10.832  38.998   1.386
10729W        W79092  44.964  16.663  14.761
10730W        W79093  43.949  27.556  11.037
10731W        W79094   9.373   6.409   1.329
10732W        W79095  15.790  22.533   2.204
10733W        W79096  44.776  21.114   3.651
10734W        W79097  11.223  17.156   1.387
10735W        W79098  38.054   0.349   1.276
10736W        W79099   7.195  26.666  12.846
10737W        W79100   7.785  40.331   3.293
10738W        W79101  34.396  24.589   3.822
10739W        W79102  18.215   7.354   0.823
10740W        W79103   9.288  10.700   0.847
10741W        W79104  18.186   3.713   2.209
10742W        W79105  11.202  21.718   1.450
10743W        W79106  38.393  16.073  11.998
10744W        W79107  16.586   4.711   1.891
10745W        W79108   3.910  43.771   4.164
10746W        W79109  17.661  29.550   1.763
10747W        W79110  43.863  11.353   2.684
10748W        W79111   6.856  29.069  14.370
10749W        W79112  20.682  14.157  12.834
10750W        W79113  10.658  23.236   1.231
10751W        W79114  44.755  15.164  13.956
10752W        W79115   4.832  19.551   3.184
10753W        W79116   2.274  43.484   3.805
10754W        W79117  28.061  15.579   3.860
10755W        W79118  11.725   7.376  10.628
10756W        W79119   7.862  34.428  13.449
10757W        W79120  42.945   8.160  14.506
10758W        W79121  18.204  28.974   3.329
10759W        W79122  43.507  29.536   3.667
10760W        W79123   7.764  26.024  11.108
10761W        W79124  30.026  31.444   2.738
10762W        W79125  44.261  24.124   1.872
10763W        W79126  16.759  18.278   3.641
10764W        W79127  42.485  20.208  12.052
10765W        W79128  44.330  28.130  13.038
10766W        W79129  41.400  18.597  12.830
10767W        W79130   4.289  25.625   4.782
10768W        W79131   6.347   9.824  10.529
10769W        W79132  25.565  37.995   2.329
10770W        W79133  16.652   4.723  14.872
10771W        W79134  21.710  30.978  11.082
10772W        W79135  33.079  10.265  10.159
10773W        W79136  40.940   9.375  12.479
10774W        W79137  30.549   6.306  12.376
10775W        W79138  15.704  11.821   1.715
10776W        W79139  11.868  39.888  14.872
10777W        W79140  37.454  20.150   2.372
10778W        W79141   8.841  11.318   3.795
10779W        W79142  22.586  18.277  11.926
10780W        W79143  40.547  34.035   4.281
10781W        W79144   5.434   7.209   5.254
10782W        W79145   2.774   0.275   0.845
10783W        W79146  14.207  36.903   4.684
10784W        W79147  16.713   6.215   3.653
10785W        W79148  41.360  39.543   3.770
10786W        W79149  39.491   8.703  13.521
10787W        W79150  18.680  44.850   0.922
10788W        W79151  34.470  22.073   1.863
10789W        W79152   2.865  19.250   4.790
10790W        W79153  25.533  42.008   1.920
10791W        W79154  32.972  29.426   0.948
10792W        W79155  39.499  26.105   3.230
10793W        W79156  40.453   9.389   0.473
10794W        W79157  34.889  17.560  11.053
10795W        W79158  16.590  35.917   4.698
10796W        W79159  33.442  32.449   3.378
10797W        W79160  19.135  41.370  12.458
10798W        W79161  14.592  32.423  11.578
10799W        W79162  14.615  27.174  10.411
10800W        W79163  43.945  18.275   3.768
10801W        W79164   8.163  17.274  12.571
10802W        W79165  40.468  35.462  12.440
10803W        W79166   2.829  22.131  13.416
10804W        W79167  21.741  11.359   0.386
10805W        W79168  22.021  41.394   3.825
10806W        W79169  40.431  17.107   2.290
10807W        W79170   0.746  30.601   4.279
10808W        W79171  35.368  25.128   2.283
10809W        W79172  42.956  28.012   4.115
10810W        W79173   4.757  40.386   0.405
10811W        W79174   0.440  42.821   4.652
10812W        W79175   6.230   4.852  14.317
10813W        W79176  10.201  12.220   4.834
10814W        W79177  40.949  41.011   0.739
10815W        W79178  17.757  18.594   0.776
10816W        W79179  29.117  32.512  11.573
10817W        W79180  12.724  29.428  13.807
10818W        W79181  25.534  36.492   2.379
10819W        W79182   4.314   6.253   1.913
10820W        W79183  24.025  13.791  11.869
10821W        W79184   6.394  26.584   2.686
10822W        W79185   3.822  31.476  11.579
10823W        W79186  40.436  27.948  11.987
10824W        W79187  17.792  29.584  14.853
10825W        W79188  15.187  36.426   3.641
10826W        W79189  10.683   7.738  13.360
10827W        W79190  23.229  39.484  12.373
10828W        W79191  27.967  22.687  11.484
10829W        W79192  43.449  36.469   5.166
10830W        W79193  33.433  25.636   3.297
10831W        W79194  21.146  34.446   9.957
10832W        W79195  42.324  25.481  13.918
10833W        W79196  36.882   5.707  10.994
10834W        W79197  35.426   9.739  10.565
10835W        W79198  19.092  17.285   3.732
10836W        W79199  37.490  16.696  11.483
10837W        W79200   0.921  37.534  10.468
10838W        W79201  36.351   9.683   0.377
10839W        W79202  29.144  29.103   1.326
10840W        W79203   0.427  40.958  11.499
10841W        W79204  42.988  25.559   0.317
10842W        W79205  29.061  25.125   2.698
10843W        W79206  33.112  18.689  13.872
10844W        W79207  11.309  39.024   1.406
10845W        W79208  19.146  15.181   0.288
10846W        W79209  29.996  13.637   3.267
10847W        W79210  17.607  12.654   2.262
10848W        W79211  43.779  27.504  12.949
10849W        W79212  11.813   3.805   4.827
10850W        W79213  42.460  18.778  10.478
10851W        W79214  38.326  22.629   4.628
10852W        W79215  43.315   0.411   3.253
10853W        W79216   3.458  41.802  13.466
10854W        W79217   0.988  43.358  14.488
10855W        W79218  25.030  39.825  10.514
10856W        W79219  38.882  20.661  12.914
10857W        W79220   7.228  11.660   0.249
10858W        W79221  43.912   7.781   3.771
10859W        W79222  39.968   9.769  10.904
10860W        W79223  25.547   6.399  12.491
10861W        W79224  27.172  41.422  11.896
10862W        W79225  26.651  19.259  14.412
10863W        W79226   4.407  44.474   4.814
10864W        W79227  30.919   4.913   0.836
10865W        W79228  43.410  26.037  11.580
10866W        W79229  20.708  31.637  14.902
10867W        W79230  19.281   6.744  14.960
10868W        W79231  27.448  12.830   2.243
10869W        W79232   8.189  14.727   2.787
10870W        W79233  10.334   9.870  10.588
10871W        W79234  30.485  14.265  12.447
10872W        W79235  29.042  15.083   3.780
10873W        W79236  27.659  17.269   2.191
10874W        W79237  41.821  31.036   3.250
10875W        W79238   2.422  32.924   0.851
10876W        W79239  22.515  31.557  10.053
10877W        W79240  24.059  17.649  14.511
10878W        W79241  43.932  10.314   0.750
10879W        W79242  40.968  32.085   1.249
10880W        W79243  28.140  44.438   2.902
10881W        W79244  38.541  33.918   3.318
10882W        W79245  31.551  40.467  13.460
10883W        W79246  30.448  11.214   0.369
10884W        W79247  39.992  23.708  10.575
10885W        W79248   1.791  30.121  13.520
10886W        W79249  17.592  18.619   1.367
10887W        W79250  24.684  25.500  14.394
10888W        W79251  14.175  29.616  14.278
10889W        W79252  38.053  14.675  12.900
10890W        W79253  28.976   8.768  13.885
10891W        W79254   3.832   6.859   0.865
10892W        W79255  15.787  32.001  14.918
10893W        W79256  24.663  15.261   0.443
10894W        W79257   1.393  44.342  14.872
10895W        W79258  29.062  28.081  10.075
10896W        W79259  30.164   1.858  11.122
10897W        W79260  17.218  27.596  10.475
10898W        W79261   3.745  22.721   2.852
10899W        W79262  39.317  21.757  12.885
10900W        W79263  42.431  19.074  13.909
10901W        W79264  25.018  24.203  11.543
10902W        W79265  36.564  42.864  12.086
10903W        W79266  33.391  20.073   2.722
10904W        W79267  12.805  15.254  11.558
10905W        W79268   2.468  27.615  14.997
10906W        W79269  14.786  30.613  14.437
10907W        W79270  20.104   0.911  14.324
10908W        W79271  18.100  41.351   9.992
10909W        W79272  22.229  10.809  11.896
10910W        W79273  39.559   3.264  11.905
10911W        W79274  32.890   1.349  11.094
10912W        W79275  13.639   9.301   0.268
10913W        W79276  23.994  20.170   1.795
10914W        W79277  39.391   7.304  14.392
10915W        W79278   4.400  34.422   3.848
10916W        W79279  29.004   3.341   0.746
10917W        W79280  21.057   9.152   2.234
10918W        W79281  19.703  43.318   3.369
10919W        W79282  38.571  22.694   4.339
10920W        W79283   2.903  27.070  11.904
10921W        W79284  27.573  39.370  11.958
10922W        W79285  16.646   2.391   2.733
10923W        W79286  13.669  21.622  12.031
10924W        W79287  17.254   6.272   1.441
10925W        W79288   0.450   3.829   2.205
10926W        W79289   1.345  18.066  12.378
10927W        W79290   2.882  29.491  10.605
10928W        W79291  23.636  21.597   3.188
10929W        W79292   4.853   8.301   4.728
10930W        W79293   5.727  21.159   4.173
10931W        W79294  28.103  32.404   3.835
10932W        W79295   5.260   1.425   0.314
10933W        W79296  38.421  28.076   3.689
10934W        W79297  15.327  42.391   2.889
10935W        W79298  42.977  11.133   0.421
10936W        W79299  18.254  32.980   4.654
10937W        W79300  40.385   9.694  10.912
10938W        W79301  10.682  43.422   3.698
10939W        W79302  40.950   9.764  14.439
10940W        W79303  30.965  16.149  11.858
10941W        W79304  22.592  29.587   3.789
10942W        W79305  11.758  28.618   2.762
10943W        W79306  35.566  23.042   1.884
10944W        W79307  22.052  21.751   3.327
10945W        W79308  36.080  44.863   1.426
10946W        W79309  20.059  32.076   0.905
10947W        W79310  15.134  35.501   3.716
10948W        W79311  41.862  24.070  10.909
10949W        W79312  37.940  15.755  13.924
10950W        W79313  11.848  27.129  14.867
10951W        W79314  11.662   5.329   2.185
10952W        W79315   5.852  13.701   1.713
10953W        W79316  17.176   6.683  14.992
10954W        W79317   9.847  26.636   4.704
10955W        W79318  28.602   2.847   1.256
10956W        W79319  33.939  18.142  10.488
10957W        W79320   8.698  25.689   0.765
10958W        W79321  20.058  34.576  11.051
10959W        W79322   5.370  36.068   2.865
10960W        W79323  27.630   9.802   3.185
10961W        W79324  18.272  26.109   4.713
10962W        W79325  17.252  22.171   1.337
10963W        W79326   6.892   6.243   0.285
10964W        W79327  38.353   1.374   4.673
10965W        W79328  11.813  20.163  11.571
10966W        W79329  32.522  23.140   4.340
10967W        W79330   9.188  36.547  12.382
10968W        W79331   1.452   8.314  14.301
10969W        W79332  25.022  40.924  14.495
10970W        W79333   9.244   0.934   1.763
10971W        W79334   7.284   5.348  10.942
10972W        W79335  42.970  29.927   3.832
10973W        W79336   8.659   3.217  10.458
10974W        W79337  12.309  19.212  11.077
10975W        W79338   1.974  27.064   2.329
10976W        W79339  36.850   1.380  11.399
10977W        W79340  43.269  33.514  14.888
10978W        W79341  17.726  32.925  13.353
10979W        W79342  15.644  37.555   4.334
10980W        W79343  28.575  41.466  10.409
10981W        W79344  37.454  31.564  12.975
10982W        W79345  25.011   9.341   2.771
10983W        W79346  22.081   3.787   4.164
10984W        W79347   3.313  28.520   0.899
10985W        W79348   1.905  43.498  12.935
10986W        W79349  35.594  12.209  14.842
10987W        W79350  10.724   6.286  11.960
10988W        W79351  23.637  24.644  10.980
10989W        W79352  42.403   0.785   3.263
10990W        W79353  44.947  20.270  10.954
10991W        W79354  36.530   3.880   4.319
10992W        W79355  19.661   3.328  12.873
10993W        W79356  33.553  20.765  13.387
10994W        W79357  12.836   8.336   0.243
10995W        W79358  16.244  26.530   0.788
10996W        W79359  32.106  28.499   3.252
10997W        W79360  39.943   8.745  14.878
10998W        W79361  13.831   8.684  13.948
10999W        W79362  14.216   9.360   3.232
11000W        W79363  33.110  41.939   4.640
11001W        W79364  24.545  25.974   1.328
11002W        W79365  36.445  10.666  12.435
11003W        W79366  23.584  12.629   2.338
11004W        W79367   0.263   3.747   4.678
11005W        W79368  36.063  16.151  12.437
11006W        W79369  29.449  44.988  11.563
11007W        W79370  42.012   2.346   4.262
11008W        W79371   3.830   9.859  14.988
11009W        W79372  28.669  28.459  10.892
11010W        W79373  24.525  20.244   4.207
11011W        W79374  43.790  21.146   4.270
11012W        W79375   0.772   5.297   0.394
11013W        W79376  20.065  11.772  12.929
11014W        W79377  36.512  10.305  14.463
11015W        W79378  29.641  35.079   0.335
11016W        W79379   7.252   2.783  11.981
11017W        W79380  12.847  43.503  10.497
11018W        W79381   8.243  44.464  14.888
11019W        W79382  25.978  34.041  14.759
11020W        W79383  20.158  42.975  10.087
11021W        W79384  14.601  33.102   3.269
11022W        W79385  31.027  31.597  14.782
11023W        W79386  13.823  31.974   2.692
11024W        W79387  21.069   0.988   1.399
11025W        W79388  27.128  11.173   3.769
11026W        W79389   1.365  23.086   1.924
11027W        W79390  38.920  17.276  12.007
11028W        W79391  12.641  29.480   4.315
11029W        W79392  12.329  37.036   1.210
11030W        W79393  11.257  25.520   2.835
11031W        W79394  19.087  29.108   4.734
11032W        W79395  30.604  22.657   0.483
11033W        W79396  43.402  15.747   4.667
11034W        W79397  10.793  15.165   0.756
11035W        W79398  21.693  14.203   4.296
11036W        W79399   8.301   1.370  13.476
11037W        W79400   9.782   4.831  10.551
11038W        W79401  31.526  36.410  13.517
11039W        W79402  25.702  26.615  12.470
11040W        W79403  10.662  26.080   0.756
11041W        W79404  19.210  17.259  11.592
11042W        W79405  35.456  42.826  14.278
11043W        W79406  25.116   8.394  14.848
11044W        W79407   7.817  37.449   1.703
11045W        W79408  41.326  34.920  11.125
11046W        W79409  32.052   6.833  11.884
11047W        W79410  20.665  27.587  11.542
11048W        W79411   9.870  13.251  13.001
11049W        W79412  17.080  36.471  14.897
11050W        W79413   4.268  32.501  14.854
11051W        W79414  16.108   7.705  12.490
11052W        W79415  30.464  37.840   1.714
11053W        W79416  41.019  21.704  14.842
11054W        W79417  18.738  13.735  11.094
11055W        W79418  10.816   6.752  12.409
11056W        W79419  24.183  25.641   3.776
11057W        W79420   5.277  27.652  11.105
11058W        W79421  18.724  22.046   0.246
11059W        W79422  36.383   9.262  10.986
11060W        W79423  18.228   3.737  13.520
11061W        W79424  15.128  14.111   0.340
11062W        W79425  37.365  15.304   4.810
11063W        W79426  37.431  18.730   4.130
11064W        W79427  14.095  12.820   3.308
11065W        W79428  41.860   0.353  13.952
11066W        W79429  30.097  32.955  10.412
11067W        W79430  38.438   4.892  11.489
11068W        W79431  22.583  23.642  12.003
11069W        W79432  30.044  19.660  10.424
11070W        W79433   9.325  13.832   0.770
11071W        W79434  14.707  28.985   4.831
11072W        W79435   9.722  35.989  14.768
11073W        W79436  43.285  15.294   1.872
11074W        W79437  44.329  29.524  11.990
11075W        W79438   6.779  31.950   1.774
11076W        W79439  29.630  13.683   2.184
11077W        W79440   7.185  37.002  14.413
11078W        W79441   4.751  43.989  11.876
11079W        W79442  11.744   9.645   3.229
11080W        W79443  43.418   9.780  11.376
11081W        W79444  19.643  42.478   2.200
11082W        W79445  37.842  30.979  11.531
11083W        W79446  37.953   5.206   0.787
11084W        W79447  38.373   9.183  14.492
11085W        W79448   5.286  40.004  14.370
11086W        W79449   3.417  15.195   2.372
11087W        W79450  21.031   2.253   2.275
11088W        W79451   0.933  38.327   4.684
11089W        W79452  24.514  14.671  11.058
11090W        W79453  16.732  12.780   1.280
11091W        W79454  32.472  33.048   1.820
11092W        W79455  35.583  28.066  10.533
11093W        W79456  24.669  39.497   4.759
11094W        W79457  29.953   4.934   4.249
11095W        W79458   3.924   9.769   4.783
11096W        W79459  37.830  17.216  12.497
11097W        W79460  42.398   0.987  11.948
11098W        W79461  43.000  42.492   3.263
11099W        W79462   6.267  26.053   0.402
11100W        W79463  10.708  43.501   0.750
11101W        W79464  10.722   6.822   0.251
11102W        W79465   2.781  11.663   3.238
11103W        W79466  19.246  36.016   1.889
11104W        W79467  34.991  40.951   3.254
11105W        W79468   8.369  20.620  13.003
11106W        W79469  40.305  31.069   0.802
11107W        W79470  15.694  33.117   0.873
11108W        W79471  25.139  12.760  11.870
11109W        W79472  27.488  40.365  13.456
11110W        W79473  20.156  13.293  11.110
11111W        W79474  44.892  42.297  13.541
11112W        W79475  21.058  35.944   4.786
11113W        W79476  21.698  30.492   3.712
11114W        W79477  34.864  11.131   1.879
11115W        W79478  13.132  29.508   0.787
11116W        W79479  14.744  21.132   0.946
11117W        W79480  20.146  42.398  11.486
11118W        W79481  42.282  26.975   4.138
11119W        W79482   4.708  26.050  14.882
11120W        W79483   5.304  14.815   0.779
11121W        W79484  17.686  29.137   2.268
11122W        W79485   5.862  39.405   2.747
11123W        W79486   0.386  38.900   3.795
11124W        W79487   4.749   3.848  11.036
11125W        W79488  27.025   5.801  14.897
11126W        W79489  20.574  13.839   2.343
11127W        W79490  13.165   5.423  10.542
11128W        W79491  11.758  23.231  11.071
11129W        W79492   9.758  19.274  13.528
11130W        W79493  33.926   1.446  13.523
11131W        W79494   6.730  27.957   1.760
11132W        W79495  34.450   9.200  12.469
11133W        W79496  31.059  28.461  11.446
11134W        W79497   9.772  15.199  14.397
11135W        W79498   5.736   4.296  13.794
11136W        W79499  23.557   8.765  12.365
11137W        W79500  40.333  10.822  10.998
11138W        W79501  11.269  43.447   4.207
11139W        W79502  14.310  13.207   1.858
11140W        W79503  16.274   1.810   0.479
11141W        W79504  33.939  26.645  13.466
11142W        W79505  38.986   8.687   4.180
11143W        W79506  25.626  19.659   3.832
11144W        W79507  44.489  19.672  10.079
11145W        W79508  20.066  37.417   4.667
11146W        W79509  43.462   9.281   0.403
11147W        W79510   7.275  29.153   2.853
11148W        W79511  16.089   6.244   9.945
11149W        W79512  26.464  16.241   4.127
11150W        W79513  22.198  14.671  13.064
11151W        W79514  27.186   7.713  12.560
11152W        W79515  16.608  18.265   5.264
11153W        W79516   6.217  29.015   0.863
11154W        W79517  15.785   2.833   4.239
11155W        W79518  36.079  22.528   4.706
11156W        W79519  17.759   5.215  11.096
11157W        W79520   6.766  19.724   1.234
11158W        W79521  18.272   5.854  11.594
11159W        W79522  22.683  11.723  12.023
11160W        W79523  29.648   3.768   4.344
11161W        W79524  25.553  43.860  10.912
11162W        W79525  40.015   4.797   3.725
11163W        W79526   9.347  34.106   2.861
11164W        W79527  32.028  41.467   1.421
11165W        W79528  37.847   5.834   2.289
11166W        W79529   5.778  44.266   3.382
11167W        W79530  41.302  17.751   2.225
11168W        W79531  13.661  35.588   2.199
11169W        W79532  19.671  39.509  11.449
11170W        W79533  17.071  42.370   2.853
11171W        W79534  26.054  18.692  14.430
11172W        W79535  37.580   6.918  11.451
11173W        W79536   6.747  38.379  11.585
11174W        W79537  39.007  32.112  11.401
11175W        W79538  10.236  19.203   1.829
11176W        W79539  31.540   0.264  10.019
11177W        W79540  25.475  31.064   2.733
11178W        W79541  22.578  30.606   1.277
11179W        W79542  31.974  32.631  13.804
11180W        W79543  37.872   6.799   1.231
11181W        W79544  28.099  20.112   2.763
11182W        W79545  26.155  10.171   0.410
11183W        W79546   9.845  24.541   4.285
11184W        W79547  42.390   7.303   3.652
11185W        W79548  28.516  44.981   3.721
11186W        W79549  15.796  11.728  12.563
11187W        W79550  31.498  38.538   0.458
11188W        W79551  43.273  17.775  14.498
11189W        W79552  24.665  42.495   0.854
11190W        W79553  41.900  42.804   5.206
11191W        W79554  31.455  30.479   1.359
11192W        W79555   3.397  25.046  10.516
11193W        W79556  43.808   9.357  14.867
11194W        W79557   4.851  21.697   3.845
11195W        W79558  32.544  28.133   0.291
11196W        W79559   3.871  10.184   2.817
11197W        W79560  28.484   9.661  13.444
11198W        W79561  39.345  10.352  10.990
11199W        W79562  21.100   2.755  13.840
11200W        W79563   9.846   9.372  12.034
11201W        W79564   3.354   7.782   3.238
11202W        W79565  27.186   8.816  10.549
11203W        W79566   5.258  39.531   0.933
11204W        W79567  12.355  26.590   0.403
11205W        W79568  29.496  27.157   3.675
11206W        W79569  35.994  21.581  13.803
11207W        W79570  29.609  34.931   5.266
11208W        W79571  26.672  18.656  13.870
11209W        W79572  20.656  16.095   1.776
11210W        W79573  31.559  27.054   0.340
11211W        W79574   3.883  10.833   3.788
11212W        W79575  14.606  15.817   4.799
11213W        W79576  27.460  22.709  14.501
11214W        W79577   3.362  18.592   2.223
11215W        W79578   0.866  25.209   1.272
11216W        W79579  12.290  30.517   2.285
11217W        W79580  21.184  41.434   3.276
11218W        W79581   1.362  24.676   9.591
11219W        W79582  25.972   2.916  13.006
11220W        W79583   7.341  42.832   3.387
11221W        W79584   0.352  25.978   3.810
11222W        W79585  40.827  17.061   4.183
11223W        W79586   2.297  34.937   3.867
11224W        W79587  25.695  41.516   2.299
11225W        W79588  15.319  19.269   0.956
11226W        W79589   9.271   3.293   5.245
11227W        W79590   6.886   0.774   4.149
11228W        W79591   8.805  22.621  14.856
11229W        W79592  40.488  20.597  10.421
11230W        W79593  42.354  14.339  10.937
11231W        W79594   8.799  43.871   0.729
11232W        W79595   6.805  43.982   4.597
11233W        W79596  14.252  44.480  14.020
11234W        W79597  29.004  43.444   4.635
11235W        W79598  27.637  40.953  13.828
11236W        W79599  14.312  39.422  10.474
11237W        W79600  36.005  29.589   2.679
11238W        W79601  35.893   3.878   5.261
11239W        W79602  30.920  27.471   1.269
11240W        W79603  15.233  19.235   5.227
11241W        W79604  19.071  28.601   2.219
11242W        W79605  24.600  34.019   3.826
11243W        W79606  33.449  25.180  14.812
11244W        W79607  44.765  20.124   3.360
11245W        W79608  33.896  18.641   1.788
11246W        W79609  18.269  40.495  12.566
11247W        W79610   3.781  38.070  13.404
11248W        W79611  26.695  15.586  14.349
11249W        W79612  11.356  30.583   1.330
11250W        W79613  26.009  40.848  12.959
11251W        W79614   5.234  44.804   3.310
11252W        W79615  18.101   1.373  11.426
11253W        W79616   5.309  33.462   1.813
11254W        W79617  17.565  20.049  13.480
11255W        W79618  28.635  30.523  11.466
11256W        W79619  17.776  12.642   0.275
11257W        W79620   2.857  28.170   1.809
11258W        W79621  39.490  29.135   4.352
11259W        W79622  17.770   5.716  11.970
11260W        W79623  40.546   6.856  11.599
11261W        W79624  15.132  28.544  14.005
11262W        W79625  27.961   3.748   3.194
11263W        W79626  23.105   6.365   0.955
11264W        W79627   9.853  35.446   2.196
11265W        W79628  27.507  39.379   3.798
11266W        W79629  11.843   5.316  13.495
11267W        W79630  19.072  38.437  10.891
11268W        W79631   7.845  33.943  12.977
11269W        W79632  20.624   6.196   1.832
11270W        W79633   0.947  43.856   0.873
11271W        W79634   7.842  28.142   0.364
11272W        W79635   5.710  37.523   1.853
11273W        W79636   5.826  21.528  10.888
11274W        W79637  35.981   2.347  11.092
11275W        W79638  16.622  13.340  12.943
11276W        W79639  27.528   4.226  12.521
11277W        W79640   0.854   5.776   3.357
11278W        W79641  31.133  16.656  14.382
11279W        W79642  25.509  24.113   0.797
11280W        W79643  29.611  25.520   1.745
11281W        W79644  38.333  19.271  12.432
11282W        W79645  12.275  19.765   3.720
11283W        W79646  13.346  11.745   4.326
11284W        W79647   6.727   3.823   0.925
11285W        W79648  23.494  31.490   4.734
11286W        W79649  18.050  33.929  10.478
11287W        W79650   1.845  33.895  14.470
11288W        W79651   1.832   6.857   0.335
11289W        W79652  12.208   3.263  13.964
11290W        W79653   2.412  43.502  12.381
11291W        W79654  38.526   3.282  11.866
11292W        W79655  27.180   3.285   5.286
11293W        W79656  44.362  41.518   1.442
11294W        W79657  30.006  12.654   1.238
11295W        W79658  31.930  37.546  10.537
11296W        W79659  41.431  40.845  10.534
11297W        W79660  10.215  40.916   0.884
11298W        W79661  27.657  30.502  13.507
11299W        W79662  43.952  10.874   3.729
11300W        W79663   2.384  26.551  11.455
11301W        W79664  17.077  31.532  10.630
11302W        W79665  18.729  27.097  10.504
11303W        W79666  16.813  40.327  11.607
11304W        W79667  30.475  35.095   4.164
11305W        W79668  18.720  14.758  14.880
11306W        W79669  15.283   2.227  11.574
11307W        W79670   1.425   4.856  12.085
11308W        W79671   3.261  29.537   5.109
11309W        W79672   7.388  22.196  14.930
11310W        W79673  18.223  23.512   0.829
11311W        W79674  34.025  19.055   3.302
11312W        W79675  39.012  14.314   3.673
11313W        W79676  23.025  24.999   0.964
11314W        W79677  23.223  15.674  12.095
11315W        W79678  41.326  36.093  12.082
11316W        W79679   2.761  13.773  10.502
11317W        W79680   0.749  44.468  13.976
11318W        W79681  27.034  33.966  14.274
11319W        W79682  23.186  20.654   3.639
11320W        W79683  26.145  35.470   0.421
11321W        W79684  41.843  13.175  10.939
11322W        W79685  14.284  20.265   5.246
11323W        W79686  32.421  44.930  12.573
11324W        W79687  15.249   6.826   4.694
11325W        W79688  35.920  21.673   2.284
11326W        W79689  25.580  39.484   2.417
11327W        W79690  43.473   5.213  12.394
11328W        W79691  20.740  40.888   1.723
11329W        W79692  38.944   9.349   4.258
11330W        W79693  33.876  41.515  11.968
11331W        W79694  38.013  20.225   1.843
11332W        W79695   0.294  30.984   3.153
11333W        W79696  30.649   6.272   2.801
11334W        W79697  27.173  44.445   4.749
11335W        W79698  16.292  15.662   0.417
11336W        W79699  15.156  35.010   1.874
11337W        W79700  12.345  36.354   4.687
11338W        W79701  13.665   3.709   4.281
11339W        W79702  16.288  28.971   3.224
11340W        W79703  33.611  27.614   4.663
11341W        W79704  43.005  10.681   2.220
11342W        W79705  36.927  23.007   2.685
11343W        W79706  34.419   3.773   0.401
11344W        W79707  33.488  27.176   1.368
11345W        W79708   8.699  21.154   3.179
11346W        W79709   2.804  39.457   4.790
11347W        W79710  20.090  41.363   2.214
11348W        W79711  25.055   3.371   3.832
11349W        W79712  35.871  19.157  12.475
11350W        W79713  29.151   7.387  13.948
11351W        W79714  25.574   8.739  14.291
11352W        W79715  37.513  44.776   2.276
11353W        W79716  17.791  32.586   2.873
11354W        W79717  31.100  40.424  10.084
11355W        W79718  42.865  27.453   2.788
11356W        W79719  43.500  36.353   3.284
11357W        W79720   1.320  24.982  13.853
11358W        W79721  24.035  35.855   4.304
11359W        W79722  34.556  31.582  13.319
11360W        W79723  37.562  16.722  12.421
11361W        W79724  13.770   7.172   1.331
11362W        W79725  12.649  18.785  11.427
11363W        W79726  43.276  38.439   5.219
11364W        W79727  40.034  10.710   4.828
11365W        W79728  38.343  14.313   4.214
11366W        W79729  28.014  44.877  10.948
11367W        W79730  42.918   4.710  13.481
11368W        W79731  31.921  16.167   2.384
11369W        W79732  23.628  10.668  12.350
11370W        W79733   3.275  29.065   2.729
11371W        W79734  31.001  26.158   3.695
11372W        W79735  42.499  28.656  11.442
11373W        W79736  25.030  18.123  14.384
11374W        W79737  37.414  42.368   0.886
11375W        W79738   5.723  23.719  13.370
11376W        W79739  13.123   8.255   4.152
11377W        W79740  13.202  19.166  14.861
11378W        W79741  18.087  10.272   0.770
11379W        W79742   9.359  17.094   2.254
11380W        W79743   4.223   8.880  12.868
11381W        W79744  33.986  14.122  13.045
11382W        W79745  30.536  31.898  10.468
11383W        W79746  12.264  37.941   2.712
11384W        W79747  40.326   1.848  10.958
11385W        W79748   3.893  20.626  11.927
11386W        W79749  38.830  12.238  14.472
11387W        W79750   4.286  35.440  12.866
11388W        W79751  32.516   6.805   2.896
11389W        W79752  44.891  23.162   3.182
11390W        W79753  27.628  43.976   3.683
11391W        W79754   6.735  12.632   4.273
11392W        W79755  37.360  40.945  13.457
11393W        W79756   8.657   7.196  12.917
11394W        W79757  43.382  14.597   1.339
11395W        W79758   9.679  34.554  12.978
11396W        W79759   9.216   5.756  11.494
11397W        W79760  16.133  30.551   3.254
11398W        W79761  25.174   2.468   2.387
11399W        W79762  14.828   3.337  10.097
11400W        W79763  20.634  19.139   2.278
11401W        W79764   2.290  16.216  14.787
11402W        W79765  12.134  17.251   3.659
11403W        W79766   4.421  40.363   4.676
11404W        W79767  33.409  22.163   0.863
11405W        W79768  34.962  22.744   4.752
11406W        W79769   9.718  21.634   3.362
11407W        W79770  38.891   3.811  14.462
11408W        W79771  12.225  26.509  10.444
11409W        W79772  26.497  44.776   0.831
11410W        W79773  32.094  41.332  11.904
11411W        W79774  29.548  39.448  10.482
11412W        W79775  10.801   2.259  13.807
11413W        W79776  43.382  34.083  13.870
11414W        W79777  15.145  19.623  11.575
11415W        W79778  43.770  39.531   0.933
11416W        W79779   0.484  43.014  14.510
11417W        W79780  40.453   7.297   2.414
11418W        W79781  15.100  21.602   4.672
11419W        W79782  18.159  20.214   3.641
11420W        W79783  10.363  38.513   4.640
11421W        W79784  27.126  33.952   4.769
11422W        W79785  23.189   1.354   4.745
11423W        W79786  23.098   7.205   3.834
11424W        W79787   7.394  35.403  14.004
11425W        W79788  15.737   9.321   1.892
11426W        W79789  40.499  20.127   0.454
11427W        W79790  26.195  34.577  13.399
11428W        W79791  32.077   4.733   1.786
11429W        W79792  20.535  39.010   4.801
11430W        W79793   1.785   7.815   1.278
11431W        W79794   1.945  24.215   4.634
11432W        W79795  40.409  36.449   4.613
11433W        W79796  11.759   8.189  11.501
11434W        W79797  42.000  40.312   1.695
11435W        W79798  29.617  32.909  12.945
11436W        W79799  30.088  11.181   0.410
11437W        W79800  33.928  18.629  12.355
11438W        W79801  37.938  10.868   3.741
11439W        W79802   7.849  39.327   3.386
11440W        W79803  28.963  27.461   0.756
11441W        W79804  23.687  20.047   0.881
11442W        W79805   3.353  12.233   0.944
11443W        W79806  14.334  37.451   4.617
11444W        W79807   9.238   1.418   3.858
11445W        W79808  14.603  37.507  10.626
11446W        W79809  11.707  32.391   1.399
11447W        W79810  10.810  37.566   3.244
11448W        W79811  41.993  20.694   0.441
11449W        W79812  39.987   0.878  11.093
11450W        W79813  16.589  36.433   4.249
11451W        W79814   1.907  17.206   4.651
11452W        W79815  17.167  14.098  13.472
11453W        W79816  29.087  38.404  13.828
11454W        W79817  23.701  12.229   1.439
11455W        W79818  32.554  38.370   4.740
11456W        W79819  44.284  34.972  13.817
11457W        W79820   9.346  41.404  12.008
11458W        W79821  25.648  19.662  11.533
11459W        W79822   2.835  20.190  11.547
11460W        W79823  28.937  15.299  12.356
11461W        W79824  38.476  40.514   0.849
11462W        W79825  22.156  32.034  12.562
11463W        W79826  14.616  34.395   3.247
11464W        W79827  35.539   7.364   0.427
11465W        W79828   1.847  30.141  12.968
11466W        W79829  33.568  42.953  10.406
11467W        W79830   2.742   4.898   2.665
11468W        W79831  12.677  20.590   1.749
11469W        W79832  44.415  30.479  13.356
11470W        W79833   4.701  12.308   0.743
11471W        W79834  23.046  32.971  14.338
11472W        W79835  17.099  20.118  14.326
11473W        W79836  43.771  34.525   4.639
11474W        W79837  27.147  39.317   0.827
11475W        W79838  23.163  40.016  14.880
11476W        W79839  34.019   2.228   4.750
11477W        W79840  18.181  23.710   1.788
11478W        W79841   5.808  17.705  12.471
11479W        W79842   3.428   3.269  13.914
11480W        W79843  41.442   5.703   3.731
11481W        W79844  27.671  31.123  13.485
11482W        W79845  20.221   9.727   0.878
11483W        W79846  29.576  22.564   4.734
11484W        W79847  31.595  39.397  13.350
11485W        W79848   5.813  18.605   0.355
11486W        W79849  38.413  31.104  13.412
11487W        W79850  39.834  15.108   3.787
11488W        W79851  39.468  30.038   4.743
11489W        W79852  13.165   7.273   2.677
11490W        W79853  43.779  18.294   2.246
11491W        W79854   9.670  28.961  12.057
11492W        W79855  29.665  10.244   3.861
11493W        W79856   8.741   7.884   2.285
11494W        W79857  20.609  17.224  12.401
11495W        W79858  42.963  30.958  14.913
11496W        W79859   2.903  12.611  14.279
11497W        W79860   2.427  28.590  12.356
11498W        W79861  21.227   6.424   5.319
11499W        W79862  15.652  17.062   3.335
11500W        W79863  36.946  40.927   0.391
11501W        W79864   9.380  42.975  12.943
11502W        W79865  10.680   6.870  11.512
11503W        W79866  25.155  25.523  12.428
11504W        W79867  14.662  13.738   0.844
11505W        W79868   3.281  12.778  10.457
11506W        W79869  18.576  34.569   3.659
11507W        W79870  27.475  25.562  12.086
11508W        W79871  14.658  39.954   3.351
11509W        W79872  18.126  36.521   1.916
11510W        W79873  13.738  32.057  14.470
11511W        W79874   2.250   0.879  14.293
11512W        W79875  19.589  39.338  13.433
11513W        W79876   9.803  19.599  12.938
11514W        W79877  18.608  42.914   4.760
11515W        W79878  14.797  37.845   4.722
11516W        W79879  16.666  22.590  14.807
11517W        W79880  41.364  43.360  10.902
11518W        W79881  11.771  35.359  12.374
11519W        W79882  19.746   3.336  11.484
11520W        W79883  29.657  17.169  12.826
11521W        W79884  20.271  19.769   5.273
11522W        W79885  28.040  35.375   2.769
11523W        W79886  27.457  20.143  13.533
11524W        W79887  24.218   9.315  13.489
11525W        W79888  23.996  13.759  14.769
11526W        W79889   0.815  34.603   4.713
11527W        W79890  22.676  35.086  13.879
11528W        W79891  17.148   4.282   2.344
11529W        W79892  34.942  44.886   0.288
11530W        W79893  41.856  13.777  11.543
11531W        W79894  41.494  12.351  12.901
11532W        W79895  28.153   3.725  13.921
11533W        W79896  11.251  25.091   2.876
11534W        W79897  36.866   9.352  12.975
11535W        W79898   9.807  34.056   3.634
11536W        W79899  21.531  36.052   4.767
11537W        W79900  36.510   9.213  14.902
11538W        W79901  43.852  10.861   4.598
11539W        W79902  23.100  41.035  10.924
11540W        W79903  24.586  10.192  14.997
11541W        W79904   7.290  21.152  10.627
11542W        W79905  27.555   3.256  11.411
11543W        W79906   5.241  11.168  10.991
11544W        W79907  31.115  12.239  14.847
11545W        W79908  25.478  30.630   4.281
11546W        W79909   6.199  19.074  13.913
11547W        W79910  34.409  25.172  11.067
11548W        W79911  42.872  38.029   4.602
11549W        W79912  21.128  36.492   1.254
11550W        W79913  33.109  30.138  12.528
11551W        W79914  21.066  13.838  13.863
11552W        W79915  41.508  43.311  10.611
11553W        W79916  27.131  24.538   0.459
11554W        W79917  16.727  11.263   0.883
11555W        W79918  29.467  37.448  12.421
11556W        W79919  15.120  40.336  11.079
11557W        W79920  44.428  31.035   3.716
11558W        W79921  14.824  26.459   2.873
11559W        W79922  28.575  16.687   3.228
11560W        W79923  17.714   4.729  11.019
11561W        W79924  24.114   7.221  12.013
11562W        W79925  40.547  35.454   0.262
11563W        W79926   4.761   8.708   4.775
11564W        W79927  28.043  21.170  13.427
11565W        W79928  29.425  43.459   2.817
11566W        W79929  44.931  15.099   2.416
11567W        W79930  38.557  17.136   0.319
11568W        W79931  14.812  44.359   4.185
11569W        W79932  10.861  21.527   3.315
11570W        W79933  26.159  32.995  12.405
11571W        W79934   7.753  37.899   1.827
11572W        W79935  44.803  36.031  14.771
11573W        W79936  42.376  44.817   0.928
11574W        W79937  16.721  27.958   4.719
11575W        W79938  14.822  38.417  13.970
11576W        W79939  34.866   4.741  10.497
11577W        W79940  30.913  23.567  12.870
11578W        W79941  14.329  33.521  14.389
11579W        W79942  13.167  17.657  10.478
11580W        W79943  41.359  17.163  11.956
11581W        W79944  34.377   6.415  13.805
11582W        W79945  34.017  22.094   2.793
11583W        W79946   8.689  13.189  14.970
11584W        W79947  10.727  21.541   2.689
11585W        W79948  23.547  10.146   2.779
11586W        W79949  25.982  33.046   1.809
11587W        W79950  15.805  34.381   3.290
11588W        W79951   4.918   9.854   2.396
11589W        W79952  32.582   7.192   3.277
11590W        W79953  35.011  15.291   4.129
11591W        W79954  22.642  11.737   2.257
11592W        W79955  23.008  21.707   4.213
11593W        W79956  22.107  17.214  14.905
11594W        W79957  25.148  16.147   3.181
11595W        W79958  38.416   6.860   4.652
11596W        W79959  13.133   8.249  11.509
11597W        W79960  19.680  33.035   2.837
11598W        W79961  42.282  36.897  11.877
11599W        W79962   1.843  26.690   2.685
11600W        W79963  21.074  19.695   4.214
11601W        W79964  24.527  11.132  12.855
11602W        W79965   9.653   1.783   2.411
11603W        W79966  44.906  12.168   0.839
11604W        W79967  22.526  25.145   1.781
11605W        W79968  11.164   5.786  14.968
11606W        W79969  17.580  11.160  13.376
11607W        W79970   1.900   8.341  13.845
11608W        W79971  38.070   0.282  13.521
11609W        W79972   2.265   8.656   0.461
11610W        W79973  35.067  37.981  12.040
11611W        W79974  11.352  38.331  11.896
11612W        W79975  38.439  18.620   3.761
11613W        W79976   8.810  31.488  13.951
11614W        W79977  12.852  25.211  10.574
11615W        W79978  32.021  40.546  12.431
11616W        W79979  32.618   8.832  10.512
11617W        W79980   9.868  33.450   0.795
11618W        W79981   0.420  24.127   3.774
11619W        W79982  17.191  18.708   3.728
11620W        W79983  29.483  41.333  11.879
11621W        W79984  30.066  19.212  13.907
11622W        W79985   1.478  43.929   3.819
11623W        W79986  36.006  35.967   0.860
11624W        W79987  37.038   9.187   0.434
11625W        W79988  20.095  28.576   1.787
11626W        W79989  43.375  40.820   3.664
11627W        W79990  35.917   8.892  11.579
11628W        W79991  16.130  10.672  11.595
11629W        W79992  24.648  12.696   3.314
11630W        W79993  10.875   9.369   2.256
11631W        W79994  41.914  44.992   2.700
11632W        W79995  36.868  36.389   0.437
11633W        W79996  31.905  19.557  10.956
11634W        W79997  33.115  14.193   1.400
11635W        W79998   2.785  35.525  14.288
11636W        W79999  24.542  16.277   3.244
11637W        W80000  44.832  31.571  11.487
11638W        W80001  37.060  37.372   1.360
11639W        W80002  29.096   2.311  10.596
11640W        W80003  27.666  34.993   0.869
11641W        W80004  42.861  20.551  10.641
11642W        W80005  18.727  27.049   3.323
11643W        W80006  13.295  43.994   1.278
11644W        W80007  13.224  28.647   0.255
11645W        W80008  25.065  20.603  13.363
11646W        W80009  37.882  30.502  12.519
11647W        W80010   2.295  11.814  12.902
11648W        W80011  23.077  37.345  13.319
11649W        W80012   1.923  17.737   2.384
11650W        W80013  44.996  35.544  10.135
11651W        W80014   5.899  42.927  11.586
11652W        W80015  44.791  37.371  10.588
11653W        W80016   7.833  37.375   4.672
11654W        W80017   7.891  27.607   1.227
11655W        W80018  37.342  26.609   5.116
11656W        W80019  23.649  16.316   4.688
11657W        W80020  22.998   4.286   3.160
11658W        W80021   4.327  40.458  11.476
11659W        W80022  24.212  12.702  12.348
11660W        W80023  44.773   6.729   2.285
11661W        W80024  27.623   5.929   1.371
11662W        W80025   1.457  25.505   0.878
11663W        W80026  30.923   3.933   4.603
11664W        W80027  29.551  40.318  11.912
11665W        W80028  10.770  29.142  14.446
11666W        W80029   6.279  14.688   2.751
11667W        W80030  26.604   2.760  12.417
11668W        W80031   5.294  28.131  12.011
11669W        W80032  32.057   7.775  12.065
11670W        W80033  33.999  11.347  10.995
11671W        W80034  44.460  36.357   0.919
11672W        W80035   6.364   8.836   3.764
11673W        W80036   4.243   2.402  11.953
11674W        W80037  36.021  35.413  13.445
11675W        W80038  28.643  21.651  11.410
11676W        W80039  44.795   9.782  10.950
11677W        W80040  23.521   3.384   3.287
11678W        W80041  16.102  22.034   1.436
11679W        W80042  15.270  14.835  14.958
11680W        W80043   4.251   0.827  10.484
11681W        W80044   0.896  25.686  13.055
11682W        W80045  36.516  17.798  12.010
11683W        W80046  22.522  12.155  12.457
11684W        W80047  15.307  16.126   1.272
11685W        W80048   4.872  22.546   3.692
11686W        W80049  21.018   2.350   1.857
11687W        W80050  34.085  38.935  13.504
11688W        W80051  33.529  31.057  14.863
11689W        W80052   1.784  44.319  14.961
11690W        W80053  43.825   6.907  12.381
11691W        W80054  23.133   9.836   1.441
11692W        W80055  29.083  37.416   0.860
11693W        W80056  16.073   5.821  12.396
11694W        W80057  32.099   4.243   0.740
11695W        W80058  31.568  32.544  12.992
11696W        W80059  21.197  31.002   0.295
11697W        W80060  41.031  20.171  10.536
11698W        W80061   3.370  35.076   0.363
11699W        W80062  19.714  18.130   1.753
11700W        W80063  22.178  20.739  10.959
11701W        W80064   3.251   1.454   1.831
11702W        W80065  40.903  15.330  11.534
11703W        W80066   9.715  23.026   3.244
11704W        W80067  14.785   2.822  10.070
11705W        W80068   4.834   3.304   0.456
11706W        W80069  24.539  43.937   3.791
11707W        W80070  17.065   3.866   1.280
11708W        W80071  20.668  39.551  10.442
11709W        W80072  36.055  44.978   1.754
11710W        W80073  24.698   3.735   0.753
11711W        W80074  17.233  28.141  13.463
11712W        W80075  43.377   4.760   3.275
11713W        W80076  24.719  25.148   4.732
11714W        W80077  31.971   9.832  13.894
11715W        W80078  11.355  23.061  12.904
11716W        W80079  16.794  29.567  13.822
11717W        W80080  10.150  41.396  10.006
11718W        W80081  26.547  39.512  14.966
11719W        W80082  30.432  18.610  11.558
11720W        W80083  20.158  26.145  10.597
11721W        W80084  14.147  15.113   3.839
11722W        W80085  21.552  14.615  14.325
11723W        W80086  31.013  16.254  10.975
11724W        W80087  11.830  26.642   3.773
11725W        W80088   7.271  21.622   1.451
11726W        W80089   7.666  22.159  13.543
11727W        W80090  10.370   3.278   3.641
11728W        W80091  37.465  40.339   1.775
11729W        W80092   0.330   6.289   0.374
11730W        W80093  11.758  10.826   3.347
11731W        W80094   5.263  33.524   3.171
11732W        W80095   0.419  24.030  12.834
11733W        W80096  20.704  29.600  13.906
11734W        W80097  25.141  28.092  11.435
11735W        W80098   3.711  26.197  13.917
11736W        W80099   3.246  28.533  11.941
11737W        W80100   5.399  30.429   3.346
11738W        W80101   9.321  44.309   0.764
11739W        W80102  30.135  29.929  12.422
11740W        W80103  35.075  10.833   3.182
11741W        W80104  30.543  16.309  14.405
11742W        W80105   1.461   3.350   2.309
11743W        W80106  32.136  21.181   0.918
11744W        W80107  34.420  34.998   3.731
11745W        W80108  20.606  38.077   0.945
11746W        W80109   1.958  27.467   4.118
11747W        W80110   8.807  37.889   1.725
11748W        W80111  40.321   5.246   3.369
11749W        W80112  12.773  12.160   0.730
11750W        W80113  40.391  30.575   0.944
11751W        W80114  32.506  29.570   5.126
11752W        W80115   6.913  26.126   2.870
11753W        W80116  36.876  32.026   2.782
11754W        W80117   8.245   5.856  14.312
11755W        W80118  18.556   9.259  11.877
11756W        W80119   1.357  12.206  10.571
11757W        W80120   9.697  30.549   4.665
11758W        W80121  18.651  43.406  14.404
11759W        W80122  25.147  33.028   2.897
11760W        W80123  34.420   4.271  11.600
11761W        W80124  19.767  21.553   1.320
11762W        W80125  29.926   6.230  10.521
11763W        W80126  19.609  33.956   1.353
11764W        W80127  17.597  38.869  12.372
11765W        W80128  27.999  26.055  13.045
11766W        W80129  23.194  15.627  14.950
11767W        W80130  22.224  21.174   1.324
11768W        W80131   3.845   8.848   1.444
11769W        W80132   1.925  32.093   2.219
11770W        W80133  12.704  32.507   0.819
11771W        W80134   1.946  37.864   1.933
11772W        W80135  34.518  21.570  11.552
11773W        W80136  10.356  29.045  12.411
11774W        W80137  16.205  15.785   3.384
11775W        W80138  13.231   7.802   1.863
11776W        W80139  20.160  34.114   4.182
11777W        W80140  31.557  41.794   0.819
11778W        W80141  18.128  33.470   0.921
11779W        W80142  41.536  14.210   1.306
11780W        W80143  37.860   3.420   3.828
11781W        W80144  31.416  35.015   0.388
11782W        W80145  28.543  10.206   4.818
11783W        W80146  19.552  27.473   3.740
11784W        W80147  37.384   9.379   4.287
11785W        W80148  32.515  36.040  14.475
11786W        W80149  27.989  12.125  14.378
11787W        W80150  35.956  26.523  14.480
11788W        W80151  19.095  20.103   0.908
11789W        W80152   5.213  37.967  12.377
11790W        W80153  22.677  38.901  13.975
11791W        W80154  35.479   6.391   0.249
11792W        W80155   4.762  22.633   1.872
11793W        W80156  11.296  30.063  14.966
11794W        W80157  24.118  18.218  14.503
11795W        W80158  15.124  16.702   3.764
11796W        W80159  22.175  35.880  11.379
11797W        W80160  18.639  37.071   3.345
11798W        W80161  24.224  20.152  11.520
11799W        W80162  38.017   8.876  14.419
11800W        W80163  15.605  28.083   4.811
11801W        W80164  44.823  43.424  11.867
11802W        W80165  22.100  28.641   1.709
11803W        W80166  24.117  12.340  11.058
11804W        W80167  39.854  20.664   1.885
11805W        W80168   5.204  42.879  12.423
11806W        W80169  35.102   8.235   2.796
11807W        W80170  22.709  21.229  10.906
11808W        W80171  11.161  33.037   1.346
11809W        W80172  15.105  38.070  10.407
11810W        W80173  28.453   0.453   1.796
11811W        W80174  44.918  16.697  11.061
11812W        W80175   3.319  15.776   2.330
11813W        W80176  22.714  29.116   0.802
11814W        W80177  16.088  39.486   4.231
11815W        W80178  13.266  28.951  11.583
11816W        W80179  41.918  40.359   0.731
11817W        W80180  42.848  42.972   9.941
11818W        W80181  34.907  32.137  14.779
11819W        W80182  41.294  36.857  14.777
11820W        W80183  34.569  32.467   1.862
11821W        W80184  19.675  26.640  10.964
11822W        W80185  33.070   9.187  11.585
11823W        W80186  26.200   7.679  14.851
11824W        W80187   5.758  31.049   4.264
11825W        W80188   9.848  22.219  12.459
11826W        W80189  29.455   9.377  14.940
11827W        W80190   8.235  36.880   4.215
11828W        W80191  19.703  41.305   4.797
11829W        W80192  23.227  24.209   0.338
11830W        W80193  41.389  15.211  12.095
11831W        W80194  24.063  25.024  13.045
11832W        W80195   9.757   2.411   4.646
11833W        W80196  13.645   7.397  13.808
11834W        W80197  37.527  18.280  10.113
11835W        W80198  23.672   7.874  10.560
11836W        W80199  44.300   3.299   0.313
11837W        W80200  36.564  12.668  13.404
11838W        W80201  12.284  36.428  14.979
11839W        W80202  17.634  32.454   3.657
11840W        W80203  38.908  23.627  13.802
11841W        W80204   3.439   4.416   0.900
11842W        W80205   0.460  38.554   4.794
11843W        W80206   7.827  42.782   5.128
11844W        W80207  43.904   4.787  12.071
11845W        W80208  29.624  10.295  13.516
11846W        W80209  19.213  28.489   0.955
11847W        W80210  21.620  36.077  11.537
11848W        W80211   5.750  22.683   2.181
11849W        W80212  14.606  10.733   1.252
11850W        W80213  17.070  26.973   1.367
11851W        W80214  35.018  11.857  14.897
11852W        W80215  34.981  25.177   4.246
11853W        W80216  44.478   4.271   4.728
11854W        W80217  25.968  32.077  11.448
11855W        W80218  37.344  24.052   1.326
11856W        W80219  33.527  29.121  14.013
11857W        W80220   3.879  37.896   2.755
11858W        W80221  15.662  28.482   1.261
11859W        W80222  26.117  35.983   3.851
11860W        W80223  10.691  16.099  11.380
11861W        W80224  24.667  22.531   0.301
11862W        W80225  24.615  40.327  10.499
11863W        W80226  28.555  14.240   0.474
11864W        W80227   3.807  39.902  12.440
11865W        W80228  18.642  39.518  14.857
11866W        W80229  22.534  11.203   9.996
11867W        W80230  29.551  29.079  12.410
11868W        W80231  26.960  29.461  11.541
11869W        W80232   0.381  10.714  11.424
11870W        W80233  33.879   7.856   3.358
11871W        W80234  35.003  32.453  14.005
11872W        W80235  40.478  20.177   0.752
11873W        W80236  10.866  34.535  11.894
11874W        W80237  12.147  12.224   3.641
11875W        W80238  17.608  11.754  11.927
11876W        W80239   1.790  36.427   3.202
11877W        W80240  18.618  14.106   1.417
11878W        W80241   4.745  44.985  13.991
11879W        W80242  31.615  42.977  10.616
11880W        W80243  27.646  40.314   0.318
11881W        W80244   0.455  36.502  11.919
11882W        W80245  27.176  12.119   1.416
11883W        W80246  15.719  15.593  14.481
11884W        W80247   7.822  43.455   3.652
11885W        W80248  30.547  21.225   0.879
11886W        W80249  43.988   6.244  12.830
11887W        W80250  38.823  30.492   3.660
11888W        W80251  12.129  21.019  14.319
11889W        W80252  25.091  21.540  14.429
11890W        W80253  29.643  36.407   4.219
11891W        W80254   2.858  27.452  12.515
11892W        W80255  16.134  23.028   4.808
11893W        W80256  10.771  27.600  14.390
11894W        W80257  37.479  29.004   2.197
11895W        W80258   9.360  16.075  11.991
11896W        W80259  39.418  40.908  14.862
11897W        W80260  36.422  21.644   3.377
11898W        W80261   9.715  38.914   4.656
11899W        W80262  41.841  32.107   0.256
11900W        W80263  30.017   3.218   2.664
11901W        W80264  31.577  28.638  13.044
11902W        W80265  21.692  44.988   2.365
11903W        W80266  28.980  23.612   0.483
11904W        W80267  20.611  41.374  11.916
11905W        W80268  16.244   7.351  12.987
11906W        W80269  19.685  14.772   4.295
11907W        W80270   5.725  24.670   3.337
11908W        W80271  26.005  43.018   1.400
11909W        W80272  17.659  25.970  13.439
11910W        W80273  31.466  31.594   2.837
11911W        W80274  32.484  43.931   1.805
11912W        W80275  14.215  19.563   2.886
11913W        W80276  37.035  38.854  13.956
11914W        W80277   8.724  39.495  11.552
11915W        W80278   2.950  18.633  10.917
11916W        W80279   9.769  17.254   2.303
11917W        W80280   7.233  32.072  12.511
11918W        W80281  23.014  33.893   3.236
11919W        W80282  39.340   4.703   4.647
11920W        W80283  28.493  40.831  11.601
11921W        W80284  43.360  24.975  11.044
11922W        W80285  38.997  37.365  13.531
11923W        W80286  41.972  17.196   0.460
11924W        W80287  30.450  15.677  13.481
11925W        W80288  37.920  39.448   3.866
11926W        W80289  23.019  28.614   4.153
11927W        W80290  27.497  26.050  10.572
11928W        W80291  14.094  12.148  13.355
11929W        W80292  21.049   8.745  13.998
11930W        W80293  41.878  31.980   2.819
11931W        W80294  20.140  33.525  13.952
11932W        W80295  32.904  38.377  14.461
11933W        W80296  36.449   3.768  14.848
11934W        W80297  13.828  33.536   4.330
11935W        W80298  25.021  29.426  13.414
11936W        W80299  23.646  18.610  11.082
11937W        W80300  37.000   9.354   0.889
11938W        W80301  12.327   2.283  10.901
11939W        W80302  35.004  19.607  14.328
11940W        W80303  33.387  31.492  10.991
11941W        W80304  10.160  25.133  14.929
11942W        W80305  43.488  10.193   1.331
11943W        W80306  20.216  14.608   3.197
11944W        W80307  31.131  18.191  11.921
11945W        W80308   8.277   9.725   1.854
11946W        W80309  30.060  35.055   1.404
11947W        W80310  33.451   5.723   1.430
11948W        W80311  22.602  11.203   3.265
11949W        W80312  18.576  18.602   3.167
11950W        W80313   0.900  28.023  12.549
11951W        W80314  44.798  40.415   2.836
11952W        W80315   0.363   5.215   2.777
11953W        W80316  44.292   8.364   1.911
11954W        W80317  38.969   4.309  14.825
11955W        W80318  41.397  44.493   1.247
11956W        W80319  22.073  18.098   2.406
11957W        W80320  21.668  22.672   3.803
11958W        W80321   5.312  30.126   1.226
11959W        W80322  36.411   1.471   0.900
11960W        W80323   4.320  40.875   2.310
11961W        W80324  15.663  14.601  14.379
11962W        W80325  13.714  18.178  11.514
11963W        W80326  34.960  14.177  12.447
11964W        W80327  32.972  44.787  13.530
11965W        W80328  10.142  28.118   2.683
11966W        W80329  42.369  42.421   4.705
11967W        W80330  34.912   2.274   1.931
11968W        W80331  38.899   8.369  14.349
11969W        W80332  13.222   6.228   2.389
11970W        W80333   9.150  44.782   0.923
11971W        W80334   5.414   7.830  12.528
11972W        W80335  15.134  28.166   4.724
11973W        W80336  35.568   6.727   2.242
11974W        W80337  26.678   2.965  13.974
11975W        W80338  41.003  29.997  12.424
11976W        W80339   2.943   5.276  12.569
11977W        W80340  30.164  44.914   0.842
11978W        W80341  27.597  40.376  14.803
11979W        W80342  43.278  18.693  14.391
11980W        W80343  25.712  44.293  13.519
11981W        W80344  43.798  33.574   3.296
11982W        W80345   9.377   1.862   3.764
11983W        W80346  17.572  20.691   2.391
11984W        W80347  40.818  32.063   2.760
11985W        W80348  21.567  27.467  14.803
11986W        W80349   5.301  29.014  12.080
11987W        W80350  34.474  30.929   4.746
11988W        W80351  42.900  14.704  11.013
11989W        W80352  20.058   2.412  11.391
11990W        W80353  23.158   4.758  11.030
11991W        W80354  19.615  38.546   0.782
11992W        W80355  18.180  43.439  10.429
11993W        W80356  16.171   6.917   1.708
11994W        W80357  35.461  30.602   0.820
11995W        W80358  21.727  31.152  12.858
11996W        W80359  13.672  16.107   1.766
11997W        W80360  32.427  10.143  14.862
11998W        W80361   0.945  35.400  11.110
11999W        W80362  25.546  19.168  12.060
12000W        W80363  12.336  13.813  13.463
12001W        W80364   4.783  17.141   1.411
12002W        W80365  31.121   5.438   1.734
12003W        W80366  28.624  11.253  10.604
12004W        W80367  30.533   1.764  13.405
12005W        W80368  44.001  23.708  12.849
12006W        W80369  30.021  36.525  12.499
12007W        W80370  21.251   3.909   2.731
12008W        W80371  26.689  39.922  13.966
12009W        W80372  12.759   8.352  13.523
12010W        W80373   0.482  39.003   3.319
12011W        W80374   8.873  38.561  13.452
12012W        W80375  18.641   1.921  12.826
12013W        W80376  19.722  34.420   1.447
12014W        W80377   3.411  42.958  12.032
12015W        W80378  36.532  37.065   3.659
12016W        W80379  13.838  39.891  13.026
12017W        W80380  29.570   7.242  12.490
12018W        W80381  13.171   5.210  14.465
12019W        W80382  19.117   6.419  13.317
12020W        W80383  32.934   8.709  12.497
12021W        W80384  21.201  23.583  12.085
12022W        W80385  15.773  29.087  10.161
12023W        W80386  11.160  15.134  12.017
12024W        W80387  42.513  39.818  11.479
12025W        W80388   3.842  11.666  14.852
12026W        W80389  30.120  25.081  13.494
12027W        W80390  21.117   4.374   4.832
12028W        W80391  19.758  29.124   1.772
12029W        W80392  16.300  32.948  13.966
12030W        W80393  28.551  35.933   2.233
12031W        W80394  17.762  34.556   1.913
12032W        W80395  29.058  16.230  12.393
12033W        W80396  44.005  20.274   4.184
12034W        W80397  37.571  11.634   5.226
12035W        W80398  44.271   9.660   0.466
12036W        W80399  18.556  24.526   3.149
12037W        W80400   9.349  22.105   4.689
12038W        W80401   6.716  44.971  14.844
12039W        W80402   1.765  31.529  10.917
12040W        W80403  16.258  15.653   5.784
12041W        W80404   5.848   3.359   2.819
12042W        W80405  21.174  15.286  14.468
12043W        W80406   0.248  43.809  14.953
12044W        W80407  12.667  41.795   1.823
12045W        W80408   2.772  38.496  12.874
12046W        W80409  40.436  33.480   1.868
12047W        W80410  30.519  17.207   3.632
12048W        W80411  39.854  29.978  14.503
12049W        W80412  34.599  10.707  12.879
12050W        W80413   4.281  38.554  14.475
12051W        W80414  31.107  10.639   4.305
12052W        W80415  25.056   5.393  12.518
12053W        W80416  24.511  32.092   2.894
12054W        W80417  16.697  41.472  10.150
12055W        W80418  38.988  35.455  13.912
12056W        W80419  41.899  41.961   4.721
12057W        W80420  13.326   8.821  14.838
12058W        W80421  19.620  14.329  13.458
12059W        W80422  21.245  40.494  14.435
12060W        W80423  37.079  19.579   1.825
12061W        W80424  40.338  29.548  14.984
12062W        W80425  33.875  18.724   1.245
12063W        W80426   1.929  32.904   0.796
12064W        W80427  33.904  20.208  14.862
12065W        W80428  12.728   0.854   0.274
12066W        W80429  35.065  33.894  11.026
12067W        W80430  35.870  29.996   2.838
12068W        W80431  40.521  27.451   4.323
12069W        W80432   6.847  16.708  12.544
12070W        W80433  40.389  26.569   2.301
12071W        W80434  37.371  20.093   1.808
12072W        W80435  15.770  41.498   1.732
12073W        W80436  37.883   3.404  13.365
12074W        W80437  15.159  26.687   4.804
12075W        W80438   2.421  43.801   2.216
12076W        W80439  40.011  24.489  11.608
12077W        W80440  10.303   7.194  14.008
12078W        W80441  12.330  40.474  13.002
12079W        W80442  17.778  44.422   4.809
12080W        W80443  28.487  13.228  11.560
12081W        W80444  20.623  36.869   3.165
12082W        W80445  22.156   1.793   4.261
12083W        W80446  13.350  41.930   0.808
12084W        W80447  36.493  41.345   0.930
12085W        W80448  17.796  25.983   3.844
12086W        W80449  26.659  31.503   4.606
12087W        W80450  16.757   9.304  11.098
12088W        W80451  17.169  15.276  13.891
12089W        W80452  15.264  23.189   3.668
12090W        W80453  34.504  38.900   1.225
12091W        W80454  37.956   4.931  10.608
12092W        W80455   3.922   1.778   0.803
12093W        W80456   7.235  14.145  14.437
12094W        W80457  21.156  28.616   4.620
12095W        W80458  37.474  42.844   9.975
12096W        W80459   2.914  41.998  14.445
12097W        W80460  25.983  35.964   0.879
12098W        W80461  22.641  31.646  11.474
12099W        W80462  10.335  25.117   9.926
12100W        W80463  41.407  38.340   1.765
12101W        W80464  44.455  34.508  11.982
12102W        W80465   8.829  22.666   2.776
12103W        W80466  42.429  43.387  12.920
12104W        W80467  44.789   7.224  13.436
12105W        W80468   4.767  13.759   4.269
12106W        W80469  24.561  31.540   0.368
12107W        W80470   0.794  27.558  13.436
12108W        W80471  10.671   1.363  14.440
12109W        W80472  21.691  19.658  13.908
12110W        W80473  26.191   1.899   2.662
12111W        W80474  29.557  25.632   4.838
12112W        W80475  42.884  11.675  10.949
12113W        W80476  30.569  23.113  12.522
12114W        W80477   0.924  27.113  14.398
12115W        W80478  17.750   4.416  13.312
12116W        W80479   1.289  14.136   0.748
12117W        W80480   7.756  24.712  13.030
12118W        W80481  35.951  40.850  13.482
12119W        W80482   8.769  16.133   4.665
12120W        W80483   7.417  23.706  12.994
12121W        W80484  25.494  44.945   4.176
12122W        W80485   6.896  11.699  13.406
12123W        W80486  43.380  28.056  10.504
12124W        W80487  37.388   6.896  14.350
12125W        W80488   3.786  28.525   1.897
12126W        W80489  36.452   8.337  14.008
12127W        W80490  20.673  19.632   1.843
12128W        W80491  29.994   3.429   1.819
12129W        W80492  20.725  38.051  11.419
12130W        W80493  31.937  23.492  10.034
12131W        W80494  14.235  12.308  12.031
12132W        W80495  31.018   4.862  12.541
12133W        W80496  15.608  28.184   1.369
12134W        W80497   9.246  13.823  12.391
12135W        W80498   5.890  26.692  13.028
12136W        W80499  26.553  33.007   9.920
12137W        W80500  11.188  31.147   2.744
12138W        W80501   4.401   2.942  14.389
12139W        W80502  36.461  14.113   2.821
12140W        W80503  42.895  10.704  12.527
12141W        W80504  40.965  18.645   4.765
12142W        W80505  35.388  23.726  13.793
12143W        W80506  28.999  34.445   2.405
12144W        W80507  33.598  25.683  13.848
12145W        W80508  19.062  30.040  10.529
12146W        W80509  32.491  36.842   0.866
12147W        W80510   0.392  27.585  12.844
12148W        W80511  27.996   1.340   2.872
12149W        W80512  43.386   0.824   1.240
12150W        W80513  17.294  41.372   3.771
12151W        W80514  40.450  37.039  10.428
12152W        W80515  38.834   8.215   1.785
12153W        W80516  41.394  21.217   4.272
12154W        W80517  39.369   5.837   4.672
12155W        W80518   3.411  23.175  13.925
12156W        W80519  24.078   5.864  10.571
12157W        W80520  21.113  40.461  10.902
12158W        W80521   9.283  20.052  11.946
12159W        W80522  11.260   8.832  12.398
12160W        W80523   6.840   1.835   1.809
12161W        W80524   4.831  38.940  10.588
12162W        W80525  18.189  20.564   3.204
12163W        W80526  38.981  36.073   4.665
12164W        W80527  24.063  43.934   4.225
12165W        W80528   4.913  31.981   3.795
12166W        W80529  10.161  21.578  14.896
12167W        W80530  16.748  43.503  10.576
12168W        W80531  36.008   6.829  11.597
12169W        W80532  44.932  30.540  13.957
12170W        W80533  17.792   9.162   0.879
12171W        W80534  11.795   8.162   3.224
12172W        W80535  14.795  10.855   1.812
12173W        W80536   3.865  39.376  11.085
12174W        W80537  42.843  38.459   3.798
12175W        W80538  26.590  19.135  14.964
12176W        W80539  37.480  12.857  14.278
12177W        W80540  23.987   0.802   2.713
12178W        W80541  11.696  24.491  10.912
12179W        W80542  16.567  16.723   2.380
12180W        W80543  17.637   9.690   0.314
12181W        W80544   6.395  22.232  13.506
12182W        W80545  15.783  18.155   3.241
12183W        W80546  11.176  14.764  10.477
12184W        W80547   4.369  42.844   5.082
12185W        W80548   0.258   2.780   1.721
12186W        W80549  25.123   1.382  11.892
12187W        W80550  26.056   3.446  14.842
12188W        W80551  36.526  28.504   0.451
12189W        W80552   1.943   5.761  12.573
12190W        W80553  35.107  44.870  14.000
12191W        W80554   2.825  24.154   1.398
12192W        W80555  15.596  40.320   0.345
12193W        W80556  14.829   4.904   3.278
12194W        W80557  38.053  25.015   1.304
12195W        W80558  38.401  33.045   3.282
12196W        W80559  22.689  20.525   1.346
12197W        W80560  12.691  24.593   3.252
12198W        W80561   7.307  21.701  14.904
12199W        W80562  42.891  25.593  10.420
12200W        W80563  32.109  24.690   3.377
12201W        W80564   6.724  20.763   2.903
12202W        W80565  16.806  31.102   4.780
12203W        W80566  24.990  34.444   0.337
12204W        W80567  22.729   8.663   1.694
12205W        W80568  28.571  40.895  12.883
12206W        W80569  26.986  35.469   3.365
12207W        W80570  10.646  22.103   4.811
12208W        W80571  28.505  24.511  12.535
12209W        W80572  34.045  42.374   0.962
12210W        W80573  44.945  23.632  10.464
12211W        W80574   3.825  18.248  10.614
12212W        W80575  44.316  26.987  10.495
12213W        W80576   0.354  15.133   3.303
12214W        W80577  36.494  41.331  10.974
12215W        W80578  30.451  34.881   4.681
12216W        W80579   9.802  36.984   3.252
12217W        W80580  11.240  43.853  11.437
12218W        W80581   9.227  44.975   1.331
12219W        W80582   9.267  27.684   4.239
12220W        W80583  41.852  12.312  13.317
12221W        W80584   1.371   5.378   4.718
12222W        W80585  10.818  30.645  12.579
12223W        W80586  13.169  44.369   1.779
12224W        W80587  26.481  40.523   1.447
12225W        W80588   8.342  36.935  11.423
12226W        W80589  27.596   3.219  13.441
12227W        W80590  23.990  19.667   4.619
12228W        W80591  40.836  25.101   2.351
12229W        W80592  25.982   9.865  13.528
12230W        W80593   0.384   3.749   4.329
12231W        W80594  27.984  18.754  10.947
12232W        W80595   0.442  39.912   2.898
12233W        W80596  26.991  38.947  10.455
12234W        W80597  32.077   4.374  11.110
12235W        W80598  29.607  17.745  12.920
12236W        W80599   2.775  19.152   3.709
12237W        W80600   3.921  34.029   3.790
12238W        W80601   8.162  29.105  10.510
12239W        W80602  14.271  16.287  10.075
12240W        W80603  11.258  21.169   4.753
12241W        W80604  15.653  28.982   0.375
12242W        W80605  26.523   0.926  12.408
12243W        W80606  39.957   6.258   3.240
12244W        W80607   3.935  13.627   1.721
12245W        W80608  35.477  32.636   4.278
12246W        W80609  43.468  18.784  10.018
12247W        W80610  18.171  11.773  11.885
12248W        W80611   1.909  44.797   1.389
12249W        W80612  16.690  41.526   2.677
12250W        W80613   8.271  22.218  13.873
12251W        W80614  39.969  38.996  12.029
12252W        W80615   8.684  34.054  11.501
12253W        W80616  25.154  39.854   0.824
12254W        W80617  43.402  41.886  12.449
12255W        W80618  24.137  42.471  14.881
12256W        W80619  43.318  28.042   1.883
12257W        W80620  20.257  41.914   3.373
12258W        W80621  10.643  10.340   2.673
12259W        W80622  17.620  25.484  14.337
12260W        W80623  12.277  40.995   1.434
12261W        W80624  30.434  11.157   3.633
12262W        W80625  24.568  21.126   4.245
12263W        W80626   3.823  16.164   4.354
12264W        W80627  23.198  27.464   3.373
12265W        W80628   5.402   5.838  13.350
12266W        W80629  17.765  17.238  14.501
12267W        W80630  13.798  30.920   0.856
12268W        W80631  20.031  36.886  11.483
12269W        W80632   7.747   4.925  11.881
12270W        W80633  42.962  30.415  14.916
12271W        W80634  24.146  29.633  13.003
12272W        W80635  14.106   7.818  10.615
12273W        W80636  20.114   7.342  10.055
12274W        W80637  27.983   7.407   1.391
12275W        W80638  39.506  41.392   1.760
12276W        W80639  39.495  27.065  12.065
12277W        W80640  39.908  26.196  14.766
12278W        W80641  25.575   2.268   3.740
12279W        W80642  38.823  44.888   0.763
12280W        W80643  11.257   1.853   1.758
12281W        W80644  19.215   1.795  12.086
12282W        W80645  18.671  21.105   0.843
12283W        W80646  32.032  28.067  12.465
12284W        W80647  43.794  42.026   3.158
12285W        W80648  15.321  32.068  13.407
12286W        W80649  19.562   8.877   3.318
12287W        W80650  11.241   0.414   0.922
12288W        W80651  30.990  25.986  14.899
12289W        W80652  21.148   7.283  11.930
12290W        W80653   1.321  12.845   4.707
12291W        W80654  28.156  25.021  14.018
12292W        W80655  18.554   2.770   4.274
12293W        W80656  36.587   4.280  10.450
12294W        W80657  39.359  16.135  11.422
12295W        W80658  42.947  24.681   4.144
12296W        W80659  36.916   8.793   0.354
12297W        W80660   0.927  20.030  11.013
12298W        W80661   4.414  12.633   2.690
12299W        W80662   7.186   8.790  13.393
12300W        W80663   6.419   3.899  13.803
12301W        W80664   8.876  30.105  10.562
12302W        W80665  43.919  31.436   3.379
12303W        W80666  20.733  19.698   4.809
12304W        W80667  12.634  14.634   2.296
12305W        W80668  40.365  28.666   0.277
12306W        W80669  39.405  12.360  13.500
12307W        W80670  44.356   9.849  13.936
12308W        W80671  28.570  42.866  14.926
12309W        W80672  11.677  44.450   3.192
12310W        W80673  15.622   7.778  12.878
12311W        W80674   5.428  25.532   0.760
12312W        W80675   4.305  18.644   3.657
12313W        W80676  24.521   2.279  11.099
12314W        W80677  35.061  24.483  13.386
12315W        W80678  13.806   1.933   0.903
12316W        W80679  41.393  34.870   0.850
12317W        W80680  35.580  11.847   3.812
12318W        W80681  13.290  41.375  13.012
12319W        W80682  30.541  40.489  12.032
12320W        W80683  44.385  40.810   0.902
12321W        W80684  38.497  17.299   4.601
12322W        W80685  10.836  22.701  11.985
12323W        W80686  32.140  25.604  14.027
12324W        W80687   0.347  18.709  11.968
12325W        W80688   6.392   4.389  14.447
12326W        W80689  17.097   1.860   3.153
12327W        W80690  32.450   1.917  10.553
12328W        W80691  16.620  18.188   1.445
12329W        W80692   2.446  15.650   4.319
12330W        W80693  36.537  14.212   1.333
12331W        W80694  11.690  36.970   2.218
12332W        W80695  18.651  16.084  11.518
12333W        W80696   1.305  13.314   2.847
12334W        W80697   5.338  30.632   1.903
12335W        W80698  19.157  27.009   0.862
12336W        W80699  43.902   9.770   3.149
12337W        W80700  22.594  24.057  13.921
12338W        W80701  13.776  32.045  11.084
12339W        W80702  30.602  18.716   1.210
12340W        W80703  26.482  13.349   4.777
12341W        W80704  35.475  29.456   0.825
12342W        W80705  11.640   4.908  11.045
12343W        W80706  34.986  15.817   0.878
12344W        W80707  26.066  41.854  12.528
12345W        W80708  37.082  44.897  11.974
12346W        W80709  35.867  35.506   3.819
12347W        W80710  31.941  12.772   3.308
12348W        W80711   4.840  15.209   3.724
12349W        W80712   2.850   6.831  14.759
12350W        W80713  27.041   2.942  14.472
12351W        W80714  19.060   8.686   2.811
12352W        W80715  37.551  33.605  14.501
12353W        W80716  12.839  43.803  13.458
12354W        W80717  18.626  11.854  13.952
12355W        W80718   7.770  18.660   0.888
12356W        W80719   0.923  41.013  11.991
12357W        W80720  32.459  20.630   1.929
12358W        W80721   7.911  38.968   4.705
12359W        W80722   7.399  44.846   2.346
12360W        W80723  28.080  15.633   5.203
12361W        W80724  25.699   6.729   1.894
12362W        W80725  28.547  29.483   1.232
12363W        W80726  40.955  31.554  14.315
12364W        W80727  41.989  13.134   2.874
12365W        W80728  34.871  30.486   1.808
12366W        W80729  26.528  24.214  13.312
12367W        W80730  22.618  25.996  10.489
12368W        W80731  22.634  37.064   2.843
12369W        W80732  18.623  27.595  13.891
12370W        W80733  30.996  34.874  11.931
12371W        W80734  21.593  28.642  12.864
12372W        W80735  13.198   0.807  14.800
12373W        W80736  17.139  38.003  13.037
12374W        W80737  35.950  21.593  12.841
12375W        W80738   8.192  14.608   1.808
12376W        W80739  30.513  26.502   3.325
12377W        W80740  18.646  44.939  13.488
12378W        W80741  21.568  24.041   2.200
12379W        W80742  13.826  42.401   3.332
12380W        W80743  18.089  26.649   4.616
12381W        W80744  11.805  29.649   2.372
12382W        W80745  19.268   0.461   0.437
12383W        W80746  26.149  15.194   0.923
12384W        W80747  28.011  35.517   1.267
12385W        W80748   4.312  44.887  13.505
12386W        W80749  38.459  13.188   3.694
12387W        W80750  42.302  34.515  13.347
12388W        W80751  27.944  10.725   3.279
12389W        W80752  29.960  25.180   3.723
12390W        W80753  27.114   2.437  10.982
12391W        W80754  16.177  26.465   2.804
12392W        W80755  27.991   9.261  14.920
12393W        W80756   2.302  23.138   3.189
12394W        W80757   9.877  17.152  11.959
12395W        W80758  26.660  36.071  12.825
12396W        W80759   1.381   2.255  10.927
12397W        W80760   3.402  41.838   0.425
12398W        W80761  24.698   3.812   4.764
12399W        W80762  15.120  35.948  11.550
12400W        W80763  15.658  35.418   0.830
12401W        W80764  17.670   8.270   2.327
12402W        W80765  34.072  32.554  11.455
12403W        W80766   8.776  24.090   4.725
12404W        W80767  33.045   2.391  13.027
12405W        W80768  42.902  28.476  12.574
12406W        W80769  24.124   5.847   0.339
12407W        W80770  12.350  25.182   1.375
12408W        W80771  11.652   7.326  12.959
12409W        W80772   9.336  19.739  12.463
12410W        W80773  14.097  22.045  11.606
12411W        W80774  19.170  38.056  14.966
12412W        W80775  26.960   8.883   1.278
12413W        W80776  34.928  36.432  13.969
12414W        W80777  24.715  13.843   1.790
12415W        W80778   6.203  29.502   5.169
12416W        W80779  40.947  14.175  14.956
12417W        W80780  42.301   5.895  12.946
12418W        W80781   7.665   3.726   2.310
12419W        W80782  38.847  30.093   0.858
12420W        W80783   2.398  32.075  11.025
12421W        W80784  42.450  33.110   4.166
12422W        W80785  10.645   0.854   4.815
12423W        W80786  27.534  44.968   4.247
12424W        W80787   6.283  18.695   1.760
12425W        W80788   4.703  30.145   1.309
12426W        W80789  30.522  31.495  12.421
12427W        W80790  13.160  16.637  14.420
12428W        W80791  41.519  26.497  10.144
12429W        W80792  33.467  11.843  13.028
12430W        W80793  31.092  18.074   2.674
12431W        W80794   7.174   3.370   3.702
12432W        W80795  15.229   7.396   2.215
12433W        W80796  38.538   3.850   3.355
12434W        W80797  44.334  20.029  12.562
12435W        W80798   5.899  24.520   4.739
12436W        W80799  40.424  40.376   4.658
12437W        W80800  17.225   8.182  10.515
12438W        W80801  36.400  16.677   3.804
12439W        W80802  25.096  15.812   4.640
12440W        W80803  11.818  31.982  14.288
12441W        W80804   5.426  39.346   3.836
12442W        W80805   2.947  40.860   4.300
12443W        W80806  40.358   0.467  12.031
12444W        W80807   4.938  36.845  14.759
12445W        W80808  36.930  28.617  14.500
12446W        W80809  40.380  41.443  14.355
12447W        W80810   0.788  35.542   5.133
12448W        W80811  34.518  34.046  12.963
12449W        W80812  14.230  23.031   2.201
12450W        W80813  29.156  21.592   0.819
12451W        W80814  33.426  11.286   2.253
12452W        W80815  32.612   0.372   2.759
12453W        W80816   1.846  28.641  12.510
12454W        W80817  27.528  38.561  10.463
12455W        W80818  13.183  39.933  13.020
12456W        W80819  38.869  32.123   0.343
12457W        W80820  38.065  25.057   4.834
12458W        W80821  23.527  22.053   3.632
12459W        W80822   0.748   7.180   2.686
12460W        W80823   2.763   6.904  11.984
12461W        W80824  10.818  11.306   2.180
12462W        W80825  18.132  23.587   4.168
12463W        W80826  24.136   0.306  14.786
12464W        W80827  44.480  40.547  14.447
12465W        W80828  35.431  14.608   3.209
12466W        W80829  31.533  28.559  10.609
12467W        W80830  33.617  10.694  14.412
12468W        W80831   6.923  31.640  12.984
12469W        W80832  25.498  30.503  10.010
12470W        W80833  14.226  17.618  14.985
12471W        W80834   9.701  38.941  10.411
12472W        W80835  12.240  10.361  14.433
12473W        W80836  36.399   1.263   2.753
12474W        W80837  15.308  28.598  11.039
12475W        W80838  32.475  18.242   1.433
12476W        W80839  44.836   4.336   1.854
12477W        W80840  23.057  35.061   2.835
12478W        W80841  15.149  29.076   2.865
12479W        W80842  29.582  38.977   1.217
12480W        W80843   0.820   7.841  11.986
12481W        W80844  16.266  10.231   1.913
12482W        W80845  17.669  16.140  14.402
12483W        W80846  28.937  39.532  11.567
12484W        W80847  28.034  18.693  12.540
12485W        W80848   9.683  41.462   2.705
12486W        W80849  43.783   0.333  12.505
12487W        W80850  37.360  24.141   0.367
12488W        W80851  18.760  32.528  14.827
12489W        W80852  30.495  25.165   3.274
12490W        W80853  24.146   4.702   1.924
12491W        W80854  43.859  39.933   4.181
12492W        W80855  34.396   5.774   1.820
12493W        W80856  37.396  11.286  14.442
12494W        W80857   1.465  20.143   1.392
12495W        W80858  29.086   3.308  13.994
12496W        W80859  25.508  42.368  12.524
12497W        W80860   9.235  30.144   0.471
12498W        W80861  26.968  35.581  11.057
12499W        W80862   3.416  43.885  11.605
12500W        W80863  18.679  28.581   2.880
12501W        W80864   5.432  40.442  13.011
12502W        W80865  26.628  40.039   1.743
12503W        W80866  32.079  18.694   4.190
12504W        W80867  26.025   0.886  12.577
12505W        W80868  38.957  31.975   2.820
12506W        W80869  16.796   8.211  11.074
12507W        W80870  27.004  43.803  13.347
12508W        W80871  14.157  43.783   1.726
12509W        W80872   1.790   1.931   3.657
12510W        W80873   2.932  19.254  13.321
12511W        W80874  25.550  17.173   1.857
12512W        W80875   1.872   0.438  12.504
12513W        W80876  43.834  33.585   2.353
12514W        W80877   3.317  27.529  11.533
12515W        W80878  25.093  19.283   0.744
12516W        W80879   6.739  39.384  13.523
12517W        W80880  13.128  38.375  13.981
12518W        W80881  29.627  37.467   0.757
12519W        W80882  10.371  34.502   3.772
12520W        W80883  42.293  40.495  14.455
12521W        W80884   0.755  15.151  13.030
12522W        W80885   8.715   0.745  10.508
12523W        W80886  38.980   3.900  13.362
12524W        W80887  17.296  44.936   1.235
12525W        W80888  12.171  35.556  13.980
12526W        W80889  41.382  26.684   3.638
12527W        W80890   8.754  22.565  10.489
12528W        W80891   2.281  18.633   2.217
12529W        W80892  33.128   9.865   4.831
12530W        W80893   4.832  24.988  10.910
12531W        W80894   4.239  28.608   1.335
12532W        W80895  36.931  21.701   2.242
12533W        W80896  14.635  15.329   4.250
12534W        W80897  34.416  14.620  13.948
12535W        W80898  10.716  36.357  13.014
12536W        W80899   2.911  35.035  12.069
12537W        W80900  15.785  29.927  12.825
12538W        W80901  34.906  41.479  12.011
12539W        W80902  33.608  19.057  11.475
12540W        W80903  28.016  19.558   2.810
12541W        W80904  32.566   1.853  14.319
12542W        W80905  14.723  14.215   1.701
12543W        W80906  13.148  29.542  13.933
12544W        W80907  31.991  38.881  11.935
12545W        W80908  34.873  35.908  10.076
12546W        W80909  34.879  35.100   4.770
12547W        W80910  40.051  25.623   2.318
12548W        W80911  33.506   4.297  12.988
12549W        W80912  30.428   3.727  10.580
12550W        W80913  26.126  39.336  12.442
12551W        W80914  25.554  39.995   1.437
12552W        W80915  35.053  40.342   4.733
12553W        W80916  28.010  20.523   4.758
12554W        W80917  44.779  28.444   2.863
12555W        W80918  32.964  15.686   3.335
12556W        W80919  37.543  34.027   1.923
12557W        W80920   7.200  42.355  12.510
12558W        W80921  23.092   5.388   1.352
12559W        W80922  37.891  17.648   4.290
12560W        W80923  12.671  22.515   0.899
12561W        W80924  24.975  28.969   4.330
12562W        W80925  24.532   5.725   4.274
12563W        W80926  17.692  12.651   0.810
12564W        W80927  34.975  15.124  14.890
12565W        W80928  21.104  17.798  10.504
12566W        W80929  28.017  27.149  13.984
12567W        W80930  16.124   8.179  11.962
12568W        W80931  35.035   9.248   2.228
12569W        W80932  25.176  28.929  12.553
12570W        W80933  30.130  22.199  14.855
12571W        W80934  11.696  29.074   4.629
12572W        W80935  41.307   3.847   0.760
12573W        W80936  22.639   3.754   0.920
12574W        W80937  26.155  37.080   3.305
12575W        W80938  11.754  44.921   0.913
12576W        W80939  35.927  22.120   3.170
12577W        W80940  13.724   9.239  12.385
12578W        W80941  26.498  28.616   3.206
12579W        W80942   3.791   5.818  14.457
12580W        W80943  23.704  39.019   4.693
12581W        W80944  30.645   4.236   0.809
12582W        W80945  21.018   9.707  13.467
12583W        W80946   9.284  21.514  11.882
12584W        W80947   6.758   6.343   1.229
12585W        W80948  39.533  23.088  13.989
12586W        W80949  40.944  11.751   3.259
12587W        W80950   3.313  10.282  11.964
12588W        W80951  11.859   4.858   5.117
12589W        W80952  11.183  31.149  12.342
12590W        W80953  43.513   4.715   4.830
12591W        W80954  41.324  40.847   1.360
12592W        W80955  17.093  25.119  12.992
12593W        W80956  10.283  14.677   2.705
12594W        W80957  18.271  41.942   2.221
12595W        W80958  27.626  14.246  12.006
12596W        W80959  13.767   6.906   4.289
12597W        W80960  22.521  28.084  12.343
12598W        W80961  11.808  41.293   1.342
12599W        W80962  14.626   4.282  14.991
12600W        W80963  37.985  13.186  10.071
12601W        W80964  27.578  38.478  14.004
12602W        W80965  24.537  31.932   1.364
12603W        W80966  36.438  32.993   0.913
12604W        W80967  30.991  14.282   1.330
12605W        W80968  16.762  23.634   4.779
12606W        W80969  37.965  32.944   0.908
12607W        W80970  42.810  32.476   1.253
12608W        W80971  20.272  17.274  11.009
12609W        W80972  40.944  32.947  14.836
12610W        W80973   3.446  39.472  12.399
12611W        W80974  30.076   4.210  12.903
12612W        W80975  15.578  13.250   4.115
12613W        W80976  32.632  11.661   2.844
12614W        W80977  13.778  18.714   3.317
12615W        W80978  19.184  14.268  11.409
12616W        W80979  28.612  33.445  11.036
12617W        W80980  31.135  25.143  11.110
12618W        W80981  29.494  17.587  13.999
12619W        W80982  11.660  38.961  13.982
12620W        W80983  43.451  15.762   3.837
12621W        W80984  33.918  18.782  11.987
12622W        W80985   0.957  25.208  12.831
12623W        W80986  13.261  36.543   2.696
12624W        W80987  42.292  12.611  12.485
12625W        W80988  10.206  12.754  10.493
12626W        W80989   4.810  42.966   1.841
12627W        W80990  17.592  27.667  11.454
12628W        W80991  38.877  25.118   4.273
12629W        W80992  32.964  32.616   4.666
12630W        W80993  34.884  35.089   3.320
12631W        W80994  27.661  22.213   2.820
12632W        W80995  12.697  25.043   4.721
12633W        W80996  39.817  26.034   2.663
12634W        W80997  19.254  15.652   4.291
12635W        W80998   7.207  33.985   4.700
12636W        W80999  12.849  11.155  13.502
12637W        W81000  40.363   6.901   4.125
12638W        W81001  11.661  33.538  12.986
12639W        W81002  28.549   6.915  13.509
12640W        W81003  11.792  35.420  10.595
12641W        W81004  19.058  26.637   0.731
12642W        W81005  25.195  24.091   3.831
12643W        W81006   5.748  10.250   4.151
12644W        W81007  39.961  10.847   4.325
12645W        W81008   9.852  17.786   4.641
12646W        W81009   4.766  17.647   4.782
12647W        W81010  43.466  23.158  11.955
12648W        W81011  34.468  26.589  11.438
12649W        W81012  18.066  34.387   2.190
12650W        W81013  31.960   8.823  11.572
12651W        W81014   7.818   8.389  13.332
12652W        W81015  32.538  30.613   4.632
12653W        W81016  43.923   7.327  14.373
12654W        W81017  12.831   1.837   1.870
12655W        W81018  40.887  28.640   2.819
12656W        W81019   1.258   4.872  10.426
12657W        W81020   7.695  15.119   2.696
12658W        W81021  18.229  41.916  10.597
12659W        W81022  20.198  10.698  11.427
12660W        W81023   8.356  39.043   2.741
12661W        W81024  18.187  19.073   0.809
12662W        W81025  33.407   1.321  12.468
12663W        W81026   4.255  15.628   0.476
12664W        W81027  25.215  22.076  14.808
12665W        W81028  37.962  28.182   1.368
12666W        W81029   8.722  43.931  13.446
12667W        W81030  44.835   0.787   9.923
12668W        W81031  14.774   4.846  11.075
12669W        W81032  35.026  10.684  14.386
12670W        W81033  22.125   6.402   4.223
12671W        W81034  39.906   8.328  13.547
12672W        W81035  25.119   8.812   0.778
12673W        W81036   2.358  15.704  14.278
12674W        W81037  44.825  16.304  12.392
12675W        W81038  39.819  18.711  13.357
12676W        W81039  30.549  11.186  11.981
12677W        W81040  30.484  25.185   4.119
12678W        W81041  28.469  37.576   4.836
12679W        W81042  22.648   7.797  14.776
12680W        W81043  37.492  27.591   3.338
12681W        W81044  12.659  18.651   2.757
12682W        W81045  25.584  10.283   4.178
12683W        W81046  29.609  26.486   0.876
12684W        W81047  28.961  38.000  11.922
12685W        W81048  12.309  17.084  12.476
12686W        W81049  20.060  14.678   2.862
12687W        W81050  38.338  38.536  11.474
12688W        W81051  16.622  12.219  14.304
12689W        W81052   4.923   4.272  10.518
12690W        W81053  16.611  37.853  14.766
12691W        W81054  20.035   0.316   1.919
12692W        W81055  40.824  21.638  12.340
12693W        W81056  24.709  12.661  12.539
12694W        W81057  22.199  24.985   1.266
12695W        W81058  25.165  14.730  13.335
12696W        W81059  29.629   2.931  11.879
12697W        W81060  33.549   4.281  11.487
12698W        W81061   5.847  42.856   0.886
12699W        W81062  31.033  12.810   3.672
12700W        W81063  12.174  38.980   4.149
12701W        W81064  28.107  38.398   0.430
12702W        W81065  12.233  40.348  12.078
12703W        W81066  14.280  44.992   2.765
12704W        W81067  13.322   1.788  13.529
12705W        W81068  29.541  10.857   2.804
12706W        W81069   4.442  43.351   5.105
12707W        W81070  27.136  41.444  13.048
12708W        W81071   7.355  37.993  12.841
12709W        W81072   0.798   8.405   1.749
12710W        W81073  35.388  36.496   2.730
12711W        W81074   6.886   6.244  14.934
12712W        W81075  26.500  24.195   3.203
12713W        W81076  39.814  39.882  10.945
12714W        W81077  34.548  13.654  11.584
12715W        W81078  20.073  34.437  12.439
12716W        W81079   7.239  36.846  13.493
12717W        W81080  44.279  21.560   1.739
12718W        W81081  25.060   7.770   4.251
12719W        W81082   6.361  25.680   0.307
12720W        W81083  32.442  33.534   0.482
12721W        W81084  15.172  10.286  13.991
12722W        W81085  33.537   1.335   0.257
12723W        W81086  12.823  13.155  13.038
12724W        W81087  44.467   0.422  11.481
12725W        W81088  11.247   5.295  14.798
12726W        W81089  37.439  12.786   3.264
12727W        W81090  41.412  14.602   4.745
12728W        W81091  11.329  28.551  13.404
12729W        W81092   8.223  32.888   1.875
12730W        W81093  34.426  26.176   1.362
12731W        W81094   6.411   4.754   3.375
12732W        W81095  29.918   4.397   2.742
12733W        W81096  43.345   5.221   1.271
12734W        W81097  33.034  13.283  13.015
12735W        W81098  23.079  11.670   2.315
12736W        W81099  12.297  28.577   2.774
12737W        W81100  15.133   5.412   5.312
12738W        W81101  24.649  19.686   4.285
12739W        W81102  30.059  31.593   4.680
12740W        W81103   6.780  34.597   0.919
12741W        W81104   0.373  16.125   2.763
12742W        W81105  21.591  37.570   2.380
12743W        W81106  24.548  22.661   2.282
12744W        W81107  27.184  28.963  14.407
12745W        W81108  27.550   5.827   4.141
12746W        W81109  14.275  17.733  10.993
12747W        W81110  24.006   2.756   1.332
12748W        W81111  10.786  26.958  12.368
12749W        W81112   9.744  20.655   0.885
12750W        W81113  19.664  20.709  14.482
12751W        W81114   7.722  25.034  11.075
12752W        W81115  23.598  37.515  11.530
12753W        W81116  31.571  15.601  10.407
12754W        W81117  43.827  29.971  13.922
12755W        W81118  21.138  22.163   2.812
12756W        W81119  37.917   0.351   1.831
12757W        W81120  25.645  33.529  10.936
12758W        W81121   6.824  10.836  14.466
12759W        W81122  19.049  41.488   0.424
12760W        W81123  41.464  15.187   1.821
12761W        W81124  13.158  33.959   0.919
12762W        W81125  30.477   6.365   4.129
12763W        W81126   8.221  29.623   1.439
12764W        W81127  22.735  14.690   3.386
12765W        W81128  20.726  38.073   2.190
12766W        W81129  34.962  26.470   3.749
12767W        W81130   3.324  17.210   4.141
12768W        W81131  13.758   5.388  13.496
12769W        W81132  19.606   3.856   2.686
12770W        W81133  12.848   0.848   0.746
12771W        W81134  10.825   4.279  11.023
12772W        W81135  12.152   7.209  10.464
12773W        W81136  22.109  28.604   2.712
12774W        W81137  16.268  25.689  14.944
12775W        W81138  16.160  12.120   3.218
12776W        W81139  31.646  40.885   0.794
12777W        W81140   0.793  37.403   2.185
12778W        W81141  34.913  16.717  13.866
12779W        W81142  40.806   7.237  11.990
12780W        W81143  27.980  18.698  12.014
12781W        W81144  19.153  17.250  10.562
12782W        W81145  37.830  12.236  12.025
12783W        W81146   7.189  13.313  12.083
12784W        W81147   5.734  36.030   1.889
12785W        W81148  18.574  43.868  14.889
12786W        W81149   7.356  10.206   1.735
12787W        W81150  25.700  27.681   0.777
12788W        W81151  12.197  40.922   2.362
12789W        W81152   2.905  10.371   1.214
12790W        W81153  16.315  41.508   0.888
12791W        W81154  18.146  29.154  10.474
12792W        W81155  29.428  44.993   0.324
12793W        W81156  42.908  28.598   3.808
12794W        W81157  27.624  24.647  14.887
12795W        W81158  17.648  40.978  14.398
12796W        W81159   8.745  43.893  12.347
12797W        W81160  10.860   1.259   2.688
12798W        W81161   4.368   1.739   1.233
12799W        W81162  28.520  44.830   2.408
12800W        W81163  37.453  32.906  13.432
12801W        W81164  33.548  29.919  11.585
12802W        W81165  35.975  27.172  11.893
12803W        W81166  41.816  23.588  11.516
12804W        W81167  30.927  43.432   1.698
12805W        W81168   2.427  28.485  14.452
12806W        W81169  31.033   5.391  12.073
12807W        W81170  40.450  35.039  12.380
12808W        W81171  30.450  33.021   2.863
12809W        W81172  26.067   1.789   3.675
12810W        W81173  12.736  27.505  10.643
12811W        W81174   7.227  41.354  13.902
12812W        W81175  41.828  20.106   1.855
12813W        W81176  12.797  17.155  13.973
12814W        W81177  43.406   0.827  12.052
12815W        W81178  18.631  28.112   0.264
12816W        W81179   5.704   2.428   4.193
12817W        W81180  15.239  29.965  12.367
12818W        W81181  20.168  13.641  13.401
12819W        W81182   9.249   5.405  14.910
12820W        W81183   8.713  38.505  14.882
12821W        W81184   6.923   5.743  13.324
12822W        W81185  13.323   9.180   0.407
12823W        W81186  15.799  44.407  14.790
12824W        W81187   5.853  31.437  13.843
12825W        W81188   2.916  40.352   2.343
12826W        W81189   6.852  24.566  14.871
12827W        W81190  28.519  24.543  12.942
12828W        W81191  26.096  34.076  13.329
12829W        W81192  15.747  11.308  11.451
12830W        W81193  14.700  43.798  12.351
12831W        W81194   9.283  17.083   3.806
12832W        W81195  14.302  28.624  12.343
12833W        W81196  30.087   1.773  13.042
12834W        W81197  21.188  24.609  12.013
12835W        W81198   3.302  13.164   0.739
12836W        W81199   9.733   8.195  14.424
12837W        W81200   8.761  32.566  11.114
12838W        W81201   5.760  19.282   4.777
12839W        W81202  23.721   6.277   2.300
12840W        W81203   6.763  33.040   2.319
12841W        W81204  13.343  26.670  12.531
12842W        W81205  33.947  29.457   2.733
12843W        W81206  22.625  23.144   2.414
12844W        W81207  14.829  16.621  11.955
12845W        W81208   4.406  18.092   2.680
12846W        W81209  40.343  15.101  13.868
12847W        W81210   3.820  39.394   2.837
12848W        W81211  10.336  37.995   0.451
12849W        W81212  10.644  11.274   3.267
12850W        W81213  32.524  15.741   3.655
12851W        W81214   6.891  42.474   3.169
12852W        W81215  26.503  23.723  12.042
12853W        W81216  12.133  18.718  14.977
12854W        W81217  17.095  23.195  12.092
12855W        W81218   6.232  11.193  11.973
12856W        W81219   8.191   4.367  11.477
12857W        W81220  30.024  23.720  12.386
12858W        W81221  22.518  37.456   4.242
12859W        W81222  17.659  42.507  13.016
12860W        W81223  15.328  20.162   0.917
12861W        W81224  14.757  28.495   4.229
12862W        W81225  26.086  35.543  11.042
12863W        W81226  44.331  35.580  11.966
12864W        W81227  40.465  19.247   3.633
12865W        W81228  10.276  31.563  11.399
12866W        W81229  25.160  35.388  13.897
12867W        W81230   7.693  30.123   0.739
12868W        W81231  40.377  28.523   4.749
12869W        W81232  28.576  38.331   1.878
12870W        W81233  37.581   7.828   1.757
12871W        W81234  31.899  25.022   4.346
12872W        W81235   3.415   5.808   3.630
12873W        W81236  39.025   4.901   3.229
12874W        W81237  40.391  11.818  11.004
12875W        W81238  33.070   4.897  12.510
12876W        W81239   5.270  14.274   1.924
12877W        W81240  11.156  30.974   0.430
12878W        W81241   5.708  10.318   0.760
12879W        W81242  30.091  42.842  12.875
12880W        W81243  16.777  17.635   0.361
12881W        W81244  21.243   5.392   4.781
12882W        W81245   6.299  12.610  13.011
12883W        W81246   0.787  42.480   2.850
12884W        W81247  28.664  38.415  11.081
12885W        W81248  17.753  24.513   4.805
12886W        W81249  16.240  39.876  13.936
12887W        W81250  18.619  28.532   3.837
12888W        W81251  26.206  36.454  10.637
12889W        W81252  10.723   7.256   0.797
12890W        W81253  18.750   8.278  13.535
12891W        W81254  16.147   8.806   4.665
12892W        W81255   6.347   1.827  14.806
12893W        W81256   9.233   4.859  14.370
12894W        W81257   7.818   1.839  12.944
12895W        W81258  17.303  20.714   0.429
12896W        W81259  25.702  13.289  14.890
12897W        W81260  17.665  14.238  14.018
12898W        W81261  15.178   1.855   0.372
12899W        W81262   0.296  12.188   0.884
12900W        W81263   7.868  32.517  10.462
12901W        W81264  16.663   9.309   4.230
12902W        W81265   3.919  43.516   9.635
12903W        W81266   7.812  16.812  12.549
12904W        W81267  14.741  40.447   0.300
12905W        W81268  10.755   5.778   2.735
12906W        W81269  40.815  24.550   2.835
12907W        W81270  24.094  30.028   4.139
12908W        W81271  28.646  41.385  13.414
12909W        W81272  15.280  32.401   0.803
12910W        W81273  33.412   8.798   1.361
12911W        W81274   9.727  37.413  12.572
12912W        W81275  15.238  36.998   0.369
12913W        W81276  22.665  16.227   2.680
12914W        W81277  19.102  19.575   3.849
12915W        W81278  21.236  42.283  10.608
12916W        W81279   6.212  16.236   0.303
12917W        W81280   6.744  34.466  14.960
12918W        W81281  11.171   2.853   1.768
12919W        W81282  24.578  38.854   1.403
12920W        W81283  16.699  32.401   1.261
12921W        W81284   6.859  28.450  11.588
12922W        W81285   0.753  40.412   1.287
12923W        W81286   3.322  21.534   4.789
12924W        W81287  14.282   9.726   3.219
12925W        W81288   5.697   8.791  14.336
12926W        W81289  32.070  11.357   4.708
12927W        W81290  36.046  24.618   1.272
12928W        W81291  27.020  27.037  14.801
12929W        W81292   2.241  42.475  11.374
12930W        W81293  19.682  13.798   3.697
12931W        W81294  38.000  24.000   3.862
12932W        W81295  34.945   3.749  12.489
12933W        W81296  20.609  27.098   4.204
12934W        W81297  20.100   3.744  13.542
12935W        W81298   9.674  22.015  11.422
12936W        W81299  17.268  22.510  11.511
12937W        W81300  11.250  35.954  12.850
12938W        W81301  11.696   8.831   1.384
12939W        W81302  23.556   5.337  13.838
12940W        W81303  37.872  31.494  10.504
12941W        W81304  28.487  19.081  10.916
12942W        W81305  40.385  17.228  12.907
12943W        W81306   1.743  26.579   0.270
12944W        W81307  39.827  10.648   3.789
12945W        W81308  39.881  20.059  10.471
12946W        W81309  30.112  35.884   2.395
12947W        W81310   6.836  19.635  12.897
12948W        W81311   9.152  42.871  11.862
12949W        W81312  32.993   8.361   3.287
12950W        W81313  43.447  33.908   0.871
12951W        W81314  42.002   3.720  10.914
12952W        W81315  28.507  20.663   0.768
12953W        W81316   3.727  25.516   2.294
12954W        W81317   6.339  25.120  14.336
12955W        W81318  39.499  36.532   2.280
12956W        W81319   4.829  34.449  11.462
12957W        W81320  43.460  25.188   4.127
12958W        W81321  29.486   6.723   3.711
12959W        W81322   4.240   2.335   2.353
12960W        W81323   7.694  11.859  14.350
12961W        W81324   7.179  41.805   2.798
12962W        W81325  36.515  27.646  10.491
12963W        W81326  23.038  29.534   1.840
12964W        W81327  12.324  24.992  13.997
12965W        W81328  14.761  22.080  12.415
12966W        W81329   0.882  40.331   2.289
12967W        W81330  27.672  12.302  10.587
12968W        W81331  31.413   7.302  13.055
12969W        W81332  24.026  15.242   2.371
12970W        W81333   4.844   6.394   0.759
12971W        W81334  33.402  20.583  11.559
12972W        W81335  33.622   1.809   1.911
12973W        W81336  21.060  17.722  14.380
12974W        W81337  39.454  26.529  11.384
12975W        W81338  25.698  22.028  12.900
12976W        W81339  21.522  24.613   2.825
12977W        W81340  26.203   5.857  14.446
12978W        W81341   6.894  31.070  12.574
12979W        W81342   4.846  21.119   0.885
12980W        W81343  15.168  36.871  10.925
12981W        W81344  22.149   6.765   3.208
12982W        W81345  13.166  42.945  12.933
12983W        W81346  40.871   2.845   1.895
12984W        W81347  43.465  15.698   1.335
12985W        W81348  35.934  19.204  11.484
12986W        W81349   6.913  38.934   1.882
12987W        W81350  21.058  27.130  13.967
12988W        W81351  42.317  21.576  10.970
12989W        W81352  27.155  40.396  12.342
12990W        W81353   6.276  21.141  10.621
12991W        W81354  42.427  14.280   0.899
12992W        W81355  34.486  38.029   3.739
12993W        W81356  29.960  39.819   4.645
12994W        W81357  21.159  31.516  10.094
12995W        W81358  30.130  28.671   3.670
12996W        W81359  35.035  42.961  13.402
12997W        W81360  15.329  28.156   0.419
12998W        W81361  35.106  19.700  13.024
12999W        W81362   5.405  30.593  12.394
13000W        W81363  27.508  11.324  14.359
13001W        W81364  17.081  32.011   2.303
13002W        W81365  32.028  39.379  13.894
13003W        W81366   9.241   3.933  12.915
13004W        W81367  35.589  18.071  14.798
13005W        W81368  40.018  31.613   4.140
13006W        W81369  34.436   0.279   4.242
13007W        W81370  13.725  20.587   2.328
13008W        W81371  42.372  17.293  12.548
13009W        W81372   5.766   9.300   1.263
13010W        W81373  35.380  30.963  10.519
13011W        W81374  33.430  24.693  10.888
13012W        W81375  17.779  37.850   1.776
13013W        W81376   1.253  44.359   2.384
13014W        W81377   0.899  37.411   2.829
13015W        W81378  41.939  15.649   3.663
13016W        W81379  10.364   7.902   4.354
13017W        W81380   7.746   2.468  13.968
13018W        W81381  42.472  18.746  13.047
13019W        W81382  17.249   4.720  13.012
13020W        W81383  22.519  27.030   1.781
13021W        W81384   1.935  43.813   3.681
13022W        W81385  28.971  42.908  12.000
13023W        W81386  13.127  37.031  14.434
13024W        W81387  32.136  34.974   4.736
13025W        W81388  27.608  39.863   2.895
13026W        W81389  16.164   2.855   3.767
13027W        W81390   1.891  21.038   0.446
13028W        W81391   3.242  44.972  11.883
13029W        W81392   5.428  14.121  11.113
13030W        W81393  11.205  25.085   4.641
13031W        W81394  37.937   8.756   4.643
13032W        W81395  17.277  42.514  14.822
13033W        W81396  24.602  41.513  14.292
13034W        W81397  32.439  41.321  14.897
13035W        W81398  16.115   0.478   3.770
13036W        W81399  35.059   6.733  10.568
13037W        W81400  20.196  22.205   4.838
13038W        W81401  31.600  39.821   1.374
13039W        W81402  15.168   3.762  14.320
13040W        W81403  24.161  29.491   3.296
13041W        W81404  20.217   2.447   0.264
13042W        W81405  44.445  14.657   3.314
13043W        W81406  29.043  24.208  14.329
13044W        W81407  28.994  23.674   3.268
13045W        W81408   1.952   6.781  10.553
13046W        W81409  28.636   6.235  11.109
13047W        W81410  39.478  10.673   3.322
13048W        W81411   7.337  28.015   1.726
13049W        W81412  38.447   8.181  11.033
13050W        W81413  23.615  36.516   2.814
13051W        W81414   9.723   8.863  11.113
13052W        W81415   3.330  16.281   4.780
13053W        W81416  15.702  36.582  14.515
13054W        W81417  39.429  15.756  12.931
13055W        W81418   9.223  44.959   3.690
13056W        W81419  28.594  12.667   2.356
13057W        W81420  17.717  19.727  10.612
13058W        W81421   5.293   6.359   3.803
13059W        W81422  18.204  25.963  13.018
13060W        W81423   0.475   2.736  10.571
13061W        W81424  32.091  21.658  14.863
13062W        W81425   3.940  16.219  14.460
13063W        W81426   2.441  36.094   2.406
13064W        W81427  32.390  28.476   9.651
13065W        W81428  33.482  25.648   1.728
13066W        W81429  28.626  24.667  14.852
13067W        W81430  25.594  12.847   2.818
13068W        W81431   7.678  13.110  12.844
13069W        W81432  37.949  29.949  10.998
13070W        W81433  18.135  31.005   0.905
13071W        W81434   3.319  39.476  13.796
13072W        W81435  20.255   2.915  12.870
13073W        W81436   8.726  30.605   4.187
13074W        W81437   3.925  20.093  12.868
13075W        W81438  28.650  39.409   1.254
13076W        W81439  32.501   6.917   1.734
13077W        W81440  44.410  27.049  14.013
13078W        W81441  30.641   9.262  10.580
13079W        W81442  32.919  33.611   3.825
13080W        W81443  33.438   1.412   1.801
13081W        W81444   2.938   1.953  12.352
13082W        W81445  23.200  10.217  11.542
13083W        W81446  20.706  31.594  13.849
13084W        W81447  10.749   6.361  11.509
13085W        W81448   2.907  20.669  13.956
13086W        W81449  14.297  34.998   4.301
13087W        W81450   6.317  19.154   2.880
13088W        W81451  39.886  42.862  14.953
13089W        W81452   7.361  17.121   2.198
13090W        W81453   3.915  43.275  11.021
13091W        W81454  36.014  34.592  14.000
13092W        W81455  11.326  24.542  13.415
13093W        W81456   5.911  26.569  11.568
13094W        W81457   0.458  15.182  14.371
13095W        W81458   4.230  24.543   5.106
13096W        W81459  25.134   1.476   2.254
13097W        W81460  29.621  26.682  11.474
13098W        W81461   0.435  32.119   0.361
13099W        W81462  28.552   7.787  12.852
13100W        W81463   1.341  18.710  10.539
13101W        W81464  26.545  22.019  10.467
13102W        W81465  40.048  23.115   0.889
13103W        W81466  35.551  13.625  13.925
13104W        W81467  34.980  28.077   0.374
13105W        W81468  44.916  35.974  13.881
13106W        W81469  18.582   0.982   1.722
13107W        W81470   8.398  37.349   1.361
13108W        W81471  37.373  31.621  12.350
13109W        W81472   1.372  28.956  13.482
13110W        W81473  19.716  14.663  14.804
13111W        W81474  39.010  30.491   1.694
13112W        W81475  33.030  22.632   2.818
13113W        W81476  18.178  27.489   2.319
13114W        W81477  32.014   3.899  12.955
13115W        W81478  26.122   5.806  14.775
13116W        W81479   5.318  41.388  14.327
13117W        W81480  10.715  25.558  10.950
13118W        W81481  28.667  38.561   2.359
13119W        W81482  11.701   0.963  14.996
13120W        W81483  39.410  39.513  11.929
13121W        W81484  36.369  43.333  10.481
13122W        W81485  43.790  31.905   3.854
13123W        W81486  19.599  44.308  11.869
13124W        W81487   3.738  16.105   0.959
13125W        W81488  27.553  33.465  11.419
13126W        W81489  33.906  36.590   4.735
13127W        W81490   0.968  13.667   3.710
13128W        W81491  26.556  44.323  12.499
13129W        W81492  10.223  26.984  14.383
13130W        W81493  26.109  36.096  10.504
13131W        W81494   1.409  33.542   0.295
13132W        W81495   2.848   4.853   0.826
13133W        W81496   6.258  32.599   3.825
13134W        W81497  19.607  14.303  12.912
13135W        W81498   4.935  22.707   2.696
13136W        W81499  16.289  23.536  12.037
13137W        W81500  22.120  39.416  11.075
13138W        W81501   2.902  11.345  13.944
13139W        W81502  17.788  42.006  12.028
13140W        W81503   0.831  17.083   1.225
13141W        W81504  20.655  22.703   1.705
13142W        W81505  10.801  40.859   1.438
13143W        W81506   6.748  35.909  14.841
13144W        W81507  34.061  39.926   4.804
13145W        W81508  43.986   6.187  11.453
13146W        W81509   5.224  32.951  13.491
13147W        W81510   8.657  37.426   3.702
13148W        W81511  23.597  42.795   3.746
13149W        W81512  36.560  31.023   0.935
13150W        W81513  30.155   9.211   1.233
13151W        W81514  34.610  36.577   3.698
13152W        W81515  14.239  23.229   3.238
13153W        W81516  39.349   4.263  13.022
13154W        W81517  35.587  36.853  12.526
13155W        W81518   0.956  26.466  13.369
13156W        W81519  23.159  33.960  10.411
13157W        W81520  41.825  44.799  10.638
13158W        W81521  41.402  15.106   3.720
13159W        W81522   4.327  38.043  13.004
13160W        W81523  27.483  44.862   3.828
13161W        W81524  30.100  40.521  13.999
13162W        W81525  35.863  23.130   2.894
13163W        W81526  41.007  10.852   4.271
13164W        W81527  35.869  42.491   1.932
13165W        W81528  32.604   3.401  13.420
13166W        W81529  21.047   0.275  12.563
13167W        W81530  41.334   8.348  14.291
13168W        W81531  11.330  36.070  13.808
13169W        W81532   8.732  43.933   1.853
13170W        W81533  38.011  28.011  11.603
13171W        W81534  26.159  11.136  13.453
13172W        W81535   8.900  22.049   2.366
13173W        W81536   8.742  16.670   4.160
13174W        W81537  33.466  10.361  14.883
13175W        W81538  11.165  33.412  12.401
13176W        W81539  10.790   3.811  13.952
13177W        W81540  40.884  21.683  13.316
13178W        W81541  38.982  23.134   2.391
13179W        W81542  42.501  29.934   1.843
13180W        W81543  21.530   2.377  14.910
13181W        W81544  11.824  30.032  14.378
13182W        W81545  36.556   8.685  13.423
13183W        W81546  32.131  32.071   1.792
13184W        W81547  36.872  12.339   0.328
13185W        W81548  39.876  24.585   1.760
13186W        W81549   9.307  24.974  10.148
13187W        W81550  28.524   0.398  12.385
13188W        W81551  19.269  33.618   4.800
13189W        W81552  16.264   0.367  11.088
13190W        W81553   5.262  13.163   0.862
13191W        W81554  29.065  16.252   0.445
13192W        W81555  38.001   4.857   0.454
13193W        W81556  24.706   0.352   2.713
13194W        W81557  28.127  14.309  13.056
13195W        W81558  16.716  21.590   3.683
13196W        W81559  13.716   3.415   1.736
13197W        W81560  40.456  43.364   3.765
13198W        W81561  11.318  31.621  12.004
13199W        W81562  27.485  17.307   3.653
13200W        W81563   2.923  16.580  13.315
13201W        W81564  20.113  40.015   1.696
13202W        W81565  32.968  21.042   4.615
13203W        W81566  16.629   9.233   2.210
13204W        W81567  36.052  11.336   4.750
13205W        W81568  19.598  43.277  11.559
13206W        W81569  23.102  17.222   3.232
13207W        W81570  31.632  17.684   3.246
13208W        W81571  35.042  23.535   3.374
13209W        W81572   7.892  18.257   0.422
13210W        W81573  42.019  25.144  13.341
13211W        W81574  41.352  39.963  13.481
13212W        W81575   9.787   0.381  10.544
13213W        W81576  35.950  30.956   0.349
13214W        W81577   7.209  34.017   3.667
13215W        W81578  19.122  22.248  11.984
13216W        W81579  24.516  11.160   4.316
13217W        W81580  36.879  33.977  12.910
13218W        W81581  25.617  13.687  14.769
13219W        W81582  35.598  21.735   4.351
13220W        W81583  32.416  21.614  11.582
13221W        W81584  41.498  44.409  12.907
13222W        W81585  17.606  11.350   3.204
13223W        W81586   3.874  36.049   3.779
13224W        W81587  19.048  33.962  12.880
13225W        W81588  32.544   6.414   3.639
13226W        W81589  19.717  21.052   1.288
13227W        W81590  13.114   3.285   3.260
13228W        W81591  43.475  10.757   4.837
13229W        W81592  23.047   2.759  13.343
13230W        W81593  30.919   2.774   4.637
13231W        W81594  29.062   2.880   3.825
13232W        W81595  25.542  34.415   1.310
13233W        W81596  36.404  11.255   2.702
13234W        W81597  31.980  26.653   1.383
13235W        W81598  40.520  23.160   2.808
13236W        W81599  27.058  32.492   3.236
13237W        W81600  34.945   6.371   4.210
13238W        W81601  17.090  39.979  14.443
13239W        W81602  24.048  27.192   2.859
13240W        W81603  43.911  24.560   0.428
13241W        W81604  39.066   9.755  12.433
13242W        W81605  44.000  17.745  11.481
13243W        W81606  22.634   1.271   2.402
13244W        W81607  28.543   3.812  13.349
13245W        W81608  21.124  14.632  14.306
13246W        W81609  37.834  30.007   2.785
13247W        W81610  22.186  20.211  10.571
13248W        W81611  31.933   7.899   2.695
13249W        W81612   3.741  26.126  11.521
13250W        W81613   6.708  24.231   3.666
13251W        W81614  20.145  35.905  10.596
13252W        W81615  12.146  21.728   2.837
13253W        W81616  22.212  36.846  14.370
13254W        W81617  19.740  37.440  12.893
13255W        W81618   6.679  25.550   2.263
13256W        W81619  41.868  19.715  12.379
13257W        W81620   3.832   7.742  12.934
13258W        W81621  20.679  31.549   3.820
13259W        W81622  15.804  15.112   5.280
13260W        W81623  22.596  43.020  11.524
13261W        W81624  35.434  38.490   3.853
13262W        W81625  18.261  39.000   3.734
13263W        W81626   0.957  42.895  12.840
13264W        W81627  27.547   3.892   3.249
13265W        W81628  18.623  15.703   1.446
13266W        W81629  23.648  40.014  12.829
13267W        W81630  42.846  40.326  10.959
13268W        W81631  24.599  43.888  14.769
13269W        W81632  10.161   7.264  11.570
13270W        W81633   6.326  35.958  10.941
13271W        W81634  20.091  31.554   0.340
13272W        W81635  20.726   5.209  14.791
13273W        W81636  24.033  28.490   0.849
13274W        W81637   9.227  26.054   0.827
13275W        W81638  41.904  37.517  10.453
13276W        W81639  30.483  41.295  11.402
13277W        W81640   6.419  39.505  13.881
13278W        W81641   4.355  35.084   1.371
13279W        W81642  26.092  34.380  12.087
13280W        W81643  29.930  37.872   2.798
13281W        W81644  44.755  24.519  14.288
13282W        W81645  17.790  29.455   2.331
13283W        W81646  17.273  39.992  12.087
13284W        W81647   5.209  42.912  13.869
13285W        W81648  20.157  26.622  14.973
13286W        W81649  15.120  37.876   2.252
13287W        W81650   8.799  16.255   2.204
13288W        W81651  15.759  16.571   4.716
13289W        W81652  23.493  28.096   4.712
13290W        W81653  17.075   6.889  10.997
13291W        W81654  44.363   8.825   2.402
13292W        W81655  12.824  37.001   2.401
13293W        W81656  44.822  19.194  13.369
13294W        W81657  21.651  15.159  11.486
13295W        W81658  10.295  11.771   5.196
13296W        W81659  20.164  13.324  12.453
13297W        W81660  14.277  39.063   3.207
13298W        W81661  11.348   5.810   2.865
13299W        W81662  34.961  36.078   1.932
13300W        W81663  10.774  33.091  10.432
13301W        W81664   1.895  18.252   4.716
13302W        W81665  15.635  29.504   5.122
13303W        W81666   5.695  13.705  14.811
13304W        W81667   7.837  25.019  14.969
13305W        W81668  32.099  30.455   4.275
13306W        W81669   7.409  38.482  13.379
13307W        W81670  27.557  33.005   1.927
13308W        W81671  32.009   2.378  13.848
13309W        W81672  27.601  40.930  14.433
13310W        W81673  36.465  26.185   2.732
13311W        W81674  10.335   4.421  12.459
13312W        W81675  32.456  42.456   3.831
13313W        W81676  40.970   9.756  10.551
13314W        W81677   8.723   8.679   1.737
13315W        W81678   7.785  44.404  14.869
13316W        W81679  12.661   6.296   2.862
13317W        W81680  29.024  43.908   3.681
13318W        W81681  38.491  38.856  13.899
13319W        W81682   7.890  33.528   4.742
13320W        W81683  13.225   9.295   1.267
13321W        W81684  30.643  28.947   2.778
13322W        W81685  36.565  19.722   3.370
13323W        W81686  29.135  32.964   4.123
13324W        W81687   2.367   2.796   2.253
13325W        W81688   2.841  12.741   1.267
13326W        W81689  32.128  17.756   1.854
13327W        W81690  10.187   3.845  12.859
13328W        W81691  34.497  34.426  11.021
13329W        W81692  41.803  18.672  14.396
13330W        W81693  19.726  25.525   2.353
13331W        W81694  38.949  42.914  12.576
13332W        W81695  21.188  36.989   1.420
13333W        W81696  42.820  32.919  13.944
13334W        W81697  34.084  10.843   4.166
13335W        W81698  43.324  32.394   3.254
13336W        W81699  16.585  25.537   2.822
13337W        W81700  23.109  24.637   0.815
13338W        W81701  22.125  41.335  14.790
13339W        W81702  11.154   7.330  14.306
13340W        W81703  41.381  43.942  12.428
13341W        W81704   5.775  33.124  13.356
13342W        W81705   1.889  27.517  11.959
13343W        W81706  32.417  14.613   3.314
13344W        W81707   1.375   2.387   2.899
13345W        W81708  17.241  15.286   4.300
13346W        W81709  41.970  17.265   5.248
13347W        W81710  41.817  10.825  13.472
13348W        W81711  40.345  42.952  14.295
13349W        W81712  39.511  26.582  12.848
13350W        W81713  25.014  11.671  14.898
13351W        W81714  10.292  33.509  12.480
13352W        W81715  16.792  19.172  13.389
13353W        W81716  16.617   6.882  14.296
13354W        W81717   8.875  11.186  13.962
13355W        W81718   5.273  10.722  12.025
13356W        W81719   3.744   5.697  13.518
13357W        W81720   6.726  23.655   0.433
13358W        W81721  16.636  38.989  13.413
13359W        W81722  10.152   3.435   2.818
13360W        W81723   8.715  33.558   4.603
13361W        W81724  39.062  14.227   1.816
13362W        W81725  11.674  31.629   0.348
13363W        W81726  43.771   7.705   4.819
13364W        W81727  33.927  34.507  11.011
13365W        W81728  22.691  41.812   3.829
13366W        W81729  15.220  15.615  12.514
13367W        W81730  22.526  31.957   3.251
13368W        W81731  16.185  14.811  10.569
13369W        W81732  27.169   1.377   1.694
13370W        W81733  35.951  42.375  13.974
13371W        W81734  35.060   4.809   4.661
13372W        W81735  29.657  13.242   0.303
13373W        W81736  12.733  37.960  14.819
13374W        W81737  17.584  15.790   1.700
13375W        W81738  35.360  27.580   1.909
13376W        W81739  17.720  21.628   2.283
13377W        W81740  38.987  36.994   2.841
13378W        W81741  14.699  44.791  14.905
13379W        W81742  17.668   3.461   5.134
13380W        W81743  36.370  43.496  14.956
13381W        W81744  22.688  31.927   1.280
13382W        W81745  11.809  38.507   0.465
13383W        W81746  26.141  21.531   2.734
13384W        W81747  33.486   2.841  14.283
13385W        W81748   2.332   5.322  13.064
13386W        W81749   9.841  32.960  14.992
13387W        W81750  42.921  36.036   4.797
13388W        W81751  38.563  35.928  11.537
13389W        W81752   0.334   6.731  13.431
13390W        W81753  13.694  18.610   0.431
13391W        W81754   9.794  23.069  13.933
13392W        W81755   4.246   4.413  13.343
13393W        W81756  29.084  40.537   2.889
13394W        W81757   5.375  35.100   0.824
13395W        W81758   6.719  39.538  14.771
13396W        W81759  14.187  16.174  13.056
13397W        W81760  33.129  24.692   3.145
13398W        W81761  27.573   0.429  13.978
13399W        W81762  12.660  17.793   1.876
13400W        W81763  43.402  13.181  10.601
13401W        W81764   2.819  20.598  11.956
13402W        W81765   2.388   7.874   0.916
13403W        W81766  11.798   0.775  10.928
13404W        W81767  22.710  31.053  14.880
13405W        W81768  28.577  37.963   0.871
13406W        W81769  41.507   8.850   0.823
13407W        W81770  20.595  34.398  10.939
13408W        W81771   7.265  29.004   4.828
13409W        W81772  32.060   3.852  14.901
13410W        W81773  41.862  26.107  13.875
13411W        W81774  38.822   0.966  12.986
13412W        W81775  20.641  31.499   1.270
13413W        W81776  39.042  28.181  14.766
13414W        W81777  39.380  31.582  12.355
13415W        W81778  19.736  42.015  12.986
13416W        W81779  26.036   0.926   3.224
13417W        W81780  18.576  44.371   3.689
13418W        W81781  28.048  19.098   2.830
13419W        W81782  27.615  19.286  13.443
13420W        W81783  28.956  20.756   4.185
13421W        W81784   9.326  11.775   4.280
13422W        W81785  24.176  43.884  12.423
13423W        W81786  27.456  19.615   0.756
13424W        W81787  35.947  38.841   2.245
13425W        W81788  34.957  20.145   2.792
13426W        W81789  33.457  32.469   4.819
13427W        W81790  22.234   6.216  12.515
13428W        W81791  24.061   6.345  10.621
13429W        W81792  21.608  27.460   2.211
13430W        W81793   2.246   9.699   4.131
13431W        W81794   1.383   0.362   4.747
13432W        W81795   8.748   5.734   4.630
13433W        W81796  13.227  33.990   1.842
13434W        W81797  38.546  28.937   3.250
13435W        W81798  22.079   3.304  12.366
13436W        W81799  17.268   4.269   3.356
13437W        W81800  40.421   4.320  13.920
13438W        W81801  20.251  23.715  12.342
13439W        W81802  32.500  17.621  13.393
13440W        W81803  43.909   7.229   4.694
13441W        W81804  17.085   5.777  10.149
13442W        W81805  27.111  43.898   1.342
13443W        W81806  37.561   4.303   4.624
13444W        W81807  16.226  15.663  11.971
13445W        W81808  41.959  15.171   0.312
13446W        W81809   5.386   1.461   1.212
13447W        W81810   6.871   4.212  13.512
13448W        W81811  36.385  17.582   3.868
13449W        W81812  42.853  36.474  12.028
13450W        W81813   6.748  15.112  13.539
13451W        W81814  44.488  15.091  13.375
13452W        W81815  39.356  44.814  14.381
13453W        W81816   3.947  41.860  14.452
13454W        W81817  23.510  15.101   3.366
13455W        W81818  21.584   1.746  14.466
13456W        W81819  41.867  23.216  14.986
13457W        W81820  18.729  41.458  12.411
13458W        W81821  27.065   1.382   3.692
13459W        W81822  43.423  16.082   0.826
13460W        W81823  27.622  27.112  12.973
13461W        W81824  10.195  43.454   2.839
13462W        W81825  11.130   5.794  11.483
13463W        W81826   8.309  15.592  12.033
13464W        W81827  33.485   2.799  10.909
13465W        W81828   5.369  30.021  12.920
13466W        W81829  19.284   4.275   1.383
13467W        W81830   1.977  25.504  14.467
13468W        W81831  16.801  24.721   0.268
13469W        W81832   7.814  43.964  11.576
13470W        W81833  33.957  41.911  12.028
13471W        W81834   1.370  38.570   4.660
13472W        W81835  19.208  36.544   3.642
13473W        W81836  42.348  16.206   3.295
13474W        W81837  26.647  43.012  14.026
13475W        W81838  19.212   1.344   0.275
13476W        W81839   5.910  40.974   1.825
13477W        W81840  30.016  26.493  14.908
13478W        W81841  39.056   6.342   4.207
13479W        W81842  17.300  44.261  11.481
13480W        W81843  42.843  28.099  11.476
13481W        W81844   3.756   9.760  12.853
13482W        W81845  34.087   0.301   0.821
13483W        W81846  28.107  23.070   3.661
13484W        W81847  28.041  33.909   3.863
13485W        W81848  15.113  27.545   0.896
13486W        W81849  18.068   3.444   1.727
13487W        W81850  24.719  32.483   4.779
13488W        W81851  41.438  10.761   4.726
13489W        W81852  37.552   4.778  13.520
13490W        W81853  14.224  37.356   3.162
13491W        W81854  14.332   6.280   2.306
13492W        W81855  25.049  11.652  13.004
13493W        W81856  26.054  36.419   2.882
13494W        W81857  37.469  24.199   0.956
13495W        W81858  24.598  25.496  10.969
13496W        W81859   4.289  10.731  14.331
13497W        W81860  30.596  44.797  14.910
13498W        W81861  10.367   0.892  11.542
13499W        W81862   1.972  18.784  12.456
13500W        W81863  20.543  10.868  13.380
13501W        W81864  33.394  25.043   2.240
13502W        W81865  29.094  24.098  12.524
13503W        W81866  26.964  43.976   1.850
13504W        W81867  39.469   3.399  10.946
13505W        W81868   7.816   2.274  14.912
13506W        W81869  13.307   9.726   2.265
13507W        W81870  14.282  20.246  10.458
13508W        W81871  30.995  24.000  13.345
13509W        W81872  25.528  41.507  13.018
13510W        W81873  38.973  20.614  11.425
13511W        W81874  37.998  37.946  11.451
13512W        W81875  14.665   4.944   2.829
13513W        W81876  40.461  31.988   3.171
13514W        W81877  20.552  42.382   4.776
13515W        W81878  21.234  27.029  11.412
13516W        W81879  35.358  16.151  14.770
13517W        W81880  10.816  38.833  11.466
13518W        W81881   8.323  34.005  13.372
13519W        W81882  23.202  37.493  14.884
13520W        W81883   8.327  29.600  14.426
13521W        W81884   7.804  37.894   1.259
13522W        W81885  17.142  14.273  12.512
13523W        W81886  28.939  23.682   4.653
13524W        W81887  30.604  17.166   2.367
13525W        W81888  33.435  37.859  12.572
13526W        W81889  31.421  30.495  11.532
13527W        W81890  24.194   6.284  11.561
13528W        W81891  30.641   1.875  11.082
13529W        W81892  16.113  43.370  12.978
13530W        W81893  31.028  30.451  12.453
13531W        W81894  13.161  44.270  12.080
13532W        W81895  11.831   0.902   3.723
13533W        W81896  38.890  12.809   5.215
13534W        W81897  43.408   7.665   3.207
13535W        W81898   9.240  33.379  11.012
13536W        W81899  22.663   6.332   4.789
13537W        W81900  25.079  41.308  10.980
13538W        W81901  22.145  36.508   3.785
13539W        W81902   5.289  43.908  12.049
13540W        W81903  19.760  41.979  11.565
13541W        W81904  13.297  44.835  10.899
13542W        W81905  37.367  31.416  12.008
13543W        W81906  32.513  16.663   0.750
13544W        W81907  44.859  39.335   1.301
13545W        W81908  13.285  42.876  14.433
13546W        W81909  40.450  27.063   1.744
13547W        W81910  13.342  28.566   0.838
13548W        W81911  23.157  21.696   0.815
13549W        W81912  11.226  23.698   0.861
13550W        W81913  18.183  33.548  14.782
13551W        W81914  33.431  15.311  13.378
13552W        W81915  40.806   5.923   4.638
13553W        W81916  19.077  26.554   4.809
13554W        W81917   1.833  42.384   0.761
13555W        W81918  38.453   2.962  12.834
13556W        W81919   8.858   2.258   5.257
13557W        W81920   1.895  40.944  14.966
13558W        W81921  19.752  37.051  13.375
13559W        W81922  14.794   8.362  11.067
13560W        W81923  19.068  24.085   2.311
13561W        W81924   9.264   8.255   1.745
13562W        W81925   7.256  13.209  10.425
13563W        W81926  22.088  31.591  14.391
13564W        W81927  22.104  17.757  13.332
13565W        W81928   1.900  12.704  13.519
13566W        W81929  20.096   9.710  14.477
13567W        W81930  18.126  26.538  12.957
13568W        W81931  21.585   0.445  12.366
13569W        W81932  44.264  11.296  11.451
13570W        W81933  39.984   7.737   4.639
13571W        W81934  22.013  19.084   2.830
13572W        W81935  31.936   1.749  14.925
13573W        W81936  26.084   0.421   1.402
13574W        W81937  39.982   7.785  12.033
13575W        W81938  20.239  24.119  10.470
13576W        W81939  41.018  36.056   4.239
13577W        W81940  11.709  42.973   9.957
13578W        W81941  33.939  15.720   1.856
13579W        W81942   0.345   0.821   2.662
13580W        W81943  21.231   9.807  14.401
13581W        W81944  34.009   4.273  14.340
13582W        W81945  29.053  19.737  13.462
13583W        W81946  41.470  22.631  13.825
13584W        W81947   2.432   7.730  11.978
13585W        W81948  43.781  37.042   2.322
13586W        W81949  35.464  14.817   0.950
13587W        W81950  17.204  23.735  12.065
13588W        W81951  26.957  13.273  11.005
13589W        W81952  37.392   6.871  13.060
13590W        W81953  44.869  23.080   1.330
13591W        W81954   5.721  17.733  10.409
13592W        W81955   8.671  31.934  14.375
13593W        W81956   1.821  26.667  10.916
13594W        W81957  44.291  12.332  12.093
13595W        W81958  10.368  43.791   4.243
13596W        W81959  43.483  37.971  10.603
13597W        W81960  30.424  30.458  14.462
13598W        W81961  18.742  44.771  14.359
13599W        W81962   8.690  13.710   2.827
13600W        W81963  21.190   3.277  11.535
13601W        W81964  26.123  38.363  10.479
13602W        W81965  17.276  14.124   1.262
13603W        W81966  42.480  32.410   4.717
13604W        W81967  22.505   1.378  14.014
13605W        W81968  19.769  10.862   0.892
13606W        W81969  28.051  21.668  11.998
13607W        W81970  37.040  12.849   3.320
13608W        W81971   6.712  20.106   3.236
13609W        W81972  38.069  34.586  12.440
13610W        W81973  31.460   9.391  10.518
13611W        W81974  11.366  24.120   0.411
13612W        W81975  30.484  32.933   0.468
13613W        W81976   6.351   5.377   2.287
13614W        W81977  32.020  43.500   3.745
13615W        W81978   3.874   7.286  14.426
13616W        W81979  43.303  32.105   9.975
13617W        W81980   5.773   2.822   1.777
13618W        W81981  12.692  32.119   4.264
13619W        W81982   5.429  37.880  11.983
13620W        W81983  37.839  25.607  12.550
13621W        W81984  43.299  15.093   2.817
13622W        W81985  35.008  31.480   1.218
13623W        W81986   2.818  16.262  13.974
13624W        W81987  35.442  40.490   0.338
13625W        W81988  15.814   0.305  13.859
13626W        W81989  26.956  20.711  13.901
13627W        W81990  18.585   2.440   1.775
13628W        W81991  38.959   7.182   2.280
13629W        W81992  25.062  27.120   2.751
13630W        W81993  36.876  43.920  12.426
13631W        W81994  16.097   4.309   5.223
13632W        W81995  16.684  20.573  11.084
13633W        W81996   3.855  11.356  10.467
13634W        W81997  31.474  37.830   0.281
13635W        W81998   7.276  12.742  11.443
13636W        W81999  39.428  20.126  11.563
13637W        W82000  27.523  34.041  14.869
13638W        W82001   8.313  13.693   1.854
13639W        W82002  43.381  41.951   1.721
13640W        W82003  24.673  39.389  13.329
13641W        W82004   5.835  43.003  13.054
13642W        W82005  12.203  14.706   4.208
13643W        W82006  28.115  27.635  14.774
13644W        W82007  29.166  12.622  12.026
13645W        W82008  12.277  19.123   1.821
13646W        W82009  21.567  17.308   1.327
13647W        W82010   4.249  13.688  13.936
13648W        W82011  30.110  39.341   1.813
13649W        W82012  22.511  31.478  14.313
13650W        W82013  28.146  11.333   4.319
13651W        W82014  17.306   7.331  14.999
13652W        W82015  44.760  29.015   1.225
13653W        W82016  17.623   1.874  11.092
13654W        W82017  34.040  35.875   2.337
13655W        W82018  33.544  39.020  12.457
13656W        W82019   7.223   5.753  10.606
13657W        W82020  30.463  31.532  11.449
13658W        W82021   4.278  30.470  14.489
13659W        W82022  11.232  44.465   2.713
13660W        W82023  33.913  15.750   2.303
13661W        W82024   8.393   0.372  14.015
13662W        W82025  22.114  19.095   2.193
13663W        W82026  36.980  31.646   2.793
13664W        W82027  38.557  41.353   0.833
13665W        W82028  11.347  38.035  13.963
13666W        W82029   9.664   5.844  14.333
13667W        W82030  44.461  24.675   1.396
13668W        W82031  23.535  10.690  10.958
13669W        W82032  20.056  24.041   3.179
13670W        W82033  40.859   1.313  11.410
13671W        W82034  20.087  15.280   1.728
13672W        W82035  10.833  10.647   4.740
13673W        W82036  30.564  19.279  13.349
13674W        W82037  38.883  21.096  13.471
13675W        W82038  17.750   0.892   2.774
13676W        W82039  12.739   9.856  10.601
13677W        W82040  13.143  25.093   5.162
13678W        W82041  28.551  23.703  13.313
13679W        W82042  34.972  32.404   3.820
13680W        W82043  22.159  23.585   1.223
13681W        W82044  16.249  36.928   4.685
13682W        W82045  31.528  12.689  13.827
13683W        W82046  18.631   3.821   3.308
13684W        W82047  14.165  20.656  12.966
13685W        W82048  28.558  39.053   3.279
13686W        W82049  43.453  31.002  10.930
13687W        W82050   3.442   2.801  13.902
13688W        W82051  20.551  40.406   1.295
13689W        W82052  40.833  40.361   0.924
13690W        W82053  28.571  12.302   4.636
13691W        W82054  28.000  17.683  12.447
13692W        W82055  25.616  11.812  14.803
13693W        W82056  44.921  18.132   2.215
13694W        W82057  25.695  26.567   3.720
13695W        W82058   2.730  36.567  10.971
13696W        W82059  24.642   8.229  13.965
13697W        W82060  22.700  23.500   3.844
13698W        W82061  33.043   2.852   2.208
13699W        W82062  38.437   1.287   3.165
13700W        W82063   6.285  24.526  12.517
13701W        W82064   2.959  32.519  13.058
13702W        W82065  42.004   9.390  12.402
13703W        W82066   4.785   3.915  13.527
13704W        W82067  19.574  34.109   0.789
13705W        W82068  31.111  21.139  13.979
13706W        W82069  16.571  13.792   4.266
13707W        W82070  25.681   2.312   2.243
13708W        W82071   6.681  38.933  11.948
13709W        W82072   5.264  43.449  12.990
13710W        W82073   5.428  11.334   3.761
13711W        W82074   7.678  24.120   4.172
13712W        W82075  20.708   2.448  14.906
13713W        W82076   8.843  28.170   4.257
13714W        W82077   9.779  37.438  11.919
13715W        W82078  32.105  14.748   1.755
13716W        W82079  28.506  11.188   4.786
13717W        W82080  43.328  11.791   9.990
13718W        W82081  24.045  25.130   0.294
13719W        W82082  29.137  33.121  14.774
13720W        W82083  29.623  14.649  10.940
13721W        W82084  13.775  27.545   2.798
13722W        W82085   7.774  30.040  13.927
13723W        W82086   3.921   9.746  11.445
13724W        W82087  42.897  41.463  10.938
13725W        W82088  39.929   5.236   4.649
13726W        W82089  35.463  36.919   0.914
13727W        W82090  38.968  23.995   0.965
13728W        W82091  44.957  26.585  10.977
13729W        W82092  24.629  11.354   3.650
13730W        W82093  24.109  29.515  11.879
13731W        W82094  24.688  43.797  13.791
13732W        W82095   4.849  13.670   1.891
13733W        W82096  26.645  35.893   2.884
13734W        W82097   2.721  30.430  12.870
13735W        W82098  33.452  15.219  10.574
13736W        W82099  39.863  28.648  10.928
13737W        W82100  13.197  14.102  13.311
13738W        W82101  15.729  41.466   0.351
13739W        W82102  15.693  39.993   2.230
13740W        W82103  41.460  15.232  11.500
13741W        W82104  16.756  44.357  14.321
13742W        W82105  24.171  11.344  14.432
13743W        W82106  14.706  31.988   5.111
13744W        W82107  40.022  43.389  10.403
13745W        W82108  41.504   4.772   4.807
13746W        W82109   6.310  43.998   1.706
13747W        W82110   0.254  32.578  14.868
13748W        W82111  40.500   9.281  10.992
13749W        W82112  18.126  10.846  14.933
13750W        W82113   9.849  14.161   2.855
13751W        W82114   8.870   6.297  13.410
13752W        W82115  27.677   7.233   3.304
13753W        W82116  32.989  29.090   3.818
13754W        W82117  17.266  17.706  13.801
13755W        W82118  16.684  28.109   2.815
13756W        W82119  21.056  21.535   2.847
13757W        W82120  35.094  34.041  13.840
13758W        W82121  13.672  37.437  12.468
13759W        W82122  43.460  26.068  13.004
13760W        W82123  31.433  33.036   3.283
13761W        W82124   7.272   3.855   0.298
13762W        W82125  28.956   4.721  14.850
13763W        W82126  17.681  39.511   1.338
13764W        W82127  30.058  16.766   0.321
13765W        W82128  12.784  26.607   0.772
13766W        W82129  10.272  21.080   2.417
13767W        W82130  37.894  12.230  12.978
13768W        W82131   7.883  32.531  11.383
13769W        W82132  21.036  14.256  14.948
13770W        W82133   2.355  31.920   2.402
13771W        W82134  18.694   2.393   3.236
13772W        W82135  19.111   2.899  14.024
13773W        W82136  28.569  19.608   0.460
13774W        W82137   6.845  42.836  12.453
13775W        W82138   2.880  25.202   9.606
13776W        W82139  40.836   8.406  14.500
13777W        W82140  22.553  25.585  14.437
13778W        W82141  40.881  33.483   1.386
13779W        W82142  16.157  34.015   0.399
13780W        W82143  37.490  20.732  14.317
13781W        W82144  11.329  41.331  13.985
13782W        W82145  21.751  33.594   3.632
13783W        W82146  15.311  44.326   1.899
13784W        W82147  30.616  18.654  14.009
13785W        W82148  24.059  34.999  12.491
13786W        W82149  26.040  43.788   2.396
13787W        W82150  12.610  22.566  14.844
13788W        W82151  36.015  36.880   2.315
13789W        W82152  19.624  39.379   4.652
13790W        W82153  43.872  42.473   2.418
13791W        W82154  39.382  42.526   2.371
13792W        W82155   3.390  35.991  11.068
13793W        W82156  11.636  24.095   2.771
13794W        W82157   6.712  37.376   0.804
13795W        W82158  39.882  43.803  13.460
13796W        W82159  41.460   8.241   0.755
13797W        W82160  28.560  44.467  12.866
13798W        W82161   8.268  25.211   5.238
13799W        W82162  31.420  31.418  10.427
13800W        W82163  43.299  21.232   1.378
13801W        W82164  13.262  30.471   3.372
13802W        W82165  21.678  36.845   3.257
13803W        W82166   6.398  22.030  10.907
13804W        W82167  23.055   6.786  14.974
13805W        W82168  21.018  16.609  12.476
13806W        W82169  35.598   2.904   1.820
13807W        W82170  26.523  18.759  12.550
13808W        W82171   8.834  25.644  14.869
13809W        W82172  29.996   0.953  14.977
13810W        W82173  11.777  15.735  12.410
13811W        W82174   1.962  38.506   0.885
13812W        W82175  37.970   2.836  13.321
13813W        W82176  31.076  13.714  11.032
13814W        W82177  24.074  31.905   0.868
13815W        W82178  14.228  17.746  12.988
13816W        W82179  22.231  20.727  12.050
13817W        W82180   8.776  29.022  11.550
13818W        W82181  11.847  29.466  11.510
13819W        W82182  32.085  18.086  13.030
13820W        W82183   0.309  21.200   4.700
13821W        W82184  13.729  36.567   0.769
13822W        W82185  18.635   2.794   2.267
13823W        W82186  32.136  13.732  10.998
13824W        W82187  15.246  27.673  11.507
13825W        W82188  43.813  11.689   0.245
13826W        W82189   7.244  24.007  14.920
13827W        W82190   3.928  35.969  10.536
13828W        W82191  29.456  19.250  10.417
13829W        W82192  34.082  26.512   4.692
13830W        W82193  30.940  32.443  12.398
13831W        W82194  33.925   4.847   4.693
13832W        W82195  16.214   0.344  12.501
13833W        W82196  40.486  39.914  10.099
13834W        W82197  11.846  38.849   2.389
13835W        W82198  43.946  13.719   1.291
13836W        W82199  40.500  10.329  14.777
13837W        W82200   1.241   2.963   4.322
13838W        W82201  35.571  12.185  13.001
13839W        W82202   6.798   6.885   4.751
13840W        W82203  25.111  25.554  13.047
13841W        W82204  42.782  10.159   1.348
13842W        W82205  27.968  43.887   3.867
13843W        W82206  16.219  29.957   2.397
13844W        W82207  29.601  21.019   2.338
13845W        W82208   8.242   1.408  11.518
13846W        W82209   0.763  44.939  12.447
13847W        W82210   9.878  29.002   2.330
13848W        W82211  36.992  35.364  11.452
13849W        W82212   4.378  44.377   4.229
13850W        W82213  24.170  16.120   4.320
13851W        W82214  14.764  14.595   1.892
13852W        W82215  31.645  14.640   3.150
13853W        W82216  41.310   4.913  14.974
13854W        W82217  38.991  12.740  11.382
13855W        W82218  20.098  30.443  10.046
13856W        W82219  24.063   1.904   3.798
13857W        W82220  22.163  23.166   1.418
13858W        W82221  33.014  39.931  11.443
13859W        W82222  32.400  30.620  13.888
13860W        W82223   2.931  20.533  13.498
13861W        W82224  21.577   7.843   1.742
13862W        W82225  34.024   3.289  14.010
13863W        W82226  37.992  36.398   1.772
13864W        W82227  34.033   7.697  12.900
13865W        W82228  14.636  15.635   1.755
13866W        W82229  28.574  32.134  11.445
13867W        W82230  40.493  42.285   4.619
13868W        W82231  27.024  14.823   1.869
13869W        W82232  19.776   0.368  13.527
13870W        W82233  37.364  44.302  12.843
13871W        W82234  40.478  38.954   3.268
13872W        W82235  19.077  34.482  11.421
13873W        W82236  23.216   5.265   3.226
13874W        W82237  17.789  14.121   2.178
13875W        W82238  29.664   3.901  13.820
13876W        W82239   2.315  10.162   9.945
13877W        W82240  20.582  20.052  14.316
13878W        W82241  30.000  25.977  10.592
13879W        W82242  30.493  41.394  11.971
13880W        W82243  42.400  37.873   0.933
13881W        W82244  14.230  35.531  11.391
13882W        W82245  20.736  15.748  10.572
13883W        W82246  36.384  11.677  11.079
13884W        W82247  29.513  22.038  14.289
13885W        W82248  19.672  44.818  11.989
13886W        W82249  11.132   3.382   4.317
13887W        W82250  22.109  29.146  12.527
13888W        W82251  11.764  41.951  11.528
13889W        W82252  38.421   7.186  11.596
13890W        W82253  15.256  19.114   1.432
13891W        W82254  15.664  38.980   4.690
13892W        W82255   6.757  26.657   4.689
13893W        W82256  21.164  15.759  10.989
13894W        W82257  25.511  26.528   4.664
13895W        W82258  41.821  22.513   9.929
13896W        W82259  19.242   9.328  11.872
13897W        W82260  37.900  26.107  13.429
13898W        W82261  36.406  22.682   1.848
13899W        W82262  29.604  38.527  13.339
13900W        W82263   7.198  22.633   0.864
13901W        W82264  31.564  10.752  10.994
13902W        W82265  13.795  41.398  13.317
13903W        W82266  26.127  27.976   3.836
13904W        W82267  13.226  40.845   1.842
13905W        W82268  28.587   1.813   1.906
13906W        W82269  31.922  31.573  11.873
13907W        W82270  14.100  23.087  10.447
13908W        W82271   8.670  35.589  14.349
13909W        W82272  31.591  30.579   0.859
13910W        W82273   0.293  19.774  14.010
13911W        W82274  33.090  30.078   2.371
13912W        W82275  21.621  11.364  13.456
13913W        W82276  37.904   5.887   2.736
13914W        W82277   1.745  37.026   3.178
13915W        W82278  44.441  22.174  11.449
13916W        W82279   9.690  33.540   0.406
13917W        W82280  40.462  29.059   4.688
13918W        W82281  33.383  19.608  12.422
13919W        W82282  26.134  25.158   4.791
13920W        W82283  29.116  14.785  11.408
13921W        W82284  27.526   6.834   3.243
13922W        W82285  10.875  18.550   3.204
13923W        W82286  33.480  40.832  12.502
13924W        W82287  38.435   7.698   2.740
13925W        W82288  15.799  43.351  12.364
13926W        W82289   9.671  42.811   1.843
13927W        W82290  24.599   9.339   4.651
13928W        W82291  20.200  29.592  14.409
13929W        W82292  41.308   9.314  14.023
13930W        W82293  35.592  13.717  14.809
13931W        W82294  15.282   7.276   0.938
13932W        W82295  31.042   1.269   3.263
13933W        W82296  21.126  19.572   3.797
13934W        W82297   8.330  34.508  13.802
13935W        W82298  33.478   4.435  10.476
13936W        W82299  44.334  31.970  14.955
13937W        W82300  33.011  24.021  13.321
13938W        W82301   8.780  38.838   3.341
13939W        W82302   0.821  10.765   4.778
13940W        W82303  32.456  17.615  12.044
13941W        W82304   9.165  44.982  14.381
13942W        W82305  11.801   7.746  12.889
13943W        W82306  40.470   3.298   3.783
13944W        W82307  10.704   7.177   3.785
13945W        W82308   2.347  33.593  11.084
13946W        W82309  12.174   1.277   4.354
13947W        W82310  33.411  36.377  14.944
13948W        W82311   4.259   4.356  14.005
13949W        W82312  22.232  19.687  10.464
13950W        W82313  17.712  37.074   1.243
13951W        W82314  43.347  12.290   2.752
13952W        W82315  42.903  21.082  12.458
13953W        W82316  33.545  36.449  14.409
13954W        W82317  30.659  43.274   2.258
13955W        W82318   3.884  25.962   4.184
13956W        W82319  15.657  15.195   4.305
13957W        W82320  20.678  20.073   4.671
13958W        W82321  27.160  14.166  11.963
13959W        W82322   8.183  20.252   0.482
13960W        W82323  25.505   5.713   1.297
13961W        W82324  33.052  37.374   0.856
13962W        W82325  23.595  11.269   4.741
13963W        W82326  42.028  14.249   0.273
13964W        W82327  11.792  16.112   1.751
13965W        W82328  22.251  23.499   2.705
13966W        W82329  30.030  39.466  12.856
13967W        W82330  36.402   6.398   4.676
13968W        W82331  29.056  23.696   1.704
13969W        W82332  36.484  12.800  13.904
13970W        W82333   4.848   6.744  14.483
13971W        W82334  32.909  25.039   4.174
13972W        W82335  44.387  29.993   3.682
13973W        W82336  43.824  38.862  11.004
13974W        W82337  12.155  39.396  12.350
13975W        W82338  44.402  42.778  14.473
13976W        W82339  37.543  36.541  14.405
13977W        W82340   2.782  42.793   3.856
13978W        W82341   5.868  16.674   3.678
13979W        W82342  13.657  19.097  11.600
13980W        W82343  10.666  18.090   5.174
13981W        W82344   7.369   8.331  11.520
13982W        W82345   2.786  43.426  13.863
13983W        W82346  35.408  26.503   3.793
13984W        W82347   0.919   8.785   2.220
13985W        W82348  26.470  34.423   4.734
13986W        W82349  13.263   3.281  11.908
13987W        W82350  42.357  25.133  11.044
13988W        W82351  42.351  36.578  11.903
13989W        W82352   3.801  14.248  14.864
13990W        W82353  33.939  37.055  12.990
13991W        W82354  28.558  41.448   0.415
13992W        W82355  14.181   6.799  10.091
13993W        W82356  29.154  20.744  13.394
13994W        W82357  21.082  25.118   2.733
13995W        W82358   8.834  21.678   4.145
13996W        W82359  15.139  13.181   1.334
13997W        W82360   5.294  27.964  10.420
13998W        W82361   3.315  10.238  13.903
13999W        W82362  21.223  15.206  12.038
14000W        W82363  13.237  25.593   3.379
14001W        W82364  13.238  40.368   2.343
14002W        W82365  22.670  30.621  14.776
14003W        W82366   7.829  30.909  12.364
14004W        W82367  26.585  40.992   2.388
14005W        W82368  27.468  14.647  10.404
14006W        W82369  40.356  38.384  13.844
14007W        W82370  21.623  34.894  12.988
14008W        W82371   0.935   4.886  11.894
14009W        W82372   6.366   2.470  13.370
14010W        W82373  28.940  43.492   4.315
14011W        W82374   8.178  44.425  11.070
14012W        W82375  11.774  39.402  14.459
14013W        W82376   9.700  31.464  11.975
14014W        W82377  11.255  17.790   3.180
14015W        W82378  25.109  33.478   1.440
14016W        W82379  27.633  31.631   4.219
14017W        W82380  43.883  40.537  13.854
14018W        W82381  40.909   1.320  14.899
14019W        W82382  16.597  12.669  13.987
14020W        W82383  26.629  25.547   5.254
14021W        W82384  14.594   2.824   3.353
14022W        W82385  42.857  35.425  12.916
14023W        W82386  13.748  21.550  10.610
14024W        W82387  28.472   0.986   3.686
14025W        W82388  21.544   0.472  14.962
14026W        W82389  34.499  11.176  12.957
14027W        W82390  34.524  36.911  14.507
14028W        W82391   1.295  31.103  11.070
14029W        W82392  16.783  31.584  14.030
14030W        W82393   5.919  37.925  13.308
14031W        W82394  24.695  18.790  12.899
14032W        W82395  42.921  30.480   4.159
14033W        W82396   1.886  21.028  11.958
14034W        W82397  34.549  44.794  11.975
14035W        W82398  13.744  33.079  10.520
14036W        W82399  12.153  39.412   3.849
14037W        W82400  29.628  19.591   3.358
14038W        W82401  35.543  32.394   4.827
14039W        W82402  10.848   5.692  11.405
14040W        W82403  44.325  43.403  12.051
14041W        W82404  15.240   1.767   2.701
14042W        W82405   9.831   8.225  11.102
14043W        W82406  29.151  31.413  13.893
14044W        W82407   1.807  31.137  12.489
14045W        W82408  39.463  12.733  10.930
14046W        W82409  33.581  16.283   3.237
14047W        W82410  38.380  36.089   2.842
14048W        W82411  22.040  20.731   1.820
14049W        W82412  33.384  39.467  11.895
14050W        W82413  26.485  27.591  11.054
14051W        W82414  20.738  10.151   1.290
14052W        W82415   4.298  30.429  14.874
14053W        W82416   7.688  19.724   4.264
14054W        W82417  16.702  31.530  11.499
14055W        W82418  17.613  42.917  10.018
14056W        W82419  32.978  43.423   2.828
14057W        W82420  40.857  13.183   0.927
14058W        W82421  11.237  30.108  11.433
14059W        W82422  44.010  26.651   4.733
14060W        W82423  31.130  38.479  13.004
14061W        W82424  10.763  15.733   0.891
14062W        W82425  11.748  17.721   4.743
14063W        W82426  28.554   3.816   2.838
14064W        W82427  43.827  30.636  14.326
14065W        W82428   0.936   4.789   3.759
14066W        W82429  14.821  18.643  14.392
14067W        W82430  22.572   4.437  12.041
14068W        W82431  42.920  24.595  14.289
14069W        W82432   3.406   5.777   4.116
14070W        W82433  13.311  21.035  12.484
14071W        W82434  42.027  29.595   0.933
14072W        W82435   5.293  30.007   2.204
14073W        W82436  14.319  22.698   0.911
14074W        W82437  31.441  20.201   3.772
14075W        W82438   3.916   6.848  14.322
14076W        W82439  18.094  28.134  11.965
14077W        W82440  30.476  16.629   1.913
14078W        W82441  31.544   0.790   1.363
14079W        W82442  35.942   0.751   3.799
14080W        W82443   5.349  28.077   3.360
14081W        W82444  22.229   4.898   3.312
14082W        W82445  31.461  32.026  10.896
14083W        W82446   3.388  26.064  11.587
14084W        W82447   2.461  38.429  12.552
14085W        W82448  44.817  33.034   1.895
14086W        W82449  34.078  25.483   4.637
14087W        W82450  18.781   6.212  10.617
14088W        W82451  25.978  23.550   1.331
14089W        W82452  26.134  18.235   2.723
14090W        W82453  14.789  31.463   1.919
14091W        W82454   6.337  26.974   4.603
14092W        W82455   4.785  30.506   2.368
14093W        W82456  17.775  27.154  12.362
14094W        W82457  21.694  18.763  14.838
14095W        W82458   2.896  29.935   4.280
14096W        W82459   9.839  11.201   4.271
14097W        W82460   7.858  12.361   1.267
14098W        W82461  17.583  26.989  13.845
14099W        W82462  27.487  15.610   0.413
14100W        W82463  39.380  37.519  13.901
14101W        W82464  34.116   2.410  12.345
14102W        W82465  19.619  28.139  14.499
14103W        W82466  26.633   5.908  12.879
14104W        W82467  17.601  33.128  13.929
14105W        W82468  30.467  29.488  12.397
14106W        W82469  24.542  26.658   2.382
14107W        W82470  30.078  26.189   0.385
14108W        W82471  31.927   1.345  10.569
14109W        W82472  22.088  18.742   4.163
14110W        W82473  11.694  43.487   1.905
14111W        W82474  37.451  23.235   0.864
14112W        W82475  15.784  19.695   0.817
14113W        W82476   3.349   3.240  12.922
14114W        W82477  21.213  25.645  10.907
14115W        W82478  28.649  26.563   4.753
14116W        W82479   6.712   7.796  12.856
14117W        W82480  28.592   4.826  12.565
14118W        W82481   3.726  31.146   2.281
14119W        W82482  44.495  22.649   1.355
14120W        W82483  11.293  35.082  14.032
14121W        W82484  23.489  15.247  10.526
14122W        W82485  14.231  10.243   2.711
14123W        W82486   8.674  16.081  14.861
14124W        W82487   7.754  26.955   0.828
14125W        W82488  27.550  18.060   3.691
14126W        W82489  33.394  23.638  10.047
14127W        W82490  26.651  23.175   0.896
14128W        W82491  12.313  24.589   3.276
14129W        W82492  13.307   6.849  13.055
14130W        W82493   3.910  34.966  12.343
14131W        W82494  27.550  30.552  10.407
14132W        W82495  20.273  14.193   2.309
14133W        W82496  42.468   8.761   1.380
14134W        W82497  11.338  13.769  11.971
14135W        W82498  39.933  24.579   1.245
14136W        W82499  27.562  23.230  14.932
14137W        W82500  44.488  22.118  14.903
14138W        W82501  13.258   8.353   1.908
14139W        W82502  37.568   6.366  14.417
14140W        W82503   9.236   7.232   1.340
14141W        W82504  23.680  42.490   0.352
14142W        W82505  36.921  42.381  13.910
14143W        W82506   5.369   2.341  14.455
14144W        W82507  30.448  33.553  10.925
14145W        W82508  12.823  44.933  10.586
14146W        W82509  36.389  15.126  13.460
14147W        W82510  29.539  16.100   2.318
14148W        W82511  44.959  23.577   1.250
14149W        W82512  20.179  14.135  13.960
14150W        W82513   4.303  16.789   0.929
14151W        W82514  16.081  16.679   2.267
14152W        W82515  19.536  12.791  12.889
14153W        W82516  44.834   5.319  12.457
14154W        W82517  21.021  28.646   2.359
14155W        W82518   8.283   0.937  12.913
14156W        W82519   0.485  23.543  11.008
14157W        W82520   1.826  28.030   2.727
14158W        W82521  26.567  26.696  13.978
14159W        W82522   9.843  26.649   0.919
14160W        W82523  36.870  39.974   2.204
14161W        W82524  24.620   5.360   4.669
14162W        W82525  15.139  41.796   0.908
14163W        W82526  38.499  14.617   0.760
14164W        W82527  25.198  32.023  13.463
14165W        W82528   1.283   7.239  10.979
14166W        W82529  10.873  43.431  11.934
14167W        W82530  10.364  36.076   3.645
14168W        W82531  37.485  42.471   0.318
14169W        W82532  29.502  26.137  12.480
14170W        W82533  13.243  12.319   3.199
14171W        W82534   9.844  37.562  10.579
14172W        W82535  27.676   9.366   3.806
14173W        W82536  29.605  34.049   1.887
14174W        W82537  41.300  33.452  13.340
14175W        W82538  41.531  23.607   0.792
14176W        W82539  40.956  19.725  11.515
14177W        W82540  22.045  14.257   0.483
14178W        W82541  12.259   7.222   0.287
14179W        W82542   9.222  26.482   1.850
14180W        W82543  35.896  25.631   1.911
14181W        W82544  20.112  21.696  11.857
14182W        W82545   8.747  38.379   1.707
14183W        W82546  38.360   6.786  11.097
14184W        W82547  29.986  32.950   1.748
14185W        W82548  39.866   0.960  10.552
14186W        W82549  33.436   6.286   4.330
14187W        W82550  17.735  15.124   3.855
14188W        W82551  27.087  15.279  13.977
14189W        W82552  20.078   1.952  14.358
14190W        W82553   0.371  39.011   4.784
14191W        W82554  42.863  18.617   2.291
14192W        W82555  29.443   9.804  11.991
14193W        W82556  28.594  36.578  10.519
14194W        W82557  36.469   1.972  11.971
14195W        W82558   2.966   9.205  11.084
14196W        W82559  15.216  32.446   2.867
14197W        W82560  15.106  33.536   2.248
14198W        W82561  25.588  24.588   4.215
14199W        W82562  19.680  42.517  14.431
14200W        W82563   8.815   8.774  10.547
14201W        W82564   8.242  43.943   1.231
14202W        W82565  42.780  35.043   4.662
14203W        W82566   3.262  12.249   4.819
14204W        W82567   5.737  25.167   0.890
14205W        W82568   0.800  41.394   0.830
14206W        W82569  43.887  42.449  13.938
14207W        W82570  15.111  30.079   2.191
14208W        W82571  30.478  23.546   4.198
14209W        W82572  28.112  11.216  11.581
14210W        W82573  16.139   3.252   4.322
14211W        W82574   4.416  39.512  14.304
14212W        W82575  25.666  27.549  10.643
14213W        W82576  18.785  32.907  14.006
14214W        W82577  35.899   0.861   1.439
14215W        W82578  33.508   4.408   4.739
14216W        W82579  28.557  14.746   4.808
14217W        W82580  24.575  15.817   3.732
14218W        W82581  15.595  33.392  13.791
14219W        W82582   7.759  38.401  10.434
14220W        W82583  43.326  22.704  10.529
14221W        W82584  32.132   0.379   5.129
14222W        W82585   4.857  20.731   1.851
14223W        W82586  24.702   1.755   1.238
14224W        W82587  19.154  31.918   2.387
14225W        W82588   7.189  15.736   4.694
14226W        W82589  39.507   9.654  14.800
14227W        W82590   4.204  20.564   3.823
14228W        W82591  37.979  12.756   2.341
14229W        W82592  17.082  17.097  10.934
14230W        W82593  40.903  38.030   4.747
14231W        W82594  42.455  41.491  10.498
14232W        W82595  28.090   1.272  11.982
14233W        W82596  39.453  17.242   4.820
14234W        W82597  33.604  11.178  13.497
14235W        W82598  23.161  10.669  11.050
14236W        W82599  12.135  18.243  12.424
14237W        W82600  33.543  25.968   4.685
14238W        W82601  14.757   5.297   3.353
14239W        W82602   5.434  39.997   1.816
14240W        W82603  36.418  30.954   0.394
14241W        W82604  15.729  22.204  11.533
14242W        W82605   0.809  39.552  12.389
14243W        W82606  34.531  29.079   0.748
14244W        W82607  34.475  33.912  14.448
14245W        W82608  37.991  10.143   2.408
14246W        W82609   9.752  26.109   2.684
14247W        W82610  28.527  40.380  13.945
14248W        W82611  33.884  44.420  11.890
14249W        W82612  27.986  32.502  12.076
14250W        W82613  40.462   3.327  11.920
14251W        W82614  31.147  28.665   4.742
14252W        W82615   4.739  26.967   1.774
14253W        W82616  29.958   2.831  13.951
14254W        W82617  25.150  12.835  14.858
14255W        W82618  23.141  41.027   0.417
14256W        W82619  41.398  25.032   0.261
14257W        W82620  29.523  27.577   4.290
14258W        W82621  15.798  37.964   5.298
14259W        W82622  40.959  23.724  10.457
14260W        W82623   7.188  26.634  14.887
14261W        W82624   2.440  36.453  12.920
14262W        W82625  15.745  15.268  10.625
14263W        W82626  19.128   5.741  11.402
14264W        W82627  28.100  32.091   3.246
14265W        W82628   2.749  19.172  10.626
14266W        W82629  23.101  35.482   4.633
14267W        W82630  22.181   1.847  13.430
14268W        W82631  42.364  25.049   4.165
14269W        W82632  41.504  16.744   2.259
14270W        W82633  31.125  18.264   1.312
14271W        W82634  20.757   3.839  11.072
14272W        W82635  19.119  15.244   4.662
14273W        W82636   3.272   0.856  14.381
14274W        W82637  34.954  40.852  14.792
14275W        W82638   0.956  38.042  12.850
14276W        W82639  15.617   4.263  14.335
14277W        W82640   2.802  39.545   0.428
14278W        W82641  32.637  12.228  13.835
14279W        W82642  18.058  37.846  14.910
14280W        W82643  38.890  28.014  14.466
14281W        W82644  10.351  30.450  10.562
14282W        W82645  44.830  41.836   3.353
14283W        W82646  26.558  16.188   3.280
14284W        W82647   0.440   8.290  13.047
14285W        W82648  32.088  41.990  10.524
14286W        W82649  13.807  28.614  13.352
14287W        W82650  36.525   7.758  14.004
14288W        W82651   7.412  11.727   0.842
14289W        W82652  29.014  36.063  11.452
14290W        W82653  18.280  18.097   1.829
14291W        W82654  30.650  41.879   2.859
14292W        W82655  21.143  21.617  14.840
14293W        W82656  21.585  22.665  14.998
14294W        W82657  13.692   2.836   1.911
14295W        W82658  32.462  10.281   1.754
14296W        W82659  26.173  29.138   1.731
14297W        W82660  16.694   8.802  12.007
14298W        W82661   1.807  26.567   1.251
14299W        W82662  34.531  27.058  13.433
14300W        W82663  15.686  16.268   0.964
14301W        W82664  36.888  36.094   1.308
14302W        W82665  38.425  38.021  13.918
14303W        W82666  44.956  30.051   4.354
14304W        W82667  24.075  43.881   1.867
14305W        W82668  12.718  42.464  13.815
14306W        W82669   2.758   8.224   3.751
14307W        W82670  44.765  44.354  12.844
14308W        W82671  10.313   5.920  10.504
14309W        W82672   5.721  28.142   0.860
14310W        W82673   3.274  35.413   4.764
14311W        W82674  42.409  36.384  13.971
14312W        W82675  42.311   5.389  13.425
14313W        W82676  18.269  19.617   3.281
14314W        W82677  10.797  21.126  12.959
14315W        W82678  26.974  13.194   2.216
14316W        W82679  23.076  44.500  14.841
14317W        W82680   6.772  21.571   4.149
14318W        W82681  13.123   7.363  10.902
14319W        W82682  36.857  37.960   1.774
14320W        W82683   4.446  36.578   0.406
14321W        W82684  28.132  11.756  10.971
14322W        W82685   6.732  32.418  12.967
14323W        W82686  12.704  33.517  12.469
14324W        W82687  37.427   9.671   5.253
14325W        W82688   3.385   7.707   1.722
14326W        W82689   2.736  36.547  10.530
14327W        W82690  34.490  43.793  14.367
14328W        W82691  29.519  10.833  13.852
14329W        W82692  33.910  31.634  12.500
14330W        W82693  25.550  28.047  12.937
14331W        W82694  40.412  13.343   0.336
14332W        W82695  14.300  42.300   2.707
14333W        W82696  35.067   9.383   0.446
14334W        W82697  18.170  43.408   4.785
14335W        W82698  35.443  14.608  13.384
14336W        W82699  36.978  15.777  11.505
14337W        W82700  35.407   8.239  13.046
14338W        W82701   3.785  40.963   4.213
14339W        W82702  41.028  40.505   2.821
14340W        W82703  29.505   3.862  11.581
14341W        W82704   0.831  35.085   1.222
14342W        W82705   6.890  16.284   1.701
14343W        W82706  10.289  26.989   0.332
14344W        W82707  38.561  41.956  10.637
14345W        W82708  16.727  28.936  13.889
14346W        W82709  17.572  25.119   0.864
14347W        W82710  22.174  16.224   3.810
14348W        W82711  11.680  31.620  11.077
14349W        W82712  38.899  12.170  11.551
14350W        W82713   4.321   2.231   2.696
14351W        W82714  34.036  30.140   2.325
14352W        W82715   7.351  18.154   4.187
14353W        W82716  18.087  42.863   4.715
14354W        W82717   0.333  29.027   1.761
14355W        W82718  22.032  12.326  11.002
14356W        W82719  13.772  27.958  12.943
14357W        W82720  37.078  31.550  13.308
14358W        W82721   4.221   6.872   0.794
14359W        W82722   7.337   5.377   3.236
14360W        W82723   2.841  38.396  13.395
14361W        W82724  40.900  33.899   2.771
14362W        W82725  34.005  34.947   0.417
14363W        W82726  37.506  28.995   3.275
14364W        W82727   3.802  13.797  11.578
14365W        W82728  28.083  10.339   0.299
14366W        W82729   5.863  30.102  14.452
14367W        W82730  23.197  22.067   3.147
14368W        W82731   0.427  36.858   0.421
14369W        W82732  20.123  32.899  11.485
14370W        W82733  36.943  25.618   3.238
14371W        W82734  29.115  29.968   9.543
14372W        W82735  43.474  21.551   0.951
14373W        W82736   8.311  29.003  14.820
14374W        W82737  13.279   0.861  13.356
14375W        W82738  38.853  35.964  13.819
14376W        W82739  37.403  41.809  14.435
14377W        W82740  14.227  34.410   3.380
14378W        W82741   1.396  17.285  10.639
14379W        W82742  21.559  14.321   3.258
14380W        W82743  29.557  22.694  10.550
14381W        W82744   5.207  18.125   2.724
14382W        W82745  12.823   1.339   3.721
14383W        W82746  14.168  35.878  12.855
14384W        W82747   6.315  42.862   9.924
14385W        W82748  13.679  11.665  11.891
14386W        W82749  18.775  27.554  14.291
14387W        W82750  33.584  27.016  11.018
14388W        W82751   0.379  30.476   2.824
14389W        W82752  39.001  15.267  12.340
14390W        W82753  39.956  38.963   4.262
14391W        W82754  22.015  36.411  12.030
14392W        W82755  11.302   8.900  14.824
14393W        W82756  25.636  38.435   4.607
14394W        W82757  14.204  28.010  11.390
14395W        W82758  20.552  44.309  12.512
14396W        W82759  21.586   0.774  11.424
14397W        W82760  16.172  40.800   4.287
14398W        W82761  19.553  14.296   0.852
14399W        W82762   5.916   5.425   2.898
14400W        W82763   7.180  26.204  11.873
14401W        W82764  24.166  42.333   0.254
14402W        W82765  37.077  33.510  11.890
14403W        W82766  21.664  44.912   4.204
14404W        W82767  14.609  33.113   4.120
14405W        W82768  22.617  33.625   1.836
14406W        W82769  37.948  38.524   2.787
14407W        W82770   4.886   8.274   2.418
14408W        W82771  13.329  34.497  14.408
14409W        W82772  39.833  34.512  10.448
14410W        W82773  19.143  27.027  12.063
14411W        W82774  28.144  32.132  14.827
14412W        W82775  39.344   1.975   3.234
14413W        W82776  11.668  43.331  14.957
14414W        W82777  13.743  25.118   3.364
14415W        W82778  12.241   7.804   3.153
14416W        W82779  44.798   3.239  12.061
14417W        W82780  12.790   3.364  11.072
14418W        W82781  24.123  25.689  14.431
14419W        W82782  13.220  18.117   0.949
14420W        W82783  17.585   0.983  14.920
14421W        W82784  37.554  14.175  10.024
14422W        W82785  25.616  21.160   2.223
14423W        W82786  24.116  39.930   0.927
14424W        W82787  38.833   6.705  13.906
14425W        W82788  23.017  23.022   1.229
14426W        W82789   1.909   4.210   1.715
14427W        W82790   5.835  36.380   1.260
14428W        W82791  15.596  31.002  11.546
14429W        W82792  40.868  22.223  14.964
14430W        W82793  43.445  35.077  10.428
14431W        W82794  16.739  30.491  14.810
14432W        W82795   9.322  35.601  11.444
14433W        W82796  25.990   8.337   1.861
14434W        W82797   7.282  15.290  12.921
14435W        W82798  22.111  31.017  10.420
14436W        W82799   1.385  26.675   3.374
14437W        W82800   2.855  35.914   4.716
14438W        W82801   6.223  28.630  14.898
14439W        W82802   2.410  13.694  12.989
14440W        W82803  12.677   8.825   5.163
14441W        W82804  24.702   6.255  12.455
14442W        W82805  42.426  44.950  13.985
14443W        W82806  17.742  12.811   2.727
14444W        W82807   5.274  16.206  12.823
14445W        W82808  17.571  31.587  14.986
14446W        W82809  44.969  11.327   0.955
14447W        W82810  29.165   0.957   0.803
14448W        W82811   9.844   6.401  12.992
14449W        W82812  37.472  35.891  10.125
14450W        W82813  38.044   9.381  13.323
14451W        W82814   3.925  23.100  14.848
14452W        W82815  12.165   3.790  13.811
14453W        W82816   6.333   0.491  11.975
14454W        W82817   6.731  34.987   4.759
14455W        W82818  12.183   3.270   3.740
14456W        W82819   3.926   5.210   3.171
14457W        W82820  44.932   5.427   3.778
14458W        W82821  36.090  31.477  11.396
14459W        W82822  22.056  10.261   2.825
14460W        W82823  37.834  39.391  11.969
14461W        W82824  31.633  43.799  11.902
14462W        W82825   8.251  41.296  12.971
14463W        W82826  17.701  38.940   2.373
14464W        W82827  43.870  30.042   1.708
14465W        W82828   1.934  30.617  14.820
14466W        W82829  27.468  44.336  10.907
14467W        W82830  11.867  12.705   0.750
14468W        W82831  15.802  14.214  10.943
14469W        W82832  32.126   0.971   3.271
14470W        W82833  44.901   8.746  14.449
14471W        W82834  29.058  22.235   1.332
14472W        W82835   7.841  19.603   3.748
14473W        W82836   1.751   0.949   5.260
14474W        W82837   0.373  22.174   0.473
14475W        W82838  36.883   8.255  14.782
14476W        W82839   6.324   0.401   4.212
14477W        W82840  43.983  33.096   1.906
14478W        W82841  33.027   3.218  12.481
14479W        W82842  26.629  22.097  12.018
14480W        W82843   3.796  39.552  13.828
14481W        W82844   6.772  41.039  11.055
14482W        W82845   4.336  41.851  14.970
14483W        W82846  35.864   7.704   4.213
14484W        W82847  29.594  40.373   0.258
14485W        W82848  39.356  25.087   3.760
14486W        W82849  37.501  33.020   3.753
14487W        W82850  42.448  16.316  14.016
14488W        W82851  25.174  13.774   2.724
14489W        W82852  40.321  17.234   0.343
14490W        W82853  27.551  31.146   0.265
14491W        W82854  28.010   0.439   0.427
14492W        W82855  18.228  25.191   4.598
14493W        W82856  35.509  32.003   3.343
14494W        W82857  31.601  41.525   1.910
14495W        W82858  41.493  25.660  12.900
14496W        W82859  25.591  13.697   2.742
14497W        W82860  11.286  26.168   4.675
14498W        W82861  28.485  31.643   1.400
14499W        W82862  23.674  14.194  11.452
14500W        W82863  24.627  17.230  11.603
14501W        W82864  39.465   1.827  11.931
14502W        W82865   3.290   5.393   4.296
14503W        W82866  42.922  34.410   2.759
14504W        W82867  15.150  25.478  11.916
14505W        W82868  42.838   1.831   3.870
14506W        W82869  12.686  12.178  12.933
14507W        W82870   1.386   5.828   0.436
14508W        W82871  36.422  30.006   2.276
14509W        W82872  11.778   0.857  13.056
14510W        W82873   9.865  26.638  14.001
14511W        W82874   9.302  14.213  14.291
14512W        W82875  38.956   5.212   0.396
14513W        W82876  15.089  41.970   2.368
14514W        W82877  32.948  42.474  13.050
14515W        W82878  10.189   1.404   0.742
14516W        W82879  37.338  21.255   0.391
14517W        W82880  26.148   4.770   3.360
14518W        W82881  33.887  24.649  13.339
14519W        W82882  29.535  13.323  12.531
14520W        W82883  16.656  23.574  11.954
14521W        W82884  38.927  36.985  13.036
14522W        W82885  36.021  10.378  11.128
14523W        W82886  23.159  39.341  13.923
14524W        W82887  30.603  19.707   2.716
14525W        W82888  14.197  21.228  10.509
14526W        W82889  19.158  42.375  14.920
14527W        W82890   9.240   3.721  13.388
14528W        W82891  22.576  24.059   1.236
14529W        W82892   4.220  37.010   3.209
14530W        W82893  27.944  44.974  10.558
14531W        W82894   6.270  15.650  14.307
14532W        W82895   8.234   9.263   0.270
14533W        W82896   1.277   0.909   3.804
14534W        W82897  23.108   3.274  10.899
14535W        W82898  22.663  41.321  12.437
14536W        W82899  44.902  13.685  12.890
14537W        W82900  10.874  35.924  11.068
14538W        W82901   6.394  36.430  12.072
14539W        W82902  32.038   4.360   0.453
14540W        W82903  22.186  18.116  10.544
14541W        W82904  18.736  13.715   3.237
14542W        W82905  10.144  18.756   4.324
14543W        W82906   3.410  32.431  11.590
14544W        W82907  31.953  15.317   2.687
14545W        W82908  26.035  34.551   4.656
14546W        W82909  40.432  28.512   2.805
14547W        W82910  30.127  43.475   0.272
14548W        W82911  10.673  31.479   1.382
14549W        W82912  28.122  15.312   3.328
14550W        W82913  34.414  44.428  11.437
14551W        W82914   5.898  25.108   3.281
14552W        W82915   1.256  43.842   1.308
14553W        W82916  32.605  25.025  11.871
14554W        W82917   1.464   2.318  12.578
14555W        W82918  16.571  27.584   2.878
14556W        W82919   9.764  37.429  13.531
14557W        W82920  13.635  34.547  10.403
14558W        W82921  38.356  30.416  13.382
14559W        W82922  25.131  19.190   0.428
14560W        W82923  41.307  25.573   0.925
14561W        W82924  27.975  44.977   2.351
14562W        W82925   4.794  29.922   0.951
14563W        W82926  25.210  38.945   4.749
14564W        W82927   3.335  10.234  12.484
14565W        W82928  38.364  27.075  12.495
14566W        W82929  33.548   8.820  11.033
14567W        W82930  42.459  13.685  12.854
14568W        W82931  18.085  36.525  13.469
14569W        W82932  42.514  39.391  10.541
14570W        W82933  31.028  35.882  14.421
14571W        W82934  13.187   0.364  11.973
14572W        W82935  34.871  44.502   4.328
14573W        W82936  24.612  41.326   3.198
14574W        W82937  31.526   1.833   3.773
14575W        W82938  21.136  43.480  11.998
14576W        W82939  23.063  11.698   1.264
14577W        W82940  28.673  12.698   3.383
14578W        W82941  27.113  27.077  10.585
14579W        W82942  18.238  18.690   2.837
14580W        W82943   8.878  12.741   3.761
14581W        W82944  37.912  34.872  14.009
14582W        W82945  36.056   4.326   3.217
14583W        W82946  18.113  17.682  12.537
14584W        W82947   5.894  35.430  13.494
14585W        W82948  22.019   0.873   0.389
14586W        W82949   6.240  43.413   2.314
14587W        W82950   4.410   2.260  11.086
14588W        W82951  30.095  39.436  11.476
14589W        W82952  39.416  27.630  14.364
14590W        W82953  35.432  13.163  14.968
14591W        W82954  23.552   7.724   2.247
14592W        W82955   2.230   6.261  11.598
14593W        W82956   4.294   3.326  10.620
14594W        W82957  32.413  32.501   2.741
14595W        W82958  35.892  17.649   2.263
14596W        W82959  24.054  29.550   4.745
14597W        W82960  38.039   4.371  12.558
14598W        W82961  14.199  37.375   5.311
14599W        W82962  39.358  15.185  10.608
14600W        W82963   6.830  11.794   2.768
14601W        W82964  44.988  34.942  11.118
14602W        W82965  24.984  24.659  10.888
14603W        W82966  24.191  31.533   2.386
14604W        W82967  33.503  14.817   0.275
14605W        W82968   0.269  40.952  14.895
14606W        W82969  28.034   1.445   4.778
14607W        W82970  28.563  36.944  13.356
14608W        W82971  18.274   0.959  12.973
14609W        W82972  10.838  28.117   2.384
14610W        W82973  36.964   5.344  11.987
14611W        W82974  17.602  10.251  12.064
14612W        W82975  25.060  23.072  13.354
14613W        W82976   1.326  29.629   1.720
14614W        W82977   9.788  43.448   0.305
14615W        W82978   9.243  42.971   3.180
14616W        W82979   0.894   2.415  13.805
14617W        W82980  29.125  28.117  11.946
14618W        W82981  21.731  25.474  12.434
14619W        W82982  16.600  23.101  11.873
14620W        W82983   1.865  38.440   3.645
14621W        W82984  39.340  28.586   4.325
14622W        W82985  13.273   2.411  11.864
14623W        W82986  20.603  14.095   1.727
14624W        W82987  33.547  11.173   4.205
14625W        W82988  43.978  31.924   0.819
14626W        W82989  38.339   1.315  12.886
14627W        W82990  41.993  20.246   2.376
14628W        W82991   1.344  44.468  11.575
14629W        W82992  20.045  21.081   1.353
14630W        W82993   3.788   8.330  13.492
14631W        W82994  42.482   9.353  14.329
14632W        W82995  17.069  27.056  12.845
14633W        W82996  43.504  14.670  11.552
14634W        W82997  10.650  22.216  13.904
14635W        W82998  29.452  15.823  13.315
14636W        W82999  12.262  17.117   0.389
14637W        W83000  23.721   8.796   1.331
14638W        W83001  37.498   7.856   0.359
14639W        W83002   8.356  30.018  13.340
14640W        W83003  28.937  14.290  13.029
14641W        W83004   0.362  30.102   2.837
14642W        W83005   2.419  12.181   4.206
14643W        W83006  19.209  34.980   1.772
14644W        W83007  35.861  15.734  13.991
14645W        W83008  38.373  23.197  13.369
14646W        W83009   7.812  23.045  14.306
14647W        W83010  33.581  42.877   3.208
14648W        W83011  17.128   1.853   0.408
14649W        W83012   4.797   0.354   2.823
14650W        W83013  11.286   1.416  14.887
14651W        W83014  16.761  10.802  11.884
14652W        W83015  11.186   4.345  12.535
14653W        W83016  35.501  12.175   1.801
14654W        W83017  22.513  18.787  10.641
14655W        W83018  41.452  21.547   4.161
14656W        W83019  18.665  39.353  10.502
14657W        W83020  11.338  34.379   3.286
14658W        W83021   6.191  31.513   2.210
14659W        W83022  14.754  31.956  11.480
14660W        W83023  32.028   5.839   4.612
14661W        W83024  40.878  21.039  14.411
14662W        W83025  41.001  31.492  10.516
14663W        W83026  39.982  23.718   2.324
14664W        W83027  20.123  22.701  11.937
14665W        W83028  11.847  42.964  12.540
14666W        W83029   5.760  37.524  11.009
14667W        W83030   8.203  39.340   1.294
14668W        W83031  35.582  31.566  13.358
14669W        W83032  41.838   2.354   4.752
14670W        W83033  40.893  37.953   0.444
14671W        W83034  21.524  33.411   4.697
14672W        W83035  43.476   3.862   2.379
14673W        W83036  16.245  26.992   0.295
14674W        W83037  12.214  12.628   4.726
14675W        W83038  18.294   0.948   2.283
14676W        W83039  41.319  16.111  11.964
14677W        W83040  27.139   9.329  14.471
14678W        W83041  41.326   6.685  12.447
14679W        W83042  37.930  27.185   0.735
14680W        W83043  42.288  41.335   2.682
14681W        W83044  25.058  17.570   1.923
14682W        W83045   1.466  43.889  12.840
14683W        W83046   5.313  17.142   4.261
14684W        W83047   8.173   0.250  12.964
14685W        W83048  30.962  20.570  12.517
14686W        W83049  24.060  24.504   3.766
14687W        W83050  44.399  34.009   3.673
14688W        W83051  12.218  21.257  14.768
14689W        W83052  29.987   7.793  14.471
14690W        W83053   5.820  24.491  13.939
14691W        W83054  44.778  40.955   4.734
14692W        W83055  11.205  18.160  12.969
14693W        W83056  43.966  26.168   3.167
14694W        W83057  41.884   9.831  13.930
14695W        W83058  36.561  10.831   3.816
14696W        W83059  33.948   3.293   1.850
14697W        W83060  38.070   2.922   4.228
14698W        W83061  17.177  15.287   3.153
14699W        W83062  14.152   6.334   1.919
14700W        W83063  36.447  17.299   0.404
14701W        W83064  26.598   6.327   4.352
14702W        W83065  38.458   5.279  13.374
14703W        W83066  10.362   8.737   3.174
14704W        W83067  17.681  28.595  13.312
14705W        W83068  16.219   1.916   1.384
14706W        W83069   4.428  20.039   4.778
14707W        W83070  38.404  26.191  10.531
14708W        W83071  27.553   2.780   4.624
14709W        W83072  41.875  36.848  11.498
14710W        W83073  35.556  24.163   4.774
14711W        W83074  21.193  18.280   3.714
14712W        W83075  36.888  16.584   0.784
14713W        W83076   5.404  34.012   2.852
14714W        W83077  33.381  26.607   0.836
14715W        W83078  40.913  17.132   4.734
14716W        W83079  16.258  16.628   4.827
14717W        W83080   8.198  29.126  11.951
14718W        W83081  43.929  38.478  14.898
14719W        W83082  37.980  11.723   0.916
14720W        W83083  23.638  43.478  10.639
14721W        W83084  14.703  27.999   5.094
14722W        W83085  20.675  32.516   0.930
14723W        W83086  12.279  44.968  14.999
14724W        W83087   4.832  41.925   3.829
14725W        W83088  15.700  25.641  10.410
14726W        W83089  17.149  43.891  14.900
14727W        W83090  18.693  24.152   2.694
14728W        W83091   0.412  16.569   3.719
14729W        W83092   0.346  29.656  10.483
14730W        W83093  38.062   8.754   3.178
14731W        W83094   0.330  44.421  14.947
14732W        W83095  11.746  33.972   2.765
14733W        W83096  39.918  27.054  11.891
14734W        W83097  23.628  19.727  11.600
14735W        W83098  20.029   3.347  10.133
14736W        W83099   9.863  29.927  12.968
14737W        W83100  23.189  37.012   0.856
14738W        W83101   7.219  14.784   4.634
14739W        W83102  32.490  25.121   5.124
14740W        W83103  40.958  36.903   3.350
14741W        W83104   8.663  43.386   0.753
14742W        W83105  41.820   9.383  13.870
14743W        W83106  30.653  12.332   0.363
14744W        W83107  27.555  33.030   4.330
14745W        W83108  27.067  26.123   3.377
14746W        W83109  40.963  11.681   1.741
14747W        W83110  40.499  20.105  10.542
14748W        W83111  44.475   2.351  10.579
14749W        W83112  40.019   1.875   1.738
14750W        W83113  24.521  30.525  14.509
14751W        W83114   9.359   2.734   4.139
14752W        W83115  26.573  15.308   2.297
14753W        W83116  26.026  16.165   1.805
14754W        W83117  15.628   6.829  10.515
14755W        W83118  20.185  26.077   3.341
14756W        W83119  12.715   9.169  12.525
14757W        W83120   4.329   0.481   0.891
14758W        W83121  24.484  42.927  11.389
14759W        W83122   6.390  39.374   2.393
14760W        W83123  43.865  29.643  14.836
14761W        W83124  37.573  28.080  10.578
14762W        W83125  38.067  42.788   1.283
14763W        W83126  17.224  31.930   1.797
14764W        W83127  31.902  25.066   1.771
14765W        W83128  37.528  18.281   1.922
14766W        W83129  38.389  27.670   4.614
14767W        W83130  23.601  41.802   3.357
14768W        W83131  34.593  15.777   1.226
14769W        W83132  28.512   5.716   1.406
14770W        W83133   1.897  13.618   0.294
14771W        W83134  44.408  44.402  14.824
14772W        W83135  22.217   7.813  11.461
14773W        W83136  36.972  42.432   2.219
14774W        W83137   4.309  11.825  14.917
14775W        W83138  10.636  16.608  11.906
14776W        W83139  32.456   6.355   1.310
14777W        W83140  10.328  15.313  13.478
14778W        W83141   4.402  14.632  14.855
14779W        W83142   6.852  19.062   1.424
14780W        W83143  26.678  25.090   3.254
14781W        W83144  23.530  28.637  14.905
14782W        W83145   9.715  35.106  12.490
14783W        W83146  39.480  44.321   2.208
14784W        W83147  22.705   7.193  10.417
14785W        W83148  15.633  29.157  13.401
14786W        W83149  25.170  36.486  11.094
14787W        W83150  11.141   5.787  11.061
14788W        W83151  42.342  32.007   4.702
14789W        W83152  43.980   3.799   0.253
14790W        W83153  30.464   9.703  11.422
14791W        W83154  30.055  21.652  14.777
14792W        W83155   9.711   4.420   0.438
14793W        W83156  12.833  37.351   0.334
14794W        W83157  43.410  33.089   4.623
14795W        W83158  27.632  21.715  10.632
14796W        W83159  17.195   7.261  12.442
14797W        W83160   2.449  34.052  13.442
14798W        W83161  12.836  32.577  14.765
14799W        W83162  30.961  10.695   4.716
14800W        W83163   8.378  39.432  12.554
14801W        W83164  32.087  30.960  13.868
14802W        W83165  44.934  38.486  11.024
14803W        W83166  22.154  39.870  13.353
14804W        W83167  42.930  38.826  13.061
14805W        W83168  19.195  42.391   3.255
14806W        W83169  13.112  23.201   0.290
14807W        W83170  34.045   3.736  12.382
14808W        W83171  33.923  15.126   0.270
14809W        W83172  10.698  27.149  10.523
14810W        W83173  37.534  34.983  11.125
14811W        W83174   4.703   1.326  11.981
14812W        W83175   7.359  10.195  11.427
14813W        W83176  40.044   2.431  13.351
14814W        W83177  40.957   3.307   3.156
14815W        W83178  42.475  37.948  14.472
14816W        W83179   5.324  21.757  10.506
14817W        W83180   2.446  37.891  12.975
14818W        W83181  18.067  44.934   4.738
14819W        W83182  12.817  39.455   3.268
14820W        W83183  39.392  37.580   1.284
14821W        W83184  38.978  37.022  14.384
14822W        W83185  12.752  35.376  14.513
14823W        W83186  28.967   4.424   1.232
14824W        W83187  24.038  28.062  13.887
14825W        W83188  39.017  31.435  12.402
14826W        W83189   5.368  40.812   0.460
14827W        W83190  28.983  26.018   3.755
14828W        W83191  12.199  27.980  11.063
14829W        W83192  41.996  13.161  10.631
14830W        W83193  32.512  43.311  12.922
14831W        W83194  44.955  15.813   4.737
14832W        W83195  13.816  28.973   2.268
14833W        W83196   1.331   1.316  10.555
14834W        W83197   6.923  27.949  13.326
14835W        W83198  22.037  13.600   4.287
14836W        W83199  30.055  22.152  13.847
14837W        W83200  27.164  16.273   4.707
14838W        W83201  32.563  35.948  11.951
14839W        W83202  33.496   7.747   2.379
14840W        W83203   8.707  16.805  14.854
14841W        W83204   6.294  22.661  14.452
14842W        W83205  38.025   2.951   3.754
14843W        W83206  25.131  44.805   1.723
14844W        W83207  31.004   3.945  13.445
14845W        W83208   0.365  37.391   3.659
14846W        W83209   8.893  12.785   1.715
14847W        W83210  27.980  37.567  10.915
14848W        W83211  40.002  26.971   1.807
14849W        W83212   0.262   4.214  14.383
14850W        W83213   0.359  18.107   0.900
14851W        W83214   7.338   7.882  13.859
14852W        W83215  13.638  44.892   0.397
14853W        W83216  17.219  11.733   4.749
14854W        W83217   6.373  33.098   4.816
14855W        W83218  18.700   4.943  11.583
14856W        W83219  25.128  29.550   4.829
14857W        W83220  28.517  25.591   3.320
14858W        W83221  11.175  12.749  11.028
14859W        W83222  37.006   4.217   0.756
14860W        W83223  18.789  31.579   3.824
14861W        W83224   6.784  34.562  10.980
14862W        W83225  10.224  31.500   2.665
14863W        W83226  36.366  34.913  13.063
14864W        W83227  44.775  34.065   2.299
14865W        W83228  19.587  20.104   3.208
14866W        W83229  44.823   1.850  14.514
14867W        W83230  36.955  32.983   1.694
14868W        W83231  18.249  27.963  11.115
14869W        W83232  10.158  19.744  12.344
14870W        W83233  23.654   9.219   4.788
14871W        W83234   9.814   6.331  11.598
14872W        W83235  20.230  38.995   2.390
14873W        W83236  44.785   0.881   4.113
14874W        W83237  32.975   1.406   4.305
14875W        W83238  24.547  39.879  14.873
14876W        W83239  22.584  22.067  10.448
14877W        W83240  30.163  27.988   0.455
14878W        W83241   5.853  24.661   1.710
14879W        W83242  43.995  11.347  14.378
14880W        W83243  21.615  25.978  10.471
14881W        W83244  18.180  17.800   1.228
14882W        W83245   8.228   0.371  14.802
14883W        W83246   7.257  11.817   1.281
14884W        W83247  14.602  40.028   1.771
14885W        W83248  29.956  17.248  13.023
14886W        W83249  12.277  29.096  12.428
14887W        W83250  39.828  29.647   2.825
14888W        W83251  38.570   2.323   0.729
14889W        W83252  12.148  36.097   3.778
14890W        W83253  34.603  27.529  13.516
14891W        W83254  33.123  23.094   0.329
14892W        W83255  36.059  31.596  10.561
14893W        W83256  38.992  13.278   3.283
14894W        W83257  11.309  24.539   0.901
14895W        W83258  26.695  27.652   1.893
14896W        W83259  39.945   7.209   0.266
14897W        W83260  42.428  40.372   4.188
14898W        W83261   7.829  40.034  10.456
14899W        W83262  38.451  42.941  14.913
14900W        W83263  42.423   3.843  11.924
14901W        W83264  26.092  23.625  14.275
14902W        W83265  37.067  22.026   0.935
14903W        W83266  19.101  38.509   4.817
14904W        W83267  28.628  20.599  12.380
14905W        W83268   0.951   8.355   3.224
14906W        W83269  35.082   4.297  14.994
14907W        W83270  15.301  17.153  10.015
14908W        W83271  35.554  18.150  12.824
14909W        W83272  13.206  42.481   2.406
14910W        W83273  18.660  30.057   0.397
14911W        W83274  32.954  30.633   4.797
14912W        W83275  34.565   4.701  12.036
14913W        W83276  42.892   5.770   1.750
14914W        W83277  34.368   4.389   0.261
14915W        W83278   4.243   4.754   0.426
14916W        W83279  16.780   9.830  11.128
14917W        W83280  14.631   0.941  11.982
14918W        W83281  17.134  12.684   0.474
14919W        W83282  26.624   2.408   5.301
14920W        W83283  25.108  28.137   3.195
14921W        W83284  13.644  29.617  12.358
14922W        W83285   7.760   1.771   3.197
14923W        W83286  22.197   1.240  10.485
14924W        W83287  22.515   6.270  12.384
14925W        W83288  25.673  12.738   0.787
14926W        W83289  30.162  37.005  13.423
14927W        W83290  32.016  32.512  12.954
14928W        W83291  33.397  14.097  14.426
14929W        W83292  18.110  11.218  10.421
14930W        W83293  43.878  28.612   3.195
14931W        W83294  36.073   6.874  14.422
14932W        W83295  18.754  10.665   4.120
14933W        W83296  22.118   1.343  12.943
14934W        W83297  12.753  41.372  10.500
14935W        W83298  14.793   0.262  14.475
14936W        W83299  19.283  10.872  13.058
14937W        W83300  13.298  24.226  14.762
14938W        W83301   3.351  36.992   1.793
14939W        W83302   1.770  25.053  10.039
14940W        W83303  12.299  42.517   0.473
14941W        W83304  21.171  42.780   0.944
14942W        W83305  22.047  36.071  11.110
14943W        W83306  20.636  39.486   2.309
14944W        W83307   5.335  14.249  12.915
14945W        W83308  38.432   9.713   3.324
14946W        W83309   4.306  25.064  13.342
14947W        W83310  22.616  13.242   2.351
14948W        W83311  15.790  43.290  14.282
14949W        W83312  27.567  13.681   3.200
14950W        W83313   9.228  31.076   4.810
14951W        W83314  30.442  22.663  12.940
14952W        W83315  41.836  33.384  12.576
14953W        W83316  10.208  33.999   0.354
14954W        W83317  19.609   9.695   0.276
14955W        W83318   2.350   6.219  10.978
14956W        W83319  30.103  43.886  13.001
14957W        W83320   6.215  17.734   4.809
14958W        W83321   2.398  28.151   1.710
14959W        W83322  39.997  34.417   0.266
14960W        W83323   2.944  21.617   2.184
14961W        W83324  24.159  44.870   1.859
14962W        W83325   0.807  12.775  14.434
14963W        W83326  29.549  36.533   2.355
14964W        W83327  40.977   6.769  11.593
14965W        W83328  29.553  32.917   0.947
14966W        W83329  38.508  23.735   3.801
14967W        W83330  25.622  15.251   0.832
14968W        W83331   7.412  35.074   4.195
14969W        W83332  19.146   4.829  12.070
14970W        W83333  39.339  15.724  13.375
14971W        W83334   7.358   2.745   2.823
14972W        W83335   5.850  26.510   0.883
14973W        W83336  21.068   8.839  14.865
14974W        W83337  19.080  21.516  10.991
14975W        W83338  25.016  29.170   1.358
14976W        W83339  15.147  37.846   4.225
14977W        W83340   5.759  16.271   0.345
14978W        W83341   7.795  24.509  14.286
14979W        W83342  19.736  15.227  10.640
14980W        W83343   9.727   3.845   3.672
14981W        W83344  12.806  32.442   1.282
14982W        W83345  34.924  14.311  13.455
14983W        W83346  28.128  43.996  14.960
14984W        W83347  10.283   7.210   2.786
14985W        W83348  26.150  18.240  11.930
14986W        W83349  20.710   8.799   1.895
14987W        W83350  36.043  14.654   1.233
14988W        W83351  25.698   7.768   1.894
14989W        W83352  22.155   8.742   0.433
14990W        W83353   8.388   0.984  10.569
14991W        W83354   2.872  28.173  10.633
14992W        W83355  15.630  33.475   5.322
14993W        W83356  24.715  28.450  11.867
14994W        W83357   8.844  27.104  12.348
14995W        W83358   8.304  14.768   4.718
14996W        W83359  28.029  37.465  12.425
14997W        W83360  24.033  35.913   3.299
14998W        W83361  41.353   3.269   4.335
14999W        W83362  44.314  26.550   4.813
15000W        W83363  28.053  13.288  12.981
15001W        W83364   8.659  24.071  12.851
15002W        W83365  39.433  29.119  10.463
15003W        W83366   9.788   4.783   0.788
15004W        W83367  22.532   4.893  10.452
15005W        W83368  24.088   4.940  14.969
15006W        W83369   6.831  31.072  12.088
15007W        W83370  17.773  36.913   4.340
15008W        W83371  35.361   4.239   1.421
15009W        W83372  26.686  17.752   2.685
15010W        W83373  26.694  14.627   2.357
15011W        W83374   2.257  33.027   2.693
15012W        W83375  21.653  34.518  12.902
15013W        W83376  18.215  24.499  14.422
15014W        W83377  40.855   9.345  14.300
15015W        W83378  14.694  26.481  12.385
15016W        W83379  16.178   8.351  14.934
15017W        W83380   3.711  27.940   3.739
15018W        W83381   0.332  24.482   4.629
15019W        W83382  39.402  14.768   2.188
15020W        W83383  17.297  18.719  11.557
15021W        W83384  36.482  13.831  12.391
15022W        W83385  29.101  23.174  12.572
15023W        W83386  41.035  36.925  13.829
15024W        W83387   3.906  14.755   4.621
15025W        W83388  11.189  24.052  12.038
15026W        W83389  30.555  43.893   0.748
15027W        W83390  18.291   9.806  14.905
15028W        W83391  36.366  15.774  14.793
15029W        W83392   3.246  22.143  11.044
15030W        W83393  25.085  21.169   4.735
15031W        W83394  17.636  42.019   1.841
15032W        W83395  18.081  16.612   0.310
15033W        W83396   6.424  44.453  13.512
15034W        W83397  42.029  18.083  10.521
15035W        W83398   7.177  29.559   3.228
15036W        W83399  43.296  21.679  11.520
15037W        W83400  41.956  41.844  13.990
15038W        W83401  36.985  11.229   0.247
15039W        W83402  17.139  31.471   2.253
15040W        W83403  42.816  25.113  11.914
15041W        W83404  33.518   7.367   3.354
15042W        W83405  26.681   7.753   3.792
15043W        W83406  43.911  37.970   5.664
15044W        W83407  25.617  25.021  13.408
15045W        W83408  35.022  37.352   3.339
15046W        W83409  26.000  12.285  13.850
15047W        W83410  35.050   3.445  12.480
15048W        W83411  16.302  18.171   1.927
15049W        W83412  44.827  31.570   2.789
15050W        W83413  20.098  20.218   2.186
15051W        W83414  44.494  25.111  10.599
15052W        W83415  15.127  34.930  14.951
15053W        W83416  34.378   8.344   0.438
15054W        W83417  12.783  15.185  12.053
15055W        W83418  10.858  14.265  13.507
15056W        W83419  21.633  38.408  14.782
15057W        W83420   4.428  43.314  11.439
15058W        W83421  35.485  23.690   1.703
15059W        W83422  39.417  28.636  11.910
15060W        W83423  10.198   2.860  12.510
15061W        W83424  22.548  31.972  13.014
15062W        W83425  30.937  35.547   2.404
15063W        W83426   8.750  19.047  12.374
15064W        W83427  11.663  33.430  14.281
15065W        W83428  14.267  32.480   1.350
15066W        W83429  32.571   7.231  10.426
15067W        W83430  34.481  23.092   2.827
15068W        W83431  39.948  15.275   4.260
15069W        W83432  34.589  16.809   2.201
15070W        W83433  25.670  42.855   2.181
15071W        W83434  36.429   8.729  12.420
15072W        W83435  22.730  24.611   4.760
15073W        W83436  33.506  13.243  11.461
15074W        W83437   9.202  19.134  12.447
15075W        W83438  11.657   1.836  10.517
15076W        W83439  28.630  37.477   5.135
15077W        W83440  35.941  29.528  14.499
15078W        W83441  30.626  17.679  14.832
15079W        W83442   6.396  39.007  10.634
15080W        W83443  26.112   5.826   0.400
15081W        W83444  43.791   1.803   3.826
15082W        W83445  42.442  10.354  11.426
15083W        W83446  39.852  32.575   2.308
15084W        W83447  17.249  19.259   0.951
15085W        W83448   0.825  18.607   2.212
15086W        W83449  12.168  40.913  13.932
15087W        W83450  29.977   7.265  12.528
15088W        W83451   3.734  20.642   1.801
15089W        W83452  25.521  43.871   4.711
15090W        W83453  25.646  19.267   0.478
15091W        W83454  12.190  39.378  13.368
15092W        W83455  42.831  11.646   0.264
15093W        W83456  30.937  15.792  12.871
15094W        W83457  27.042  34.866  10.452
15095W        W83458  37.077   5.427   1.366
15096W        W83459  35.412  32.097  11.553
15097W        W83460   8.180  14.098  13.448
15098W        W83461  37.908  44.977  10.434
15099W        W83462   7.209  15.818  11.116
15100W        W83463   5.748  12.150   0.267
15101W        W83464  32.441  15.819  12.476
15102W        W83465  23.178   2.751   3.192
15103W        W83466  28.174  41.875   4.817
15104W        W83467  22.709  29.085   2.221
15105W        W83468  12.647  40.809   2.267
15106W        W83469  35.075  13.634   0.342
15107W        W83470   1.243  21.018  10.020
15108W        W83471  24.557  27.513   3.693
15109W        W83472  24.225   5.776  11.442
15110W        W83473  14.236  23.703  14.021
15111W        W83474  40.423  30.439   1.390
15112W        W83475  32.001  20.195   2.238
15113W        W83476   1.783  21.137  14.833
15114W        W83477   2.841  38.395   4.295
15115W        W83478  20.550  28.091   3.863
15116W        W83479  15.822  35.569  12.835
15117W        W83480   0.909  26.627   5.086
15118W        W83481   6.734  37.010   1.783
15119W        W83482  43.443  32.417  10.960
15120W        W83483  11.252  44.387   1.368
15121W        W83484   1.925  30.479  10.449
15122W        W83485  34.615  41.853   0.922
15123W        W83486   0.450  40.982   3.851
15124W        W83487  22.250   8.887  14.968
15125W        W83488   4.880  13.761  12.427
15126W        W83489  42.301  43.994  14.284
15127W        W83490   2.916  21.170   3.360
15128W        W83491  22.553  11.746   1.262
15129W        W83492  12.189  36.968   3.277
15130W        W83493  14.729  16.774   5.296
15131W        W83494  15.698   5.744   4.225
15132W        W83495  33.393  22.671   1.369
15133W        W83496  18.555  37.869   3.750
15134W        W83497  42.512   3.724   3.340
15135W        W83498  19.600  24.179   1.869
15136W        W83499  22.624  19.076   3.754
15137W        W83500  35.983  21.084  11.954
15138W        W83501   3.362   6.778  14.354
15139W        W83502  13.838  24.701   3.180
15140W        W83503  28.546  10.252   2.802
15141W        W83504  15.694   0.376  12.000
15142W        W83505  14.110  21.114   2.180
15143W        W83506  16.223  40.841   1.317
15144W        W83507  29.957  11.682   1.813
15145W        W83508   1.875   4.703   2.808
15146W        W83509  37.373  39.043  14.007
15147W        W83510  28.942  40.383   1.892
15148W        W83511  24.057   0.332   4.201
15149W        W83512  20.168  21.210   5.312
15150W        W83513  26.532  21.583   2.196
15151W        W83514  42.785   0.295  12.067
15152W        W83515  12.341  13.182   4.266
15153W        W83516   8.810  36.490   0.836
15154W        W83517   1.731  22.745  11.488
15155W        W83518  40.835  39.329  12.940
15156W        W83519  14.215  31.448   2.816
15157W        W83520  28.094  42.502   0.271
15158W        W83521  26.495   6.909   1.264
15159W        W83522  31.086  20.235   3.165
15160W        W83523  37.515  35.539   1.785
15161W        W83524   0.877  10.247   4.690
15162W        W83525   6.920  32.519  13.486
15163W        W83526  14.200  23.049   2.866
15164W        W83527  32.392   4.897   0.437
15165W        W83528  25.571  23.540  14.988
15166W        W83529   3.310  38.413  12.529
15167W        W83530  41.867  21.608  14.327
15168W        W83531  43.771  27.529   1.222
15169W        W83532   0.443  17.265  13.482
15170W        W83533   5.797  10.869  13.320
15171W        W83534  14.104  19.598  10.461
15172W        W83535  43.936  33.388  11.432
15173W        W83536  31.016  35.535  13.791
15174W        W83537  29.172   0.813  14.962
15175W        W83538  29.953   3.400   0.399
15176W        W83539  16.140   6.195   1.258
15177W        W83540  27.481  14.733  11.055
15178W        W83541  31.912  43.295  13.873
15179W        W83542  32.414  19.161  13.928
15180W        W83543  28.503  30.916   2.386
15181W        W83544   1.872  29.091   4.279
15182W        W83545  20.199  19.681  11.956
15183W        W83546  37.478   9.266   3.757
15184W        W83547  20.760  37.016  14.901
15185W        W83548  30.983  25.211  14.848
15186W        W83549  26.164   3.761   0.266
15187W        W83550  31.475  11.194   3.727
15188W        W83551  20.692   6.787   0.298
15189W        W83552   8.840  34.604  11.402
15190W        W83553  30.499  28.168   3.267
15191W        W83554  22.531  22.209   5.190
15192W        W83555  41.305   7.215   4.749
15193W        W83556  10.199   4.227   9.928
15194W        W83557  36.904  41.827   2.260
15195W        W83558  27.557  44.003   3.337
15196W        W83559  15.289  28.670   4.698
15197W        W83560  23.073  39.014  14.933
15198W        W83561  41.338  39.918   1.373
15199W        W83562  24.537  20.639   2.330
15200W        W83563   4.236  23.511   4.171
15201W        W83564  22.567  37.084  12.009
15202W        W83565  40.025  21.181   2.207
15203W        W83566   8.344  14.655  10.558
15204W        W83567  41.993  18.183   3.668
15205W        W83568   2.396   6.865   1.288
15206W        W83569  25.176  23.586   1.711
15207W        W83570  35.017  37.976   2.219
15208W        W83571  34.591  39.942  12.390
15209W        W83572  12.213  28.933  12.083
15210W        W83573  39.447  44.487   2.727
15211W        W83574  36.414  15.275  11.028
15212W        W83575  17.565  39.495  13.042
15213W        W83576  17.739  29.052   4.652
15214W        W83577   0.348  44.265  13.927
15215W        W83578  17.713  10.354  11.517
15216W        W83579  30.165   4.241  14.006
15217W        W83580   8.860  21.162  11.425
15218W        W83581  42.526  35.900   4.776
15219W        W83582  33.608   3.842  13.347
15220W        W83583   9.678  28.526   1.921
15221W        W83584  29.952  20.112   1.739
15222W        W83585  29.138   5.355  12.891
15223W        W83586  22.006  42.787   3.813
15224W        W83587   8.273  44.987  12.889
15225W        W83588  33.044   4.740   3.708
15226W        W83589   1.443  20.108   3.316
15227W        W83590  34.450  15.805  11.978
15228W        W83591   2.763  34.089   2.329
15229W        W83592  28.492  35.987  11.981
15230W        W83593  20.671   2.928  12.414
15231W        W83594  19.233  41.889   2.881
15232W        W83595  31.613   6.391   3.714
15233W        W83596  29.610  39.921  10.467
15234W        W83597  13.621  17.727   4.633
15235W        W83598  25.099  34.044  10.900
15236W        W83599  10.780  21.733   4.218
15237W        W83600  38.435  23.033   0.443
15238W        W83601   9.220  34.061  13.400
15239W        W83602  10.275  41.335   3.178
15240W        W83603  17.116  19.604  11.091
15241W        W83604  29.153   4.729  11.451
15242W        W83605   9.809  36.386  13.323
15243W        W83606   3.778  30.580  12.451
15244W        W83607  19.275  36.374   3.222
15245W        W83608  40.524  16.722   3.218
15246W        W83609   6.202  37.990  11.420
15247W        W83610   0.749  11.679   5.206
15248W        W83611   5.803  33.525  10.465
15249W        W83612   0.493   4.420  11.495
15250W        W83613  16.258  43.382  14.374
15251W        W83614  35.378  35.066   0.420
15252W        W83615  24.031  23.032  14.385
15253W        W83616  37.374  19.584   0.922
15254W        W83617  32.916  26.196  13.356
15255W        W83618   8.389  28.554  11.536
15256W        W83619   8.240  14.208   0.466
15257W        W83620  11.645  25.584   1.858
15258W        W83621  10.854  32.098   4.346
15259W        W83622  24.650  43.877   0.930
15260W        W83623  18.279  29.475   0.936
15261W        W83624  20.219   5.357  12.920
15262W        W83625  23.004  31.032   1.217
15263W        W83626  23.539  34.865  13.036
15264W        W83627  21.035  14.650   1.817
15265W        W83628  24.525   7.730   0.862
15266W        W83629  32.002  12.650   9.945
15267W        W83630  43.276  15.613   0.816
15268W        W83631   7.252  10.183  10.990
15269W        W83632   3.781  34.560   3.195
15270W        W83633  13.796  23.594  13.532
15271W        W83634  12.335  27.956   0.800
15272W        W83635   0.861  18.163  11.414
15273W        W83636   5.393   6.861   4.148
15274W        W83637  11.673  25.598  13.465
15275W        W83638  22.623   8.848  13.896
15276W        W83639  29.021  44.826   2.308
15277W        W83640  32.116   2.779   1.263
15278W        W83641  32.564  41.400   5.287
15279W        W83642   2.720  20.636   2.208
15280W        W83643   2.930   6.379   0.257
15281W        W83644  39.927   2.326   4.175
15282W        W83645   7.838  21.215  13.374
15283W        W83646  14.334  17.091   0.932
15284W        W83647  44.487  23.732  10.570
15285W        W83648  43.417  25.490   0.321
15286W        W83649  35.083  41.915  13.986
15287W        W83650   4.746  36.081   0.300
15288W        W83651  43.388  14.633   4.134
15289W        W83652  10.267  15.323   0.278
15290W        W83653   1.262  20.696   0.329
15291W        W83654  11.694  34.963  11.023
15292W        W83655  23.050  26.506   2.819
15293W        W83656   6.372  26.570   3.712
15294W        W83657  26.492  38.913   2.269
15295W        W83658   9.256  33.071   3.703
15296W        W83659  27.517  15.167  11.927
15297W        W83660  16.763   8.885  12.556
15298W        W83661  34.079  24.110   2.669
15299W        W83662   0.422  24.199  11.440
15300W        W83663  33.953   6.826  14.759
15301W        W83664  33.482  32.102   1.230
15302W        W83665  13.128  38.059  11.014
15303W        W83666  42.871   6.204   2.840
15304W        W83667  12.261  43.409   2.755
15305W        W83668  16.567  30.569  10.639
15306W        W83669  40.535   5.693   4.777
15307W        W83670  35.413   1.804   0.866
15308W        W83671  27.563  36.413  13.018
15309W        W83672   8.350  36.356  14.886
15310W        W83673  18.708  23.566  11.032
15311W        W83674  11.662  23.707   9.977
15312W        W83675   1.874  23.172  11.869
15313W        W83676  12.157  28.056  12.540
15314W        W83677   5.316  39.051   0.248
15315W        W83678  35.949  15.684   0.329
15316W        W83679   5.869  17.118   1.386
15317W        W83680  33.597  31.429   1.333
15318W        W83681  15.305  42.481  12.460
15319W        W83682  35.929  33.016  14.003
15320W        W83683  20.666  28.997  14.285
15321W        W83684  32.076   1.857  11.032
15322W        W83685  16.714   2.754   3.188
15323W        W83686  11.629   7.769  11.085
15324W        W83687  35.559  21.170  12.946
15325W        W83688  38.488   8.831   0.776
15326W        W83689  19.705  41.900  11.965
15327W        W83690  22.594  15.098   4.124
15328W        W83691   0.350  31.550   3.369
15329W        W83692  39.025  38.945   9.962
15330W        W83693   9.349  36.475   3.360
15331W        W83694  44.779   6.340  13.939
15332W        W83695   1.478  29.076   0.327
15333W        W83696  42.448  31.613  13.306
15334W        W83697   0.817  28.976   1.423
15335W        W83698  33.934  27.177  13.426
15336W        W83699   1.298  37.874  14.383
15337W        W83700  31.937  35.539  12.516
15338W        W83701   8.166  29.568   4.211
15339W        W83702  30.541   3.956  14.849
15340W        W83703  29.063  33.065  12.359
15341W        W83704  41.804   7.251  10.942
15342W        W83705   9.348   5.253   4.813
15343W        W83706  27.503  38.570  14.496
15344W        W83707  13.134  23.606   4.310
15345W        W83708  42.517   6.377  13.426
15346W        W83709   9.257  43.980   2.295
15347W        W83710  13.226   9.698  11.035
15348W        W83711  32.561  37.549   0.855
15349W        W83712   7.792  18.170   4.788
15350W        W83713  32.974   9.808   3.317
15351W        W83714  41.363  35.473   1.911
15352W        W83715  28.113  41.935  12.935
15353W        W83716  21.718  34.973  13.409
15354W        W83717   9.265   3.331  13.794
15355W        W83718  12.823  20.198   5.160
15356W        W83719  20.684   0.365   2.255
15357W        W83720  27.523  16.666  12.560
15358W        W83721  36.001  29.005  13.395
15359W        W83722  25.129  22.106  12.352
15360W        W83723  16.712   6.333   1.334
15361W        W83724  23.499  17.099   3.273
15362W        W83725  28.623  32.887  10.951
15363W        W83726  34.614  33.467  13.970
15364W        W83727  14.693  20.168  13.947
15365W        W83728  44.873  41.967   3.863
15366W        W83729  42.447  13.307  10.529
15367W        W83730  22.013  22.033  12.448
15368W        W83731   5.420  39.840  11.467
15369W        W83732  28.555   7.711   0.370
15370W        W83733  22.745  15.151  13.856
15371W        W83734  15.255  44.974   4.277
15372W        W83735  33.525  31.498  12.549
15373W        W83736  18.119  13.181   3.793
15374W        W83737  14.251  11.710  13.382
15375W        W83738  22.547   4.925  14.307
15376W        W83739  20.734  38.447   2.781
15377W        W83740  21.666   7.702  10.460
15378W        W83741  29.585  32.494  14.015
15379W        W83742  43.497   9.374  12.468
15380W        W83743  13.122  21.586   2.306
15381W        W83744   3.266  16.231  12.086
15382W        W83745  32.579  27.045   3.641
15383W        W83746  22.575  25.484  13.844
15384W        W83747   0.270  31.598   3.662
15385W        W83748  17.257  36.431   4.244
15386W        W83749   7.680  13.635   0.828
15387W        W83750  11.699  26.096  11.429
15388W        W83751  31.134   1.298  11.499
15389W        W83752  16.722  37.351  13.547
15390W        W83753  35.955  25.157  14.477
15391W        W83754  17.113  34.934   3.208
15392W        W83755  40.918   0.873  12.887
15393W        W83756  30.556  19.259   0.940
15394W        W83757  37.445  40.980   3.796
15395W        W83758  34.413  42.871   2.408
15396W        W83759   7.696   4.753  13.957
15397W        W83760   9.204  25.188   0.967
15398W        W83761  16.738  32.599  13.460
15399W        W83762  30.006  34.525   0.397
15400W        W83763  42.360   1.732   1.224
15401W        W83764  15.325   9.758  11.444
15402W        W83765  30.945  34.966  10.481
15403W        W83766  38.036  17.204  11.874
15404W        W83767   5.933   1.931   4.168
15405W        W83768  12.689  44.006   1.896
15406W        W83769  39.447  30.417  12.058
15407W        W83770  31.633  22.189  12.861
15408W        W83771   0.765   7.280  10.995
15409W        W83772   5.211  19.227  13.895
15410W        W83773   2.967   6.387  11.471
15411W        W83774  25.110   2.733  14.424
15412W        W83775  21.191  28.116   5.128
15413W        W83776  38.328   5.270   0.882
15414W        W83777   4.221   1.444   2.839
15415W        W83778  34.463  24.105   4.239
15416W        W83779  31.932  32.029  13.817
15417W        W83780  21.754  42.352   2.378
15418W        W83781   9.829  41.385  14.823
15419W        W83782  42.978  41.478   4.189
15420W        W83783   7.852   7.271   3.358
15421W        W83784   7.810  21.620  10.642
15422W        W83785  40.920  36.846   1.884
15423W        W83786  34.387  18.579   0.962
15424W        W83787  32.480   7.203  14.860
15425W        W83788  44.950  18.139  13.946
15426W        W83789  31.037   5.200   1.222
15427W        W83790  12.247  12.668  13.892
15428W        W83791  44.782  26.505  13.051
15429W        W83792  24.654  26.195  12.996
15430W        W83793   3.811  24.624  12.987
15431W        W83794  22.205  35.852  14.827
15432W        W83795  42.956   2.869  12.934
15433W        W83796  41.379  26.002  10.946
15434W        W83797  38.007  15.622   5.315
15435W        W83798  29.920   5.784   3.208
15436W        W83799  40.905  12.843   2.724
15437W        W83800  32.988  15.270  10.449
15438W        W83801  17.802   0.482   0.397
15439W        W83802  31.418  29.423  12.853
15440W        W83803   2.805  34.883   4.343
15441W        W83804  20.634  42.894   2.408
15442W        W83805  43.992   1.357   0.282
15443W        W83806  23.215  22.685  11.374
15444W        W83807  22.527  34.538  13.894
15445W        W83808   9.692  43.812   0.286
15446W        W83809  30.540  28.090   0.426
15447W        W83810  34.527  40.882  13.327
15448W        W83811  40.324  32.887  11.016
15449W        W83812  22.020  40.371   4.164
15450W        W83813  32.548  13.327  13.013
15451W        W83814   2.800  35.568   0.770
15452W        W83815  44.442   4.923  12.931
15453W        W83816   1.458  24.083   1.747
15454W        W83817  29.583  17.608  10.470
15455W        W83818  36.492  40.402  11.421
15456W        W83819   3.879  19.048   0.420
15457W        W83820  12.720   3.347   1.308
15458W        W83821  40.417  24.594   1.427
15459W        W83822  13.338  29.029   4.139
15460W        W83823   2.932  43.005  13.834
15461W        W83824  11.737  21.574   3.637
15462W        W83825  40.393  23.016   3.379
15463W        W83826  21.055  12.300   2.774
15464W        W83827  43.872  28.501  12.391
15465W        W83828  32.111  14.613  14.461
15466W        W83829  17.730   3.461   4.657
15467W        W83830  22.507  34.090  11.595
15468W        W83831  12.841  38.449   2.390
15469W        W83832   5.268  12.215   4.192
15470W        W83833  34.867  13.812  13.888
15471W        W83834  22.671  36.365   1.308
15472W        W83835  40.809  14.683  14.947
15473W        W83836  41.359  14.207  12.466
15474W        W83837  29.929   7.275   3.822
15475W        W83838  32.609  13.252   3.180
15476W        W83839  33.980  33.446  12.022
15477W        W83840  32.117   8.403  14.814
15478W        W83841   6.253  19.731   0.927
15479W        W83842  20.706  36.376  13.812
15480W        W83843  26.076  33.033  13.831
15481W        W83844  31.404   7.239  10.488
15482W        W83845   5.722  31.084   3.226
15483W        W83846  37.900  11.294  11.588
15484W        W83847   3.301   2.723   2.347
15485W        W83848  27.015  16.158  12.959
15486W        W83849  18.257  30.934   2.362
15487W        W83850  26.523  25.480   1.334
15488W        W83851  16.116   2.412   4.296
15489W        W83852  11.829   0.967   0.371
15490W        W83853  34.503  13.175   1.915
15491W        W83854  40.398  32.030  13.841
15492W        W83855   1.821  32.973   1.897
15493W        W83856  26.192  23.165  10.571
15494W        W83857   6.376  33.051  13.878
15495W        W83858  38.412  13.727  13.049
15496W        W83859  40.543  12.684  10.032
15497W        W83860  21.615  39.395   4.802
15498W        W83861   4.302  34.046  14.030
15499W        W83862  35.002  21.048   1.320
15500W        W83863   3.370  43.361  14.895
15501W        W83864  44.845  16.312   0.769
15502W        W83865  15.762  23.605  11.122
15503W        W83866  12.829  24.136  10.932
15504W        W83867   7.674  16.601   2.278
15505W        W83868   6.787  10.659   4.612
15506W        W83869  10.270  34.443  12.009
15507W        W83870  41.812   8.288   3.362
15508W        W83871  15.177  18.245  10.899
15509W        W83872  35.982  12.769  14.326
15510W        W83873  20.110  40.021   0.266
15511W        W83874  30.966  38.862  10.028
15512W        W83875  29.073  10.304   1.395
15513W        W83876   0.387  35.999   2.799
15514W        W83877  39.498  17.709  11.402
15515W        W83878  24.042   4.330   4.166
15516W        W83879  38.027   3.767  13.012
15517W        W83880  42.340  37.489   4.203
15518W        W83881  32.987  36.547   1.880
15519W        W83882   8.182   5.421   2.258
15520W        W83883   0.873  44.270   2.360
15521W        W83884  10.715  39.353   0.858
15522W        W83885   5.872   3.917  12.417
15523W        W83886  10.181  44.340   1.750
15524W        W83887  19.544  39.863   3.727
15525W        W83888  35.405  17.121   4.737
15526W        W83889  37.861   1.294  12.538
15527W        W83890  12.208   8.739  11.611
15528W        W83891  11.365   0.864  11.454
15529W        W83892   2.397  16.678  10.962
15530W        W83893  34.083   0.438   4.286
15531W        W83894  38.904  32.937   3.351
15532W        W83895  20.667   5.808  14.437
15533W        W83896  15.658   6.919   2.321
15534W        W83897  20.043   0.358  11.498
15535W        W83898  15.621  12.706  11.429
15536W        W83899  22.636  13.334   4.710
15537W        W83900  23.170  17.086  13.933
15538W        W83901  42.953  39.922  10.128
15539W        W83902   4.275  18.674   0.249
15540W        W83903   6.756  26.512  13.871
15541W        W83904  42.848  16.198   3.233
15542W        W83905  28.100  19.768  11.487
15543W        W83906  17.213   2.804   9.959
15544W        W83907  17.201   3.247  10.939
15545W        W83908  43.949   3.453  13.499
15546W        W83909  21.700   4.272  13.860
15547W        W83910   2.380  33.529   0.948
15548W        W83911   5.221  35.908   1.340
15549W        W83912  10.841  15.138  10.997
15550W        W83913  17.224  35.026   1.811
15551W        W83914  12.116   3.932   0.929
15552W        W83915  21.678   0.445   0.875
15553W        W83916  35.443  26.616   4.666
15554W        W83917  41.402  34.948   3.854
15555W        W83918  31.578  43.005   0.784
15556W        W83919  24.141  26.654   0.837
15557W        W83920   0.315  23.218   0.358
15558W        W83921  34.975  35.373   3.871
15559W        W83922  31.941  42.319   3.678
15560W        W83923  18.674  14.720   3.369
15561W        W83924  27.116  41.850  10.478
15562W        W83925  21.151  21.249  11.612
15563W        W83926  11.677   8.769   0.801
15564W        W83927  14.106   4.702   3.282
15565W        W83928  32.434   2.759  12.986
15566W        W83929  10.319   8.306   3.272
15567W        W83930  38.029  23.085   3.383
15568W        W83931  32.067   7.227  14.869
15569W        W83932   8.891  16.630   1.294
15570W        W83933   4.367   4.726  10.561
15571W        W83934  11.147  15.812   4.694
15572W        W83935  25.073  25.020  10.930
15573W        W83936  32.034   9.793   1.819
15574W        W83937  39.494   5.277   1.702
15575W        W83938  21.635  43.842  10.501
15576W        W83939  23.089   0.830   1.785
15577W        W83940  20.713  34.029  10.504
15578W        W83941  44.449  12.186  14.905
15579W        W83942  30.524  37.524   3.707
15580W        W83943  44.327  31.976  13.312
15581W        W83944  27.609   0.963   3.724
15582W        W83945  24.125   4.747  13.857
15583W        W83946   1.308  38.837  11.398
15584W        W83947  15.198  10.642   2.795
15585W        W83948  39.478  32.605  12.010
15586W        W83949   6.424  40.902  13.517
15587W        W83950  11.745  17.106   5.184
15588W        W83951  14.640   1.767  11.077
15589W        W83952  33.076  33.950  13.884
15590W        W83953  43.950  23.202  13.011
15591W        W83954   4.803  23.731   5.088
15592W        W83955   0.456  11.721  10.448
15593W        W83956  22.136  20.035  12.498
15594W        W83957  19.196   7.395   0.920
15595W        W83958  16.759  26.072  14.862
15596W        W83959  37.068  27.483   1.792
15597W        W83960  44.832   1.338  12.052
15598W        W83961  36.351   9.341   4.306
15599W        W83962  32.038  19.555   0.334
15600W        W83963  36.397  14.120  11.452
15601W        W83964  12.666  11.222  14.887
15602W        W83965  24.512   9.314  13.307
15603W        W83966  21.632  39.347   3.739
15604W        W83967  44.985  24.005   4.627
15605W        W83968  23.552  22.106  14.286
15606W        W83969   9.876  25.187  14.857
15607W        W83970  27.516  21.112  14.288
15608W        W83971  41.938   5.880   1.903
15609W        W83972  44.346  10.638  10.968
15610W        W83973  32.491  38.843  13.410
15611W        W83974  22.161  25.192   0.775
15612W        W83975   9.228  42.832  11.603
15613W        W83976  32.479   2.864   3.693
15614W        W83977  17.774  40.997   2.398
15615W        W83978  38.899  20.649   4.622
15616W        W83979   1.291  39.462  12.940
15617W        W83980  21.198   3.312  10.921
15618W        W83981  30.435  21.592   3.780
15619W        W83982   4.874  26.051   1.245
15620W        W83983  30.611  18.286  11.978
15621W        W83984  30.530  39.940  14.805
15622W        W83985  13.225  26.118  11.499
15623W        W83986  40.054  36.382  12.857
15624W        W83987  38.519  32.093   0.414
15625W        W83988  24.992  31.424  10.588
15626W        W83989  29.145  40.446   3.290
15627W        W83990  22.642   4.918   1.366
15628W        W83991  21.566  22.203   3.852
15629W        W83992  13.198  11.723  14.957
15630W        W83993   6.695   2.410   1.881
15631W        W83994  30.000  13.331   3.685
15632W        W83995  39.051  22.237  13.523
15633W        W83996  35.465  16.227   1.872
15634W        W83997  43.020  14.165   1.780
15635W        W83998  36.462  38.492   1.389
15636W        W83999  14.647  39.337   2.214
15637W        W84000  26.459   0.977   2.791
15638W        W84001  43.844  15.310  13.464
15639W        W84002  24.151   8.843  12.395
15640W        W84003   3.358   5.919  11.021
15641W        W84004  32.401  34.381  14.891
15642W        W84005   2.723  44.960   2.217
15643W        W84006   1.332   4.447  14.438
15644W        W84007  12.362  21.609  12.935
15645W        W84008   4.777  37.563   4.607
15646W        W84009  32.542  10.186   4.815
15647W        W84010  44.342  26.625   5.117
15648W        W84011   6.330  12.139   3.329
15649W        W84012  18.553  11.138  11.536
15650W        W84013  43.774  38.347  10.949
15651W        W84014  28.487  34.522   2.849
15652W        W84015  22.149   2.934  13.996
15653W        W84016  28.096   6.873  13.371
15654W        W84017   6.206  10.214  14.283
15655W        W84018  38.030  11.661  13.332
15656W        W84019  34.107  37.439  12.010
15657W        W84020  24.052  41.450  10.026
15658W        W84021  40.048   4.361   4.838
15659W        W84022  12.644  44.423  13.823
15660W        W84023  38.923  33.381   5.190
15661W        W84024  25.178  30.477   0.943
15662W        W84025  38.984  25.684   2.668
15663W        W84026  30.027  37.949  14.799
15664W        W84027  41.010  28.973   3.761
15665W        W84028   3.277  37.002  10.593
15666W        W84029  27.664  21.135  10.896
15667W        W84030  23.236  37.911  14.322
15668W        W84031   2.317  25.674   1.438
15669W        W84032  28.579  37.460  13.893
15670W        W84033  21.642  30.945   1.335
15671W        W84034  17.574  11.270   3.703
15672W        W84035   8.198   2.426  13.890
15673W        W84036   9.769  32.917  14.515
15674W        W84037  43.950   8.302  14.444
15675W        W84038  34.526  13.189  11.417
15676W        W84039  11.718  12.771  14.317
15677W        W84040   3.720  33.389  10.031
15678W        W84041  35.509  23.533  11.901
15679W        W84042  20.175  39.468  14.369
15680W        W84043  42.441  42.002   2.750
15681W        W84044  25.507  34.412  13.857
15682W        W84045  10.365  43.935  10.081
15683W        W84046  42.970  41.531  14.851
15684W        W84047   6.730  32.012  13.056
15685W        W84048   6.710   1.767  12.408
15686W        W84049  42.469   9.252   2.795
15687W        W84050  34.375  31.042   3.854
15688W        W84051  44.489   7.345  11.983
15689W        W84052  27.590   1.938   1.841
15690W        W84053  19.742  30.647  13.453
15691W        W84054   4.438   1.867   0.253
15692W        W84055  18.645  10.281  13.936
15693W        W84056   1.311  10.863   1.451
15694W        W84057   3.280  39.369   4.749
15695W        W84058   1.910   5.339   2.291
15696W        W84059  17.742  44.488   2.343
15697W        W84060  43.311  37.908  12.456
15698W        W84061  38.455  34.399  12.050
15699W        W84062  29.086   9.762  11.856
15700W        W84063  41.972  12.690   4.694
15701W        W84064  30.517  20.642   1.697
15702W        W84065  25.128  13.732  13.308
15703W        W84066  16.723  42.371  11.399
15704W        W84067  12.649  21.158  10.485
15705W        W84068  20.248  27.663   1.894
15706W        W84069  23.629  43.411  11.884
15707W        W84070   4.782   4.266   5.297
15708W        W84071   5.366   0.815   4.312
15709W        W84072  38.502   9.327  14.969
15710W        W84073  13.618  35.401  14.002
15711W        W84074  27.048  13.170  10.645
15712W        W84075  36.425  18.211   4.646
15713W        W84076  24.060  33.605  14.458
15714W        W84077   1.365  23.063   0.954
15715W        W84078  20.267  38.552   0.727
15716W        W84079   8.294  43.997   4.151
15717W        W84080   1.754  24.678   2.202
15718W        W84081  43.442  27.488   4.632
15719W        W84082  37.389  32.935  13.887
15720W        W84083  36.069  24.215  10.492
15721W        W84084  29.528  18.745  12.385
15722W        W84085   2.786  13.221   4.194
15723W        W84086  37.022  28.657  12.485
15724W        W84087  44.764  35.042   1.714
15725W        W84088  18.644  13.774  12.418
15726W        W84089  20.669  16.128   3.720
15727W        W84090  13.277   1.257  10.645
15728W        W84091  39.815  16.088  12.917
15729W        W84092  22.149  30.476   0.331
15730W        W84093  37.048  21.516   1.917
15731W        W84094  14.727  22.569  14.278
15732W        W84095  16.241  27.042   1.436
15733W        W84096  16.258  37.514   1.223
15734W        W84097  13.307  31.011  13.378
15735W        W84098  22.136  26.567  13.064
15736W        W84099  20.099  41.906   3.841
15737W        W84100   2.810  31.060  10.552
15738W        W84101  38.408  27.596   2.218
15739W        W84102  20.240  25.017   3.335
15740W        W84103  38.455  14.227   2.704
15741W        W84104  25.607  24.660   2.274
15742W        W84105  15.214  10.283  11.110
15743W        W84106  20.122  11.188  12.569
15744W        W84107  24.021  28.186  11.451
15745W        W84108  13.350  37.021   3.677
15746W        W84109  36.876  25.661   3.668
15747W        W84110  14.247  11.743   5.101
15748W        W84111  22.625  39.366  12.012
15749W        W84112   8.312  40.021   0.833
15750W        W84113   9.349  27.993  10.592
15751W        W84114   0.443  28.628   4.276
15752W        W84115   2.358  33.935  13.917
15753W        W84116  36.430  22.565   2.688
15754W        W84117  43.955  42.391   0.886
15755W        W84118  34.547  37.987  10.447
15756W        W84119  19.677  44.780   2.232
15757W        W84120  21.081   1.318  11.902
15758W        W84121   5.320   0.305   1.773
15759W        W84122  35.375  38.565   2.827
15760W        W84123  31.033  17.102  11.440
15761W        W84124  15.229  17.797  14.811
15762W        W84125   3.420  41.422   1.912
15763W        W84126  30.607   0.983   4.204
15764W        W84127  27.985   9.801  14.360
15765W        W84128  41.886  27.116  13.845
15766W        W84129  34.912   5.912  12.047
15767W        W84130  11.683  17.652  11.042
15768W        W84131  19.199  14.791   4.130
15769W        W84132   1.837   5.710   1.773
15770W        W84133  24.114   7.220  13.020
15771W        W84134  35.580  38.924   3.721
15772W        W84135  28.572  30.150   0.252
15773W        W84136  18.233  17.585  10.896
15774W        W84137  38.827  26.140  12.884
15775W        W84138  16.612   9.803   4.250
15776W        W84139  20.571  28.489  13.938
15777W        W84140   1.964  36.066   0.733
15778W        W84141  17.753   6.426  12.832
15779W        W84142  24.487  15.117  14.353
15780W        W84143  23.180  22.238  12.430
15781W        W84144  13.176  42.874   1.851
15782W        W84145  44.449  30.097  10.921
15783W        W84146   5.901   2.373  12.547
15784W        W84147   6.354   1.474   0.863
15785W        W84148  33.564  40.345   2.238
15786W        W84149  37.474  33.048   4.188
15787W        W84150  35.538  39.545  13.026
15788W        W84151  16.198  26.555  13.886
15789W        W84152   2.454  27.000   1.730
15790W        W84153   5.773   8.370  12.876
15791W        W84154  15.761  16.715   0.900
15792W        W84155   1.395  28.171  14.311
15793W        W84156  33.874  37.517   4.280
15794W        W84157  44.841  39.913   1.270
15795W        W84158  26.981  38.939  12.872
15796W        W84159  31.605  30.612  13.516
15797W        W84160  25.203   9.723   1.255
15798W        W84161  41.838  10.818   1.412
15799W        W84162  14.701  10.243  12.363
15800W        W84163  35.533  34.903   3.294
15801W        W84164  39.337  24.608  11.560
15802W        W84165  16.807  22.518   0.431
15803W        W84166   6.186  42.986  12.003
15804W        W84167  12.625  38.448  12.049
15805W        W84168  37.410  22.243   4.229
15806W        W84169   0.750  16.637   3.702
15807W        W84170  15.682  37.343  12.020
15808W        W84171  27.650   1.480   2.673
15809W        W84172  17.299  10.707  13.462
15810W        W84173  37.511   1.899  13.040
15811W        W84174  34.421  43.000  14.923
15812W        W84175  10.658  22.243   3.197
15813W        W84176  27.639   3.831  12.934
15814W        W84177   5.225  21.134   4.172
15815W        W84178  21.713  43.001  12.943
15816W        W84179  21.646   3.229   0.901
15817W        W84180  38.462  10.796   1.367
15818W        W84181   4.363  25.511  11.396
15819W        W84182   5.705  32.893  11.038
15820W        W84183  39.453  30.920   1.419
15821W        W84184  23.185  26.067  14.281
15822W        W84185   6.865  42.930   0.349
15823W        W84186  10.340  20.610  13.835
15824W        W84187  14.831  28.535  14.419
15825W        W84188  40.927  39.947   0.766
15826W        W84189  13.779  16.184   0.328
15827W        W84190   5.367   0.399   0.345
15828W        W84191  17.302  27.191   2.764
15829W        W84192  16.718  42.353  13.049
15830W        W84193  13.839  22.243  11.936
15831W        W84194  39.919  41.876   2.309
15832W        W84195  11.349  16.271   3.232
15833W        W84196  23.662  10.637   3.658
15834W        W84197  42.836   9.798  13.960
15835W        W84198  21.717  19.751   0.764
15836W        W84199  16.231  31.117  11.073
15837W        W84200  19.067  36.087  12.905
15838W        W84201  20.264  40.838   2.728
15839W        W84202  33.874  13.309   3.681
15840W        W84203  16.193   9.804   1.894
15841W        W84204   5.198  17.617  13.001
15842W        W84205  38.423   5.423  12.869
15843W        W84206  19.051  38.913  11.413
15844W        W84207  25.090  29.170  10.411
15845W        W84208  26.018  16.148   2.280
15846W        W84209  30.642  29.441   1.260
15847W        W84210  35.033  33.567  13.420
15848W        W84211  41.359  38.070   4.188
15849W        W84212   4.393  38.390  11.861
15850W        W84213  19.547   3.949  12.095
15851W        W84214  39.009  43.967   3.718
15852W        W84215  17.797  12.813  12.980
15853W        W84216  12.332  28.005   1.217
15854W        W84217   3.731   0.870   3.691
15855W        W84218  33.072  41.337  14.767
15856W        W84219  34.035  11.713   1.837
15857W        W84220  44.475  16.080   0.785
15858W        W84221  39.832  12.775   5.285
15859W        W84222  28.014  27.050  13.531
15860W        W84223  11.169  22.576  14.968
15861W        W84224  32.568  29.563   2.311
15862W        W84225  27.645  28.576   0.799
15863W        W84226   4.387  32.130   0.772
15864W        W84227  18.696  40.945   1.827
15865W        W84228  41.415  30.984  11.020
15866W        W84229  36.032  11.342  14.820
15867W        W84230  41.834  30.502   0.321
15868W        W84231  30.126  13.348  14.477
15869W        W84232   6.714  22.502   1.254
15870W        W84233  27.468   2.301   2.343
15871W        W84234  16.089  11.762   3.699
15872W        W84235   4.282  41.850   0.365
15873W        W84236  21.583  21.703   2.679
15874W        W84237  35.880  31.087   3.294
15875W        W84238  40.335  32.575  14.275
15876W        W84239  19.747   8.743   0.280
15877W        W84240  39.530  38.532   1.350
15878W        W84241  23.237  22.091   1.800
15879W        W84242   7.873   2.457   0.773
15880W        W84243   0.943  13.732  13.971
15881W        W84244  20.721  36.576   0.276
15882W        W84245  35.038  43.360  12.965
15883W        W84246  28.994  20.248   1.696
15884W        W84247  29.108  15.311   1.850
15885W        W84248  11.816  29.084   2.685
15886W        W84249  22.553  36.386  10.913
15887W        W84250   6.845  32.088   0.828
15888W        W84251  23.219  12.824  11.508
15889W        W84252  11.859  27.461   1.427
15890W        W84253   4.249  26.098   3.378
15891W        W84254  34.086  13.657  14.314
15892W        W84255   0.805  43.942   1.871
15893W        W84256  22.045  32.995  11.971
15894W        W84257  27.169  24.639   2.826
15895W        W84258  14.814  36.019   0.400
15896W        W84259   0.339  23.171  12.379
15897W        W84260  12.241  14.606  13.039
15898W        W84261   0.427  15.161  13.032
15899W        W84262  32.082  10.298  12.394
15900W        W84263  20.143  15.720  14.512
15901W        W84264  19.659  22.591  11.499
15902W        W84265  30.646   6.230   4.658
15903W        W84266  35.949  41.798  14.988
15904W        W84267   9.787  37.069  14.301
15905W        W84268  17.684  16.223  12.556
15906W        W84269  27.108  44.347  10.489
15907W        W84270  37.336  21.060   1.418
15908W        W84271  24.628  28.184   4.659
15909W        W84272  23.659  15.097  12.428
15910W        W84273  15.094  12.654   2.680
15911W        W84274  24.133  36.438   3.759
15912W        W84275   2.895   6.216  10.960
15913W        W84276  23.222  34.579   4.195
15914W        W84277  23.731  22.123  12.442
15915W        W84278  11.278   1.929  12.463
15916W        W84279   1.375  24.678  12.917
15917W        W84280  44.470  24.133  11.466
15918W        W84281  18.068  25.042   2.323
15919W        W84282  27.160  22.032  12.976
15920W        W84283   2.834  25.974  13.353
15921W        W84284  44.312  17.632   0.482
15922W        W84285  28.150   7.711  12.076
15923W        W84286  30.614   8.164   1.364
15924W        W84287  25.589  23.089  13.008
15925W        W84288  23.142  35.058  14.973
15926W        W84289  25.602  14.682  11.440
15927W        W84290  36.502  41.906  11.886
15928W        W84291  15.279   7.689  13.402
15929W        W84292  35.559  37.954  10.540
15930W        W84293  22.521  40.448   1.358
15931W        W84294  28.066  15.597   1.873
15932W        W84295   9.284   2.293   2.893
15933W        W84296  37.984  40.510   1.424
15934W        W84297  18.653  18.709  14.016
15935W        W84298  14.666   2.767   1.448
15936W        W84299   5.695  44.439   0.850
15937W        W84300   5.425  15.165  11.455
15938W        W84301  39.377  41.449   0.843
15939W        W84302   6.200  16.729  10.522
15940W        W84303  31.033  14.731   0.898
15941W        W84304  32.488   7.769   2.742
15942W        W84305  32.512  38.499   0.276
15943W        W84306  40.966   4.852   2.831
15944W        W84307  35.009  28.647   3.757
15945W        W84308  43.362  33.488  10.411
15946W        W84309   5.320  36.997   3.867
15947W        W84310   9.877  31.562  13.051
15948W        W84311  16.260  36.358   1.812
15949W        W84312  40.347  39.510   0.927
15950W        W84313  17.115  29.483   1.891
15951W        W84314   0.385  42.483   3.782
15952W        W84315  28.515  39.884  13.408
15953W        W84316  21.665  36.540   1.225
15954W        W84317  10.750  35.421  11.610
15955W        W84318  23.210   4.443   4.705
15956W        W84319  23.603   6.740  10.505
15957W        W84320  41.913  43.449   3.755
15958W        W84321  21.547  44.331  11.944
15959W        W84322  32.896  32.580   4.212
15960W        W84323  26.126  32.396   0.821
15961W        W84324  44.901  29.509   1.275
15962W        W84325  11.700  15.668  11.881
15963W        W84326   8.734  32.104  13.956
15964W        W84327  29.973  36.037   4.604
15965W        W84328  35.553   8.395   0.431
15966W        W84329  41.425  31.905   4.234
15967W        W84330  33.087  38.905   0.296
15968W        W84331  39.399   7.196  12.559
15969W        W84332   7.722  11.864  10.142
15970W        W84333  19.268  40.961   4.355
15971W        W84334  44.287  22.532   0.956
15972W        W84335  18.662   0.441  10.965
15973W        W84336  26.555  17.149   0.283
15974W        W84337   1.271  11.136  11.560
15975W        W84338  33.488   5.735  14.483
15976W        W84339  21.197   0.309   2.280
15977W        W84340  16.240  21.664  10.604
15978W        W84341  43.887  27.450  13.492
15979W        W84342  11.363  40.870  11.607
15980W        W84343  22.633  41.382   3.772
15981W        W84344   7.179   5.921  12.036
15982W        W84345  12.620  20.241  13.478
15983W        W84346  28.054  30.009   0.409
15984W        W84347  22.574  34.080   2.352
15985W        W84348   3.714  19.053   2.741
15986W        W84349  15.253  40.034   3.830
15987W        W84350  40.966   9.856  13.518
15988W        W84351  44.458  12.831  14.765
15989W        W84352  34.918  39.900   2.692
15990W        W84353   1.824  39.007   4.351
15991W        W84354   6.817  10.203   3.771
15992W        W84355   9.848  43.383  14.395
15993W        W84356  34.575  38.851  13.449
15994W        W84357  41.963  31.081  11.598
15995W        W84358  41.338  41.831   4.729
15996W        W84359  26.067   8.161  12.893
15997W        W84360  26.023  37.833  13.318
15998W        W84361   4.799  42.909  11.862
15999W        W84362   6.872   2.420   4.621
16000W        W84363  40.503  26.565   3.378
16001W        W84364  38.515   8.840   2.866
16002W        W84365  24.197  35.978  14.795
16003W        W84366   1.916  14.739   2.370
16004W        W84367  24.228  30.414  12.011
16005W        W84368   8.268   8.810   1.348
16006W        W84369  11.366  34.888   1.402
16007W        W84370  13.734  19.667   2.677
16008W        W84371  17.273  21.548   0.280
16009W        W84372  39.336  29.541  10.519
16010W        W84373  39.825  44.848   2.213
16011W        W84374  11.802  14.817  11.490
16012W        W84375  10.335  35.398   3.839
16013W        W84376  41.337  27.070   0.321
16014W        W84377  32.504  39.844  14.309
16015W        W84378  14.658  28.932   2.799
16016W        W84379  35.461  35.923  14.380
16017W        W84380  28.985   8.780  12.479
16018W        W84381  23.726  41.365   4.349
16019W        W84382   9.841  20.578  14.314
16020W        W84383  27.177   6.792   0.735
16021W        W84384  33.417  27.607   2.782
16022W        W84385   2.729  34.479  14.347
16023W        W84386  12.638  16.275   2.776
16024W        W84387  34.921   0.274   3.243
16025W        W84388  22.612  34.903   4.818
16026W        W84389  35.560   4.809   3.670
16027W        W84390   1.366  10.653  11.471
16028W        W84391  26.518  25.647  10.568
16029W        W84392   1.456  16.597  12.913
16030W        W84393   9.705  38.041  14.461
16031W        W84394  28.075  39.444   1.706
16032W        W84395  19.579   1.868   3.859
16033W        W84396  41.942  40.807  10.445
16034W        W84397  26.654  44.392   2.688
16035W        W84398  34.074   8.167  12.345
16036W        W84399  16.257   7.283   3.712
16037W        W84400   5.776  19.557  10.444
16038W        W84401   3.836  24.519   0.831
16039W        W84402  43.410  12.214   4.230
16040W        W84403  32.996   5.381  12.569
16041W        W84404  38.066  39.373   0.831
16042W        W84405  22.058  44.402   2.796
16043W        W84406   0.840  24.507  11.046
16044W        W84407  32.025  19.241  13.362
16045W        W84408  32.487   3.761   2.723
16046W        W84409   5.307  10.757   4.238
16047W        W84410  38.033  12.853  11.483
16048W        W84411  16.217  12.196   3.795
16049W        W84412  18.081  30.618   0.827
16050W        W84413  31.978   3.415   2.414
16051W        W84414  18.201   8.821  13.847
16052W        W84415  10.858  30.975  12.827
16053W        W84416  35.892  31.102  13.816
16054W        W84417  40.800   8.862   1.238
16055W        W84418  29.525  37.415   4.211
16056W        W84419  39.899   9.153   4.173
16057W        W84420  18.071  14.599   0.483
16058W        W84421  34.019  15.779  11.583
16059W        W84422  19.699  11.346   1.263
16060W        W84423  30.586  29.521  10.407
16061W        W84424  44.765  43.461  10.631
16062W        W84425  19.108  29.491  12.031
16063W        W84426  19.585  21.160   2.261
16064W        W84427  44.932  32.921   1.408
16065W        W84428  30.562  14.198  10.601
16066W        W84429  10.683  41.955  14.472
16067W        W84430  19.724  13.262  14.901
16068W        W84431   3.780   5.197   4.735
16069W        W84432  29.658  39.839   4.660
16070W        W84433  37.536  44.855   3.639
16071W        W84434  44.332  27.604  14.013
16072W        W84435  33.071  18.573   2.333
16073W        W84436  30.089  44.438   1.267
16074W        W84437  26.598  43.475  13.873
16075W        W84438  42.821  18.217   2.878
16076W        W84439  20.173  18.050  13.026
16077W        W84440  31.553   2.411  13.956
16078W        W84441  19.174  22.583  14.300
16079W        W84442   2.939  28.541  13.964
16080W        W84443  15.260  25.626   0.862
16081W        W84444  29.505  36.368  12.948
16082W        W84445  40.447  10.778   4.287
16083W        W84446   4.808  41.839   0.756
16084W        W84447  28.661   4.910  13.422
16085W        W84448  16.656  14.151   3.848
16086W        W84449  23.611  37.982   4.306
16087W        W84450  13.324  30.476  13.339
16088W        W84451  13.839  20.229   1.699
16089W        W84452  35.590  40.969  11.461
16090W        W84453  41.528   9.844   0.931
16091W        W84454  44.449  34.422   1.890
16092W        W84455  27.463  21.041   2.739
16093W        W84456  30.970  24.614  14.395
16094W        W84457   4.873   7.815  11.000
16095W        W84458  43.462   5.229  14.305
16096W        W84459  29.121  35.044   2.690
16097W        W84460   8.262  12.611   1.352
16098W        W84461  38.820  13.759   1.780
16099W        W84462  43.325  41.457  14.870
16100W        W84463   8.751  31.983   3.325
16101W        W84464  30.578   9.165  11.599
16102W        W84465  15.734  25.028   3.369
16103W        W84466   9.681   4.216   0.791
16104W        W84467   6.320  39.881  10.510
16105W        W84468  36.064   6.293   2.669
16106W        W84469  30.040  12.344  10.591
16107W        W84470  35.881  13.635   3.334
16108W        W84471  35.934  22.533  11.610
16109W        W84472  36.069  27.465  13.989
16110W        W84473   6.886  44.434  11.459
16111W        W84474  26.186  24.226  12.479
16112W        W84475  40.867  25.136  10.530
16113W        W84476  39.833  20.106   3.212
16114W        W84477  27.525  11.821   0.283
16115W        W84478   5.931  22.250   4.247
16116W        W84479  15.101  34.035  12.377
16117W        W84480   3.331  27.575  12.355
16118W        W84481  20.763  29.476   4.335
16119W        W84482  41.995  38.385  11.856
16120W        W84483  10.244  36.076  12.554
16121W        W84484  10.368   9.699  12.021
16122W        W84485   0.413   1.432  14.512
16123W        W84486  40.497  12.217  10.471
16124W        W84487  39.368   9.161   1.332
16125W        W84488  27.691  16.268   5.292
16126W        W84489  40.913   1.738  10.585
16127W        W84490  32.061   1.462   4.814
16128W        W84491  15.799  36.351   2.340
16129W        W84492  33.450  31.507  10.038
16130W        W84493   0.922  27.474  11.911
16131W        W84494   1.305   9.185  12.089
16132W        W84495  17.574  21.686  10.523
16133W        W84496  36.502   1.851  11.519
16134W        W84497  43.318  44.301  10.099
16135W        W84498  26.018  21.669   3.788
16136W        W84499   8.195   3.278  14.877
16137W        W84500   7.224  37.343  13.395
16138W        W84501  41.455  15.604   2.373
16139W        W84502  29.559   9.697  12.948
16140W        W84503  27.534  40.932   2.252
16141W        W84504   3.220  29.619   3.197
16142W        W84505  27.547  41.393   1.414
16143W        W84506  30.912  27.997  14.515
16144W        W84507  37.952   4.898  13.838
16145W        W84508   7.824  39.483  14.422
16146W        W84509  19.090  44.932  10.644
16147W        W84510   6.346  16.177  14.340
16148W        W84511  17.221  34.902  14.848
16149W        W84512  31.645  24.096  11.410
16150W        W84513  21.069  17.253  12.987
16151W        W84514  31.028  11.151  13.850
16152W        W84515  21.048   4.741   3.699
16153W        W84516  41.364   2.426   1.225
16154W        W84517  11.801  26.634   1.856
16155W        W84518  13.313  41.945  10.963
16156W        W84519  42.863  17.577   3.693
16157W        W84520   0.271  25.120   1.738
16158W        W84521   9.687   7.329  14.490
16159W        W84522   1.789  39.330  12.981
16160W        W84523  13.724  21.603  13.938
16161W        W84524   7.742  40.505   1.423
16162W        W84525  28.128  20.591  13.352
16163W        W84526  22.528   4.778   4.196
16164W        W84527   0.391  10.820   3.386
16165W        W84528  32.455  25.656   3.700
16166W        W84529  27.173  24.011  14.368
16167W        W84530   8.753  23.169   0.735
16168W        W84531  38.877   1.343   9.976
16169W        W84532  41.802   0.958   4.642
16170W        W84533  37.578   3.414   1.244
16171W        W84534  26.198  13.289   3.703
16172W        W84535  16.211  18.202   0.460
16173W        W84536  41.304  32.907  14.850
16174W        W84537  44.341  17.110  14.427
16175W        W84538   4.419  13.190  10.986
16176W        W84539  38.059  22.079   0.385
16177W        W84540   0.428  35.005   2.270
16178W        W84541  17.180  21.081  12.403
16179W        W84542  40.405  11.368  10.156
16180W        W84543  16.203   1.945   2.777
16181W        W84544  37.500  23.131   4.835
16182W        W84545  28.642   9.812   2.819
16183W        W84546  39.526  42.341   1.253
16184W        W84547  11.684  40.854   0.847
16185W        W84548  12.851  33.585   2.301
16186W        W84549  21.097  16.658  11.551
16187W        W84550  20.697   7.249  12.041
16188W        W84551  43.841  14.809   0.909
16189W        W84552   0.980  36.926   2.355
16190W        W84553  40.935   2.804  10.917
16191W        W84554  16.116  26.470   4.223
16192W        W84555  29.603  11.724   0.795
16193W        W84556  42.816  12.137   2.881
16194W        W84557  39.971  30.929   3.278
16195W        W84558  32.480  23.104   1.737
16196W        W84559  16.203  38.966  11.021
16197W        W84560  43.798  32.897   1.235
16198W        W84561   8.826   9.699  12.846
16199W        W84562  43.359   2.463   4.819
16200W        W84563  30.108  44.369  13.391
16201W        W84564  16.786  21.519   4.758
16202W        W84565  37.338  28.973  11.937
16203W        W84566   2.959  24.670  11.613
16204W        W84567  38.429  14.319   3.239
16205W        W84568  33.412  25.700  14.349
16206W        W84569  44.336  25.570  13.003
16207W        W84570  15.585  10.823  13.875
16208W        W84571  42.807   2.436   4.600
16209W        W84572  14.336  41.306   4.832
16210W        W84573   0.904  33.429  10.598
16211W        W84574  24.055  33.461   4.706
16212W        W84575   8.230   9.856   0.317
16213W        W84576   4.226  34.076  12.946
16214W        W84577  15.714   6.235   4.655
16215W        W84578  44.309  39.911  14.306
16216W        W84579  38.440  22.674  10.983
16217W        W84580  24.592   5.287   3.212
16218W        W84581  27.029   3.782  14.355
16219W        W84582  26.986  13.261   9.982
16220W        W84583  32.932  26.697   3.369
16221W        W84584  26.020  37.506  10.603
16222W        W84585  39.338   7.778  13.448
16223W        W84586  10.176  31.010  11.611
16224W        W84587  20.560   5.391   4.675
16225W        W84588  42.301  17.723   1.759
16226W        W84589  20.033  44.828   3.184
16227W        W84590  35.932  24.687   0.884
16228W        W84591  36.551  30.554   5.130
16229W        W84592  16.810   6.427  14.478
16230W        W84593  34.464  12.632   3.653
16231W        W84594  31.013  40.537   0.890
16232W        W84595  25.979  27.197   2.738
16233W        W84596   6.698  27.690  14.868
16234W        W84597  32.532  41.375   0.736
16235W        W84598  36.422  41.032   4.268
16236W        W84599   1.940  18.666  12.902
16237W        W84600  26.022   6.219  11.066
16238W        W84601  27.517  31.978   2.766
16239W        W84602   1.266   8.263  13.511
16240W        W84603   3.821   4.701  12.359
16241W        W84604  32.071  26.659   0.309
16242W        W84605  38.064  13.247   4.178
16243W        W84606  19.620  36.986   2.856
16244W        W84607  18.273  37.834   3.318
16245W        W84608   4.256  21.204   1.451
16246W        W84609  25.092  22.162  11.535
16247W        W84610   0.974  20.540  13.993
16248W        W84611  44.357  18.592   0.794
16249W        W84612   5.315  43.501  10.917
16250W        W84613   4.897   4.733   9.978
16251W        W84614  37.532   4.278  12.037
16252W        W84615  35.548  42.986  11.572
16253W        W84616   2.235  34.028   3.280
16254W        W84617  33.075  18.090   4.339
16255W        W84618  27.577   4.329   1.412
16256W        W84619  11.657  43.837   2.220
16257W        W84620  28.161   2.458   3.168
16258W        W84621  32.100  15.776   1.447
16259W        W84622  26.116   6.782  14.935
16260W        W84623  18.752  35.883   2.844
16261W        W84624   6.685  38.009  14.896
16262W        W84625  41.860  39.858  11.994
16263W        W84626  35.100  39.817   1.420
16264W        W84627  19.089  29.145   2.899
16265W        W84628  18.749  42.016  11.460
16266W        W84629  31.051   3.430   4.744
16267W        W84630   4.825  38.836  14.920
16268W        W84631  43.369  24.995   1.815
16269W        W84632   1.286   7.842   1.268
16270W        W84633  17.593   5.381   3.850
16271W        W84634   0.884  23.051   9.480
16272W        W84635   8.743  17.669   0.967
16273W        W84636  39.482  17.102  12.979
16274W        W84637  23.587  15.161  13.041
16275W        W84638  40.034  21.245  13.469
16276W        W84639  22.617   5.928   3.668
16277W        W84640  29.088  24.517  13.048
16278W        W84641  29.957   1.896  13.336
16279W        W84642  25.141   7.366  10.967
16280W        W84643  41.479  38.869  14.282
16281W        W84644  44.308  40.901  14.951
16282W        W84645   7.393  31.047  13.539
16283W        W84646   1.371  32.128  14.294
16284W        W84647   7.729  44.868  12.496
16285W        W84648  12.165  30.130  12.429
16286W        W84649   0.835   0.947  10.516
16287W        W84650  18.145  12.148   1.307
16288W        W84651  25.098  30.128  11.570
16289W        W84652  10.840  26.605   1.372
16290W        W84653  40.387  27.065   3.695
16291W        W84654  27.609  16.097   4.272
16292W        W84655  40.934   0.459   3.166
16293W        W84656  41.404  36.929   0.814
16294W        W84657  36.459   5.309  12.992
16295W        W84658  36.894  21.027   1.222
16296W        W84659  34.556  12.815   3.357
16297W        W84660  34.381  32.508  12.080
16298W        W84661  31.410  44.272  14.957
16299W        W84662  14.140  37.372  10.921
16300W        W84663  28.546  35.867  10.907
16301W        W84664   4.765  26.534  14.982
16302W        W84665  22.538  21.195   2.866
16303W        W84666   8.887   8.317   4.708
16304W        W84667  35.943  33.942  13.831
16305W        W84668  40.514  23.165  14.926
16306W        W84669  12.297  21.149   2.215
16307W        W84670   1.969  26.684  11.944
16308W        W84671  24.094   4.751  13.539
16309W        W84672   1.753  36.385  12.398
16310W        W84673  24.117   1.870   1.719
16311W        W84674  24.573   1.478  10.543
16312W        W84675  14.599   4.851  14.900
16313W        W84676  21.682  22.594   2.401
16314W        W84677  33.606  30.059   2.293
16315W        W84678  30.995   2.861   0.307
16316W        W84679  20.094   8.308   1.418
16317W        W84680  21.038  17.631  13.896
16318W        W84681  42.453   0.280  11.439
16319W        W84682  10.146  28.628   0.829
16320W        W84683  21.543  12.275   4.648
16321W        W84684   9.675  10.861  12.418
16322W        W84685  10.753  22.132   4.208
16323W        W84686  12.822  10.793   1.864
16324W        W84687  26.547  30.524   5.181
16325W        W84688  31.498  40.316  11.525
16326W        W84689  39.980   5.809  11.060
16327W        W84690  12.209  19.555   1.266
16328W        W84691   5.740  35.535   1.695
16329W        W84692  24.089   3.413   4.216
16330W        W84693  39.996  14.632  10.406
16331W        W84694  43.443  33.439  13.431
16332W        W84695  25.078  11.639  14.025
16333W        W84696  34.439  14.337  14.995
16334W        W84697  16.106  21.661  14.801
16335W        W84698   5.255  14.275   2.305
16336W        W84699  14.634  30.603  11.584
16337W        W84700  30.047  36.012  12.966
16338W        W84701  27.989  40.325  14.290
16339W        W84702  19.120  28.538   1.266
16340W        W84703  28.556  14.639   1.878
16341W        W84704  11.768  11.241  13.914
16342W        W84705  27.100  20.199  14.903
16343W        W84706   3.744  31.106  11.418
16344W        W84707  12.355   4.870   0.398
16345W        W84708   5.867  26.203   1.375
16346W        W84709  38.331  43.895  13.535
16347W        W84710  23.662  11.322  11.102
16348W        W84711  32.430   3.736   4.747
16349W        W84712  37.876  43.805   3.786
16350W        W84713  20.663  20.553  14.981
16351W        W84714  44.276  15.109   2.773
16352W        W84715   7.250  14.776  12.959
16353W        W84716   1.739  11.853   4.643
16354W        W84717  37.368  32.122  14.456
16355W        W84718   1.741  17.140  10.604
16356W        W84719  25.090  31.113  10.922
16357W        W84720  17.608  18.131  11.943
16358W        W84721  26.599  12.736  14.864
16359W        W84722   5.349  21.043  11.527
16360W        W84723  44.810  15.712  13.891
16361W        W84724   2.830   8.192   2.891
16362W        W84725  37.398  14.246  11.544
16363W        W84726  33.047  43.798   0.840
16364W        W84727  41.356  22.659   2.350
16365W        W84728  18.711   5.337   2.318
16366W        W84729   0.743  11.304  13.016
16367W        W84730  14.832   2.721  11.979
16368W        W84731  19.265  20.114  10.892
16369W        W84732   5.701  17.152   2.820
16370W        W84733  12.135   3.953  14.432
16371W        W84734  28.022  30.929   1.695
16372W        W84735   2.746   3.850  11.493
16373W        W84736  27.689  33.492  14.953
16374W        W84737  11.695   0.340   4.195
16375W        W84738  11.656  34.106   4.213
16376W        W84739  35.370  34.578  14.844
16377W        W84740  21.177  18.267   1.822
16378W        W84741  23.731  25.152   3.754
16379W        W84742  14.196  32.911   2.715
16380W        W84743  24.025   8.336   1.835
16381W        W84744   8.870  29.455  14.343
16382W        W84745  16.233  39.510   3.754
16383W        W84746   0.451  14.211  13.979
16384W        W84747   8.899  34.519   1.910
16385W        W84748  34.105  25.074  14.420
16386W        W84749  36.387  33.941   2.268
16387W        W84750  44.871  27.656   3.871
16388W        W84751   4.230  12.789  10.431
16389W        W84752  27.103  27.137   3.222
16390W        W84753  15.273   4.320  10.628
16391W        W84754   6.761  26.069  11.027
16392W        W84755  16.721  25.072   4.177
16393W        W84756   3.390  16.199   4.352
16394W        W84757  18.728  22.045  13.491
16395W        W84758  37.409  25.121   0.387
16396W        W84759  30.973  43.014   0.431
16397W        W84760  25.214   3.926   4.312
16398W        W84761   3.392  14.739   0.919
16399W        W84762  36.570  31.529  14.478
16400W        W84763  18.093  37.419   3.719
16401W        W84764  14.149  23.152   1.409
16402W        W84765  36.882  37.051   0.732
16403W        W84766  17.120  30.020   2.179
16404W        W84767  25.691  13.740  11.443
16405W        W84768  23.501  44.261  11.568
16406W        W84769   0.361  38.507  10.532
16407W        W84770  10.263  33.113  13.432
16408W        W84771   3.850  24.660  11.106
16409W        W84772  38.829  32.463  12.496
16410W        W84773   8.746  32.954  12.470
16411W        W84774   6.262   0.797   3.243
16412W        W84775  19.056  42.301   0.858
16413W        W84776  33.935  11.694  10.103
16414W        W84777  38.489  12.341   2.707
16415W        W84778  25.122  39.899   0.457
16416W        W84779   2.957  33.503   0.469
16417W        W84780  13.327  25.138  14.773
16418W        W84781  29.629   8.709  11.870
16419W        W84782   2.389  32.575   1.438
16420W        W84783  12.288  40.528   1.814
16421W        W84784  38.942  17.277   5.290
16422W        W84785   8.751   0.803   0.820
16423W        W84786  16.805  11.210  13.421
16424W        W84787  38.477   0.439  10.567
16425W        W84788   7.294  35.984   2.709
16426W        W84789   9.836  30.617  13.338
16427W        W84790  22.641  39.042   2.739
16428W        W84791  24.178  11.219   0.741
16429W        W84792  36.548  27.653  11.057
16430W        W84793  36.583  29.645   3.344
16431W        W84794  36.841  14.207   4.213
16432W        W84795  15.136   1.430   4.760
16433W        W84796  22.203  37.495   2.410
16434W        W84797  25.627  34.927   0.891
16435W        W84798  38.935   7.667  13.005
16436W        W84799   5.291  26.201  13.981
16437W        W84800  37.501  17.735   4.666
16438W        W84801  24.152   5.756   4.798
16439W        W84802   5.430  20.628   4.113
16440W        W84803  41.844  17.661  11.422
16441W        W84804  12.309  35.553   2.849
16442W        W84805  32.085   7.908  10.594
16443W        W84806   4.824   6.420   0.450
16444W        W84807  16.089  21.019   2.273
16445W        W84808  26.530  19.157   0.959
16446W        W84809  38.518  33.118  10.532
16447W        W84810  11.176  23.043  13.546
16448W        W84811   6.411  20.098  12.504
16449W        W84812  42.861  38.037  14.850
16450W        W84813  17.682  41.510   2.796
16451W        W84814  41.415  28.184   5.241
16452W        W84815  39.825  38.825  13.471
16453W        W84816  29.101  20.630  14.013
16454W        W84817  16.659  26.495   3.312
16455W        W84818  15.657  16.177   1.398
16456W        W84819  37.470   5.433   3.713
16457W        W84820  10.344   7.406   1.893
16458W        W84821  23.131   8.327  14.458
16459W        W84822  29.944  24.530   3.717
16460W        W84823  21.721  15.192  12.086
16461W        W84824  29.565  35.885   1.325
16462W        W84825  33.879   6.242   0.949
16463W        W84826  14.730  35.094  12.072
16464W        W84827  31.913   2.456   0.756
16465W        W84828  32.525   7.723  13.340
16466W        W84829  15.589  27.063  10.428
16467W        W84830   5.826  42.956   2.737
16468W        W84831   0.802  39.986   4.287
16469W        W84832  38.338   6.919  14.932
16470W        W84833   0.884  35.874   3.827
16471W        W84834   6.292  34.914   4.736
16472W        W84835  32.423  41.966  13.984
16473W        W84836  29.968  13.145   2.303
16474W        W84837   4.796  20.726  11.376
16475W        W84838  15.195   4.434  11.086
16476W        W84839  30.504   7.216  13.391
16477W        W84840  37.369  41.893  13.880
16478W        W84841  44.907  31.921  12.878
16479W        W84842  35.422   0.411   0.339
16480W        W84843  34.010  21.112   1.698
16481W        W84844  13.188  21.103   4.612
16482W        W84845   9.878  38.054  10.929
16483W        W84846  30.065  42.945  10.920
16484W        W84847  33.499   4.311  10.068
16485W        W84848  21.039   1.452   2.250
16486W        W84849  20.599   3.386   4.663
16487W        W84850  26.578  31.048  12.465
16488W        W84851  10.278  18.240  12.453
16489W        W84852   0.287  14.827  12.437
16490W        W84853   5.906  22.034   2.235
16491W        W84854   6.333  28.170  11.510
16492W        W84855  31.031  12.715   1.791
16493W        W84856  18.573  40.823   1.308
16494W        W84857  25.082  17.231   2.404
16495W        W84858  35.884   7.739   2.230
16496W        W84859  27.949  17.597  10.989
16497W        W84860  27.617  37.029  10.582
16498W        W84861  25.631  10.800  13.465
16499W        W84862  31.913   4.344  12.993
16500W        W84863  33.406   4.332   2.217
16501W        W84864  32.578   8.736  14.803
16502W        W84865  19.778  10.339   4.807
16503W        W84866  23.561   5.857   0.961
16504W        W84867  32.510  39.377  11.988
16505W        W84868  19.134  41.996   4.786
16506W        W84869  40.402  15.614  12.846
16507W        W84870  31.632  44.457   4.235
16508W        W84871  37.854   1.778   1.288
16509W        W84872  41.830  42.388  14.029
16510W        W84873  37.400   5.931  14.788
16511W        W84874  27.060  16.073   0.961
16512W        W84875  34.038  22.651  11.530
16513W        W84876  14.313  42.015  14.389
16514W        W84877  12.176  41.476   0.414
16515W        W84878  37.454  31.416  13.438
16516W        W84879  21.522   4.811  10.052
16517W        W84880  24.161  41.824  14.768
16518W        W84881  29.006  27.017  10.952
16519W        W84882  18.643  44.497  13.394
16520W        W84883  18.595   3.887  10.559
16521W        W84884   3.942   8.885   1.750
16522W        W84885  15.159   4.709  11.078
16523W        W84886  41.449  39.327  11.486
16524W        W84887  35.943  42.381   4.226
16525W        W84888  19.044  25.169   2.370
16526W        W84889  10.186  30.980  13.396
16527W        W84890   2.934  43.845  14.984
16528W        W84891  34.455   9.838   1.705
16529W        W84892   6.693  33.509   1.931
16530W        W84893  14.691  39.389   4.719
16531W        W84894  34.572  37.950   2.417
16532W        W84895  28.528   5.735   3.319
16533W        W84896   4.854  13.278  12.564
16534W        W84897   2.378  44.458   4.723
16535W        W84898  27.669  10.836  12.397
16536W        W84899  18.104  15.595  12.512
16537W        W84900  24.110  24.547   0.401
16538W        W84901  39.450  12.193  12.565
16539W        W84902  43.379  16.638  13.452
16540W        W84903  35.048   6.863   3.699
16541W        W84904  42.856  19.262  14.771
16542W        W84905  21.653  40.839   3.725
16543W        W84906  34.516  13.197  11.051
16544W        W84907  10.843  30.501   1.212
16545W        W84908  23.169   0.384  10.965
16546W        W84909  26.613  11.697  12.345
16547W        W84910  31.058   3.849  14.481
16548W        W84911  41.811  27.513  12.516
16549W        W84912   3.260  32.447   1.387
16550W        W84913   6.889  23.633  14.766
16551W        W84914  42.340  18.067   2.197
16552W        W84915  41.427  41.942  11.889
16553W        W84916  18.181  34.500  11.995
16554W        W84917   9.181  28.644   2.836
16555W        W84918  43.826  12.208  13.327
16556W        W84919  25.040  35.082   0.930
16557W        W84920   0.447  27.673  14.283
16558W        W84921  20.648  21.747  13.890
16559W        W84922  19.138  19.193  12.949
16560W        W84923  39.814  28.166  12.559
16561W        W84924  31.953  34.476   0.297
16562W        W84925  41.316  20.211  11.602
16563W        W84926  17.582  25.015  10.485
16564W        W84927   6.916  23.669  14.289
16565W        W84928  42.484  10.253   3.793
16566W        W84929  38.985  37.498  13.950
16567W        W84930   6.298  39.314   1.326
16568W        W84931  37.340   9.185  10.913
16569W        W84932   5.259   1.790  14.957
16570W        W84933  34.065  15.703   3.669
16571W        W84934  18.562  21.209  11.959
16572W        W84935   3.806  23.490  11.376
16573W        W84936  11.703   2.887  14.982
16574W        W84937  19.696  19.718   3.187
16575W        W84938  44.272  15.155  14.492
16576W        W84939  31.945  11.210  14.942
16577W        W84940  23.049  38.568   1.354
16578W        W84941  21.053  37.357   2.856
16579W        W84942  25.582   7.876  14.962
16580W        W84943  12.829  27.552  14.407
16581W        W84944  22.155  16.718  10.550
16582W        W84945  36.430  10.770  13.983
16583W        W84946  29.558   0.308  12.928
16584W        W84947  25.150  25.652   4.340
16585W        W84948   2.887  12.243   1.722
16586W        W84949   1.799  18.573  13.936
16587W        W84950  38.502  19.143   2.881
16588W        W84951  30.028  16.718  11.592
16589W        W84952  12.736   1.776   0.801
16590W        W84953  20.258  36.016  12.481
16591W        W84954  17.271  33.117   2.337
16592W        W84955  23.229  13.278  13.463
16593W        W84956  21.055  14.798  13.943
16594W        W84957  12.619  15.817  13.915
16595W        W84958  31.581  13.785  10.940
16596W        W84959  15.731   4.787   4.641
16597W        W84960  11.343   8.667   2.829
16598W        W84961  33.049   6.813  14.816
16599W        W84962  41.432  16.706  14.902
16600W        W84963   5.809  20.573   4.725
16601W        W84964  36.077  10.154  11.430
16602W        W84965  42.383  38.332   4.749
16603W        W84966  43.918  41.978   0.917
16604W        W84967   5.841  44.285   1.426
16605W        W84968  13.844   4.861  11.533
16606W        W84969  31.424  22.146   4.834
16607W        W84970  25.146  25.147   3.231
16608W        W84971  37.852  44.941  14.483
16609W        W84972   2.832   5.228  13.833
16610W        W84973  13.273  35.494   3.215
16611W        W84974  40.391  11.303   3.706
16612W        W84975  25.697  17.163   2.893
16613W        W84976  14.321  30.634  12.825
16614W        W84977  20.587  36.409   2.878
16615W        W84978   1.425  10.649  12.368
16616W        W84979  40.998   5.884  14.019
16617W        W84980  39.849   3.799  13.336
16618W        W84981   6.767   5.301   1.884
16619W        W84982  26.053  26.041   0.757
16620W        W84983  35.383  25.551   3.303
16621W        W84984  18.242  13.291   0.851
16622W        W84985  10.877  29.045  12.900
16623W        W84986   3.906  32.037   3.714
16624W        W84987  37.507   5.862   1.323
16625W        W84988  20.629  35.494  10.997
16626W        W84989  34.115  14.667   3.353
16627W        W84990  11.305  35.031   3.279
16628W        W84991  35.445  39.948   3.693
16629W        W84992  40.975  32.074  10.469
16630W        W84993  29.447  22.511   0.445
16631W        W84994  23.158   2.346   3.638
16632W        W84995   8.895  38.858   2.834
16633W        W84996   6.409  11.728  11.461
16634W        W84997  29.591  26.962  13.894
16635W        W84998   8.702  26.103   0.914
16636W        W84999  29.440  25.686   2.403
16637W        W85000  17.165  17.079   5.302
16638W        W85001  26.177  13.826   4.336
16639W        W85002  26.555  44.337  11.488
16640W        W85003  11.646  41.976   0.794
16641W        W85004  12.813  23.518  14.319
16642W        W85005  39.492  14.664   4.640
16643W        W85006   2.448  36.884  12.007
16644W        W85007  30.108  34.065   2.875
16645W        W85008  29.933  18.728   0.414
16646W        W85009  33.897  11.287   2.233
16647W        W85010   2.411  32.395  14.939
16648W        W85011  23.211  13.601  14.891
16649W        W85012  29.526  25.705  10.930
16650W        W85013   9.773  38.897   4.293
16651W        W85014  32.636  15.182  12.510
16652W        W85015  25.138  38.457   1.879
16653W        W85016  37.435  31.928  13.356
16654W        W85017   1.912   1.899   0.920
16655W        W85018  13.645  43.824  12.017
16656W        W85019  13.188  31.099   1.359
16657W        W85020   8.735   4.841  11.941
16658W        W85021  23.235  22.528  12.366
16659W        W85022  34.555   1.452   2.688
16660W        W85023  34.874  12.798  12.388
16661W        W85024  20.102  35.594   1.311
16662W        W85025  25.988  27.606   3.213
16663W        W85026  12.839  40.875  14.389
16664W        W85027  24.674  30.493   2.200
16665W        W85028  39.944  21.035   3.270
16666W        W85029   5.771   2.444   3.176
16667W        W85030  20.685  23.513   3.646
16668W        W85031   1.284  34.965  13.974
16669W        W85032  19.589  26.497   2.350
16670W        W85033  33.412  36.486   1.416
16671W        W85034   5.811  32.437  13.794
16672W        W85035  13.664  38.441  11.034
16673W        W85036  28.610  42.919   1.225
16674W        W85037  14.632  10.331  13.949
16675W        W85038   1.813  39.895   4.720
16676W        W85039  30.002   0.292   0.280
16677W        W85040  10.302  40.506   0.380
16678W        W85041  42.473  40.549  10.431
16679W        W85042  16.191  42.940  11.494
16680W        W85043  42.458   8.766   4.602
16681W        W85044  23.021  11.190  12.474
16682W        W85045  20.209  38.971   3.286
16683W        W85046  21.081   0.973  14.402
16684W        W85047  29.514   6.370   0.447
16685W        W85048  20.256  12.191  13.427
16686W        W85049  32.901   4.711  13.870
16687W        W85050  25.554  40.910   0.246
16688W        W85051  36.560   0.876   5.249
16689W        W85052  24.533  42.886   0.402
16690W        W85053  11.301  22.114   3.793
16691W        W85054  11.771  36.845  10.586
16692W        W85055  17.577   9.262   2.391
16693W        W85056   6.313  14.281   1.777
16694W        W85057  22.598   5.916   2.695
16695W        W85058   1.766   1.384   3.318
16696W        W85059  25.997  31.031  10.462
16697W        W85060   3.946   9.339  12.365
16698W        W85061  21.193  26.487  10.433
16699W        W85062  27.565  40.363  12.924
16700W        W85063  40.901  35.015  11.582
16701W        W85064  20.110  36.894  10.565
16702W        W85065  28.045  23.728  11.966
16703W        W85066  15.209  39.392   2.329
16704W        W85067   9.656  31.988   4.217
16705W        W85068  26.690  12.686   2.345
16706W        W85069  31.035  17.128  12.471
16707W        W85070  28.452  25.530   3.799
16708W        W85071   9.733  39.419  12.974
16709W        W85072  36.454  17.220  14.486
16710W        W85073  31.643  40.940  14.508
16711W        W85074  36.444  38.027  14.321
16712W        W85075  34.021  18.064  11.013
16713W        W85076   1.382  25.622  11.561
16714W        W85077  42.809  20.523   2.228
16715W        W85078  13.800   8.261   1.372
16716W        W85079  16.178  20.638   1.870
16717W        W85080  30.608   8.258   1.713
16718W        W85081  40.426  43.309  11.524
16719W        W85082  32.926   9.666  14.805
16720W        W85083   5.390  17.269  11.882
16721W        W85084  28.480  42.877   0.464
16722W        W85085  20.111  10.344  11.946
16723W        W85086  35.523   5.395   1.878
16724W        W85087  27.549  26.552   4.327
16725W        W85088   8.825   1.335   2.236
16726W        W85089  26.128   1.757  13.501
16727W        W85090  34.113   2.472  10.621
16728W        W85091  11.186  35.545   3.158
16729W        W85092   3.351   3.778   4.808
16730W        W85093   9.729  41.809  12.949
16731W        W85094  28.112  18.751   4.692
16732W        W85095  24.572  35.537   0.292
16733W        W85096  37.059  37.350  14.787
16734W        W85097  41.351  13.211  13.008
16735W        W85098  27.094  27.669   1.384
16736W        W85099   4.401  14.660  13.033
16737W        W85100  11.295  34.431   4.623
16738W        W85101  18.579  31.910   2.803
16739W        W85102   8.700  17.597   3.662
16740W        W85103  32.991  16.080  13.379
16741W        W85104  36.509  35.075  11.424
16742W        W85105  18.269   2.820   0.413
16743W        W85106  21.226  28.578   1.442
16744W        W85107  25.164  35.406   3.156
16745W        W85108  15.278  42.363   3.163
16746W        W85109  32.113  35.360  10.903
16747W        W85110  18.093  32.401  10.439
16748W        W85111  10.842  14.739  10.608
16749W        W85112  10.347  22.640   3.198
16750W        W85113  27.673   2.428   0.766
16751W        W85114  24.981  27.045  12.854
16752W        W85115   6.749  13.332  11.518
16753W        W85116  41.359   2.934   3.867
16754W        W85117  26.599   5.743   1.848
16755W        W85118   3.825   3.744  13.848
16756W        W85119   1.784  44.932   2.278
16757W        W85120   7.711  18.197   1.699
16758W        W85121  11.651  31.476   1.284
16759W        W85122  21.546  14.756  13.877
16760W        W85123   4.878  24.181   4.185
16761W        W85124  16.735  26.006   3.782
16762W        W85125  13.607  40.430  11.008
16763W        W85126  36.372  22.130   4.334
16764W        W85127  17.714  40.961   2.845
16765W        W85128  34.554  17.759  13.999
16766W        W85129   8.732   9.323  10.608
16767W        W85130  32.137  31.970   5.124
16768W        W85131  34.936  26.523  10.643
16769W        W85132  27.557  20.202  14.360
16770W        W85133  43.968  26.124   2.709
16771W        W85134  27.564  40.002   2.217
16772W        W85135  12.167  17.115   4.352
16773W        W85136   2.731   4.212  14.903
16774W        W85137   7.201   3.303  12.404
16775W        W85138  29.573  26.656  14.783
16776W        W85139  20.160  37.529  11.463
16777W        W85140  21.513  38.066   4.240
16778W        W85141   9.365   1.935  12.027
16779W        W85142  32.990  13.720   4.602
16780W        W85143  39.324  10.382  11.860
16781W        W85144  36.081  37.575   1.375
16782W        W85145   6.212  37.023  12.986
16783W        W85146   3.794   8.197  11.506
16784W        W85147  11.188  26.584  11.479
16785W        W85148  13.726  20.175   4.686
16786W        W85149  14.263  10.875  13.809
16787W        W85150   2.874  28.960   0.931
16788W        W85151  11.811  34.937  14.297
16789W        W85152  19.144  33.877  14.886
16790W        W85153  14.186  31.020  12.066
16791W        W85154  39.429  38.925   4.274
16792W        W85155  26.504   3.276  13.050
16793W        W85156   7.784  16.645   1.728
16794W        W85157  23.543  11.660  13.835
16795W        W85158  30.973  36.567   3.795
16796W        W85159   6.357  13.668  13.379
16797W        W85160  30.051   2.297  12.055
16798W        W85161  33.094   8.883   3.855
16799W        W85162  18.084  13.824   4.808
16800W        W85163  23.172  36.956  13.844
16801W        W85164  11.747  18.086   4.232
16802W        W85165  34.493  23.616  14.983
16803W        W85166  41.827  38.830  14.959
16804W        W85167  32.446  20.097  11.054
16805W        W85168   7.687   7.880   2.696
16806W        W85169  27.039  28.952   3.371
16807W        W85170  32.084  13.248  13.393
16808W        W85171  22.210   3.228   1.720
16809W        W85172   8.722  43.907   2.266
16810W        W85173   3.762  18.290   2.894
16811W        W85174  31.414  18.068  14.807
16812W        W85175  35.076  30.522  13.852
16813W        W85176   3.252  21.061   3.368
16814W        W85177  18.788  21.745  11.908
16815W        W85178  10.667  30.959   1.353
16816W        W85179   4.874  16.659  13.487
16817W        W85180  19.075  36.575  12.946
16818W        W85181  11.771  14.101   0.411
16819W        W85182  23.648  34.077   4.130
16820W        W85183  27.551  25.166  11.549
16821W        W85184  10.786   9.767  12.512
16822W        W85185  28.538  42.363   2.360
16823W        W85186   5.828  42.918   1.814
16824W        W85187  11.220  14.145  11.925
16825W        W85188   7.288  33.881  13.980
16826W        W85189  35.494  26.101  11.379
16827W        W85190  11.696  38.064   1.912
16828W        W85191  28.140  39.923   9.978
16829W        W85192  19.146   7.867   3.282
16830W        W85193   5.765  21.691   1.913
16831W        W85194  38.450   7.903   0.398
16832W        W85195   0.354   1.388   3.326
16833W        W85196  25.653  23.998   2.412
16834W        W85197  16.572  17.086   2.400
16835W        W85198  40.480  41.482   1.787
16836W        W85199  37.390  13.299  13.971
16837W        W85200  16.160   0.822  13.420
16838W        W85201  11.834  33.477   2.787
16839W        W85202   4.289  12.129  11.059
16840W        W85203  22.507  29.044  11.948
16841W        W85204   3.422   0.909   0.859
16842W        W85205  27.563  11.272  12.379
16843W        W85206  30.907  22.684   3.763
16844W        W85207  13.210  14.648   2.693
16845W        W85208  22.630  25.582   3.360
16846W        W85209  29.994  29.481   9.978
16847W        W85210  25.561  35.013  11.400
16848W        W85211  18.765  33.880   1.240
16849W        W85212  17.632  42.334  13.532
16850W        W85213  26.187  32.018  12.839
16851W        W85214  19.052  20.761   3.280
16852W        W85215  37.406  40.967  12.418
16853W        W85216  13.187  22.073   2.410
16854W        W85217  26.960  39.835   1.309
16855W        W85218  18.779  37.913  11.029
16856W        W85219   1.881  30.981   3.645
16857W        W85220  19.103  28.466  12.485
16858W        W85221   7.184  32.997  14.854
16859W        W85222  27.180  33.405  14.825
16860W        W85223  20.760  43.973   0.367
16861W        W85224  18.195  43.844  10.897
16862W        W85225  23.084   0.285  10.546
16863W        W85226  28.983  42.935   1.853
16864W        W85227  26.671  10.661   1.237
16865W        W85228  30.468  26.511   5.100
16866W        W85229  21.194  18.789   1.303
16867W        W85230  25.685  41.417  13.938
16868W        W85231  23.107  31.562  11.425
16869W        W85232   2.961  38.557   2.240
16870W        W85233  25.584   8.708   0.255
16871W        W85234  19.121  14.609  13.929
16872W        W85235  13.619  42.027  13.331
16873W        W85236   4.214  32.597  13.063
16874W        W85237  36.909  19.691   1.254
16875W        W85238  44.420  28.507   4.597
16876W        W85239  44.811  33.409   4.644
16877W        W85240  11.164  36.514  14.450
16878W        W85241  20.110  31.020  11.608
16879W        W85242  13.667   5.303   4.256
16880W        W85243  20.067  39.939  12.404
16881W        W85244  23.606   8.210   2.852
16882W        W85245  32.453  11.694   1.214
16883W        W85246  21.617  32.013  11.547
16884W        W85247  21.174   3.264  11.874
16885W        W85248   9.309  36.091  14.814
16886W        W85249   3.819  29.643  14.464
16887W        W85250   7.785  17.195  12.444
16888W        W85251  23.541  27.070   0.457
16889W        W85252  33.600  44.362   3.198
16890W        W85253  22.529   7.735   4.212
16891W        W85254  18.092  25.630   0.809
16892W        W85255  18.715  25.066  13.354
16893W        W85256  21.753  28.049  10.926
16894W        W85257   1.305  44.758   0.278
16895W        W85258  24.081  43.979  14.888
16896W        W85259  32.583  36.565  13.516
16897W        W85260  36.566  28.100  12.512
16898W        W85261  17.576  31.076   3.857
16899W        W85262  32.988  32.013   3.869
16900W        W85263   7.846  10.208  11.456
16901W        W85264  36.929  38.977   0.288
16902W        W85265  41.317  43.982   4.620
16903W        W85266  19.190   1.402  13.972
16904W        W85267  22.667  41.836   1.903
16905W        W85268  33.105  20.646   3.332
16906W        W85269  43.501  24.025  14.471
16907W        W85270  13.119  43.900  14.439
16908W        W85271  22.738  30.504  11.959
16909W        W85272  37.063   2.948  14.027
16910W        W85273  31.071   6.889   2.405
16911W        W85274  14.723  13.340   2.718
16912W        W85275   0.314  40.323   0.845
16913W        W85276  19.742  32.979   1.407
16914W        W85277  39.417  21.679   0.329
16915W        W85278  22.094  34.078   2.284
16916W        W85279   8.329  40.312  14.495
16917W        W85280  10.139   0.892   1.424
16918W        W85281  14.201  13.611  13.905
16919W        W85282  23.027  20.080   0.751
16920W        W85283  37.063  34.026   1.441
16921W        W85284   8.844  16.624  13.869
16922W        W85285  24.979   5.298  13.047
16923W        W85286  34.435  16.143   3.809
16924W        W85287  43.372  35.382  11.861
16925W        W85288   6.255  32.024  12.063
16926W        W85289  27.109   4.250  13.456
16927W        W85290  30.083  11.273  14.914
16928W        W85291  40.042  21.681   3.192
16929W        W85292   4.783  14.108   2.668
16930W        W85293   2.299   7.244  14.763
16931W        W85294  11.800  44.994   1.391
16932W        W85295  22.220  40.890  14.501
16933W        W85296  29.541  25.470  12.846
16934W        W85297  14.634   7.891   0.388
16935W        W85298  26.700   3.271  12.447
16936W        W85299  26.515  33.419  13.822
16937W        W85300  22.707  44.779  12.577
16938W        W85301   4.412  15.314   0.777
16939W        W85302  17.259  26.574   4.828
16940W        W85303  37.407  34.948  14.320
16941W        W85304   9.266  14.789   4.823
16942W        W85305  40.844  27.614   0.836
16943W        W85306  33.083   6.265   3.188
16944W        W85307  32.600   2.322   4.672
16945W        W85308   6.288  33.592  12.008
16946W        W85309   4.877  31.484   2.899
16947W        W85310  39.865  37.954  13.910
16948W        W85311   5.902  21.100   4.837
16949W        W85312   4.331  20.636   0.845
16950W        W85313  13.709  21.602   4.651
16951W        W85314   2.385  36.074   1.822
16952W        W85315  12.764   5.386  14.958
16953W        W85316  31.402  24.026  11.020
16954W        W85317   2.924  28.627   2.795
16955W        W85318  31.447  23.992  12.372
16956W        W85319  28.669  17.664   3.806
16957W        W85320  30.979  10.657  14.327
16958W        W85321  17.225  24.532  12.440
16959W        W85322  29.148   6.881   3.159
16960W        W85323  20.620  32.887   2.217
16961W        W85324  31.026  16.123  14.291
16962W        W85325   6.774   7.813  14.817
16963W        W85326  27.512  27.688  12.944
16964W        W85327  30.491  21.683   4.266
16965W        W85328  14.679  30.060  10.430
16966W        W85329  26.594  37.074  12.452
16967W        W85330  28.554   7.261  13.340
16968W        W85331   9.800  24.635  13.449
16969W        W85332  24.612  15.109   2.720
16970W        W85333  35.885   5.387   3.836
16971W        W85334   6.340   0.913  11.066
16972W        W85335   6.736  14.114   4.344
16973W        W85336  19.229  24.595  10.965
16974W        W85337  22.238   1.837   2.713
16975W        W85338  34.036  18.570   4.289
16976W        W85339   5.717  28.524  12.942
16977W        W85340  13.291  14.269  12.867
16978W        W85341   6.276  37.913  14.991
16979W        W85342  35.056   3.781  13.966
16980W        W85343  23.213  33.528  12.515
16981W        W85344  40.441  39.918  13.489
16982W        W85345  17.192  25.696  13.839
16983W        W85346  24.665  27.003   1.905
16984W        W85347  35.577  37.949  13.967
16985W        W85348  16.652  44.332   3.274
16986W        W85349  13.777  14.618  12.908
16987W        W85350  18.241   3.943   3.859
16988W        W85351  16.242   4.928   4.219
16989W        W85352   2.332  20.693  11.392
16990W        W85353  15.785  28.028   3.700
16991W        W85354  32.433  10.162  11.556
16992W        W85355   2.407  34.442  11.501
16993W        W85356   0.955  18.153  10.928
16994W        W85357  42.799  11.358   4.772
16995W        W85358  34.881   8.742  12.404
16996W        W85359  34.988  13.743   4.651
16997W        W85360  26.589  12.168  13.038
16998W        W85361  25.615  15.600  12.525
16999W        W85362   5.906  37.916   3.285
17000W        W85363  13.334  28.489   3.178
17001W        W85364  26.589  35.432  11.430
17002W        W85365   8.728  30.492  14.959
17003W        W85366   4.378   7.410  13.052
17004W        W85367  37.909  11.664  12.574
17005W        W85368   9.176  28.468  13.411
17006W        W85369   5.885   0.795  11.976
17007W        W85370  20.061  27.190   0.841
17008W        W85371  33.582  22.169  14.289
17009W        W85372  27.064  18.124   4.172
17010W        W85373   8.802  36.036  14.024
17011W        W85374   6.895  17.663  10.569
17012W        W85375  41.924  43.300  14.501
17013W        W85376  11.281  43.504   3.168
17014W        W85377  28.052  10.744   1.255
17015W        W85378  35.883   7.826   1.287
17016W        W85379  15.086   3.424   5.281
17017W        W85380  16.583  30.535   0.928
17018W        W85381   3.215  34.021  11.598
17019W        W85382  12.702   2.409   2.836
17020W        W85383   0.787   6.912  11.975
17021W        W85384   3.932   6.681   3.313
17022W        W85385  33.456  29.941   3.187
17023W        W85386   3.779  34.888  12.092
17024W        W85387   0.847  12.221  14.431
17025W        W85388  37.372   5.713   4.597
17026W        W85389  40.543  34.959  14.309
17027W        W85390  26.545   5.246   0.746
17028W        W85391  14.688  44.278   9.945
17029W        W85392  12.346   2.395   2.822
17030W        W85393  43.356  27.575   0.846
17031W        W85394  42.003  29.150  11.048
17032W        W85395   7.748  31.983   3.197
17033W        W85396  27.497  14.184   2.285
17034W        W85397   7.735  28.074  10.090
17035W        W85398  36.032  31.040   3.718
17036W        W85399  17.645  37.573  13.937
17037W        W85400  32.896  37.022   1.381
17038W        W85401  34.394  40.443  13.387
17039W        W85402  14.636   5.346  12.400
17040W        W85403  30.495  35.980   3.234
17041W        W85404   5.206  17.241   1.275
17042W        W85405  41.885   3.852   4.805
17043W        W85406  20.756  12.617   4.195
17044W        W85407   2.762  10.355   4.284
17045W        W85408  17.726   1.881  13.515
17046W        W85409   9.289  32.918  10.558
17047W        W85410  33.394  15.701  14.335
17048W        W85411  15.644  30.059  12.382
17049W        W85412   3.220  36.010  11.400
17050W        W85413   2.244  40.024   1.886
17051W        W85414  34.988  32.493   2.888
17052W        W85415  21.670  22.586   2.895
17053W        W85416  43.827   2.869   0.281
17054W        W85417  36.999  35.409   2.353
17055W        W85418  34.575  29.471   2.200
17056W        W85419  15.773  13.266   0.441
17057W        W85420  44.922  33.112   3.206
17058W        W85421   6.372  19.622   5.122
17059W        W85422   4.228  12.121   0.919
17060W        W85423  25.176  14.228   9.931
17061W        W85424  39.359  15.164  12.879
17062W        W85425   8.390   4.919  13.343
17063W        W85426  41.840   0.428   4.729
17064W        W85427  30.657  16.741   0.257
17065W        W85428  14.160  19.084   0.785
17066W        W85429  24.976  12.169  10.596
17067W        W85430  19.207   2.873  14.391
17068W        W85431  43.442   9.304   4.188
17069W        W85432  34.499  21.096  10.432
17070W        W85433   7.694  29.517   4.245
17071W        W85434   0.467   8.750  11.595
17072W        W85435   4.314   3.723  13.539
17073W        W85436  22.068   7.883   4.256
17074W        W85437   2.861   3.881   4.229
17075W        W85438  33.958   4.869  13.438
17076W        W85439  27.170  26.160   0.798
17077W        W85440   8.289   1.784  10.493
17078W        W85441  33.924  39.845  10.547
17079W        W85442  30.149  44.263  11.942
17080W        W85443  12.170  20.679   3.188
17081W        W85444  26.997  43.420  14.897
17082W        W85445   9.212  14.165   1.858
17083W        W85446  20.751  18.283  10.505
17084W        W85447  17.265  41.407  11.473
17085W        W85448   5.211  20.263   3.751
17086W        W85449   5.688  41.390   1.772
17087W        W85450  26.033   9.372  12.561
17088W        W85451   8.352   2.342   4.279
17089W        W85452   3.453   6.770   2.348
17090W        W85453  20.618  15.196  13.793
17091W        W85454  36.950  18.187   2.277
17092W        W85455  11.770  29.075   3.651
17093W        W85456   7.315  20.168  12.937
17094W        W85457  17.595   9.217   0.275
17095W        W85458  31.982  41.486  14.759
17096W        W85459  16.233   9.232   2.303
17097W        W85460   4.888  22.175  13.931
17098W        W85461  23.227  21.076   4.735
17099W        W85462  23.543  29.028  13.872
17100W        W85463  36.923   6.397  11.595
17101W        W85464   3.335   4.852  12.059
17102W        W85465  10.866  33.515  13.415
17103W        W85466  12.147  14.177   2.840
17104W        W85467  14.693   6.292   5.658
17105W        W85468  19.216  44.273   2.332
17106W        W85469  40.043  10.145   3.366
17107W        W85470  27.187  24.519   2.349
17108W        W85471  38.357  26.648   4.263
17109W        W85472  22.721  15.211   4.765
17110W        W85473  38.857  43.344  11.954
17111W        W85474  21.603   7.705   0.955
17112W        W85475  40.352  20.536   0.325
17113W        W85476  31.922  21.153  13.044
17114W        W85477  37.351  33.908   1.258
17115W        W85478  22.548  11.304  14.380
17116W        W85479  24.709  18.643  14.026
17117W        W85480  38.502  38.392   1.785
17118W        W85481  19.581   8.657  12.913
17119W        W85482  30.933  18.761   3.226
17120W        W85483  32.987  21.186   3.283
17121W        W85484  26.472   3.868   0.331
17122W        W85485  32.488   4.354   1.918
17123W        W85486  31.122  29.630  11.594
17124W        W85487  27.183  42.781  11.441
17125W        W85488  13.747  41.481   1.737
17126W        W85489  21.513  32.119   3.765
17127W        W85490  15.308  18.593   0.354
17128W        W85491   5.766  10.324   0.365
17129W        W85492  23.685  33.546   1.760
17130W        W85493  41.895   0.821   2.683
17131W        W85494  39.945  42.817  14.411
17132W        W85495  42.427   7.303  12.568
17133W        W85496  27.155  15.697   5.288
17134W        W85497  28.497  38.909   1.830
17135W        W85498  28.943  15.093  10.081
17136W        W85499  28.154   5.750  14.930
17137W        W85500  12.658  18.775  14.968
17138W        W85501  10.218  40.841  12.390
17139W        W85502  16.666  29.585  11.938
17140W        W85503   8.385  24.213   0.318
17141W        W85504   2.451  44.808  12.514
17142W        W85505   2.749  20.145   3.239
17143W        W85506   4.383   7.791   3.736
17144W        W85507  37.917  14.762   3.366
17145W        W85508  20.090  35.451   2.677
17146W        W85509  21.097  44.926   4.831
17147W        W85510  40.971   4.315  12.071
17148W        W85511  34.009  29.581   3.801
17149W        W85512  33.382  23.044   4.257
17150W        W85513  42.826  21.187   2.715
17151W        W85514  14.788  29.429   1.319
17152W        W85515  19.112  12.713  11.488
17153W        W85516  44.305  33.472   3.766
17154W        W85517  37.430  14.778   1.276
17155W        W85518  31.630   9.281  11.485
17156W        W85519   6.318   3.334   4.326
17157W        W85520  43.400   4.394   3.639
17158W        W85521  41.522  38.347   4.343
17159W        W85522  41.891  21.074   5.260
17160W        W85523  22.070  20.695   2.370
17161W        W85524  28.123  33.401   9.943
17162W        W85525  29.569  15.083  13.410
17163W        W85526  26.091  20.241  11.462
17164W        W85527  38.828  42.488  11.075
17165W        W85528  24.207  21.114  12.575
17166W        W85529  44.458  43.783   2.734
17167W        W85530  17.118  44.323  10.612
17168W        W85531  26.463  34.421   9.932
17169W        W85532  22.744  17.663  14.792
17170W        W85533  44.412  14.633  14.312
17171W        W85534  29.493  38.970  11.377
17172W        W85535   5.749  26.951   2.848
17173W        W85536  32.561  17.163  11.022
17174W        W85537   8.279  14.722  11.942
17175W        W85538  19.082   4.370   3.713
17176W        W85539  39.869  38.518  13.826
17177W        W85540   4.209  14.314   2.277
17178W        W85541  36.877  27.118  11.429
17179W        W85542  40.409  33.596  11.550
17180W        W85543  42.309  24.032  13.855
17181W        W85544  21.669  40.328   1.886
17182W        W85545  17.767  22.514  13.451
17183W        W85546  21.519  16.691  11.943
17184W        W85547  11.756  15.802  10.903
17185W        W85548  39.062  35.412   2.868
17186W        W85549  27.184  22.061   3.187
17187W        W85550  38.494   5.837  12.576
17188W        W85551  43.020  11.291   1.721
17189W        W85552  35.466  17.213   2.741
17190W        W85553  39.532  37.524   2.812
17191W        W85554   7.728  36.363   3.278
17192W        W85555  13.644  39.853   4.739
17193W        W85556  34.116   3.445  12.395
17194W        W85557   4.869   6.274   5.316
17195W        W85558  13.110   7.890   3.832
17196W        W85559  23.227  33.505  13.938
17197W        W85560  40.514   2.923  13.048
17198W        W85561  36.487  20.235   4.228
17199W        W85562  39.064   3.725  13.801
17200W        W85563   7.912  37.553  14.480
17201W        W85564   2.403  13.111   1.428
17202W        W85565   8.891   9.853   4.804
17203W        W85566  12.704  11.327  12.931
17204W        W85567  11.237   3.412   3.149
17205W        W85568   1.247   5.808   2.856
17206W        W85569  43.839  31.025   1.826
17207W        W85570  30.559  23.163  13.020
17208W        W85571  11.739  29.551   1.775
17209W        W85572   9.673  40.023  10.641
17210W        W85573  36.491  28.515   4.756
17211W        W85574  35.106   8.323   0.742
17212W        W85575  25.979  15.664  10.929
17213W        W85576  11.245  39.424   1.899
17214W        W85577  24.139  28.062  14.934
17215W        W85578  38.421  19.175  13.943
17216W        W85579   9.356  25.981   4.273
17217W        W85580   6.715  43.914  10.489
17218W        W85581   0.867  22.680  11.404
17219W        W85582  43.952   5.211  12.405
17220W        W85583  44.905  28.173  12.029
17221W        W85584  31.918  42.461  12.360
17222W        W85585  36.428  33.611   4.215
17223W        W85586  28.673  21.720  10.636
17224W        W85587  16.666  42.014   3.684
17225W        W85588  19.562  36.906  11.428
17226W        W85589  44.467  32.102   5.295
17227W        W85590  15.603  27.126  12.351
17228W        W85591  42.953   3.407   3.266
17229W        W85592   3.911  40.511   0.737
17230W        W85593  21.018  27.146   3.324
17231W        W85594   4.933  37.983   1.400
17232W        W85595  29.538  13.331  10.472
17233W        W85596  26.494  20.072  13.802
17234W        W85597  24.669   2.350  12.888
17235W        W85598  34.081  22.660   0.811
17236W        W85599  28.173  24.151   1.349
17237W        W85600  15.742  12.215   4.213
17238W        W85601   5.875   2.816   2.265
17239W        W85602  36.503  17.729   1.289
17240W        W85603   3.460  30.611   4.655
17241W        W85604  26.130  19.697   3.196
17242W        W85605  44.435   5.355  14.842
17243W        W85606  29.096  33.594  11.510
17244W        W85607  18.572   0.798  13.392
17245W        W85608  41.527   0.941   4.695
17246W        W85609  28.486  40.988   1.745
17247W        W85610  15.581  18.230   4.322
17248W        W85611  34.951  10.207   5.089
17249W        W85612  29.442  38.954   4.827
17250W        W85613  36.380  34.391   3.380
17251W        W85614  32.978  10.778   4.259
17252W        W85615  34.025   7.268   1.224
17253W        W85616  17.278   9.276   4.172
17254W        W85617  27.062  12.617   0.278
17255W        W85618  37.554  33.103   1.767
17256W        W85619  28.512  40.460   3.209
17257W        W85620  44.383  39.543   4.270
17258W        W85621  36.953  44.350   3.234
17259W        W85622  31.910  16.738   3.265
17260W        W85623   4.366  11.652   3.688
17261W        W85624   9.798   7.796   2.885
17262W        W85625  27.465  40.480   0.847
17263W        W85626   7.783   3.943  12.903
17264W        W85627  37.369  33.426  14.838
17265W        W85628  39.997   0.287   0.772
17266W        W85629  19.140  16.277  13.965
17267W        W85630  39.969  41.420  14.329
17268W        W85631  17.097  18.199  13.537
17269W        W85632  13.693  36.409  14.475
17270W        W85633  12.168  28.449   3.199
17271W        W85634   9.747  35.106   0.822
17272W        W85635   1.801  28.549  10.983
17273W        W85636  23.058   4.769  13.966
17274W        W85637  20.153   6.827   4.753
17275W        W85638  16.768  33.083  11.115
17276W        W85639  32.115  30.532   5.247
17277W        W85640  17.174  13.634  13.992
17278W        W85641   6.370  41.956  11.034
17279W        W85642  27.173  41.932  14.492
17280W        W85643  17.157  27.496   0.963
17281W        W85644  24.504  24.002   4.792
17282W        W85645  31.613  36.386   4.730
17283W        W85646  31.627  38.508  14.975
17284W        W85647  24.655  36.060  14.912
17285W        W85648  29.009  34.900  11.932
17286W        W85649  21.257  40.048   0.730
17287W        W85650  32.439  10.697   2.254
17288W        W85651  21.149  14.761   1.222
17289W        W85652  32.072  25.101  14.394
17290W        W85653   7.713  17.141  10.542
17291W        W85654  35.904  30.016  14.339
17292W        W85655  34.529  36.996  10.984
17293W        W85656  27.024  38.555   1.695
17294W        W85657  19.123  18.159  14.794
17295W        W85658  43.824  28.512   0.283
17296W        W85659  35.895  31.608  12.849
17297W        W85660  20.235   2.901  11.553
17298W        W85661  22.129   0.891   0.942
17299W        W85662   0.329  16.592  13.891
17300W        W85663  33.011  38.373  13.887
17301W        W85664  25.177   8.809  14.914
17302W        W85665  14.618  37.552   5.279
17303W        W85666   7.810  28.668   2.241
17304W        W85667   3.863  12.236  13.896
17305W        W85668  22.734  14.778  11.050
17306W        W85669  19.676  16.136   4.314
17307W        W85670  39.863   9.873   2.703
17308W        W85671   7.840  43.511  14.953
17309W        W85672  11.216   8.809  10.924
17310W        W85673  27.101  22.563   4.170
17311W        W85674  19.551   5.307   2.807
17312W        W85675  39.499  33.894  13.406
17313W        W85676   7.739  15.659  13.481
17314W        W85677  30.990   7.697  11.552
17315W        W85678  24.612  29.958  13.380
17316W        W85679  30.435   3.314   4.233
17317W        W85680  27.474  15.165  11.069
17318W        W85681   4.298  21.595  14.442
17319W        W85682  12.213  40.476  10.632
17320W        W85683   0.440  13.653   0.438
17321W        W85684  25.596  36.464  12.950
17322W        W85685  31.491  44.394  14.287
17323W        W85686  24.482  25.704  12.373
17324W        W85687  39.388  36.942   1.927
17325W        W85688  37.555   0.925   1.728
17326W        W85689  34.044  27.562   3.279
17327W        W85690   6.714  15.738   4.727
17328W        W85691   1.323   4.759   0.748
17329W        W85692  42.884  28.069   5.247
17330W        W85693  24.713   9.215   3.717
17331W        W85694  26.957  23.005   3.159
17332W        W85695   5.934   2.467   0.387
17333W        W85696  40.533  44.957  12.472
17334W        W85697  11.763  40.026  11.376
17335W        W85698  32.902  19.575  13.385
17336W        W85699  35.901  35.862   4.798
17337W        W85700  35.483  25.186   0.865
17338W        W85701   9.697  30.123   4.160
17339W        W85702  33.541  38.532   0.363
17340W        W85703  29.568  31.437  12.055
17341W        W85704   9.259  42.481  14.896
17342W        W85705  22.660  28.116  13.438
17343W        W85706  22.633  13.727  14.969
17344W        W85707  18.253   0.814   3.678
17345W        W85708  10.236  43.771  14.303
17346W        W85709  40.908  21.117  10.137
17347W        W85710  32.632  20.192   4.792
17348W        W85711   5.795  31.640   0.770
17349W        W85712  29.102  42.990  14.006
17350W        W85713  24.133  24.535  11.105
17351W        W85714   8.666   2.766  11.396
17352W        W85715  10.338  26.024  10.559
17353W        W85716  35.370  39.885   4.685
17354W        W85717  17.234  41.396  14.470
17355W        W85718  22.500  18.620   3.831
17356W        W85719  23.571   2.445   0.750
17357W        W85720  42.883   8.763   0.912
17358W        W85721   0.787  23.551   4.599
17359W        W85722   1.403  35.047   4.125
17360W        W85723   4.841  33.964   0.815
17361W        W85724   5.754  22.189   0.323
17362W        W85725   2.895   7.679  10.518
17363W        W85726   5.754  14.274   1.275
17364W        W85727  13.830  44.996  14.280
17365W        W85728  37.504  36.469  12.480
17366W        W85729   0.368  18.729   3.746
17367W        W85730  11.257   2.251  10.427
17368W        W85731   3.720   0.821  12.001
17369W        W85732  12.682  25.709  10.946
17370W        W85733  29.621  39.872   1.768
17371W        W85734  19.079  12.714  14.901
17372W        W85735   5.333   9.664   3.849
17373W        W85736  15.223   3.737   2.748
17374W        W85737  43.415  34.415   5.174
17375W        W85738  16.172  27.514  11.518
17376W        W85739  33.928  30.050  13.831
17377W        W85740  19.086   1.869   4.154
17378W        W85741  31.997  42.888   0.464
17379W        W85742  24.588   8.812  12.409
17380W        W85743  36.924  36.086  13.928
17381W        W85744  27.656  29.530  10.609
17382W        W85745  19.616   2.345   1.920
17383W        W85746  22.151  40.435  14.326
17384W        W85747  30.473  12.314  14.461
17385W        W85748  19.186  10.334  12.901
17386W        W85749  38.371  13.648   9.544
17387W        W85750   9.665  25.202  13.330
17388W        W85751  11.291  39.437   1.350
17389W        W85752  30.130  29.506  10.585
17390W        W85753  14.307  40.520  10.513
17391W        W85754  27.125  12.168  11.418
17392W        W85755  16.616  11.730  13.449
17393W        W85756  24.579  33.885  10.977
17394W        W85757  17.112  34.925   1.407
17395W        W85758  33.907   8.223   2.232
17396W        W85759  18.625   2.800   4.710
17397W        W85760   8.825  39.450   3.803
17398W        W85761  14.757  15.669  13.363
17399W        W85762  22.065  31.945  13.814
17400W        W85763  31.620  28.450  14.453
17401W        W85764   6.348  28.006  10.596
17402W        W85765  22.593  32.930  11.373
17403W        W85766   3.811  32.063  13.021
17404W        W85767  20.611  22.505  14.992
17405W        W85768  41.983   1.881  11.543
17406W        W85769  38.894  19.725   1.812
17407W        W85770  24.180  38.045  11.885
17408W        W85771  28.661  43.833  10.994
17409W        W85772   4.839  13.772  10.096
17410W        W85773  13.730  16.264  13.870
17411W        W85774  23.128  26.677  12.076
17412W        W85775  11.146   2.894   2.385
17413W        W85776  31.537  23.068  13.438
17414W        W85777  16.714   1.424   2.840
17415W        W85778  19.698  10.158   1.418
17416W        W85779  27.099  15.743  11.111
17417W        W85780  17.116  27.533   2.870
17418W        W85781  11.348  14.776  11.579
17419W        W85782  10.363  42.009  11.037
17420W        W85783   7.383  32.617   0.956
17421W        W85784  16.794   5.795  13.861
17422W        W85785   5.867  36.864   2.745
17423W        W85786   2.399  34.468   5.258
17424W        W85787  41.836   9.738  12.834
17425W        W85788  31.001   6.250  13.416
17426W        W85789  30.061  19.630   0.355
17427W        W85790  13.703  15.241   1.828
17428W        W85791  10.375  42.796  11.069
17429W        W85792  22.092   5.384  11.498
17430W        W85793  30.976  37.928  12.875
17431W        W85794  16.225  22.570   3.285
17432W        W85795  44.000  23.017   4.181
17433W        W85796  17.564  37.573   1.340
17434W        W85797   5.863  25.640   0.880
17435W        W85798  35.469   4.243  11.478
17436W        W85799  38.873  19.595  13.508
17437W        W85800  14.111   8.823   2.306
17438W        W85801   6.422  12.145   0.875
17439W        W85802  40.373  44.381   1.451
17440W        W85803   3.281  15.296  14.004
17441W        W85804  13.680  11.833   2.238
17442W        W85805  23.057  40.371  11.467
17443W        W85806  15.303   5.367  13.519
17444W        W85807  21.041  11.138   0.480
17445W        W85808  18.641  33.578   3.786
17446W        W85809  12.717   8.236  13.840
17447W        W85810  39.021  42.416  14.954
17448W        W85811  42.781  20.649  14.480
17449W        W85812  38.331   2.265   2.357
17450W        W85813  13.679   0.458  11.525
17451W        W85814   2.462   4.355   2.868
17452W        W85815  36.003  14.257  11.874
17453W        W85816   5.865  29.483  11.102
17454W        W85817  31.130  33.091   3.796
17455W        W85818  42.963   7.819   3.239
17456W        W85819   7.308   2.264  14.446
17457W        W85820   1.789  25.674  10.637
17458W        W85821  32.604  30.018   5.579
17459W        W85822   6.686  17.134   1.312
17460W        W85823  39.513  16.579  10.550
17461W        W85824  27.056   9.160  12.881
17462W        W85825  25.076   8.680   1.255
17463W        W85826  32.500  24.226  14.019
17464W        W85827  23.001  41.494  14.436
17465W        W85828  42.527  15.085  11.384
17466W        W85829  25.529   4.402  12.347
17467W        W85830  43.999  12.790   3.171
17468W        W85831   9.233  12.614   9.929
17469W        W85832  40.857  43.881  14.375
17470W        W85833  39.858  32.601   4.616
17471W        W85834  23.610   4.445  12.527
17472W        W85835   1.468  26.581   3.662
17473W        W85836  10.868  43.277  14.305
17474W        W85837  18.185   6.347   4.280
17475W        W85838  15.244  13.686  14.773
17476W        W85839  42.787  41.988  14.980
17477W        W85840  12.179  14.237  10.471
17478W        W85841   3.274   1.337   4.149
17479W        W85842  27.600  35.994  14.341
17480W        W85843  16.230  36.585  11.102
17481W        W85844  41.325  32.551  10.903
17482W        W85845   7.299  17.121   0.856
17483W        W85846  39.507  11.831   4.606
17484W        W85847  37.498   5.851   3.654
17485W        W85848  41.375  36.418   4.159
17486W        W85849   1.306  10.360   4.340
17487W        W85850   1.474  22.715   0.249
17488W        W85851   7.250  24.663   4.675
17489W        W85852  11.840  33.545  12.479
17490W        W85853   4.768  13.139   0.380
17491W        W85854   3.764   8.225  14.893
17492W        W85855  16.614  30.552   2.782
17493W        W85856  43.468  15.596   4.237
17494W        W85857  41.898  29.038  10.002
17495W        W85858  12.129  30.911   3.754
17496W        W85859  43.804   0.432   2.766
17497W        W85860  36.864  35.072  14.510
17498W        W85861  37.425   4.431  12.999
17499W        W85862  26.546  14.288   2.268
17500W        W85863   1.331  34.974  13.381
17501W        W85864  35.589  40.030  11.912
17502W        W85865  24.719  25.600   4.828
17503W        W85866  40.503  36.372  11.405
17504W        W85867  34.866  16.693   2.886
17505W        W85868  35.905  37.410  14.825
17506W        W85869  13.724   0.399  10.540
17507W        W85870  40.373   7.745   1.225
17508W        W85871  41.971  40.929   4.256
17509W        W85872  11.780  10.363  10.547
17510W        W85873  27.563   8.752   2.327
17511W        W85874  29.498  14.816   0.323
17512W        W85875  25.608  41.028   3.342
17513W        W85876  40.335  29.450   2.290
17514W        W85877   0.809  33.550  14.320
17515W        W85878  28.143  18.683  13.806
17516W        W85879   7.858  35.441  12.902
17517W        W85880  42.989  31.433   2.825
17518W        W85881  23.667  18.069  13.059
17519W        W85882  26.594  17.076   0.802
17520W        W85883  15.657  43.766  12.445
17521W        W85884  43.937  29.619  10.429
17522W        W85885  22.644  32.025   2.797
17523W        W85886  35.023   6.371   1.910
17524W        W85887  10.673   6.243  13.497
17525W        W85888  41.899  31.090  11.984
17526W        W85889  33.971   1.912  12.947
17527W        W85890  17.726  39.813  10.541
17528W        W85891  19.265  35.372   2.663
17529W        W85892  31.967  41.945   3.385
17530W        W85893  14.291  27.547   0.755
17531W        W85894  26.041  39.401   3.633
17532W        W85895   3.408  10.727   0.813
17533W        W85896  31.978  27.982  14.847
17534W        W85897  17.203   8.784  10.926
17535W        W85898  10.693   9.280   4.811
17536W        W85899  24.661  44.777  14.278
17537W        W85900  33.434  21.704  14.980
17538W        W85901   8.792   9.385  13.448
17539W        W85902  28.570   8.388  11.057
17540W        W85903  26.510  38.844  11.085
17541W        W85904   9.831  13.225   0.419
17542W        W85905  19.093  34.491   4.728
17543W        W85906   7.794   2.270  12.495
17544W        W85907  16.120  44.780   3.836
17545W        W85908   0.473  29.008   0.747
17546W        W85909  32.570  30.589  11.089
17547W        W85910   8.758  28.183   5.125
17548W        W85911   6.287  33.567  14.959
17549W        W85912  39.480  37.003   3.339
17550W        W85913  21.716  33.911  12.069
17551W        W85914  19.720   5.411  12.026
17552W        W85915  24.074  28.177  12.840
17553W        W85916  14.756  30.112   2.327
17554W        W85917  39.956  17.262  12.888
17555W        W85918  38.873   6.208   1.747
17556W        W85919  40.039  37.076  11.107
17557W        W85920  31.554  37.367   4.828
17558W        W85921   0.453   5.357  11.120
17559W        W85922  13.639  29.455   4.759
17560W        W85923  21.599   9.796   3.634
17561W        W85924  31.542   3.331  12.483
17562W        W85925  37.448   0.833  13.931
17563W        W85926  35.885   9.672  12.842
17564W        W85927   3.313  20.149   4.755
17565W        W85928  39.451  15.597  11.604
17566W        W85929  27.571  44.962   0.828
17567W        W85930  26.066  16.722  13.952
17568W        W85931   5.338  34.920   3.666
17569W        W85932   4.391  21.179  11.958
17570W        W85933  22.201  33.132  14.399
17571W        W85934   9.793  40.422   4.646
17572W        W85935  44.826  40.394  11.483
17573W        W85936  33.967  42.482  12.417
17574W        W85937  32.911   6.208  11.470
17575W        W85938   4.791  12.277  11.381
17576W        W85939  24.169  42.447  10.551
17577W        W85940  34.964  19.549  11.861
17578W        W85941  27.616  24.129   2.879
17579W        W85942  18.184  25.477   1.422
17580W        W85943   9.379   6.366  13.825
17581W        W85944  37.978  19.228   1.719
17582W        W85945  38.008   6.749   2.357
17583W        W85946  36.894  40.040  13.329
17584W        W85947  39.862  30.962  11.443
17585W        W85948  40.429  19.728   3.701
17586W        W85949   3.823  10.635  11.539
17587W        W85950   2.423  27.133  13.901
17588W        W85951   8.798  28.630  12.927
17589W        W85952  25.499   4.442  11.424
17590W        W85953  14.817   5.900  13.941
17591W        W85954  25.162   2.276  12.056
17592W        W85955  10.691   7.196   4.839
17593W        W85956  21.215  31.012   3.729
17594W        W85957  15.701  13.163  12.976
17595W        W85958  44.411  30.590  10.998
17596W        W85959  34.583  12.302  10.588
17597W        W85960  39.952  39.983  11.470
17598W        W85961  27.101  14.236   4.195
17599W        W85962  31.138  20.075  10.553
17600W        W85963  17.562  12.667  14.812
17601W        W85964  11.272  43.901  11.865
17602W        W85965  14.248  39.957   2.347
17603W        W85966  18.564   6.692  10.937
17604W        W85967   1.253  28.156   2.403
17605W        W85968  34.416   4.263   0.804
17606W        W85969   1.441   6.380   0.757
17607W        W85970  24.199   1.975  13.406
17608W        W85971  30.047  41.913  14.770
17609W        W85972  23.991  41.381  11.501
17610W        W85973  11.776  14.104  12.091
17611W        W85974  15.145  29.162   1.744
17612W        W85975  33.472   6.375   2.273
17613W        W85976  34.505  36.510   0.350
17614W        W85977   2.470  42.877  10.619
17615W        W85978  42.019   1.342  10.570
17616W        W85979   6.859  38.023  11.390
17617W        W85980   2.738  39.998   0.923
17618W        W85981  26.989   6.725   1.912
17619W        W85982   1.360  20.613   4.634
17620W        W85983  30.928  18.247   4.835
17621W        W85984  31.615  28.967  11.559
17622W        W85985  21.196  23.667   3.222
17623W        W85986   0.403  39.422  12.900
17624W        W85987  13.173   5.344   0.362
17625W        W85988  42.379  40.309  13.339
17626W        W85989  39.469   2.794   2.722
17627W        W85990  36.010  24.603   4.778
17628W        W85991  14.672  14.598  10.468
17629W        W85992  19.198  17.705   4.748
17630W        W85993   9.316  44.280   1.828
17631W        W85994  20.201  41.348  14.942
17632W        W85995  23.111  41.446  10.636
17633W        W85996   5.912   0.981   1.225
17634W        W85997   6.347  12.346   2.690
17635W        W85998  11.358  42.921  13.842
17636W        W85999  17.214  43.845   4.737
17637W        W86000  43.506  24.043   3.203
17638W        W86001  29.554  27.025  10.630
17639W        W86002   0.328  33.527   0.403
17640W        W86003  39.360  26.997   2.190
17641W        W86004  37.863  43.497  12.443
17642W        W86005  23.105   4.294  12.838
17643W        W86006  25.520  22.513   0.274
17644W        W86007   0.889  32.898   3.742
17645W        W86008  42.406  37.861   3.656
17646W        W86009  34.890  14.640   3.267
17647W        W86010  26.155  17.159  14.936
17648W        W86011  24.002  36.985   0.864
17649W        W86012   3.827  44.454   4.230
17650W        W86013  42.026   5.423  14.006
17651W        W86014  23.985  41.996  13.928
17652W        W86015  33.464  35.081  13.490
17653W        W86016  31.988  34.565   3.809
17654W        W86017  32.505  22.112  10.974
17655W        W86018  41.387  11.802  12.917
17656W        W86019  26.102  25.117  11.426
17657W        W86020  37.960  11.276   5.304
17658W        W86021  18.609  42.802   2.190
17659W        W86022  18.743   0.289   2.726
17660W        W86023  17.078  20.567   3.663
17661W        W86024  17.242  25.115   2.278
17662W        W86025  14.205  36.847  11.920
17663W        W86026  38.898  33.525   0.440
17664W        W86027  34.079  29.665  14.360
17665W        W86028   5.760  40.319  13.804
17666W        W86029  35.368   5.273  14.789
17667W        W86030   6.919  34.880  13.363
17668W        W86031  41.468  15.733  11.929
17669W        W86032  14.702  42.473   0.293
17670W        W86033  24.028  12.787   2.189
17671W        W86034  31.579  24.599  13.970
17672W        W86035  14.605  18.700   4.601
17673W        W86036   3.409  37.564  14.833
17674W        W86037  40.512  26.129   0.824
17675W        W86038  31.634  11.259  12.824
17676W        W86039  37.425   1.819   1.918
17677W        W86040  24.047  37.947   2.307
17678W        W86041  14.610   7.357   1.433
17679W        W86042  24.131  37.453   3.753
17680W        W86043  14.277  37.342  12.457
17681W        W86044  16.103  41.953   3.301
17682W        W86045  44.268  39.389   4.706
17683W        W86046   7.231  38.923  12.929
17684W        W86047  13.828  34.047   1.800
17685W        W86048  18.747   2.242   4.828
17686W        W86049  15.276   0.252   3.687
17687W        W86050  20.573  39.062  12.907
17688W        W86051  42.454  17.258  10.962
17689W        W86052  26.951  31.960   3.356
17690W        W86053  25.985  29.134  11.394
17691W        W86054  36.510  11.347   5.142
17692W        W86055  27.455   2.825  13.047
17693W        W86056  15.820  43.336   4.120
17694W        W86057  19.169  16.720  12.941
17695W        W86058   9.179  24.634  11.424
17696W        W86059  17.643  35.523  12.076
17697W        W86060   2.956   0.294  10.123
17698W        W86061  19.718  18.619  12.367
17699W        W86062   0.893  24.074  14.820
17700W        W86063  27.999  44.010   3.150
17701W        W86064  12.846  35.525  11.008
17702W        W86065  36.052  22.037   2.411
17703W        W86066  18.650  27.463   2.753
17704W        W86067   3.909  37.994  12.452
17705W        W86068  34.888  38.467  10.439
17706W        W86069  36.501   5.891   3.358
17707W        W86070  36.581  12.248  10.987
17708W        W86071  22.655  17.710  10.637
17709W        W86072  19.596  33.920  11.506
17710W        W86073  17.206  11.852  12.566
17711W        W86074  26.626  21.612   1.706
17712W        W86075  24.155  38.939  14.791
17713W        W86076  33.559  13.720   2.298
17714W        W86077  18.583  27.585   0.834
17715W        W86078   4.380  29.933  13.849
17716W        W86079  17.764  44.754   1.297
17717W        W86080  44.874  28.580  12.989
17718W        W86081  15.800  22.235  14.902
17719W        W86082  11.816  36.388   1.748
17720W        W86083  39.862   4.277   1.300
17721W        W86084  21.075   4.901   5.207
17722W        W86085   4.842  14.112  10.109
17723W        W86086   5.714  28.046  12.838
17724W        W86087  38.972  35.975   3.749
17725W        W86088   2.868   7.297   2.336
17726W        W86089  23.643  42.494   1.834
17727W        W86090   9.308  20.043   4.828
17728W        W86091  10.275   2.346  13.950
17729W        W86092   0.822  39.403   4.154
17730W        W86093   6.736  37.884   0.245
17731W        W86094  35.104  35.975   3.251
17732W        W86095   7.330  39.548   3.271
17733W        W86096  26.145  23.699  13.864
17734W        W86097  44.930  42.465  14.863
17735W        W86098  37.873  18.211  12.866
17736W        W86099  31.918  25.580   2.799
17737W        W86100  16.305   5.357   3.647
17738W        W86101  12.361  30.585   3.757
17739W        W86102  31.052  30.528   0.770
17740W        W86103  20.552  19.624   3.350
17741W        W86104   8.301  14.246  13.830
17742W        W86105  25.057   7.219  13.392
17743W        W86106  13.758   1.239  12.846
17744W        W86107  19.154  21.540   4.272
17745W        W86108   8.258   6.809   3.779
17746W        W86109  42.392  14.652  12.068
17747W        W86110  10.277   6.324  13.969
17748W        W86111  33.523  21.527   0.363
17749W        W86112  25.983   7.384  12.461
17750W        W86113   8.230  41.999   4.209
17751W        W86114  18.545  10.270  10.093
17752W        W86115   6.276  30.472  11.419
17753W        W86116  22.071  29.066  12.031
17754W        W86117  17.156   7.189  10.022
17755W        W86118  35.880  12.354  14.429
17756W        W86119  37.565   2.806  11.882
17757W        W86120   7.746  12.773  14.017
17758W        W86121   8.858  19.666   4.758
17759W        W86122  12.345   4.446   9.640
17760W        W86123  15.191   7.838   4.248
17761W        W86124  24.974  17.061   0.272
17762W        W86125  42.524  30.597   3.284
17763W        W86126  40.542  28.025  13.522
17764W        W86127   4.885  30.599   4.150
17765W        W86128   7.367  32.050   0.397
17766W        W86129  39.995  13.683  12.930
17767W        W86130  11.853  39.911  13.799
17768W        W86131  29.037  18.224  10.546
17769W        W86132  29.473  31.977  12.982
17770W        W86133  37.396  10.856   0.361
17771W        W86134   3.746  22.693   3.772
17772W        W86135   3.897   7.781   3.652
17773W        W86136  22.046  40.963   1.283
17774W        W86137  30.537  33.556   2.896
17775W        W86138   4.374  26.059  10.498
17776W        W86139  15.687  15.242   5.729
17777W        W86140  27.588  41.834  12.888
17778W        W86141  42.781  13.760  14.782
17779W        W86142  12.163  41.816  14.829
17780W        W86143  13.342   9.647   1.894
17781W        W86144  31.531  37.426  13.487
17782W        W86145  19.240  20.599  13.805
17783W        W86146  12.697   2.780   2.253
17784W        W86147  39.871   4.417  13.958
17785W        W86148  20.593   9.298  11.541
17786W        W86149   5.753   4.823  13.829
17787W        W86150  34.057  15.594   2.763
17788W        W86151  44.820  20.155   1.913
17789W        W86152  34.111  30.594   3.169
17790W        W86153  33.549   0.320   4.624
17791W        W86154  27.135   9.737  10.428
17792W        W86155  12.624  21.217  12.980
17793W        W86156  40.398  25.601   0.852
17794W        W86157  20.254   2.322   3.203
17795W        W86158   4.760  12.302   3.370
17796W        W86159  30.478  42.445   1.748
17797W        W86160  12.296  30.437  12.950
17798W        W86161   7.813  18.167  11.569
17799W        W86162   5.252  37.428  11.072
17800W        W86163  18.656  23.128  11.437
17801W        W86164  36.900  37.523   2.373
17802W        W86165  13.614  43.012   3.696
17803W        W86166  12.324   5.427   1.290
17804W        W86167  43.401  19.154  11.419
17805W        W86168  39.545   4.443  11.471
17806W        W86169  21.060  15.713  10.618
17807W        W86170   4.208  11.146   0.786
17808W        W86171  32.628  35.602   4.229
17809W        W86172  29.924   9.660  13.333
17810W        W86173  26.592  14.612   1.421
17811W        W86174  36.920   4.910  10.050
17812W        W86175  21.514  39.328  12.095
17813W        W86176  36.455  22.048   1.404
17814W        W86177   5.853  34.407  11.080
17815W        W86178  14.629  40.849  11.072
17816W        W86179  27.569  28.089   0.779
17817W        W86180  38.042  43.932  10.460
17818W        W86181  26.155  37.581   0.377
17819W        W86182  12.736  20.105  12.086
17820W        W86183   6.191  32.530  10.916
17821W        W86184  33.919  37.893  13.949
17822W        W86185  25.492  41.032  11.024
17823W        W86186  41.464  29.973  11.425
17824W        W86187  20.610   1.388  14.485
17825W        W86188   2.783  18.201  13.801
17826W        W86189  30.542  42.008   4.611
17827W        W86190  37.877  18.657   1.345
17828W        W86191   9.794   7.819   3.166
17829W        W86192  27.499  37.961  14.283
17830W        W86193   3.841  14.234   2.370
17831W        W86194  40.988  11.282  12.899
17832W        W86195  30.582  33.465   3.331
17833W        W86196   3.911  29.043  14.280
17834W        W86197  12.274  23.185  11.518
17835W        W86198  22.739   4.258   4.796
17836W        W86199  26.101  26.172   4.809
17837W        W86200  35.391  19.242  12.879
17838W        W86201  33.396  11.782   3.225
17839W        W86202   7.726   0.423   0.460
17840W        W86203   1.339  18.060   4.763
17841W        W86204  15.605   7.832  12.409
17842W        W86205  34.420  41.803  13.842
17843W        W86206  11.633   9.192  12.060
17844W        W86207  38.826  28.661   4.615
17845W        W86208  31.421  19.612  11.999
17846W        W86209  13.211  41.531   0.821
17847W        W86210  12.121  34.428  12.979
17848W        W86211  16.174  15.777   2.902
17849W        W86212  13.672   0.329   0.777
17850W        W86213   2.766  23.141   1.373
17851W        W86214   6.762  27.649  10.645
17852W        W86215  40.329   2.344  14.504
17853W        W86216  36.029  38.510   2.379
17854W        W86217  41.479  23.173  13.323
17855W        W86218   8.346  21.556  14.377
17856W        W86219   3.811  16.764   0.350
17857W        W86220   0.367  43.920  11.547
17858W        W86221  44.362  20.638   3.776
17859W        W86222  36.535  40.817   3.257
17860W        W86223  29.570  31.091   1.311
17861W        W86224  38.467  24.599  11.905
17862W        W86225   3.271  22.508   2.268
17863W        W86226  31.546  30.643  14.776
17864W        W86227  39.974  34.400  11.480
17865W        W86228  12.305  44.871  12.448
17866W        W86229  42.921   7.266   4.342
17867W        W86230  11.143  30.512   0.379
17868W        W86231  35.934  34.891   3.245
17869W        W86232   1.818  12.751   1.698
17870W        W86233  43.317  32.973  14.305
17871W        W86234  22.681  19.604  13.476
17872W        W86235  14.798  14.294   0.310
17873W        W86236  33.877  25.006  12.984
17874W        W86237  41.034  10.167  10.480
17875W        W86238  25.082   8.275   3.366
17876W        W86239  14.181  38.410  10.521
17877W        W86240  32.938  30.525   0.274
17878W        W86241  43.294  42.015  11.002
17879W        W86242   5.804  18.596  11.974
17880W        W86243  16.105   6.831   3.149
17881W        W86244  11.799  23.569  11.600
17882W        W86245   2.906  19.594   4.158
17883W        W86246  16.128  42.443  12.561
17884W        W86247  33.103  24.066  13.839
17885W        W86248  20.224   8.880   1.352
17886W        W86249  28.071  42.411  11.863
17887W        W86250   2.794  19.283  14.762
17888W        W86251  12.231  43.382  12.493
17889W        W86252  10.854   5.374   2.325
17890W        W86253  38.420  20.622   1.774
17891W        W86254  38.465  23.038  12.912
17892W        W86255  11.657  20.698   4.765
17893W        W86256   9.763   9.857  12.931
17894W        W86257  39.949  29.507   3.293
17895W        W86258  26.540  26.030   0.930
17896W        W86259   0.954  35.474   3.681
17897W        W86260   1.441  23.989  13.934
17898W        W86261  42.911  40.306   5.109
17899W        W86262  42.876  33.096  10.026
17900W        W86263   4.809  24.187   0.788
17901W        W86264  28.001  43.360  12.353
17902W        W86265   4.350  20.660  13.046
17903W        W86266   8.256  27.574  14.442
17904W        W86267  29.947  29.484   0.936
17905W        W86268  34.075  31.146  10.972
17906W        W86269  34.870   7.731   1.910
17907W        W86270  32.631   4.828   4.737
17908W        W86271  38.358  30.571  12.558
17909W        W86272   3.420   8.793   0.943
17910W        W86273   2.230  14.811  13.031
17911W        W86274  43.425  40.034   1.432
17912W        W86275  37.854   2.432  13.399
17913W        W86276  22.734  30.949  13.483
17914W        W86277  21.587  39.046  13.891
17915W        W86278  24.165  15.272  12.001
17916W        W86279  14.124  37.558  11.454
17917W        W86280  40.450  20.725   0.817
17918W        W86281  20.201  39.887   2.794
17919W        W86282  38.360   2.961  12.434
17920W        W86283  23.729  40.522  12.966
17921W        W86284  22.195  32.597  11.586
17922W        W86285  22.689  28.593  13.883
17923W        W86286  27.979  34.982   4.691
17924W        W86287   5.321  17.627   3.196
17925W        W86288   0.904   7.340   5.285
17926W        W86289   1.331   1.321   3.807
17927W        W86290   2.794  28.964  11.074
17928W        W86291  18.109  11.132  13.512
17929W        W86292   0.767  14.122   0.407
17930W        W86293  31.439  35.962  12.910
17931W        W86294  10.243  32.137   4.266
17932W        W86295  21.215  31.993   4.218
17933W        W86296  41.846   5.901   0.741
17934W        W86297  42.927  24.643  10.495
17935W        W86298   3.945  34.369  14.938
17936W        W86299  38.476   0.308   1.768
17937W        W86300  17.167   6.909   2.322
17938W        W86301  11.852  40.539  12.946
17939W        W86302   7.176  43.885  11.415
17940W        W86303   1.481   3.765  14.956
17941W        W86304   1.259  28.586  14.970
17942W        W86305  10.731   7.261   5.279
17943W        W86306   7.720  42.401   4.251
17944W        W86307  23.561   2.788  13.822
17945W        W86308   4.268  42.930  11.437
17946W        W86309  29.446  12.161  10.622
17947W        W86310  21.262   6.268   2.397
17948W        W86311   2.748   3.818   3.207
17949W        W86312  18.712  23.491  14.963
17950W        W86313  26.028  13.621  14.819
17951W        W86314  11.712  32.966   3.186
17952W        W86315  14.794  16.249  13.818
17953W        W86316  22.065  13.823  11.940
17954W        W86317  26.165  12.737   3.332
17955W        W86318  10.243   0.292  14.892
17956W        W86319  17.588  34.406   4.727
17957W        W86320  25.199  11.760  10.999
17958W        W86321  35.577  20.079   2.861
17959W        W86322  37.905  40.460   4.175
17960W        W86323  13.285   5.830   4.639
17961W        W86324  42.311   4.434  14.322
17962W        W86325  29.984  17.267  12.070
17963W        W86326  15.313  42.918  14.011
17964W        W86327  39.006  22.731   0.809
17965W        W86328   7.298  27.168  12.883
17966W        W86329  21.557  10.648   4.771
17967W        W86330   7.198  31.087  11.586
17968W        W86331  36.441  17.245   2.709
17969W        W86332   6.741  36.494  14.838
17970W        W86333  18.714  33.456  14.908
17971W        W86334  21.028   5.208   1.412
17972W        W86335  27.566   1.320  13.019
17973W        W86336  25.092  36.032  14.279
17974W        W86337  39.840   8.321  12.064
17975W        W86338   0.911  30.160   4.744
17976W        W86339  28.599   7.701  12.424
17977W        W86340  33.063   1.849   0.321
17978W        W86341  25.029  38.493  10.602
17979W        W86342  40.363   3.455  12.862
17980W        W86343  41.803   0.251   3.856
17981W        W86344  37.489   1.862   0.405
17982W        W86345  21.634  19.271   4.745
17983W        W86346  39.461  27.518   3.285
17984W        W86347  44.379   4.866   0.829
17985W        W86348  21.624  20.719  13.817
17986W        W86349  18.611  20.574   1.911
17987W        W86350  28.481  31.925   1.832
17988W        W86351  22.033   1.799  14.352
17989W        W86352  22.586  20.630  11.453
17990W        W86353  30.085  18.790  13.968
17991W        W86354  10.307   0.364  10.975
17992W        W86355  20.661  24.691  12.526
17993W        W86356   6.184  25.487  13.368
17994W        W86357  33.459  20.607   1.267
17995W        W86358  28.670  39.016  12.858
17996W        W86359  19.198  42.994  11.959
17997W        W86360  24.674  38.886  12.456
17998W        W86361  18.110  20.713   4.733
17999W        W86362  20.064  15.783  12.869
18000W        W86363  25.483  37.064  11.565
18001W        W86364  28.020  15.117  13.793
18002W        W86365  21.673  39.516   2.709
18003W        W86366  37.870  31.004   0.884
18004W        W86367  17.247  23.691  12.546
18005W        W86368  23.084   0.459   2.710
18006W        W86369  42.869  33.510  13.475
18007W        W86370  28.446  23.008  14.420
18008W        W86371   8.389  16.603   3.222
18009W        W86372  40.006  15.234  11.483
18010W        W86373  31.911   4.211   4.702
18011W        W86374   1.362  38.002   0.828
18012W        W86375  22.206  37.934   3.780
18013W        W86376   0.911   5.288   3.354
18014W        W86377  40.912  35.566  13.043
18015W        W86378  37.455  26.534   3.307
18016W        W86379  15.114  22.624   4.612
18017W        W86380   4.877  39.445   2.699
18018W        W86381  38.394   5.258   1.919
18019W        W86382  39.047  30.079  10.501
18020W        W86383  34.592  22.670   3.836
18021W        W86384   7.766   7.332  10.045
18022W        W86385  40.007  42.810   4.228
18023W        W86386  11.861  40.389   2.855
18024W        W86387  11.343  18.566   1.709
18025W        W86388   8.811  26.564  11.119
18026W        W86389  21.567  28.557  13.456
18027W        W86390  42.306  36.424   1.719
18028W        W86391   7.839   7.897  11.544
18029W        W86392  14.313   6.810   5.681
18030W        W86393  32.431  24.182   9.995
18031W        W86394   6.423  37.567   0.828
18032W        W86395   7.321   6.343  14.006
18033W        W86396  35.872   2.340   0.471
18034W        W86397  40.472  29.526  13.354
18035W        W86398  37.982  34.108   4.342
18036W        W86399  31.470  19.541  13.315
18037W        W86400   6.308   5.438   1.759
18038W        W86401  17.188  18.596   1.261
18039W        W86402  42.284  25.194   0.782
18040W        W86403   7.854  14.634   1.877
18041W        W86404   9.259  14.602   0.282
18042W        W86405  38.885  19.120  11.940
18043W        W86406   3.259  22.656  14.887
18044W        W86407   8.751  10.834   4.714
18045W        W86408  22.252  16.220   0.354
18046W        W86409  30.630  42.438  14.394
18047W        W86410  35.419  15.617   4.204
18048W        W86411   5.881   9.813  13.895
18049W        W86412  13.210  18.089  14.872
18050W        W86413  44.429  24.580   0.377
18051W        W86414  33.124  41.881  11.612
18052W        W86415   0.788  15.243  13.398
18053W        W86416   6.824   8.246  11.509
18054W        W86417  20.126  40.467   5.188
18055W        W86418  22.550  26.671   4.744
18056W        W86419  28.510  10.705  13.908
18057W        W86420  27.465  31.981  14.299
18058W        W86421  18.186   1.826   2.854
18059W        W86422   2.311  11.182  14.908
18060W        W86423  21.629   2.890  10.457
18061W        W86424  31.477  44.970   5.182
18062W        W86425  14.241  29.484   3.347
18063W        W86426  24.713  43.414  13.435
18064W        W86427  27.118   2.894  10.593
18065W        W86428  24.085  38.967  13.415
18066W        W86429  17.793  23.234   2.246
18067W        W86430  20.159  14.794  12.029
18068W        W86431   7.906   1.409  14.793
18069W        W86432  12.179  39.373  14.491
18070W        W86433   7.793  16.717   3.292
18071W        W86434  20.669  39.531  12.874
18072W        W86435  43.321  37.073   0.896
18073W        W86436   8.165  27.119  12.533
18074W        W86437   8.739  27.600  13.869
18075W        W86438   0.960  18.089   1.921
18076W        W86439   8.853  13.690  10.910
18077W        W86440  38.827  28.484  11.950
18078W        W86441  38.445  24.604   2.714
18079W        W86442  28.943   8.837  12.941
18080W        W86443  42.512  28.439   2.272
18081W        W86444  21.553  14.702  11.481
18082W        W86445  21.526  20.240   2.857
18083W        W86446  23.226  24.559   3.759
18084W        W86447  43.940  36.578   0.429
18085W        W86448   1.793   5.392   1.805
18086W        W86449  17.796  29.931  14.444
18087W        W86450   4.236  39.881   3.642
18088W        W86451  32.577   4.938  12.093
18089W        W86452  23.056  14.720  14.282
18090W        W86453  37.878  27.092  13.518
18091W        W86454  31.100  18.625  12.960
18092W        W86455  15.687  14.673   3.830
18093W        W86456   8.735  32.525   1.302
18094W        W86457   5.352  27.458  12.868
18095W        W86458  19.623  11.674   3.330
18096W        W86459   1.371   1.838  13.842
18097W        W86460  17.563   6.335  14.335
18098W        W86461   2.365   6.689  11.861
18099W        W86462  26.984  32.004  11.603
18100W        W86463  16.659  19.749  11.403
18101W        W86464   7.831  19.082   2.721
18102W        W86465  35.361  18.209  13.996
18103W        W86466  12.680  13.833   0.269
18104W        W86467  33.039  42.846  11.092
18105W        W86468  17.643   8.762  11.996
18106W        W86469  36.380  25.613  13.913
18107W        W86470   7.359  18.136  10.538
18108W        W86471   1.436   8.897   0.962
18109W        W86472  28.085   3.270  14.469
18110W        W86473  19.284  34.109   1.427
18111W        W86474  23.582  27.578   4.238
18112W        W86475  20.610  15.285   4.675
18113W        W86476  27.458  13.836   9.955
18114W        W86477  15.798  34.031  13.919
18115W        W86478  21.118  25.097  11.408
18116W        W86479  12.159   0.396   3.807
18117W        W86480  30.645  26.517  13.351
18118W        W86481  15.284   7.886  11.092
18119W        W86482  28.173  37.946   3.817
18120W        W86483  35.508  37.908  12.580
18121W        W86484  30.095  23.493   1.265
18122W        W86485   8.854  15.746   3.726
18123W        W86486  33.624  11.682   5.312
18124W        W86487   7.393   8.879  10.999
18125W        W86488  39.513  30.582   4.753
18126W        W86489  31.565   5.340  10.644
18127W        W86490  10.784  15.684  14.319
18128W        W86491  10.262  40.414   1.303
18129W        W86492  42.377  42.429   0.872
18130W        W86493  29.606   1.424   0.733
18131W        W86494  29.967  20.710  10.567
18132W        W86495   7.405   1.977  13.791
18133W        W86496   4.900  11.347   5.094
18134W        W86497  32.109  42.283   2.843
18135W        W86498  16.638   3.270  10.590
18136W        W86499  38.567  38.961  10.565
18137W        W86500  33.420  18.247   5.289
18138W        W86501  25.563  36.537   3.736
18139W        W86502  34.995  21.559  14.507
18140W        W86503   3.826  25.526   0.867
18141W        W86504  32.057  22.022   1.389
18142W        W86505  21.718   8.225  14.980
18143W        W86506  16.286   2.297   3.277
18144W        W86507   2.930   3.250   3.278
18145W        W86508  35.965  11.706  11.035
18146W        W86509  36.860   5.389   3.642
18147W        W86510   5.688   2.328  11.467
18148W        W86511  28.949  18.727  13.544
18149W        W86512  41.456   4.254   1.435
18150W        W86513  43.840  23.994   4.262
18151W        W86514  18.779  20.133  11.936
18152W        W86515   2.248   1.887  12.435
18153W        W86516  22.145   7.295  11.583
18154W        W86517  37.066   7.217  12.014
18155W        W86518  34.022   8.898   3.344
18156W        W86519  10.175  29.984  11.481
18157W        W86520   9.862   0.473   4.597
18158W        W86521  13.758  42.327   4.809
18159W        W86522  18.070  28.662  14.913
18160W        W86523  44.985  39.447   3.664
18161W        W86524  43.490  25.529  11.505
18162W        W86525   2.261   1.442  14.992
18163W        W86526  28.591  10.179  14.413
18164W        W86527  10.264  14.667  11.873
18165W        W86528  26.603  13.111   0.788
18166W        W86529  28.963   8.877   4.311
18167W        W86530  32.579  18.219   2.358
18168W        W86531   0.462   1.836   4.262
18169W        W86532  44.263  36.922   0.884
18170W        W86533  37.038  21.573  14.309
18171W        W86534  29.468  23.092   0.338
18172W        W86535  41.038  23.188  11.126
18173W        W86536  13.277  35.020  14.479
18174W        W86537   7.232  21.700  10.954
18175W        W86538  27.970  13.650   0.251
18176W        W86539  42.019  10.289  14.930
18177W        W86540  38.977  41.417   4.308
18178W        W86541  19.725  12.821  11.920
18179W        W86542  31.951   7.311  10.969
18180W        W86543  10.777  42.376   2.880
18181W        W86544   3.841  29.014  11.428
18182W        W86545  34.119  30.091   0.351
18183W        W86546  39.924   5.229  13.961
18184W        W86547  28.528  30.429  10.416
18185W        W86548   8.333  36.961  14.499
18186W        W86549  37.909  16.640   2.736
18187W        W86550  17.798  16.785  13.334
18188W        W86551  20.594  40.008  14.951
18189W        W86552  44.495  23.030  11.608
18190W        W86553   4.791  39.498   4.636
18191W        W86554  17.701  36.078   1.722
18192W        W86555   9.742  13.768   0.440
18193W        W86556   7.387   3.885   2.341
18194W        W86557   0.758  32.592   2.839
18195W        W86558  18.585  13.212   1.299
18196W        W86559  36.356   3.829   4.765
18197W        W86560  11.764  11.747   2.845
18198W        W86561  35.400  16.198   0.331
18199W        W86562   5.298  37.832   3.667
18200W        W86563  32.977  18.761   0.396
18201W        W86564  36.917   1.458   1.814
18202W        W86565  21.568  34.867  12.354
18203W        W86566  18.089   1.845   4.327
18204W        W86567  13.711  21.630   3.208
18205W        W86568  14.263   0.834   2.303
18206W        W86569  17.712  36.944  12.944
18207W        W86570  32.454   8.178   3.153
18208W        W86571   1.967  37.399  13.852
18209W        W86572  44.980  43.277   0.306
18210W        W86573  35.866   6.678   2.310
18211W        W86574  42.963   2.263   1.798
18212W        W86575  34.514  22.599  12.573
18213W        W86576   4.730  32.938   3.649
18214W        W86577  33.888  43.945   1.340
18215W        W86578  11.760   9.700  10.500
18216W        W86579  31.632   2.311   4.657
18217W        W86580  32.429   6.425   0.821
18218W        W86581   9.648  23.102   1.401
18219W        W86582  11.259  10.859   0.902
18220W        W86583  13.130   2.767  12.373
18221W        W86584   9.206  39.878  11.003
18222W        W86585  44.812  14.651   0.401
18223W        W86586  28.670  29.163   2.218
18224W        W86587  44.853  26.061   2.405
18225W        W86588  33.579   9.174   1.748
18226W        W86589   0.372  22.598  12.965
18227W        W86590   1.451  34.020  10.524
18228W        W86591   7.225  38.330  11.081
18229W        W86592  24.979  36.367  14.993
18230W        W86593  40.335   3.249  13.428
18231W        W86594  31.939  11.281  10.535
18232W        W86595  19.594   0.858  13.058
18233W        W86596  29.547   7.176   1.733
18234W        W86597  37.577  18.117   3.187
18235W        W86598  34.377  19.217   3.251
18236W        W86599  36.919  16.634   0.313
18237W        W86600  11.863  38.418   3.675
18238W        W86601   8.839   8.195   1.714
18239W        W86602  28.174   6.692  11.372
18240W        W86603  40.313  42.889   0.419
18241W        W86604   0.424  13.701  12.520
18242W        W86605   8.346  36.352   4.834
18243W        W86606  42.295  35.445   3.355
18244W        W86607   0.886  35.015   3.681
18245W        W86608  14.672  31.904  10.936
18246W        W86609   6.881  25.475   1.256
18247W        W86610  37.580  15.668  11.602
18248W        W86611  36.593  37.042  12.833
18249W        W86612  21.531  24.137  14.443
18250W        W86613   3.224  21.246  10.408
18251W        W86614  25.110  10.639   0.243
18252W        W86615  38.393  17.703  12.996
18253W        W86616   0.886  37.445  11.510
18254W        W86617   8.715  11.845   4.258
18255W        W86618   4.831  20.684  14.496
18256W        W86619  30.597   0.275   0.365
18257W        W86620  33.577   5.892   0.830
18258W        W86621   1.274  16.720   3.243
18259W        W86622  40.527  35.458  12.872
18260W        W86623  35.451  41.488   4.673
18261W        W86624  39.896  44.454   3.695
18262W        W86625   9.743  17.248   1.747
18263W        W86626   9.675  18.673   0.322
18264W        W86627  41.943  24.544   3.724
18265W        W86628  33.504  35.019   0.965
18266W        W86629  38.932  35.081  13.060
18267W        W86630  20.252  27.611   0.806
18268W        W86631  39.050  37.994  12.924
18269W        W86632  30.495  32.093  11.892
18270W        W86633  36.014   7.317   2.223
18271W        W86634  25.538  13.771   3.790
18272W        W86635  32.456  12.849  13.059
18273W        W86636  29.038  20.072  12.377
18274W        W86637   8.727  19.058   2.186
18275W        W86638  18.645  26.005  14.324
18276W        W86639  25.104  18.054  14.785
18277W        W86640  26.123  41.311  11.388
18278W        W86641   9.220  40.328  10.406
18279W        W86642  31.948  21.059  14.013
18280W        W86643  38.550  16.272  10.969
18281W        W86644  26.513  40.921  11.472
18282W        W86645  41.017   3.349   3.712
18283W        W86646  38.480   7.747   1.247
18284W        W86647  21.743  32.592   1.866
18285W        W86648  10.308   4.910   4.229
18286W        W86649  26.044  43.281  13.036
18287W        W86650  31.529  16.216  14.760
18288W        W86651  36.854  42.406  11.875
18289W        W86652  36.562   3.865   3.840
18290W        W86653  34.548  36.996   3.634
18291W        W86654  33.965   0.913  13.354
18292W        W86655  38.926  19.039  13.794
18293W        W86656  33.017  11.652   0.917
18294W        W86657  19.168  44.858   3.181
18295W        W86658  20.578  27.042   1.411
18296W        W86659  12.715  17.599  11.551
18297W        W86660  10.718  10.383  10.552
18298W        W86661  40.506   1.880   3.304
18299W        W86662  29.173  30.488  13.312
18300W        W86663  33.100  25.205  14.491
18301W        W86664  41.907  22.508   0.913
18302W        W86665  43.874  34.396  14.366
18303W        W86666  21.057  25.472  12.529
18304W        W86667   5.761  37.471   2.792
18305W        W86668  44.395  24.151   4.696
18306W        W86669  24.556  19.132   1.346
18307W        W86670  13.776  26.540   4.752
18308W        W86671   7.676  44.289   4.784
18309W        W86672  34.897  25.137   3.673
18310W        W86673  28.156  36.082   4.757
18311W        W86674  36.931   2.930   2.895
18312W        W86675  33.461  17.578  14.415
18313W        W86676  27.651  24.110  13.808
18314W        W86677  23.206   2.733   1.314
18315W        W86678   1.809  26.527   0.841
18316W        W86679   8.723   2.415  12.383
18317W        W86680  38.376  33.888  11.108
18318W        W86681  35.988  44.500   2.210
18319W        W86682  27.664  40.413   3.758
18320W        W86683  30.080   1.953   4.147
18321W        W86684   6.314  12.255  12.574
18322W        W86685   2.722  42.484  14.472
18323W        W86686  15.090  12.710   3.796
18324W        W86687  17.111  43.017  10.599
18325W        W86688  11.249  40.547   2.815
18326W        W86689  28.979   0.468  14.325
18327W        W86690   6.352  37.338  12.465
18328W        W86691  25.503  23.707  11.857
18329W        W86692  24.071  37.571  10.127
18330W        W86693  31.028  27.573  13.931
18331W        W86694   1.312  24.478   4.648
18332W        W86695  37.366  26.155  12.050
18333W        W86696  40.528  12.650  11.579
18334W        W86697   6.400  10.322   1.266
18335W        W86698  33.466  27.591   1.832
18336W        W86699  18.226  43.821  14.902
18337W        W86700   3.423  26.978  11.857
18338W        W86701  26.187   1.939   1.702
18339W        W86702   6.804   9.882   1.867
18340W        W86703  19.545  17.745   3.170
18341W        W86704   3.915  30.076  14.986
18342W        W86705   7.825  30.961  14.861
18343W        W86706  32.399  29.168   5.215
18344W        W86707  19.216   1.290   4.325
18345W        W86708   5.741  20.110  11.569
18346W        W86709  21.153  44.864   0.796
18347W        W86710  20.187  35.074   1.890
18348W        W86711  18.768  11.202   3.799
18349W        W86712  17.556   2.748   0.759
18350W        W86713   5.240   0.437   3.375
18351W        W86714  27.167   4.354  11.501
18352W        W86715  25.075  32.489   0.727
18353W        W86716   5.896   2.839   4.137
18354W        W86717  11.706  21.541  12.568
18355W        W86718  44.844  38.524   4.183
18356W        W86719  20.752  33.028   4.209
18357W        W86720  25.668  43.496   0.953
18358W        W86721  21.259  10.319  12.390
18359W        W86722  42.517  26.571   1.423
18360W        W86723  13.794  29.076  13.849
18361W        W86724  37.074  37.064  10.553
18362W        W86725  15.208  23.124  14.324
18363W        W86726  30.545  20.565   2.832
18364W        W86727  44.863  26.040   3.233
18365W        W86728  29.518  34.542   0.353
18366W        W86729  37.474   0.487   3.214
18367W        W86730  22.144  34.373  14.329
18368W        W86731  16.174  25.661   4.643
18369W        W86732  37.022  42.798   3.689
18370W        W86733  41.984  34.904  14.429
18371W        W86734  37.401  10.148   4.703
18372W        W86735  40.331  30.118  11.920
18373W        W86736  25.512   5.849   2.871
18374W        W86737  34.511  34.570   4.762
18375W        W86738  24.486   0.858  13.425
18376W        W86739  26.041  37.064   1.869
18377W        W86740  16.146  33.622   4.132
18378W        W86741  23.529  15.641  13.532
18379W        W86742  22.502   6.838   1.352
18380W        W86743   4.795  11.670   2.259
18381W        W86744  32.399   0.898   4.805
18382W        W86745  42.820  39.869   2.304
18383W        W86746  18.112  29.977   1.408
18384W        W86747  40.465  17.588  11.072
18385W        W86748  35.887  24.526  13.401
18386W        W86749  22.050   4.413  11.557
18387W        W86750  29.433  23.641   3.685
18388W        W86751   2.886  30.611  12.344
18389W        W86752  32.982   4.307  13.905
18390W        W86753   5.217  18.136  10.581
18391W        W86754   7.762   3.256  14.278
18392W        W86755  31.582  43.401  12.919
18393W        W86756  20.219  32.085   3.304
18394W        W86757  15.581  39.451  14.788
18395W        W86758  40.333  25.536  11.385
18396W        W86759  21.258  39.463   1.874
18397W        W86760  28.604  32.531   3.655
18398W        W86761  29.588   2.348   3.156
18399W        W86762  24.510  44.793   0.275
18400W        W86763  37.412  24.585   3.258
18401W        W86764  14.106   6.812  14.995
18402W        W86765  25.067  10.351   2.786
18403W        W86766  26.199  44.341   2.702
18404W        W86767  28.609  32.594  10.571
18405W        W86768  11.279  15.109   3.282
18406W        W86769  20.708  39.553  13.917
18407W        W86770  20.045  35.436   0.845
18408W        W86771  18.583  38.522  10.406
18409W        W86772  42.830  14.709  12.037
18410W        W86773  43.823  43.002   3.220
18411W        W86774  34.040  14.233  13.546
18412W        W86775   4.753  39.936   4.209
18413W        W86776  14.152   0.459   2.819
18414W        W86777  15.652  10.749   2.769
18415W        W86778  22.106   0.988  12.070
18416W        W86779   3.846  17.215   1.754
18417W        W86780  21.071  30.636  12.053
18418W        W86781  26.634  16.589  10.637
18419W        W86782  23.117  33.387  14.794
18420W        W86783   4.742  20.573   3.188
18421W        W86784  25.560   5.783  12.541
18422W        W86785   6.246   8.230  13.475
18423W        W86786  40.342   6.739   4.632
18424W        W86787   1.382  41.797  14.409
18425W        W86788  29.950  10.353  13.471
18426W        W86789   8.214  19.624   4.271
18427W        W86790   7.381  24.129  12.340
18428W        W86791  34.516   1.756   1.247
18429W        W86792  28.555  39.478   0.243
18430W        W86793  42.293  35.493   0.428
18431W        W86794  17.779  18.136   2.837
18432W        W86795  13.105  13.637   4.140
18433W        W86796   2.419  15.774  12.426
18434W        W86797  18.258  43.443   1.325
18435W        W86798  13.649  24.534  11.557
18436W        W86799  40.845  20.165  13.375
18437W        W86800  41.368  20.598   3.334
18438W        W86801  11.298  19.573  12.399
18439W        W86802  13.256  33.391  10.894
18440W        W86803  32.967  29.921   0.773
18441W        W86804   0.746  27.057   2.218
18442W        W86805  25.194  29.543  14.827
18443W        W86806  32.058  11.181   1.243
18444W        W86807  10.267   7.209   1.273
18445W        W86808  33.507  33.888  12.020
18446W        W86809   1.744   5.892  14.315
18447W        W86810   6.336  11.139   3.645
18448W        W86811  44.913  44.951   3.758
18449W        W86812   4.396  42.328  13.976
18450W        W86813  28.628  18.555  13.479
18451W        W86814  43.408  42.978  11.110
18452W        W86815  17.673  29.118  13.324
18453W        W86816   6.405   6.425   2.731
18454W        W86817  41.298  43.330  13.858
18455W        W86818   3.919   0.258  13.386
18456W        W86819   7.889  36.917   2.807
18457W        W86820   8.181  11.673  14.400
18458W        W86821   5.933  17.198  11.464
18459W        W86822  37.468  27.107   3.714
18460W        W86823  27.054   1.449  10.642
18461W        W86824  20.701   4.942   0.875
18462W        W86825  22.099  18.107  13.060
18463W        W86826   2.744  12.303  14.494
18464W        W86827  24.664  22.174   3.706
18465W        W86828  30.573  33.029  11.016
18466W        W86829  30.465   2.292  14.275
18467W        W86830  42.459  14.646  12.485
18468W        W86831  38.075  17.256   0.913
18469W        W86832  31.408  35.543  13.385
18470W        W86833  20.610  25.122   1.211
18471W        W86834  23.669  25.467  10.497
18472W        W86835  44.482  10.371  10.029
18473W        W86836  38.821  27.187   3.290
18474W        W86837  30.117  26.028  14.514
18475W        W86838  30.560  27.447   3.168
18476W        W86839   1.471  18.107  14.460
18477W        W86840   4.722  27.969  13.054
18478W        W86841  41.975  38.482   2.386
18479W        W86842  14.621  20.761  14.393
18480W        W86843  22.183  39.507  13.869
18481W        W86844  40.813  36.023   1.890
18482W        W86845  44.915  30.117   1.260
18483W        W86846  44.411  38.480   0.335
18484W        W86847   2.326  36.414   4.669
18485W        W86848  43.398  33.387   4.715
18486W        W86849  26.199  29.921   0.788
18487W        W86850  44.938   7.742  10.926
18488W        W86851  14.591   5.837   2.254
18489W        W86852  27.149  44.390   3.153
18490W        W86853   1.279   2.256  14.843
18491W        W86854  29.024  25.487   2.723
18492W        W86855  40.436  34.492   4.246
18493W        W86856  34.395  23.059   2.267
18494W        W86857  43.873  24.715  11.991
18495W        W86858  30.646  16.082  12.932
18496W        W86859  40.390   2.314   4.832
18497W        W86860  28.041  16.235  10.476
18498W        W86861  15.275  30.644   0.814
18499W        W86862  27.998  38.863   2.248
18500W        W86863   5.793  23.987  12.509
18501W        W86864   2.323  19.246  11.378
18502W        W86865  26.499   1.927  12.878
18503W        W86866  23.122  31.122  14.799
18504W        W86867  12.297  13.710   0.758
18505W        W86868   1.394  15.201   3.208
18506W        W86869  41.882  12.765   4.231
18507W        W86870  28.092   4.781   4.705
18508W        W86871   8.851  35.590  10.925
18509W        W86872   6.407  24.162  11.531
18510W        W86873   4.258  29.926  14.848
18511W        W86874   2.374  20.632   3.330
18512W        W86875  25.529  23.007  14.785
18513W        W86876  43.958   7.903   3.259
18514W        W86877  27.647   4.852   0.745
18515W        W86878  31.147  17.784   3.334
18516W        W86879  22.600  24.491  13.020
18517W        W86880  27.654  17.175  10.475
18518W        W86881   4.448  41.834  14.019
18519W        W86882   8.262  18.647   1.351
18520W        W86883  29.475  15.090   2.185
18521W        W86884  17.086   0.424  11.400
18522W        W86885  42.406  42.379   3.648
18523W        W86886  34.379  14.100   1.275
18524W        W86887  14.783  44.263  11.002
18525W        W86888  12.623  35.910  11.549
18526W        W86889  31.511  33.093   4.684
18527W        W86890  28.502  25.061  13.924
18528W        W86891  35.580  40.913  14.363
18529W        W86892   3.373  42.399   3.280
18530W        W86893  12.777  41.435  13.531
18531W        W86894  18.718  33.973   4.706
18532W        W86895  23.016  44.009  13.365
18533W        W86896  30.123  29.028  14.456
18534W        W86897   8.191   9.346  13.837
18535W        W86898  36.403  36.087   4.754
18536W        W86899  36.529   6.759   1.253
18537W        W86900   6.358  27.466  11.430
18538W        W86901  34.505  35.930  10.617
18539W        W86902  13.300  16.791   2.181
18540W        W86903  34.412  41.857   0.396
18541W        W86904  40.310  37.900   3.796
18542W        W86905  19.162  19.194  14.379
18543W        W86906  11.267   7.244   2.893
18544W        W86907  25.077  20.662  11.470
18545W        W86908  20.190  10.248  14.900
18546W        W86909   3.225  24.635   3.836
18547W        W86910  23.516   3.291   4.713
18548W        W86911  34.006  25.666   2.747
18549W        W86912  16.074   1.387   1.731
18550W        W86913  20.265  40.341  12.040
18551W        W86914   0.769  15.741  12.890
18552W        W86915  30.523   9.394   0.850
18553W        W86916  13.304  44.426  13.876
18554W        W86917  28.024   1.345   1.868
18555W        W86918  36.884  14.603  12.543
18556W        W86919   4.321  30.084   2.699
18557W        W86920   8.305  26.647  10.136
18558W        W86921  24.508  25.190   3.293
18559W        W86922  24.130  42.983  10.971
18560W        W86923  28.569  42.456   3.186
18561W        W86924  34.108  29.001   1.255
18562W        W86925   6.224  23.672   2.751
18563W        W86926  25.712   9.667   1.840
18564W        W86927   1.365   7.796  11.971
18565W        W86928  43.876  23.598   0.440
18566W        W86929  22.194   9.799  10.495
18567W        W86930   9.742   1.459   4.355
18568W        W86931  34.406  30.145   4.701
18569W        W86932  24.532  37.460   1.234
18570W        W86933  17.294   0.932   5.179
18571W        W86934  15.639  28.182  12.021
18572W        W86935  15.306  10.652   1.805
18573W        W86936  21.237  15.626   1.330
18574W        W86937  16.098   3.280  10.408
18575W        W86938  14.620  37.549  13.341
18576W        W86939  12.163  23.659  12.903
18577W        W86940  28.174  31.132   0.905
18578W        W86941  31.601   7.781   1.423
18579W        W86942  38.396   8.329   2.390
18580W        W86943  14.741  13.229   4.297
18581W        W86944  43.793  23.728  10.982
18582W        W86945   7.783  13.742  13.834
18583W        W86946  15.235  38.500   3.637
18584W        W86947  21.541  19.573   2.672
18585W        W86948  36.949   4.398  14.310
18586W        W86949   2.724  17.159   1.335
18587W        W86950  21.226  43.382   3.679
18588W        W86951   3.830  25.149   0.900
18589W        W86952   6.300   5.265  10.004
18590W        W86953  15.610  14.763   0.394
18591W        W86954  13.630  30.560   1.317
18592W        W86955   5.311  33.087  10.465
18593W        W86956  34.905  30.413  13.489
18594W        W86957  40.971  36.554  13.442
18595W        W86958  19.595  31.098   3.302
18596W        W86959  28.552  28.977  12.413
18597W        W86960  32.087   5.201  12.068
18598W        W86961  18.222  44.940  12.447
18599W        W86962  13.343  11.305   3.811
18600W        W86963   2.928  36.879   3.297
18601W        W86964  44.859  37.950   5.198
18602W        W86965   1.879  21.203   3.192
18603W        W86966  38.034   7.758   3.333
18604W        W86967  32.637  12.322  14.869
18605W        W86968   1.844  16.086   4.191
18606W        W86969   1.786  42.368   4.208
18607W        W86970  16.760  18.782  13.545
18608W        W86971  13.115   0.400   0.758
18609W        W86972   2.905   4.732   4.766
18610W        W86973  21.622  33.550  11.921
18611W        W86974  38.414  16.238   4.157
18612W        W86975  31.018  37.050  12.024
18613W        W86976  40.429  42.820  11.486
18614W        W86977   5.879  15.209  13.950
18615W        W86978  36.391  26.658   2.254
18616W        W86979  34.440  12.795   1.396
18617W        W86980  17.675  16.633   2.901
18618W        W86981  29.655  28.172  14.499
18619W        W86982   8.233   4.888   2.203
18620W        W86983  38.015  19.682   4.772
18621W        W86984  23.715  11.645   4.773
18622W        W86985   9.222  10.709   2.720
18623W        W86986   1.442  42.374   1.707
18624W        W86987  18.217  19.750   4.747
18625W        W86988  11.251  21.230   2.746
18626W        W86989   9.232  14.247  12.909
18627W        W86990  12.804  22.530   1.727
18628W        W86991  39.485  21.723  14.951
18629W        W86992  27.946  15.091   2.827
18630W        W86993  27.608  20.242   4.255
18631W        W86994   2.309  24.155   0.456
18632W        W86995  13.185  39.910  14.864
18633W        W86996  25.045  18.242   2.393
18634W        W86997  21.536   9.698   0.296
18635W        W86998  16.672  27.065  11.975
18636W        W86999   8.343  18.104  12.996
18637W        W87000  33.091  11.156  12.387
18638W        W87001   1.367  29.436  10.632
18639W        W87002   2.295  41.387  10.954
18640W        W87003  26.067  23.631  14.852
18641W        W87004  40.036  21.139   4.220
18642W        W87005  44.833  34.012   1.925
18643W        W87006   9.785  38.923  14.454
18644W        W87007   6.372  32.990  12.840
18645W        W87008  31.010  22.527  14.496
18646W        W87009  14.322  23.200  11.970
18647W        W87010  19.707  24.581  14.888
18648W        W87011  21.670  24.998  10.424
18649W        W87012  24.525  16.138   3.776
18650W        W87013  13.844  17.301  12.893
18651W        W87014  16.147  14.714   3.162
18652W        W87015  16.212  22.178  14.991
18653W        W87016  23.511  39.475   2.244
18654W        W87017   2.779  15.263  10.512
18655W        W87018  27.136   4.810  14.882
18656W        W87019  11.756   8.363  13.905
18657W        W87020   4.711  15.823  14.421
18658W        W87021  20.656  19.118   4.210
18659W        W87022  40.017  23.237   4.644
18660W        W87023  25.555   0.385   2.252
18661W        W87024  32.402  22.212  13.490
18662W        W87025  16.615  25.183  12.454
18663W        W87026  30.978  12.729  10.939
18664W        W87027  42.333  34.108  14.814
18665W        W87028  11.822  20.261  10.407
18666W        W87029   1.427  43.983  11.962
18667W        W87030  39.969  44.850   1.807
18668W        W87031   3.364   1.895  14.921
18669W        W87032  22.045  36.936   2.238
18670W        W87033  27.098   4.416  13.964
18671W        W87034   4.206  10.197   4.251
18672W        W87035   1.300  44.440  10.425
18673W        W87036  17.583   8.384  10.915
18674W        W87037  26.456  33.501  11.497
18675W        W87038  42.869  25.033  13.433
18676W        W87039  42.519  19.202   0.778
18677W        W87040   3.328  43.391  11.544
18678W        W87041  19.082  14.199  14.497
18679W        W87042  44.443  12.740   1.697
18680W        W87043  17.783  13.313  11.513
18681W        W87044  42.438  31.108   3.824
18682W        W87045  36.507   1.464   2.364
18683W        W87046  44.440  41.974  12.532
18684W        W87047   6.223  43.410   1.839
18685W        W87048   3.772  28.969  10.907
18686W        W87049  35.056  38.498  12.511
18687W        W87050   1.871  29.949  14.765
18688W        W87051  25.181  25.973   1.245
18689W        W87052  11.360  42.419   3.317
18690W        W87053  20.645  31.969   1.270
18691W        W87054   5.710   0.348   2.192
18692W        W87055   3.864  10.788   0.922
18693W        W87056  34.920   9.824  10.527
18694W        W87057  36.554   8.852   1.808
18695W        W87058  39.835  14.589  12.373
18696W        W87059  24.707  24.191  11.878
18697W        W87060   1.868   5.267  12.066
18698W        W87061  14.137  16.642  12.923
18699W        W87062   0.493   0.931  11.605
18700W        W87063  38.877  37.996   4.174
18701W        W87064  42.921  37.362   3.757
18702W        W87065  19.756  19.236  13.983
18703W        W87066  38.477   4.329   2.677
18704W        W87067  19.156  22.117   1.300
18705W        W87068  27.500  24.530  13.968
18706W        W87069  33.904   4.922   1.437
18707W        W87070  28.529  11.863   0.843
18708W        W87071  22.708  21.690  12.061
18709W        W87072  29.427   3.816   4.618
18710W        W87073  44.932   6.741  11.016
18711W        W87074  12.351  19.133   3.808
18712W        W87075  30.137  39.393  14.826
18713W        W87076  10.281  43.020  10.447
18714W        W87077  41.369  25.695  12.075
18715W        W87078  38.424  35.424  14.796
18716W        W87079  42.959  18.771  11.424
18717W        W87080  20.557  43.956  13.839
18718W        W87081   3.813  32.969   3.681
18719W        W87082  32.527  33.518  12.938
18720W        W87083  16.680  27.059  13.058
18721W        W87084  32.006  32.013   2.252
18722W        W87085  16.258  22.008   2.397
18723W        W87086  44.823  39.323   0.833
18724W        W87087  41.348   5.260   0.952
18725W        W87088   4.393  14.134  14.300
18726W        W87089  28.176  13.347  11.025
18727W        W87090  20.206  14.706  14.452
18728W        W87091  44.961   2.274  10.496
18729W        W87092  23.651   6.908   4.796
18730W        W87093  12.795  22.173  11.529
18731W        W87094  19.183   3.759  12.981
18732W        W87095  40.850   4.895  10.922
18733W        W87096  40.344  39.040   3.861
18734W        W87097  16.683  34.961  14.797
18735W        W87098  39.906  19.162  12.420
18736W        W87099  39.884  10.659  10.506
18737W        W87100  15.594  31.409   3.851
18738W        W87101  36.898  29.562  11.579
18739W        W87102  42.456  20.155  10.976
18740W        W87103   1.963  14.687  13.485
18741W        W87104   0.419  39.427  14.329
18742W        W87105   9.268  14.301  12.368
18743W        W87106  35.589  23.644   1.450
18744W        W87107   8.360  37.450   4.255
18745W        W87108  18.610  31.072   0.850
18746W        W87109  15.799  26.127   2.814
18747W        W87110  24.583  32.016   2.265
18748W        W87111  30.097  24.180   4.312
18749W        W87112  15.115  32.031  10.615
18750W        W87113  15.095  24.977  13.363
18751W        W87114  14.218  42.012   4.259
18752W        W87115   3.394  10.680   1.400
18753W        W87116   5.903  22.687   3.748
18754W        W87117  12.329   5.234  13.386
18755W        W87118  13.646  41.471  14.473
18756W        W87119  35.073  44.960  11.462
18757W        W87120  36.509  12.837   1.341
18758W        W87121  39.831  35.014   2.217
18759W        W87122  25.041  23.989  11.113
18760W        W87123  11.277  12.220   3.795
18761W        W87124  27.583  10.351  13.966
18762W        W87125  38.029  15.173   3.830
18763W        W87126  23.654  31.413  13.947
18764W        W87127   0.817   5.804   2.888
18765W        W87128   7.236  24.602   4.353
18766W        W87129   7.322   6.394   1.768
18767W        W87130  30.936  30.998   4.208
18768W        W87131  24.484  36.586   2.178
18769W        W87132  14.261  18.571  14.905
18770W        W87133  38.004   5.902  10.497
18771W        W87134  18.578  26.552  14.295
18772W        W87135   6.825  44.505   1.817
18773W        W87136  29.000  27.690   1.803
18774W        W87137   1.860  32.044  11.876
18775W        W87138  35.902  21.262  14.866
18776W        W87139   8.848  37.527   4.336
18777W        W87140  32.996  22.512  13.931
18778W        W87141   1.377   2.390  13.794
18779W        W87142  18.777  25.079  10.926
18780W        W87143  38.059   8.690  13.839
18781W        W87144  24.184  35.426  14.829
18782W        W87145  23.673   4.399  10.907
18783W        W87146  18.287  15.301  14.837
18784W        W87147  24.074  31.052   2.807
18785W        W87148  24.042  38.058  13.386
18786W        W87149  21.262   2.789  12.833
18787W        W87150  36.470   0.268  12.083
18788W        W87151  33.591  43.278   2.868
18789W        W87152  43.272  33.022  13.986
18790W        W87153  25.484  12.648   4.187
18791W        W87154   4.822  34.562  14.307
18792W        W87155  14.648  44.385   3.840
18793W        W87156  14.174  38.035   1.378
18794W        W87157   7.811  18.230   9.927
18795W        W87158  11.184  37.982   3.235
18796W        W87159   0.962  23.017   5.106
18797W        W87160  20.526   1.437   2.362
18798W        W87161  33.001  29.660  10.948
18799W        W87162   4.833  21.733   3.216
18800W        W87163  15.696   8.394   0.929
18801W        W87164  16.304   5.786   5.570
18802W        W87165   2.966  35.950  13.485
18803W        W87166  26.141  32.089   1.360
18804W        W87167  11.688   4.828   4.777
18805W        W87168  42.410  26.628  10.924
18806W        W87169  31.896   2.733   2.403
18807W        W87170   3.724  16.671  10.964
18808W        W87171  39.865   5.799   2.730
18809W        W87172  37.385  28.471   4.699
18810W        W87173  38.513   2.394   0.258
18811W        W87174   2.801  25.589  14.468
18812W        W87175  37.940   7.688   4.714
18813W        W87176  31.496   8.237   0.958
18814W        W87177  28.528  37.342   3.808
18815W        W87178  39.352   8.192  11.858
18816W        W87179   6.316  33.509   0.370
18817W        W87180   6.729  27.534  13.321
18818W        W87181  41.530  17.061  11.534
18819W        W87182  41.395  34.973  11.907
18820W        W87183  36.938  33.985  12.353
18821W        W87184  32.998  15.261  14.393
18822W        W87185   2.299  25.664  14.030
18823W        W87186  39.314  19.238  10.992
18824W        W87187   8.823  23.656   0.263
18825W        W87188  41.014  40.306  14.803
18826W        W87189  19.658  30.053  11.862
18827W        W87190  38.035   8.699   1.780
18828W        W87191  34.445  21.582   4.792
18829W        W87192  43.793   3.227   0.954
18830W        W87193  38.405  20.085   1.337
18831W        W87194  41.969  26.638  12.873
18832W        W87195  23.574  35.020   1.727
18833W        W87196  24.002  43.981   3.668
18834W        W87197  44.272  42.824   4.835
18835W        W87198  14.297  40.353   1.823
18836W        W87199  24.509  39.551   0.940
18837W        W87200  28.606   9.890   0.474
18838W        W87201   9.249  22.997  13.833
18839W        W87202  15.804  15.577  14.982
18840W        W87203  15.649  15.263   3.761
18841W        W87204  20.555   6.362   4.217
18842W        W87205  14.175   1.240  14.341
18843W        W87206  43.445  44.937   0.258
18844W        W87207   1.915  43.273  14.984
18845W        W87208  13.255  30.468  10.153
18846W        W87209  40.995  18.140   0.749
18847W        W87210   0.807  27.613  10.618
18848W        W87211  24.183  18.195   0.957
18849W        W87212  36.932  29.125  10.596
18850W        W87213  36.353  22.507  14.824
18851W        W87214  31.966  20.201  13.831
18852W        W87215  19.152  29.051   1.883
18853W        W87216  15.117  12.314  11.535
18854W        W87217  19.751  12.189  14.953
18855W        W87218   5.708  44.762   3.383
18856W        W87219  24.163  21.159  14.947
18857W        W87220  32.048  21.696  11.561
18858W        W87221  14.334  15.668  13.418
18859W        W87222   2.418  26.182  12.954
18860W        W87223  34.571  26.011   4.215
18861W        W87224  21.557  15.760  13.064
18862W        W87225   0.308   8.744   4.138
18863W        W87226  38.984  16.196  11.880
18864W        W87227  38.452   9.373  11.954
18865W        W87228  18.642  39.955   4.260
18866W        W87229  37.945  13.624   5.250
18867W        W87230  25.705   2.795   0.419
18868W        W87231  24.208  27.148   4.783
18869W        W87232  19.697   8.260   1.928
18870W        W87233  44.952  37.571   3.224
18871W        W87234   8.303  26.474  11.412
18872W        W87235   3.338  40.416  14.023
18873W        W87236   5.914  35.987   4.756
18874W        W87237  22.239  24.670   3.207
18875W        W87238  31.498   1.340   5.293
18876W        W87239  40.473  14.739  14.781
18877W        W87240  24.191   4.799  11.099
18878W        W87241  18.171  43.361  13.412
18879W        W87242  27.553  12.656   1.740
18880W        W87243  35.912  17.250   2.708
18881W        W87244  10.381  23.142   0.777
18882W        W87245  10.211  40.368   3.188
18883W        W87246   4.301  37.026   2.205
18884W        W87247  34.104  22.599   3.167
18885W        W87248   2.313   3.219  10.537
18886W        W87249  35.985  19.750  12.897
18887W        W87250  44.994   9.687  12.838
18888W        W87251  22.213   8.187   4.787
18889W        W87252  44.830  23.997   2.230
18890W        W87253  32.414  13.260  11.127
18891W        W87254  43.826  43.913   1.697
18892W        W87255  34.908  22.591   0.425
18893W        W87256  26.186  11.655  13.983
18894W        W87257  15.170  21.023  12.069
18895W        W87258  17.136   1.384   3.297
18896W        W87259   9.802  11.279   3.173
18897W        W87260  11.724  30.112   3.316
18898W        W87261   8.707  14.694  12.528
18899W        W87262  43.358  20.584  12.968
18900W        W87263   4.410  42.397   0.751
18901W        W87264  39.830  36.043  11.076
18902W        W87265  10.696  44.303   2.781
18903W        W87266  35.056  12.282   2.716
18904W        W87267  38.048   4.888  11.124
18905W        W87268  30.076  23.144   3.349
18906W        W87269  25.672  28.585  13.983
18907W        W87270  34.409  14.614   4.690
18908W        W87271  13.624  18.781   5.110
18909W        W87272   8.839   6.252   2.861
18910W        W87273  28.505  34.068  12.369
18911W        W87274  15.804   0.968   5.289
18912W        W87275  13.261  24.547  13.310
18913W        W87276  21.241  20.045   4.643
18914W        W87277  30.066  27.096   4.345
18915W        W87278   9.811   9.374  12.876
18916W        W87279  40.526  25.565   4.214
18917W        W87280  35.589  30.443   2.261
18918W        W87281  18.727  30.515   4.115
18919W        W87282   1.386  18.166   2.886
18920W        W87283   9.290  36.982   3.198
18921W        W87284  24.675  14.625  14.399
18922W        W87285  22.077  16.079  11.994
18923W        W87286  32.021   9.265   3.223
18924W        W87287  30.998  28.532  12.845
18925W        W87288   9.337  24.488  11.120
18926W        W87289  20.752  44.483   0.353
18927W        W87290  24.979  17.680  11.524
18928W        W87291  25.031  34.544   1.311
18929W        W87292  29.047   5.220   1.767
18930W        W87293  26.658   4.752  10.617
18931W        W87294   3.422  33.091  10.940
18932W        W87295  22.093  34.420   0.284
18933W        W87296  19.088  36.468   4.759
18934W        W87297  14.611  23.201   4.151
18935W        W87298  35.954  18.069   3.170
18936W        W87299  11.848  26.055   4.187
18937W        W87300  24.567  19.083  11.906
18938W        W87301   3.806  34.893   0.416
18939W        W87302  26.113  18.052  13.842
18940W        W87303  39.860  38.357   4.178
18941W        W87304  30.085  20.600  12.554
18942W        W87305  10.302  22.570  10.594
18943W        W87306   3.936  12.715  13.521
18944W        W87307   4.415  30.163  14.511
18945W        W87308  13.657  35.530   4.809
18946W        W87309  17.163  18.192   1.420
18947W        W87310  25.544  32.610   4.347
18948W        W87311  27.115  19.066   0.731
18949W        W87312  14.128  11.279  11.515
18950W        W87313  12.770  10.755  12.864
18951W        W87314  13.327  32.076  12.521
18952W        W87315   6.400  31.459   1.230
18953W        W87316  35.544  34.965  10.573
18954W        W87317  39.909   6.870   1.707
18955W        W87318  23.079  36.854   3.795
18956W        W87319   5.864   2.740  14.780
18957W        W87320  34.033  35.086  10.603
18958W        W87321  16.683  25.150   2.322
18959W        W87322   3.332  44.897  13.456
18960W        W87323  41.016  24.699  13.824
18961W        W87324  22.638   3.446   0.248
18962W        W87325  33.607  36.083  10.940
18963W        W87326  29.123   6.352  14.340
18964W        W87327  29.484  12.676   9.963
18965W        W87328  44.473  25.665  15.000
18966W        W87329  17.178  17.567   9.645
18967W        W87330   0.795   1.741   1.770
18968W        W87331   1.352  37.940   1.918
18969W        W87332  14.805  41.033   1.446
18970W        W87333  44.364  32.005  12.007
18971W        W87334  34.397  37.028  13.022
18972W        W87335  11.682  18.190  11.073
18973W        W87336  11.199  27.960   3.340
18974W        W87337  14.212  26.958  13.849
18975W        W87338  29.583  22.057   2.853
18976W        W87339  28.463  16.131  12.919
18977W        W87340  32.557  29.543  13.469
18978W        W87341  12.834  23.715  11.469
18979W        W87342   7.854  44.805  14.501
18980W        W87343  27.037  41.787  11.572
18981W        W87344  22.031  18.606  13.389
18982W        W87345  28.028  18.200   2.265
18983W        W87346  20.163  28.099  12.896
18984W        W87347  33.070  44.940   0.448
18985W        W87348  32.468  42.982  13.046
18986W        W87349   1.791   1.866  11.460
18987W        W87350  36.359  34.404   2.323
18988W        W87351  14.696  43.391  13.923
18989W        W87352   9.854  21.017  12.001
18990W        W87353   3.264   3.344  14.503
18991W        W87354  11.203  25.063  11.974
18992W        W87355   0.906  19.111  14.020
18993W        W87356  31.127  34.898   3.755
18994W        W87357  39.852  24.495  10.506
18995W        W87358   4.301  43.005  13.411
18996W        W87359  27.954  40.402  13.003
18997W        W87360  22.099   3.757  11.066
18998W        W87361  13.167  29.470   1.773
18999W        W87362  43.392  11.741  11.552
19000W        W87363  17.750  38.952  14.286
19001W        W87364  13.608   8.282  13.313
19002W        W87365  13.707   5.356   3.291
19003W        W87366   8.383  39.541   2.354
19004W        W87367   7.846  25.108   1.259
19005W        W87368  31.085  25.148   2.865
19006W        W87369  32.581  41.345  11.066
19007W        W87370  17.147  27.016   0.938
19008W        W87371   6.246  37.355  14.983
19009W        W87372  10.263  35.988  11.047
19010W        W87373  38.408  25.059  13.355
19011W        W87374  44.766   2.347   2.846
19012W        W87375  38.405  44.981   2.409
19013W        W87376  23.996  31.074   1.451
19014W        W87377  29.526  22.032  12.040
19015W        W87378  20.219  20.603  11.043
19016W        W87379  28.085   8.691  13.030
19017W        W87380  30.640  11.198  11.061
19018W        W87381  28.125  30.999   3.279
19019W        W87382  25.189  40.447  10.628
19020W        W87383  32.490   0.851   1.267
19021W        W87384   1.472  16.090   1.361
19022W        W87385  43.308   0.442  13.931
19023W        W87386  37.990  39.992   4.754
19024W        W87387   0.482  20.740  11.382
19025W        W87388  12.764  43.370   1.861
19026W        W87389  34.069  10.175   2.855
19027W        W87390  27.584  32.511  11.943
19028W        W87391   8.267  13.746  11.498
19029W        W87392   6.427  21.632  11.080
19030W        W87393  29.087  31.580  11.894
19031W        W87394   1.344  29.556   2.270
19032W        W87395   5.803  27.148  13.454
19033W        W87396  24.705  22.103   3.345
19034W        W87397   8.771  15.094   1.432
19035W        W87398  18.553  18.550   2.235
19036W        W87399  44.908  25.611  13.016
19037W        W87400  17.115  19.110  13.894
19038W        W87401  40.424  33.457   4.731
19039W        W87402  15.709   0.266   1.342
19040W        W87403  18.290  38.539   0.866
19041W        W87404  26.601  25.146   2.877
19042W        W87405  40.398  31.131  14.995
19043W        W87406  33.516   5.340   3.290
19044W        W87407  15.256  33.108   2.759
19045W        W87408  25.635  32.922   2.803
19046W        W87409  10.715  20.203  13.965
19047W        W87410   2.333  40.038  12.531
19048W        W87411   0.289  11.135  12.847
19049W        W87412  30.956   2.233  11.396
19050W        W87413  37.925  11.226   2.326
19051W        W87414  11.689  28.017  13.451
19052W        W87415  38.963  40.481   2.698
19053W        W87416  14.663  25.965  12.369
19054W        W87417  43.481  41.455  13.945
19055W        W87418  40.837  22.539   2.846
19056W        W87419  27.502   0.832  13.865
19057W        W87420  41.983  30.110   0.367
19058W        W87421  25.214  10.634  12.019
19059W        W87422  25.077  10.761  13.003
19060W        W87423  23.527  29.437   3.843
19061W        W87424  43.509   7.314  14.002
19062W        W87425   9.870  33.972  11.077
19063W        W87426  27.625   8.179   2.735
19064W        W87427  12.731  19.130   1.351
19065W        W87428  15.095  33.441  11.461
19066W        W87429  24.983  21.741  13.355
19067W        W87430  34.586   9.159   3.799
19068W        W87431  26.175   4.702  10.419
19069W        W87432  13.282  11.808   2.289
19070W        W87433   0.823  19.573   3.792
19071W        W87434  34.922  25.709  14.463
19072W        W87435   3.814  14.748   4.196
19073W        W87436  13.178  20.734  14.374
19074W        W87437   6.777  37.430  12.382
19075W        W87438  31.494   3.355   3.806
19076W        W87439   8.760  40.940   0.483
19077W        W87440  14.229   3.279  14.328
19078W        W87441  11.677  41.848  12.441
19079W        W87442  19.143   3.429  13.060
19080W        W87443  36.871  24.578  12.943
19081W        W87444  21.223  37.883   0.479
19082W        W87445  23.211  43.388   1.402
19083W        W87446  26.171  42.455  10.458
19084W        W87447  29.507   4.797   4.779
19085W        W87448   6.770  43.406   0.438
19086W        W87449   6.864  14.721  13.023
19087W        W87450  16.245   0.821   1.807
19088W        W87451  23.071  32.886   2.333
19089W        W87452   0.408  38.416  14.506
19090W        W87453  38.477   2.929   4.303
19091W        W87454  25.129  14.786   0.333
19092W        W87455  14.655  21.146   4.816
19093W        W87456  14.805  18.157   9.968
19094W        W87457  37.526  37.373   3.291
19095W        W87458  16.084  26.184  12.871
19096W        W87459   0.267  30.034  11.866
19097W        W87460  25.586   6.806  12.859
19098W        W87461  38.063   9.331  14.924
19099W        W87462  34.899   7.237   1.903
19100W        W87463  33.913  40.505   0.272
19101W        W87464  26.979  26.506   2.861
19102W        W87465  30.520   7.288   3.235
19103W        W87466  40.398  12.674   2.716
19104W        W87467   1.904  10.815   4.201
19105W        W87468  24.662  21.202  14.952
19106W        W87469  44.285  42.297   3.855
19107W        W87470  25.091  17.768   2.803
19108W        W87471   5.311  43.960   3.818
19109W        W87472   6.696  43.307   2.197
19110W        W87473  25.171  15.289   1.369
19111W        W87474  24.580  34.116   1.328
19112W        W87475  14.319  33.996   0.962
19113W        W87476  14.766  30.585   2.397
19114W        W87477  44.921   8.809  11.044
19115W        W87478   3.243   6.311  14.339
19116W        W87479   0.859  32.442  14.009
19117W        W87480   6.406   2.735   3.351
19118W        W87481  15.589  30.094   0.356
19119W        W87482  40.819  30.506  12.958
19120W        W87483  25.702  29.975  13.948
19121W        W87484  40.546  14.162  11.034
19122W        W87485  12.270  17.716   4.145
19123W        W87486  17.607   2.454  12.905
19124W        W87487  12.252  14.154   4.185
19125W        W87488  21.667   5.283   4.186
19126W        W87489  41.313  12.269  10.913
19127W        W87490  25.213  43.425  11.906
19128W        W87491  31.546  39.313  12.959
19129W        W87492   7.869   5.840   2.842
19130W        W87493  21.624  21.727  13.462
19131W        W87494  35.951  11.249   1.697
19132W        W87495   8.795  32.572   1.927
19133W        W87496  19.128  25.184  13.318
19134W        W87497  10.660  20.273   2.842
19135W        W87498  31.444  40.434   4.149
19136W        W87499  37.546  25.624   3.183
19137W        W87500   5.869  42.833  10.095
19138W        W87501  30.909  10.763  12.949
19139W        W87502  10.787  26.045  12.481
19140W        W87503  16.704  14.596   2.233
19141W        W87504  36.403   2.269   1.899
19142W        W87505   9.811  16.203   2.666
19143W        W87506  10.175  12.162   2.820
19144W        W87507  10.330  36.355  11.426
19145W        W87508  40.435  38.561  12.372
19146W        W87509  35.057  29.091  14.007
19147W        W87510  28.646  22.106  10.970
19148W        W87511  13.810  14.790  14.950
19149W        W87512   4.286  38.054   2.702
19150W        W87513  32.002  35.570   1.790
19151W        W87514  43.782  18.693  14.780
19152W        W87515  10.752  38.970  13.508
19153W        W87516  14.763  32.509   0.939
19154W        W87517   7.852   0.261   1.400
19155W        W87518  41.959  42.385   0.950
19156W        W87519  28.075  40.909   0.245
19157W        W87520  35.426  24.156   4.172
19158W        W87521  36.062  38.033   0.307
19159W        W87522   7.785  22.705   3.748
19160W        W87523  19.607  30.601   4.751
19161W        W87524   6.863  13.628  10.641
19162W        W87525  32.541  27.472   1.391
19163W        W87526   1.309  25.575  12.047
19164W        W87527   5.767   8.696  12.368
19165W        W87528  15.647  15.309   9.496
19166W        W87529  12.317   4.795  10.518
19167W        W87530  35.058  20.217   0.261
19168W        W87531  20.059   2.257   4.651
19169W        W87532  28.548   2.257   1.423
19170W        W87533  41.974   3.826  14.820
19171W        W87534  20.047  17.776   2.892
19172W        W87535   3.266  30.071  14.443
19173W        W87536   0.264  37.438  13.981
19174W        W87537  43.348  32.887   2.732
19175W        W87538  34.047  16.581  12.947
19176W        W87539  40.876  18.615   4.228
19177W        W87540  13.286  26.548   2.415
19178W        W87541  22.198  21.577  12.553
19179W        W87542   1.278  14.806   3.196
19180W        W87543  10.165  15.754   4.753
19181W        W87544  36.396  24.038  13.019
19182W        W87545  23.595  31.402   0.275
19183W        W87546  23.079  42.026   0.455
19184W        W87547  21.653   3.275  11.523
19185W        W87548  41.323  36.073   4.770
19186W        W87549  27.086  28.956   2.414
19187W        W87550  10.220   9.208   0.764
19188W        W87551   8.656  11.238   2.419
19189W        W87552   7.243  14.753   3.681
19190W        W87553   0.811   8.303   4.286
19191W        W87554   3.328  10.876   4.649
19192W        W87555   3.791  37.878  10.922
19193W        W87556   2.455  21.689  10.593
19194W        W87557  12.123  10.187   2.343
19195W        W87558  41.435   2.825   0.884
19196W        W87559  21.137  35.916   1.854
19197W        W87560  14.687  25.084  10.589
19198W        W87561  11.721  32.467  14.763
19199W        W87562   7.912  18.563   5.111
19200W        W87563   3.400  12.291  10.465
19201W        W87564  10.337  21.073  12.571
19202W        W87565  10.860  33.078   1.720
19203W        W87566  27.098   3.950   2.318
19204W        W87567  34.496   6.827  13.859
19205W        W87568  22.609  18.192   4.797
19206W        W87569  42.957  25.054   4.249
19207W        W87570  32.585   5.309   2.688
19208W        W87571  22.209  26.542  14.298
19209W        W87572  35.493  35.993  11.391
19210W        W87573  16.700   4.440   4.166
19211W        W87574   3.798  16.595  14.423
19212W        W87575  21.170  13.301   2.855
19213W        W87576  34.454   5.750   3.171
19214W        W87577  23.543  14.138   1.923
19215W        W87578  20.119   3.781   1.711
19216W        W87579  39.399  38.922  14.852
19217W        W87580  11.782  18.104   2.869
19218W        W87581  10.684  43.787   4.655
19219W        W87582  14.817  28.446   3.176
19220W        W87583  30.547  15.676  14.975
19221W        W87584  18.707  30.511  11.391
19222W        W87585   2.791  15.156   3.288
19223W        W87586  15.238  30.480   2.879
19224W        W87587  21.700   9.185   1.802
19225W        W87588  12.677  14.106  14.304
19226W        W87589   2.227  19.556  10.893
19227W        W87590   7.200  27.549  12.522
19228W        W87591   8.340   9.730  14.856
19229W        W87592  18.246  20.058   1.855
19230W        W87593  37.929  44.483   4.143
19231W        W87594  18.706  42.343  11.121
19232W        W87595  11.187   0.403   0.420
19233W        W87596  15.256   4.312   4.643
19234W        W87597  42.908  42.478  10.553
19235W        W87598  24.131  16.613   2.270
19236W        W87599  22.027  44.903   1.273
19237W        W87600  10.237  10.846  10.490
19238W        W87601  32.045  19.676   3.636
19239W        W87602  19.163  28.138   1.751
19240W        W87603  11.743  17.178  10.990
19241W        W87604  32.634  18.146  12.993
19242W        W87605   4.751  11.281   0.825
19243W        W87606  23.164  32.898  13.468
19244W        W87607   1.346  11.127  14.876
19245W        W87608   9.191  12.264   2.277
19246W        W87609   9.162  34.999  13.496
19247W        W87610  44.906  19.263  14.798
19248W        W87611  34.915   2.750  13.344
19249W        W87612   0.979  12.660   0.283
19250W        W87613  44.893   6.384  14.857
19251W        W87614  22.516  40.912  12.863
19252W        W87615  36.085  10.799   0.410
19253W        W87616  29.043  29.557  13.058
19254W        W87617  12.305  41.038   0.872
19255W        W87618   6.727  34.950   0.410
19256W        W87619  16.178   0.790   2.245
19257W        W87620  26.661  40.048  14.370
19258W        W87621  22.668  34.116   0.383
19259W        W87622  19.656   4.226   4.172
19260W        W87623   8.690  35.943   2.371
19261W        W87624  29.666   3.435  13.012
19262W        W87625  40.851  15.739  14.812
19263W        W87626  37.471  31.617  11.522
19264W        W87627  33.878  40.878  11.512
19265W        W87628  20.632  20.067  12.471
19266W        W87629  31.581   4.742   0.351
19267W        W87630  18.253  18.714   0.416
19268W        W87631  43.002  43.347  11.531
19269W        W87632  38.845  23.116  14.019
19270W        W87633  33.018  20.762  11.553
19271W        W87634  19.284  28.094   3.752
19272W        W87635  19.160  20.093   0.293
19273W        W87636  31.081  16.085   2.781
19274W        W87637  38.905  11.263  10.128
19275W        W87638  30.519  40.531   2.898
19276W        W87639  12.289  34.557  14.466
19277W        W87640   8.214   3.938  13.509
19278W        W87641  11.823  42.829   3.818
19279W        W87642  34.596  28.112   4.251
19280W        W87643  18.088   2.911  13.505
19281W        W87644   0.766  29.462   2.316
19282W        W87645  43.766   5.877   0.305
19283W        W87646  19.163  35.582  14.471
19284W        W87647  24.722  32.608   0.284
19285W        W87648  14.188  25.517   1.240
19286W        W87649  21.090   9.833   0.399
19287W        W87650  19.694   4.911  11.561
19288W        W87651   0.942  28.636   4.291
19289W        W87652  23.563   3.379   5.104
19290W        W87653   5.346   4.836  13.460
19291W        W87654  42.422  12.317   2.836
19292W        W87655  13.710  31.048   2.225
19293W        W87656  29.445   6.415   3.699
19294W        W87657  23.183  27.943   0.797
19295W        W87658  11.829   2.249  13.402
19296W        W87659   9.853  17.653   4.307
19297W        W87660  37.566  33.550  11.522
19298W        W87661  29.116  29.644  13.357
19299W        W87662  20.214  15.113  12.007
19300W        W87663  44.941  41.957   0.389
19301W        W87664   7.897  24.655  11.589
19302W        W87665  30.972  19.267   1.829
19303W        W87666  40.308   5.718  11.053
19304W        W87667   2.252   4.764   1.856
19305W        W87668  30.459   4.890   1.257
19306W        W87669  38.871  20.653   3.288
19307W        W87670  28.460   3.720  14.885
19308W        W87671  29.580  22.583  14.759
19309W        W87672  15.627  10.227   2.724
19310W        W87673  11.151  23.542  11.530
19311W        W87674  15.594  19.594  13.885
19312W        W87675   6.796  34.410  11.484
19313W        W87676  20.221  39.478  11.107
19314W        W87677  18.157   7.832   1.921
19315W        W87678  26.063  13.225   4.725
19316W        W87679  24.143  11.321  12.838
19317W        W87680  16.164  28.971   4.296
19318W        W87681   3.288   1.879  10.406
19319W        W87682  30.462  25.506   2.832
19320W        W87683   6.335   7.719  13.915
19321W        W87684  44.841  35.019   4.311
19322W        W87685  20.718   1.404   2.745
19323W        W87686  33.534   2.413  11.585
19324W        W87687   2.446  29.014  10.069
19325W        W87688  26.578  41.840   1.891
19326W        W87689   7.740  20.607  13.411
19327W        W87690  25.543  34.978   1.823
19328W        W87691  38.396  28.102   3.185
19329W        W87692   3.431  39.835  13.879
19330W        W87693  22.730  12.727   1.812
19331W        W87694  25.200  27.159   2.337
19332W        W87695  42.339  16.101   0.914
19333W        W87696  44.495  39.459  14.854
19334W        W87697  31.647  18.169   2.897
19335W        W87698  32.418  33.131  10.907
19336W        W87699  21.752  23.615  14.459
19337W        W87700   0.951  14.799   3.640
19338W        W87701  25.085  27.611  14.281
19339W        W87702  28.497   1.368  11.415
19340W        W87703  23.643  13.710   4.700
19341W        W87704   4.764   8.241  11.129
19342W        W87705  31.926  18.575   3.178
19343W        W87706  27.139  22.018  14.819
19344W        W87707  28.639  35.913   0.762
19345W        W87708  21.259  38.523   0.810
19346W        W87709  44.424  16.190   2.296
19347W        W87710  11.624  22.703   2.390
19348W        W87711  15.770  41.472   4.747
19349W        W87712  26.001  22.155   3.858
19350W        W87713  14.762  27.679   3.774
19351W        W87714  28.129  41.938   1.283
19352W        W87715  11.134  27.598  11.060
19353W        W87716  12.219  27.104   4.753
19354W        W87717  16.633   1.255   4.640
19355W        W87718  15.729  31.998  11.926
19356W        W87719   5.286  20.761  14.852
19357W        W87720  22.655  40.892   1.242
19358W        W87721   0.884   2.413  13.049
19359W        W87722   0.468  26.993   3.737
19360W        W87723  17.793  35.863  11.514
19361W        W87724  18.169   5.832  12.444
19362W        W87725  17.640  32.403   4.751
19363W        W87726  17.267  10.637  12.836
19364W        W87727  33.027   6.770   2.187
19365W        W87728  42.401  17.237   4.168
19366W        W87729  26.168  32.595   4.123
19367W        W87730  19.609  10.826  12.341
19368W        W87731  39.909  28.071   2.835
19369W        W87732   4.390  14.818   0.955
19370W        W87733  10.178  36.352  11.920
19371W        W87734  31.148  28.603   1.370
19372W        W87735  43.882   7.793  12.950
19373W        W87736  42.352   9.664  14.503
19374W        W87737  31.534  40.045  13.327
19375W        W87738  37.933  39.881  11.083
19376W        W87739  19.775  27.171  14.506
19377W        W87740  20.548   5.274  11.471
19378W        W87741  19.241  33.427   0.468
19379W        W87742   7.391  26.055   2.289
19380W        W87743  27.594   5.784   4.671
19381W        W87744  23.158  32.073  11.087
19382W        W87745  43.515  12.228   4.730
19383W        W87746  26.168  37.062   1.359
19384W        W87747  33.438  21.133   1.702
19385W        W87748   2.727  40.413  11.087
19386W        W87749   6.299   2.804  10.993
19387W        W87750   3.385  36.382  14.807
19388W        W87751  11.220  26.089  12.827
19389W        W87752  42.468   2.356   0.915
19390W        W87753  29.631  29.431   4.829
19391W        W87754  15.151  12.171  14.363
19392W        W87755   6.874  14.676   2.689
19393W        W87756  22.247  12.148   2.886
19394W        W87757  15.308  11.274   2.815
19395W        W87758  33.935  21.528  12.355
19396W        W87759  42.826  28.552  10.440
19397W        W87760   7.270   1.770  13.428
19398W        W87761  14.229  14.299  14.317
19399W        W87762  41.023  19.596   3.169
19400W        W87763  41.832  24.121   3.862
19401W        W87764  23.556  34.523  11.413
19402W        W87765   2.264   9.173  11.909
19403W        W87766  41.479  35.591  11.107
19404W        W87767   0.852  22.679  14.881
19405W        W87768  16.182  41.822   3.691
19406W        W87769  32.557  32.084   4.187
19407W        W87770   6.242  25.491  12.462
19408W        W87771   4.770  39.024   0.850
19409W        W87772  38.040  40.798   3.870
19410W        W87773  31.030   4.235   1.748
19411W        W87774  35.578  42.280  11.381
19412W        W87775  44.913  35.908   0.870
19413W        W87776   0.357  26.479   3.235
19414W        W87777   5.752  22.573  14.471
19415W        W87778  32.542  37.348  14.515
19416W        W87779  32.396  14.125  10.148
19417W        W87780  16.728  24.099  11.014
19418W        W87781  38.028  20.715  13.919
19419W        W87782  31.971  44.296  13.380
19420W        W87783  12.683   2.860  12.553
19421W        W87784  20.202  28.986   2.787
19422W        W87785  11.182  30.934  14.427
19423W        W87786  43.994  13.225   0.403
19424W        W87787   9.313  18.166   1.901
19425W        W87788  35.993  14.324  11.412
19426W        W87789  19.691  12.297  11.965
19427W        W87790  22.607  12.843  10.110
19428W        W87791   3.876  21.134   3.797
19429W        W87792  30.539  39.937  11.498
19430W        W87793  13.644  13.259  12.899
19431W        W87794  41.828   3.913   0.908
19432W        W87795  21.206  21.097   4.631
19433W        W87796  28.028   7.776   1.352
19434W        W87797  10.720  34.399   4.778
19435W        W87798  41.425  39.036   4.685
19436W        W87799  18.688  19.208  14.833
19437W        W87800   9.236  16.727  11.978
19438W        W87801  42.354   4.311  11.079
19439W        W87802  44.793  34.385  12.855
19440W        W87803  14.196  29.564   0.849
19441W        W87804   1.834  14.198  14.347
19442W        W87805  24.050  40.387  13.972
19443W        W87806  25.474  14.223   2.358
19444W        W87807   8.175  17.801   0.874
19445W        W87808  21.548  26.096   0.838
19446W        W87809  44.441  20.664   4.160
19447W        W87810  44.441  12.159  14.281
19448W        W87811  26.518  19.588   1.307
19449W        W87812  22.054   6.698  13.346
19450W        W87813   8.660  11.763   2.730
19451W        W87814  34.917  25.585  11.514
19452W        W87815  10.865  11.277   0.398
19453W        W87816  39.445  42.446   3.828
19454W        W87817  31.481   6.380   4.219
19455W        W87818  39.553  13.661   2.767
19456W        W87819  17.618  16.318  13.353
19457W        W87820  29.018  24.677   4.808
19458W        W87821  13.213  44.004  10.509
19459W        W87822   7.391  26.026   3.298
19460W        W87823  24.617   5.865   3.224
19461W        W87824   7.785  14.637   2.229
19462W        W87825  13.710  29.157  14.289
19463W        W87826  13.812  11.346  13.347
19464W        W87827   8.303  23.194  14.475
19465W        W87828  13.154   4.906   1.358
19466W        W87829   5.221  12.821  10.590
19467W        W87830   7.390  19.604  11.488
19468W        W87831  19.159  31.496   4.721
19469W        W87832   5.437  36.882  12.849
19470W        W87833  18.138  26.133  10.992
19471W        W87834  24.003  29.923   4.612
19472W        W87835  24.696   5.921   0.459
19473W        W87836  15.797   8.354   0.440
19474W        W87837  23.155  12.843   3.343
19475W        W87838  22.597  26.964   4.831
19476W        W87839  13.167  16.206   2.337
19477W        W87840   9.343  10.172  10.960
19478W        W87841  29.031  11.264   2.193
19479W        W87842  15.788  30.441  10.937
19480W        W87843   8.757  25.200  10.925
19481W        W87844   3.942  19.652   4.677
19482W        W87845  10.339  17.222   1.816
19483W        W87846  24.667  26.476  10.519
19484W        W87847   0.838   8.819   0.726
19485W        W87848  33.606   4.704   3.300
19486W        W87849  24.604  21.201  11.920
19487W        W87850   5.889  32.443   1.713
19488W        W87851  44.331  13.840  10.963
19489W        W87852  10.275  17.793  12.504
19490W        W87853  38.998  22.586  11.434
19491W        W87854  13.295  32.018   3.812
19492W        W87855   9.696  30.929  13.320
19493W        W87856  26.650  32.939   2.415
19494W        W87857  33.624   4.720   2.868
19495W        W87858  15.120  35.466   2.369
19496W        W87859   9.392  23.690   4.642
19497W        W87860  12.648  36.979  10.498
19498W        W87861  37.470  34.039   3.273
19499W        W87862  24.042  22.523   0.908
19500W        W87863  31.510   2.780   2.888
19501W        W87864  34.572   5.240   2.379
19502W        W87865  44.481  10.343   3.227
19503W        W87866  29.601  17.792  13.383
19504W        W87867  23.634  21.123  14.977
19505W        W87868  41.880  40.438  13.054
19506W        W87869  39.929   1.755  12.045
19507W        W87870  37.338   3.809   2.786
19508W        W87871  10.714  34.864   4.310
19509W        W87872  21.689  37.032  13.309
19510W        W87873  19.628   8.805  11.903
19511W        W87874  44.766  27.953  12.990
19512W        W87875  40.390  10.730   3.769
19513W        W87876  34.079  36.406  13.932
19514W        W87877  14.738   8.801  13.937
19515W        W87878  22.193  44.273  12.831
19516W        W87879   3.812   2.291  10.554
19517W        W87880  13.715   5.828  13.363
19518W        W87881  42.423  41.364   1.418
19519W        W87882  41.885   0.887  12.040
19520W        W87883   3.412  32.578  14.777
19521W        W87884   0.912  28.101  13.522
19522W        W87885   4.879  14.181  14.824
19523W        W87886  25.502  13.335  14.020
19524W        W87887   5.316  15.666   1.444
19525W        W87888   1.838  12.159  11.375
19526W        W87889  13.673  15.149   2.736
19527W        W87890   1.407   0.271  11.017
19528W        W87891   5.821   5.784   4.333
19529W        W87892  25.501  26.476  11.580
19530W        W87893   0.492  29.461  11.415
19531W        W87894  42.313   8.827   1.928
19532W        W87895  39.440   0.904   1.832
19533W        W87896  38.837  25.671  13.834
19534W        W87897   4.791  20.672  13.915
19535W        W87898  28.071  17.134   2.687
19536W        W87899  33.494  39.331   2.184
19537W        W87900   2.229  16.749   0.475
19538W        W87901  30.996   5.763  11.387
19539W        W87902  14.710  28.526   0.275
19540W        W87903  31.407  25.174   3.865
19541W        W87904  41.032  21.752  11.582
19542W        W87905  41.025   0.258  14.961
19543W        W87906  39.867  38.560  11.089
19544W        W87907  13.343  13.712  14.960
19545W        W87908  21.081  14.623   4.787
19546W        W87909  32.008  33.940   2.192
19547W        W87910  35.571  30.443   1.871
19548W        W87911  28.157  27.178  14.931
19549W        W87912   3.815  40.366   4.782
19550W        W87913  28.161  27.051  10.046
19551W        W87914  43.772  44.338  11.997
19552W        W87915   8.166  31.610  11.953
19553W        W87916  41.033  38.962   4.731
19554W        W87917  19.601  19.707   9.925
19555W        W87918  17.198   2.429  10.423
19556W        W87919  22.115  32.975  14.001
19557W        W87920   7.879  19.712  11.105
19558W        W87921  11.193   1.460   1.855
19559W        W87922   0.838  29.154  12.468
19560W        W87923  38.371  34.094  14.357
19561W        W87924  31.584  25.636  12.354
19562W        W87925   9.304  40.396  13.496
19563W        W87926  31.600  34.390  12.412
19564W        W87927  37.466  14.714   5.162
19565W        W87928   6.227   8.252  13.815
19566W        W87929  32.036  22.587  11.948
19567W        W87930   4.731  25.993   1.727
19568W        W87931  10.159  17.591  14.918
19569W        W87932  29.984   9.759  12.442
19570W        W87933   7.393  40.456   3.754
19571W        W87934   9.646  38.510  12.031
19572W        W87935  31.903   6.690  13.883
19573W        W87936  16.599  36.367  13.028
19574W        W87937   7.220  28.641   1.749
19575W        W87938  43.477  36.456   4.290
19576W        W87939  26.064   0.431  14.933
19577W        W87940   2.765  33.941  11.374
19578W        W87941  15.160  44.867   4.817
19579W        W87942   6.309   4.729  10.573
19580W        W87943  37.912  35.927   2.307
19581W        W87944  41.939  42.905   4.159
19582W        W87945  19.717  38.041  14.003
19583W        W87946  36.410  14.115  10.454
19584W        W87947  39.871   9.858   2.287
19585W        W87948  16.756  44.927  11.858
19586W        W87949   5.227  32.402   4.236
19587W        W87950   4.405  42.300   0.253
19588W        W87951  13.150  39.943   9.941
19589W        W87952  38.038  24.574  14.981
19590W        W87953  41.303  34.979   4.315
19591W        W87954  36.539  14.794  11.492
19592W        W87955  24.490  21.572  11.039
19593W        W87956  24.978  29.648  13.812
19594W        W87957  38.860  11.209  10.572
19595W        W87958  14.777  22.190  14.437
19596W        W87959   0.302  37.840   0.294
19597W        W87960  41.535  25.637   0.476
19598W        W87961  18.243  36.551  13.792
19599W        W87962  36.985  10.830   3.866
19600W        W87963   6.333  32.589   2.252
19601W        W87964  24.637  34.536   1.395
19602W        W87965  33.041   1.793  14.945
19603W        W87966  29.165  39.505  13.441
19604W        W87967  42.863   2.364   3.184
19605W        W87968   4.722  44.330   2.803
19606W        W87969   7.732  24.130   0.359
19607W        W87970  11.728  14.698  11.913
19608W        W87971  19.540  34.497  14.028
19609W        W87972  23.511   9.680  12.002
19610W        W87973  40.866   2.810   2.415
19611W        W87974  19.252  31.138  13.404
19612W        W87975  31.647   0.465   2.686
19613W        W87976  32.901  32.086   4.293
19614W        W87977  18.586  17.719   0.904
19615W        W87978  41.356   2.895  12.873
19616W        W87979  40.447  36.000   5.316
19617W        W87980  37.032  41.009   2.833
19618W        W87981  15.762  24.561  12.349
19619W        W87982  23.732  18.666  14.285
19620W        W87983   9.247   8.334  13.945
19621W        W87984  20.076   3.422   5.248
19622W        W87985  38.853  27.102   1.308
19623W        W87986   8.822  17.147   5.193
19624W        W87987   3.350  32.619  10.890
19625W        W87988  17.183  18.784   4.282
19626W        W87989  23.197  42.011  13.920
19627W        W87990  38.392  19.557   0.966
19628W        W87991  25.210   4.249  11.600
19629W        W87992  16.272  40.842  10.506
19630W        W87993   1.344   5.799   2.197
19631W        W87994   5.898   5.307   0.472
19632W        W87995  22.737   6.708  13.977
19633W        W87996  43.867  31.965  11.423
19634W        W87997  34.581  44.503   1.846
19635W        W87998   8.703  35.019  10.889
19636W        W87999  26.614   4.241   4.650
19637W        W88000   9.729   9.823  10.405
19638W        W88001  23.694  41.841  13.028
19639W        W88002  10.689   2.963  11.982
19640W        W88003  39.535  19.059  12.031
19641W        W88004  15.687  26.569   9.938
19642W        W88005   3.255   9.702  11.596
19643W        W88006   0.390  33.103  11.887
19644W        W88007   3.371  43.850   2.779
19645W        W88008  23.562  13.236  12.878
19646W        W88009  31.081  15.761   3.809
19647W        W88010  20.562  17.298   0.920
19648W        W88011  28.998  23.135   1.905
19649W        W88012   5.917  42.918   4.148
19650W        W88013   0.423  39.881   3.669
19651W        W88014  33.952   6.716  12.384
19652W        W88015  37.416  37.937   3.782
19653W        W88016  39.815  44.997   1.276
19654W        W88017  36.372  33.939   3.382
19655W        W88018  25.653   1.776   1.842
19656W        W88019  12.736  38.376  13.487
19657W        W88020  17.669  33.565   1.851
19658W        W88021  31.412  17.706   3.634
19659W        W88022  34.435   0.470  13.452
19660W        W88023  33.068  41.910   1.230
19661W        W88024  26.177  38.824  11.613
19662W        W88025  32.500  16.749   4.184
19663W        W88026   1.765  29.956  14.447
19664W        W88027  28.505  30.941   2.669
19665W        W88028  11.304   4.375   3.246
19666W        W88029   0.266  39.991  13.409
19667W        W88030  38.424  16.591  13.834
19668W        W88031  22.999  40.496   4.307
19669W        W88032  13.711  37.961  13.848
19670W        W88033   5.848  12.646  10.617
19671W        W88034  43.501  43.991   1.835
19672W        W88035  41.841  35.466   2.404
19673W        W88036   0.305  36.444  12.365
19674W        W88037  43.864  13.321   1.419
19675W        W88038   1.390  22.630   5.190
19676W        W88039  18.776  39.900  10.903
19677W        W88040  34.388   0.480  12.571
19678W        W88041  35.602  10.870  13.816
19679W        W88042  37.085  25.114  11.946
19680W        W88043  43.781  27.180  12.921
19681W        W88044  31.427  40.855  12.510
19682W        W88045  42.414  42.427  13.944
19683W        W88046  23.154  27.032   3.764
19684W        W88047   2.869  19.066  12.410
19685W        W88048  19.740  24.192  13.422
19686W        W88049  21.640  32.431  12.487
19687W        W88050  22.640   4.868  10.947
19688W        W88051  38.507  36.401  14.356
19689W        W88052  13.304   7.357   2.385
19690W        W88053   8.679   6.869  10.439
19691W        W88054   5.381   3.239  12.896
19692W        W88055  43.353  34.949   3.703
19693W        W88056  27.469  11.231   4.192
19694W        W88057   6.785  43.999  13.309
19695W        W88058  37.944   0.284   4.791
19696W        W88059  35.435   1.387  14.853
19697W        W88060  24.990   6.221  10.966
19698W        W88061  30.153  25.689  14.802
19699W        W88062  19.110  44.375  12.565
19700W        W88063  35.555   9.799  11.898
19701W        W88064  32.125  29.563  10.116
19702W        W88065  10.758  12.166  12.845
19703W        W88066  34.450   4.769   1.828
19704W        W88067  12.706  12.743  11.128
19705W        W88068  43.441  33.977  10.433
19706W        W88069  15.259  21.259   2.841
19707W        W88070   4.440  24.714   2.271
19708W        W88071  37.860   6.777  12.410
19709W        W88072   9.284  11.156  14.359
19710W        W88073  29.998   5.845   2.875
19711W        W88074   6.822  41.955  12.358
19712W        W88075  28.144  34.010   4.746
19713W        W88076  14.242  41.416  12.406
19714W        W88077  15.663  18.293   0.372
19715W        W88078  40.047   7.336  11.938
19716W        W88079  30.157  39.968  11.935
19717W        W88080  30.075  10.195  13.827
19718W        W88081   2.881  23.164   0.323
19719W        W88082  33.452   7.831   0.948
19720W        W88083   2.861  34.614  11.393
19721W        W88084  22.542  29.634  14.964
19722W        W88085  37.856  26.648   4.785
19723W        W88086   4.813  43.947  10.157
19724W        W88087  17.740   4.368  10.565
19725W        W88088  35.591  41.839  14.302
19726W        W88089  40.391  36.005   0.336
19727W        W88090  31.516  18.586  14.296
19728W        W88091  19.681   0.819  14.488
19729W        W88092  22.232   9.880  13.834
19730W        W88093  32.949  11.829   0.252
19731W        W88094   8.251  12.700  14.422
19732W        W88095   2.261   9.750   3.226
19733W        W88096  23.608  35.520   2.196
19734W        W88097  22.733  10.217   0.852
19735W        W88098  24.200   3.373   0.867
19736W        W88099   8.232  15.092   2.827
19737W        W88100  10.698  38.540  14.025
19738W        W88101  22.025  42.859   3.297
19739W        W88102  42.972  28.550   0.362
19740W        W88103   5.350  37.426  10.540
19741W        W88104  39.999   6.737  13.886
19742W        W88105  17.257  19.725   1.867
19743W        W88106  26.670  37.582   5.270
19744W        W88107  16.118  37.998   1.731
19745W        W88108  36.406  21.525  11.959
19746W        W88109  40.891  26.040  10.935
19747W        W88110  26.976  27.564   1.895
19748W        W88111  44.926  37.503   2.259
19749W        W88112  24.024   0.934   0.817
19750W        W88113  39.415  32.443  12.403
19751W        W88114  27.525  37.950   0.386
19752W        W88115  35.105  20.058  14.357
19753W        W88116  16.293  17.650   0.458
19754W        W88117   7.777  31.129  13.343
19755W        W88118  42.480  27.689  13.413
19756W        W88119  14.271   0.492   3.347
19757W        W88120  12.789  24.647   1.794
19758W        W88121  34.014   9.872   4.748
19759W        W88122  44.969  30.640  13.310
19760W        W88123  24.532  14.764  10.543
19761W        W88124   6.912  18.607  14.515
19762W        W88125  35.389  26.484  12.537
19763W        W88126  18.186  44.985   3.664
19764W        W88127  21.068  44.838   3.718
19765W        W88128   2.446  30.550  12.833
19766W        W88129  31.929  27.112   2.798
19767W        W88130   0.428  25.120  11.511
19768W        W88131  27.455  12.802   4.248
19769W        W88132  29.006  14.112   3.810
19770W        W88133  35.051  21.079  12.973
19771W        W88134  28.016  32.116   0.294
19772W        W88135  23.142   2.428   3.316
19773W        W88136   4.816  36.874   3.146
19774W        W88137  24.497  29.168  12.043
19775W        W88138  21.247   0.402  13.449
19776W        W88139  36.842   3.728  14.321
19777W        W88140  36.980  24.099  11.384
19778W        W88141  19.145  22.519   0.904
19779W        W88142  16.230  43.426   2.344
19780W        W88143   6.391  12.705   1.451
19781W        W88144  11.302  24.594   3.766
19782W        W88145  23.130  17.608  14.916
19783W        W88146  34.100   9.349   4.681
19784W        W88147  26.645   1.753   3.254
19785W        W88148  40.909   0.313   0.746
19786W        W88149  21.585  41.996   3.181
19787W        W88150  25.640  42.285   3.832
19788W        W88151   6.362  21.556   9.933
19789W        W88152   0.458  28.952   4.624
19790W        W88153   0.474   6.901   2.217
19791W        W88154   2.230  24.071   4.798
19792W        W88155  20.111   0.291  10.980
19793W        W88156   2.471  20.539   0.732
19794W        W88157  13.287  14.245  11.024
19795W        W88158  27.075  23.532  14.868
19796W        W88159  16.792  23.174   3.201
19797W        W88160  29.929   5.402   3.665
19798W        W88161   6.781  44.766   0.739
19799W        W88162  41.024   7.411  13.024
19800W        W88163  29.601   1.789   1.437
19801W        W88164   5.331  35.388  14.371
19802W        W88165  37.044  22.182   0.433
19803W        W88166  17.159  41.427   9.963
19804W        W88167   3.753  23.153   0.925
19805W        W88168  20.261  11.672  10.462
19806W        W88169  26.002  39.457   1.338
19807W        W88170  37.451  44.883  12.940
19808W        W88171  23.499  26.682  10.889
19809W        W88172  30.617  37.568  13.910
19810W        W88173  18.133  23.201   4.624
19811W        W88174  29.091   1.833   1.865
19812W        W88175  37.008   3.749  13.042
19813W        W88176  26.609  16.206  10.418
19814W        W88177   3.218  35.042  10.622
19815W        W88178  40.366  43.948  13.536
19816W        W88179  12.282  43.317   3.701
19817W        W88180   5.895  31.424   0.289
19818W        W88181   5.209   0.881   1.246
19819W        W88182  13.742  13.112  10.906
19820W        W88183  31.007  10.338   0.861
19821W        W88184  39.884  30.462  11.530
19822W        W88185  29.939  28.075   1.889
19823W        W88186  16.685  16.170   0.797
19824W        W88187  18.596  11.696   3.679
19825W        W88188  42.798   1.394  13.490
19826W        W88189  23.999   0.480   1.726
19827W        W88190  42.016  37.517   3.866
19828W        W88191  28.520  16.620  12.523
19829W        W88192  38.969  40.926   4.611
19830W        W88193  16.611  10.832   3.180
19831W        W88194  15.226  21.558  10.441
19832W        W88195  36.402  10.251   3.642
19833W        W88196  38.906   1.819  13.411
19834W        W88197  42.918  18.745   3.233
19835W        W88198   3.361  36.392  11.044
19836W        W88199  21.114  22.056   0.897
19837W        W88200   2.419  42.916   4.728
19838W        W88201  38.343   0.882   4.601
19839W        W88202   4.229   1.747   3.725
19840W        W88203  31.603  11.286  13.890
19841W        W88204  10.168  33.416   1.751
19842W        W88205  27.491  42.002  11.968
19843W        W88206  20.122  10.778   2.889
19844W        W88207  22.663  25.591  11.861
19845W        W88208  33.992  13.740  11.570
19846W        W88209  39.038  40.923  11.536
19847W        W88210  40.894  27.040  12.432
19848W        W88211  25.062   4.313   3.317
19849W        W88212  16.574  20.666  12.939
19850W        W88213   6.311  43.497   4.167
19851W        W88214   8.760  26.054  12.844
19852W        W88215   6.194  30.413  13.935
19853W        W88216  29.008   8.857  11.472
19854W        W88217  37.936  24.518   3.207
19855W        W88218  18.711  15.584   1.927
19856W        W88219   9.172  42.028  13.533
19857W        W88220  34.907  12.763  14.928
19858W        W88221  25.636  41.393  11.870
19859W        W88222  26.655  39.452  12.559
19860W        W88223  43.825  26.970  12.046
19861W        W88224   8.281  42.428   0.374
19862W        W88225  21.058   5.345   3.806
19863W        W88226  24.986  26.599   1.877
19864W        W88227  28.537  39.418  10.436
19865W        W88228  40.315  11.780   4.175
19866W        W88229   6.821  32.440  14.863
19867W        W88230  29.044  42.322   3.651
19868W        W88231  37.370  23.080   3.803
19869W        W88232   7.702  31.505   3.350
19870W        W88233  27.016  32.637  13.492
19871W        W88234  43.398   5.308   4.205
19872W        W88235  13.694   4.388  11.593
19873W        W88236  44.795   4.838   1.827
19874W        W88237  31.523   1.429   1.868
19875W        W88238  24.595  22.188   2.712
19876W        W88239  13.217  37.573   1.860
19877W        W88240  37.383  19.662  12.961
19878W        W88241  29.521  33.583  11.977
19879W        W88242  16.708  15.225  11.445
19880W        W88243  10.326  19.147  13.320
19881W        W88244   3.947  34.573   4.228
19882W        W88245   5.729   3.345   0.857
19883W        W88246  19.217   0.291   4.791
19884W        W88247  41.502   6.213   0.336
19885W        W88248  22.601  32.044   2.300
19886W        W88249  30.651  17.706  12.011
19887W        W88250  15.197  38.338  11.128
19888W        W88251   8.203  39.552   0.373
19889W        W88252  15.305  31.485  13.397
19890W        W88253  13.300  11.645   3.824
19891W        W88254  33.600  32.947  14.449
19892W        W88255   9.380  27.969  13.424
19893W        W88256  35.858  13.730  10.924
19894W        W88257  20.704   2.239   1.336
19895W        W88258  36.563  18.272   2.354
19896W        W88259  26.207  34.431  10.437
19897W        W88260   4.270  24.129  10.574
19898W        W88261  26.054  24.498   0.749
19899W        W88262  17.094   7.268  10.509
19900W        W88263   5.830   7.713  12.355
19901W        W88264  24.132  19.676   0.421
19902W        W88265  11.352  26.206  11.373
19903W        W88266   7.790  37.449   2.744
19904W        W88267  15.302  29.523   0.265
19905W        W88268  24.997  26.533  12.433
19906W        W88269  20.746  44.410  14.941
19907W        W88270   3.361   6.310  12.972
19908W        W88271  29.060   6.889   3.802
19909W        W88272  22.192  22.664   1.342
19910W        W88273  34.006  34.952   3.728
19911W        W88274  10.676  42.473   1.334
19912W        W88275   4.734  30.138   3.804
19913W        W88276  13.693  22.683   3.780
19914W        W88277   9.212  27.067   0.354
19915W        W88278  23.636  21.636   1.400
19916W        W88279  24.180  17.626  12.947
19917W        W88280  16.085  29.935   1.401
19918W        W88281  39.866  32.629   3.824
19919W        W88282  29.996  27.094  13.959
19920W        W88283  42.306  22.119   2.198
19921W        W88284  39.386  38.451   4.338
19922W        W88285  43.290  38.910  14.837
19923W        W88286   6.921  37.517   4.793
19924W        W88287  27.654  36.018   1.935
19925W        W88288  16.655  33.496  12.475
19926W        W88289  24.718  39.832  13.509
19927W        W88290   4.811  41.964   4.773
19928W        W88291  32.126  40.889   1.707
19929W        W88292  21.646  41.798  10.405
19930W        W88293  15.742  32.139  12.827
19931W        W88294  20.105   1.750   1.704
19932W        W88295  17.250   4.742   0.416
19933W        W88296  32.981   5.250   1.922
19934W        W88297  35.994   9.255   3.736
19935W        W88298  30.054  10.854   0.441
19936W        W88299  44.274  19.228   2.762
19937W        W88300  29.070  34.906  11.018
19938W        W88301   5.259  33.413  12.865
19939W        W88302  21.183   2.966   4.207
19940W        W88303  10.669  34.981  14.434
19941W        W88304   7.230   4.812  13.319
19942W        W88305  35.104  20.067   1.790
19943W        W88306  12.238  14.309  11.867
19944W        W88307  22.174  35.497  12.863
19945W        W88308  38.890  29.996   2.820
19946W        W88309   6.299   6.877  13.375
19947W        W88310   7.885   0.277  14.764
19948W        W88311   4.301  34.555   0.918
19949W        W88312  17.760   5.260  10.621
19950W        W88313  33.094  24.601   0.383
19951W        W88314  36.536  28.933  13.807
19952W        W88315  19.232  41.817  13.378
19953W        W88316   5.775   9.694  11.455
19954W        W88317  39.011  16.746  12.946
19955W        W88318  40.968  20.244  12.476
19956W        W88319  27.061  44.843  10.569
19957W        W88320  44.353  28.654  14.376
19958W        W88321  26.603  17.111  13.856
19959W        W88322   5.348  36.376  14.836
19960W        W88323   9.701   3.886   2.348
19961W        W88324  10.200  26.146   4.601
19962W        W88325  27.068  15.214   3.695
19963W        W88326  15.586   4.862   4.205
19964W        W88327  33.067  23.528   3.222
19965W        W88328  29.642  12.129   4.748
19966W        W88329  37.908   2.423   2.182
19967W        W88330  16.129  43.951  12.996
19968W        W88331  15.623  43.434   4.682
19969W        W88332  32.030  43.766   3.263
19970W        W88333  42.434  25.044   3.669
19971W        W88334   4.882   3.894   2.307
19972W        W88335  13.189   3.773  10.467
19973W        W88336  10.863  23.053   4.309
19974W        W88337  35.528  21.033  14.294
19975W        W88338  24.063  30.568  13.869
19976W        W88339  39.952  10.703   1.260
19977W        W88340   9.847  41.844  10.450
19978W        W88341   1.755  31.988   1.211
19979W        W88342  21.581  13.186   2.324
19980W        W88343   3.239   9.343   3.700
19981W        W88344   4.321  29.018   3.633
19982W        W88345  32.057  26.013   3.820
19983W        W88346  33.625   0.417  12.893
19984W        W88347  10.211  31.132  10.613
19985W        W88348  10.309  30.636   5.268
19986W        W88349  22.242   3.816   3.643
19987W        W88350  24.974   5.212   1.268
19988W        W88351  29.472   8.655   1.225
19989W        W88352  21.018  10.229  11.927
19990W        W88353  32.425   3.930   4.149
19991W        W88354  22.028  19.166   4.834
19992W        W88355   5.295  26.477   4.206
19993W        W88356   9.341   5.233  10.910
19994W        W88357  13.715  44.999  11.106
19995W        W88358   9.712  24.633  10.979
19996W        W88359  24.001  31.955   0.303
19997W        W88360  24.147   8.833  14.445
19998W        W88361   9.305  32.061   4.773
19999W        W88362  39.044  17.670   0.867
20000W        W88363  17.742  22.712  10.561
20001W        W88364  18.053   0.810   0.427
20002W        W88365  12.675  44.759  12.501
20003W        W88366  16.126  18.730  13.437
20004W        W88367   5.766   1.900   1.220
20005W        W88368  38.562  17.209   2.212
20006W        W88369  11.797   6.887   3.812
20007W        W88370  15.598  43.829   3.270
20008W        W88371  38.331  13.304  11.424
20009W        W88372   5.854  14.167   0.465
20010W        W88373  44.784  27.687   1.818
20011W        W88374  36.900  11.177  13.049
20012W        W88375  37.483  17.767  13.433
20013W        W88376  34.615  28.124  12.550
20014W        W88377  21.610  20.109   3.670
20015W        W88378  23.701  43.364  11.435
20016W        W88379  27.056   9.731   2.901
20017W        W88380  35.013   0.445   5.246
20018W        W88381  22.669  34.002   3.330
20019W        W88382  32.101   3.777   1.256
20020W        W88383  11.231  32.472   3.350
20021W        W88384  33.978  36.846  11.598
20022W        W88385  14.109  39.966   1.872
20023W        W88386  43.904   3.745   1.810
20024W        W88387  17.724  24.097   2.836
20025W        W88388   7.886   5.777  11.471
20026W        W88389   6.182   5.859  10.475
20027W        W88390  22.214   0.424  13.855
20028W        W88391   3.276  42.466  14.460
20029W        W88392  42.282  13.798   2.186
20030W        W88393  20.091  31.957   5.101
20031W        W88394   4.904  38.954  11.375
20032W        W88395  21.597   1.750  14.978
20033W        W88396  30.595  32.072  13.062
20034W        W88397  10.183  32.114   4.642
20035W        W88398  38.474  23.700  13.444
20036W        W88399  11.683  24.141  14.293
20037W        W88400  21.245  16.095   3.771
20038W        W88401   1.326  13.679  13.876
20039W        W88402  37.356  41.914  11.017
20040W        W88403  17.294   5.702   3.259
20041W        W88404  10.704   1.799   5.232
20042W        W88405  23.604  35.370  11.065
20043W        W88406   3.764   3.928   3.669
20044W        W88407   6.710  35.542  11.112
20045W        W88408   7.875  20.155   2.375
20046W        W88409  37.348  43.484   0.920
20047W        W88410  22.112  24.613  14.305
20048W        W88411  41.992  36.395  12.017
20049W        W88412  37.559  20.552  14.837
20050W        W88413  10.670  12.804  14.301
20051W        W88414  23.123  28.002   3.866
20052W        W88415  31.622   2.964  12.394
20053W        W88416   4.754  11.786   4.305
20054W        W88417  30.993   8.229  11.013
20055W        W88418  25.584  42.338  14.427
20056W        W88419  43.480   4.263   0.820
20057W        W88420  15.766  30.652  12.025
20058W        W88421  29.537  34.897  13.366
20059W        W88422  22.132  28.588  13.905
20060W        W88423  10.718   3.778   3.825
20061W        W88424  23.186  17.660  14.488
20062W        W88425  29.085  39.022  14.946
20063W        W88426  29.459  15.309   4.785
20064W        W88427  15.717   3.278   0.849
20065W        W88428   9.675  11.185   2.221
20066W        W88429  41.315  34.014  14.015
20067W        W88430  17.098  43.958   0.848
20068W        W88431   7.283  27.552  14.298
20069W        W88432  17.673  16.732   1.884
20070W        W88433  21.512  44.794  12.007
20071W        W88434   7.343  31.612  13.363
20072W        W88435  34.064  20.198   4.183
20073W        W88436  42.304  20.115   2.261
20074W        W88437  12.822  32.514  12.964
20075W        W88438  38.853  26.653   1.230
20076W        W88439  23.076  27.474  12.912
20077W        W88440  36.095  28.486   0.904
20078W        W88441  28.489  26.661   4.233
20079W        W88442  25.063   7.823   0.251
20080W        W88443  19.691   1.239  10.600
20081W        W88444  10.657  19.576   4.278
20082W        W88445  23.169  43.991   2.362
20083W        W88446  32.096  13.782  13.974
20084W        W88447  16.254  44.460   0.785
20085W        W88448  30.960  10.797   2.696
20086W        W88449  12.225  10.694  10.901
20087W        W88450  27.488  12.344   3.802
20088W        W88451  35.581  23.014  12.416
20089W        W88452   8.894  31.048  14.784
20090W        W88453  35.521  40.493  12.844
20091W        W88454   6.725  17.246  10.501
20092W        W88455  19.568  15.085  11.524
20093W        W88456  22.151  24.040  13.060
20094W        W88457   1.922   2.408  11.061
20095W        W88458  13.197   6.215  13.897
20096W        W88459   6.409   2.411  14.899
20097W        W88460   7.375  37.420   3.291
20098W        W88461  13.630   4.422  10.028
20099W        W88462  22.187  33.009   0.869
20100W        W88463  26.088   6.403  11.392
20101W        W88464   1.814   9.800   0.294
20102W        W88465  16.087  34.983   3.318
20103W        W88466  20.601  26.625   3.763
20104W        W88467   7.839  25.101   4.759
20105W        W88468  32.480   5.274  10.626
20106W        W88469  34.073  13.661   1.448
20107W        W88470  36.554  42.858  14.929
20108W        W88471  10.858  12.757  11.559
20109W        W88472  38.521  15.242   3.698
20110W        W88473   9.688  23.181  14.886
20111W        W88474  43.295  23.097  13.026
20112W        W88475  31.643  21.734  12.449
20113W        W88476  16.199  10.706  11.044
20114W        W88477   9.257   7.909   3.214
20115W        W88478  39.012  19.276  14.830
20116W        W88479  29.433  18.576   3.749
20117W        W88480  10.306  19.246   0.900
20118W        W88481  20.228  29.052  14.371
20119W        W88482   6.851   5.325   4.673
20120W        W88483  44.935  23.159  13.533
20121W        W88484  43.451  26.547  12.483
20122W        W88485  17.209  21.028   0.809
20123W        W88486  33.440  28.942  10.082
20124W        W88487  17.117  42.345  13.345
20125W        W88488  26.180  13.217  12.428
20126W        W88489  27.042  29.163  11.129
20127W        W88490   6.217   7.679   2.777
20128W        W88491  37.899  36.947  12.074
20129W        W88492  33.070   5.708   2.708
20130W        W88493  22.096   2.456  11.042
20131W        W88494   0.294  13.123   0.779
20132W        W88495  18.238  11.650   4.206
20133W        W88496   2.831  37.017  11.067
20134W        W88497  34.535  29.505  11.383
20135W        W88498  25.506  10.821  10.625
20136W        W88499  11.198  44.437  10.415
20137W        W88500   8.389  33.072   2.704
20138W        W88501   1.310  29.964  10.515
20139W        W88502  29.125   4.746   1.796
20140W        W88503  27.536  23.648  14.342
20141W        W88504  42.368  37.857   2.385
20142W        W88505   7.789  15.663   4.776
20143W        W88506  16.727  15.295  13.358
20144W        W88507  13.643   0.344   1.847
20145W        W88508  22.032  23.089   2.280
20146W        W88509   5.305  18.703   2.877
20147W        W88510  13.318   1.434   1.233
20148W        W88511  38.060  34.397   4.831
20149W        W88512  18.727  38.988   9.949
20150W        W88513  21.184  37.482  10.903
20151W        W88514  40.311  32.468  12.516
20152W        W88515  35.407  10.819  11.400
20153W        W88516  14.764  17.112  11.531
20154W        W88517   8.393  37.897   2.827
20155W        W88518  20.646  39.041  10.463
20156W        W88519  41.827   3.403   3.177
20157W        W88520  44.856  30.520  12.841
20158W        W88521  29.138  21.611   3.196
20159W        W88522  12.305   8.854   1.443
20160W        W88523  13.601  37.057   4.247
20161W        W88524  38.552  44.504  14.918
20162W        W88525   1.803  37.454   4.617
20163W        W88526  12.797  44.907  13.329
20164W        W88527  17.120  16.186  13.902
20165W        W88528  36.965  38.901  11.391
20166W        W88529  35.884  37.455  12.052
20167W        W88530  27.681  15.816  12.519
20168W        W88531  28.996  44.333   1.229
20169W        W88532   3.792  41.033   0.813
20170W        W88533  18.220   7.668   0.287
20171W        W88534  42.860  31.466   3.774
20172W        W88535  27.496  38.494   1.283
20173W        W88536  29.067   6.221   3.791
20174W        W88537  17.681  30.657  14.018
20175W        W88538   3.298  11.272   3.694
20176W        W88539   4.424  10.319   1.305
20177W        W88540  30.111  41.359  10.893
20178W        W88541   5.883  25.172  14.895
20179W        W88542  14.609  27.945  12.076
20180W        W88543  39.341  42.386   0.314
20181W        W88544   8.203   3.284   1.746
20182W        W88545  13.137  19.596   3.332
20183W        W88546  42.384  32.984  14.347
20184W        W88547  29.552   1.774  10.465
20185W        W88548  21.097   8.273  11.999
20186W        W88549  30.972  12.704  12.006
20187W        W88550  34.568  44.269  14.803
20188W        W88551  32.476  26.167  14.893
20189W        W88552  27.130  21.087   4.334
20190W        W88553  15.667  32.980   2.664
20191W        W88554   7.890  17.597  14.982
20192W        W88555  10.322  20.617   0.727
20193W        W88556  42.301  39.017   0.837
20194W        W88557  31.099   7.810  12.507
20195W        W88558   1.244  36.090  12.005
20196W        W88559   2.727  13.796   2.244
20197W        W88560  16.233  35.064   0.354
20198W        W88561  27.975   9.701  10.448
20199W        W88562  13.841   2.857   1.442
20200W        W88563   2.337  11.258   2.870
20201W        W88564  27.152  14.324   9.928
20202W        W88565   1.822  25.636  13.816
20203W        W88566  23.709  29.921  13.900
20204W        W88567  10.721  44.828  13.053
20205W        W88568  43.459  15.127   1.274
20206W        W88569  30.995  40.356  11.432
20207W        W88570   2.807  12.268  12.053
20208W        W88571  39.331  21.070   4.244
20209W        W88572  31.913  27.038  14.369
20210W        W88573  22.008  16.606  12.093
20211W        W88574   7.275  11.145   2.869
20212W        W88575  43.334   8.823  10.438
20213W        W88576  15.083  15.646  11.440
20214W        W88577  41.398  22.996   3.744
20215W        W88578  36.461  34.514  10.011
20216W        W88579  37.558  23.027  13.845
20217W        W88580  43.919   2.273  13.949
20218W        W88581   1.931   1.290  10.988
20219W        W88582   8.266  40.351   1.445
20220W        W88583  26.007  25.163   2.407
20221W        W88584  34.872  11.257  13.930
20222W        W88585  11.835   9.815  12.486
20223W        W88586   2.925  28.578   3.148
20224W        W88587  44.493   0.270  12.492
20225W        W88588   5.887  12.835   4.284
20226W        W88589  37.053  34.906  12.495
20227W        W88590  33.025  39.859  14.323
20228W        W88591  12.800  16.611  12.923
20229W        W88592  30.462  44.849  12.978
20230W        W88593  22.688   5.887  10.057
20231W        W88594  42.293  17.078  14.387
20232W        W88595   9.712  34.058  14.455
20233W        W88596  18.680  40.942   3.239
20234W        W88597  13.749   8.685   0.815
20235W        W88598  12.270  10.332  13.395
20236W        W88599  44.487  28.536  12.846
20237W        W88600  26.080  21.130   4.742
20238W        W88601  21.233  17.154  10.585
20239W        W88602  10.329   8.220  12.001
20240W        W88603   8.793  19.574  11.442
20241W        W88604   1.818   1.247  14.351
20242W        W88605  19.578  10.217  12.970
20243W        W88606  31.610  17.225  13.924
20244W        W88607  38.495  12.656  13.972
20245W        W88608   7.704  33.057  11.101
20246W        W88609  23.587  32.933  12.038
20247W        W88610   7.739  36.059  11.859
20248W        W88611   6.849  41.886   4.636
20249W        W88612  17.214  33.882   3.287
20250W        W88613  31.640   8.898  10.933
20251W        W88614  18.098  33.623   1.727
20252W        W88615  21.599  12.310  11.859
20253W        W88616  35.489  27.463   0.271
20254W        W88617   0.962  24.487   3.737
20255W        W88618  24.017  40.805   2.375
20256W        W88619  10.718  43.314   4.201
20257W        W88620  38.425  31.636   0.432
20258W        W88621  39.342  36.381   1.379
20259W        W88622  16.267  44.753   2.859
20260W        W88623  16.147   6.194  14.862
20261W        W88624  13.267  30.454  11.953
20262W        W88625   9.179   2.273   3.712
20263W        W88626  32.502  21.242  11.454
20264W        W88627  37.382  16.805   2.223
20265W        W88628   5.829  10.293   1.865
20266W        W88629  31.603  35.086   0.946
20267W        W88630  29.059  42.511   2.670
20268W        W88631  34.524   9.366  12.020
20269W        W88632   4.754  36.959  13.459
20270W        W88633  10.747  27.095  12.919
20271W        W88634  36.896  43.970  14.304
20272W        W88635   6.383   5.416  11.546
20273W        W88636   5.295  10.846   1.367
20274W        W88637   0.384  13.136  12.507
20275W        W88638  27.477   5.343   3.327
20276W        W88639  41.321  16.793  14.025
20277W        W88640   7.417  22.150  11.438
20278W        W88641  31.569   1.372   1.358
20279W        W88642   2.954  25.020   1.736
20280W        W88643  27.961  42.491  14.390
20281W        W88644  23.041  17.584   1.271
20282W        W88645  38.942   0.983  10.593
20283W        W88646  21.552  24.653  14.011
20284W        W88647  27.114  18.715  12.855
20285W        W88648  37.426  41.955   4.825
20286W        W88649  37.551  24.514   4.151
20287W        W88650  44.473  43.785  10.410
20288W        W88651  18.117   4.750   1.223
20289W        W88652  35.478  31.914  10.577
20290W        W88653  33.122  22.606  13.415
20291W        W88654  42.503  22.226   1.783
20292W        W88655  13.767   5.272  10.510
20293W        W88656   8.780   5.199  10.489
20294W        W88657  40.798   9.751   0.857
20295W        W88658  12.163   8.168  12.050
20296W        W88659   5.922  31.610  13.543
20297W        W88660   1.774   3.747   1.822
20298W        W88661  21.114  33.386   4.317
20299W        W88662   3.332  43.957   0.916
20300W        W88663  31.082  38.366  12.467
20301W        W88664  41.901  32.970  14.970
20302W        W88665  40.011  14.310  13.029
20303W        W88666  15.629  30.977   4.163
20304W        W88667  31.091  35.434  14.843
20305W        W88668  14.166  15.162  13.981
20306W        W88669   5.691   6.795  13.026
20307W        W88670  27.147  11.147  12.491
20308W        W88671   3.368  44.355  12.344
20309W        W88672  11.221  19.780   4.193
20310W        W88673  18.064   1.296  12.976
20311W        W88674  12.136   6.302  13.499
20312W        W88675  21.053   6.418   3.808
20313W        W88676  28.058  22.736  12.557
20314W        W88677  37.853  37.020   0.248
20315W        W88678  28.478  30.067   1.353
20316W        W88679   1.737   9.847   2.227
20317W        W88680  33.934   6.922   4.794
20318W        W88681  24.135  32.997   3.226
20319W        W88682  28.604  41.919  13.038
20320W        W88683  22.072  39.558  11.457
20321W        W88684  32.457  34.019   2.331
20322W        W88685  30.947  38.515   3.710
20323W        W88686   7.686  16.312  13.492
20324W        W88687   8.297   6.731   2.671
20325W        W88688  36.016  18.619   4.145
20326W        W88689  37.501  25.209   1.283
20327W        W88690  28.016   2.412   0.269
20328W        W88691  24.503  14.748   3.165
20329W        W88692  40.939   9.313   3.162
20330W        W88693  12.817  11.153   4.779
20331W        W88694  30.601  33.106  13.490
20332W        W88695  41.040  33.968   0.954
20333W        W88696  34.424  38.927   3.385
20334W        W88697  11.840  18.051   1.349
20335W        W88698  36.026   8.704  11.995
20336W        W88699  24.217   3.354  14.997
20337W        W88700  35.064  24.697   3.151
20338W        W88701  27.163  23.088  13.969
20339W        W88702  31.912   0.890  11.108
20340W        W88703  15.270  13.115  11.430
20341W        W88704  23.615  33.590  13.373
20342W        W88705  31.100  27.193   1.928
20343W        W88706  31.445  26.566  10.921
20344W        W88707  34.011  34.922   1.267
20345W        W88708  17.601  37.903   2.209
20346W        W88709   6.721  22.187   4.225
20347W        W88710  37.047  44.908  11.092
20348W        W88711  18.654   3.932   0.450
20349W        W88712  29.457  35.067   3.714
20350W        W88713  31.639  25.523  12.017
20351W        W88714   4.806  39.028   3.755
20352W        W88715   9.220  26.640  10.484
20353W        W88716  41.341  26.549  12.498
20354W        W88717  20.588  19.603  10.429
20355W        W88718   2.446  30.488   3.189
20356W        W88719  37.546  30.052  13.855
20357W        W88720  41.935  39.813  10.078
20358W        W88721  44.883  37.078   3.658
20359W        W88722  18.187  14.653  11.004
20360W        W88723  31.903  39.969   4.640
20361W        W88724  24.981  23.542   3.787
20362W        W88725   0.759  34.930   0.904
20363W        W88726  13.612  40.348   3.176
20364W        W88727  16.678   0.483   0.307
20365W        W88728  22.632  30.438   9.933
20366W        W88729   5.259  24.686   1.822
20367W        W88730  14.752  43.828  13.892
20368W        W88731   1.868  42.799   3.778
20369W        W88732   4.842  13.714  14.972
20370W        W88733  35.018  20.212  12.487
20371W        W88734   7.230  34.934  13.799
20372W        W88735   6.284  42.917   2.416
20373W        W88736  17.761  30.483   0.736
20374W        W88737   8.898   4.915   3.168
20375W        W88738  37.348   4.444  10.510
20376W        W88739   5.427  41.376   3.697
20377W        W88740   3.400  37.459   2.413
20378W        W88741  36.908  19.129  11.051
20379W        W88742  44.952  20.667   3.705
20380W        W88743  44.283  35.021  13.383
20381W        W88744  28.615  21.119  14.983
20382W        W88745  44.296  19.195   1.698
20383W        W88746  40.934  15.227  12.065
20384W        W88747  43.887  35.449  11.874
20385W        W88748  32.541  13.761   3.685
20386W        W88749  43.496  10.247   2.193
20387W        W88750  24.029   1.927  10.104
20388W        W88751   5.376  37.513  13.390
20389W        W88752  25.586  41.857  13.867
20390W        W88753  30.627  17.696   3.337
20391W        W88754  40.950  16.245   1.400
20392W        W88755  22.108  14.332   2.188
20393W        W88756  27.538  39.324  14.499
20394W        W88757   5.720  43.786  10.566
20395W        W88758  23.219  28.660  13.441
20396W        W88759   9.780  26.007   1.243
20397W        W88760   7.673   0.481  12.960
20398W        W88761   7.900  35.584   2.668
20399W        W88762  32.096   4.297  12.354
20400W        W88763  29.022  25.986  11.965
20401W        W88764   0.829  10.770   3.864
20402W        W88765  44.470  42.929   0.474
20403W        W88766  24.204  31.040   4.619
20404W        W88767  18.579  28.096  13.417
20405W        W88768  33.603  25.598   3.804
20406W        W88769  31.595   1.292   3.740
20407W        W88770  23.528  41.824  11.109
20408W        W88771  10.155  10.677   2.668
20409W        W88772  30.908   6.737  12.438
20410W        W88773  44.967  28.933   0.893
20411W        W88774  36.356  29.157  13.329
20412W        W88775  35.478  31.066  12.428
20413W        W88776  27.553  11.764  14.817
20414W        W88777  32.958  37.454  11.041
20415W        W88778   7.771  13.217  14.974
20416W        W88779  42.526  23.634   1.368
20417W        W88780   4.837  23.536  13.814
20418W        W88781  31.484  27.071   0.855
20419W        W88782  13.157  42.318   1.343
20420W        W88783  32.118  40.030   1.704
20421W        W88784  18.074  16.798  13.016
20422W        W88785  18.767  40.803  13.502
20423W        W88786  39.439  32.572  12.966
20424W        W88787  29.095  33.487   4.161
20425W        W88788   1.775  23.629  13.823
20426W        W88789  27.036   4.759  13.899
20427W        W88790  38.051  34.980  12.422
20428W        W88791  40.378  10.251   2.398
20429W        W88792   8.686  10.250  14.289
20430W        W88793  11.343  36.353   3.814
20431W        W88794  30.597  45.000  14.418
20432W        W88795   7.801   1.740  13.993
20433W        W88796  42.890   8.791   1.862
20434W        W88797  35.964  20.093   1.820
20435W        W88798  17.651  11.278   0.748
20436W        W88799  38.831  16.163   0.299
20437W        W88800  19.656  16.810  10.629
20438W        W88801   9.174  27.027   4.818
20439W        W88802  25.009  12.192  12.361
20440W        W88803  35.109  17.794  13.365
20441W        W88804  21.724  24.645  14.805
20442W        W88805  23.132  32.070   4.301
20443W        W88806  11.248  25.619  14.030
20444W        W88807  37.471   5.808  14.001
20445W        W88808  27.607  16.780   0.316
20446W        W88809  42.903  35.490   5.170
20447W        W88810  27.508  19.666  11.538
20448W        W88811   7.879  23.994  14.452
20449W        W88812   3.348  42.005  14.951
20450W        W88813   6.843  32.539  12.501
20451W        W88814  15.682  27.163  11.891
20452W        W88815  42.430  20.585  13.809
20453W        W88816  35.418   6.805   0.273
20454W        W88817  18.116  12.225  11.586
20455W        W88818  10.843  26.663   0.743
20456W        W88819  31.643  43.993   4.676
20457W        W88820  32.885   3.862   3.694
20458W        W88821  34.506  28.527  12.969
20459W        W88822  38.544  31.002   0.270
20460W        W88823  27.513  43.365  10.508
20461W        W88824  12.743   1.444   1.337
20462W        W88825  37.945  33.622  14.934
20463W        W88826  43.997  13.741   0.936
20464W        W88827  32.050  25.475   0.305
20465W        W88828   9.340   6.762   0.904
20466W        W88829  34.865  44.466  14.399
20467W        W88830  44.403  17.722   1.221
20468W        W88831  14.285  34.877   1.307
20469W        W88832   3.440   3.846   0.868
20470W        W88833   2.231  24.623  14.826
20471W        W88834  32.896  37.997   0.947
20472W        W88835  43.390  34.998  12.343
20473W        W88836  22.690  38.013   0.919
20474W        W88837   7.343  16.794   3.342
20475W        W88838  10.735  12.703   3.229
20476W        W88839   5.264  12.241   1.294
20477W        W88840  17.268  19.234  12.370
20478W        W88841  26.072  29.982   3.735
20479W        W88842   3.290  32.609  10.457
20480W        W88843   3.312   4.317  14.778
20481W        W88844   0.862  25.177   3.249
20482W        W88845  15.185  29.580  12.828
20483W        W88846  37.376  15.201  14.492
20484W        W88847  28.484  39.829   2.415
20485W        W88848   3.775  25.591   4.127
20486W        W88849  32.439  13.183  14.794
20487W        W88850  20.132  17.770  14.405
20488W        W88851  33.130  32.450  13.846
20489W        W88852  42.475   0.270  12.465
20490W        W88853  26.640  23.727   0.730
20491W        W88854  35.386  17.115   1.825
20492W        W88855  27.180  21.565  10.982
20493W        W88856  12.686  44.911   3.292
20494W        W88857  13.286  22.222  12.885
20495W        W88858  19.629  39.052   4.261
20496W        W88859  34.082  36.096   0.776
20497W        W88860  22.082  36.406  13.834
20498W        W88861  43.359  37.425   0.822
20499W        W88862  10.289   6.801  12.379
20500W        W88863  30.519  22.629   4.135
20501W        W88864  16.662  30.413   3.383
20502W        W88865   4.405  36.397   1.722
20503W        W88866   6.753  29.920   3.725
20504W        W88867  17.124  39.484  12.983
20505W        W88868   6.705  16.301  11.976
20506W        W88869  33.888  36.907   1.347
20507W        W88870  34.948  17.171  11.475
20508W        W88871  25.973   4.317  10.645
20509W        W88872  40.923  35.365  12.404
20510W        W88873  42.958   0.820   3.815
20511W        W88874  14.198  35.107  14.360
20512W        W88875  24.006  27.687  13.463
20513W        W88876  37.852   9.725  10.020
20514W        W88877  31.933  35.941   2.330
20515W        W88878  26.691  42.780  10.085
20516W        W88879  24.064  16.729  11.894
20517W        W88880   2.303  20.190  10.605
20518W        W88881  10.658  25.577   2.671
20519W        W88882  41.499   7.804   2.780
20520W        W88883  12.194  33.007   4.717
20521W        W88884  43.314  26.477   4.175
20522W        W88885  37.492   5.761  14.499
20523W        W88886  15.269  40.480   4.247
20524W        W88887  34.548  36.985   1.853
20525W        W88888  13.184  11.136   1.898
20526W        W88889  34.055  30.588   0.925
20527W        W88890   8.255  35.021  14.800
20528W        W88891  10.668  26.683  10.642
20529W        W88892  32.469  40.895   1.225
20530W        W88893   1.855   8.314   1.410
20531W        W88894  42.905  25.521  14.495
20532W        W88895   3.909  17.200   3.298
20533W        W88896  29.617  36.538   0.958
20534W        W88897  40.333  40.353  14.817
20535W        W88898  19.226  31.046   0.313
20536W        W88899   9.713   8.316  13.332
20537W        W88900  38.932  18.279  11.556
20538W        W88901  13.791  37.035   3.250
20539W        W88902  38.863   4.409  14.446
20540W        W88903  40.382   3.413   3.246
20541W        W88904  16.721  17.217  13.932
20542W        W88905  38.327  43.411   1.849
20543W        W88906  30.431  30.529  13.515
20544W        W88907  14.636   9.691   0.764
20545W        W88908  25.672  38.855   0.480
20546W        W88909  31.581  11.322  10.411
20547W        W88910  33.429   3.261   1.257
20548W        W88911   2.841  42.291  13.817
20549W        W88912  35.061  17.775  11.918
20550W        W88913  37.028  34.576   0.885
20551W        W88914  38.926   1.934   2.217
20552W        W88915  14.804  36.587  10.960
20553W        W88916  13.146  24.979   3.220
20554W        W88917  44.315  34.385   0.338
20555W        W88918   8.864   2.952  13.459
20556W        W88919  43.383  14.211  12.970
20557W        W88920  19.229   3.429  14.821
20558W        W88921  32.569  14.315  14.346
20559W        W88922  34.933  10.703  11.015
20560W        W88923   1.296  16.199   0.933
20561W        W88924   9.794  15.797   4.668
20562W        W88925  14.674  21.557  14.364
20563W        W88926  30.624  20.602   4.153
20564W        W88927  20.535  16.585   1.270
20565W        W88928  31.900  29.165  13.817
20566W        W88929  37.385   7.417   0.922
20567W        W88930  20.050  26.964  13.891
20568W        W88931  41.470   3.901  14.435
20569W        W88932  15.184  14.812   3.659
20570W        W88933  31.991  17.590   3.240
20571W        W88934  19.197  38.001   2.856
20572W        W88935   8.718  13.631  12.442
20573W        W88936  30.636  44.783   4.321
20574W        W88937  26.463   9.740  14.769
20575W        W88938   8.230  29.919  14.012
20576W        W88939  23.678  26.565  12.091
20577W        W88940   5.403  26.064   0.754
20578W        W88941   6.831  16.215   2.273
20579W        W88942  40.415  22.067   1.212
20580W        W88943  38.941  17.292   3.380
20581W        W88944  43.876  25.211  12.895
20582W        W88945  13.826   6.770   9.477
20583W        W88946  38.435   8.752   3.756
20584W        W88947  25.013  24.496  10.438
20585W        W88948  40.941   7.176   4.838
20586W        W88949  28.065  28.556   2.794
20587W        W88950   6.850  13.134   4.719
20588W        W88951   1.767   8.773   0.249
20589W        W88952  12.205   3.847   4.181
20590W        W88953  14.128  12.672   3.738
20591W        W88954   6.886   2.874  11.028
20592W        W88955   3.769  14.122   3.216
20593W        W88956  34.996  31.496   0.839
20594W        W88957  41.328  39.024   5.254
20595W        W88958  22.709  36.956   0.775
20596W        W88959   8.208   5.736  13.826
20597W        W88960  12.674  38.072  12.831
20598W        W88961  18.088  21.708  10.526
20599W        W88962   2.894  44.886  12.932
20600W        W88963  39.821  34.901   0.396
20601W        W88964  12.821  17.725  13.956
20602W        W88965  30.076   9.290   4.698
20603W        W88966  13.654  28.027  14.326
20604W        W88967  41.884   8.720  10.562
20605W        W88968  27.999   0.835  12.521
20606W        W88969  19.248  10.305   3.191
20607W        W88970   8.165  43.339  10.949
20608W        W88971   7.354   0.881   2.370
20609W        W88972  38.483  11.813   3.730
20610W        W88973   0.333  12.740  14.782
20611W        W88974  33.490  24.602  13.520
20612W        W88975  14.731   4.331   2.881
20613W        W88976  25.640   2.323  13.465
20614W        W88977   0.762  38.535   2.402
20615W        W88978   9.784  41.516   0.436
20616W        W88979  22.572  35.929  11.014
20617W        W88980   2.752  25.695  10.979
20618W        W88981  25.614   0.914   1.750
20619W        W88982  34.422   7.812   0.850
20620W        W88983  26.203  25.710   0.964
20621W        W88984  19.238   4.902  10.429
20622W        W88985   4.357  25.577  10.452
20623W        W88986   6.710  17.615   2.368
20624W        W88987  35.364  24.154  14.889
20625W        W88988  31.099  25.502  11.529
20626W        W88989  13.178   2.350   4.623
20627W        W88990  19.244  22.557  14.005
20628W        W88991  10.302  39.317   3.667
20629W        W88992  30.908  36.985  12.454
20630W        W88993  39.532  35.563   3.355
20631W        W88994  41.940  23.093   3.867
20632W        W88995  14.708  19.660  10.948
20633W        W88996  12.356  24.713  13.917
20634W        W88997  39.345   4.236  14.830
20635W        W88998   7.184  40.941   3.740
20636W        W88999  44.421  28.131  12.393
20637W        W89000  31.109   1.976  13.930
20638W        W89001  19.189  14.287   1.821
20639W        W89002  32.621   5.734   2.861
20640W        W89003  42.896  10.237   0.418
20641W        W89004  40.802  29.989   4.726
20642W        W89005  26.142  41.999   4.729
20643W        W89006  40.503  11.840   1.394
20644W        W89007   3.241  33.426   0.880
20645W        W89008  16.774  21.034   5.218
20646W        W89009  19.133  13.132  10.471
20647W        W89010   1.839  29.002  14.819
20648W        W89011  29.553  41.364  14.954
20649W        W89012   6.406  23.056   3.781
20650W        W89013   2.883  40.837  13.837
20651W        W89014  39.477  31.468   2.778
20652W        W89015   0.744  30.536  10.566
20653W        W89016   5.819  10.674  11.424
20654W        W89017   8.896  36.415  12.051
20655W        W89018  28.966  11.709  11.983
20656W        W89019  39.853  29.168   1.274
20657W        W89020  15.181  31.028   3.384
20658W        W89021  19.560  15.679   0.869
20659W        W89022  31.011  43.278  10.619
20660W        W89023   4.211  13.803  12.905
20661W        W89024  22.680   7.380   4.691
20662W        W89025   1.877  15.732  14.410
20663W        W89026  21.613  21.160  11.443
20664W        W89027   7.306  41.978   3.379
20665W        W89028  34.945   7.696   1.443
20666W        W89029   9.737   2.884   1.895
20667W        W89030  15.261  32.918   0.280
20668W        W89031   9.676  20.103  10.531
20669W        W89032  24.712  15.245  12.076
20670W        W89033  36.473   5.741  13.910
20671W        W89034  25.159   7.669   2.348
20672W        W89035  38.911   0.984   1.809
20673W        W89036  43.777   3.324  11.948
20674W        W89037  13.131  30.153   4.252
20675W        W89038  22.060   8.801   4.139
20676W        W89039  32.420  43.952  13.853
20677W        W89040  34.396  16.190   0.727
20678W        W89041   2.354  21.080  14.480
20679W        W89042  39.376  10.686   4.304
20680W        W89043   4.754  33.563  10.997
20681W        W89044  14.802  16.706   2.195
20682W        W89045   9.876   4.368  12.901
20683W        W89046  12.315  41.314   0.727
20684W        W89047  22.564   9.731  14.828
20685W        W89048  18.173  36.347  14.765
20686W        W89049  44.395  10.381  10.637
20687W        W89050  21.544  39.389   0.395
20688W        W89051  15.199  29.563  10.472
20689W        W89052   4.389  28.045   2.241
20690W        W89053   9.889  12.798  13.369
20691W        W89054   2.752   5.705   2.756
20692W        W89055  12.828  14.148   1.822
20693W        W89056  24.086  13.218  11.910
20694W        W89057  43.392   3.771   4.821
20695W        W89058  36.542  38.824   2.391
20696W        W89059  38.964  18.691  12.444
20697W        W89060  13.255  22.636  14.828
20698W        W89061   7.672  32.962   4.192
20699W        W89062  43.942  17.784  10.621
20700W        W89063  26.988   5.812  13.434
20701W        W89064  24.093  27.679  11.054
20702W        W89065  21.526  22.176  13.921
20703W        W89066  32.474  27.551   1.933
20704W        W89067  33.938  11.216   0.779
20705W        W89068   8.693   9.662  13.873
20706W        W89069   3.924  31.576   3.845
20707W        W89070   5.833  29.449  14.842
20708W        W89071  40.807  41.920  13.523
20709W        W89072  31.010  30.935   2.342
20710W        W89073   7.198  34.611  12.887
20711W        W89074  35.376  26.493   2.697
20712W        W89075   1.968   5.282   3.833
20713W        W89076  10.232  40.961  12.013
20714W        W89077  20.769  20.129   1.414
20715W        W89078  33.881  30.164  10.492
20716W        W89079  18.624   0.319  14.402
20717W        W89080  25.563   6.363  10.154
20718W        W89081  20.608  28.040   1.350
20719W        W89082  44.495   6.914   2.725
20720W        W89083  42.483  42.824   3.287
20721W        W89084  19.767  11.359   3.289
20722W        W89085  15.131  28.667  14.954
20723W        W89086  15.675  43.419   3.220
20724W        W89087  16.304   2.306   1.288
20725W        W89088  16.657  17.729  12.422
20726W        W89089   3.309  19.193  12.949
20727W        W89090   8.661  41.009   4.294
20728W        W89091   1.821   9.263   2.783
20729W        W89092  14.653  20.086  14.922
20730W        W89093  39.477  18.661  14.339
20731W        W89094  15.098  17.072  11.413
20732W        W89095  34.533  41.960   2.689
20733W        W89096  44.323  41.862  13.929
20734W        W89097  40.902  38.363  13.998
20735W        W89098  35.082   5.210   3.165
20736W        W89099  10.203  26.993  12.998
20737W        W89100  33.531   2.346   4.620
20738W        W89101  34.435  34.582   0.900
20739W        W89102   6.240  11.805   1.400
20740W        W89103  39.032  16.103   2.820
20741W        W89104  17.702   6.264  12.420
20742W        W89105   9.761  38.076   2.406
20743W        W89106  13.336  44.010  11.477
20744W        W89107   2.834  30.539  10.958
20745W        W89108  18.744  37.515  12.527
20746W        W89109   6.370  11.640  13.487
20747W        W89110  14.759   8.248   2.183
20748W        W89111   3.945   7.191   4.230
20749W        W89112   0.873  19.133   4.634
20750W        W89113   8.725  26.671   1.708
20751W        W89114  32.941  14.291  13.966
20752W        W89115  14.811  32.588   4.717
20753W        W89116   6.859  39.955  13.793
20754W        W89117  34.900  35.546   4.181
20755W        W89118  25.710  36.485   0.292
20756W        W89119  38.020  44.893  11.939
20757W        W89120  41.800  13.202  14.823
20758W        W89121  43.317  44.975   4.223
20759W        W89122  20.066  42.296   1.297
20760W        W89123   8.211  18.056  12.376
20761W        W89124  13.833   0.412  13.367
20762W        W89125   4.940  42.936   2.378
20763W        W89126  20.556  11.198  11.551
20764W        W89127  44.384   9.377  13.512
20765W        W89128  42.789  22.698   2.763
20766W        W89129  21.054   8.874  11.062
20767W        W89130   4.424  34.987   1.845
20768W        W89131  42.366   9.271   4.817
20769W        W89132  10.819  26.156   2.404
20770W        W89133  30.653  13.118  11.989
20771W        W89134  13.646  10.802  13.450
20772W        W89135   8.165  40.500  11.516
20773W        W89136  14.312   2.914   4.139
20774W        W89137  21.645  31.522   3.850
20775W        W89138   9.383  30.018   3.860
20776W        W89139  13.670  41.422  10.549
20777W        W89140  26.192   7.252  12.950
20778W        W89141  28.108   7.673  13.370
20779W        W89142  21.141   3.297   2.814
20780W        W89143  25.580  36.527  10.894
20781W        W89144  27.061  21.684   2.238
20782W        W89145  43.875  18.706  10.412
20783W        W89146  32.946   6.285   2.859
20784W        W89147   9.702  27.507   1.755
20785W        W89148  31.108  11.359   3.267
20786W        W89149  40.925  42.778  13.908
20787W        W89150  43.879  40.833   2.862
20788W        W89151   1.399  18.669   0.864
20789W        W89152  39.978  13.207  11.533
20790W        W89153  39.825  33.062   3.799
20791W        W89154  41.037  24.610   4.665
20792W        W89155  17.150  42.438   3.656
20793W        W89156  31.449  29.097  12.834
20794W        W89157  36.467  25.116  13.316
20795W        W89158  23.123  32.101  12.572
20796W        W89159  33.567  36.012   3.709
20797W        W89160   3.414  12.737  14.905
20798W        W89161  12.351  25.094   2.780
20799W        W89162   8.858   5.896   2.694
20800W        W89163  37.499   5.808  12.948
20801W        W89164   4.322   5.387   3.353
20802W        W89165  37.452  39.940  11.391
20803W        W89166   4.753  19.700   4.175
20804W        W89167  26.126  17.177   0.783
20805W        W89168   2.423  21.511  12.408
20806W        W89169  31.000   4.889  10.069
20807W        W89170  42.380  26.975  14.501
20808W        W89171  13.189  12.334  10.611
20809W        W89172   9.241  15.792   2.387
20810W        W89173  17.669  23.702   0.403
20811W        W89174  43.423   5.372   2.734
20812W        W89175   1.413  10.773  13.813
20813W        W89176  16.712  31.986  10.109
20814W        W89177   5.828  41.954   4.669
20815W        W89178   4.275   8.190   2.685
20816W        W89179  17.705  36.069  10.558
20817W        W89180  33.439  36.461  12.830
20818W        W89181  23.024  44.962  12.972
20819W        W89182   4.905   2.316  14.498
20820W        W89183  44.763  19.115   0.778
20821W        W89184  16.699   3.783  10.594
20822W        W89185   1.839  27.959  14.864
20823W        W89186  30.646  40.522   0.768
20824W        W89187  25.203  39.388   4.786
20825W        W89188  44.908  22.210   3.685
20826W        W89189   5.758  11.304  11.522
20827W        W89190  31.941   6.904   4.626
20828W        W89191   2.739   4.862   3.351
20829W        W89192  34.547  43.424  12.921
20830W        W89193   7.800  23.135  13.905
20831W        W89194  36.088  10.251   0.963
20832W        W89195  34.370  16.749  12.391
20833W        W89196  25.661   2.407  11.420
20834W        W89197  43.984  13.179  11.861
20835W        W89198   2.238  28.113   2.273
20836W        W89199  14.636  20.180   0.879
20837W        W89200  31.110  11.151  13.366
20838W        W89201  44.321   9.164   0.813
20839W        W89202   0.480  17.584  10.480
20840W        W89203  26.568  31.444   4.258
20841W        W89204   5.924  19.705  11.948
20842W        W89205  30.650  21.582   0.904
20843W        W89206  19.778  37.036   4.742
20844W        W89207  36.566   9.253  10.564
20845W        W89208  40.472  21.028  10.053
20846W        W89209  26.520  37.078  11.536
20847W        W89210  16.103  15.811   5.102
20848W        W89211  23.039  29.935  13.055
20849W        W89212  19.116  20.062   4.130
20850W        W89213  41.019  14.740   3.791
20851W        W89214   2.228  40.316  11.477
20852W        W89215  40.979  13.818  14.772
20853W        W89216  32.914   6.891   0.962
20854W        W89217   2.380  25.572  14.313
20855W        W89218   1.416  11.744   3.759
20856W        W89219  30.018  21.020  14.496
20857W        W89220  36.958  19.637  12.977
20858W        W89221  11.805  16.665   1.889
20859W        W89222  30.953  20.151  12.359
20860W        W89223  22.028  23.613   0.817
20861W        W89224  29.578  35.050   4.645
20862W        W89225  21.558  24.201  12.032
20863W        W89226  13.300   8.280   0.780
20864W        W89227  29.603  38.969  12.998
20865W        W89228  30.468  32.120  11.044
20866W        W89229  20.634  13.195   4.642
20867W        W89230  44.832  21.208   3.163
20868W        W89231  19.092  19.696  14.399
20869W        W89232   0.851  15.279   3.269
20870W        W89233  23.734  32.005   0.819
20871W        W89234  13.740  29.445   3.260
20872W        W89235  14.796  10.671  13.492
20873W        W89236  44.262  41.368  10.544
20874W        W89237  20.070  22.205   3.780
20875W        W89238  34.091  12.827   1.879
20876W        W89239  31.950  41.306  10.466
20877W        W89240  10.203  18.084   3.255
20878W        W89241  32.412  35.023   4.262
20879W        W89242   0.964  12.753  12.031
20880W        W89243  27.140  22.661  11.983
20881W        W89244  30.984  26.545  14.827
20882W        W89245   5.343  24.622   0.947
20883W        W89246  27.031  23.077  11.565
20884W        W89247  20.696  25.680  13.544
20885W        W89248  44.453  27.559  10.484
20886W        W89249  19.567  31.423   1.420
20887W        W89250  29.662  25.681  10.575
20888W        W89251  11.716  25.032   4.192
20889W        W89252  30.559   1.240   3.762
20890W        W89253  16.699  17.129   4.755
20891W        W89254  33.052  13.188  13.526
20892W        W89255  31.994   4.293  11.496
20893W        W89256  28.559  30.600   0.318
20894W        W89257  44.353   9.756   2.254
20895W        W89258  41.491  34.606  14.371
20896W        W89259  24.001  11.255  11.379
20897W        W89260   5.828  31.609  14.503
20898W        W89261   3.282  22.241   4.273
20899W        W89262  22.219  19.675   0.441
20900W        W89263  21.523  43.841   1.766
20901W        W89264  19.279  12.301   2.743
20902W        W89265  42.296  32.920  11.943
20903W        W89266  33.480  44.283   1.324
20904W        W89267   2.924  18.210  12.845
20905W        W89268  15.589   1.896   3.331
20906W        W89269   0.254   2.788   0.294
20907W        W89270  18.631  30.094  11.481
20908W        W89271  14.771  35.924   3.216
20909W        W89272   2.430  25.068  13.900
20910W        W89273  21.253   8.828   9.923
20911W        W89274  39.022  35.920   2.844
20912W        W89275   3.826   9.786  10.426
20913W        W89276  34.095   5.810   2.404
20914W        W89277  13.668  36.849  14.447
20915W        W89278   7.887  31.897   3.668
20916W        W89279  12.648  17.604  12.957
20917W        W89280  27.165   0.901  14.925
20918W        W89281  36.083  13.265   3.185
20919W        W89282  10.755  30.048  10.405
20920W        W89283  31.145  32.987  11.416
20921W        W89284  41.402  13.645  12.870
20922W        W89285   3.720  13.142   2.671
20923W        W89286  15.753  16.098   4.729
20924W        W89287   1.840  34.456  14.391
20925W        W89288  28.575  11.664   4.714
20926W        W89289  33.937   6.417   3.800
20927W        W89290  28.154  33.398  13.343
20928W        W89291  29.109  22.039  11.595
20929W        W89292  38.349  44.758  10.928
20930W        W89293  31.464  34.376  14.368
20931W        W89294  38.833  36.368  11.031
20932W        W89295  13.815  31.053   1.373
20933W        W89296  24.974   3.717   0.291
20934W        W89297  13.773   9.224  14.351
20935W        W89298  42.339   1.408   0.463
20936W        W89299  34.981  39.510   3.822
20937W        W89300  41.342  35.988  12.923
20938W        W89301  14.708  42.387  11.888
20939W        W89302  13.284  27.112  13.341
20940W        W89303  19.285  31.032   4.701
20941W        W89304  23.689  19.155   1.433
20942W        W89305  39.331  41.893   0.335
20943W        W89306  22.212  19.703   3.697
20944W        W89307   6.891  43.372   1.246
20945W        W89308   3.801  38.910   1.376
20946W        W89309  16.752  24.511  11.595
20947W        W89310  15.155  25.060   2.878
20948W        W89311  32.090  14.628  10.471
20949W        W89312  43.873  35.531   1.837
20950W        W89313   6.858  38.454   3.864
20951W        W89314  28.166  13.795   4.284
20952W        W89315   7.392  12.192   3.641
20953W        W89316  27.949  42.296   4.815
20954W        W89317  24.072   9.670  11.609
20955W        W89318  38.830  37.855  12.343
20956W        W89319  31.534  24.623  10.412
20957W        W89320  15.713  20.564   2.853
20958W        W89321   1.905  11.642   0.298
20959W        W89322   4.445   3.377   0.339
20960W        W89323   1.436  15.615   3.312
20961W        W89324   9.351   4.339   2.222
20962W        W89325  17.714  19.215   2.820
20963W        W89326  18.735  37.394   2.293
20964W        W89327  43.802  35.573  10.992
20965W        W89328   0.757  11.690   1.302
20966W        W89329  36.570  11.175  14.486
20967W        W89330  29.043  27.954  12.362
20968W        W89331  22.595  29.450   5.191
20969W        W89332  22.680  32.077  11.869
20970W        W89333   3.357  34.465   1.355
20971W        W89334  14.120  21.549  12.920
20972W        W89335   1.884  39.929   2.415
20973W        W89336  43.911  25.588  14.452
20974W        W89337  14.743   9.268   0.379
20975W        W89338   0.858   2.454  13.510
20976W        W89339  36.470   6.223  14.860
20977W        W89340   1.296  22.591   3.752
20978W        W89341  16.785   3.298   0.916
20979W        W89342  13.334  15.773  13.484
20980W        W89343  17.558  24.660   3.675
20981W        W89344  26.148  17.700   4.810
20982W        W89345  26.074  29.464  14.907
20983W        W89346  31.479  24.104  13.331
20984W        W89347  16.618  14.597  11.533
20985W        W89348   9.728  20.210  14.804
20986W        W89349  26.060  40.848  14.989
20987W        W89350  32.498  37.390  12.559
20988W        W89351  23.518   5.202   3.285
20989W        W89352  44.899  10.225   3.836
20990W        W89353  24.167  32.517  12.081
20991W        W89354  23.991   5.772   3.322
20992W        W89355  25.072  14.588  14.330
20993W        W89356  31.517  29.022  13.866
20994W        W89357  31.992   3.782   2.850
20995W        W89358  12.185  36.021   0.798
20996W        W89359  28.934  26.625   2.348
20997W        W89360  29.989  20.716   2.324
20998W        W89361  39.001  25.711  12.842
20999W        W89362  28.114   6.347   9.993
21000W        W89363  11.800  29.919   1.372
21001W        W89364  25.571  14.776   2.288
21002W        W89365  16.659   6.854  11.588
21003W        W89366  37.080  28.505   1.219
21004W        W89367  32.425  20.210  10.446
21005W        W89368  21.152  43.853   0.411
21006W        W89369  41.786  37.021  13.408
21007W        W89370  20.649  42.939   3.808
21008W        W89371  40.509  26.547  12.522
21009W        W89372  15.260  30.608   1.234
21010W        W89373  38.005  32.022   3.184
21011W        W89374  26.506  35.865  13.943
21012W        W89375  42.939  29.522  10.628
21013W        W89376  37.948  15.192   0.903
21014W        W89377  32.627  42.429   1.801
21015W        W89378  22.997  17.760   2.202
21016W        W89379  41.989  24.069   2.289
21017W        W89380  40.038  16.768   1.382
21018W        W89381  22.215   2.908  10.530
21019W        W89382  28.135   1.944  11.579
21020W        W89383  14.330  15.741   3.268
21021W        W89384  16.570  38.941  11.496
21022W        W89385   5.709   5.773   1.436
21023W        W89386  10.236   6.377  13.487
21024W        W89387  11.635  42.508   3.804
21025W        W89388  22.057  35.865   2.315
21026W        W89389  33.485  37.913   0.450
21027W        W89390  26.666  42.876  11.029
21028W        W89391  35.070  39.320  14.866
21029W        W89392  38.047  44.916   3.286
21030W        W89393  37.529  38.383   3.206
21031W        W89394  11.238  41.346  10.908
21032W        W89395  42.805   8.272   4.181
21033W        W89396  16.219  31.100   3.323
21034W        W89397  35.054  42.784  14.834
21035W        W89398   9.360  20.570  14.385
21036W        W89399  41.530  16.709  13.489
21037W        W89400   1.925  15.088  12.055
21038W        W89401  25.067  40.341  12.867
21039W        W89402  12.855  16.183   4.303
21040W        W89403  15.145  22.193   3.694
21041W        W89404  35.053  21.220   4.341
21042W        W89405  29.157  23.567  11.916
21043W        W89406  30.457  43.501   1.273
21044W        W89407  31.900  22.546   4.205
21045W        W89408   9.262  25.185   2.233
21046W        W89409  16.809  43.912  11.454
21047W        W89410  23.490  20.652  13.911
21048W        W89411  33.453  17.299  11.502
21049W        W89412  38.968  30.071  14.476
21050W        W89413  39.934  35.000  13.062
21051W        W89414  38.392  36.023  12.433
21052W        W89415  31.054  41.887   4.607
21053W        W89416  27.949  25.201   3.819
21054W        W89417  22.735  33.435   4.243
21055W        W89418  35.554  13.230  11.916
21056W        W89419  36.948  17.246  10.441
21057W        W89420  35.043  42.025  14.761
21058W        W89421  17.769  17.245   9.508
21059W        W89422  34.056   9.889  10.953
21060W        W89423  28.152  10.639  11.376
21061W        W89424  32.035  44.373   4.308
21062W        W89425  22.674  22.176   3.639
21063W        W89426  44.816   4.309   3.252
21064W        W89427  37.358  39.546  10.456
21065W        W89428  23.511  32.504  13.472
21066W        W89429   5.406   1.408  13.998
21067W        W89430  31.088  11.345  12.987
21068W        W89431  40.445  42.452   1.863
21069W        W89432  44.360  26.680  12.460
21070W        W89433  12.685  15.224   1.712
21071W        W89434   5.844  14.769  11.951
21072W        W89435  30.587   6.226   2.317
21073W        W89436  11.214  13.649  13.855
21074W        W89437  15.321  22.023   1.221
21075W        W89438  23.011  34.052   0.803
21076W        W89439  31.920   4.244  11.913
21077W        W89440  44.459  38.471  14.950
21078W        W89441  22.174  41.364   2.211
21079W        W89442  27.662  13.622  13.881
21080W        W89443  35.589  13.156   3.790
21081W        W89444  27.623   1.358  14.912
21082W        W89445  36.517  11.738  12.917
21083W        W89446   1.424  18.101   4.327
21084W        W89447  21.253  10.326   3.266
21085W        W89448  25.561  39.508  13.931
21086W        W89449  16.759   0.363   4.759
21087W        W89450  12.218  26.183  14.996
21088W        W89451   0.427  11.655  14.908
21089W        W89452  27.154  29.656   4.216
21090W        W89453  42.444  35.586   5.691
21091W        W89454  38.571  20.559   4.808
21092W        W89455  10.768  30.950  11.530
21093W        W89456  20.607   8.373  10.907
21094W        W89457   7.190  28.472   2.369
21095W        W89458  30.657  42.392  14.917
21096W        W89459  17.180  15.709   2.679
21097W        W89460  16.810  41.480   3.745
21098W        W89461  37.496  34.596   1.281
21099W        W89462  10.175  36.525   0.273
21100W        W89463  18.190  21.717  14.982
21101W        W89464   7.900  13.270   3.820
21102W        W89465  12.856   2.843  11.856
21103W        W89466   6.298  10.260  10.039
21104W        W89467  40.901  32.632  10.475
21105W        W89468   4.301   3.911  11.545
21106W        W89469  16.642  26.158   2.876
21107W        W89470  20.728  29.558  10.568
21108W        W89471  44.467   8.361  12.049
21109W        W89472   7.769   7.311  12.928
21110W        W89473  10.868  20.252  14.953
21111W        W89474   7.301  16.193  14.829
21112W        W89475  22.235  27.962  14.949
21113W        W89476  15.763  39.360  10.539
21114W        W89477   5.762  11.294  11.004
21115W        W89478  29.570  14.704  13.444
21116W        W89479  13.726  41.453   1.395
21117W        W89480  33.946  38.887  14.939
21118W        W89481  24.106  34.447  10.152
21119W        W89482  13.700  44.785  12.404
21120W        W89483  40.325  33.450  12.999
21121W        W89484   3.361  40.846  13.850
21122W        W89485  23.105   2.736  10.447
21123W        W89486  14.189  12.249  11.560
21124W        W89487  33.952   4.221  14.817
21125W        W89488  28.939  32.409   3.303
21126W        W89489  28.124  29.626  13.999
21127W        W89490   4.792  30.049  12.836
21128W        W89491   6.316   7.755  11.501
21129W        W89492  42.357  22.014   3.189
21130W        W89493  19.604  41.867   1.315
21131W        W89494  35.548  33.399   4.626
21132W        W89495  27.586  29.605   1.245
21133W        W89496  15.261  16.597  10.919
21134W        W89497  32.090  10.346  13.943
21135W        W89498  17.235  28.078  13.951
21136W        W89499  22.583  41.335   1.696
21137W        W89500  40.884  19.103   3.239
21138W        W89501  12.204  20.237   2.688
21139W        W89502   0.440  39.392   0.450
21140W        W89503  11.844  42.363  11.406
21141W        W89504  39.550  16.314  14.451
21142W        W89505  21.752  36.943   2.723
21143W        W89506  27.562  22.723   2.780
21144W        W89507  24.110  38.513   2.389
21145W        W89508  40.806  40.431   0.397
21146W        W89509  25.511  35.972   3.150
21147W        W89510  35.978  39.016  11.107
21148W        W89511  33.882  16.214  11.612
21149W        W89512  15.141  13.694  13.382
21150W        W89513  30.431  41.509   1.915
21151W        W89514  43.272   6.351   0.901
21152W        W89515  38.541  10.695   5.215
21153W        W89516   8.858   3.909  12.053
21154W        W89517   2.438  34.491  10.506
21155W        W89518  41.466  31.431  10.634
21156W        W89519  35.429   8.282  12.373
21157W        W89520  18.562   0.976  10.605
21158W        W89521  37.536  34.879  11.390
21159W        W89522  42.838  34.947  10.550
21160W        W89523  22.113  29.014   1.926
21161W        W89524   1.405  27.534  12.850
21162W        W89525   5.854  20.110  12.082
21163W        W89526   7.240  37.990   4.325
21164W        W89527  42.466   4.849  10.547
21165W        W89528   3.435  14.647  10.570
21166W        W89529  35.528  30.034   1.859
21167W        W89530  17.206   1.841   2.340
21168W        W89531   8.329  18.603  13.369
21169W        W89532  44.829  41.457  12.876
21170W        W89533   0.826  13.628   4.233
21171W        W89534   2.941  43.965   1.808
21172W        W89535  31.491  35.532   2.295
21173W        W89536  30.461  30.914   1.381
21174W        W89537  44.993  40.050  11.901
21175W        W89538  32.617  28.019   4.245
21176W        W89539  36.428  12.708   2.900
21177W        W89540  30.161  39.908   3.859
21178W        W89541  18.668  27.062  13.362
21179W        W89542  38.938  37.348  14.490
21180W        W89543  13.179  31.034  12.089
21181W        W89544   1.418  43.512  10.536
21182W        W89545  26.489  30.999   1.451
21183W        W89546  24.138  26.673   1.709
21184W        W89547  43.005   0.827  13.379
21185W        W89548  25.583  25.070  11.051
21186W        W89549  16.242  11.836  13.512
21187W        W89550  23.026  22.039  14.761
21188W        W89551  12.643  23.173   1.850
21189W        W89552  12.270  32.040   0.860
21190W        W89553  18.637   4.821  11.881
21191W        W89554  12.301  24.531  14.914
21192W        W89555   0.336  35.089  11.979
21193W        W89556  21.236   4.735   1.217
21194W        W89557  28.962  41.980  14.514
21195W        W89558   8.387  35.463  14.000
21196W        W89559  36.857   4.919   5.287
21197W        W89560  44.801   4.775   2.326
21198W        W89561  43.811  44.263  12.523
21199W        W89562  19.252  31.924  12.824
21200W        W89563  34.419  32.124  10.607
21201W        W89564   7.340   4.411   1.239
21202W        W89565   5.222   3.720  12.486
21203W        W89566  35.059  21.096  11.555
21204W        W89567  25.614   6.831   3.209
21205W        W89568  12.813  16.090  12.929
21206W        W89569   8.164   8.745  10.536
21207W        W89570  38.835   9.266   5.199
21208W        W89571  36.902  18.231  14.875
21209W        W89572  36.512  21.730   1.370
21210W        W89573  12.727  30.957   2.231
21211W        W89574  39.975   2.912   0.336
21212W        W89575  38.874  29.052   1.758
21213W        W89576  20.610  25.615  11.924
21214W        W89577  38.881  34.014   1.215
21215W        W89578  44.951  25.043  13.382
21216W        W89579  21.715  32.400  12.002
21217W        W89580  40.970  43.292   4.684
21218W        W89581  41.398  13.181   4.610
21219W        W89582  20.154  22.218  12.550
21220W        W89583  30.465  21.536  11.399
21221W        W89584   3.230  44.923  14.315
21222W        W89585  27.153  18.710  12.372
21223W        W89586  26.993   5.751  12.012
21224W        W89587  23.188  44.859   3.375
21225W        W89588  29.625  13.602   0.871
21226W        W89589  13.208  17.137   0.763
21227W        W89590  12.640  10.219   3.283
21228W        W89591  37.566  18.096   0.328
21229W        W89592   4.912  38.328  13.501
21230W        W89593  29.628  21.568  10.599
21231W        W89594  15.669  23.579   1.730
21232W        W89595   7.200   6.363  13.501
21233W        W89596  29.619   3.769   2.798
21234W        W89597  28.161  33.068   1.341
21235W        W89598   2.817  37.435   2.670
21236W        W89599  26.671   0.423  13.893
21237W        W89600   2.913  42.455   0.726
21238W        W89601  29.054  28.536   2.328
21239W        W89602  36.431  19.681  10.121
21240W        W89603  13.660   6.682  12.546
21241W        W89604  17.119  19.093  14.987
21242W        W89605   3.787  18.665  12.391
21243W        W89606  22.714   1.237  13.019
21244W        W89607  39.925  22.196   3.803
21245W        W89608  44.316  13.690  12.466
21246W        W89609  22.747  10.228   1.716
21247W        W89610  37.374   7.784   0.790
21248W        W89611   2.835  40.856  12.580
21249W        W89612  15.721  28.671   5.227
21250W        W89613  12.162  13.245   2.770
21251W        W89614  39.540  40.013  12.943
21252W        W89615  22.223  13.312   3.705
21253W        W89616  38.070  28.991   3.795
21254W        W89617  35.552  24.566  11.441
21255W        W89618  13.733  16.097  12.545
21256W        W89619   3.335  16.584  12.933
21257W        W89620  38.403   3.873   0.327
21258W        W89621  11.185  27.611   3.362
21259W        W89622  23.019  41.004  12.943
21260W        W89623  29.088  20.119  12.086
21261W        W89624  35.051  20.765  12.824
21262W        W89625  29.002   3.942  11.962
21263W        W89626  40.898  19.047   3.663
21264W        W89627  25.211  38.480  13.020
21265W        W89628   5.754  40.918   2.669
21266W        W89629  42.002  19.258  12.883
21267W        W89630   1.799  25.474   3.338
21268W        W89631  41.907  26.178  14.822
21269W        W89632  40.840   3.293  14.981
21270W        W89633  28.155  19.742   1.416
21271W        W89634  28.979  30.100   2.221
21272W        W89635  39.046  34.408   3.798
21273W        W89636  43.925   6.732   2.794
21274W        W89637  21.740   2.839  11.413
21275W        W89638  19.087  14.644   1.748
21276W        W89639  24.550  22.518   3.226
21277W        W89640  23.516   9.847   3.150
21278W        W89641  39.035  16.123  14.397
21279W        W89642  13.204  16.283  10.428
21280W        W89643  19.095  36.868  14.818
21281W        W89644  14.684  29.559   2.371
21282W        W89645  41.038  18.746   3.204
21283W        W89646  10.867  31.902  14.343
21284W        W89647   6.318  19.698  12.484
21285W        W89648  43.876  36.045   4.726
21286W        W89649  23.693  43.863  11.877
21287W        W89650   1.432  42.870   0.248
21288W        W89651   3.231  12.657   1.701
21289W        W89652  10.794   2.953  11.604
21290W        W89653   1.916  20.133  12.892
21291W        W89654  32.894  35.512  10.972
21292W        W89655  24.539  15.191  13.001
21293W        W89656  16.675  24.504   4.324
21294W        W89657   8.314  15.593  13.542
21295W        W89658  32.097  37.886   1.361
21296W        W89659  23.648   7.810   3.225
21297W        W89660  35.106   3.232  13.855
21298W        W89661   3.445   3.789   2.742
21299W        W89662  21.095  10.855  10.417
21300W        W89663  17.797  18.094   1.898
21301W        W89664  35.108  24.677   0.386
21302W        W89665  17.648  25.992  14.409
21303W        W89666  37.511  41.812   3.261
21304W        W89667  12.815  35.452   2.291
21305W        W89668  39.900  31.528   3.240
21306W        W89669  31.899  14.133   3.382
21307W        W89670  16.803  33.927   1.335
21308W        W89671   9.829  34.389  11.533
21309W        W89672  23.023  22.198   3.811
21310W        W89673  13.612  35.063  12.938
21311W        W89674  22.124  13.190  11.387
21312W        W89675  44.981  30.502   4.609
21313W        W89676   6.225  31.532   2.813
21314W        W89677  25.703  44.863  14.305
21315W        W89678  22.614  23.573   1.913
21316W        W89679  32.895  18.051   0.754
21317W        W89680  21.520   3.812   2.829
21318W        W89681  27.534   0.822   0.483
21319W        W89682  12.658  43.815  11.602
21320W        W89683  43.978   6.714   0.750
21321W        W89684  26.995  26.070   3.823
21322W        W89685  36.422  15.723   4.742
21323W        W89686  19.764  42.495   0.399
21324W        W89687  18.786  41.805  12.358
21325W        W89688   3.441  18.139   4.144
21326W        W89689  37.973  13.143   4.821
21327W        W89690  41.938   6.394  13.476
21328W        W89691   6.817  12.687   1.446
21329W        W89692  29.665  20.062  13.852
21330W        W89693  16.136  19.270   0.929
21331W        W89694  33.926   8.328   4.130
21332W        W89695  20.750   9.744   4.337
21333W        W89696  14.726  17.170   2.791
21334W        W89697  26.633  17.123   5.126
21335W        W89698  32.079  10.274   4.627
21336W        W89699  13.819  12.200  13.466
21337W        W89700   7.847   3.251   1.370
21338W        W89701  20.681  32.997  14.371
21339W        W89702  27.944  41.526  13.327
21340W        W89703  22.561  22.036   2.707
21341W        W89704  16.286  14.322   2.773
21342W        W89705  21.167  25.672   1.363
21343W        W89706  33.540   5.878  14.760
21344W        W89707  22.196  28.487   0.281
21345W        W89708  27.097  25.210  14.300
21346W        W89709  11.242   8.401  14.917
21347W        W89710  39.959  10.273   3.866
21348W        W89711  24.184   9.767  12.484
21349W        W89712  11.755  40.469   0.743
21350W        W89713  14.602   2.375   1.226
21351W        W89714  26.700  17.248   1.279
21352W        W89715  27.139  24.664   1.707
21353W        W89716  28.650  34.389  14.439
21354W        W89717  38.073   0.753  10.424
21355W        W89718   0.388  26.493   5.214
21356W        W89719   7.704  31.633  14.386
21357W        W89720  23.227   1.774  10.436
21358W        W89721  14.148  20.032   4.319
21359W        W89722  42.998  18.052  12.531
21360W        W89723  27.589  16.619   1.866
21361W        W89724  40.825  25.508  14.384
21362W        W89725  42.380  42.281  10.934
21363W        W89726  11.814  38.051   2.718
21364W        W89727   6.247  40.511  14.918
21365W        W89728  13.255  41.399   0.273
21366W        W89729  44.927   6.357  10.958
21367W        W89730  17.077  32.511  14.438
21368W        W89731  24.105  20.036  11.979
21369W        W89732   3.347  41.926   4.668
21370W        W89733  13.145  21.585   1.343
21371W        W89734  39.822  26.551   3.765
21372W        W89735  14.597  13.657  13.935
21373W        W89736  40.344  13.131  14.998
21374W        W89737  10.761  40.924  13.483
21375W        W89738  39.376  16.630  13.482
21376W        W89739  13.224  36.576   0.411
21377W        W89740  27.196  38.003   3.290
21378W        W89741  34.403  39.054  13.927
21379W        W89742  18.724  12.171   1.322
21380W        W89743  33.538  14.790  14.303
21381W        W89744  44.400   5.825  14.453
21382W        W89745   3.225  28.478   4.702
21383W        W89746  24.621  33.581   3.231
21384W        W89747  38.983  41.961  12.920
21385W        W89748  41.341  20.555  14.998
21386W        W89749  15.823  29.025  14.483
21387W        W89750  37.557  17.257  14.791
21388W        W89751  27.980   7.890  11.412
21389W        W89752  23.221  36.935  10.475
21390W        W89753  41.895  21.552  11.389
21391W        W89754   2.260   5.424   0.778
21392W        W89755  26.966  12.645  11.566
21393W        W89756  36.447   0.348   3.823
21394W        W89757  41.866  19.209  11.068
21395W        W89758  13.263  15.260  12.381
21396W        W89759  14.195   2.891  14.314
21397W        W89760  30.029  20.155  14.323
21398W        W89761  13.325  42.331   3.718
21399W        W89762  38.439  29.449   2.838
21400W        W89763  42.427  44.965  11.963
21401W        W89764   2.891  44.448  14.363
21402W        W89765  33.393  28.037   0.435
21403W        W89766  42.905  26.165   4.705
21404W        W89767  33.060  20.038  13.400
21405W        W89768   0.963   7.413   0.828
21406W        W89769  28.077  24.705   1.837
21407W        W89770  12.675  28.111   4.646
21408W        W89771  38.844   0.750  12.074
21409W        W89772   6.274  32.129  13.315
21410W        W89773  35.002  44.784   4.320
21411W        W89774  32.393  42.794   0.937
21412W        W89775  23.677   8.864  11.962
21413W        W89776  44.814  21.738  10.433
21414W        W89777   4.911  40.884   1.901
21415W        W89778  43.994  40.967  12.512
21416W        W89779  18.766   9.285   0.358
21417W        W89780  41.965  16.092  11.080
21418W        W89781   2.757  10.660  10.574
21419W        W89782  29.063   7.197  14.333
21420W        W89783  33.594  44.758   1.314
21421W        W89784  39.325  32.080   4.764
21422W        W89785  43.352   8.189   4.727
21423W        W89786  42.934  14.723  14.918
21424W        W89787   7.321  21.757   3.280
21425W        W89788  17.264  36.547   2.401
21426W        W89789   2.728   3.302   3.758
21427W        W89790  36.922  24.990  14.970
21428W        W89791  36.513  11.770  13.431
21429W        W89792  21.561   6.384  10.446
21430W        W89793   0.249  42.964  13.893
21431W        W89794  12.625  10.744  11.468
21432W        W89795  25.171  42.778  12.510
21433W        W89796  21.121  43.911  12.408
21434W        W89797  18.673  14.262   3.266
21435W        W89798  44.502  28.173  11.096
21436W        W89799   1.779  13.153  13.384
21437W        W89800  40.825  35.041  14.347
21438W        W89801  42.861  13.121  12.020
21439W        W89802  20.163  25.125  14.304
21440W        W89803  12.754  16.723   1.441
21441W        W89804  20.151   3.416   1.898
21442W        W89805  40.405  41.534   2.756
21443W        W89806  16.223  17.630   1.440
21444W        W89807  13.705  41.461   4.825
21445W        W89808  16.150  28.572   0.370
21446W        W89809   2.326  19.071  10.922
21447W        W89810   9.224  31.465   2.815
21448W        W89811  44.965  34.430  11.429
21449W        W89812  37.863  15.600  11.530
21450W        W89813  20.135  39.522   2.404
21451W        W89814   0.393   3.937  12.054
21452W        W89815  36.852  24.664  11.981
21453W        W89816  12.283  27.168  14.376
21454W        W89817  35.587  13.254   1.881
21455W        W89818  23.137  39.832   0.478
21456W        W89819  36.038  26.186  10.513
21457W        W89820  27.189   6.732   2.750
21458W        W89821  21.645  27.572  11.509
21459W        W89822   4.249  30.153   2.360
21460W        W89823  43.353   9.653  11.051
21461W        W89824  20.606  32.019   4.223
21462W        W89825  34.611   8.716  13.445
21463W        W89826  37.477  16.811  12.929
21464W        W89827  19.080   4.314   1.760
21465W        W89828   9.358  30.002  11.587
21466W        W89829  31.485  37.423  11.105
21467W        W89830   5.425  15.288  13.882
21468W        W89831  23.013  37.043   2.291
21469W        W89832   5.365  11.286  14.769
21470W        W89833  34.579  32.951   0.755
21471W        W89834  29.130  16.796   0.325
21472W        W89835  27.050  36.413  11.070
21473W        W89836  25.618  30.123   4.830
21474W        W89837  43.885  20.595  10.569
21475W        W89838  30.558  12.266   2.395
21476W        W89839  37.564  38.893   4.200
21477W        W89840  35.887  32.918  10.578
21478W        W89841  20.076  13.308   3.693
21479W        W89842  23.568  27.098  12.432
21480W        W89843  36.094   3.758  10.917
21481W        W89844   0.762   0.348   3.343
21482W        W89845   7.235   3.785   3.724
21483W        W89846  30.979  30.415  14.317
21484W        W89847  16.779  17.679   2.236
21485W        W89848  39.892   0.392   1.339
21486W        W89849  18.752  23.595   3.650
21487W        W89850   6.232  22.047  13.969
21488W        W89851   2.458  28.618   1.774
21489W        W89852  20.563  42.876   4.632
21490W        W89853  36.858  16.077  14.949
21491W        W89854  30.073  16.202  14.392
21492W        W89855   1.922   1.295  11.902
21493W        W89856  20.524  10.171   0.876
21494W        W89857  20.222  15.179   4.769
21495W        W89858  33.614  24.556   1.428
21496W        W89859  26.642  40.876   2.797
21497W        W89860  19.108  38.357  12.956
21498W        W89861  23.156  31.919  13.508
21499W        W89862  16.274  26.523   2.392
21500W        W89863   2.350  12.829   3.809
21501W        W89864  32.425  39.362   4.138
21502W        W89865  22.155  16.123   2.254
21503W        W89866  19.096  29.938  12.496
21504W        W89867  19.538   4.212   2.289
21505W        W89868   6.426  35.884   4.707
21506W        W89869   4.836   6.200  13.377
21507W        W89870   5.343  33.569  11.396
21508W        W89871   6.237  23.576  13.309
21509W        W89872  20.640  36.010  11.570
21510W        W89873  28.574   2.365  11.965
21511W        W89874  34.605   5.377   2.790
21512W        W89875  17.126  37.062  11.385
21513W        W89876  25.195   2.772   1.396
21514W        W89877  29.165  22.675  11.391
21515W        W89878  18.285   5.721  10.403
21516W        W89879  37.951  40.968  13.404
21517W        W89880   1.964  25.193   4.702
21518W        W89881  29.969  29.074   4.303
21519W        W89882  35.562  21.186   9.967
21520W        W89883  28.972  29.500  10.044
21521W        W89884  17.723  20.267   0.769
21522W        W89885   3.853   2.334   3.751
21523W        W89886  28.099  16.774   5.137
21524W        W89887   7.824  41.923  14.513
21525W        W89888  34.914  36.924   0.800
21526W        W89889  16.315  17.682   4.813
21527W        W89890  11.338   1.366   4.135
21528W        W89891  37.373   6.883   1.351
21529W        W89892  38.990  19.651  10.041
21530W        W89893  27.619  19.652   4.833
21531W        W89894  20.658  33.434   1.801
21532W        W89895  20.677  21.669  11.969
21533W        W89896  44.872  43.916  11.874
21534W        W89897   0.809  13.125  10.580
21535W        W89898  36.569  41.813   4.182
21536W        W89899  29.435  21.707   3.269
21537W        W89900  40.864  43.374   2.806
21538W        W89901  28.676  11.663   2.821
21539W        W89902  25.636  36.939  13.950
21540W        W89903  24.686  30.955   4.611
21541W        W89904   1.796  25.681  10.036
21542W        W89905  33.566  44.310  10.148
21543W        W89906  31.909   2.370   0.281
21544W        W89907  29.517  30.589   0.838
21545W        W89908   1.916  43.925  14.988
21546W        W89909  36.588   2.466   1.379
21547W        W89910   5.281  20.182   2.313
21548W        W89911   9.313  11.308  13.047
21549W        W89912   8.812  20.541   3.181
21550W        W89913  19.155   8.696  12.009
21551W        W89914  35.958   0.398  13.453
21552W        W89915  40.540  16.649   2.746
21553W        W89916  39.838  29.104  14.848
21554W        W89917  42.975   5.310  14.988
21555W        W89918  38.845  26.182  14.275
21556W        W89919  24.079  19.207  14.456
21557W        W89920  27.094  35.475  14.889
21558W        W89921  35.994  24.218  14.356
21559W        W89922   5.253  32.886   0.907
21560W        W89923   3.759   4.326   0.922
21561W        W89924  42.017  18.057  12.358
21562W        W89925  16.211  14.633   1.851
21563W        W89926  21.120  28.577  13.541
21564W        W89927  16.073   0.410  10.619
21565W        W89928  25.974  34.494   0.328
21566W        W89929  26.559  26.073  13.500
21567W        W89930  40.487  41.832   4.796
21568W        W89931  13.822   3.345   5.154
21569W        W89932  24.175   0.812  12.879
21570W        W89933   1.345  14.808   3.802
21571W        W89934  27.461  29.588   3.748
21572W        W89935  25.563  13.174  11.453
21573W        W89936  11.352  23.188   3.835
21574W        W89937  18.071  43.838   1.875
21575W        W89938  37.499  13.262   1.351
21576W        W89939  24.991  12.769  12.450
21577W        W89940  10.288  36.381   3.227
21578W        W89941  15.746  11.758  13.523
21579W        W89942  14.825  29.597   4.189
21580W        W89943  33.025  38.828  12.067
21581W        W89944  15.159  31.990  13.813
21582W        W89945  11.240  22.151   2.211
21583W        W89946  43.823   0.969   2.739
21584W        W89947   7.221  39.869  14.001
21585W        W89948  41.859  20.164  11.572
21586W        W89949  31.035  39.834   0.388
21587W        W89950  29.059  30.994  13.997
21588W        W89951  41.347  33.548   0.471
21589W        W89952  43.380  33.412   3.254
21590W        W89953  12.820  37.072   0.885
21591W        W89954  24.133  34.573  10.426
21592W        W89955  17.726  37.088   1.878
21593W        W89956  22.653  30.074  14.890
21594W        W89957   1.773  26.594  12.876
21595W        W89958  38.384  19.135   0.421
21596W        W89959  35.073  27.632   1.359
21597W        W89960  35.035  34.899  10.503
21598W        W89961   5.334  42.868   4.117
21599W        W89962  13.252  30.485  11.029
21600W        W89963  43.889  15.164   3.659
21601W        W89964  12.306  14.607  10.421
21602W        W89965   5.351  21.701   3.285
21603W        W89966  29.024  43.396  12.568
21604W        W89967   7.746   3.827  10.516
21605W        W89968  16.599  13.819   1.404
21606W        W89969  16.621  19.057  13.977
21607W        W89970   6.183  19.565  14.868
21608W        W89971  15.318   8.327  13.835
21609W        W89972   7.176  24.184  11.555
21610W        W89973  12.323  23.030   3.830
21611W        W89974  16.072  21.206  11.447
21612W        W89975  30.567   8.204  10.563
21613W        W89976  26.533  16.707   1.727
21614W        W89977  34.086  32.961  11.865
21615W        W89978  38.490  16.089   1.832
21616W        W89979  19.199  39.006  12.463
21617W        W89980  39.013  27.998   3.179
21618W        W89981  14.718   0.390   5.277
21619W        W89982  44.399  12.648   4.155
21620W        W89983  21.171  18.271  11.009
21621W        W89984  43.883  34.906   1.716
21622W        W89985  28.119  43.987   9.926
21623W        W89986  41.473  17.797   4.805
21624W        W89987  13.744  25.109  11.106
21625W        W89988  18.745  26.076   1.744
21626W        W89989  33.464  26.154   0.278
21627W        W89990  41.834  12.850  10.611
21628W        W89991  15.221  24.091  12.051
21629W        W89992   7.899  42.475  13.026
21630W        W89993   8.299  18.263  11.452
21631W        W89994  31.976  21.162  10.937
21632W        W89995  38.938  20.581  13.476
21633W        W89996  41.898   1.289  11.023
21634W        W89997   8.723  19.645   1.823
21635W        W89998  25.083   4.204  12.852
21636W        W89999  10.841  31.537   2.357
21637W        W90000  36.941  32.422   0.365
21638W        W90001  26.560   5.292  10.459
21639W        W90002  20.054  43.287  13.799
21640W        W90003   7.748  30.993   4.344
21641W        W90004   2.860  15.094  12.544
21642W        W90005   0.865  16.736   4.807
21643W        W90006  34.878  36.573  11.965
21644W        W90007  31.083   3.882  13.887
21645W        W90008  33.472  18.566   1.337
21646W        W90009  44.762  16.576   3.378
21647W        W90010  23.602  32.921   0.874
21648W        W90011  34.471  27.062   0.828
21649W        W90012  12.855  23.197   2.848
21650W        W90013   2.801   2.411   2.838
21651W        W90014  11.768  28.108  14.780
21652W        W90015  11.324  30.939   4.205
21653W        W90016  44.431   6.413   3.657
21654W        W90017  29.154  30.655   1.842
21655W        W90018  13.600   3.346   4.179
21656W        W90019  29.523  37.555  12.917
21657W        W90020  13.651  28.671  11.581
21658W        W90021  15.124  25.051   3.709
21659W        W90022  22.672  29.951   2.413
21660W        W90023   5.244  22.036  12.449
21661W        W90024  20.139  29.658  13.957
21662W        W90025  44.414  30.473   3.729
21663W        W90026  27.107  32.520   3.723
21664W        W90027  41.828   9.292  14.307
21665W        W90028   8.204  21.725   1.716
21666W        W90029  26.062   7.809  13.997
21667W        W90030  34.966   5.248   2.203
21668W        W90031  28.137   0.773  13.413
21669W        W90032  15.593  14.167   2.369
21670W        W90033   2.952  11.240  13.360
21671W        W90034  25.972  19.090   1.822
21672W        W90035   2.439  17.275  13.365
21673W        W90036   5.246   8.738   2.318
21674W        W90037  25.638  28.095  13.505
21675W        W90038  44.390  29.042  10.582
21676W        W90039   1.969  25.181  14.510
21677W        W90040   3.275  31.505   2.692
21678W        W90041   9.771   8.229   3.856
21679W        W90042  40.823   5.203  10.436
21680W        W90043  41.973  26.056   3.349
21681W        W90044  13.684  13.144  11.537
21682W        W90045  43.857  14.825  13.444
21683W        W90046  37.356   4.325   3.163
21684W        W90047  37.987  29.492   1.721
21685W        W90048   3.847  32.634  12.957
21686W        W90049  27.656  44.374   3.182
21687W        W90050  11.722  15.222   2.835
21688W        W90051  13.809  17.154  10.066
21689W        W90052   3.834   4.406  10.582
21690W        W90053   8.344  28.634   1.923
21691W        W90054  36.501   6.383   4.221
21692W        W90055  43.895   8.875   3.253
21693W        W90056  34.527  30.652  11.522
21694W        W90057   5.302  23.577   3.679
21695W        W90058  39.474  27.461   0.899
21696W        W90059  34.608  28.022  11.936
21697W        W90060  27.596  28.183   3.312
21698W        W90061  26.202  15.097  14.918
21699W        W90062  41.855  19.095  14.360
21700W        W90063  37.940  23.031  13.489
21701W        W90064   9.222   6.787   4.700
21702W        W90065   2.430   4.918  13.318
21703W        W90066   8.251   1.251   0.366
21704W        W90067   6.234  26.674   0.315
21705W        W90068  10.774   8.343  11.579
21706W        W90069  39.529   7.883   4.257
21707W        W90070  29.658  18.683  13.797
21708W        W90071  15.709  22.170   5.278
21709W        W90072  25.218  33.120  13.541
21710W        W90073   2.967  22.127   1.784
21711W        W90074  14.267   0.250  10.102
21712W        W90075   6.896  12.173   3.755
21713W        W90076  11.198  11.634  13.013
21714W        W90077  10.207  24.099  11.565
21715W        W90078  12.324  40.343   0.770
21716W        W90079   7.760  11.364   0.902
21717W        W90080   4.206   6.252  11.898
21718W        W90081  41.501   3.815  13.841
21719W        W90082  33.389   1.825  10.411
21720W        W90083   3.864   1.375   2.312
21721W        W90084  37.426  29.531   2.757
21722W        W90085  11.621   0.265  14.366
21723W        W90086  20.160  28.976  10.913
21724W        W90087  11.217  29.606   4.316
21725W        W90088  27.502  11.312   1.728
21726W        W90089   6.201  32.115  12.402
21727W        W90090  24.550   8.726   3.194
21728W        W90091  26.582  29.020   2.673
21729W        W90092   7.775   7.702  11.965
21730W        W90093   8.730  28.445   4.151
21731W        W90094  38.844  13.214   2.390
21732W        W90095  41.023  22.628  12.826
21733W        W90096  25.142  20.049  12.089
21734W        W90097  19.636  21.063   0.294
21735W        W90098  32.562  34.071   2.800
21736W        W90099  17.064  10.294   3.655
21737W        W90100   0.262   9.392  14.923
21738W        W90101  19.140   0.793  11.934
21739W        W90102  41.429  24.668   4.234
21740W        W90103  31.626  31.510   4.146
21741W        W90104  41.358  43.978   2.283
21742W        W90105  35.506   5.880   4.808
21743W        W90106   8.896   3.872  14.959
21744W        W90107   7.400   6.423  14.441
21745W        W90108  33.437  15.139   1.770
21746W        W90109  43.898  20.766   3.325
21747W        W90110  11.841   2.371   3.630
21748W        W90111  31.644  27.958   2.691
21749W        W90112   8.307  19.772   1.902
21750W        W90113  26.469  41.294   0.889
21751W        W90114  20.673  21.682   4.643
21752W        W90115  36.555   8.660  10.509
21753W        W90116  22.122  13.151  10.405
21754W        W90117   5.434  31.487   1.795
21755W        W90118  28.985  28.626   0.791
21756W        W90119  37.513   4.334  14.962
21757W        W90120   4.750  26.484   2.864
21758W        W90121  33.437   0.743  11.099
21759W        W90122  32.040  33.937  11.081
21760W        W90123  30.112  33.509   1.832
21761W        W90124  17.756  42.935  12.385
21762W        W90125  32.016  34.410  12.496
21763W        W90126  39.055  22.548   4.323
21764W        W90127  24.231   4.326   3.264
21765W        W90128   9.247  30.416   0.307
21766W        W90129  34.097  24.153  13.833
21767W        W90130  44.484  43.367  12.983
21768W        W90131  40.306  37.916   4.754
21769W        W90132  39.536   8.665   3.301
21770W        W90133   2.404  17.616  11.865
21771W        W90134  18.769  20.096  11.031
21772W        W90135  33.050  28.076   3.856
21773W        W90136  17.621  42.942  13.994
21774W        W90137  21.559  37.034   4.665
21775W        W90138   4.722  35.974   3.709
21776W        W90139  31.097  44.908  12.479
21777W        W90140  27.670  41.483  10.986
21778W        W90141  22.160   8.675  14.489
21779W        W90142  25.583   7.762  13.953
21780W        W90143  38.392  34.523  14.892
21781W        W90144  13.198  30.050   3.776
21782W        W90145  10.729  27.641   4.798
21783W        W90146  37.908  37.043   1.776
21784W        W90147  13.602  23.033   3.236
21785W        W90148  32.542  29.453   3.200
21786W        W90149  12.295  17.113  13.420
21787W        W90150   2.844  38.846   4.644
21788W        W90151  42.955  25.627  10.909
21789W        W90152  14.680  30.069  12.373
21790W        W90153  26.592  40.053  13.437
21791W        W90154   5.891  35.020  14.371
21792W        W90155  43.486  34.960  13.354
21793W        W90156  22.521  39.344   1.821
21794W        W90157   9.266  41.970   4.204
21795W        W90158  21.260   7.851  11.438
21796W        W90159   6.782  27.664  11.571
21797W        W90160  10.633  28.183  14.478
21798W        W90161  33.504  25.087  12.475
21799W        W90162  17.193  31.495   2.674
21800W        W90163  20.206   5.436  14.341
21801W        W90164  43.346   4.699  13.896
21802W        W90165   9.827  32.599  11.551
21803W        W90166   6.328  41.862   0.861
21804W        W90167   5.864  28.509  10.920
21805W        W90168  14.777  31.409  14.312
21806W        W90169  14.627  29.932   1.368
21807W        W90170  23.996  22.666  14.379
21808W        W90171  34.872   1.870  11.949
21809W        W90172  31.143  34.417   0.313
21810W        W90173   4.732   1.854   3.840
21811W        W90174  40.404  39.043   0.741
21812W        W90175  37.975  34.980   2.277
21813W        W90176  42.004  16.618   0.862
21814W        W90177   9.381  29.067   3.254
21815W        W90178  41.315  34.472   2.395
21816W        W90179  37.359  13.228  11.382
21817W        W90180  32.005  36.466   0.277
21818W        W90181  20.111  35.544  13.312
21819W        W90182   1.811  20.083  12.503
21820W        W90183  31.432  34.031  13.414
21821W        W90184  43.349  37.495   2.289
21822W        W90185   8.881   7.282  12.416
21823W        W90186   5.372   2.851   2.389
21824W        W90187  23.704  23.581  12.908
21825W        W90188  28.589  36.509  14.792
21826W        W90189  15.744  22.142   2.891
21827W        W90190  17.282   9.832   4.136
21828W        W90191   7.709  14.705   3.151
21829W        W90192  10.727  17.186  14.412
21830W        W90193   6.824  18.068   1.839
21831W        W90194  28.946   1.264   4.351
21832W        W90195  14.286   9.762  10.898
21833W        W90196   7.206  42.931  10.490
21834W        W90197  28.449  44.365  14.011
21835W        W90198   5.797   1.435   0.254
21836W        W90199  30.457  28.974   4.308
21837W        W90200  34.483  39.529   3.787
21838W        W90201  31.499  36.508   3.829
21839W        W90202  10.380  14.754   0.740
21840W        W90203  12.314  30.418  10.504
21841W        W90204  43.293  10.321   4.332
21842W        W90205   3.820   0.764  14.804
21843W        W90206   7.745   6.878  10.442
21844W        W90207  35.521   0.395  11.996
21845W        W90208   9.655  20.043   3.737
21846W        W90209   3.341  21.674   4.313
21847W        W90210  26.012  32.110  14.424
21848W        W90211  38.059  37.581   1.349
21849W        W90212   8.238  32.944  13.033
21850W        W90213  34.572  36.451  13.957
21851W        W90214   5.310  11.784   3.245
21852W        W90215  15.133  14.193  11.422
21853W        W90216  23.085   6.315  12.959
21854W        W90217  30.985   6.853   3.199
21855W        W90218  35.859  31.607  11.939
21856W        W90219  25.577   8.378   1.703
21857W        W90220   7.274   4.339  14.927
21858W        W90221   0.277  40.349  11.444
21859W        W90222  25.618  38.893   1.405
21860W        W90223  23.130  23.095   1.870
21861W        W90224  31.037  30.027   4.761
21862W        W90225  13.202   4.753  11.887
21863W        W90226   5.417  33.425  12.395
21864W        W90227  25.156   8.830  11.052
21865W        W90228  25.658   9.342   0.917
21866W        W90229   9.183  19.185   1.799
21867W        W90230  38.561   8.745  12.919
21868W        W90231  36.885  36.948   1.435
21869W        W90232  30.116  12.780   3.288
21870W        W90233   4.733  38.564  11.958
21871W        W90234  37.580  44.265   5.122
21872W        W90235  44.433  43.270  13.536
21873W        W90236  38.846  36.384   3.722
21874W        W90237   4.928  30.100   4.666
21875W        W90238  14.171  43.941   2.667
21876W        W90239   0.308  25.653  11.527
21877W        W90240   3.342  30.447  14.439
21878W        W90241   8.306   7.676  14.906
21879W        W90242  41.874  42.451  14.444
21880W        W90243  35.465   3.353   0.376
21881W        W90244  43.840  34.581   2.728
21882W        W90245  43.453  24.096   1.308
21883W        W90246  18.772  42.880   3.721
21884W        W90247   7.766  43.888  12.831
21885W        W90248  24.641  28.000  12.073
21886W        W90249  21.119  32.479   1.788
21887W        W90250  15.198   8.204   1.329
21888W        W90251   2.773   1.803  11.973
21889W        W90252  36.862  23.991   1.448
21890W        W90253   0.299  27.988   4.668
21891W        W90254   0.947  20.727  12.370
21892W        W90255  23.190  44.815  11.408
21893W        W90256  32.021  19.678   2.698
21894W        W90257  27.154   5.756  11.592
21895W        W90258  20.595  11.292  13.820
21896W        W90259  24.038   7.322  13.313
21897W        W90260  27.957  27.628   2.326
21898W        W90261  44.280  16.697  11.523
21899W        W90262  19.280  14.256   1.215
21900W        W90263  36.040  14.273  14.287
21901W        W90264   0.293  40.501   2.801
21902W        W90265  19.103   4.887  13.513
21903W        W90266   4.771  39.940  14.319
21904W        W90267  18.242  33.890  13.061
21905W        W90268   3.860  41.847   4.832
21906W        W90269  13.725  29.095   3.792
21907W        W90270  10.705  27.510  14.807
21908W        W90271  10.692  34.610   1.748
21909W        W90272  41.991  17.128  12.510
21910W        W90273  17.129  13.268   1.748
21911W        W90274  17.638  35.507  13.404
21912W        W90275   9.282  16.137  12.978
21913W        W90276  37.051  30.136  11.105
21914W        W90277  37.010  24.640  13.860
21915W        W90278  29.622  33.970  13.409
21916W        W90279  24.650   4.262  12.922
21917W        W90280   5.294  40.361  13.855
21918W        W90281  16.131  31.908   3.244
21919W        W90282  24.088  11.710  12.976
21920W        W90283   5.850  43.426  11.050
21921W        W90284  36.389  42.825   3.328
21922W        W90285  37.940  26.019   2.778
21923W        W90286   7.807  23.204  11.460
21924W        W90287  26.541  21.748  11.425
21925W        W90288  12.138  26.167   2.317
21926W        W90289  40.517  35.490   0.947
21927W        W90290  13.204  20.175  13.930
21928W        W90291  14.670  18.622  10.157
21929W        W90292  34.107  40.857  11.971
21930W        W90293   4.744  37.422  11.922
21931W        W90294   5.203  36.872   4.686
21932W        W90295  41.538   8.217  12.514
21933W        W90296  27.164  29.948  11.128
21934W        W90297  37.834   7.768  14.008
21935W        W90298   3.338  21.040  11.936
21936W        W90299  39.880  35.603   0.244
21937W        W90300   0.456   4.218  12.916
21938W        W90301   5.782  22.720  12.990
21939W        W90302  14.637  34.032   1.778
21940W        W90303  37.081  39.019   0.943
21941W        W90304  31.623   9.827   1.827
21942W        W90305  16.142  24.497   2.350
21943W        W90306   7.839  14.116   5.190
21944W        W90307  10.370  37.436   0.341
21945W        W90308   1.769  19.647   3.146
21946W        W90309  44.488  42.942   3.849
21947W        W90310  38.908  10.682   1.819
21948W        W90311   3.927   1.966  10.641
21949W        W90312  29.601  14.192   9.926
21950W        W90313   8.289  28.450   4.779
21951W        W90314  26.986  18.614   3.316
21952W        W90315  41.040   9.684  13.835
21953W        W90316   4.417  26.609   1.316
21954W        W90317  43.962   5.737  12.454
21955W        W90318   2.436  32.617   0.323
21956W        W90319  18.733  15.779  13.385
21957W        W90320  42.895  36.989  14.005
21958W        W90321  24.515  43.344   2.766
21959W        W90322  20.110   5.396   2.297
21960W        W90323   7.837  26.200  10.417
21961W        W90324  39.967  22.013  14.513
21962W        W90325  26.106  39.997  10.573
21963W        W90326  23.668   1.860  14.336
21964W        W90327   0.823   8.351  12.014
21965W        W90328  15.211  37.497  11.413
21966W        W90329  35.985  39.879  12.506
21967W        W90330  28.173   3.292   4.682
21968W        W90331   9.355   0.357   4.758
21969W        W90332  30.526   2.240   2.410
21970W        W90333  35.040  37.386  13.368
21971W        W90334   1.886  44.872   3.708
21972W        W90335   1.871  44.486   5.193
21973W        W90336  24.154  31.915  12.000
21974W        W90337  26.550  24.567  12.948
21975W        W90338  35.067  11.779  11.459
21976W        W90339  13.248   6.198  12.934
21977W        W90340  33.108  27.586   1.290
21978W        W90341  35.596  33.610   2.188
21979W        W90342  41.524  35.860  11.021
21980W        W90343  19.699   9.390   3.791
21981W        W90344  17.233  26.677   4.134
21982W        W90345   4.869  11.330   0.311
21983W        W90346  38.565  11.855  13.434
21984W        W90347   5.925  22.058   3.642
21985W        W90348  21.635   0.803  13.468
21986W        W90349  17.693   9.667  12.355
21987W        W90350   4.908  23.547   0.440
21988W        W90351  16.772  24.191   2.878
21989W        W90352  40.038  10.870  12.478
21990W        W90353  10.749  36.533   4.248
21991W        W90354   4.212  32.515   4.209
21992W        W90355  39.864  31.466   0.345
21993W        W90356  35.519  26.591  10.625
21994W        W90357  41.004  35.599   0.858
21995W        W90358   0.801   3.950  14.902
21996W        W90359  19.658  11.258  11.434
21997W        W90360   6.392  33.891   3.215
21998W        W90361  13.718  31.549  10.405
21999W        W90362  37.033   1.372   0.851
22000W        W90363   3.303  22.068   4.774
22001W        W90364  32.449  11.226  14.777
22002W        W90365  42.316   9.193  11.946
22003W        W90366  33.421   2.878   4.229
22004W        W90367  41.477  22.733   5.285
22005W        W90368  43.439   2.730  12.370
22006W        W90369  40.379  42.438  10.557
22007W        W90370  33.024  30.935  11.392
22008W        W90371  29.092  28.139   2.668
22009W        W90372  35.529  40.904  11.929
22010W        W90373  18.220  14.143   2.181
22011W        W90374   2.269  35.443   1.847
22012W        W90375   5.308   0.487  13.935
22013W        W90376  43.971  40.908  11.110
22014W        W90377  19.279  40.314   0.481
22015W        W90378  31.621   7.894   3.275
22016W        W90379  37.531   1.283   4.666
22017W        W90380   9.843  19.115   1.917
22018W        W90381   4.232  37.368  12.363
22019W        W90382  16.739  18.772   5.781
22020W        W90383  40.428  40.949  12.052
22021W        W90384  40.374  13.256   1.391
22022W        W90385  13.106   0.919   5.156
22023W        W90386  15.718  37.514   2.778
22024W        W90387  22.108   3.301  14.330
22025W        W90388  35.009  34.923  14.022
22026W        W90389  26.111  43.391  14.763
22027W        W90390  24.488  23.717   1.900
22028W        W90391  19.040  39.996  12.047
22029W        W90392  28.592  16.315  11.571
22030W        W90393  24.610  20.184   1.397
22031W        W90394   1.765  30.494  10.984
22032W        W90395  23.647  23.708   2.767
22033W        W90396  20.692   2.867  14.381
22034W        W90397  17.715  31.009   4.150
22035W        W90398  28.662   2.819  12.915
22036W        W90399  37.449  39.977   0.350
22037W        W90400  12.797  32.083  12.363
22038W        W90401   9.304   4.450  12.386
22039W        W90402  10.654  19.064   2.846
22040W        W90403   8.714   3.869  11.083
22041W        W90404  43.769  39.002   1.890
22042W        W90405  24.191  39.055   3.826
22043W        W90406   0.483  20.068  12.960
22044W        W90407  18.268   2.771  13.036
22045W        W90408  39.934   2.396   2.772
22046W        W90409   2.366   8.217  14.025
22047W        W90410  26.197  34.096   3.317
22048W        W90411   8.721  27.029  14.788
22049W        W90412  17.638   4.916   1.768
22050W        W90413  44.991  33.477   2.822
22051W        W90414  40.873  29.925  11.068
22052W        W90415  35.580   1.841   4.235
22053W        W90416   9.730   1.896  12.380
22054W        W90417  22.191  22.630  14.906
22055W        W90418   7.768  22.233   0.894
22056W        W90419  22.222  21.048  13.377
22057W        W90420  37.988  14.144  14.283
22058W        W90421  39.925   4.843  10.527
22059W        W90422  40.926  10.147   1.267
22060W        W90423  28.091   6.813  12.096
22061W        W90424  17.064  23.531  13.943
22062W        W90425  37.868  42.477  12.867
22063W        W90426  17.711  32.024  13.336
22064W        W90427  15.207  26.525   5.210
22065W        W90428  37.939  24.671   1.274
22066W        W90429  26.001   8.844  11.982
22067W        W90430   3.289  37.063  13.819
22068W        W90431  19.215  25.581  13.961
22069W        W90432   3.711  39.369  11.889
22070W        W90433  29.087   0.985  13.927
22071W        W90434   2.267   5.253  13.871
22072W        W90435   8.824  42.513  14.457
22073W        W90436  20.108  14.599  13.390
22074W        W90437  37.850  18.150  13.979
22075W        W90438  30.908  31.132  13.888
22076W        W90439  26.021  42.893  14.507
22077W        W90440  24.218  22.733   3.832
22078W        W90441  18.274  43.270  12.958
22079W        W90442  38.021  21.688  14.014
22080W        W90443  26.647  20.658  11.054
22081W        W90444  21.126  21.519   0.420
22082W        W90445  36.913   9.341   3.706
22083W        W90446   8.332  12.134  13.469
22084W        W90447  28.604  39.844  13.059
22085W        W90448  36.053  14.234  13.355
22086W        W90449  24.679  39.888   2.825
22087W        W90450   9.731  19.613  12.467
22088W        W90451  37.450  25.219   5.279
22089W        W90452   9.845  34.586   0.897
22090W        W90453  17.800  25.696   3.847
22091W        W90454  30.959  41.800   0.263
22092W        W90455  31.960  16.769  13.823
22093W        W90456  14.682  31.113  10.517
22094W        W90457  32.510  15.725  10.554
22095W        W90458  21.585   1.421  11.506
22096W        W90459  34.402  23.208  13.416
22097W        W90460  29.063  41.925   3.381
22098W        W90461  32.601   8.217  14.877
22099W        W90462  24.488   0.384  13.810
22100W        W90463  39.354  29.170  12.886
22101W        W90464  32.084  27.684  11.537
22102W        W90465  26.568  42.402   0.256
22103W        W90466  14.805  17.210  13.448
22104W        W90467   3.826  43.488   2.392
22105W        W90468  24.493   5.877  13.416
22106W        W90469  30.564  30.937   0.353
22107W        W90470  29.092  27.668   4.315
22108W        W90471  33.535  16.670   4.118
22109W        W90472  25.501   6.289  14.842
22110W        W90473   0.936   7.740   0.910
22111W        W90474  15.643  28.485  13.469
22112W        W90475  43.903  43.810  14.850
22113W        W90476  18.569  37.998  14.956
22114W        W90477  44.367  12.268   0.467
22115W        W90478   8.284   3.756   0.956
22116W        W90479  28.961  15.760  11.410
22117W        W90480  24.705  20.548  13.318
22118W        W90481  36.905   3.357  13.873
22119W        W90482  26.578   2.310  11.482
22120W        W90483  30.961  41.999   0.879
22121W        W90484  27.477  44.946  10.888
22122W        W90485  37.512  34.095   0.246
22123W        W90486  16.277  30.438   1.904
22124W        W90487  10.274   8.853   2.406
22125W        W90488  17.295   3.831  14.925
22126W        W90489  13.751  10.333   0.815
22127W        W90490  37.984  13.343   2.684
22128W        W90491  32.998  44.779  13.797
22129W        W90492  42.971   0.935  12.877
22130W        W90493  11.818  36.370   3.346
22131W        W90494   1.904  36.886   4.691
22132W        W90495  21.043   7.838  12.356
22133W        W90496  22.665  13.247  11.612
22134W        W90497  25.115  34.383  14.013
22135W        W90498  35.072  12.718  10.089
22136W        W90499   8.746  24.005   5.199
22137W        W90500  25.987  29.145   0.949
22138W        W90501  25.198  23.210  12.482
22139W        W90502   5.832  40.924   3.151
22140W        W90503  30.491   2.425  12.381
22141W        W90504  36.587  31.117  10.997
22142W        W90505  18.630  38.451   1.804
22143W        W90506  33.069  12.640  14.903
22144W        W90507  39.369   2.884   1.709
22145W        W90508  30.946  17.610   4.246
22146W        W90509   2.454  18.291  14.429
22147W        W90510  16.750  25.151  12.094
22148W        W90511  15.781  35.879  12.367
22149W        W90512  10.182  41.029   0.429
22150W        W90513   8.373   6.200  14.279
22151W        W90514  26.010  24.044   2.783
22152W        W90515  24.090  35.424   1.414
22153W        W90516  21.747  28.129  14.883
22154W        W90517  43.455   6.703   0.262
22155W        W90518   6.382   2.936  13.010
22156W        W90519  25.026  12.827  10.436
22157W        W90520  34.416  44.929   4.609
22158W        W90521  25.099   7.322   1.857
22159W        W90522   1.790  19.170   0.391
22160W        W90523  14.101  17.749   3.255
22161W        W90524   4.928  41.441  12.930
22162W        W90525  32.540  28.656  14.475
22163W        W90526  11.298  23.650   1.800
22164W        W90527  42.875  22.062   4.127
22165W        W90528   3.817  35.522  11.925
22166W        W90529  30.444  23.621   1.831
22167W        W90530   8.756   4.412   4.200
22168W        W90531  32.566  31.549  13.004
22169W        W90532  35.865  41.380   3.700
22170W        W90533  29.116   0.876   4.793
22171W        W90534  15.600  22.157  12.372
22172W        W90535  30.094  26.683   3.338
22173W        W90536  14.125   4.272  14.828
22174W        W90537  43.911  16.741   2.198
22175W        W90538   3.397   2.872  11.047
22176W        W90539  35.905  23.619  12.424
22177W        W90540  16.729  37.027  11.931
22178W        W90541  21.023   8.299   2.820
22179W        W90542  41.796  14.648  13.517
22180W        W90543  11.263   4.337   3.870
22181W        W90544  42.006  29.581  12.475
22182W        W90545  38.450   3.396  12.939
22183W        W90546  44.897  24.524   1.414
22184W        W90547   3.860  42.813  10.549
22185W        W90548   1.342  12.129   4.772
22186W        W90549  44.479  13.151   4.202
22187W        W90550  38.456  10.158   1.347
22188W        W90551  26.008  32.087  10.412
22189W        W90552  33.898  37.562  12.843
22190W        W90553  28.119  16.081  14.985
22191W        W90554  35.436  39.496   1.256
22192W        W90555  37.831   0.879  14.880
22193W        W90556  11.858  24.584  13.332
22194W        W90557  27.057   1.440   0.919
22195W        W90558   7.732  27.159  11.974
22196W        W90559  29.664   7.795   1.405
22197W        W90560  25.171  18.082  13.007
22198W        W90561   2.257  28.933   2.679
22199W        W90562  17.574   2.941  12.380
22200W        W90563   4.945  35.589  12.531
22201W        W90564  32.894  20.211  12.499
22202W        W90565  28.169  27.605   1.392
22203W        W90566  19.129  22.040   0.766
22204W        W90567   8.305   4.912   1.751
22205W        W90568   1.262   0.376   2.824
22206W        W90569  15.240   8.795  13.533
22207W        W90570  28.077  23.682   2.721
22208W        W90571  31.081  38.021   2.252
22209W        W90572  43.009  11.246   1.341
22210W        W90573  39.448  31.113  12.509
22211W        W90574  31.992   1.745  14.427
22212W        W90575   2.768  12.238   1.442
22213W        W90576  10.383  41.304  11.399
22214W        W90577  15.153  27.544   4.676
22215W        W90578  38.342  25.710  13.445
22216W        W90579  10.745   1.447   0.307
22217W        W90580  31.910  41.940  13.809
22218W        W90581  39.870  18.788  10.642
22219W        W90582  36.529  15.175  12.051
22220W        W90583   2.966  17.163  13.473
22221W        W90584   4.778  15.259  10.520
22222W        W90585  44.377  15.793  10.079
22223W        W90586  21.665  33.479   0.726
22224W        W90587  15.604  38.831   3.869
22225W        W90588  22.081   7.272  10.419
22226W        W90589  32.983  18.219  11.400
22227W        W90590   3.819  14.102  10.107
22228W        W90591  31.567  24.037  10.586
22229W        W90592  39.822   5.250  11.402
22230W        W90593  26.495  29.021  10.579
22231W        W90594  26.957   2.231   1.834
22232W        W90595  12.640  36.484   2.701
22233W        W90596  12.842  39.042  11.913
22234W        W90597  18.753  29.035  12.456
22235W        W90598  17.797  27.113  13.492
22236W        W90599  28.559   3.381   4.193
22237W        W90600  28.961   9.701   0.267
22238W        W90601  42.966  34.408  11.434
22239W        W90602  42.487   8.308  11.918
22240W        W90603  23.729  37.043  11.955
22241W        W90604  17.631   9.218   3.258
22242W        W90605  13.122  10.764   3.163
22243W        W90606  31.439  39.014  12.921
22244W        W90607  19.673  44.789  11.403
22245W        W90608  43.414   7.326   3.772
22246W        W90609  10.716  42.967   2.336
22247W        W90610  19.724   5.425  11.047
22248W        W90611  32.078   9.726   3.781
22249W        W90612   0.349   7.310  11.418
22250W        W90613  15.263   7.799   2.786
22251W        W90614  29.544  32.623   0.377
22252W        W90615  43.508   2.826   0.804
22253W        W90616  11.266  11.281  14.932
22254W        W90617  12.680  30.151  12.027
22255W        W90618   4.409  28.573   3.329
22256W        W90619   8.378  13.157  14.381
22257W        W90620  16.597  39.340   3.637
22258W        W90621  27.146  15.791   3.321
22259W        W90622  18.611  44.933   1.286
22260W        W90623  34.475  20.096  12.031
22261W        W90624   6.678  32.444   3.362
22262W        W90625  13.683  32.076   4.117
22263W        W90626  11.332  19.770  12.090
22264W        W90627   4.394  23.006   5.170
22265W        W90628  22.091  21.253  11.107
22266W        W90629  28.152   2.946   4.276
22267W        W90630  35.543  41.338   2.892
22268W        W90631  23.697  15.275  12.027
22269W        W90632  16.643  19.592   1.707
22270W        W90633  28.172  12.814  13.351
22271W        W90634  37.078  18.268   1.424
22272W        W90635  33.422   6.358   0.898
22273W        W90636  17.643  18.661   4.769
22274W        W90637  29.498  21.213   1.228
22275W        W90638  22.251  41.413   0.952
22276W        W90639  11.661   9.188  14.419
22277W        W90640  30.921  23.225   4.705
22278W        W90641  24.669   4.448   4.662
22279W        W90642   9.726  44.776   4.707
22280W        W90643  35.867  11.675   4.800
22281W        W90644   8.714  26.461  14.940
22282W        W90645   6.418  23.688  13.845
22283W        W90646   0.759  33.466  11.592
22284W        W90647  30.129  44.802  14.793
22285W        W90648  40.882  27.970  10.913
22286W        W90649  42.394  23.603  13.983
22287W        W90650  16.598   5.928   1.891
22288W        W90651  44.402   7.860  12.554
22289W        W90652  37.510   4.921  12.507
22290W        W90653  15.105  16.750   5.290
22291W        W90654   1.483  40.034   1.900
22292W        W90655  14.672  41.301  14.340
22293W        W90656   5.929  14.621   0.249
22294W        W90657   0.820  26.557   1.798
22295W        W90658  41.894   9.665  14.423
22296W        W90659   9.793  40.012  11.453
22297W        W90660  22.059  18.111  13.871
22298W        W90661   0.984  17.775  10.587
22299W        W90662  44.976  30.080  12.462
22300W        W90663   9.321  36.379   1.745
22301W        W90664  31.442  37.426  14.382
22302W        W90665  30.462  41.899  13.971
22303W        W90666  38.409   4.881  10.432
22304W        W90667   3.312  39.924   0.950
22305W        W90668  26.036  41.343  14.312
22306W        W90669  27.641  22.168   3.324
22307W        W90670  10.719  10.842  11.876
22308W        W90671  34.538   8.168  12.992
22309W        W90672   6.220   5.303  13.423
22310W        W90673  44.908  44.783  13.026
22311W        W90674   5.346   9.745  11.957
22312W        W90675  11.791  29.657  14.343
22313W        W90676  19.211  35.601  11.556
22314W        W90677  30.451  42.849  11.394
22315W        W90678  18.658  11.341   2.726
22316W        W90679  34.597   4.391  14.279
22317W        W90680  41.910  26.963  14.304
22318W        W90681  19.644  43.006  12.982
22319W        W90682  28.178  31.136  10.555
22320W        W90683  40.538   1.789  14.957
22321W        W90684  36.554  13.759  12.089
22322W        W90685  37.875  17.565   0.850
22323W        W90686  24.199   0.934   0.317
22324W        W90687  19.264   7.788   2.263
22325W        W90688   7.829  24.018   1.746
22326W        W90689  24.625   4.803  12.838
22327W        W90690  33.405  44.757  13.878
22328W        W90691  32.095  34.508   0.945
22329W        W90692   5.895  22.731   0.424
22330W        W90693   2.749   6.196   3.851
22331W        W90694  43.331   7.405   3.259
22332W        W90695  43.764  12.829   3.730
22333W        W90696  17.088  19.145  13.319
22334W        W90697   2.864  25.988  12.094
22335W        W90698   1.255  42.441  13.989
22336W        W90699  29.623  35.490  10.910
22337W        W90700  38.832  27.610   1.728
22338W        W90701  35.976  31.073  12.887
22339W        W90702  40.956  24.179   2.382
22340W        W90703  33.988  41.517   4.227
22341W        W90704  11.211  38.340  14.364
22342W        W90705  44.964   5.814   2.417
22343W        W90706  24.518  41.980   1.296
22344W        W90707  27.590  16.668   5.180
22345W        W90708  24.035  24.060   4.708
22346W        W90709   8.844  44.921   3.854
22347W        W90710  19.740  35.087   2.766
22348W        W90711  20.602  38.830  12.359
22349W        W90712  31.451  42.879  14.475
22350W        W90713  26.081  18.207  11.110
22351W        W90714  18.777  11.761  14.318
22352W        W90715  41.944  38.425   0.342
22353W        W90716  39.455  29.481  12.377
22354W        W90717  23.642  37.073  14.350
22355W        W90718  21.569  29.498  10.592
22356W        W90719   8.396  11.658   2.746
22357W        W90720  23.666   5.248  11.395
22358W        W90721   5.872  32.941  11.579
22359W        W90722  36.361   0.253   3.330
22360W        W90723  23.574  19.095   1.898
22361W        W90724  31.512  23.110  10.640
22362W        W90725   0.889  43.447   4.127
22363W        W90726  39.839  17.752   2.393
22364W        W90727  26.586  19.047  12.443
22365W        W90728  29.604  20.526  12.555
22366W        W90729  29.991  33.876   1.870
22367W        W90730  30.013  32.054   2.407
22368W        W90731  27.070  38.344  13.494
22369W        W90732  35.968  22.083  12.438
22370W        W90733  17.681  38.837   1.221
22371W        W90734  34.377   2.753   1.779
22372W        W90735  27.028  11.199  11.006
22373W        W90736   4.252   2.376  10.454
22374W        W90737  42.854   7.865   1.303
22375W        W90738  11.319  19.597   1.422
22376W        W90739  17.152   4.833  10.038
22377W        W90740  14.336   9.792  14.446
22378W        W90741  23.087   5.818  12.848
22379W        W90742  12.673   8.756  11.447
22380W        W90743  27.667  36.534   2.277
22381W        W90744  38.566  42.353   2.890
22382W        W90745  29.938   6.850  13.870
22383W        W90746  40.460  15.700  13.951
22384W        W90747   3.446   7.718   5.081
22385W        W90748  10.707  25.104   2.734
22386W        W90749  37.343  35.576   3.343
22387W        W90750  29.567  29.058  11.113
22388W        W90751  39.832  25.557   4.679
22389W        W90752  44.271  40.055   2.739
22390W        W90753   9.186  37.341  11.099
22391W        W90754  24.504  39.926  12.355
22392W        W90755  18.594  40.500   3.743
22393W        W90756  22.618  43.467  13.531
22394W        W90757  34.983  44.262   2.830
22395W        W90758  17.203   3.218  14.311
22396W        W90759   3.318   6.202   0.473
22397W        W90760   3.281  15.200  12.056
22398W        W90761  36.593  14.337  14.414
22399W        W90762  22.198  18.101  14.445
22400W        W90763   9.650   3.277  11.891
22401W        W90764   1.947  36.543  10.492
22402W        W90765  27.969  31.544  14.988
22403W        W90766  41.854  17.135   1.880
22404W        W90767  44.378  19.681  12.916
22405W        W90768  18.160  30.450  14.011
22406W        W90769  22.121  14.184   3.792
22407W        W90770  37.905   2.353  10.623
22408W        W90771  14.311  37.514   1.743
22409W        W90772  14.267  38.569  10.888
22410W        W90773   0.330  38.448   4.162
22411W        W90774  40.980   8.191   1.865
22412W        W90775  36.869   7.766   0.407
22413W        W90776  26.178  19.106   4.300
22414W        W90777   8.399  32.479   4.177
22415W        W90778  38.968  15.811   5.312
22416W        W90779  15.767  11.251   0.876
22417W        W90780  22.084  35.507   4.159
22418W        W90781  35.569  20.599  10.527
22419W        W90782  30.930  36.016  12.839
22420W        W90783   9.369   1.769  11.526
22421W        W90784  36.578  31.055  11.595
22422W        W90785   2.849  30.922  13.805
22423W        W90786  21.587  10.295  14.321
22424W        W90787  18.256  11.785  11.439
22425W        W90788  24.541  23.585   1.429
22426W        W90789  11.647   3.283  11.440
22427W        W90790  38.956  15.615  10.151
22428W        W90791  29.538  11.677  12.483
22429W        W90792  31.545  40.371  12.082
22430W        W90793  37.980  28.184   4.760
22431W        W90794  43.300  25.164   5.137
22432W        W90795  23.503  23.591   0.284
22433W        W90796  42.837  11.298   4.327
22434W        W90797  33.565  42.367   1.720
22435W        W90798   6.742   9.741   4.287
22436W        W90799  36.580  27.448   3.306
22437W        W90800   1.755   6.338  11.528
22438W        W90801   4.753  38.468   2.697
22439W        W90802  17.181   2.453  11.049
22440W        W90803  11.694  26.166  12.469
22441W        W90804  25.648   8.236   0.336
22442W        W90805  42.999  31.534  12.094
22443W        W90806   5.333   9.834  12.417
22444W        W90807  41.898  28.059  10.123
22445W        W90808  11.336  17.736  14.032
22446W        W90809  33.615  23.030   2.336
22447W        W90810  43.365  38.456   9.611
22448W        W90811   4.937  36.521  14.809
22449W        W90812  28.157   2.449  12.439
22450W        W90813  38.919   4.267  11.017
22451W        W90814  36.857  10.247   5.301
22452W        W90815   9.730   0.770   3.349
22453W        W90816   6.214   7.691  11.001
22454W        W90817  21.664  37.850   4.764
22455W        W90818   3.890  12.348  13.352
22456W        W90819  13.636  16.248   4.287
22457W        W90820  15.176  35.909  13.011
22458W        W90821  10.750  30.415   0.380
22459W        W90822  28.160  28.490  12.016
22460W        W90823  16.229  40.813  14.444
22461W        W90824  21.723  22.515   3.215
22462W        W90825   6.920  12.808  10.972
22463W        W90826   5.879  32.104   1.348
22464W        W90827  43.496   1.288   3.795
22465W        W90828  27.114  30.124   4.308
22466W        W90829  38.475  44.494  12.078
22467W        W90830  28.512   7.730   2.881
22468W        W90831  21.051   9.394   0.759
22469W        W90832  15.263  16.264   2.224
22470W        W90833  30.110  41.457   1.304
22471W        W90834  40.922   1.313   1.282
22472W        W90835  21.694  29.994   2.400
22473W        W90836  24.193  40.026   4.786
22474W        W90837  38.409  29.513  12.000
22475W        W90838  26.513  17.759  14.963
22476W        W90839   7.835  22.679  11.946
22477W        W90840  41.518  19.616  14.797
22478W        W90841   7.365  37.986  12.361
22479W        W90842  27.621  24.136  12.948
22480W        W90843   0.949   2.949   2.755
22481W        W90844  18.593  14.292   2.350
22482W        W90845  22.032  40.053   0.330
22483W        W90846  43.926  10.709  12.436
22484W        W90847  17.679  29.449  13.925
22485W        W90848  20.195  11.662   3.304
22486W        W90849  41.355  27.039  14.306
22487W        W90850   3.794  18.197   4.802
22488W        W90851  16.267  13.812  12.402
22489W        W90852  15.814  10.344   1.255
22490W        W90853  27.990  37.391  11.371
22491W        W90854  24.044  42.947  12.995
22492W        W90855  35.451  42.341  11.009
22493W        W90856  32.964   2.322  10.051
22494W        W90857  13.200  27.476  10.459
22495W        W90858  28.593  19.733  10.911
22496W        W90859  40.528   5.918  11.976
22497W        W90860  38.910  16.676   2.408
22498W        W90861   7.320  22.164  11.046
22499W        W90862  16.073  24.706  12.033
22500W        W90863   6.383  32.125   2.265
22501W        W90864  13.277  14.619  10.975
22502W        W90865  22.234  37.911   4.703
22503W        W90866  38.935  36.355   0.454
22504W        W90867   4.715  22.542  10.523
22505W        W90868  23.108  29.136   1.320
22506W        W90869  25.990  20.116   0.447
22507W        W90870   0.266  24.698  13.482
22508W        W90871  34.073  27.503  14.840
22509W        W90872  13.203  33.585  12.952
22510W        W90873  29.942  23.614   1.794
22511W        W90874  43.278  21.205  14.279
22512W        W90875   1.422  23.549  11.598
22513W        W90876   9.353  26.169   3.729
22514W        W90877  13.211  39.054  14.968
22515W        W90878  33.083  37.355  13.484
22516W        W90879  42.839  31.909   2.219
22517W        W90880   6.249  24.205   9.938
22518W        W90881  20.658   0.745  14.471
22519W        W90882  40.451  20.130   4.721
22520W        W90883  16.121  24.695   4.726
22521W        W90884  25.593  41.820   1.344
22522W        W90885   2.917   6.352   3.322
22523W        W90886  27.954  42.917   2.248
22524W        W90887  37.462  41.910  12.943
22525W        W90888  10.847  11.362  14.773
22526W        W90889   8.299  23.035   3.258
22527W        W90890  25.975   5.240  10.987
22528W        W90891  34.436   7.832   3.164
22529W        W90892   0.391  36.515  13.389
22530W        W90893  21.073   2.438   1.323
22531W        W90894  40.305  28.141   3.672
22532W        W90895  23.239  14.301  12.913
22533W        W90896  21.227  27.668  10.988
22534W        W90897  21.076   5.846  14.411
22535W        W90898  25.483  31.912   0.779
22536W        W90899   7.879   3.361  14.018
22537W        W90900   4.835  34.423  12.468
22538W        W90901  14.720   7.326   2.210
22539W        W90902  32.041  26.627   0.792
22540W        W90903  30.121  26.138  11.442
22541W        W90904  23.697  26.610  11.477
22542W        W90905   1.844  31.421  10.416
22543W        W90906  28.667  14.682  11.443
22544W        W90907  40.402   7.702  12.544
22545W        W90908  37.364  30.119  12.422
22546W        W90909  27.024  38.932  10.979
22547W        W90910  22.177  38.401  12.967
22548W        W90911  40.469  11.235  12.995
22549W        W90912  29.557  23.557   0.417
22550W        W90913   1.977  30.029   3.748
22551W        W90914   6.301  19.181  10.606
22552W        W90915  40.430  33.516  14.809
22553W        W90916   8.734  19.277   0.763
22554W        W90917  36.554   9.717  10.912
22555W        W90918   7.858   0.873  11.036
22556W        W90919  35.550  35.503  12.924
22557W        W90920  11.140   2.437  14.863
22558W        W90921  11.277  42.794   5.240
22559W        W90922  24.033   9.247   3.231
22560W        W90923  15.240   3.276  10.511
22561W        W90924  19.045   7.749  11.900
22562W        W90925  44.807  28.133   0.740
22563W        W90926  11.779  29.140  11.389
22564W        W90927  15.298  39.490  14.502
22565W        W90928  22.705   5.251  12.037
22566W        W90929  16.766   1.363  14.412
22567W        W90930  32.580  17.557  13.841
22568W        W90931  21.679  13.673   1.233
22569W        W90932  39.047  41.305  11.021
22570W        W90933   9.850  30.569   4.163
22571W        W90934  16.675  38.894  10.073
22572W        W90935   8.280  29.045   4.211
22573W        W90936  24.542  33.617   2.879
22574W        W90937   3.336   8.318  14.906
22575W        W90938  39.844  20.226  13.372
22576W        W90939  29.497  30.936  13.401
22577W        W90940  10.672  16.128   1.779
22578W        W90941  13.173  21.074  11.489
22579W        W90942  32.450  37.015  11.580
22580W        W90943  40.362   6.398   0.343
22581W        W90944  36.065  38.924  11.474
22582W        W90945  33.609  39.454  10.468
22583W        W90946   4.776   4.738  14.860
22584W        W90947  24.646  33.539  11.100
22585W        W90948  39.444  15.711   2.300
22586W        W90949  14.147  13.679  12.926
22587W        W90950  28.972  28.973   3.720
22588W        W90951  23.116  21.512   0.415
22589W        W90952  12.341  44.960   2.367
22590W        W90953   5.360  29.510  14.514
22591W        W90954  44.439  31.445  10.422
22592W        W90955  27.143  40.908  12.565
22593W        W90956  36.034  38.921   3.685
22594W        W90957   4.881  10.364   2.688
22595W        W90958  28.505  26.163   1.734
22596W        W90959  44.493  11.803   3.262
22597W        W90960  14.800  13.605   1.886
22598W        W90961  12.800  11.720  11.496
22599W        W90962  30.997  14.099  10.117
22600W        W90963  34.943  40.325   2.785
22601W        W90964  35.032  11.651  10.088
22602W        W90965  30.938  28.127   3.221
22603W        W90966  35.582  27.586   2.846
22604W        W90967  15.310  10.164  14.865
22605W        W90968  35.917  26.496   0.860
22606W        W90969  15.170  22.165  11.926
22607W        W90970  23.494  37.396  12.887
22608W        W90971   4.412  19.171  10.410
22609W        W90972  28.477   6.386   3.185
22610W        W90973  17.224  37.362  14.844
22611W        W90974  14.094  36.097  13.392
22612W        W90975   0.849  34.030  10.443
22613W        W90976  43.506  22.243  14.802
22614W        W90977  26.665  38.831   1.844
22615W        W90978  21.205  37.454  10.569
22616W        W90979   2.378  20.659   1.758
22617W        W90980  41.849   8.862  14.032
22618W        W90981  14.747  43.767   4.659
22619W        W90982  33.567  27.560  12.864
22620W        W90983  30.924   9.209  12.442
22621W        W90984  29.014   7.787  11.860
22622W        W90985  37.935  35.859   4.661
22623W        W90986  30.094   1.417  10.478
22624W        W90987  29.532  25.165  12.511
22625W        W90988  42.411  11.365   1.877
22626W        W90989  35.908  41.355   3.246
22627W        W90990  29.630  20.207  10.919
22628W        W90991  14.165   1.900   3.839
22629W        W90992  12.118  38.457   4.165
22630W        W90993  32.900  39.472   3.230
22631W        W90994   8.750   7.258  10.538
22632W        W90995  13.109  25.544  13.487
22633W        W90996  25.511   5.233  14.366
22634W        W90997  21.690   9.278  11.895
22635W        W90998  42.894   4.745   2.898
22636W        W90999  32.618  10.693   1.427
22637W        W91000  33.067   9.729  11.075
22638W        W91001  13.833  10.250   9.975
22639W        W91002  19.217   5.249   3.824
22640W        W91003  17.276  33.617   5.239
22641W        W91004  29.147  26.603   5.140
22642W        W91005  20.167  33.521  12.996
22643W        W91006  35.033  21.130   0.748
22644W        W91007  13.780   0.406  11.968
22645W        W91008  14.117  23.507  10.156
22646W        W91009  42.526  15.601  14.759
22647W        W91010  32.984  25.039   1.844
22648W        W91011  12.706  30.153   3.181
22649W        W91012  13.753  32.053  13.492
22650W        W91013  39.951  24.001  10.922
22651W        W91014  35.560  22.216  10.980
22652W        W91015  42.500  14.322  14.458
22653W        W91016  23.685  22.173  10.483
22654W        W91017  28.059  33.032  13.048
22655W        W91018   0.487   9.263  12.067
22656W        W91019  31.021  20.527   4.350
22657W        W91020  39.500  14.143  12.540
22658W        W91021  26.499  30.016  11.411
22659W        W91022  34.938   9.266  13.023
22660W        W91023  13.793  39.513   3.221
22661W        W91024  35.093  22.692  14.501
22662W        W91025   1.482  37.884  13.536
22663W        W91026  13.708  32.528   3.635
22664W        W91027  34.922  40.025   1.808
22665W        W91028  10.219  34.005  14.468
22666W        W91029  27.615  29.426  12.862
22667W        W91030  27.086  13.645   0.731
22668W        W91031  19.659  27.615   2.293
22669W        W91032  21.693  39.962   0.740
22670W        W91033  40.355  40.827  14.398
22671W        W91034  42.895  29.940  11.610
22672W        W91035  39.359  39.502   1.745
22673W        W91036  44.897  12.686  13.899
22674W        W91037  33.557  28.010  13.321
22675W        W91038  41.956  16.696  14.379
22676W        W91039  33.530  33.101  10.628
22677W        W91040   1.885  34.110   0.738
22678W        W91041  16.246  29.524  10.528
22679W        W91042  31.442  38.879   1.866
22680W        W91043  29.555  42.498   4.766
22681W        W91044   7.176  17.277  11.047
22682W        W91045  32.540  23.725  11.938
22683W        W91046  27.631   3.342   0.747
22684W        W91047  20.225  26.997   1.920
22685W        W91048  43.487  37.025   2.739
22686W        W91049  27.657  28.967   2.860
22687W        W91050  23.984   0.814  14.029
22688W        W91051  16.591  32.006   3.734
22689W        W91052   2.266  23.581   2.828
22690W        W91053   0.868  24.188  12.923
22691W        W91054  24.689  24.229  11.549
22692W        W91055  29.055  32.632   2.200
22693W        W91056  19.075  40.974  12.070
22694W        W91057  24.067  36.425  13.052
22695W        W91058  33.040  13.784  13.460
22696W        W91059   8.320   9.721   2.304
22697W        W91060   3.338   9.265  14.356
22698W        W91061   7.215  18.786   4.339
22699W        W91062  42.910  20.654  13.440
22700W        W91063   1.280   8.714  14.766
22701W        W91064  11.713  27.548   0.927
22702W        W91065  38.424  44.931  13.443
22703W        W91066   9.241   5.753   0.305
22704W        W91067  17.603   0.804   3.682
22705W        W91068  37.540  20.592   1.907
22706W        W91069  17.219  16.765   4.200
22707W        W91070  13.670   2.416  11.476
22708W        W91071  29.439  18.180   4.299
22709W        W91072  17.198  21.577  12.858
22710W        W91073  25.006   1.368   3.301
22711W        W91074   9.696  40.428   3.647
22712W        W91075  42.412  10.770   4.302
22713W        W91076  26.048  28.610  14.976
22714W        W91077   7.355  15.790   1.813
22715W        W91078  37.969  31.018   4.701
22716W        W91079   5.768  16.166   2.204
22717W        W91080   9.307  16.644  14.760
22718W        W91081   2.797  41.386  11.551
22719W        W91082  42.527  23.590  11.919
22720W        W91083  40.889  29.569   4.698
22721W        W91084  21.174  13.266  10.935
22722W        W91085  19.778  19.245  12.054
22723W        W91086  23.988  14.141   2.352
22724W        W91087  28.020  24.130   4.650
22725W        W91088  20.695  39.053   1.387
22726W        W91089   0.872   3.388  12.851
22727W        W91090  29.937  32.613  10.992
22728W        W91091   0.282   9.247   3.336
22729W        W91092  24.534   7.323   2.249
22730W        W91093  16.278  34.055  11.603
22731W        W91094  16.294  23.626   1.413
22732W        W91095   4.258  32.574   4.601
22733W        W91096  23.985  36.060  12.514
22734W        W91097  44.318  28.474  13.410
22735W        W91098  39.868  24.522  13.372
22736W        W91099  33.380   1.801   3.685
22737W        W91100  10.835  24.709  10.533
22738W        W91101  40.839  26.131   0.346
22739W        W91102  38.519  28.040   2.363
22740W        W91103  34.418  43.792   4.183
22741W        W91104  13.785  43.430   3.268
22742W        W91105  30.423  44.273   1.313
22743W        W91106  21.019  34.913  12.493
22744W        W91107  10.203  12.360   0.924
22745W        W91108  20.760  42.457   4.124
22746W        W91109  23.707  23.702  10.915
22747W        W91110  40.515  31.614  11.513
22748W        W91111   0.309  18.121   2.184
22749W        W91112   3.437  21.727   0.959
22750W        W91113  32.583  22.684   3.845
22751W        W91114  35.864  43.291  14.311
22752W        W91115  27.526  16.587  10.476
22753W        W91116  36.959  15.312  14.401
22754W        W91117  32.432  31.907   3.260
22755W        W91118  18.588  17.123  12.365
22756W        W91119  30.529  12.689   0.472
22757W        W91120  31.999  20.614   2.754
22758W        W91121  17.738  10.139   0.745
22759W        W91122  12.286  40.054  10.907
22760W        W91123   7.241  37.876   1.816
22761W        W91124  24.164  32.086  10.112
22762W        W91125  26.969  38.385  14.374
22763W        W91126  18.764  34.515  14.493
22764W        W91127   0.827   8.680   5.122
22765W        W91128  37.859   7.782   0.813
22766W        W91129  36.353  19.221   3.734
22767W        W91130   2.248  17.753   2.712
22768W        W91131  25.661   8.289  12.541
22769W        W91132  11.742   4.922   1.785
22770W        W91133   2.378  20.169  13.426
22771W        W91134   1.963  28.026  11.066
22772W        W91135  15.245   4.918   1.798
22773W        W91136  19.138  33.905   4.261
22774W        W91137  22.178   0.258   4.168
22775W        W91138  39.032  24.106  12.372
22776W        W91139  31.905  24.984  10.923
22777W        W91140  39.874   9.252   1.406
22778W        W91141   5.734  33.005   4.764
22779W        W91142  22.657  33.518  11.605
22780W        W91143  24.190  41.450   3.827
22781W        W91144  28.956  32.110  14.027
22782W        W91145  26.046  29.091   0.302
22783W        W91146  29.073  39.534   4.724
22784W        W91147  11.736   1.965   0.269
22785W        W91148   0.343   4.408  12.580
22786W        W91149  28.176  33.437  11.582
22787W        W91150  20.204  42.483   4.742
22788W        W91151  33.583  19.758   4.698
22789W        W91152  19.072  44.787  12.003
22790W        W91153   3.272  39.444   3.837
22791W        W91154  14.129  19.086  12.962
22792W        W91155  40.958  19.672  13.377
22793W        W91156  21.075  12.819   2.365
22794W        W91157  21.156   4.390  13.529
22795W        W91158  17.636  15.313  14.813
22796W        W91159  40.444  20.580  14.792
22797W        W91160  26.597  23.713   1.798
22798W        W91161  44.921  25.601   4.706
22799W        W91162   7.761  44.367   2.365
22800W        W91163  11.850  23.084  12.569
22801W        W91164   1.375   2.305   0.939
22802W        W91165   1.855   2.266   4.758
22803W        W91166  40.014   3.824   3.749
22804W        W91167  22.020  26.059  10.423
22805W        W91168  23.675  15.166   2.668
22806W        W91169   4.387  42.012   1.283
22807W        W91170   5.408   4.703   3.812
22808W        W91171   6.771   5.907   2.253
22809W        W91172  33.077  19.754   1.841
22810W        W91173  10.637  39.856   2.340
22811W        W91174  20.612  26.969  12.479
22812W        W91175   3.281  16.147  13.307
22813W        W91176  25.145   4.282  13.481
22814W        W91177   0.987  33.498  12.977
22815W        W91178  12.710  23.537  11.968
22816W        W91179  20.092  16.254  11.884
22817W        W91180  11.261   6.310  11.907
22818W        W91181  13.684  26.626   3.694
22819W        W91182  12.259   6.381   0.468
22820W        W91183  11.357  42.997  11.409
22821W        W91184  38.927  33.061   2.744
22822W        W91185  35.047  24.545  12.895
22823W        W91186  30.133   2.279  10.561
22824W        W91187   1.898  38.352  11.029
22825W        W91188  24.164  28.515  10.417
22826W        W91189  33.981   3.281  14.993
22827W        W91190  13.186  15.642  10.627
22828W        W91191  43.920  24.610  14.342
22829W        W91192   4.933  20.663   2.416
22830W        W91193  30.048  13.639  13.411
22831W        W91194   3.915   5.716  12.390
22832W        W91195  39.409  35.564  12.481
22833W        W91196  37.526   1.367   2.229
22834W        W91197   9.262  44.912  12.405
22835W        W91198  21.146  44.783  14.834
22836W        W91199  36.537  26.039  14.287
22837W        W91200  13.228   8.885  13.368
22838W        W91201  13.274   0.905  12.401
22839W        W91202  43.442  33.918  11.100
22840W        W91203   8.238  11.326   1.895
22841W        W91204  16.195  38.905   1.767
22842W        W91205  32.437   3.262   3.341
22843W        W91206  38.568  41.806  14.002
22844W        W91207   1.937   5.785   2.772
22845W        W91208  22.517  30.143   0.377
22846W        W91209  29.945   9.823  12.024
22847W        W91210   2.333  15.285  10.896
22848W        W91211   8.179  38.948  10.526
22849W        W91212   2.845  15.284   0.253
22850W        W91213  17.135   3.889  12.988
22851W        W91214   1.787  30.609   2.732
22852W        W91215  26.652  27.479   5.097
22853W        W91216  13.814  41.906   3.664
22854W        W91217  18.084  38.933   4.683
22855W        W91218  32.548  21.706   2.264
22856W        W91219  39.383  34.592   3.805
22857W        W91220  42.286  41.814  11.507
22858W        W91221  44.834  14.755  12.942
22859W        W91222  18.618  33.905   4.317
22860W        W91223  42.856  23.653  12.055
22861W        W91224  20.242  18.092   4.610
22862W        W91225  42.922  16.689   1.385
22863W        W91226  28.487  18.672   3.352
22864W        W91227  21.262  36.559   3.226
22865W        W91228  21.217  21.532  13.063
22866W        W91229  26.064  20.526   4.145
22867W        W91230  35.435  32.571  11.928
22868W        W91231  30.996   2.856  13.381
22869W        W91232  24.654  26.053   3.315
22870W        W91233  41.794  40.525  11.381
22871W        W91234  13.779  27.034   3.820
22872W        W91235  23.549   4.787   4.672
22873W        W91236  19.183  25.145  12.846
22874W        W91237  37.537  39.318  13.377
22875W        W91238  15.327   8.272   0.317
22876W        W91239   4.402  28.170  14.505
22877W        W91240  16.162  40.011   1.297
22878W        W91241   6.688  19.234  11.976
22879W        W91242  39.443  28.984   4.672
22880W        W91243  35.892   2.806   4.259
22881W        W91244  14.792  15.116   0.836
22882W        W91245  29.520  20.231   3.752
22883W        W91246  12.825   5.845   2.325
22884W        W91247  35.877  23.106  10.448
22885W        W91248   7.356  24.526  11.124
22886W        W91249  22.040   2.949   0.413
22887W        W91250   9.848  34.000  12.936
22888W        W91251  41.376  33.909  10.936
22889W        W91252   6.786  14.162  12.859
22890W        W91253  12.136  24.718   4.624
22891W        W91254  26.549   0.374   3.748
22892W        W91255   9.776  43.937  14.919
22893W        W91256   0.296  20.741   3.655
22894W        W91257  40.902  12.641   0.738
22895W        W91258  13.340  38.965  11.606
22896W        W91259   0.972  19.267   0.827
22897W        W91260  42.016  14.243   2.343
22898W        W91261  23.541  19.042  14.922
22899W        W91262  23.735  42.354  14.856
22900W        W91263  10.698   3.332  12.563
22901W        W91264  29.049  11.745   0.450
22902W        W91265  26.107   0.871  10.986
22903W        W91266  17.679  26.179   4.179
22904W        W91267  43.377  30.619   1.296
22905W        W91268  16.763  20.649   1.448
22906W        W91269  11.336  14.731   3.359
22907W        W91270  28.102   0.489  14.850
22908W        W91271  44.376  29.432  10.007
22909W        W91272  40.432  21.711  13.532
22910W        W91273  13.301   4.426   3.222
22911W        W91274  10.345   4.377  10.946
22912W        W91275  16.131  11.371   2.389
22913W        W91276  43.914  39.933   2.711
22914W        W91277  14.754  28.490  14.005
22915W        W91278  37.403  27.530  11.506
22916W        W91279  40.361   7.332  10.414
22917W        W91280  30.154  17.790  11.388
22918W        W91281  13.275  44.811  12.827
22919W        W91282  10.147  25.055   5.135
22920W        W91283   1.747  20.687  12.411
22921W        W91284  18.699  19.196   3.186
22922W        W91285  33.470  41.407  10.525
22923W        W91286  29.625   7.731   4.784
22924W        W91287  16.282  10.878  13.970
22925W        W91288  32.510  21.056   0.322
22926W        W91289  16.641  26.980   0.925
22927W        W91290  28.484   4.258   0.849
22928W        W91291  38.460  22.107   0.783
22929W        W91292  20.144  36.446  13.402
22930W        W91293  38.827  32.078   3.219
22931W        W91294  13.764  25.536  11.857
22932W        W91295  28.981  12.774   1.858
22933W        W91296  13.805  25.600  12.565
22934W        W91297  17.293  31.953  14.512
22935W        W91298  43.345  11.668   4.700
22936W        W91299   6.264  12.129  11.108
22937W        W91300  31.403  21.737  10.936
22938W        W91301   2.958  40.386   3.784
22939W        W91302  20.169   4.336  10.499
22940W        W91303  27.049   9.654   1.750
22941W        W91304  13.763  31.915  14.765
22942W        W91305  32.527  22.653  11.587
22943W        W91306   8.294  23.497  13.472
22944W        W91307  32.443   0.828   3.324
22945W        W91308  34.109  37.041   0.783
22946W        W91309  39.968  38.044  11.397
22947W        W91310  21.152  15.802  13.334
22948W        W91311   7.363  44.775   2.678
22949W        W91312   8.677  33.441  14.431
22950W        W91313  43.890  24.556   0.826
22951W        W91314  26.201  31.923   1.847
22952W        W91315   3.837   3.954  14.491
22953W        W91316   5.858  39.505   4.729
22954W        W91317  43.861   0.421  13.802
22955W        W91318  38.008   6.187   3.730
22956W        W91319   0.302  37.431  11.882
22957W        W91320  35.956  17.640  11.079
22958W        W91321   3.270  27.658  14.302
22959W        W91322  34.528   0.894   3.302
22960W        W91323  40.861   8.766   4.249
22961W        W91324  30.445   5.734  11.969
22962W        W91325  32.080  12.171   0.341
22963W        W91326  25.566  33.420   2.894
22964W        W91327  37.549   4.399   0.400
22965W        W91328  17.622  39.354   2.819
22966W        W91329  35.101  23.004  14.771
22967W        W91330  35.417  43.814  10.907
22968W        W91331  22.718  14.142   1.336
22969W        W91332  40.806  14.796   2.253
22970W        W91333  21.243  38.825   5.300
22971W        W91334  12.222  29.101   1.388
22972W        W91335   5.389   8.188  12.865
22973W        W91336  41.812  13.254   4.669
22974W        W91337  23.711  28.123  12.464
22975W        W91338  23.037  17.622  13.372
22976W        W91339  17.167  19.179  10.524
22977W        W91340  38.983  39.020  10.978
22978W        W91341  32.031  20.202   3.200
22979W        W91342  11.327  38.005  12.010
22980W        W91343  38.876   1.897  12.091
22981W        W91344  41.821  25.014  13.956
22982W        W91345   2.271  18.212   9.983
22983W        W91346  39.497  12.260  10.631
22984W        W91347  17.677  13.749  14.819
22985W        W91348  18.620   9.327   3.272
22986W        W91349  28.172  23.619   9.992
22987W        W91350  11.846  42.814  12.959
22988W        W91351  28.672  17.564   2.678
22989W        W91352  19.631   2.424  12.870
22990W        W91353   4.391   5.243   3.705
22991W        W91354  23.105  33.446  14.354
22992W        W91355   1.927  13.754   4.130
22993W        W91356   7.905  23.507   2.227
22994W        W91357   1.922  15.757   4.624
22995W        W91358  30.632  29.630  12.020
22996W        W91359   7.747  30.940   3.159
22997W        W91360  12.132  20.218   1.799
22998W        W91361  16.803   0.887   4.264
22999W        W91362  20.218  28.103   2.803
23000W        W91363  28.160  26.000  13.499
23001W        W91364  32.516  31.062  13.929
23002W        W91365  23.495  27.664  13.426
23003W        W91366   2.946  29.523  13.523
23004W        W91367  44.964  29.566   0.295
23005W        W91368  23.159  43.959  10.635
23006W        W91369  40.005  28.999   0.297
23007W        W91370   2.459   3.296  11.406
23008W        W91371  32.980  23.614   2.275
23009W        W91372  31.511   6.819  14.336
23010W        W91373   2.881  22.007   2.398
23011W        W91374  11.823  24.709  11.459
23012W        W91375   6.720   3.382  11.534
23013W        W91376   7.879  40.805  11.496
23014W        W91377  13.816  39.374   2.384
23015W        W91378   8.789  25.684   5.099
23016W        W91379  31.106  18.570   0.769
23017W        W91380   4.343   2.242  14.460
23018W        W91381  28.973  37.429  14.913
23019W        W91382  10.301   7.221   4.118
23020W        W91383  34.894  41.355  10.972
23021W        W91384  37.895   0.376   3.318
23022W        W91385  23.032  23.556   2.716
23023W        W91386  38.832  15.277   1.797
23024W        W91387   4.778  37.554   3.262
23025W        W91388   8.722  42.834   9.970
23026W        W91389  14.647  31.634   0.309
23027W        W91390  15.802  24.718   1.777
23028W        W91391  23.171  36.955  13.042
23029W        W91392  27.555  21.638   0.748
23030W        W91393  28.089  27.677  13.547
23031W        W91394   6.863  13.701   1.932
23032W        W91395  33.124  20.139   4.158
23033W        W91396  19.754   6.208  12.039
23034W        W91397  27.118  37.085  11.564
23035W        W91398   0.765  38.030   4.773
23036W        W91399  31.007  42.309   4.129
23037W        W91400  31.061  34.974  10.161
23038W        W91401  11.844   5.323  12.495
23039W        W91402  25.068   8.195  10.497
23040W        W91403  39.483  19.072   1.237
23041W        W91404  10.682  27.515  13.818
23042W        W91405  16.125  22.673  14.880
23043W        W91406   5.928  30.976   0.396
23044W        W91407  33.625  31.599   4.286
23045W        W91408  30.932   5.698  14.803
23046W        W91409  22.677  22.715   2.759
23047W        W91410  12.265  30.013   4.158
23048W        W91411  18.129  13.272   3.234
23049W        W91412  44.882  12.262   2.311
23050W        W91413  18.281  43.826   3.765
23051W        W91414  15.298  28.118   1.887
23052W        W91415   6.331   9.705   2.746
23053W        W91416  16.675  22.046   2.389
23054W        W91417  13.259  23.240  11.447
23055W        W91418  20.655  13.322  12.834
23056W        W91419  24.131  36.981  13.875
23057W        W91420  41.000  34.484  10.977
23058W        W91421  29.062   1.391  11.586
23059W        W91422   1.434  37.902   3.151
23060W        W91423  28.438   2.843  10.630
23061W        W91424  25.211  37.395   2.191
23062W        W91425   1.294  19.055  11.068
23063W        W91426  30.545  13.754  11.885
23064W        W91427   9.314   9.787   3.797
23065W        W91428  42.906  16.705   2.731
23066W        W91429  26.483  16.117   5.160
23067W        W91430  13.837  27.944   0.307
23068W        W91431   7.720  34.507   1.330
23069W        W91432   6.744   2.337   2.396
23070W        W91433  28.133   6.244  14.850
23071W        W91434  41.377  28.676  12.514
23072W        W91435  30.426  35.971  11.019
23073W        W91436  25.081  42.960   3.364
23074W        W91437  16.659  35.105  11.500
23075W        W91438  22.091  14.778  11.858
23076W        W91439  43.964  18.212  10.573
23077W        W91440   9.154  41.837   0.387
23078W        W91441  15.752  35.876   1.700
23079W        W91442  16.232  10.233  11.410
23080W        W91443   2.457  31.457  12.039
23081W        W91444  44.961  37.470   4.324
23082W        W91445  44.794   2.245   4.207
23083W        W91446  32.015  22.026   3.183
23084W        W91447   9.775  18.745   4.136
23085W        W91448   2.416  38.528  14.408
23086W        W91449  22.609  37.555   4.691
23087W        W91450  12.139  28.549  11.471
23088W        W91451  31.052   7.413   2.857
23089W        W91452  43.774   0.383  10.461
23090W        W91453  29.036  33.618  14.316
23091W        W91454  23.073  12.693  14.442
23092W        W91455  14.139  27.484  11.903
23093W        W91456  32.037  43.818  12.523
23094W        W91457   9.221   7.223  13.447
23095W        W91458  17.720   4.879  13.347
23096W        W91459  11.289  28.932   4.764
23097W        W91460  42.468  12.162   3.668
23098W        W91461  25.629  20.030   4.710
23099W        W91462  38.957  11.674  10.509
23100W        W91463  43.829   7.251  11.881
23101W        W91464   4.864  14.679   5.120
23102W        W91465  20.638  27.623  13.062
23103W        W91466  37.513  40.009   4.605
23104W        W91467  42.353  16.149   0.385
23105W        W91468  12.716   9.822   3.226
23106W        W91469  30.044  33.450  11.123
23107W        W91470  18.559  30.996  12.913
23108W        W91471  33.926  40.547   3.233
23109W        W91472  10.684  24.178   0.482
23110W        W91473  23.143  11.661  11.100
23111W        W91474   3.718  19.157  12.890
23112W        W91475   0.775  37.359  14.912
23113W        W91476  36.921  24.047   2.338
23114W        W91477  22.996   9.368   0.447
23115W        W91478  15.151   1.344  13.381
23116W        W91479  30.518  28.177   4.682
23117W        W91480   8.895   6.359   4.687
23118W        W91481  28.005  17.075  14.949
23119W        W91482  41.994  20.185  14.361
23120W        W91483  33.010  44.827  11.891
23121W        W91484  24.091  19.654  11.083
23122W        W91485  13.288   4.227   0.354
23123W        W91486  28.546  26.616  10.615
23124W        W91487  35.110  23.020   3.171
23125W        W91488  23.597  35.541   1.303
23126W        W91489  10.825  27.165   3.168
23127W        W91490  39.407  40.930   2.279
23128W        W91491  41.021   2.421   3.347
23129W        W91492  44.895   9.330  10.640
23130W        W91493  41.846  19.585   3.146
23131W        W91494   6.872   9.258  12.396
23132W        W91495  29.959  41.904  14.322
23133W        W91496  40.920  39.377   4.352
23134W        W91497  42.519  10.741  13.793
23135W        W91498  34.999  36.357   1.823
23136W        W91499  16.132  32.888  13.388
23137W        W91500  29.020  35.875   1.819
23138W        W91501  16.687  15.247  12.353
23139W        W91502   0.979  24.047  13.520
23140W        W91503  37.383   7.347  11.465
23141W        W91504   9.169  10.686  12.966
23142W        W91505  28.045  15.648   2.836
23143W        W91506  32.630  33.474   4.781
23144W        W91507  33.596   1.775   0.281
23145W        W91508  38.424  16.274   2.253
23146W        W91509  21.143  36.846   3.723
23147W        W91510   0.296   5.266  14.781
23148W        W91511  24.045  15.739   0.379
23149W        W91512   6.385   7.674   1.859
23150W        W91513  21.522  10.681   0.851
23151W        W91514  10.347   9.770   0.435
23152W        W91515   3.883  31.967  12.539
23153W        W91516   2.380  27.065  10.493
23154W        W91517  36.066  39.403   4.801
23155W        W91518  21.023  14.803  12.539
23156W        W91519  19.145  40.927  12.952
23157W        W91520  36.914   5.393   1.848
23158W        W91521  37.970   0.986  12.915
23159W        W91522   0.955  26.645  13.010
23160W        W91523   8.371   5.857   0.938
23161W        W91524  20.040   6.843   0.923
23162W        W91525   9.848  13.839  11.598
23163W        W91526   7.402  16.112  14.386
23164W        W91527  18.208   1.970   4.752
23165W        W91528   2.323  11.188  10.999
23166W        W91529  37.386  42.979  11.996
23167W        W91530   8.274  31.641  11.378
23168W        W91531  32.612  20.127  13.976
23169W        W91532  22.011  15.202  11.056
23170W        W91533  26.678  40.402  10.892
23171W        W91534   0.926  31.596  13.942
23172W        W91535  10.140   7.335   0.824
23173W        W91536  17.062   8.245   3.680
23174W        W91537  28.441  14.825   1.373
23175W        W91538  39.525  34.907   4.140
23176W        W91539  39.454   5.283  11.578
23177W        W91540   3.263   2.304  13.936
23178W        W91541  44.483  16.705   4.131
23179W        W91542  34.075  13.221  13.843
23180W        W91543  44.477  12.848  10.906
23181W        W91544   1.966  12.344   4.234
23182W        W91545   3.224  19.179   3.220
23183W        W91546  42.785  28.055   2.678
23184W        W91547  24.528   5.867  14.781
23185W        W91548  32.535  25.524   0.441
23186W        W91549  22.010  32.992  14.875
23187W        W91550  30.494   4.370  12.998
23188W        W91551  35.020  37.566  11.127
23189W        W91552  38.923  18.718  14.946
23190W        W91553  44.784  28.516  11.533
23191W        W91554  12.678   9.693   4.794
23192W        W91555  20.532  24.986  10.544
23193W        W91556  27.113  44.960   2.839
23194W        W91557  35.941  12.776  11.377
23195W        W91558   3.337   7.235   4.249
23196W        W91559  18.144  19.139  12.872
23197W        W91560  25.628  38.846  10.482
23198W        W91561   7.823   6.807  12.954
23199W        W91562  15.754  11.212   4.192
23200W        W91563  22.599  28.176  12.859
23201W        W91564  33.910  33.505   4.256
23202W        W91565  44.856  41.511  13.419
23203W        W91566  41.872  31.063   0.363
23204W        W91567  35.380  16.230   3.264
23205W        W91568  13.813  36.964  11.081
23206W        W91569   5.423  20.694   1.222
23207W        W91570  16.702  43.923  11.013
23208W        W91571  24.125   7.735  12.019
23209W        W91572  35.965  19.536  14.859
23210W        W91573  22.249  38.350  11.012
23211W        W91574  11.135   0.268   2.744
23212W        W91575  33.545  36.431  11.374
23213W        W91576  18.759  28.481   1.790
23214W        W91577  22.225  40.451  11.946
23215W        W91578  30.929  44.757  10.533
23216W        W91579  41.030  18.255   0.457
23217W        W91580   0.464  39.029  10.104
23218W        W91581   0.774  35.399   0.301
23219W        W91582   2.239  16.288  11.973
23220W        W91583  21.519  14.814   2.763
23221W        W91584   3.318   7.885   0.929
23222W        W91585  32.624   9.648  13.318
23223W        W91586  21.206   8.660   5.150
23224W        W91587  13.633  34.457  14.344
23225W        W91588  30.993   0.313   0.781
23226W        W91589  21.708   5.390   3.684
23227W        W91590  19.613  15.602  12.951
23228W        W91591  27.456  32.601   4.719
23229W        W91592  10.204  40.480   3.870
23230W        W91593  30.470  21.549  13.496
23231W        W91594  12.296  19.648   4.799
23232W        W91595  30.156  33.920  13.963
23233W        W91596  25.682  40.546   0.839
23234W        W91597  31.040   6.923   0.788
23235W        W91598  15.098  43.335  10.638
23236W        W91599  29.076  16.139   2.776
23237W        W91600  29.140  13.767  10.968
23238W        W91601   0.312  36.435  10.994
23239W        W91602  24.609  18.282   1.211
23240W        W91603  23.228  18.246   3.360
23241W        W91604  39.387   2.376  13.859
23242W        W91605  16.078   0.413   2.275
23243W        W91606   7.903   6.920  11.914
23244W        W91607   6.313  29.936  13.481
23245W        W91608  19.546   2.885   2.327
23246W        W91609  10.858  31.539  10.524
23247W        W91610  25.103  26.676  14.761
23248W        W91611  29.659  30.631  11.003
23249W        W91612  17.196  23.112  11.524
23250W        W91613   3.220  26.988   4.719
23251W        W91614  35.579  43.505   1.428
23252W        W91615  32.612  11.240   3.661
23253W        W91616   0.946  15.296   0.751
23254W        W91617   1.747  24.696  13.401
23255W        W91618  14.305   0.764  11.955
23256W        W91619   0.320  13.831   2.704
23257W        W91620  36.502   1.434  10.547
23258W        W91621  44.772   3.395   0.471
23259W        W91622  40.016  23.574  14.459
23260W        W91623  38.866  24.546   3.213
23261W        W91624  15.823  42.929  12.876
23262W        W91625   2.740  17.794   0.472
23263W        W91626  26.696  35.898  14.355
23264W        W91627  11.179  16.095   2.897
23265W        W91628  33.922   8.669   4.347
23266W        W91629  23.711  16.157  13.317
23267W        W91630   0.930  24.633   4.330
23268W        W91631  26.578   9.310  10.569
23269W        W91632  19.705  32.410  13.989
23270W        W91633  42.928  14.228  11.942
23271W        W91634  43.781   8.216  11.531
23272W        W91635  20.558  35.386  14.940
23273W        W91636  43.785  41.364   4.223
23274W        W91637   8.762  12.159  10.404
23275W        W91638   2.866  29.571  14.763
23276W        W91639  36.528  38.919  13.039
23277W        W91640  42.343  24.103  14.852
23278W        W91641  15.712  36.936  14.846
23279W        W91642  34.877  33.065  11.999
23280W        W91643  27.150  33.391   4.705
23281W        W91644  36.476   5.324   2.817
23282W        W91645  39.901  17.594  12.434
23283W        W91646  44.408   1.860  13.513
23284W        W91647  17.294   8.741   1.224
23285W        W91648   1.972   3.755   4.269
23286W        W91649  10.176  28.037   3.333
23287W        W91650  25.598  12.237  13.038
23288W        W91651   1.256   7.314   0.395
23289W        W91652  31.973   5.219  14.891
23290W        W91653  44.976   2.803  11.993
23291W        W91654   8.853  44.763  13.425
23292W        W91655  32.539  15.683  10.977
23293W        W91656  19.094  34.030   1.827
23294W        W91657  42.813  19.568   1.424
23295W        W91658   3.400  23.130  11.973
23296W        W91659  24.093  32.008   1.832
23297W        W91660   0.963  10.699  11.431
23298W        W91661   0.803  28.454   1.260
23299W        W91662  24.480  13.676   2.330
23300W        W91663  13.312   6.316   1.225
23301W        W91664  32.951  18.746  12.073
23302W        W91665  33.009  44.441  10.060
23303W        W91666  17.175  25.156   5.263
23304W        W91667  10.377  19.724  11.429
23305W        W91668  26.140  20.089   0.737
23306W        W91669   5.830  16.112  10.483
23307W        W91670  11.664  39.483   2.367
23308W        W91671  25.533  18.130  11.434
23309W        W91672  31.402  19.062   3.377
23310W        W91673  29.116  41.474  10.507
23311W        W91674  34.983   2.408   0.350
23312W        W91675  15.711  15.295  14.823
23313W        W91676   7.807   5.748  13.464
23314W        W91677   3.933  21.150  14.906
23315W        W91678  33.419  19.163   0.768
23316W        W91679  37.559  26.103  14.507
23317W        W91680  12.654  30.967  14.915
23318W        W91681  18.580  41.437   3.669
23319W        W91682  13.253  10.285   0.842
23320W        W91683  39.021   6.425  11.441
23321W        W91684  37.844   1.442   2.242
23322W        W91685  13.700  32.926   0.825
23323W        W91686   1.345   7.256   1.805
23324W        W91687   4.714  30.644   0.374
23325W        W91688  44.848  42.872  10.592
23326W        W91689  26.508  25.124  14.387
23327W        W91690  26.697  34.596  13.366
23328W        W91691   2.307  29.625  14.947
23329W        W91692  35.057   5.316   4.645
23330W        W91693  15.219  13.132  12.464
23331W        W91694  23.069  43.297  11.564
23332W        W91695  31.999  44.314   5.222
23333W        W91696  44.759  36.400  10.550
23334W        W91697  19.233  12.150  12.503
23335W        W91698  32.914   9.244   3.821
23336W        W91699   0.903  32.439  13.418
23337W        W91700  44.409  24.513   4.609
23338W        W91701  43.816   9.791   4.252
23339W        W91702  34.505  17.680   4.142
23340W        W91703   0.251  19.269  10.456
23341W        W91704   6.350  19.258   1.777
23342W        W91705  18.615  32.981   2.327
23343W        W91706  14.257   1.380  11.587
23344W        W91707   0.367  27.013   2.349
23345W        W91708   7.224  15.820   5.083
23346W        W91709  26.090  42.972  10.597
23347W        W91710  25.025   0.926  12.988
23348W        W91711  28.093  15.616   3.165
23349W        W91712  31.602  27.977   1.447
23350W        W91713  13.247  14.811   4.141
23351W        W91714  20.758  37.347   2.678
23352W        W91715  13.200  40.797   3.846
23353W        W91716  40.538  43.478   0.920
23354W        W91717  36.053  30.975   1.228
23355W        W91718  24.197   3.757  12.029
23356W        W91719  39.344  11.768  10.080
23357W        W91720  41.454  29.567  12.870
23358W        W91721  22.657  27.574  10.091
23359W        W91722  25.605  20.565   0.306
23360W        W91723   5.824   0.841  10.930
23361W        W91724   3.281  33.470   2.352
23362W        W91725   2.469  33.468   0.282
23363W        W91726  35.871  23.666   0.775
23364W        W91727  21.239  13.815   3.654
23365W        W91728   5.250  31.062   4.352
23366W        W91729  38.035  35.464  13.971
23367W        W91730  25.653  38.831  10.979
23368W        W91731  38.427   0.386  12.364
23369W        W91732  20.687  23.222   4.665
23370W        W91733  34.987  28.083  13.993
23371W        W91734  28.676  26.551   2.202
23372W        W91735  31.979   5.714  10.490
23373W        W91736  30.999   0.920   1.849
23374W        W91737   0.354  42.359   1.398
23375W        W91738  25.700   0.251   3.340
23376W        W91739   4.356   5.300  14.834
23377W        W91740   8.305  26.470  13.025
23378W        W91741  25.471  24.581   1.412
23379W        W91742  40.924   1.477   2.289
23380W        W91743   4.383  27.502  11.061
23381W        W91744  13.837  11.736  11.059
23382W        W91745  10.692  42.974   5.231
23383W        W91746  14.213   6.266   3.813
23384W        W91747  21.556  12.610  12.564
23385W        W91748  24.713  41.973  11.470
23386W        W91749   9.369  24.582   1.736
23387W        W91750   3.278  43.320  12.089
23388W        W91751  43.505  42.432  12.561
23389W        W91752   3.287   2.411  13.451
23390W        W91753  28.157  41.326   3.795
23391W        W91754  21.201  20.677   2.247
23392W        W91755  35.059  40.323  13.821
23393W        W91756  25.475  38.864   1.833
23394W        W91757  21.097  13.303   3.361
23395W        W91758  26.966  21.521   4.719
23396W        W91759   2.372  20.767   3.825
23397W        W91760  25.660  18.708  14.462
23398W        W91761  35.493   9.796  12.580
23399W        W91762  14.722  24.652  11.885
23400W        W91763   9.773  28.155  12.927
23401W        W91764  10.360  35.887  14.466
23402W        W91765  39.534  32.954   4.312
23403W        W91766  40.380  31.082  11.006
23404W        W91767  40.810  18.548   1.797
23405W        W91768   5.772  20.180  12.571
23406W        W91769  37.421  37.014  11.604
23407W        W91770  40.982  27.035   0.907
23408W        W91771   6.232  38.500   0.258
23409W        W91772   1.399  31.024  14.850
23410W        W91773  42.400  38.504  11.123
23411W        W91774  43.409  13.663  12.923
23412W        W91775  14.249  39.996  14.887
23413W        W91776   9.199  13.819  10.981
23414W        W91777  23.571   4.845  14.352
23415W        W91778  41.835  27.985  14.961
23416W        W91779  12.743  16.094   1.427
23417W        W91780  27.012  13.280   0.904
23418W        W91781   3.367  26.575   1.829
23419W        W91782   4.438  15.100   1.789
23420W        W91783   7.349   3.839   0.804
23421W        W91784  14.286  20.224   0.299
23422W        W91785   3.300   1.423  12.853
23423W        W91786  24.991  38.353   3.207
23424W        W91787   1.435  35.572   0.730
23425W        W91788   3.905  27.668  13.870
23426W        W91789  15.619  22.556   3.243
23427W        W91790  14.738  16.262   5.202
23428W        W91791   5.313  10.380  13.042
23429W        W91792   1.805   6.236   4.230
23430W        W91793  16.119  23.615  10.550
23431W        W91794  21.101  33.042  11.066
23432W        W91795  32.060  42.824   2.668
23433W        W91796  37.010  28.627  10.412
23434W        W91797  35.450  10.175   1.301
23435W        W91798  30.970  35.856   1.405
23436W        W91799  22.126   7.178  13.429
23437W        W91800  18.630  33.572   1.229
23438W        W91801  38.016  28.635  12.495
23439W        W91802  43.952  21.095  13.059
23440W        W91803   5.843   8.312   1.914
23441W        W91804   9.810  24.172  11.054
23442W        W91805  25.989   1.815   4.742
23443W        W91806  16.692  14.619   2.707
23444W        W91807   9.863   6.261   0.841
23445W        W91808  12.793  27.113   2.801
23446W        W91809  22.213  30.972  14.470
23447W        W91810  36.058  39.015  14.310
23448W        W91811  15.090  20.738   0.314
23449W        W91812   6.838   9.696  13.517
23450W        W91813   4.936  25.972   2.687
23451W        W91814   2.338   4.215  11.502
23452W        W91815  44.262  39.450   3.647
23453W        W91816  39.813  42.500   3.269
23454W        W91817  38.921  10.300   3.821
23455W        W91818   1.271  33.389  13.853
23456W        W91819  13.797  26.086   1.821
23457W        W91820  15.692  39.500   3.296
23458W        W91821  15.823  39.006   3.174
23459W        W91822  35.062  16.156   0.320
23460W        W91823  42.994  26.969   4.263
23461W        W91824   2.261  38.429  14.800
23462W        W91825  26.631  13.133   2.312
23463W        W91826   0.376   3.929  11.501
23464W        W91827  44.866  24.698  12.384
23465W        W91828  40.858  40.455   2.326
23466W        W91829  27.620  24.608  13.313
23467W        W91830  16.145   0.750  11.447
23468W        W91831   0.303  18.637  13.018
23469W        W91832  42.524  38.018   3.278
23470W        W91833   5.211  39.040   2.272
23471W        W91834   8.826  30.016   4.143
23472W        W91835  25.027  44.877   2.347
23473W        W91836   4.298  16.209  14.987
23474W        W91837  22.208  39.862   1.290
23475W        W91838  42.521   3.867  13.866
23476W        W91839  22.695   0.899   3.368
23477W        W91840  37.061  14.668   3.362
23478W        W91841  17.777  21.550  11.111
23479W        W91842  41.861  26.979  11.499
23480W        W91843  12.322  21.731   2.379
23481W        W91844  41.453  42.967   3.709
23482W        W91845  10.281  34.478  14.803
23483W        W91846   6.230  35.882   2.843
23484W        W91847  43.478   9.645  10.408
23485W        W91848   6.893   1.418   1.363
23486W        W91849  40.549  10.221   5.104
23487W        W91850  29.667  27.130  13.404
23488W        W91851   5.383   6.241  14.804
23489W        W91852   4.388   6.374   0.393
23490W        W91853  25.048  11.286  12.978
23491W        W91854  20.544   4.412   1.934
23492W        W91855  37.081   5.274   0.915
23493W        W91856   6.746   5.922   2.816
23494W        W91857  31.151  21.079  10.911
23495W        W91858   2.868  43.276  10.098
23496W        W91859  14.668  23.614  11.561
23497W        W91860  19.182  28.955   0.920
23498W        W91861  21.695  37.467   3.262
23499W        W91862   8.348  30.513   0.369
23500W        W91863  43.939  34.395   0.883
23501W        W91864  37.398  25.566   2.356
23502W        W91865  41.454  15.110   2.766
23503W        W91866   5.310   6.276   1.810
23504W        W91867  16.572  18.188   3.229
23505W        W91868  21.550  23.109  13.436
23506W        W91869   9.150  17.786  12.399
23507W        W91870  25.006  22.615   4.266
23508W        W91871  20.640  32.918   2.775
23509W        W91872  38.410  26.082   4.775
23510W        W91873  26.973  42.848   3.148
23511W        W91874  25.969  13.668   4.820
23512W        W91875  18.764  42.790  12.567
23513W        W91876  25.967  44.774   2.697
23514W        W91877  16.784  21.257  13.518
23515W        W91878  19.577  12.703   1.701
23516W        W91879  35.362   9.344   1.870
23517W        W91880  25.028  18.608  10.535
23518W        W91881  15.205  26.170   3.701
23519W        W91882  18.587  14.271  12.903
23520W        W91883  39.326  14.172   3.268
23521W        W91884  11.195  29.563   3.343
23522W        W91885  44.446   3.752   3.343
23523W        W91886  39.422  21.039   1.367
23524W        W91887  21.703   9.382   4.732
23525W        W91888  38.486   7.873  12.457
23526W        W91889  22.572  26.085  14.969
23527W        W91890  24.673  27.093  12.509
23528W        W91891  33.885  14.318   0.944
23529W        W91892  44.473   8.205   2.831
23530W        W91893  38.055  22.631  14.491
23531W        W91894  35.582  10.221  11.958
23532W        W91895   9.394   8.357  11.974
23533W        W91896   4.937  35.014   3.716
23534W        W91897  39.531  33.076   3.240
23535W        W91898  36.495  24.016   2.682
23536W        W91899  18.085  20.648  14.928
23537W        W91900  36.076   1.737  11.071
23538W        W91901   5.915  42.818  11.978
23539W        W91902  22.510  11.209  11.043
23540W        W91903  28.106  20.094   2.342
23541W        W91904   2.242  37.996  11.612
23542W        W91905  43.929  21.513   0.411
23543W        W91906  25.111  19.695  12.865
23544W        W91907  30.452  17.678   0.280
23545W        W91908  28.044  16.237   0.313
23546W        W91909  21.032  42.482   3.813
23547W        W91910  24.675  28.131   1.442
23548W        W91911   2.952  33.419   1.917
23549W        W91912  35.513  14.167  12.830
23550W        W91913  15.729  43.935  14.812
23551W        W91914   7.365  16.305   3.322
23552W        W91915  43.776  29.139  13.984
23553W        W91916  19.265  44.976  14.491
23554W        W91917  19.634  44.425  14.886
23555W        W91918   0.812  18.142   4.317
23556W        W91919  29.636   2.729   0.968
23557W        W91920  25.653  41.476   1.211
23558W        W91921  16.790  34.422   1.402
23559W        W91922  34.899  32.392   0.890
23560W        W91923  43.448  29.136   4.169
23561W        W91924  36.379  40.804  13.935
23562W        W91925   0.971  34.418  14.448
23563W        W91926  12.154  31.643   3.658
23564W        W91927  12.136  44.369   3.836
23565W        W91928  34.935   5.920  14.334
23566W        W91929  12.262  40.308  11.419
23567W        W91930   0.440  36.353   1.815
23568W        W91931  31.602  23.660   4.157
23569W        W91932  31.124  41.348  12.481
23570W        W91933  11.706  25.154  11.406
23571W        W91934   7.884  36.479   0.401
23572W        W91935  40.545  29.169  14.435
23573W        W91936  34.389  41.537  12.406
23574W        W91937  28.648   4.395   2.230
23575W        W91938  11.359  14.668  13.937
23576W        W91939   1.278  11.214   0.278
23577W        W91940  12.844  10.675  13.337
23578W        W91941  10.790  35.953   5.317
23579W        W91942   1.953  33.078  14.940
23580W        W91943  34.114  32.612   2.194
23581W        W91944  12.763  19.107   0.433
23582W        W91945  39.955  11.842   0.288
23583W        W91946  12.256   1.772   2.219
23584W        W91947  29.029   3.374   2.883
23585W        W91948  26.579   9.888   4.809
23586W        W91949  41.379  38.527  11.886
23587W        W91950  14.670  23.549  13.997
23588W        W91951  35.994  44.862   4.197
23589W        W91952   2.898  22.194  10.120
23590W        W91953  33.611  20.193   1.740
23591W        W91954  21.607  25.517  11.956
23592W        W91955   1.455   4.819   3.244
23593W        W91956  39.507  38.973   2.318
23594W        W91957  28.031  29.153   2.394
23595W        W91958  44.371   0.895   4.828
23596W        W91959   0.887   9.844   0.355
23597W        W91960  17.277  34.863   2.886
23598W        W91961  42.305  43.871   0.465
23599W        W91962  28.173  11.195   0.279
23600W        W91963  13.108  40.814   2.719
23601W        W91964   5.796  18.552   4.323
23602W        W91965  26.004  33.082   4.755
23603W        W91966   2.877   3.374  11.387
23604W        W91967  19.204   3.853  10.503
23605W        W91968  14.286  14.192  13.004
23606W        W91969  31.134  20.030   0.358
23607W        W91970  32.408  28.122  10.421
23608W        W91971  14.262  28.673   1.784
23609W        W91972  13.282  12.783  13.470
23610W        W91973  32.886  33.970   2.281
23611W        W91974  10.262  25.192   1.819
23612W        W91975  14.252  42.516  11.867
23613W        W91976  10.706  35.511   1.906
23614W        W91977   5.225  33.597   3.754
23615W        W91978  22.537   2.354  11.958
23616W        W91979  33.097   3.412  11.603
23617W        W91980  19.609  16.707  13.361
23618W        W91981  11.814   6.376   3.375
23619W        W91982   7.715  13.793  10.574
23620W        W91983  11.754  20.737   3.350
23621W        W91984  10.790  35.604   2.774
23622W        W91985  24.104  24.698  13.835
23623W        W91986  36.854  18.675   0.466
23624W        W91987   9.773  13.839  10.963
23625W        W91988  35.921  32.430  11.867
23626W        W91989  39.880   9.818  12.932
23627W        W91990  16.219  10.878  12.069
23628W        W91991   2.912   7.239   3.708
23629W        W91992  15.674  22.554  12.025
23630W        W91993  34.597  26.030  10.579
23631W        W91994  38.394  32.969  13.944
23632W        W91995  39.554  27.453   3.698
23633W        W91996  34.963   3.789  10.430
23634W        W91997  35.870  12.217  13.029
23635W        W91998  44.770  13.609   3.307
23636W        W91999   0.762  14.154   3.795
23637W        W92000   9.380   5.310  11.450
23638W        W92001  14.808  13.816   4.143
23639W        W92002  24.058  16.660   1.874
23640W        W92003  35.539  36.442   0.474
23641W        W92004  37.058   4.910  11.925
23642W        W92005  29.494   9.692  12.440
23643W        W92006  27.000  12.211  10.591
23644W        W92007  41.874  31.469  12.484
23645W        W92008  20.623   5.891   1.812
23646W        W92009  39.988   5.819   4.211
23647W        W92010  16.276  36.022   0.432
23648W        W92011  22.670  14.776   4.273
23649W        W92012  11.767  33.594   4.819
23650W        W92013   0.863   4.868   2.816
23651W        W92014   7.386  22.127  13.023
23652W        W92015  18.740  31.500   4.214
23653W        W92016  23.599   0.979   1.857
23654W        W92017   6.779  21.138  10.419
23655W        W92018   6.816  13.733   1.400
23656W        W92019  32.962  31.951  14.478
23657W        W92020  17.306   2.376  14.420
23658W        W92021  18.230  17.176   2.838
23659W        W92022   0.884  14.101  12.897
23660W        W92023   5.221  14.175   4.836
23661W        W92024  39.426  40.407  11.492
23662W        W92025  12.360  11.291  13.792
23663W        W92026  41.296  30.022  14.463
23664W        W92027  28.667  33.033   2.861
23665W        W92028   2.850   2.907  12.557
23666W        W92029  36.003  30.652   2.201
23667W        W92030  38.373   0.289  14.432
23668W        W92031   4.827  15.718   2.816
23669W        W92032  23.570  24.643   3.841
23670W        W92033   6.328  15.326   0.329
23671W        W92034  28.055  21.100   2.902
23672W        W92035  15.619   2.885   1.765
23673W        W92036  15.595   2.369  14.842
23674W        W92037   6.921  37.528   3.820
23675W        W92038   5.271  20.564   0.473
23676W        W92039   6.242  12.761  14.850
23677W        W92040   9.199  27.552   3.768
23678W        W92041  27.950   5.366   1.395
23679W        W92042  29.669  16.617  11.377
23680W        W92043  37.919  24.182  11.512
23681W        W92044  27.981  30.607   4.779
23682W        W92045  31.999   8.684  11.857
23683W        W92046   2.886  18.179  14.378
23684W        W92047  39.389  18.174   0.250
23685W        W92048  31.521  41.405   3.850
23686W        W92049  40.854  38.990   2.266
23687W        W92050  16.617  43.426   3.228
23688W        W92051  43.395  24.667  13.056
23689W        W92052  16.760  20.539   3.159
23690W        W92053   2.336  29.091   2.368
23691W        W92054   6.298   7.792  13.414
23692W        W92055  31.015  29.655  10.516
23693W        W92056  44.866  40.425   1.236
23694W        W92057  25.498  17.671  10.939
23695W        W92058  14.258  35.036  11.432
23696W        W92059  30.473  35.479  11.519
23697W        W92060  24.495  27.572  12.577
23698W        W92061  10.800  20.245   1.440
23699W        W92062   8.757   8.247   3.370
23700W        W92063  24.057  11.621   5.104
23701W        W92064  14.791  43.881   3.189
23702W        W92065  14.272  32.141  12.546
23703W        W92066  37.348   5.238   3.366
23704W        W92067   0.934  16.683  13.913
23705W        W92068  14.607  30.911  12.429
23706W        W92069  37.073   5.813  14.803
23707W        W92070   5.817   7.792  13.534
23708W        W92071   9.808  23.593   1.854
23709W        W92072  20.188  15.772  13.819
23710W        W92073  14.110  26.583   0.926
23711W        W92074  27.127  12.627  13.347
23712W        W92075  43.323  42.916  11.933
23713W        W92076  20.181  13.242   2.848
23714W        W92077  37.385  33.551   5.318
23715W        W92078  30.569  13.136  12.408
23716W        W92079  10.784  29.108  10.631
23717W        W92080  43.868  21.180  10.406
23718W        W92081   2.959  23.601  12.360
23719W        W92082   6.827  25.210  11.444
23720W        W92083   0.424  29.473   4.704
23721W        W92084   7.400  44.374  12.500
23722W        W92085   0.457   6.678   2.667
23723W        W92086  27.018   4.885   1.265
23724W        W92087  34.452  17.154   4.312
23725W        W92088  31.149  26.974   5.153
23726W        W92089  23.642  29.049  11.553
23727W        W92090  33.935  42.009   4.613
23728W        W92091   8.818  21.701   2.418
23729W        W92092  17.693  16.757   0.953
23730W        W92093  34.018  39.472   1.365
23731W        W92094   7.362  25.100  12.379
23732W        W92095  18.750  13.617  10.568
23733W        W92096  26.509  23.051   3.296
23734W        W92097  26.686  16.771  11.583
23735W        W92098   9.297  13.106  14.992
23736W        W92099  26.606   3.329   3.232
23737W        W92100  22.733  17.661  12.388
23738W        W92101  19.210  41.802   4.127
23739W        W92102  10.302  10.777  11.116
23740W        W92103  40.834  27.032   2.213
23741W        W92104   2.958  26.172  12.947
23742W        W92105  11.282   7.184   1.785
23743W        W92106   8.860   1.821  13.003
23744W        W92107  43.968  19.595   5.308
23745W        W92108  10.714   6.224  10.499
23746W        W92109  17.749  41.310   0.945
23747W        W92110  30.058  34.517  11.575
23748W        W92111  39.063   1.948   3.694
23749W        W92112  42.364  24.661   1.255
23750W        W92113  31.110  36.061  14.817
23751W        W92114  38.911  30.492   3.350
23752W        W92115   3.298  44.907   0.742
23753W        W92116  28.158  41.365   2.781
23754W        W92117  39.999  29.922   3.210
23755W        W92118  27.574   8.311  13.308
23756W        W92119  42.293  27.492   3.748
23757W        W92120  20.581  28.052  13.432
23758W        W92121  27.064   7.366   4.608
23759W        W92122  24.125  30.623   0.941
23760W        W92123  25.513  33.008  10.435
23761W        W92124  28.175  27.490   1.717
23762W        W92125  24.018  41.860   3.268
23763W        W92126  38.897   3.255  11.030
23764W        W92127  37.878  34.405   3.212
23765W        W92128   8.732   1.250  14.786
23766W        W92129  31.541  34.889  11.899
23767W        W92130  34.109  43.304  14.322
23768W        W92131   2.820   6.811  10.933
23769W        W92132  43.408  24.221  14.861
23770W        W92133   8.190  29.063  13.308
23771W        W92134  25.619  11.257   2.773
23772W        W92135  25.033  17.559   4.777
23773W        W92136  18.160   8.671   3.699
23774W        W92137  42.300   4.787   1.729
23775W        W92138  15.084   3.820   0.356
23776W        W92139  42.517  31.534  12.436
23777W        W92140  16.178  25.519   0.817
23778W        W92141  36.376  27.130  14.280
23779W        W92142  28.479   4.839  12.860
23780W        W92143  12.699  40.913  10.924
23781W        W92144  43.295  32.440   4.755
23782W        W92145  12.617  32.931   0.731
23783W        W92146  39.997  35.387   0.821
23784W        W92147  29.021  25.197  11.124
23785W        W92148  34.924  19.282  12.841
23786W        W92149  33.922  33.990   4.650
23787W        W92150  35.599  13.193  14.462
23788W        W92151  18.121  14.102   3.800
23789W        W92152  34.077   8.395  14.773
23790W        W92153  29.953   5.228  10.599
23791W        W92154  16.195  33.598  14.410
23792W        W92155  42.030  22.007  14.761
23793W        W92156  12.850  15.632   1.277
23794W        W92157  32.635   2.920  13.396
23795W        W92158   6.228  12.804   2.709
23796W        W92159  21.039  19.042   3.226
23797W        W92160  30.985  13.262   4.191
23798W        W92161  44.365  40.359   4.663
23799W        W92162   8.757  43.960  14.391
23800W        W92163  32.048  12.330  14.331
23801W        W92164   8.335  21.659  14.948
23802W        W92165  29.923  34.447   1.276
23803W        W92166  19.756  28.952  11.082
23804W        W92167  33.539  43.766  13.829
23805W        W92168   4.351  38.834  10.438
23806W        W92169  36.504  37.845  11.016
23807W        W92170  40.377  33.586  13.392
23808W        W92171  28.989  17.592   3.303
23809W        W92172   4.873  43.329  13.535
23810W        W92173  10.762  31.069   0.958
23811W        W92174   0.394   5.908   0.425
23812W        W92175   5.729  32.474   3.671
23813W        W92176  33.450   3.308   4.714
23814W        W92177  32.488  32.469  10.920
23815W        W92178  22.609   8.193   0.782
23816W        W92179  37.456  30.134   4.134
23817W        W92180  11.759  29.582   3.176
23818W        W92181  36.527  20.253   3.656
23819W        W92182  26.075  23.554  10.930
23820W        W92183  31.494  12.187  13.321
23821W        W92184  43.300  11.199  12.553
23822W        W92185  17.696  15.735   0.292
23823W        W92186  30.954  22.519  11.892
23824W        W92187  24.160   2.270  11.456
23825W        W92188  28.048   2.735   0.342
23826W        W92189  28.539   5.416  13.038
23827W        W92190   8.295  29.152   2.407
23828W        W92191  34.912   5.387  11.611
23829W        W92192  40.865  27.544   1.850
23830W        W92193   7.666  30.066  10.585
23831W        W92194  10.692  28.575  14.417
23832W        W92195  13.619  28.932   4.352
23833W        W92196   4.831   5.866  14.333
23834W        W92197  20.568  14.643  12.002
23835W        W92198   6.722  25.024   4.655
23836W        W92199   0.878  42.302   4.624
23837W        W92200  39.504  12.265  14.929
23838W        W92201  21.677  44.476   1.742
23839W        W92202  41.388   7.364  11.437
23840W        W92203   7.205   2.307  10.471
23841W        W92204   0.871  36.371   0.350
23842W        W92205   4.261  27.971   0.398
23843W        W92206  10.300   5.433   4.683
23844W        W92207  24.018  31.412   4.675
23845W        W92208  12.122  14.133  14.974
23846W        W92209   9.825   2.304   1.356
23847W        W92210  42.821   7.851  12.482
23848W        W92211  29.570  25.471  13.802
23849W        W92212  16.308  30.564  13.423
23850W        W92213  25.033  23.644  14.951
23851W        W92214   1.942   0.743   9.974
23852W        W92215  11.192  38.366   2.730
23853W        W92216  18.728  32.509  12.869
23854W        W92217  36.549  39.471  10.576
23855W        W92218  43.351  39.422   0.247
23856W        W92219  25.673  42.415   2.670
23857W        W92220  40.047   0.291  11.444
23858W        W92221   3.454  25.529  13.062
23859W        W92222  23.719  19.620  12.549
23860W        W92223   6.703  26.988   2.334
23861W        W92224  39.379  37.546   3.374
23862W        W92225  16.761  16.676  13.041
23863W        W92226  11.320   5.808   1.860
23864W        W92227   0.299  25.564   0.280
23865W        W92228  44.491  33.993  13.871
23866W        W92229   9.650  23.609  11.450
23867W        W92230  41.455   6.342  13.854
23868W        W92231  36.977  44.005  10.938
23869W        W92232  24.156   5.400  10.994
23870W        W92233  43.379  39.490   1.299
23871W        W92234   9.705  21.142  14.317
23872W        W92235  20.143  17.683  11.873
23873W        W92236  32.032  18.722  12.355
23874W        W92237  35.381  14.270  11.027
23875W        W92238   4.308  29.960   4.301
23876W        W92239  43.800  42.342  11.581
23877W        W92240  34.090  26.164  10.564
23878W        W92241  32.595   9.805  11.417
23879W        W92242   1.465  20.100  10.488
23880W        W92243  38.968  38.467  10.115
23881W        W92244  10.733   4.829   1.390
23882W        W92245  14.240  28.059   1.846
23883W        W92246  24.707  42.981  13.941
23884W        W92247  37.582  13.839   5.141
23885W        W92248  18.275  25.099  14.468
23886W        W92249  23.216   1.863   4.139
23887W        W92250  42.855  29.652  12.023
23888W        W92251  32.102  11.628  13.410
23889W        W92252  30.943   7.322   2.230
23890W        W92253  17.101  11.834   2.335
23891W        W92254  38.568  43.383   0.904
23892W        W92255  34.975   6.716  14.402
23893W        W92256  20.688  22.564  10.983
23894W        W92257  24.112  41.803   2.273
23895W        W92258  18.600  17.655  12.045
23896W        W92259  11.839   3.842   0.749
23897W        W92260  18.152  35.360   4.253
23898W        W92261  12.705  21.552   1.905
23899W        W92262  19.679  14.592   0.462
23900W        W92263   8.729  34.566  11.897
23901W        W92264  13.733   5.761   1.385
23902W        W92265   8.896   5.381   4.258
23903W        W92266  37.059  23.037  11.976
23904W        W92267  30.920  29.557   5.318
23905W        W92268   3.806  28.165   4.267
23906W        W92269  39.361  31.941   1.738
23907W        W92270   2.247  19.062  11.935
23908W        W92271  38.951  12.259  13.543
23909W        W92272  22.513  10.833  12.072
23910W        W92273  22.704   1.747   5.083
23911W        W92274  25.630  44.948   3.703
23912W        W92275  38.440  15.279  13.891
23913W        W92276  16.613  35.466  10.514
23914W        W92277  24.082  19.119  13.314
23915W        W92278  40.380  24.104   0.298
23916W        W92279   9.395   4.833   3.753
23917W        W92280  12.723  21.587  11.009
23918W        W92281  21.170  29.661   4.171
23919W        W92282  39.503   3.954   0.829
23920W        W92283  23.200   9.850   3.232
23921W        W92284  13.623  38.822  10.981
23922W        W92285  44.909  34.888  11.879
23923W        W92286  12.152  23.184   1.294
23924W        W92287  19.603  44.910  10.472
23925W        W92288  34.465  33.388   1.290
23926W        W92289  21.167  38.541  11.898
23927W        W92290  42.964  43.789   0.402
23928W        W92291  25.084  30.039   4.229
23929W        W92292  25.004   4.935  12.972
23930W        W92293  42.808  33.520  13.942
23931W        W92294  39.421  17.191  11.043
23932W        W92295  14.190  19.181  12.469
23933W        W92296  12.224  44.939  14.398
23934W        W92297  27.192  19.543   0.940
23935W        W92298  11.754  18.769   3.844
23936W        W92299  14.124  36.033  14.888
23937W        W92300  18.251  31.989   3.742
23938W        W92301   5.253  38.499  12.984
23939W        W92302   4.897  31.076   1.921
23940W        W92303  39.001   5.426  13.547
23941W        W92304   0.784  11.694  13.998
23942W        W92305  12.669  40.432   2.751
23943W        W92306  34.468  16.654  14.813
23944W        W92307  26.096  19.219  11.894
23945W        W92308   5.716   5.369  13.529
23946W        W92309  17.693  43.922  11.402
23947W        W92310  35.108  21.241  13.460
23948W        W92311  42.006  21.126   0.931
23949W        W92312  40.448  35.486   3.355
23950W        W92313   1.314   9.245   1.319
23951W        W92314  16.178   7.375  12.370
23952W        W92315  12.775  28.672   4.284
23953W        W92316  38.400  23.706   2.258
23954W        W92317   8.236   1.737   0.915
23955W        W92318  35.469  13.182   1.445
23956W        W92319  28.673   4.844   9.982
23957W        W92320  25.158  29.068  13.364
23958W        W92321   3.879  43.305   1.283
23959W        W92322   9.734   3.274   3.323
23960W        W92323  19.151  35.010  11.904
23961W        W92324  24.721   8.402  11.967
23962W        W92325  40.523  30.106   0.843
23963W        W92326  38.047  39.872  11.571
23964W        W92327  41.535  15.094   2.233
23965W        W92328  31.479  28.052  14.437
23966W        W92329  35.369   4.372  10.619
23967W        W92330  25.711   9.178   2.218
23968W        W92331  37.025  16.142  11.118
23969W        W92332  20.072  29.563   2.762
23970W        W92333  39.991  19.205   3.355
23971W        W92334  19.246  14.710  14.797
23972W        W92335  36.543   6.740  13.819
23973W        W92336   7.675  43.317  12.829
23974W        W92337  33.616  21.038  14.021
23975W        W92338  15.115  41.436  14.765
23976W        W92339   5.286  26.523   1.374
23977W        W92340  26.104  20.250  12.832
23978W        W92341  11.172  13.750   1.403
23979W        W92342  14.659  16.099   9.441
23980W        W92343  10.686  15.296   2.769
23981W        W92344  40.504  32.927   3.267
23982W        W92345  18.109  42.471  11.447
23983W        W92346  33.420  28.493  11.119
23984W        W92347  37.015  18.624  10.404
23985W        W92348  25.984  43.339  11.875
23986W        W92349   1.846   8.279  13.508
23987W        W92350  27.617  27.451  11.939
23988W        W92351   8.763  22.233   0.404
23989W        W92352  21.544   6.260  12.079
23990W        W92353  33.598   4.816  13.990
23991W        W92354   2.847  12.761  10.585
23992W        W92355  13.340   4.301  13.891
23993W        W92356  24.069   2.354  10.434
23994W        W92357  24.554  36.036  12.580
23995W        W92358   4.333   0.946  13.307
23996W        W92359  22.238  14.257   1.328
23997W        W92360   8.821  36.363  10.596
23998W        W92361  34.561  24.671   3.255
23999W        W92362   7.740  30.106  14.938
24000W        W92363  43.401  34.904   3.356
24001W        W92364   2.765  44.866  11.004
24002W        W92365  40.483  36.498  12.068
24003W        W92366  12.183   5.263  14.016
24004W        W92367  19.684  38.069  11.878
24005W        W92368  26.576  39.511   4.650
24006W        W92369  27.622   5.811   2.228
24007W        W92370  13.307   7.382   0.862
24008W        W92371  44.847  41.961   0.833
24009W        W92372   9.739  21.529  10.552
24010W        W92373  19.168  34.891  14.031
24011W        W92374  31.405  24.980  10.525
24012W        W92375  38.380  10.246   4.629
24013W        W92376  43.434  36.557   1.751
24014W        W92377  11.205   5.337   4.627
24015W        W92378  29.133  17.572  12.379
24016W        W92379  13.658  34.090  14.895
24017W        W92380   3.381  23.706  14.833
24018W        W92381  38.389  38.407   2.236
24019W        W92382  41.405  20.652   4.178
24020W        W92383  18.612  28.673   4.722
24021W        W92384  13.326  27.144  10.425
24022W        W92385   6.825  26.046  12.974
24023W        W92386  24.199  12.324   0.417
24024W        W92387  24.978  34.419  11.415
24025W        W92388  40.823  43.789  11.109
24026W        W92389  37.955   5.925  14.791
24027W        W92390  29.554  11.278   1.698
24028W        W92391  21.716  38.431  12.572
24029W        W92392  15.087  21.024  11.406
24030W        W92393  19.217   7.364   4.690
24031W        W92394   9.688  43.990   4.690
24032W        W92395  35.078  36.990  12.511
24033W        W92396  21.047  22.547   3.361
24034W        W92397  23.728  43.356  12.983
24035W        W92398   9.150   1.940  13.349
24036W        W92399  13.221  43.460  11.049
24037W        W92400  10.355  22.136  10.595
24038W        W92401  39.028  18.658   4.704
24039W        W92402  18.769  42.403  10.598
24040W        W92403  34.471  29.977  13.973
24041W        W92404  19.250  32.567  13.967
24042W        W92405  36.445   6.405  10.465
24043W        W92406   4.392  42.793   2.254
24044W        W92407  15.786   0.348  12.440
24045W        W92408  25.536  43.413   2.858
24046W        W92409   6.386  27.560  13.944
24047W        W92410   0.989  17.103  13.498
24048W        W92411  28.677  42.999  13.827
24049W        W92412  33.400   2.443   2.689
24050W        W92413  11.206   6.736  13.989
24051W        W92414  38.956   8.899   1.881
24052W        W92415  38.055  30.476  13.914
24053W        W92416   7.754  44.807   4.153
24054W        W92417  11.800  36.570  12.433
24055W        W92418  37.513  10.805  13.465
24056W        W92419  15.664   9.667  11.390
24057W        W92420  16.298  30.589  10.644
24058W        W92421  42.978  40.964   1.403
24059W        W92422  44.454  21.600   3.362
24060W        W92423  25.541  17.726   0.774
24061W        W92424   7.753  21.160   1.875
24062W        W92425  28.472  37.416  13.479
24063W        W92426  10.729  10.723  10.956
24064W        W92427  27.090  21.101  14.984
24065W        W92428  40.465  36.384  10.486
24066W        W92429  42.483  19.049  11.990
24067W        W92430  20.139  23.705   2.240
24068W        W92431   8.787   8.724   3.866
24069W        W92432   3.924  22.161  13.530
24070W        W92433  19.232  38.385   2.778
24071W        W92434   0.840  40.314   0.885
24072W        W92435  21.596  36.498  13.476
24073W        W92436  14.229  39.818   2.851
24074W        W92437  36.951   9.224   1.304
24075W        W92438  32.131  25.615  12.029
24076W        W92439  38.864  30.908  13.484
24077W        W92440  29.148  30.552   4.175
24078W        W92441  44.334  21.597  13.032
24079W        W92442  43.423  31.071   3.269
24080W        W92443  28.103  38.548   2.364
24081W        W92444  20.570  33.901  13.494
24082W        W92445  10.861  37.365   1.439
24083W        W92446  14.748  31.413  10.995
24084W        W92447  41.487   2.280   2.729
24085W        W92448  40.942  35.467   3.338
24086W        W92449  31.971  37.550   2.833
24087W        W92450  15.152   4.423  11.546
24088W        W92451  17.107   4.850  11.982
24089W        W92452  29.157  39.870  13.920
24090W        W92453  32.015  43.870  11.097
24091W        W92454  40.014  44.421  11.470
24092W        W92455  28.577  15.304   1.288
24093W        W92456  40.843   2.423  12.533
24094W        W92457   4.282  14.288   0.924
24095W        W92458  32.454  25.552  12.413
24096W        W92459  13.680  20.254  13.388
24097W        W92460  34.093   4.329   4.718
24098W        W92461  27.662   8.877   1.407
24099W        W92462  44.927  12.127   3.709
24100W        W92463  38.053  31.524  11.397
24101W        W92464  31.524   9.277  13.992
24102W        W92465  16.583  31.409   0.382
24103W        W92466  42.847  10.373   4.689
24104W        W92467   1.296  31.072   1.769
24105W        W92468  23.161  44.895   2.781
24106W        W92469  26.194   5.287   4.268
24107W        W92470  12.219  22.745   4.762
24108W        W92471  20.090  40.006   1.427
24109W        W92472   1.741  31.590   3.689
24110W        W92473  21.211  34.570   4.670
24111W        W92474  14.173  43.474  14.787
24112W        W92475  28.071  19.158  13.966
24113W        W92476  12.649   9.373  10.939
24114W        W92477  26.628  24.713  12.573
24115W        W92478  33.559   8.828  14.867
24116W        W92479  37.997  13.304  13.359
24117W        W92480  39.037  40.845  10.907
24118W        W92481  26.156  13.699  14.389
24119W        W92482   5.919  23.528   0.837
24120W        W92483  28.653  31.616  14.426
24121W        W92484  35.955  13.134  10.976
24122W        W92485   7.688  22.601   2.774
24123W        W92486  29.565  14.247   0.765
24124W        W92487  29.087  30.471   3.666
24125W        W92488   5.255  16.636  13.019
24126W        W92489   5.401  26.591  12.389
24127W        W92490  19.188  10.698  13.425
24128W        W92491   9.261  39.373  12.980
24129W        W92492  28.166   3.267   4.150
24130W        W92493   6.286  34.874  12.918
24131W        W92494   2.778  32.108   3.659
24132W        W92495  31.143  39.907   2.371
24133W        W92496  31.962   6.183   4.153
24134W        W92497  44.789  22.626   2.264
24135W        W92498  37.850  39.854  10.559
24136W        W92499  38.875  24.125   2.354
24137W        W92500  30.551  24.163  13.327
24138W        W92501  42.522   0.921  13.320
24139W        W92502  39.484  27.021  10.501
24140W        W92503   0.901   1.869  10.988
24141W        W92504  33.492  30.585  11.949
24142W        W92505  44.504  36.075  13.499
24143W        W92506   2.738   0.979  13.967
24144W        W92507  29.110  31.909   9.923
24145W        W92508  12.691  31.512  13.502
24146W        W92509  11.196   3.848   3.309
24147W        W92510   3.878  23.002   1.745
24148W        W92511   2.340   8.378   0.439
24149W        W92512  17.570  27.637   3.169
24150W        W92513  43.789  28.968   2.810
24151W        W92514  28.445  28.091  13.407
24152W        W92515  33.881  16.293   2.299
24153W        W92516  14.703  24.216  13.309
24154W        W92517  12.217  31.528  14.872
24155W        W92518  43.010   3.944   3.855
24156W        W92519  14.106   7.331   0.851
24157W        W92520  17.212  31.439   0.397
24158W        W92521  33.892  29.620  14.802
24159W        W92522  32.523   9.365  12.086
24160W        W92523  42.332   8.403   4.121
24161W        W92524  15.260  30.919   1.804
24162W        W92525   9.196  29.124  11.455
24163W        W92526  44.965  17.797  14.380
24164W        W92527  35.040  24.176   2.390
24165W        W92528  16.641  41.789  10.985
24166W        W92529  32.926  38.988   1.413
24167W        W92530  16.735   1.452  11.040
24168W        W92531  43.767  16.235  13.920
24169W        W92532  30.960  21.658  13.367
24170W        W92533  38.061  14.207   4.704
24171W        W92534  11.234  16.264   2.261
24172W        W92535  11.358  11.236   1.392
24173W        W92536   5.378  36.419   3.263
24174W        W92537  21.665   0.957   4.134
24175W        W92538   0.491  18.062   4.220
24176W        W92539   2.289  23.553  13.050
24177W        W92540  26.974  16.773   3.809
24178W        W92541  14.255  19.556  11.589
24179W        W92542   0.452  22.547  14.475
24180W        W92543  30.656  17.200  14.794
24181W        W92544  39.897  23.220   2.699
24182W        W92545  10.852  21.203   3.371
24183W        W92546  25.994  26.590  10.455
24184W        W92547  20.038  11.343   1.818
24185W        W92548  41.021  39.424   0.374
24186W        W92549  13.318  15.240  11.945
24187W        W92550   6.268   4.356  11.031
24188W        W92551  12.775  18.782   2.395
24189W        W92552  12.666  44.005   2.337
24190W        W92553  15.702  26.105   0.821
24191W        W92554  27.083  13.692  14.415
24192W        W92555  30.424  29.110  11.422
24193W        W92556  43.862  26.485   2.324
24194W        W92557   6.214   2.245   1.411
24195W        W92558  22.743  39.936  14.507
24196W        W92559  21.251  38.046   0.955
24197W        W92560  21.120  15.699   4.725
24198W        W92561  15.134   4.840   3.304
24199W        W92562  18.055  32.936   3.329
24200W        W92563   7.414  44.928  13.880
24201W        W92564  18.595   5.324   2.677
24202W        W92565  29.662  32.111   4.309
24203W        W92566  36.563  39.810   4.276
24204W        W92567  22.120  31.105  13.917
24205W        W92568  27.958  13.701   1.726
24206W        W92569  41.522  26.584   2.850
24207W        W92570  33.994  37.555  10.977
24208W        W92571  15.808  40.361   0.737
24209W        W92572  21.041   9.883  11.991
24210W        W92573  22.210  36.925   1.432
24211W        W92574  33.926  23.597   3.326
24212W        W92575  22.599  43.883   2.896
24213W        W92576   1.405  26.048  12.348
24214W        W92577  39.318  30.654  13.043
24215W        W92578  27.449   6.319   3.682
24216W        W92579  39.336  35.369  11.372
24217W        W92580  32.417  27.665  10.161
24218W        W92581   2.856  28.986   1.313
24219W        W92582  37.862  34.437  13.957
24220W        W92583  29.521  28.969  14.299
24221W        W92584  21.160  43.978  11.935
24222W        W92585   5.769  16.610  12.381
24223W        W92586  19.761   6.733  11.009
24224W        W92587   0.832  42.812  12.491
24225W        W92588  15.765  15.153  10.115
24226W        W92589  27.954  33.102  11.920
24227W        W92590  13.309  29.488   3.149
24228W        W92591  13.165   2.888   0.847
24229W        W92592  16.590  30.522   4.128
24230W        W92593  16.570  21.665  13.980
24231W        W92594  35.861  40.915  13.891
24232W        W92595  35.983   1.244  14.818
24233W        W92596  24.014  43.882  13.882
24234W        W92597   8.717  27.639   1.779
24235W        W92598  28.628  17.748   3.152
24236W        W92599  38.927  15.150  12.845
24237W        W92600  12.263   6.255   0.933
24238W        W92601   1.262  24.191  12.574
24239W        W92602  44.331  33.555   5.201
24240W        W92603   7.835  11.861   1.414
24241W        W92604  15.808  32.105   0.272
24242W        W92605  43.881  41.459  10.564
24243W        W92606   6.208  35.404  10.953
24244W        W92607  16.189  40.961   0.476
24245W        W92608  16.165   4.287   2.781
24246W        W92609  35.591  25.162   1.844
24247W        W92610  22.729  37.347   2.283
24248W        W92611  27.470  44.421   1.874
24249W        W92612  27.979  10.237  10.996
24250W        W92613  30.003  19.598  12.040
24251W        W92614  39.843  33.037  13.405
24252W        W92615   3.720   1.481  13.032
24253W        W92616  37.878   8.248   3.856
24254W        W92617   6.861   7.184   4.822
24255W        W92618  19.234  40.011  14.332
24256W        W92619   0.398   3.265   3.179
24257W        W92620  12.215   9.271   2.720
24258W        W92621  35.933  28.438   3.358
24259W        W92622   5.792  26.052  13.926
24260W        W92623  11.145  12.211  14.856
24261W        W92624  27.085  29.118  12.553
24262W        W92625  29.977  14.133   2.760
24263W        W92626  20.731  16.201   0.437
24264W        W92627  21.211  14.636   0.791
24265W        W92628  35.521  14.741  11.038
24266W        W92629  20.763  17.282  13.906
24267W        W92630  24.700  41.022  14.372
24268W        W92631  31.405  37.862  13.893
24269W        W92632   9.696   3.814   1.305
24270W        W92633   2.822  28.182   0.857
24271W        W92634  44.943  35.905   2.211
24272W        W92635  20.621  38.882  14.478
24273W        W92636   0.268  25.070   1.447
24274W        W92637  41.395  32.938   1.396
24275W        W92638  28.054  29.017   0.917
24276W        W92639  13.263   9.366  14.772
24277W        W92640  30.958  28.952   4.781
24278W        W92641  38.485  13.825   9.960
24279W        W92642  31.998  28.564   9.964
24280W        W92643   7.231   5.429  14.958
24281W        W92644   2.962  34.951   3.170
24282W        W92645  11.748  27.489  10.517
24283W        W92646   7.303  32.509  13.049
24284W        W92647  29.084   2.898  13.432
24285W        W92648  20.715  15.254  11.881
24286W        W92649  33.022  32.059  12.463
24287W        W92650   9.884  36.975   1.227
24288W        W92651  39.831  32.396  13.484
24289W        W92652  39.959  11.742   1.338
24290W        W92653   4.271  39.041   2.404
24291W        W92654  25.513   9.296   4.597
24292W        W92655   0.451   0.482   3.376
24293W        W92656  36.492   8.837   3.724
24294W        W92657  42.830  15.628   0.900
24295W        W92658  17.664   7.765   2.270
24296W        W92659  36.987  40.049   0.865
24297W        W92660  36.895  21.247   3.341
24298W        W92661  42.357  34.100   1.844
24299W        W92662  24.593  22.030  14.824
24300W        W92663   4.824   3.444  12.545
24301W        W92664  44.005   4.864   2.708
24302W        W92665  38.932   3.934  12.384
24303W        W92666  10.383  42.980  13.464
24304W        W92667  20.608   4.936  10.602
24305W        W92668  41.390  23.077  11.050
24306W        W92669   3.825  38.346   2.412
24307W        W92670   3.897   1.354  14.979
24308W        W92671  25.624  32.024  12.445
24309W        W92672  39.328  24.504   2.373
24310W        W92673  10.650  41.966   2.811
24311W        W92674  24.598   7.228  12.462
24312W        W92675  18.656   4.434  14.285
24313W        W92676  31.515  31.926   1.395
24314W        W92677  19.585  30.017  10.970
24315W        W92678   0.304  41.516  12.405
24316W        W92679   0.367   9.168  12.514
24317W        W92680  26.492   5.791   4.130
24318W        W92681  26.667  24.525   4.306
24319W        W92682  17.655  15.096   2.794
24320W        W92683  31.126  36.447  14.800
24321W        W92684  30.972   5.783  13.802
24322W        W92685  39.334  32.501  13.415
24323W        W92686   1.330  19.676  11.929
24324W        W92687  37.478  17.192  10.479
24325W        W92688  38.534  36.973  14.433
24326W        W92689   2.915  15.634  11.389
24327W        W92690  39.008   2.391   1.301
24328W        W92691  24.179  27.169   3.685
24329W        W92692  40.347  19.570  12.561
24330W        W92693  21.636  10.749  14.455
24331W        W92694   5.919   5.711   3.754
24332W        W92695  16.233  11.831   0.866
24333W        W92696  31.994  11.271  12.916
24334W        W92697  15.318   8.378  14.767
24335W        W92698   7.892  32.058   2.720
24336W        W92699  19.738  14.745   2.860
24337W        W92700   7.867   1.849   2.389
24338W        W92701  13.827  17.569   2.670
24339W        W92702  15.185  17.737  13.404
24340W        W92703  22.622  34.882   5.174
24341W        W92704  25.967  30.492   4.679
24342W        W92705  13.167  28.117  14.295
24343W        W92706  27.070  36.527   4.153
24344W        W92707  20.556  10.632   0.853
24345W        W92708  38.025   8.877   4.295
24346W        W92709  43.793   0.806  13.318
24347W        W92710  19.072  30.040   2.402
24348W        W92711   8.719   9.157   4.260
24349W        W92712  20.630  42.801  10.888
24350W        W92713  36.458   7.684  12.998
24351W        W92714  21.602  36.351  12.535
24352W        W92715  14.707   6.896   3.786
24353W        W92716  39.909   7.855   2.254
24354W        W92717  15.183  28.117  11.084
24355W        W92718  39.435   5.392  10.551
24356W        W92719  37.341  23.686  14.871
24357W        W92720  17.131   0.464   2.840
24358W        W92721  27.631  15.155  12.878
24359W        W92722   7.209  14.339   2.828
24360W        W92723  14.749   2.836  10.436
24361W        W92724  26.469  35.541  14.886
24362W        W92725  35.398  40.522  14.506
24363W        W92726  14.749  36.975   3.643
24364W        W92727  22.606  43.289  12.921
24365W        W92728   8.294  39.558   4.616
24366W        W92729  44.341   2.909  12.845
24367W        W92730  34.373  30.503  10.569
24368W        W92731   5.732  44.815  13.495
24369W        W92732  23.699  21.563  13.897
24370W        W92733   8.798  25.677  11.959
24371W        W92734  13.266   6.376  10.045
24372W        W92735  41.514  35.371  13.917
24373W        W92736  24.541  35.361   1.722
24374W        W92737  31.452  44.402   9.665
24375W        W92738  12.309  26.616  11.121
24376W        W92739  29.167  33.906  12.359
24377W        W92740   7.699  41.390   0.331
24378W        W92741  43.509  22.079   3.215
24379W        W92742  29.025  10.697  14.759
24380W        W92743  44.951  43.941  11.436
24381W        W92744  18.079  17.690   3.637
24382W        W92745  42.368  14.598   3.784
24383W        W92746  42.833  20.149  10.892
24384W        W92747  15.298  35.017   0.847
24385W        W92748  36.362  44.881   2.846
24386W        W92749  26.616  14.686   3.870
24387W        W92750  15.794  41.477   2.289
24388W        W92751  11.255  20.562  11.949
24389W        W92752  32.008  21.579  11.041
24390W        W92753  19.596  31.036  14.998
24391W        W92754  15.756  26.590   4.196
24392W        W92755   8.196  42.782  14.458
24393W        W92756  38.913  40.340   0.932
24394W        W92757   5.927  14.261   3.724
24395W        W92758  25.711  39.496  12.035
24396W        W92759  16.796   3.321  12.883
24397W        W92760  38.542   8.861   4.234
24398W        W92761  35.474   4.888   1.334
24399W        W92762  17.647  31.898  11.118
24400W        W92763  29.559  39.423   0.880
24401W        W92764  36.480  33.607  12.938
24402W        W92765  35.031  27.594   3.363
24403W        W92766  24.613   2.351  10.584
24404W        W92767  33.941  39.436   1.930
24405W        W92768  28.943  15.738   4.834
24406W        W92769   3.929  19.772   2.212
24407W        W92770   4.884   2.305   1.222
24408W        W92771   3.279  22.132  12.403
24409W        W92772  43.419  33.605   2.671
24410W        W92773  24.191  32.585   3.845
24411W        W92774  44.476  41.450  14.019
24412W        W92775  32.991   2.307  11.927
24413W        W92776  10.807  44.401  11.095
24414W        W92777  29.047  14.726  10.072
24415W        W92778  33.425  14.702   3.335
24416W        W92779  19.164  39.550  10.893
24417W        W92780   9.344  44.753  11.867
24418W        W92781  18.711  41.953   1.834
24419W        W92782   6.383   5.724   3.838
24420W        W92783   1.822   6.860  10.977
24421W        W92784  38.995   5.395  12.832
24422W        W92785  12.172  21.703  14.759
24423W        W92786  22.517   9.393   1.747
24424W        W92787  38.382  27.962  11.858
24425W        W92788  12.834  23.156   3.369
24426W        W92789  19.246  42.463   1.330
24427W        W92790  18.076  12.266   0.294
24428W        W92791  25.702  16.793   0.433
24429W        W92792  28.124  38.907   1.698
24430W        W92793  27.567  41.940  13.945
24431W        W92794  43.419  14.245  11.054
24432W        W92795  27.685  37.363  13.889
24433W        W92796  37.843   0.947  11.597
24434W        W92797  37.976  30.118  12.845
24435W        W92798  10.355  30.532  13.894
24436W        W92799  27.499  44.003   1.797
24437W        W92800  18.168   2.267  14.997
24438W        W92801  38.007  23.190  12.355
24439W        W92802  14.754  17.648   1.916
24440W        W92803  37.571  41.383   4.614
24441W        W92804   2.739  10.810  12.392
24442W        W92805  36.556  25.185  14.490
24443W        W92806  18.597  35.442  12.850
24444W        W92807  18.221   0.799   4.827
24445W        W92808  18.705   4.388  13.497
24446W        W92809  19.068   5.743   4.765
24447W        W92810  30.491  39.385  13.405
24448W        W92811  44.295   9.349   3.672
24449W        W92812  28.548  33.578   4.320
24450W        W92813  15.226   8.703  12.041
24451W        W92814  10.843  18.181  10.575
24452W        W92815  21.046  19.618   1.378
24453W        W92816  22.726  20.267   0.904
24454W        W92817  12.747  18.193  11.042
24455W        W92818  23.623  30.913   0.865
24456W        W92819   4.876  41.308   4.300
24457W        W92820  15.759  34.055  10.610
24458W        W92821  26.040  38.028   0.316
24459W        W92822   8.774  41.349   3.751
24460W        W92823  41.988  44.410   3.812
24461W        W92824   1.787  10.654   4.651
24462W        W92825   1.321  34.480  14.455
24463W        W92826  27.612  28.061  14.456
24464W        W92827  12.623  29.463   2.807
24465W        W92828  33.907  34.079   3.856
24466W        W92829  14.733  23.489   4.632
24467W        W92830  24.998  23.090   1.213
24468W        W92831  24.061  14.793   2.187
24469W        W92832  13.170  16.740  11.919
24470W        W92833  13.647  21.666  11.404
24471W        W92834  39.361  32.551   2.333
24472W        W92835  11.798   7.317  13.505
24473W        W92836  38.446  39.869   0.918
24474W        W92837  12.639  23.694   2.195
24475W        W92838   8.351  40.532   1.935
24476W        W92839  34.376  11.206   1.341
24477W        W92840   2.392  22.079   5.686
24478W        W92841  13.826   3.817   1.817
24479W        W92842  32.956  12.776   3.189
24480W        W92843  11.830  14.701   0.875
24481W        W92844  31.003   5.240  14.277
24482W        W92845   8.371  29.062  13.805
24483W        W92846   7.685   6.296   3.321
24484W        W92847  35.852  24.110   4.637
24485W        W92848  11.256  31.988   4.724
24486W        W92849  32.076  11.710   4.138
24487W        W92850   3.246  39.914   1.343
24488W        W92851  24.004  34.876   2.786
24489W        W92852  10.353  33.464   0.907
24490W        W92853   7.269  10.799   2.895
24491W        W92854  22.048  38.069   0.815
24492W        W92855  32.394  28.585  10.103
24493W        W92856   5.894  42.801   5.139
24494W        W92857  12.354  35.557   3.856
24495W        W92858  33.526  35.418  14.317
24496W        W92859   6.313   9.346   1.761
24497W        W92860   8.797  44.913   4.179
24498W        W92861  33.436  33.527   3.837
24499W        W92862   5.250   2.311   2.745
24500W        W92863  30.062  38.329  14.778
24501W        W92864  13.341  44.793  11.450
24502W        W92865  29.031  29.655   5.753
24503W        W92866   4.785  21.520   1.918
24504W        W92867  40.909  10.650   2.677
24505W        W92868  40.031  15.667   4.114
24506W        W92869   9.765   7.823   0.888
24507W        W92870  35.919  27.069  11.449
24508W        W92871  23.229   6.217  13.900
24509W        W92872  35.485  15.269  11.016
24510W        W92873  34.551   2.744  11.572
24511W        W92874  14.714  30.936   2.670
24512W        W92875  42.403   2.366  14.416
24513W        W92876  10.758  37.915  11.100
24514W        W92877  22.133   8.279   1.873
24515W        W92878  21.095  44.505  14.438
24516W        W92879  41.350  15.284   4.196
24517W        W92880  38.970   1.854  13.882
24518W        W92881  24.210   6.394   0.258
24519W        W92882  30.959  26.047   2.401
24520W        W92883   4.932  16.717   2.744
24521W        W92884  34.907  31.482  11.378
24522W        W92885   8.794  34.476   2.852
24523W        W92886  18.209  41.893  14.337
24524W        W92887  22.684  41.946   0.784
24525W        W92888  24.691  11.781   2.728
24526W        W92889   0.453  11.826  11.025
24527W        W92890   2.773  35.468  12.068
24528W        W92891   6.377   8.662   1.896
24529W        W92892  36.950  26.579   0.871
24530W        W92893  30.630  32.620  11.006
24531W        W92894  10.638  28.062   3.147
24532W        W92895  14.267   1.859  12.372
24533W        W92896  28.594  13.764  12.512
24534W        W92897  27.094  18.747  11.981
24535W        W92898  19.155  13.180   1.351
24536W        W92899   1.808  27.971   3.811
24537W        W92900  17.204  27.142  11.108
24538W        W92901  33.977  32.915  14.405
24539W        W92902  26.650  25.156  11.535
24540W        W92903  29.424  33.010  14.881
24541W        W92904   1.447  29.548  14.409
24542W        W92905  29.642  27.655   9.980
24543W        W92906  14.229   7.242   1.883
24544W        W92907  34.880  14.623  12.514
24545W        W92908  34.019  44.960   2.225
24546W        W92909  44.279  27.498  12.924
24547W        W92910  31.620  21.097   1.367
24548W        W92911  44.383  41.520   2.836
24549W        W92912  26.511   1.813   1.931
24550W        W92913  13.734  11.778   1.294
24551W        W92914  35.517   7.381  11.556
24552W        W92915  31.573  12.764   0.865
24553W        W92916  24.715  30.959  14.924
24554W        W92917  22.695  19.763  11.027
24555W        W92918  42.400  23.013  14.302
24556W        W92919  32.040   6.812   4.295
24557W        W92920  18.180  19.638   4.256
24558W        W92921  21.570   5.273  10.502
24559W        W92922  24.487   9.231  11.078
24560W        W92923  37.044  13.267   3.739
24561W        W92924  22.596  13.162  10.911
24562W        W92925   0.815   5.745   3.632
24563W        W92926   9.353  35.994  11.393
24564W        W92927  40.399   6.314  12.500
24565W        W92928   7.316  29.129   0.247
24566W        W92929  27.482  20.217  11.571
24567W        W92930  29.479  35.587   3.852
24568W        W92931  17.585  43.381   4.334
24569W        W92932   5.421  21.728  13.421
24570W        W92933  36.043  38.027  13.858
24571W        W92934   2.742  39.900   1.304
24572W        W92935  12.185  36.582   1.321
24573W        W92936  37.053  40.316  11.408
24574W        W92937  24.036  10.791   4.324
24575W        W92938   6.780   0.266  13.486
24576W        W92939  10.698  24.180  14.429
24577W        W92940  14.205  13.335  14.903
24578W        W92941  19.105  40.348   1.918
24579W        W92942   1.387   2.951  10.600
24580W        W92943  28.469  41.412  14.469
24581W        W92944  38.969  15.710  12.408
24582W        W92945  10.864  24.542   2.359
24583W        W92946  30.163   0.460  12.912
24584W        W92947  15.788   1.417   0.759
24585W        W92948  40.450  14.140  12.920
24586W        W92949  33.056  28.941  13.814
24587W        W92950  37.077   2.385  11.907
24588W        W92951   3.833  37.830  10.621
24589W        W92952  37.907  27.108  11.117
24590W        W92953  34.468  17.656   0.814
24591W        W92954  17.175   4.787  10.472
24592W        W92955  41.922   7.336  13.026
24593W        W92956  28.040  30.074  12.965
24594W        W92957   6.859  32.617   0.318
24595W        W92958  24.568  37.038   4.224
24596W        W92959  15.213  15.233   0.324
24597W        W92960  38.900   4.732  11.547
24598W        W92961  41.528  32.911  12.847
24599W        W92962  27.670  29.146  13.063
24600W        W92963  37.014  10.679   1.394
24601W        W92964  37.463   9.775   0.287
24602W        W92965  14.327   5.892  13.345
24603W        W92966   0.478  35.886   4.259
24604W        W92967   5.891  29.043   1.322
24605W        W92968   6.793  19.624  12.037
24606W        W92969  38.513  22.091  14.352
24607W        W92970  10.817  36.950  12.861
24608W        W92971  26.479  31.543  12.827
24609W        W92972   0.790   6.909  10.621
24610W        W92973  38.420  23.064  11.100
24611W        W92974  31.533  17.252  14.896
24612W        W92975  34.981  21.738  10.915
24613W        W92976   6.908  24.551  11.993
24614W        W92977  34.095  35.600  10.540
24615W        W92978  33.969  18.690   0.249
24616W        W92979  20.610  31.954  13.316
24617W        W92980  16.702  20.651   0.776
24618W        W92981  39.950  14.706   0.780
24619W        W92982   3.300  10.198   3.226
24620W        W92983  44.493   8.276   5.193
24621W        W92984  43.018   2.773   3.844
24622W        W92985   5.312  17.569  13.943
24623W        W92986  10.767   0.469  12.093
24624W        W92987   0.481  37.977   5.694
24625W        W92988  40.857  40.928  10.566
24626W        W92989  14.125  35.406   2.796
24627W        W92990  16.200  19.558  13.458
24628W        W92991  37.444  23.092  12.828
24629W        W92992  17.561   1.276  11.969
24630W        W92993  14.280  17.139   0.414
24631W        W92994  21.750  35.582  13.827
24632W        W92995  12.752  22.525   0.293
24633W        W92996  15.214   1.316  12.900
24634W        W92997  28.485  36.003  14.820
24635W        W92998  25.517  23.149   4.637
24636W        W92999  33.530   0.758   0.393
24637W        W93000   2.396  17.294   1.347
24638W        W93001  11.312  14.261  14.429
24639W        W93002  24.490  37.340   3.759
24640W        W93003  40.477   2.730  14.499
24641W        W93004  28.605  30.959   0.780
24642W        W93005   0.813  25.562  12.058
24643W        W93006   6.344  23.167   1.260
24644W        W93007  20.648  19.615   0.326
24645W        W93008  40.481   9.289  14.843
24646W        W93009  14.719   0.446   1.856
24647W        W93010  25.109  42.469  11.429
24648W        W93011  42.969  39.915   0.872
24649W        W93012   4.903  36.586  12.517
24650W        W93013   2.747  11.231   3.793
24651W        W93014  19.602  35.521   0.881
24652W        W93015  40.495  37.564   2.857
24653W        W93016  12.219  12.784  12.434
24654W        W93017   3.315  41.862   1.787
24655W        W93018  43.784   6.700  11.509
24656W        W93019  14.649  31.989   1.788
24657W        W93020  33.991  39.470   3.178
24658W        W93021  27.035  27.451  13.312
24659W        W93022   5.424  23.708   4.169
24660W        W93023   9.655  25.567  12.047
24661W        W93024  40.519  28.505  12.035
24662W        W93025  19.698  31.443  13.495
24663W        W93026  43.450  28.025   0.851
24664W        W93027   9.248  33.473  14.999
24665W        W93028  41.303  11.782   1.441
24666W        W93029   4.406  29.989   3.274
24667W        W93030  27.973  37.469  13.039
24668W        W93031  37.447  17.626  14.862
24669W        W93032  21.572  10.875  13.887
24670W        W93033  18.254   0.770  11.505
24671W        W93034  42.901  26.602   2.350
24672W        W93035   4.831   4.933  12.520
24673W        W93036  21.066  26.071   3.841
24674W        W93037  36.945  35.868  14.986
24675W        W93038  35.870   5.261   2.700
24676W        W93039  26.018   0.814  10.497
24677W        W93040  18.090  31.637  14.012
24678W        W93041  33.402  16.131  14.341
24679W        W93042  40.840  44.753   4.293
24680W        W93043   0.819  23.119   1.415
24681W        W93044   7.242   2.368   4.814
24682W        W93045  21.026  38.954   0.965
24683W        W93046  19.211  38.349   1.751
24684W        W93047  18.557  38.426  12.434
24685W        W93048  39.449   9.853   0.345
24686W        W93049  33.388  16.763  10.582
24687W        W93050   3.747  22.694   0.406
24688W        W93051  17.580  41.952   1.317
24689W        W93052  30.512  11.235  13.825
24690W        W93053  13.840   6.739   1.432
24691W        W93054  10.775  38.839  11.938
24692W        W93055   8.796  11.338  13.374
24693W        W93056  44.880  23.046  13.036
24694W        W93057  32.099   5.754   2.384
24695W        W93058  36.505  33.912  14.425
24696W        W93059  24.100  43.492  11.080
24697W        W93060  35.515  29.511  12.561
24698W        W93061   6.897  39.465   3.181
24699W        W93062  10.861  24.592  13.531
24700W        W93063  43.900   8.722  12.091
24701W        W93064  36.537  29.932  10.645
24702W        W93065  23.119  10.696   4.817
24703W        W93066  38.521  16.235  13.911
24704W        W93067  25.998  33.576  14.840
24705W        W93068  33.387  33.896   0.389
24706W        W93069  36.350  15.246   3.331
24707W        W93070  32.936  23.541  10.975
24708W        W93071  34.937  16.813  12.430
24709W        W93072  32.914  16.144   1.765
24710W        W93073  34.992   5.843  12.441
24711W        W93074  32.473  26.115   1.910
24712W        W93075   7.315  37.840   0.413
24713W        W93076  38.535   0.783   3.696
24714W        W93077  23.195  36.466   3.732
24715W        W93078  14.685  34.478   3.639
24716W        W93079  25.199  12.857  10.893
24717W        W93080  36.911   2.786   1.388
24718W        W93081  40.887  10.750  13.921
24719W        W93082  29.953  15.798   5.168
24720W        W93083  37.934  36.495   4.249
24721W        W93084  29.642  20.240   4.186
24722W        W93085  33.961  27.034  13.916
24723W        W93086  13.251   0.964  13.048
24724W        W93087  18.079  19.162   0.416
24725W        W93088   2.383  18.714   4.126
24726W        W93089  24.129   2.800  14.815
24727W        W93090  26.061  36.447   2.250
24728W        W93091  39.016  27.065  12.030
24729W        W93092  14.093  35.917   1.799
24730W        W93093  35.980  41.365  10.912
24731W        W93094  20.132   9.718   2.698
24732W        W93095  36.905  11.819  11.993
24733W        W93096  10.836  41.919   4.332
24734W        W93097  36.466  15.317  12.988
24735W        W93098  15.734  33.096  10.422
24736W        W93099  38.916   5.217   0.777
24737W        W93100  33.029  37.906  14.498
24738W        W93101  21.642   1.856  12.887
24739W        W93102  13.215  11.699  10.919
24740W        W93103   6.690  40.914  11.473
24741W        W93104  42.879  25.504   1.707
24742W        W93105   6.894   8.239  14.827
24743W        W93106  12.632  32.927  14.788
24744W        W93107  44.443  23.648   2.221
24745W        W93108  37.034  41.948  14.314
24746W        W93109  42.432  25.216  12.504
24747W        W93110  19.681  16.211  10.921
24748W        W93111  28.082  19.736   0.483
24749W        W93112  25.539  42.410   4.326
24750W        W93113  43.816  44.777   2.402
24751W        W93114  21.579  44.812  10.563
24752W        W93115  25.159  29.008   2.338
24753W        W93116  15.729  14.699  12.937
24754W        W93117  22.737  13.686  12.855
24755W        W93118   9.732  31.502   3.645
24756W        W93119  33.588  12.651  10.591
24757W        W93120  15.712  38.477   2.364
24758W        W93121  34.406  10.181  11.054
24759W        W93122  33.570  38.490   3.233
24760W        W93123  43.928  42.842   2.817
24761W        W93124  40.936  35.404   1.442
24762W        W93125  18.131   4.247  10.632
24763W        W93126  32.530  21.615  11.109
24764W        W93127  42.327  17.741  13.356
24765W        W93128  37.509  12.712  13.377
24766W        W93129  41.348  41.803   1.906
24767W        W93130  23.663  43.350  13.927
24768W        W93131  31.039  27.683   0.260
24769W        W93132  37.558  12.287   2.335
24770W        W93133  33.062  33.019   1.371
24771W        W93134  38.823  36.567  13.881
24772W        W93135  17.130   2.766   3.374
24773W        W93136  26.008   2.240  13.381
24774W        W93137  35.411  44.914  14.927
24775W        W93138  30.965  18.092   2.412
24776W        W93139  40.389  26.675   4.121
24777W        W93140   1.936  39.864  12.372
24778W        W93141  28.569  18.566   4.246
24779W        W93142  31.129  29.613  14.860
24780W        W93143  20.043   7.697  10.953
24781W        W93144  11.741  41.808   0.411
24782W        W93145  23.725  19.777  13.510
24783W        W93146   0.789  22.998  11.495
24784W        W93147   0.371  23.180  11.420
24785W        W93148  13.832  23.188  11.866
24786W        W93149  16.767  29.159   0.480
24787W        W93150  39.547  21.528  14.411
24788W        W93151  24.719  23.005   3.313
24789W        W93152  23.144  19.732  10.529
24790W        W93153  43.353  41.860   1.284
24791W        W93154  12.728  25.488   3.296
24792W        W93155  16.308  20.226   3.659
24793W        W93156  35.525  39.900   2.258
24794W        W93157  17.793  17.607  12.057
24795W        W93158  41.536  29.026   4.312
24796W        W93159  40.363  43.872  14.837
24797W        W93160  33.423  19.085  12.983
24798W        W93161  38.373  21.613  14.765
24799W        W93162  10.749  44.774  11.569
24800W        W93163  44.789  44.973   1.845
24801W        W93164  40.890  17.741   3.670
24802W        W93165  24.215  12.167   1.782
24803W        W93166  18.139  44.463   9.589
24804W        W93167  24.033   4.274  12.912
24805W        W93168   5.349   1.823   4.232
24806W        W93169  10.730   4.250   2.379
24807W        W93170   9.207  40.407  13.868
24808W        W93171  19.111  24.074   0.939
24809W        W93172  12.618   4.921  11.904
24810W        W93173  17.183  23.560   3.753
24811W        W93174  13.261  41.322   3.216
24812W        W93175  21.568  38.891  14.806
24813W        W93176   8.185  24.011  10.600
24814W        W93177  38.566  43.936   4.630
24815W        W93178  43.418  35.359   4.311
24816W        W93179  30.519  43.382  13.797
24817W        W93180  30.150  30.467   0.845
24818W        W93181   8.875  28.091  11.013
24819W        W93182  20.096   3.337   3.319
24820W        W93183  36.945   7.174  12.843
24821W        W93184  25.169  44.842   3.261
24822W        W93185   6.287   6.376   4.249
24823W        W93186  21.258  18.661  13.046
24824W        W93187  24.491  36.519   1.709
24825W        W93188  16.095  15.283   3.822
24826W        W93189   4.443  34.409  12.036
24827W        W93190  27.684  31.982  13.439
24828W        W93191  12.846  14.248   2.412
24829W        W93192  17.070  23.017  13.307
24830W        W93193  17.559  33.025  12.375
24831W        W93194  39.962  32.100   4.770
24832W        W93195  35.909  11.859  12.446
24833W        W93196   6.320  31.581  11.010
24834W        W93197   1.745  42.962  12.836
24835W        W93198  17.674  42.364   2.254
24836W        W93199  11.240   0.885   4.821
24837W        W93200  16.765  20.209   2.782
24838W        W93201  18.263  32.141  10.161
24839W        W93202  12.764  20.717   0.734
24840W        W93203  34.416   8.396   1.735
24841W        W93204  27.087  43.827  12.983
24842W        W93205  42.480  15.625  14.332
24843W        W93206  20.728  16.235  12.079
24844W        W93207   5.350   6.238   0.881
24845W        W93208   5.725   1.330   3.279
24846W        W93209  16.308  34.049   4.774
24847W        W93210  34.905   9.169  12.471
24848W        W93211  19.570   3.406   3.242
24849W        W93212   9.745  16.111  14.797
24850W        W93213  39.995  15.624  14.500
24851W        W93214  26.686  27.647   0.318
24852W        W93215  32.098  11.358   1.925
24853W        W93216  44.426   2.827  10.919
24854W        W93217  34.612  20.248  10.929
24855W        W93218  11.200  19.105  11.995
24856W        W93219  32.607  17.769  12.404
24857W        W93220  13.143  12.316  12.048
24858W        W93221  36.592  38.056   2.386
24859W        W93222  13.657   6.712  14.831
24860W        W93223  29.444  32.142   3.731
24861W        W93224  31.407  29.439  11.551
24862W        W93225  10.831   6.691  14.911
24863W        W93226  10.240  38.839  14.285
24864W        W93227  29.485   5.398   4.138
24865W        W93228  42.852  37.884   0.829
24866W        W93229  36.894  32.958  12.480
24867W        W93230  10.702  44.007   1.236
24868W        W93231  17.100   7.754   3.704
24869W        W93232  17.260  22.144  10.491
24870W        W93233   9.683  36.504   4.286
24871W        W93234  24.673   2.376   0.382
24872W        W93235  15.209  19.244   0.376
24873W        W93236  39.042  32.554  12.851
24874W        W93237  17.252  11.728  11.437
24875W        W93238  33.484   7.209   2.408
24876W        W93239  34.031  44.771   1.385
24877W        W93240  25.588  13.755   0.315
24878W        W93241   6.729  41.349  14.413
24879W        W93242  31.923  37.865  11.092
24880W        W93243  30.088  22.746   2.395
24881W        W93244  18.619  14.636  11.954
24882W        W93245  26.066  13.662   2.300
24883W        W93246  19.174   8.248   1.291
24884W        W93247  39.844  24.129   3.347
24885W        W93248  37.435  39.920   3.273
24886W        W93249  31.900  10.361   1.890
24887W        W93250  13.802  11.825  13.834
24888W        W93251  21.584  29.622   1.332
24889W        W93252  40.803   3.328  10.930
24890W        W93253   9.246   1.251   2.358
24891W        W93254  11.200  23.645  12.560
24892W        W93255  35.443  34.596   2.892
24893W        W93256   2.397  21.595   9.999
24894W        W93257  19.201  12.665  12.371
24895W        W93258  15.652  19.222   9.542
24896W        W93259  35.491  35.009   4.229
24897W        W93260  15.622  28.663   3.233
24898W        W93261  14.254   5.277   2.367
24899W        W93262  40.802  13.216   2.886
24900W        W93263   9.702   6.412   3.256
24901W        W93264  33.944  25.104  10.426
24902W        W93265  23.089  20.180  14.356
24903W        W93266   8.285  43.830  13.991
24904W        W93267   6.782   6.323  13.887
24905W        W93268  40.504  23.667   2.183
24906W        W93269   1.892  18.218  11.398
24907W        W93270   8.791  27.468   4.690
24908W        W93271  38.026  30.620  10.622
24909W        W93272  30.454  22.641  13.868
24910W        W93273   3.777  17.791   4.681
24911W        W93274  14.177   7.708   3.719
24912W        W93275  36.353  41.476   3.695
24913W        W93276  39.810   8.848   3.386
24914W        W93277   3.379  13.744   1.701
24915W        W93278   2.880   6.741  13.336
24916W        W93279  32.055  28.157  12.087
24917W        W93280   5.837   7.177  13.921
24918W        W93281  22.128  32.393  10.569
24919W        W93282  17.284  14.199  12.848
24920W        W93283  42.796  37.992   3.324
24921W        W93284  42.963  16.726   0.807
24922W        W93285  30.134   2.240   1.403
24923W        W93286  31.959  12.738  14.360
24924W        W93287   1.906  27.099  11.426
24925W        W93288  12.332  22.174  12.391
24926W        W93289  29.485  37.408   5.316
24927W        W93290  40.389  20.122  14.340
24928W        W93291  24.681  21.572  12.982
24929W        W93292  16.113   5.215  12.541
24930W        W93293  17.663  19.642  14.365
24931W        W93294   6.304  18.237   0.736
24932W        W93295  20.043  11.853   0.346
24933W        W93296   4.937   4.743  10.929
24934W        W93297  27.956  43.507   1.287
24935W        W93298  36.942  22.609  12.923
24936W        W93299  16.713   3.741  14.785
24937W        W93300   7.744  31.591  13.996
24938W        W93301  28.958  25.964  13.452
24939W        W93302   9.148   6.241   4.137
24940W        W93303  19.678  37.936  14.341
24941W        W93304   2.243  15.199   2.382
24942W        W93305  22.998  13.797   2.399
24943W        W93306  17.572  20.611   2.792
24944W        W93307  25.508   4.880  12.065
24945W        W93308  44.317  28.965   2.859
24946W        W93309  37.463   0.331  10.557
24947W        W93310  30.493  31.986   1.349
24948W        W93311  21.162  22.031  13.940
24949W        W93312   7.858   5.311   3.820
24950W        W93313   5.373  10.685   4.599
24951W        W93314  36.568  26.656   0.753
24952W        W93315  24.485  18.118  10.631
24953W        W93316   2.423  19.560  12.926
24954W        W93317  36.940  41.323   3.176
24955W        W93318  13.233  15.746  13.816
24956W        W93319  41.989  39.021  12.527
24957W        W93320  14.809  20.128   1.718
24958W        W93321  28.977  34.453  12.937
24959W        W93322  24.139  33.046  14.764
24960W        W93323  33.101  25.667   4.232
24961W        W93324  41.356  26.054   2.325
24962W        W93325  37.396  38.944  12.002
24963W        W93326  28.484  36.999   0.894
24964W        W93327  26.485  36.553  13.450
24965W        W93328  42.484   8.286   2.695
24966W        W93329  19.112  24.179   4.127
24967W        W93330  37.970  19.209  12.840
24968W        W93331  42.335   8.795  11.901
24969W        W93332  31.606  24.052   3.784
24970W        W93333  33.933  10.801  12.055
24971W        W93334  32.071  32.902  11.038
24972W        W93335   7.407  35.944   1.378
24973W        W93336  44.864  38.973   5.178
24974W        W93337  16.599  39.887  12.853
24975W        W93338   9.671   8.166   4.322
24976W        W93339  31.015   0.882  13.447
24977W        W93340  23.016  13.653  10.442
24978W        W93341   6.772  17.642  14.485
24979W        W93342   4.755  28.563  14.330
24980W        W93343   9.653  17.141  14.860
24981W        W93344  24.502  32.595  10.905
24982W        W93345  42.433  32.067  13.488
24983W        W93346  19.604  39.557   2.279
24984W        W93347   9.383   2.332  13.985
24985W        W93348  38.517  44.829  13.828
24986W        W93349   2.302  14.099   2.737
24987W        W93350  17.280   8.821  10.473
24988W        W93351   7.376   1.276   3.820
24989W        W93352   9.200  17.153  12.851
24990W        W93353  21.242   6.764  11.028
24991W        W93354  27.054  11.771  10.570
24992W        W93355  18.098  27.137  14.450
24993W        W93356  10.236  17.740   0.421
24994W        W93357  30.595   8.211   0.301
24995W        W93358  38.990  26.552  14.493
24996W        W93359  26.636  42.470   2.213
24997W        W93360   5.764  14.272  13.408
24998W        W93361  18.276  10.249  13.849
24999W        W93362  28.457  25.672  12.851
25000W        W93363  30.624  32.057  13.988
25001W        W93364  37.927  15.294   4.698
25002W        W93365   1.870  14.291  12.015
25003W        W93366  20.759  34.995   1.382
25004W        W93367  24.014  38.050   4.701
25005W        W93368  18.159  16.769   4.648
25006W        W93369  43.915   0.447  14.962
25007W        W93370   3.234  16.152  12.971
25008W        W93371  27.978  36.061  12.052
25009W        W93372  36.009  41.407  14.819
25010W        W93373   7.323  38.998  11.598
25011W        W93374   6.236  36.089   0.393
25012W        W93375   6.738  36.885  11.535
25013W        W93376  27.118  38.032   1.707
25014W        W93377  21.511   9.782  14.430
25015W        W93378  16.598  12.195   0.374
25016W        W93379  35.534  15.791   2.880
25017W        W93380  34.928  40.867   1.339
25018W        W93381  28.109  22.555   1.243
25019W        W93382  40.923  32.004   1.700
25020W        W93383  12.803  37.975  12.536
25021W        W93384  24.202  44.825   2.285
25022W        W93385  23.657  26.512   0.409
25023W        W93386  24.072  39.010   2.404
25024W        W93387  15.269  24.656  12.374
25025W        W93388   9.380  34.935   3.283
25026W        W93389  41.488  37.918  13.314
25027W        W93390  43.493  43.289   4.240
25028W        W93391  42.817  13.816   4.601
25029W        W93392   9.793  26.190   3.753
25030W        W93393  44.317  27.123   3.666
25031W        W93394   7.278  13.122   0.452
25032W        W93395  19.696  29.988  13.903
25033W        W93396  36.404  14.709  14.434
25034W        W93397  30.054   2.237  12.916
25035W        W93398   1.791   8.748   1.344
25036W        W93399   6.253  39.061  12.919
25037W        W93400  11.849  29.015   1.250
25038W        W93401  25.468  23.706  13.378
25039W        W93402  15.654   2.934  13.415
25040W        W93403   8.810   5.759   9.982
25041W        W93404  25.620  28.074   5.184
25042W        W93405  27.970  14.178   5.208
25043W        W93406  29.478  17.089  10.134
25044W        W93407   3.813   8.385   4.645
25045W        W93408   4.329  26.495   1.780
25046W        W93409  33.534  44.374  12.983
25047W        W93410  27.077  11.255  13.863
25048W        W93411  25.578   3.862  13.059
25049W        W93412  14.322  17.707   3.685
25050W        W93413  22.617  40.332  11.898
25051W        W93414  44.427  17.205  12.359
25052W        W93415   4.377  10.343   3.713
25053W        W93416  10.662   0.782   4.218
25054W        W93417  27.046   3.744   0.834
25055W        W93418  17.072  11.240  11.879
25056W        W93419   7.198  10.653   1.300
25057W        W93420  19.049  10.289   9.951
25058W        W93421   7.315  30.163  13.524
25059W        W93422  36.871  12.168  14.908
25060W        W93423  43.450  44.860  10.496
25061W        W93424   5.259  34.883  12.926
25062W        W93425  24.004  34.487   2.390
25063W        W93426  13.704   8.341   2.226
25064W        W93427  19.594  40.343   4.183
25065W        W93428   5.230  20.130  14.017
25066W        W93429  36.911  42.366  13.424
25067W        W93430  29.047  29.568  12.091
25068W        W93431  27.575   6.797  12.455
25069W        W93432  38.982  25.008   0.774
25070W        W93433  39.434  14.700   0.899
25071W        W93434   6.707  43.374  13.412
25072W        W93435  16.798   6.863  13.470
25073W        W93436  16.165  34.886   2.290
25074W        W93437   9.692  18.257   3.641
25075W        W93438   9.230  19.729   2.386
25076W        W93439  36.902  32.553  12.986
25077W        W93440  13.256  43.931   2.244
25078W        W93441  18.072   4.883  12.930
25079W        W93442   9.646  37.511  14.862
25080W        W93443  28.601  23.204  12.885
25081W        W93444  44.841  29.441   4.354
25082W        W93445  12.766  25.997  14.386
25083W        W93446  39.320   2.900   3.653
25084W        W93447   0.418  10.751   0.263
25085W        W93448  28.676  26.646  12.507
25086W        W93449  21.090  22.743  14.448
25087W        W93450  16.107  22.731   4.739
25088W        W93451   6.221   0.985   0.461
25089W        W93452  15.181  21.197  12.361
25090W        W93453  27.140  14.789  11.996
25091W        W93454  21.156  21.147  13.351
25092W        W93455  42.995  33.607   2.711
25093W        W93456  32.490  21.582   4.213
25094W        W93457   3.887  14.781  11.108
25095W        W93458  43.927  36.040   2.250
25096W        W93459  39.468  29.982   1.319
25097W        W93460  40.017   8.772  10.896
25098W        W93461  39.522  34.877   3.675
25099W        W93462  26.961  33.085  11.946
25100W        W93463  34.563  11.316  11.920
25101W        W93464  22.670  12.740   3.277
25102W        W93465  23.552  27.024  10.453
25103W        W93466  43.870  39.395   1.743
25104W        W93467  21.168  35.439   0.436
25105W        W93468  19.755  41.399   1.883
25106W        W93469  37.495  28.012  13.794
25107W        W93470  41.858  44.469   0.406
25108W        W93471  37.470  42.495  12.016
25109W        W93472  18.696  43.784   5.130
25110W        W93473  44.326  36.855  12.823
25111W        W93474  21.620   1.901   2.729
25112W        W93475  32.611   6.181   4.682
25113W        W93476  10.813   9.713  11.875
25114W        W93477  40.393  30.993   4.217
25115W        W93478  24.715  11.278  12.549
25116W        W93479   9.211  36.463   2.299
25117W        W93480  42.923  32.110  12.511
25118W        W93481   5.908  43.771  13.995
25119W        W93482  28.655  15.742   9.590
25120W        W93483  22.207  28.017   4.157
25121W        W93484  12.709  14.181   5.242
25122W        W93485  26.590  33.088  11.983
25123W        W93486  39.328  37.413   1.928
25124W        W93487  10.787  34.087   3.329
25125W        W93488  36.887  29.432   0.761
25126W        W93489  40.546   7.868   4.688
25127W        W93490  28.011  16.697   4.216
25128W        W93491  17.084  25.053  11.538
25129W        W93492  44.471   9.700  10.428
25130W        W93493  43.811  23.219   1.336
25131W        W93494  28.669  42.419  12.912
25132W        W93495  25.606  25.598  14.856
25133W        W93496  19.224   2.389  13.475
25134W        W93497  23.989   9.257  14.496
25135W        W93498  35.883  31.936   3.207
25136W        W93499  35.043  28.996  14.374
25137W        W93500  32.942  24.012   2.304
25138W        W93501   0.427  26.122  14.885
25139W        W93502   8.847  31.042   2.790
25140W        W93503  23.704  44.812  11.443
25141W        W93504   3.743  12.714  14.828
25142W        W93505  42.854  28.119   3.313
25143W        W93506  17.119  44.960  13.055
25144W        W93507   3.721  14.766  12.387
25145W        W93508  22.743   4.719   2.214
25146W        W93509  18.655  16.600  13.021
25147W        W93510   2.277   8.657  10.117
25148W        W93511  23.605  13.776   2.705
25149W        W93512   2.821  19.700  14.903
25150W        W93513   2.763  21.161  14.926
25151W        W93514  44.358   5.904   2.318
25152W        W93515  12.270   9.283  11.440
25153W        W93516  13.737  33.044  14.771
25154W        W93517   3.873  36.079  14.831
25155W        W93518  40.023  13.626   4.284
25156W        W93519  13.770  38.522   1.758
25157W        W93520  32.906  42.840  14.868
25158W        W93521  41.306   5.911   1.918
25159W        W93522  26.090  22.570   4.791
25160W        W93523  26.170  28.453  11.546
25161W        W93524  27.107   5.295   3.342
25162W        W93525  31.574  13.351   0.835
25163W        W93526  16.232  40.498   1.274
25164W        W93527  34.118  27.489   4.682
25165W        W93528  36.526  41.466   1.431
25166W        W93529  25.137   6.747  10.424
25167W        W93530  37.488  32.463   3.194
25168W        W93531  31.915   2.317  13.505
25169W        W93532   0.478  11.656   1.222
25170W        W93533  33.021  34.483   3.730
25171W        W93534  22.245  23.098  11.985
25172W        W93535  31.556  30.653  13.842
25173W        W93536   8.877   6.777   1.902
25174W        W93537  31.007  26.583  12.547
25175W        W93538  13.732  10.857   4.223
25176W        W93539  30.545  30.637   3.681
25177W        W93540  23.198  35.881  14.791
25178W        W93541  21.631  21.154  10.632
25179W        W93542   6.326  40.382  11.373
25180W        W93543  30.151  40.465   2.831
25181W        W93544  22.053   4.241   2.279
25182W        W93545   1.807  40.837  12.037
25183W        W93546  44.451   6.907  14.384
25184W        W93547  27.516  22.723   0.933
25185W        W93548  15.748  32.637  12.059
25186W        W93549  42.487  12.834  12.013
25187W        W93550  12.341  14.119  12.929
25188W        W93551   7.878  10.678   1.288
25189W        W93552   0.341   6.701   1.891
25190W        W93553  11.293  29.621   0.852
25191W        W93554  23.732  38.948  14.479
25192W        W93555  14.131  27.145   2.299
25193W        W93556  25.021  36.898  14.832
25194W        W93557  19.715  27.193  12.376
25195W        W93558  15.184   4.375   5.790
25196W        W93559  27.621  16.758  14.910
25197W        W93560  16.573  36.038   1.267
25198W        W93561  33.612  31.564  13.886
25199W        W93562  38.857   6.303  11.029
25200W        W93563  38.429  17.273  11.868
25201W        W93564   5.798  11.335   3.779
25202W        W93565  35.986  39.337   0.958
25203W        W93566  21.571  25.112   2.853
25204W        W93567  16.227  15.602  10.109
25205W        W93568  18.713  41.971   4.306
25206W        W93569  14.334   1.771  13.540
25207W        W93570  18.582  27.970   3.631
25208W        W93571  26.627  39.475  11.947
25209W        W93572   2.398   7.343  10.640
25210W        W93573  36.009   3.889  11.530
25211W        W93574  11.305  26.565   3.735
25212W        W93575  24.547  25.525  14.815
25213W        W93576   9.873  39.945  11.056
25214W        W93577  11.809   6.222  14.895
25215W        W93578  28.524  15.763   1.792
25216W        W93579  10.181  20.760  12.384
25217W        W93580  12.338  13.127   2.325
25218W        W93581  10.837  21.243  12.001
25219W        W93582  14.202  14.769   3.208
25220W        W93583  28.663  43.823   2.718
25221W        W93584  44.981   2.322  13.328
25222W        W93585  16.251   4.224   2.328
25223W        W93586  30.067   6.278   1.245
25224W        W93587  37.061  18.219  13.353
25225W        W93588   7.729  10.188  11.097
25226W        W93589  22.537  21.049   5.181
25227W        W93590   0.279  28.548   1.842
25228W        W93591  38.882   4.839  13.489
25229W        W93592  16.260  24.651  12.852
25230W        W93593  22.569   3.797   0.423
25231W        W93594  31.458  43.933   9.504
25232W        W93595   8.227  17.067   1.416
25233W        W93596  33.903  34.573   4.774
25234W        W93597  25.067  37.477   0.919
25235W        W93598  28.632  28.953   2.691
25236W        W93599  33.577  31.922   9.936
25237W        W93600  29.954   1.267   2.663
25238W        W93601  40.927   6.283   3.725
25239W        W93602  29.022  34.609  14.484
25240W        W93603  43.929   3.751  12.517
25241W        W93604   4.845  14.621   2.686
25242W        W93605  42.027  13.776   2.333
25243W        W93606   3.768  22.625  12.461
25244W        W93607   1.901  11.728   2.205
25245W        W93608  42.288  36.410  10.565
25246W        W93609  11.794  17.703  14.900
25247W        W93610  39.506  13.325  10.020
25248W        W93611  10.248  23.203  10.965
25249W        W93612  43.349  40.915  12.417
25250W        W93613  21.095  42.462  11.942
25251W        W93614  30.071   6.856  12.367
25252W        W93615   3.767  44.957   0.454
25253W        W93616  21.093  26.470   1.805
25254W        W93617  11.630  11.703   0.829
25255W        W93618  41.921  44.765  13.025
25256W        W93619  11.183  37.495   0.854
25257W        W93620  15.706  38.931  14.278
25258W        W93621  31.032   4.213   2.363
25259W        W93622  11.803   0.831   3.333
25260W        W93623  33.541  17.244   3.334
25261W        W93624  18.675  28.033  12.041
25262W        W93625   5.206   0.248  10.074
25263W        W93626  37.066  44.939  13.330
25264W        W93627  29.480  43.869   0.261
25265W        W93628  21.723   6.763   1.806
25266W        W93629   3.374  39.499   2.897
25267W        W93630   9.765   9.212  12.549
25268W        W93631  23.194  26.165  10.501
25269W        W93632  20.228  30.022  14.329
25270W        W93633  42.812  31.980   4.263
25271W        W93634   5.287   5.750   2.409
25272W        W93635   6.214  34.899   1.835
25273W        W93636  38.568  33.427  12.854
25274W        W93637  29.549  34.036  11.439
25275W        W93638  42.388  13.312   2.809
25276W        W93639  13.802  40.388   1.445
25277W        W93640  19.642  18.135  12.094
25278W        W93641  41.391  11.167   1.705
25279W        W93642  28.655  32.612   0.862
25280W        W93643  20.235  33.538  11.488
25281W        W93644  16.076  41.294   1.738
25282W        W93645  14.147  23.516   1.431
25283W        W93646  31.090  22.605  12.492
25284W        W93647   9.812  40.928  11.381
25285W        W93648  14.184  28.642   2.716
25286W        W93649  42.996  42.896   5.209
25287W        W93650  21.683  39.013   1.935
25288W        W93651  20.119  21.600   3.270
25289W        W93652  27.177  32.442  12.893
25290W        W93653  40.527  13.601  10.547
25291W        W93654  31.066  10.318  10.997
25292W        W93655  42.288   5.828  14.009
25293W        W93656  23.083  35.430   2.727
25294W        W93657  36.949  34.610   2.709
25295W        W93658  16.136  21.740  14.400
25296W        W93659   7.338  35.095   4.782
25297W        W93660   6.744  20.081   0.868
25298W        W93661  18.554  28.027   1.777
25299W        W93662  13.150  26.586  12.025
25300W        W93663   6.427   1.954  12.845
25301W        W93664  22.156  31.128   0.443
25302W        W93665  35.105  21.237  10.625
25303W        W93666   9.836   8.796   4.750
25304W        W93667  19.696  13.338  12.009
25305W        W93668  22.544  35.100   3.247
25306W        W93669   9.388  34.372   1.736
25307W        W93670  14.194  21.582   0.952
25308W        W93671  35.590  13.119   0.803
25309W        W93672  11.621  15.631   3.796
25310W        W93673  19.658  29.461  12.003
25311W        W93674  40.024   8.769   4.806
25312W        W93675  19.673   8.246   0.286
25313W        W93676  25.100  42.520  10.473
25314W        W93677   7.397  32.433  11.379
25315W        W93678   5.416  43.320   0.276
25316W        W93679  24.117  11.745   1.432
25317W        W93680  18.212  15.100  10.523
25318W        W93681  20.187  44.980   2.665
25319W        W93682  20.206  27.078   4.630
25320W        W93683   4.348  27.136  12.531
25321W        W93684  13.753   7.383  13.527
25322W        W93685  27.961  37.006  14.889
25323W        W93686   0.342  27.654   0.847
25324W        W93687  18.149  11.367  10.937
25325W        W93688  13.150  37.065   4.701
25326W        W93689  29.115   9.269  11.869
25327W        W93690   2.293  10.212   2.377
25328W        W93691  14.157  14.131   1.709
25329W        W93692  18.668  41.939  10.405
25330W        W93693  29.015  28.445  10.052
25331W        W93694  10.868  13.708  12.469
25332W        W93695  15.166  16.650   4.202
25333W        W93696  36.081  10.695   1.837
25334W        W93697  21.687  36.034   2.323
25335W        W93698  40.821  20.711  14.815
25336W        W93699   7.800  37.485   1.424
25337W        W93700   8.245  17.196  14.973
25338W        W93701  35.077  14.722   3.841
25339W        W93702   8.875  14.188  11.434
25340W        W93703  23.707  13.840  12.551
25341W        W93704  11.174   8.308   4.669
25342W        W93705  36.556   1.866   4.255
25343W        W93706  43.806  44.885  11.578
25344W        W93707  14.256  23.590  11.587
25345W        W93708  36.536  35.363   4.133
25346W        W93709   2.342  12.724   9.939
25347W        W93710  20.073  20.627  10.536
25348W        W93711   5.208  16.739   1.431
25349W        W93712   7.259  31.475  14.452
25350W        W93713  41.935  33.991   2.760
25351W        W93714  18.288  10.269   2.221
25352W        W93715   8.871   7.893  10.484
25353W        W93716  27.577  33.930  14.318
25354W        W93717  10.735   9.811  14.804
25355W        W93718  25.704  22.247  14.983
25356W        W93719  37.943  38.564   3.267
25357W        W93720  21.650  32.636  14.980
25358W        W93721  39.331  41.878  10.622
25359W        W93722  13.745  38.339  12.985
25360W        W93723  34.549   8.731   2.887
25361W        W93724  37.972   1.872   0.353
25362W        W93725  23.987  30.936  13.000
25363W        W93726  11.858  36.570   1.231
25364W        W93727  11.254  39.443   2.680
25365W        W93728   2.367  29.491   1.221
25366W        W93729  38.369  20.191  10.584
25367W        W93730   6.734  11.805   1.218
25368W        W93731  43.461  25.024  10.590
25369W        W93732  25.515  10.701   1.258
25370W        W93733  13.631   3.924   5.736
25371W        W93734   0.482  38.452  11.048
25372W        W93735  32.565  30.597   1.252
25373W        W93736   8.756  41.406  12.428
25374W        W93737  20.128  38.384   3.251
25375W        W93738  15.681   3.450   5.195
25376W        W93739  42.788   6.321  11.973
25377W        W93740   4.254  39.064  14.307
25378W        W93741  19.709   2.241   4.636
25379W        W93742  35.863  21.562  11.591
25380W        W93743  39.986   1.952   0.441
25381W        W93744  24.192  19.695   2.411
25382W        W93745  18.757  13.728  14.848
25383W        W93746   2.797   1.945   3.383
25384W        W93747  32.491  23.003  13.516
25385W        W93748   4.699   0.825   3.263
25386W        W93749  43.781  40.383   1.785
25387W        W93750  34.954   5.743   2.877
25388W        W93751  40.545  18.727   4.784
25389W        W93752   0.281  17.192   2.724
25390W        W93753  20.105   2.890  10.477
25391W        W93754  37.494   3.347   0.282
25392W        W93755  31.062   8.378  12.859
25393W        W93756   5.931  15.177   2.251
25394W        W93757  11.360   6.916   4.268
25395W        W93758  25.187  26.168  13.524
25396W        W93759  17.285  34.919  10.619
25397W        W93760   5.380  11.245   1.832
25398W        W93761   2.829   8.235  12.857
25399W        W93762  35.989  32.534   4.292
25400W        W93763  22.542   3.905  10.044
25401W        W93764  37.085  26.516   3.689
25402W        W93765  22.593   5.771   2.295
25403W        W93766   9.209  27.529   0.386
25404W        W93767  23.022  26.054   0.942
25405W        W93768  40.006  16.680  13.500
25406W        W93769   7.773  29.124   4.248
25407W        W93770   3.354  19.556   1.702
25408W        W93771  11.248  15.222   1.215
25409W        W93772  11.820  35.063   2.755
25410W        W93773  12.813  22.161  14.282
25411W        W93774  27.183  19.705   3.364
25412W        W93775  35.379  23.223  14.452
25413W        W93776  22.744   7.772   9.976
25414W        W93777  42.466  11.345  11.115
25415W        W93778  39.046  43.011   1.231
25416W        W93779  16.641  11.815  10.980
25417W        W93780  16.789   6.816  12.055
25418W        W93781   0.972  28.448   2.670
25419W        W93782  23.176   2.845  11.501
25420W        W93783   2.248   1.335   3.219
25421W        W93784  40.949  25.641  13.792
25422W        W93785  21.650   5.267   2.891
25423W        W93786   8.892   3.853  10.461
25424W        W93787  27.195  16.084   3.856
25425W        W93788  36.386  42.515  14.905
25426W        W93789   7.671  44.791  11.076
25427W        W93790  32.464   7.354   4.698
25428W        W93791  39.879   6.194  14.934
25429W        W93792  30.965  42.374  11.479
25430W        W93793  32.096   2.379  14.478
25431W        W93794   3.343  25.524   1.782
25432W        W93795  31.047  26.690   1.894
25433W        W93796  26.668  14.306   3.800
25434W        W93797   7.360  42.357  11.898
25435W        W93798  27.560   3.728  13.872
25436W        W93799  19.609  22.570   2.822
25437W        W93800  30.500   1.918   4.228
25438W        W93801  28.037  31.593   0.336
25439W        W93802   7.231  24.558   0.435
25440W        W93803  32.904  17.740  14.479
25441W        W93804  20.146  31.432  12.029
25442W        W93805  14.189  30.151  14.958
25443W        W93806  27.942  27.165   4.613
25444W        W93807  36.966  17.696   0.430
25445W        W93808   0.346   4.763   1.308
25446W        W93809   1.458  30.075   1.740
25447W        W93810   4.768  18.596  11.033
25448W        W93811  15.699  39.438   2.386
25449W        W93812  20.038  30.568   5.302
25450W        W93813  43.313   0.359  11.937
25451W        W93814  43.830  35.067   9.574
25452W        W93815  43.283  34.430   2.727
25453W        W93816  44.983  10.341   1.848
25454W        W93817  34.502  20.703   0.929
25455W        W93818  19.739  15.815   1.770
25456W        W93819   2.739  12.762   2.714
25457W        W93820  11.705   0.359  10.615
25458W        W93821  36.383  21.236  12.452
25459W        W93822  43.291  10.350   1.923
25460W        W93823   1.482  34.571  13.514
25461W        W93824  41.851  41.903   3.173
25462W        W93825  22.571  42.776   2.865
25463W        W93826   0.357  18.674   0.759
25464W        W93827  42.981   6.279   2.241
25465W        W93828  27.102  31.600   1.756
25466W        W93829  20.751  30.554  13.807
25467W        W93830  22.716  33.417  13.850
25468W        W93831  25.664  41.846  10.908
25469W        W93832  11.815  43.773   1.330
25470W        W93833  10.875   3.447  13.388
25471W        W93834  12.733  34.893   4.631
25472W        W93835  22.995  10.814   3.203
25473W        W93836  10.633   7.760   4.352
25474W        W93837  22.738  26.608  12.350
25475W        W93838  41.905  15.222  13.900
25476W        W93839  23.044  11.858  10.548
25477W        W93840  26.130  30.162   2.888
25478W        W93841  19.164  42.524   4.134
25479W        W93842  17.257   3.227  13.317
25480W        W93843   9.832  34.571  12.405
25481W        W93844  14.207  31.515  13.533
25482W        W93845  15.582  26.081   4.245
25483W        W93846  23.718  27.136  11.506
25484W        W93847  12.175   3.417   5.144
25485W        W93848  26.459  25.639  14.966
25486W        W93849   9.319  11.812   1.305
25487W        W93850  40.841  23.584  13.027
25488W        W93851  19.218  18.249  13.800
25489W        W93852   6.344  35.574  13.318
25490W        W93853  35.936  26.576   1.772
25491W        W93854  23.068  30.440  14.393
25492W        W93855  40.306   2.948  11.884
25493W        W93856   7.726  38.904   3.168
25494W        W93857   6.856  16.082  13.973
25495W        W93858  36.053  28.158   2.238
25496W        W93859   6.200   0.486  12.831
25497W        W93860  29.126  23.989  13.858
25498W        W93861  13.601  32.402   2.771
25499W        W93862  34.874  13.603  12.459
25500W        W93863  27.558  26.671  11.062
25501W        W93864  17.618  30.099   3.267
25502W        W93865  31.132  23.047   3.200
25503W        W93866  17.799  34.427   0.930
25504W        W93867  13.339  37.881   4.726
25505W        W93868  23.715  11.640   4.298
25506W        W93869  40.442  26.068  10.506
25507W        W93870  41.487  22.681  11.035
25508W        W93871  21.677  20.234  12.411
25509W        W93872  38.839  44.359   4.812
25510W        W93873   3.760  41.511   4.765
25511W        W93874  30.124  41.899   0.362
25512W        W93875   6.328  30.146  10.996
25513W        W93876  12.290  13.603  11.392
25514W        W93877  24.636  40.502  13.499
25515W        W93878  28.126   1.417  12.432
25516W        W93879  41.862  18.596   3.176
25517W        W93880  26.637  39.059   2.758
25518W        W93881   8.695  36.946   4.663
25519W        W93882   2.776  26.531   3.724
25520W        W93883  32.457  34.372   1.244
25521W        W93884   6.754  24.522   3.252
25522W        W93885  38.965  36.845   4.827
25523W        W93886   9.708   4.321   2.203
25524W        W93887  33.575  21.139  12.860
25525W        W93888   4.882  33.449   1.703
25526W        W93889  17.228  30.541   0.308
25527W        W93890  43.505   0.971   3.373
25528W        W93891  27.145  10.679   2.398
25529W        W93892  43.995  20.678  13.845
25530W        W93893  28.554  38.001   2.883
25531W        W93894   1.833  10.764  10.525
25532W        W93895  35.365  40.016   4.292
25533W        W93896  12.354  38.879   4.685
25534W        W93897  39.494  15.686  14.365
25535W        W93898  24.981  37.009  13.921
25536W        W93899  32.457  34.452   1.896
25537W        W93900  35.971   0.459  13.823
25538W        W93901  43.415  35.012  12.894
25539W        W93902  37.847  28.529   2.297
25540W        W93903  14.830  13.235   2.221
25541W        W93904  44.768  24.664   2.737
25542W        W93905  42.828   0.417  12.481
25543W        W93906   7.768   7.869   3.298
25544W        W93907  31.071  11.155   2.349
25545W        W93908   8.698  29.028   3.736
25546W        W93909   5.787  12.818   4.711
25547W        W93910   2.935  34.476   3.298
25548W        W93911  16.665  19.540   5.189
25549W        W93912  17.603  44.277  14.945
25550W        W93913  28.978  43.773  13.949
25551W        W93914  10.221  17.245   2.692
25552W        W93915   5.769  33.528  13.503
25553W        W93916  35.582  31.647   4.665
25554W        W93917  38.909   7.314   1.822
25555W        W93918  28.612  14.822  13.931
25556W        W93919   4.223  44.376   0.388
25557W        W93920  35.582  16.302  14.480
25558W        W93921  20.580  35.057   0.775
25559W        W93922  17.250  17.743  13.529
25560W        W93923  28.079   4.222   3.225
25561W        W93924  28.574   3.334  13.803
25562W        W93925  41.358   1.442  12.515
25563W        W93926  24.653   5.418  13.310
25564W        W93927  18.580  44.280   4.755
25565W        W93928   0.899   4.795  13.806
25566W        W93929   3.422   4.415  11.889
25567W        W93930  24.068  39.976   2.308
25568W        W93931  44.842  43.301  14.939
25569W        W93932  33.532  35.060  10.971
25570W        W93933   6.314  16.802  11.026
25571W        W93934  42.376  15.177  12.062
25572W        W93935  11.328  29.135   3.190
25573W        W93936  18.211  43.884  12.913
25574W        W93937  16.753  32.130  13.806
25575W        W93938  35.538  12.146  12.030
25576W        W93939   6.398  43.799  13.057
25577W        W93940  36.426  17.735   1.858
25578W        W93941   2.234   8.293   4.337
25579W        W93942  34.974   7.752   2.272
25580W        W93943  25.151  42.393   4.633
25581W        W93944  15.726   8.299   1.879
25582W        W93945  36.096  44.969  12.978
25583W        W93946  27.035   3.249  11.878
25584W        W93947   3.451   0.979   2.181
25585W        W93948  25.649   6.680  11.961
25586W        W93949  17.212   5.919   0.828
25587W        W93950  30.909  30.426  12.089
25588W        W93951   8.395  24.189   4.819
25589W        W93952  34.011  39.892  14.447
25590W        W93953  30.131  26.957   1.779
25591W        W93954  30.931  30.423   4.688
25592W        W93955  16.278  27.485  14.428
25593W        W93956  13.297  14.133  13.873
25594W        W93957   4.779  23.073   0.736
25595W        W93958   3.238   8.664  11.483
25596W        W93959  33.535  41.810   4.291
25597W        W93960  43.802  14.689   3.156
25598W        W93961  35.386  20.569  12.402
25599W        W93962  13.697  13.619   0.831
25600W        W93963  27.671   6.316  14.361
25601W        W93964  12.711  40.445   2.216
25602W        W93965  22.078  16.739   2.259
25603W        W93966   9.727  11.179   2.680
25604W        W93967  42.343   5.302   4.279
25605W        W93968  23.648   3.804  11.861
25606W        W93969  32.469  29.138  11.942
25607W        W93970  23.671  16.598  11.002
25608W        W93971  13.608  27.621   4.783
25609W        W93972   2.403  34.526   1.813
25610W        W93973   1.945  35.010  12.362
25611W        W93974   4.749  14.592  11.864
25612W        W93975   3.878  19.770  11.589
25613W        W93976  25.543   3.441   1.807
25614W        W93977   7.747  25.213   3.822
25615W        W93978   9.704  36.051  11.578
25616W        W93979  21.697  44.455  10.515
25617W        W93980  22.708  26.613  12.830
25618W        W93981  40.322  14.128   3.744
25619W        W93982  37.867   2.341  13.855
25620W        W93983  39.865  28.181  10.941
25621W        W93984  44.853   7.857  11.468
25622W        W93985  15.205  43.764   4.205
25623W        W93986   4.741  22.603  14.450
25624W        W93987   1.755   3.736  11.096
25625W        W93988  32.922  41.831  13.382
25626W        W93989  19.237  29.656  10.615
25627W        W93990   9.308  29.019  13.434
25628W        W93991  17.095  32.949   4.322
25629W        W93992  24.609  17.630  11.402
25630W        W93993  24.516  24.112   3.192
25631W        W93994  30.017  40.346  12.564
25632W        W93995  23.053  17.236   4.221
25633W        W93996  43.900  34.064   1.850
25634W        W93997  36.867  39.522  12.560
25635W        W93998  18.096  22.066   3.249
25636W        W93999  21.670  43.311   0.272
25637W        W94000  34.407  42.794   4.745
25638W        W94001  24.097  23.130  13.462
25639W        W94002  16.630  39.848  13.912
25640W        W94003  11.799  31.544  13.509
25641W        W94004  43.437   7.734   4.814
25642W        W94005  37.419  39.469   0.312
25643W        W94006  16.279  11.621  12.845
25644W        W94007  32.928  24.549   2.689
25645W        W94008  36.531  19.229   2.376
25646W        W94009  11.173  29.175  11.417
25647W        W94010  42.824  11.742  13.391
25648W        W94011  18.246  21.092   4.791
25649W        W94012  26.081  25.536  12.030
25650W        W94013  34.508  13.125  13.465
25651W        W94014   6.365   9.844  12.924
25652W        W94015  34.468  43.506  13.989
25653W        W94016  16.284  17.154  12.481
25654W        W94017  40.367   1.298   3.847
25655W        W94018  13.187  29.980   2.808
25656W        W94019  30.057   2.907  11.869
25657W        W94020  27.965  36.571  11.891
25658W        W94021  29.624  35.547   4.795
25659W        W94022  31.516   2.238  12.493
25660W        W94023  18.585  18.597   1.769
25661W        W94024  37.353  33.941   0.794
25662W        W94025  24.681  19.151   1.848
25663W        W94026   6.337  38.910   2.327
25664W        W94027  14.788   8.688   1.806
25665W        W94028   0.278   4.862   0.342
25666W        W94029  29.480  27.600   4.775
25667W        W94030  22.696   2.946   0.869
25668W        W94031   3.754   6.230  12.444
25669W        W94032  20.638  28.186  12.899
25670W        W94033  35.094  25.585  13.381
25671W        W94034  38.381  41.506   1.210
25672W        W94035   9.729  33.920   3.294
25673W        W94036  31.055  27.951   5.104
25674W        W94037  18.763  32.591  11.064
25675W        W94038   5.348  42.527  11.953
25676W        W94039   9.762  13.760   3.784
25677W        W94040  36.897   7.756   3.864
25678W        W94041  12.313   8.168  12.462
25679W        W94042  17.130  31.139  11.384
25680W        W94043  31.592  10.239   0.484
25681W        W94044   4.840  20.129  13.406
25682W        W94045   4.233   9.832  10.973
25683W        W94046   1.357   5.334   4.322
25684W        W94047  13.260   1.860   2.229
25685W        W94048  34.583  37.426  14.449
25686W        W94049   8.195  20.613  14.759
25687W        W94050  12.237  41.015   4.728
25688W        W94051   7.685  22.065  14.402
25689W        W94052  16.077  39.479   2.317
25690W        W94053  12.755  39.439  13.476
25691W        W94054  36.367  19.092  14.480
25692W        W94055  28.587  26.170   0.282
25693W        W94056  15.305  28.942   2.181
25694W        W94057  42.876  29.172  11.039
25695W        W94058  25.978  38.955   2.705
25696W        W94059  33.992  38.439   2.814
25697W        W94060  30.558  21.536  10.528
25698W        W94061  21.118  38.523  10.099
25699W        W94062  41.837  25.696   4.650
25700W        W94063  23.685  33.443   4.261
25701W        W94064  19.769   1.848   3.164
25702W        W94065  33.025  15.584  11.001
25703W        W94066  37.432  12.821  12.508
25704W        W94067  33.614  40.992  14.459
25705W        W94068  37.990  33.110   4.710
25706W        W94069  41.380  16.308   3.776
25707W        W94070  39.938  25.709   1.238
25708W        W94071  17.757   5.753   4.611
25709W        W94072   1.355   9.350   3.667
25710W        W94073   1.858  24.122  14.771
25711W        W94074  22.225  34.043  11.949
25712W        W94075  34.427   8.744  14.379
25713W        W94076  25.219  35.430   2.304
25714W        W94077  23.039  24.060  13.809
25715W        W94078  23.557  25.096  12.348
25716W        W94079  37.400  30.571   0.277
25717W        W94080  38.531   5.726   3.813
25718W        W94081  10.831   4.699  11.951
25719W        W94082  36.886  32.924  14.892
25720W        W94083  26.027  10.736   0.347
25721W        W94084  36.369  33.006  14.015
25722W        W94085  28.502   8.384  10.532
25723W        W94086  11.261  23.152  10.969
25724W        W94087  18.199  39.999  10.466
25725W        W94088  11.250  26.691   4.816
25726W        W94089  33.896  17.283  12.367
25727W        W94090  27.979  14.239  11.077
25728W        W94091  37.933  23.553   5.281
25729W        W94092  11.154  20.744   2.787
25730W        W94093  17.290   0.284  12.461
25731W        W94094  16.132   3.243   2.869
25732W        W94095   6.367  43.951   3.313
25733W        W94096  18.169   1.800  12.048
25734W        W94097  34.430  34.388   2.792
25735W        W94098  33.573   7.364  13.851
25736W        W94099  16.624  23.541  11.549
25737W        W94100  30.950   8.662   1.309
25738W        W94101  25.100  39.868  12.981
25739W        W94102  36.890  33.965  14.762
25740W        W94103  11.261  33.609  13.958
25741W        W94104  28.514  44.485   1.751
25742W        W94105  34.498  43.829  11.381
25743W        W94106  36.009  34.057   2.705
25744W        W94107  26.193  12.688  14.356
25745W        W94108   5.201  25.515  14.351
25746W        W94109  28.929  19.202  13.543
25747W        W94110  43.786  33.606  12.062
25748W        W94111  41.458  36.481   2.701
25749W        W94112  12.718  17.747   3.265
25750W        W94113   1.974   3.921   3.853
25751W        W94114  23.231  28.950  12.483
25752W        W94115  26.495  12.274  11.020
25753W        W94116  32.102  36.868   3.796
25754W        W94117   6.230  37.556  12.981
25755W        W94118  25.013  16.580  11.092
25756W        W94119  23.163  24.514  12.454
25757W        W94120  20.544  18.574  13.535
25758W        W94121  25.692  44.951  11.454
25759W        W94122  41.025  30.458   2.902
25760W        W94123  12.257  33.120  12.509
25761W        W94124  27.651  29.050  11.559
25762W        W94125  10.288  44.931   1.387
25763W        W94126   9.258   6.771  10.466
25764W        W94127  44.830  10.311   1.339
25765W        W94128  40.031   5.426   3.688
25766W        W94129   9.720  14.727   4.229
25767W        W94130   9.732  24.028   3.257
25768W        W94131  36.400  30.962  10.424
25769W        W94132  43.471  31.598  13.502
25770W        W94133  26.063  37.396  11.011
25771W        W94134  33.053  18.263   3.642
25772W        W94135  43.984  19.259  13.313
25773W        W94136   3.919   7.292   2.342
25774W        W94137   4.707  35.395  12.825
25775W        W94138  23.037  43.869   2.815
25776W        W94139  36.411  43.338  11.901
25777W        W94140  15.822  33.927  14.858
25778W        W94141   1.334  31.614  14.454
25779W        W94142  10.296  29.976  13.870
25780W        W94143   0.477  28.098   3.368
25781W        W94144   0.831  43.362  12.096
25782W        W94145   9.288  42.880  13.388
25783W        W94146  27.119   4.374   4.716
25784W        W94147  17.784  43.868  10.970
25785W        W94148  31.048  24.675   2.848
25786W        W94149  39.997   2.776   2.337
25787W        W94150  19.194  22.530   1.811
25788W        W94151  36.956   8.361   0.772
25789W        W94152  23.158  12.647  13.971
25790W        W94153  29.060  12.614  13.952
25791W        W94154  23.017  34.401   1.779
25792W        W94155  44.324  44.450  13.875
25793W        W94156  21.665  15.328   2.840
25794W        W94157  38.428  38.942  11.048
25795W        W94158  38.447   1.930   3.839
25796W        W94159  12.789  37.838  11.514
25797W        W94160   7.737   7.186  12.487
25798W        W94161  36.589  13.277   4.132
25799W        W94162  33.068   8.317   4.754
25800W        W94163  41.379  12.324  11.870
25801W        W94164  26.194  28.608  13.395
25802W        W94165  10.325  34.565   4.174
25803W        W94166  32.608  26.670  14.332
25804W        W94167   0.975  12.248   4.169
25805W        W94168  11.756  30.612   0.340
25806W        W94169  28.187   0.887   0.281
25807W        W94170  22.730   2.368  11.114
25808W        W94171   9.863  19.242  13.965
25809W        W94172  28.985  12.336  10.424
25810W        W94173  42.778  21.617  12.079
25811W        W94174   1.307  28.549   4.702
25812W        W94175  25.004  13.299   3.380
25813W        W94176   5.408  32.007   1.752
25814W        W94177  26.697  38.950  11.394
25815W        W94178  38.074  44.355   2.869
25816W        W94179  32.963  21.167  13.011
25817W        W94180  17.693  24.074  14.375
25818W        W94181   0.890  12.807  13.926
25819W        W94182  25.704  15.290  10.584
25820W        W94183  40.331  44.768  14.388
25821W        W94184  29.654  28.437   3.781
25822W        W94185  21.263  32.548  11.977
25823W        W94186  13.256  37.461   0.474
25824W        W94187  30.562   5.267   2.266
25825W        W94188  32.984   5.393  11.425
25826W        W94189  26.571  15.655  12.888
25827W        W94190  31.008  32.004  11.880
25828W        W94191  21.227  30.913  11.982
25829W        W94192  23.153  36.441  14.485
25830W        W94193  22.589  32.131   5.303
25831W        W94194  10.170  36.864  10.633
25832W        W94195  34.533   9.298   1.427
25833W        W94196   7.326   5.310   2.695
25834W        W94197  33.061  22.678   4.813
25835W        W94198  44.997  41.517  10.417
25836W        W94199  28.494   4.295  14.820
25837W        W94200  28.055  39.436  11.508
25838W        W94201  38.399   5.346   0.374
25839W        W94202  39.846  28.939  10.432
25840W        W94203  39.553  12.810   3.335
25841W        W94204  10.734  10.691   2.676
25842W        W94205   2.731  19.631   2.883
25843W        W94206  39.002   3.905   3.349
25844W        W94207   5.712  18.759  14.978
25845W        W94208  36.072  36.003   2.766
25846W        W94209  38.074  20.188  11.035
25847W        W94210  30.416  44.295   5.110
25848W        W94211  15.812   8.373  12.546
25849W        W94212  12.842  29.118  14.888
25850W        W94213  39.974  35.985   0.766
25851W        W94214  42.826  41.451   0.912
25852W        W94215  35.032  32.033  11.941
25853W        W94216  32.129   2.318  11.007
25854W        W94217  21.518   9.678   2.686
25855W        W94218  16.206   7.852  14.870
25856W        W94219   1.851  25.167  11.005
25857W        W94220  21.552   8.208  14.006
25858W        W94221  31.089  37.972  10.466
25859W        W94222   0.814  16.693  10.584
25860W        W94223  26.066  19.586   3.840
25861W        W94224  26.087   9.171   1.428
25862W        W94225  32.607  36.084   2.699
25863W        W94226   0.767  32.066   0.401
25864W        W94227  29.030  21.616   2.199
25865W        W94228  23.716   5.234   2.697
25866W        W94229   9.799   8.272  12.005
25867W        W94230  30.098  22.149   4.315
25868W        W94231  19.176  15.206   3.688
25869W        W94232  33.491  19.594   1.734
25870W        W94233  37.536   4.912   1.721
25871W        W94234  23.559  29.640   0.410
25872W        W94235  28.094  18.219   4.601
25873W        W94236  29.636  36.863   1.872
25874W        W94237   2.905   1.468   0.733
25875W        W94238  32.057  34.899   5.229
25876W        W94239  17.574  39.850   3.688
25877W        W94240   4.303  10.708  12.423
25878W        W94241  28.014   3.298  12.090
25879W        W94242  36.043   9.862  14.854
25880W        W94243   2.405   8.239  12.992
25881W        W94244   6.823   2.444   0.781
25882W        W94245  36.004  38.070  11.911
25883W        W94246  28.616  35.086   3.749
25884W        W94247  23.143  41.821  11.406
25885W        W94248  27.094  29.979   4.754
25886W        W94249   0.348  35.459  14.849
25887W        W94250   9.838  13.224   0.899
25888W        W94251   2.907  32.542  12.093
25889W        W94252  34.869  29.097   4.751
25890W        W94253  26.526  21.104  14.287
25891W        W94254   4.809  19.235   1.313
25892W        W94255   7.235  12.685  14.988
25893W        W94256  13.157  12.643   3.726
25894W        W94257  10.287   5.271   2.200
25895W        W94258  17.285  44.950   9.610
25896W        W94259  16.677  43.939   3.349
25897W        W94260  40.450  26.163  10.934
25898W        W94261  25.135  33.516   3.637
25899W        W94262  19.706  42.809   3.359
25900W        W94263   4.813  27.005   4.258
25901W        W94264  13.247   2.770   2.698
25902W        W94265  15.625   0.940  13.425
25903W        W94266  40.393   3.735  14.015
25904W        W94267   8.235  40.935   3.180
25905W        W94268  23.600  10.366   0.912
25906W        W94269  40.459  31.591  12.528
25907W        W94270   9.204  35.581   2.256
25908W        W94271  11.237  44.951  11.518
25909W        W94272   6.404  37.335  14.506
25910W        W94273  17.084  44.303  13.859
25911W        W94274  39.518  33.981  14.495
25912W        W94275  23.530  35.527  12.344
25913W        W94276  43.386  18.560   0.905
25914W        W94277  20.653  21.181  13.470
25915W        W94278  15.245  30.982   1.215
25916W        W94279  36.423  36.046  12.992
25917W        W94280  13.109  44.290  10.109
25918W        W94281  13.277  11.202   0.785
25919W        W94282  10.662  15.729   3.259
25920W        W94283  19.663  34.094   0.346
25921W        W94284  26.988  35.525  10.409
25922W        W94285  10.643  29.988  13.982
25923W        W94286  18.082   6.219   3.192
25924W        W94287  42.993  35.078   4.248
25925W        W94288   9.857  16.317  10.930
25926W        W94289  35.881  28.997  12.014
25927W        W94290  24.632   0.297   4.833
25928W        W94291  25.116  15.660  10.500
25929W        W94292  32.966  19.230   3.745
25930W        W94293  14.189  30.149  12.934
25931W        W94294   6.692  21.699   0.959
25932W        W94295  11.641   3.727   2.323
25933W        W94296  16.216  34.507  11.012
25934W        W94297  27.549   1.417   0.915
25935W        W94298   9.162   9.671  13.861
25936W        W94299  32.486   5.757   2.313
25937W        W94300  37.083   3.868  12.055
25938W        W94301  29.659  34.886  12.430
25939W        W94302  13.114  16.193   2.834
25940W        W94303  21.072  12.124  13.854
25941W        W94304  36.044   8.809  14.286
25942W        W94305  30.999  11.193   4.141
25943W        W94306  13.647  12.187  11.447
25944W        W94307  10.668  35.897   2.217
25945W        W94308  18.750  18.130  10.146
25946W        W94309  24.081  41.451   4.614
25947W        W94310  42.920  39.039   2.279
25948W        W94311  20.084  19.216   3.723
25949W        W94312  25.628  33.956  11.082
25950W        W94313  42.527  40.928   2.241
25951W        W94314  36.495  13.126   3.746
25952W        W94315   0.387  27.100  11.402
25953W        W94316  37.396  21.608  13.059
25954W        W94317  23.021   2.366  13.543
25955W        W94318   7.253  44.961  12.848
25956W        W94319  27.687  21.535  13.336
25957W        W94320   6.767  34.013  12.538
25958W        W94321  35.494  41.012  12.392
25959W        W94322  20.756  10.870  14.339
25960W        W94323  20.032  29.638   3.324
25961W        W94324  17.091  13.802  10.583
25962W        W94325   0.818   9.160   1.917
25963W        W94326  25.977  36.980   3.864
25964W        W94327   5.331   8.254   1.421
25965W        W94328  36.957   5.305  14.905
25966W        W94329  44.794  18.604   2.223
25967W        W94330   7.726  15.579   2.666
25968W        W94331  21.728   3.744  14.923
25969W        W94332  36.888  43.907  10.505
25970W        W94333  23.116   6.336  11.108
25971W        W94334  35.402   6.268   1.758
25972W        W94335  32.891  37.572   3.263
25973W        W94336  21.531  28.961  11.057
25974W        W94337  17.641  37.865   3.866
25975W        W94338   9.811  30.422  10.970
25976W        W94339  29.148   4.815   3.250
25977W        W94340  20.647   5.843  14.774
25978W        W94341  12.231   4.228   3.272
25979W        W94342  36.443  32.577   3.629
25980W        W94343  31.595  38.481  11.087
25981W        W94344  43.317  41.852  13.006
25982W        W94345  15.254  17.142   5.095
25983W        W94346  14.184  36.859  13.816
25984W        W94347  17.762  18.704  10.530
25985W        W94348  11.754   9.740   0.319
25986W        W94349  16.144  27.089  11.604
25987W        W94350  28.563  37.466  10.122
25988W        W94351   3.896   7.779   0.800
25989W        W94352  32.633  22.510   4.712
25990W        W94353  23.636  34.381   1.331
25991W        W94354  25.150  11.805   2.414
25992W        W94355  15.248  21.550   0.816
25993W        W94356   4.397  43.316   2.679
25994W        W94357   5.420  26.479   1.799
25995W        W94358   5.421  14.215   3.147
25996W        W94359  22.566  44.299   1.863
25997W        W94360  37.951  16.145   1.826
25998W        W94361  22.229   6.779   4.339
25999W        W94362  21.055  27.991   2.728
26000W        W94363  12.238  26.131  12.467
26001W        W94364  35.857  28.551  13.959
26002W        W94365  44.472   3.884  12.041
26003W        W94366  11.705  42.977   1.778
26004W        W94367  15.733  40.455  11.525
26005W        W94368  28.588  12.670  14.892
26006W        W94369  20.064  20.767  12.415
26007W        W94370  15.815   1.960  12.922
26008W        W94371  25.120   5.303  13.405
26009W        W94372  32.001   0.248  14.318
26010W        W94373  11.359  34.029   2.714
26011W        W94374  10.841  23.672  13.505
26012W        W94375  11.176  23.614  10.949
26013W        W94376  32.950  24.173  11.610
26014W        W94377  39.476  13.838  12.367
26015W        W94378   9.815  11.366   1.859
26016W        W94379  39.414  40.322  11.124
26017W        W94380   7.372  33.955   0.920
26018W        W94381   8.709  32.441   0.769
26019W        W94382  26.109  22.654   1.862
26020W        W94383   7.705  12.279   2.328
26021W        W94384  34.088   6.211   0.419
26022W        W94385  20.167  40.516   3.810
26023W        W94386   1.397   6.232   3.258
26024W        W94387  38.010  16.764  12.834
26025W        W94388  42.312  32.057  11.553
26026W        W94389  22.624   7.707   0.840
26027W        W94390  14.153  19.152  12.080
26028W        W94391  33.380  27.543  14.450
26029W        W94392  28.110  29.648   4.198
26030W        W94393   4.224  30.115  13.362
26031W        W94394  33.942   3.926   1.440
26032W        W94395  10.733  10.653   1.776
26033W        W94396  44.919  28.565   1.223
26034W        W94397   4.421  44.897  12.458
26035W        W94398  36.572  31.983  10.598
26036W        W94399  36.010  35.896  11.998
26037W        W94400  40.450  44.813   0.316
26038W        W94401  37.504  18.264  12.866
26039W        W94402  29.941   5.864  13.435
26040W        W94403   2.849  41.406  12.057
26041W        W94404  39.950  15.742  11.018
26042W        W94405  24.661  20.647  12.092
26043W        W94406   9.763  20.566  11.893
26044W        W94407  27.172  18.260  12.011
26045W        W94408  39.534  39.912  13.349
26046W        W94409  13.247  41.485   2.817
26047W        W94410  41.495  28.080   2.805
26048W        W94411  25.985   2.960   2.182
26049W        W94412  33.608  15.722  11.864
26050W        W94413  15.115  41.404  11.463
26051W        W94414   4.437  26.002   2.199
26052W        W94415  31.566   7.910   2.776
26053W        W94416  40.538  24.550  14.804
26054W        W94417  36.412  34.409  13.488
26055W        W94418  42.359  23.053  11.077
26056W        W94419  16.222  35.419  12.919
26057W        W94420  26.594  41.884   2.182
26058W        W94421  29.054   4.320   4.292
26059W        W94422  16.796  29.509   3.203
26060W        W94423  10.250  13.788   3.775
26061W        W94424   4.708  28.166   4.307
26062W        W94425  36.554  13.804   4.812
26063W        W94426  32.624   5.252   4.725
26064W        W94427  15.139  32.926  11.947
26065W        W94428  23.992  42.446  13.465
26066W        W94429  19.771   1.863   4.684
26067W        W94430  41.041  12.211   2.798
26068W        W94431  34.580  24.974   2.763
26069W        W94432  17.074   3.404   2.287
26070W        W94433  34.382  24.172  11.981
26071W        W94434  19.151  16.780  11.037
26072W        W94435  13.240  44.874   4.324
26073W        W94436  29.133  37.898   4.673
26074W        W94437  40.484  42.508  13.820
26075W        W94438   3.938  43.483  10.009
26076W        W94439  26.078  21.060  10.576
26077W        W94440   8.280  25.638   3.227
26078W        W94441  22.044  13.637   3.306
26079W        W94442   7.253  40.970   3.321
26080W        W94443  14.690  35.407  11.931
26081W        W94444   1.913   5.406  13.346
26082W        W94445  19.076  29.950  11.979
26083W        W94446  15.768   5.426   3.230
26084W        W94447  42.510  11.151   2.728
26085W        W94448  15.650   6.252   4.259
26086W        W94449  25.565  44.328  14.345
26087W        W94450  20.212  16.306   3.278
26088W        W94451  30.649  31.621   1.773
26089W        W94452  41.333  32.490  10.539
26090W        W94453  10.337  31.473   3.317
26091W        W94454   0.856   6.902   4.659
26092W        W94455  34.866  18.207   1.328
26093W        W94456  31.592  41.981   4.693
26094W        W94457  21.063   4.368  11.401
26095W        W94458  19.171  35.951   0.456
26096W        W94459  43.419  20.090   1.359
26097W        W94460  26.979  10.382  12.360
26098W        W94461  36.006  16.582  12.523
26099W        W94462  39.033  13.249  13.346
26100W        W94463  14.788  26.127  11.982
26101W        W94464   6.838   1.459   0.399
26102W        W94465  40.011  38.038   0.375
26103W        W94466  42.022  43.918  12.516
26104W        W94467  25.658  40.547  12.831
26105W        W94468  35.482  27.638  14.454
26106W        W94469  44.006  11.771  14.890
26107W        W94470  28.989  14.232  10.155
26108W        W94471  44.279  21.257  14.874
26109W        W94472  15.136  33.946  11.576
26110W        W94473  10.825   4.315  11.925
26111W        W94474  10.303  39.842   2.243
26112W        W94475  40.995  18.736   2.286
26113W        W94476  22.564  38.059   3.370
26114W        W94477   2.273  23.703   4.347
26115W        W94478  23.990  12.841   1.762
26116W        W94479  42.024  30.086  11.074
26117W        W94480  10.149  33.626   4.802
26118W        W94481  18.709  44.835  11.560
26119W        W94482  34.102  15.180   2.746
26120W        W94483  19.585  40.974  12.026
26121W        W94484   8.740  10.245   5.279
26122W        W94485  23.213  12.750  10.891
26123W        W94486  41.909  21.105   2.358
26124W        W94487   7.882   5.847   1.779
26125W        W94488  14.667   5.778  13.441
26126W        W94489  13.219   6.243   1.832
26127W        W94490  40.947   8.760  14.802
26128W        W94491   4.703  22.658  13.059
26129W        W94492  19.155  32.918  13.489
26130W        W94493  26.165  12.673   4.692
26131W        W94494  20.273  29.008  12.515
26132W        W94495  43.464  20.738  10.424
26133W        W94496  35.064  31.962  10.446
26134W        W94497  17.288  39.968  12.940
26135W        W94498  16.707  40.321  10.991
26136W        W94499  36.945   4.235  10.624
26137W        W94500   0.451   0.817   0.433
26138W        W94501  24.654  44.852   3.676
26139W        W94502   0.987  34.550   1.310
26140W        W94503  42.876  16.134   2.842
26141W        W94504  35.360   0.453  11.555
26142W        W94505  34.578  18.687  13.835
26143W        W94506   9.178  43.921  10.406
26144W        W94507  15.731  19.269   0.419
26145W        W94508  16.725  33.520  10.621
26146W        W94509  43.776  37.904   2.888
26147W        W94510   5.691  17.742   0.882
26148W        W94511  24.098  16.722   4.654
26149W        W94512   1.937  35.483   4.317
26150W        W94513  22.728  25.675   1.271
26151W        W94514  16.590  44.386   9.935
26152W        W94515  36.348  35.971   0.439
26153W        W94516  18.707  44.379   0.882
26154W        W94517  38.935  22.139   1.867
26155W        W94518   2.843  13.774  13.834
26156W        W94519  34.524   1.946  11.965
26157W        W94520  29.937  10.688   1.708
26158W        W94521  19.581  18.294   0.900
26159W        W94522  11.361  15.299  11.406
26160W        W94523  15.177  38.044  11.449
26161W        W94524  32.546  36.488   4.721
26162W        W94525   9.347  43.275   1.852
26163W        W94526  35.432  37.863   1.830
26164W        W94527  22.123  34.598   2.813
26165W        W94528  23.668  22.646  12.883
26166W        W94529  26.634  39.432   4.190
26167W        W94530   9.194  13.724   2.817
26168W        W94531   6.846  10.236  14.287
26169W        W94532  15.308  18.164  13.850
26170W        W94533  15.106  35.418   1.272
26171W        W94534  35.484  18.154  11.447
26172W        W94535  34.094  37.925   4.772
26173W        W94536  23.044  35.547   3.645
26174W        W94537  27.188   1.846   4.818
26175W        W94538   0.929   9.664   4.289
26176W        W94539   8.678  24.575  12.469
26177W        W94540  15.817  19.659  10.959
26178W        W94541  10.302  13.599   0.924
26179W        W94542  12.836   1.464  11.529
26180W        W94543  20.101   5.731   4.148
26181W        W94544   6.837  26.639   1.434
26182W        W94545  39.437  14.276   1.291
26183W        W94546  21.571  14.749  10.520
26184W        W94547  18.296   3.815   4.830
26185W        W94548  18.618  33.399   0.478
26186W        W94549  29.133  17.299  12.526
26187W        W94550  16.220  19.079   5.700
26188W        W94551  21.250  44.998  11.125
26189W        W94552  41.523  18.669  11.995
26190W        W94553   0.351   1.950   2.696
26191W        W94554  20.167  23.720  10.970
26192W        W94555  14.602  16.674  13.986
26193W        W94556  38.478  25.981   1.312
26194W        W94557  40.444   0.404   1.828
26195W        W94558  22.066  41.795   1.410
26196W        W94559  33.586  16.589  12.990
26197W        W94560  24.647  15.662   2.885
26198W        W94561   7.286  31.081   4.337
26199W        W94562  23.576   6.872   2.776
26200W        W94563  24.495  39.966  10.910
26201W        W94564  43.400   9.777   0.269
26202W        W94565  13.344  16.784  10.596
26203W        W94566  33.561   0.873   3.784
26204W        W94567  36.551  12.826   1.864
26205W        W94568  18.191   6.221  14.825
26206W        W94569  28.975  15.638   5.113
26207W        W94570  32.907  38.886  14.911
26208W        W94571   0.927  35.412   4.791
26209W        W94572  15.674  17.765   3.870
26210W        W94573  18.234  33.917   2.673
26211W        W94574  23.035  33.919  11.525
26212W        W94575  19.200  43.429   1.714
26213W        W94576  36.020  29.598  12.458
26214W        W94577  28.961  36.078  14.341
26215W        W94578  28.460  31.140  13.341
26216W        W94579   5.366  25.543   4.601
26217W        W94580  39.403  14.802  11.001
26218W        W94581  33.549  35.436  12.844
26219W        W94582  18.054   0.892  10.530
26220W        W94583  33.471  22.076  13.317
26221W        W94584  13.800  15.247   1.360
26222W        W94585  27.130  20.726   0.442
26223W        W94586  40.407  12.336   2.810
26224W        W94587  21.520  36.862  14.954
26225W        W94588   2.434   8.396   0.804
26226W        W94589  25.040  35.981  14.956
26227W        W94590  44.456   3.835  14.353
26228W        W94591   2.837  10.309  14.870
26229W        W94592  28.636  14.590   4.127
26230W        W94593  24.033   8.803   5.233
26231W        W94594  44.282  30.057   4.309
26232W        W94595  36.566  17.193  12.912
26233W        W94596  32.444  33.033  14.939
26234W        W94597  34.051  21.232   3.326
26235W        W94598  17.682  29.555   1.322
26236W        W94599   0.415  22.701   5.596
26237W        W94600  13.734  28.675   1.233
26238W        W94601  40.849  14.222  13.504
26239W        W94602   1.299  28.067  10.509
26240W        W94603  31.644   5.193   3.871
26241W        W94604  44.967   5.394  14.382
26242W        W94605  37.541   3.425   5.279
26243W        W94606  30.032  36.879   4.803
26244W        W94607  27.558  37.024   1.344
26245W        W94608  29.500  16.592   3.336
26246W        W94609  11.298  44.458  14.869
26247W        W94610  23.661  44.485  10.896
26248W        W94611  21.544  18.624  10.508
26249W        W94612  26.522  22.685   0.860
26250W        W94613  32.413   5.205  14.438
26251W        W94614   6.902  33.579   9.989
26252W        W94615  31.633  42.297  13.407
26253W        W94616  36.429   7.221  11.959
26254W        W94617  16.640  32.888   1.401
26255W        W94618  41.377   3.301   2.892
26256W        W94619   0.257   5.860  13.344
26257W        W94620  36.074  19.209   1.710
26258W        W94621  31.128  30.659   9.613
26259W        W94622  40.316  26.585   1.243
26260W        W94623  42.871  25.476  13.851
26261W        W94624  31.549  21.240  12.440
26262W        W94625   2.280  39.388  13.048
26263W        W94626  40.850   0.468   2.259
26264W        W94627  28.488   6.811  14.879
26265W        W94628  39.557  36.990  12.834
26266W        W94629  44.766  27.618   2.236
26267W        W94630  19.671  42.775   2.407
26268W        W94631  36.054  37.459  12.346
26269W        W94632  21.075   9.324  10.579
26270W        W94633  17.779  40.841  11.858
26271W        W94634   6.890  41.378  12.091
26272W        W94635   8.815  32.133   1.833
26273W        W94636  33.878  13.759  13.497
26274W        W94637  30.647  13.213  14.388
26275W        W94638  22.999   7.773   3.702
26276W        W94639  34.106  19.237  14.302
26277W        W94640  25.115  11.652   4.236
26278W        W94641  21.115  24.022   4.131
26279W        W94642   8.386   6.333  11.535
26280W        W94643  44.973  35.411  14.503
26281W        W94644  33.555   8.664  10.008
26282W        W94645  33.554  36.069  13.434
26283W        W94646  40.925  33.497   0.739
26284W        W94647  13.250  43.957  14.003
26285W        W94648   1.257  12.741  11.504
26286W        W94649  15.084  30.960  13.837
26287W        W94650  40.317   0.936  14.031
26288W        W94651  11.268  13.624   4.666
26289W        W94652  34.893   0.477  13.031
26290W        W94653  33.513  44.943  10.517
26291W        W94654   2.388   3.801   0.397
26292W        W94655  14.656  20.690  13.518
26293W        W94656  13.741  18.560  14.846
26294W        W94657  12.853  30.071  14.774
26295W        W94658  42.956  30.545  11.920
26296W        W94659  13.714  29.103  11.934
26297W        W94660  44.407   2.963  11.537
26298W        W94661  25.209  31.455  14.469
26299W        W94662   5.396  15.709  11.407
26300W        W94663  42.915  21.646   0.853
26301W        W94664  37.984  42.871   0.736
26302W        W94665  13.698  10.237  12.955
26303W        W94666  35.948  17.738  10.515
26304W        W94667  44.844  27.514  11.429
26305W        W94668  11.281   1.416  12.011
26306W        W94669  41.334  17.307   2.903
26307W        W94670  29.129   2.940   0.780
26308W        W94671  25.059  38.030   2.711
26309W        W94672   6.215  43.398  14.776
26310W        W94673  10.713  18.242   3.793
26311W        W94674  38.463   5.213   2.390
26312W        W94675   7.239  40.397  14.385
26313W        W94676  43.821  22.738  13.878
26314W        W94677  13.295  33.931  14.456
26315W        W94678  13.269  24.486  11.446
26316W        W94679   0.850   2.911   1.713
26317W        W94680  44.416  17.306  13.494
26318W        W94681   7.856  10.672   4.243
26319W        W94682   2.869  26.129   4.622
26320W        W94683   8.744  44.303  14.360
26321W        W94684  31.947  15.093  11.997
26322W        W94685   0.334  32.976   3.767
26323W        W94686   3.280  44.943   3.352
26324W        W94687  31.043  18.697  11.565
26325W        W94688  12.116  44.448   0.939
26326W        W94689   0.974  42.371   2.389
26327W        W94690  22.196  15.105   4.792
26328W        W94691  33.480  15.766   0.330
26329W        W94692  40.822  34.990   2.340
26330W        W94693  38.565   2.463  13.524
26331W        W94694  29.101  32.018   2.762
26332W        W94695  20.097  22.188   4.235
26333W        W94696   8.863  25.521  11.083
26334W        W94697  18.259  34.582  10.572
26335W        W94698  27.684  13.113   3.281
26336W        W94699  33.482  33.028   3.778
26337W        W94700  21.683   6.721  11.493
26338W        W94701  29.442   8.203   1.421
26339W        W94702  26.517  21.020   1.433
26340W        W94703   7.182  18.776   3.689
26341W        W94704  40.514  27.979   1.772
26342W        W94705  44.317  14.180   3.184
26343W        W94706  15.260   5.394   2.304
26344W        W94707  42.006  34.456   3.232
26345W        W94708  15.087   6.902  10.540
26346W        W94709   3.388   9.703  12.037
26347W        W94710  28.025   5.874   9.995
26348W        W94711  22.677  36.055  11.855
26349W        W94712  23.497  21.067  12.359
26350W        W94713   8.814  22.612  14.351
26351W        W94714  11.787   3.829  10.544
26352W        W94715  17.584  33.032   3.696
26353W        W94716  20.696   0.970   4.790
26354W        W94717   3.951  26.536   3.660
26355W        W94718  42.851  36.033  11.983
26356W        W94719  30.957  30.572  10.122
26357W        W94720  20.237  19.275  13.879
26358W        W94721  23.670  36.877   4.161
26359W        W94722   9.835   4.782   2.753
26360W        W94723   5.787  27.143   4.665
26361W        W94724  19.087   8.847   0.737
26362W        W94725   8.322  21.087  10.558
26363W        W94726   0.366   8.401   1.326
26364W        W94727  40.909  38.821  10.957
26365W        W94728  24.603   1.362  14.806
26366W        W94729   2.390  20.717   4.780
26367W        W94730  33.609  13.198   1.409
26368W        W94731  33.028  17.276  12.952
26369W        W94732  14.188  41.291  11.079
26370W        W94733  29.111  33.959   2.700
26371W        W94734  30.029  30.998   0.421
26372W        W94735  10.155  20.701   3.230
26373W        W94736  23.088  13.749   3.729
26374W        W94737  35.556  29.100  12.973
26375W        W94738   2.277  15.106   1.784
26376W        W94739  32.996  32.095   4.649
26377W        W94740  23.044   1.353  14.935
26378W        W94741  44.868  10.648   4.732
26379W        W94742  30.992  41.940  11.421
26380W        W94743   7.341   6.232   2.847
26381W        W94744  10.744  33.005  11.462
26382W        W94745  13.839  39.060   0.444
26383W        W94746   0.474   8.193   4.203
26384W        W94747  29.444  22.021   4.266
26385W        W94748  16.811  42.412  14.902
26386W        W94749  20.199  23.014  12.943
26387W        W94750  20.123   4.399   2.198
26388W        W94751  34.084  21.193   9.971
26389W        W94752  15.262  33.957  14.886
26390W        W94753  14.291  40.320  14.352
26391W        W94754  13.685   0.883   1.342
26392W        W94755  34.406  19.071  11.957
26393W        W94756  28.136   9.653  13.034
26394W        W94757  32.995  21.580   0.920
26395W        W94758  12.642  18.162   2.737
26396W        W94759  12.190  15.129  13.541
26397W        W94760  26.462   7.878  11.429
26398W        W94761  44.493  22.021  10.002
26399W        W94762  21.627  36.410   4.179
26400W        W94763  44.792  21.708   0.781
26401W        W94764  10.708   5.870  14.285
26402W        W94765  35.359  20.727   0.346
26403W        W94766  19.679   1.432   0.258
26404W        W94767   1.400   6.905   1.288
26405W        W94768  21.018  20.103  10.640
26406W        W94769  37.021   0.494   1.868
26407W        W94770  13.627  24.068   1.739
26408W        W94771  38.912   8.889  14.882
26409W        W94772   9.149  44.400   4.336
26410W        W94773  32.071   8.329  12.389
26411W        W94774   6.365   1.471   4.698
26412W        W94775  16.652  19.735  14.881
26413W        W94776   6.340  24.173   0.355
26414W        W94777   6.315   4.224   4.187
26415W        W94778   4.874   4.240   3.669
26416W        W94779  23.685  31.055   3.756
26417W        W94780   5.325  41.917  10.574
26418W        W94781  43.496  18.059  14.418
26419W        W94782   8.262  33.429  13.899
26420W        W94783  34.926  40.946  11.925
26421W        W94784  21.213  24.078  14.380
26422W        W94785   1.786  37.849  14.021
26423W        W94786  28.124  11.133   2.276
26424W        W94787  13.242  32.392   1.802
26425W        W94788  35.060  38.979   0.446
26426W        W94789   6.223  27.194  11.563
26427W        W94790  43.382  18.787   2.811
26428W        W94791  43.348  37.515  13.048
26429W        W94792  20.594  19.630  14.014
26430W        W94793  44.384  13.309  12.366
26431W        W94794  30.526  24.705   1.738
26432W        W94795  20.580  25.592  11.417
26433W        W94796  15.210   1.401   0.472
26434W        W94797   7.795  42.021   4.285
26435W        W94798  44.331   7.834  11.431
26436W        W94799   8.332  44.374  11.567
26437W        W94800  44.767  36.958  11.954
26438W        W94801  42.354  23.650  14.292
26439W        W94802  16.116  15.697  12.527
26440W        W94803  32.607  20.251  14.306
26441W        W94804   6.375  36.400   1.808
26442W        W94805  41.394  21.671   4.637
26443W        W94806  27.549   4.749   1.352
26444W        W94807  28.159  26.459  13.944
26445W        W94808  36.896   6.367  14.814
26446W        W94809  25.200   3.845  11.458
26447W        W94810  23.984  19.586  13.511
26448W        W94811   4.385  34.084   3.306
26449W        W94812  30.433  15.821  11.004
26450W        W94813   5.420  42.400   2.785
26451W        W94814  26.177  42.926  13.958
26452W        W94815  21.736  29.612  12.031
26453W        W94816  43.385  28.028   4.705
26454W        W94817  31.634  37.555  11.528
26455W        W94818  26.542   1.401  14.938
26456W        W94819  32.012   5.774  12.078
26457W        W94820   5.695  39.877   4.188
26458W        W94821  44.979  17.304  14.857
26459W        W94822  26.621   1.840  12.067
26460W        W94823  10.819  16.280  12.830
26461W        W94824  20.545  17.085  14.832
26462W        W94825  40.396  15.790  12.072
26463W        W94826  33.510  41.916   2.679
26464W        W94827  16.750  28.022  14.821
26465W        W94828   4.760  24.503  11.106
26466W        W94829   3.806  43.001   2.355
26467W        W94830  30.631  11.344  14.907
26468W        W94831  31.010  13.258   3.662
26469W        W94832   8.829  44.922  10.922
26470W        W94833  13.739  16.678  12.992
26471W        W94834  36.000   3.285  13.420
26472W        W94835  31.508  42.310   1.234
26473W        W94836   2.397  22.539  14.977
26474W        W94837   3.293  27.082   3.715
26475W        W94838   6.793  32.140  14.322
26476W        W94839  22.616  26.604  14.780
26477W        W94840  41.330   7.332   1.373
26478W        W94841   0.485   2.374  10.999
26479W        W94842  22.695  30.464   4.130
26480W        W94843  21.029  16.198   1.742
26481W        W94844  22.563  17.568   0.777
26482W        W94845  34.538  18.198   1.444
26483W        W94846  36.978  16.109  12.046
26484W        W94847   1.974  19.079   3.732
26485W        W94848  35.426  21.757  14.421
26486W        W94849  38.422   7.718   2.280
26487W        W94850  27.554   1.830   4.180
26488W        W94851  24.668  42.515  12.539
26489W        W94852   8.774  44.419   4.208
26490W        W94853   5.192  26.179  12.918
26491W        W94854  42.400  17.292   1.896
26492W        W94855  12.117   5.689  14.365
26493W        W94856  40.797  23.733  11.418
26494W        W94857   7.799  31.560   2.667
26495W        W94858  10.278  36.994   4.294
26496W        W94859  33.411  39.810   3.827
26497W        W94860  16.205  23.073  14.815
26498W        W94861  38.340  25.549  13.019
26499W        W94862   4.255   1.399  14.414
26500W        W94863   2.383  12.832   0.403
26501W        W94864  20.172  12.822   3.651
26502W        W94865  42.951   3.861   5.145
26503W        W94866  44.401  15.137   4.260
26504W        W94867  17.128  33.941   1.932
26505W        W94868  37.914  43.853   2.362
26506W        W94869  27.485  10.195   2.338
26507W        W94870   3.910  28.634   4.705
26508W        W94871  31.040   8.859  11.886
26509W        W94872  21.739  36.859  11.993
26510W        W94873   7.701  13.784  14.803
26511W        W94874  43.830  41.484  14.879
26512W        W94875   3.275   2.258  11.988
26513W        W94876  27.465  34.043   0.427
26514W        W94877   8.655  24.645  12.073
26515W        W94878  42.926  26.697   3.315
26516W        W94879  27.508  26.560   1.402
26517W        W94880  13.257  42.517  13.528
26518W        W94881  28.568  13.322   0.319
26519W        W94882   7.220  16.685  13.875
26520W        W94883   4.885  12.688   2.682
26521W        W94884  29.106  36.850   0.794
26522W        W94885  14.754  14.795   3.701
26523W        W94886  15.672  25.498  15.000
26524W        W94887  35.031  37.049   0.408
26525W        W94888  16.134  13.189   1.919
26526W        W94889  32.046  15.692  14.431
26527W        W94890  26.698  30.472  11.878
26528W        W94891  13.651  18.718  13.931
26529W        W94892   8.864  13.319   2.895
26530W        W94893   0.440   8.293  13.376
26531W        W94894  35.388  36.997   2.801
26532W        W94895  10.773   0.795  14.887
26533W        W94896  36.931  24.625   0.422
26534W        W94897  41.036  33.057  13.925
26535W        W94898  20.111   5.787  12.388
26536W        W94899  18.283  39.002   2.388
26537W        W94900   0.849   2.795  13.000
26538W        W94901  40.415  37.514  12.412
26539W        W94902  25.171  28.582  13.851
26540W        W94903  33.067  21.580  12.539
26541W        W94904  25.642  42.938  10.484
26542W        W94905  43.360  35.530  14.830
26543W        W94906  25.537   0.399   3.685
26544W        W94907  42.899  30.462   2.791
26545W        W94908  28.966  18.170   2.670
26546W        W94909  15.118  30.577   2.210
26547W        W94910  20.699  34.093  12.377
26548W        W94911  28.095  13.684   2.326
26549W        W94912  41.934  38.331  14.005
26550W        W94913   1.848  22.173   2.418
26551W        W94914   2.387   0.984  12.939
26552W        W94915   6.834  43.511   1.824
26553W        W94916  24.711   2.891  11.442
26554W        W94917   4.253  39.963  11.017
26555W        W94918  29.128  36.971  10.534
26556W        W94919  43.952  36.988  12.392
26557W        W94920  15.151  14.676  11.905
26558W        W94921  39.042  17.756  13.842
26559W        W94922   7.236  21.156  14.504
26560W        W94923  30.959  31.032  13.467
26561W        W94924  42.446   5.400   1.259
26562W        W94925   6.875  42.879  14.025
26563W        W94926  26.956  19.123  13.910
26564W        W94927  25.589  17.573   3.327
26565W        W94928  15.272  23.033  14.998
26566W        W94929  42.817  40.808   4.269
26567W        W94930  17.172  25.030   0.337
26568W        W94931  21.058  13.754  14.318
26569W        W94932  42.509  20.646   2.179
26570W        W94933  27.683  20.061  13.929
26571W        W94934  35.363  44.875   1.322
26572W        W94935  33.004  33.886   0.947
26573W        W94936  37.355  20.584  12.868
26574W        W94937  26.514  13.345  10.933
26575W        W94938  37.876  15.148  12.381
26576W        W94939  25.132  14.308   4.340
26577W        W94940   5.748  32.464   0.468
26578W        W94941  14.145  27.602  13.500
26579W        W94942   3.443  13.756  12.985
26580W        W94943   1.384  40.867  12.386
26581W        W94944  14.171   8.756  14.907
26582W        W94945   0.847  42.829  13.440
26583W        W94946  42.438  31.098  12.826
26584W        W94947  37.950   2.435   1.277
26585W        W94948  15.324  30.031   4.666
26586W        W94949   9.264  32.985   0.369
26587W        W94950  14.178  22.709   3.733
26588W        W94951  18.743  23.608  10.641
26589W        W94952   0.912  17.692   0.471
26590W        W94953  42.339   7.252  11.456
26591W        W94954  11.207   5.359  11.108
26592W        W94955  40.040  29.104   2.742
26593W        W94956  12.785   8.711  10.940
26594W        W94957  28.475  10.297   0.318
26595W        W94958  10.294  39.325   1.447
26596W        W94959  27.610   6.340  12.341
26597W        W94960  27.501  19.135  12.086
26598W        W94961   8.866  25.114   0.477
26599W        W94962  37.034  44.358  10.899
26600W        W94963  24.558   9.771   1.742
26601W        W94964  28.116  31.450   4.679
26602W        W94965  31.128  39.986  11.972
26603W        W94966  32.544   5.761  14.317
26604W        W94967  33.534   1.884   2.713
26605W        W94968   6.309  17.662   2.709
26606W        W94969   3.947  33.091  11.015
26607W        W94970  44.483  28.091   9.960
26608W        W94971  16.145  42.789   4.675
26609W        W94972  13.233   3.353  11.044
26610W        W94973  28.563  25.195   2.871
26611W        W94974  28.998  31.042  12.091
26612W        W94975  12.303  31.454   2.773
26613W        W94976  40.032  27.627   2.772
26614W        W94977  15.312  17.654  12.496
26615W        W94978  31.465  38.838  10.450
26616W        W94979  29.480   2.761   4.648
26617W        W94980   4.436   6.268  13.331
26618W        W94981  25.589   0.862   4.244
26619W        W94982   3.870  10.238  14.782
26620W        W94983  15.125  31.078  10.481
26621W        W94984   4.722  18.784   2.332
26622W        W94985   3.724  42.997  10.076
26623W        W94986  22.674  36.352   2.898
26624W        W94987  30.030  29.627   4.206
26625W        W94988  27.074  43.842   4.695
26626W        W94989  23.715  26.122   0.405
26627W        W94990  34.069   9.386   3.296
26628W        W94991  44.789  19.150  12.487
26629W        W94992  35.884  16.718   2.187
26630W        W94993  35.413  10.317  10.469
26631W        W94994   0.273  34.485   2.264
26632W        W94995  23.489  43.362   1.225
26633W        W94996  30.917   4.390   3.152
26634W        W94997  43.992  39.440  10.547
26635W        W94998  44.350   3.827  10.573
26636W        W94999   0.797  34.107  12.095
26637W        W95000  20.074  12.701   4.325
26638W        W95001  22.999  34.906   4.632
26639W        W95002  39.330  23.173  10.413
26640W        W95003  10.140  38.822   2.223
26641W        W95004  44.909  43.775  13.361
26642W        W95005  16.661  18.548  12.053
26643W        W95006  28.512  32.488   0.269
26644W        W95007   3.357   0.423   4.651
26645W        W95008  10.215  31.912   3.844
26646W        W95009  38.518  34.866  14.419
26647W        W95010   5.745   8.826  10.548
26648W        W95011  15.693  43.319  13.921
26649W        W95012   7.340  10.275   2.762
26650W        W95013  14.760   5.755  12.485
26651W        W95014  33.109  33.995  12.883
26652W        W95015  20.696  30.605  11.938
26653W        W95016   7.885  31.465  10.941
26654W        W95017  40.048  20.684  10.437
26655W        W95018  28.090   8.366   4.324
26656W        W95019  44.958  13.246  13.902
26657W        W95020  31.022  20.174  12.864
26658W        W95021  34.946  13.618   3.647
26659W        W95022  24.641   4.925   0.753
26660W        W95023   3.920  33.903  14.432
26661W        W95024  34.502  19.687   1.356
26662W        W95025   3.919  24.992  14.440
26663W        W95026  23.208  17.084  14.853
26664W        W95027  39.415  24.692  10.479
26665W        W95028  14.263  17.728  12.081
26666W        W95029   7.876  30.937   1.874
26667W        W95030  15.305  20.696   3.724
26668W        W95031   2.860  32.580  14.986
26669W        W95032  28.169  17.239  12.447
26670W        W95033  19.641   4.371  12.481
26671W        W95034   5.721  33.422   1.338
26672W        W95035  11.311   2.358   4.650
26673W        W95036  43.460  24.719  11.963
26674W        W95037   0.290  36.498   3.160
26675W        W95038  42.433  29.525   0.877
26676W        W95039  40.050   2.429   1.929
26677W        W95040  36.383  44.427   0.464
26678W        W95041  14.220  42.502  13.338
26679W        W95042  36.948   6.271   3.672
26680W        W95043  25.130  40.858  10.423
26681W        W95044  14.234  33.068  10.982
26682W        W95045  32.895  17.251   4.316
26683W        W95046  30.511  20.579  11.938
26684W        W95047  44.505  20.274  13.058
26685W        W95048  22.559  34.948  12.881
26686W        W95049  35.013  41.799  12.913
26687W        W95050  42.324  44.950  12.894
26688W        W95051  41.422  10.642   2.754
26689W        W95052  29.591  11.648  13.469
26690W        W95053  31.960  15.131   0.804
26691W        W95054   1.371  38.374   0.899
26692W        W95055  25.155  28.007  13.338
26693W        W95056  44.364  28.162  11.878
26694W        W95057  26.589  14.817   0.353
26695W        W95058  25.596  14.116   0.250
26696W        W95059  15.244  30.582   3.727
26697W        W95060  17.757  44.504  13.433
26698W        W95061  40.997  17.632  12.848
26699W        W95062  15.669  36.458   0.933
26700W        W95063  39.050  26.563   3.741
26701W        W95064  37.425  32.896  12.485
26702W        W95065  29.576  32.948  10.506
26703W        W95066  12.850  35.480  12.544
26704W        W95067  20.588  39.817   3.682
26705W        W95068  22.049  11.866  11.027
26706W        W95069  32.624  26.540   0.903
26707W        W95070  44.897   6.902  13.529
26708W        W95071   8.243  18.614   3.331
26709W        W95072  29.455  28.100   2.730
26710W        W95073   2.308  34.517  13.002
26711W        W95074   3.457  16.640  13.546
26712W        W95075  26.545  12.288   1.769
26713W        W95076  35.059  24.574  11.872
26714W        W95077   9.183  12.769  10.937
26715W        W95078  44.268  20.270  11.427
26716W        W95079  13.137  26.162  12.518
26717W        W95080   3.292  30.538   1.851
26718W        W95081  25.689   0.342  11.432
26719W        W95082  43.483   5.923  14.769
26720W        W95083  42.525  36.932   3.237
26721W        W95084  22.656   1.417  10.549
26722W        W95085  24.048   0.885   3.644
26723W        W95086  24.165  15.314  11.454
26724W        W95087  26.539  44.761   3.722
26725W        W95088  20.701  11.776   2.768
26726W        W95089   4.920  36.466   4.147
26727W        W95090  21.106  37.936  12.879
26728W        W95091   3.937  28.531   2.891
26729W        W95092  31.978  41.030  11.539
26730W        W95093  44.923  14.262  12.854
26731W        W95094  44.846  37.465   1.218
26732W        W95095  35.531  30.570  10.455
26733W        W95096   7.683   9.730  13.830
26734W        W95097   6.303  10.215  10.447
26735W        W95098  27.148  40.485   2.759
26736W        W95099  36.563  43.314   0.954
26737W        W95100   6.723  22.728   1.796
26738W        W95101  44.378  36.841  12.392
26739W        W95102   3.437   4.298   2.303
26740W        W95103  27.950  39.950  14.343
26741W        W95104   7.777   0.409   4.789
26742W        W95105   3.256  31.596   2.339
26743W        W95106  25.532  25.507  12.076
26744W        W95107   8.852   7.351  13.456
26745W        W95108  16.664  38.427   3.298
26746W        W95109  21.621  26.496  14.502
26747W        W95110  23.090  25.518   2.817
26748W        W95111  43.013  30.438  10.159
26749W        W95112  42.907  24.152   1.698
26750W        W95113  23.613  30.424  14.359
26751W        W95114  31.479  16.205   2.773
26752W        W95115   2.873  43.340   9.591
26753W        W95116  35.882  14.275  10.556
26754W        W95117  13.601  30.025   1.256
26755W        W95118  40.917  26.119  12.013
26756W        W95119   8.682  34.390   3.381
26757W        W95120  33.507  26.521   1.817
26758W        W95121  39.855  15.114  12.938
26759W        W95122  21.046   9.819  11.543
26760W        W95123  14.823  37.365   3.156
26761W        W95124  39.468  30.148  10.584
26762W        W95125  17.085  32.970  13.393
26763W        W95126  17.682  23.531   2.215
26764W        W95127  21.017   7.342   4.832
26765W        W95128  36.548  22.635   1.305
26766W        W95129   1.896   5.327   3.217
26767W        W95130  29.615  23.192   4.216
26768W        W95131   4.388  23.612  13.373
26769W        W95132  38.391  10.229   1.713
26770W        W95133   5.239   0.487  12.853
26771W        W95134  23.219  29.471  14.276
26772W        W95135   9.285   3.890   3.312
26773W        W95136  38.562   5.365   3.199
26774W        W95137  22.024  19.557  13.046
26775W        W95138   7.280  35.440  14.957
26776W        W95139  26.978   0.957  13.502
26777W        W95140  11.638   1.343   1.774
26778W        W95141  32.891  28.148   3.230
26779W        W95142   4.323  36.410   2.275
26780W        W95143  30.994  40.518   3.305
26781W        W95144  38.041  40.929  14.283
26782W        W95145  14.660   0.924   3.357
26783W        W95146   1.838  37.968  13.534
26784W        W95147   2.919  41.830   3.159
26785W        W95148  41.527  13.688  10.999
26786W        W95149  40.439  33.562   0.248
26787W        W95150  12.709  20.744  13.347
26788W        W95151  22.196   1.784   0.825
26789W        W95152  22.029  20.117   2.199
26790W        W95153  14.780  30.985   3.239
26791W        W95154   2.858  23.606  14.850
26792W        W95155   1.874  24.688  11.417
26793W        W95156  41.829  32.061   2.332
26794W        W95157   1.883  11.222   1.286
26795W        W95158  35.604   1.789   2.870
26796W        W95159  20.245  39.930  13.472
26797W        W95160  15.775  10.784  10.908
26798W        W95161  16.638  10.801   1.311
26799W        W95162   2.734  33.043   2.664
26800W        W95163  27.999   7.331  11.992
26801W        W95164  16.128  14.608   4.297
26802W        W95165  43.020  26.111  11.552
26803W        W95166  13.128  10.225  12.856
26804W        W95167  43.510  35.581   5.197
26805W        W95168  18.274  24.030  10.930
26806W        W95169  27.482  12.342  14.336
26807W        W95170  15.265   2.836   4.217
26808W        W95171  10.150  41.968  13.056
26809W        W95172  30.652  37.376   2.891
26810W        W95173  34.384  19.162  13.862
26811W        W95174  23.054  30.539   3.322
26812W        W95175   9.218  10.247  14.863
26813W        W95176  17.782  19.627   0.463
26814W        W95177  30.570  24.636   0.901
26815W        W95178  41.916   6.332  14.301
26816W        W95179  41.992  27.656  11.397
26817W        W95180  33.936  27.032   1.423
26818W        W95181   5.722  33.474   2.348
26819W        W95182  38.856  30.953  12.862
26820W        W95183  37.390  40.310  14.882
26821W        W95184  43.844  20.232  11.886
26822W        W95185   3.723   6.324  14.939
26823W        W95186   1.336   6.679   1.854
26824W        W95187   7.275  31.601   1.278
26825W        W95188  21.091  39.403   3.203
26826W        W95189  44.378  27.972  11.449
26827W        W95190   3.773   6.208   3.708
26828W        W95191  42.876  14.183   4.732
26829W        W95192  17.278   6.337  13.456
26830W        W95193  23.657  15.322  13.880
26831W        W95194  20.242  26.588  10.428
26832W        W95195  10.847  42.395   3.334
26833W        W95196  36.503   7.846   4.231
26834W        W95197  33.114  20.175   1.252
26835W        W95198  17.105  33.549   0.453
26836W        W95199  41.394  10.781   1.806
26837W        W95200  30.427   9.289   4.118
26838W        W95201   3.217  31.910   4.239
26839W        W95202  26.563   8.845   1.237
26840W        W95203  29.640  19.639  11.517
26841W        W95204  19.582  22.066  12.904
26842W        W95205  24.669  19.713   2.220
26843W        W95206  39.455   2.257  12.861
26844W        W95207   1.755  38.554   4.611
26845W        W95208  10.738  13.707   2.806
26846W        W95209  13.113  19.213  13.459
26847W        W95210  10.200  21.164  11.457
26848W        W95211  35.464  26.498   1.828
26849W        W95212   2.458  25.493  12.421
26850W        W95213  30.573  26.505   2.876
26851W        W95214  14.328   2.750   3.661
26852W        W95215  12.716  40.532   0.248
26853W        W95216  25.665  20.749   3.256
26854W        W95217  35.098  32.488  14.825
26855W        W95218  39.979  38.867  14.425
26856W        W95219  40.044  19.748   4.355
26857W        W95220  42.345  39.813  11.127
26858W        W95221  13.249  17.790  11.937
26859W        W95222  28.025  27.540   3.328
26860W        W95223  16.695   0.872   3.675
26861W        W95224  29.093  28.505   2.713
26862W        W95225   4.728   4.845   0.883
26863W        W95226  10.356  36.920  12.000
26864W        W95227  29.140  28.108   1.385
26865W        W95228  13.682   4.731   0.431
26866W        W95229  30.638  27.527   1.703
26867W        W95230  19.063  22.724   1.231
26868W        W95231  27.993   4.874   3.275
26869W        W95232  27.121   5.750   3.197
26870W        W95233  43.003  18.633  12.951
26871W        W95234  37.979  24.644  14.498
26872W        W95235  34.932  13.149   0.766
26873W        W95236   4.878  41.810  12.495
26874W        W95237  34.900  27.479  11.544
26875W        W95238   0.887   2.868  12.438
26876W        W95239  43.485  34.438   0.308
26877W        W95240   8.167  27.134   2.822
26878W        W95241  41.296   1.240  14.490
26879W        W95242  38.976  40.960  14.862
26880W        W95243  30.553  15.610   3.730
26881W        W95244  22.022  30.936   2.874
26882W        W95245  17.275  22.025   2.299
26883W        W95246  25.490   5.347  11.058
26884W        W95247  30.574  30.060   5.605
26885W        W95248  37.002  41.343   0.866
26886W        W95249  24.544   0.907  10.520
26887W        W95250  29.027   4.450   2.679
26888W        W95251  18.261  42.830   3.351
26889W        W95252  16.599  33.519  11.402
26890W        W95253  15.327  26.201  14.380
26891W        W95254  44.404  17.076  11.608
26892W        W95255  11.862  28.182   1.822
26893W        W95256  14.317  36.575   4.154
26894W        W95257   6.261  31.464   3.146
26895W        W95258  16.743  17.645   2.802
26896W        W95259  17.758  12.718  12.074
26897W        W95260  22.548   2.722   2.229
26898W        W95261  43.430   5.830  10.934
26899W        W95262  42.297   5.275  13.913
26900W        W95263   9.876  23.603  11.934
26901W        W95264  32.501  18.242  12.386
26902W        W95265  28.106  21.086   5.214
26903W        W95266   6.323  22.231   3.367
26904W        W95267   0.789  17.573   3.666
26905W        W95268  13.629  34.519  13.060
26906W        W95269  27.661  17.273  12.867
26907W        W95270  36.875  26.502  11.459
26908W        W95271  31.513  34.995  12.901
26909W        W95272  35.055   9.332   3.215
26910W        W95273  44.792  22.179  14.425
26911W        W95274   2.914  15.618  11.054
26912W        W95275  29.532   8.677   2.706
26913W        W95276   2.312  21.209   4.817
26914W        W95277  44.291  10.321   0.262
26915W        W95278  39.506  25.582  12.013
26916W        W95279   6.254  16.613   3.670
26917W        W95280  14.303  44.970   2.312
26918W        W95281  40.864  43.313   0.301
26919W        W95282  17.656  17.701   0.246
26920W        W95283  16.184   5.761  11.380
26921W        W95284  12.787   6.302   1.405
26922W        W95285  36.037  44.399  14.479
26923W        W95286  23.233  14.793   3.739
26924W        W95287  15.821  36.861   0.756
26925W        W95288  29.433  18.675  11.554
26926W        W95289  19.110  29.944   0.420
26927W        W95290  26.202  10.275  12.835
26928W        W95291  20.689  12.758   3.706
26929W        W95292  39.433  39.880  10.511
26930W        W95293  29.506  31.630   0.400
26931W        W95294  27.990  21.188   4.656
26932W        W95295  40.391  30.142   2.852
26933W        W95296  19.549  38.448   3.166
26934W        W95297  33.438  37.349  13.010
26935W        W95298  28.090  14.699   2.268
26936W        W95299   7.703  42.327   1.853
26937W        W95300   7.796   8.252   1.229
26938W        W95301   9.680   1.918   0.782
26939W        W95302   5.229  39.913  10.905
26940W        W95303  30.929   8.332  11.420
26941W        W95304   7.729  11.288   3.827
26942W        W95305  26.526  10.281   2.708
26943W        W95306   5.810  13.180  14.366
26944W        W95307  39.023  41.503   1.213
26945W        W95308  38.440  27.038  14.297
26946W        W95309   7.907  42.443  11.417
26947W        W95310  39.537  24.498   3.314
26948W        W95311  33.089  27.557  14.988
26949W        W95312  40.839  23.181  13.384
26950W        W95313  23.146  11.816   3.728
26951W        W95314  27.518  15.749   4.688
26952W        W95315  13.704  42.311  12.576
26953W        W95316  21.513  14.282   0.422
26954W        W95317  41.441  18.546   3.305
26955W        W95318   8.733  12.160   4.810
26956W        W95319  18.281  28.450   1.417
26957W        W95320   7.244  15.231   0.274
26958W        W95321  29.642  14.215  13.902
26959W        W95322  21.193  21.674  13.359
26960W        W95323  17.075  15.799   0.260
26961W        W95324  39.864  21.160  11.109
26962W        W95325  24.986  29.066  11.026
26963W        W95326  28.028  12.168   4.167
26964W        W95327  21.089  33.923   3.651
26965W        W95328  41.854  20.115  13.914
26966W        W95329   9.745   8.794  11.428
26967W        W95330  16.077   9.286   3.795
26968W        W95331  11.362  33.453  14.829
26969W        W95332  42.897  29.078  14.294
26970W        W95333  10.756   0.398   0.888
26971W        W95334  35.930  27.954  13.406
26972W        W95335   3.411  36.566  11.536
26973W        W95336  31.004  12.290   2.763
26974W        W95337   6.792   6.910   4.147
26975W        W95338  38.946  43.430  10.921
26976W        W95339  15.585  21.521  10.617
26977W        W95340  39.855   5.258  13.356
26978W        W95341   2.355   8.815   4.138
26979W        W95342  18.746  31.647  14.276
26980W        W95343  19.182  28.488   0.452
26981W        W95344  41.883   0.295   3.349
26982W        W95345   4.408  15.736   0.877
26983W        W95346  15.129   8.669   5.263
26984W        W95347  13.793  42.342  13.540
26985W        W95348  37.076  23.181   3.170
26986W        W95349  20.604  17.753  13.468
26987W        W95350  24.580  23.549  13.315
26988W        W95351  12.172  19.127   1.303
26989W        W95352   7.741   0.848  10.534
26990W        W95353  16.094   0.424  14.346
26991W        W95354  23.996  21.687  13.480
26992W        W95355  18.234   7.408  11.915
26993W        W95356  19.722  18.639   0.339
26994W        W95357  40.033   5.917  14.452
26995W        W95358   7.756  21.747   2.710
26996W        W95359   5.895  12.296  12.036
26997W        W95360  36.495   3.390  14.836
26998W        W95361   1.872  29.157  13.536
26999W        W95362  42.901  29.140   4.779
27000W        W95363   0.971  34.393   4.148
27001W        W95364  23.530  31.984  14.429
27002W        W95365  44.448  36.925   3.657
27003W        W95366  23.653  26.505  10.140
27004W        W95367  27.989  41.880   3.157
27005W        W95368  38.831   3.373   4.350
27006W        W95369  33.953  19.226   2.362
27007W        W95370  10.664  11.808   4.225
27008W        W95371  14.789  34.524  13.483
27009W        W95372  26.126   9.776  14.778
27010W        W95373  44.270  38.009  12.395
27011W        W95374   4.874  30.650   3.862
27012W        W95375  28.534  16.799   0.842
27013W        W95376  40.538  27.023  12.899
27014W        W95377   8.676  23.648  10.469
27015W        W95378   8.823  32.887  12.876
27016W        W95379  37.541  20.673   4.673
27017W        W95380  37.998  41.439   0.891
27018W        W95381  33.001  14.688   4.647
27019W        W95382  15.170  36.999   2.249
27020W        W95383  40.945   8.265  14.004
27021W        W95384   0.260   3.280   2.354
27022W        W95385  38.537  26.009   3.854
27023W        W95386   6.224  27.159  14.335
27024W        W95387  28.034  16.688  13.430
27025W        W95388  38.339  41.344  14.961
27026W        W95389  41.456  35.996   3.780
27027W        W95390  42.806  24.484  11.076
27028W        W95391  16.134   5.843  10.911
27029W        W95392  44.391  13.322   2.822
27030W        W95393  15.316  31.049   4.205
27031W        W95394  25.618  30.461   4.758
27032W        W95395  20.038  19.690   2.323
27033W        W95396   8.852  34.986   0.453
27034W        W95397  31.578  26.193  12.421
27035W        W95398   5.832  17.676  11.517
27036W        W95399  38.034   8.216   0.340
27037W        W95400   4.285  39.857   2.253
27038W        W95401  41.941  40.974  12.066
27039W        W95402  11.670  12.816   1.840
27040W        W95403  22.107   1.273   2.338
27041W        W95404  27.462   5.719  11.120
27042W        W95405  27.106  16.291  14.390
27043W        W95406  15.215  12.829  11.859
27044W        W95407  11.689   2.408  12.383
27045W        W95408  11.819  24.622   3.160
27046W        W95409  14.645  41.808   3.216
27047W        W95410  33.954  24.202   1.353
27048W        W95411  24.561  39.357   1.781
27049W        W95412  32.480  42.950   2.816
27050W        W95413  38.984  27.688  14.975
27051W        W95414  30.459  34.971  10.422
27052W        W95415  18.733   0.273   1.708
27053W        W95416  31.020  36.004  10.453
27054W        W95417  39.936  43.860   0.887
27055W        W95418  36.007   8.792   3.730
27056W        W95419  32.628  43.011   0.450
27057W        W95420   3.929  21.688   3.306
27058W        W95421  11.306  31.067  13.807
27059W        W95422  31.419  41.946  10.983
27060W        W95423  20.699  43.800  12.499
27061W        W95424   0.494  44.311   4.240
27062W        W95425  29.606  32.498  11.022
27063W        W95426  25.210  27.619  10.559
27064W        W95427  18.737   4.438  13.859
27065W        W95428  33.539   5.761   0.320
27066W        W95429  32.954  34.881  10.481
27067W        W95430  43.005  15.152  12.067
27068W        W95431  33.469   8.198  14.948
27069W        W95432  42.905  22.246   3.699
27070W        W95433  28.639  11.639  10.963
27071W        W95434  40.394   5.438  11.071
27072W        W95435  41.357  42.303  10.550
27073W        W95436  22.056  29.062  10.460
27074W        W95437  12.819  42.992   2.790
27075W        W95438  43.304  17.107  14.294
27076W        W95439   1.279   3.810   0.332
27077W        W95440  11.779  27.981   4.838
27078W        W95441  24.626  41.529  13.536
27079W        W95442  10.738  32.433   0.765
27080W        W95443  31.127  11.765   4.302
27081W        W95444  18.105  27.535   0.734
27082W        W95445   1.810  14.796   0.285
27083W        W95446  17.760  21.163  11.014
27084W        W95447   3.892  32.046  10.496
27085W        W95448  42.514  10.867   0.439
27086W        W95449  41.487   5.881  10.947
27087W        W95450  29.445   7.729  13.995
27088W        W95451   6.383  13.713  12.985
27089W        W95452  24.665  39.361   1.438
27090W        W95453  17.691  25.155   4.635
27091W        W95454   2.361  30.562  14.842
27092W        W95455  16.246  29.987   0.247
27093W        W95456  44.821  21.114   1.797
27094W        W95457   5.766  23.022  10.608
27095W        W95458  28.607  10.364   2.316
27096W        W95459  31.904  41.908  12.958
27097W        W95460  29.074  12.302   4.721
27098W        W95461  18.277  14.654   3.155
27099W        W95462  25.693   3.772  10.916
27100W        W95463   2.244  11.845   1.427
27101W        W95464  30.573   8.723   3.342
27102W        W95465   7.736  34.413  11.873
27103W        W95466  20.731   6.842   0.954
27104W        W95467  44.935  16.291  11.373
27105W        W95468  19.049   0.857  12.857
27106W        W95469   4.228  29.136   4.837
27107W        W95470   6.209  20.033   1.226
27108W        W95471  21.705  12.358  14.026
27109W        W95472  19.624  33.617  11.923
27110W        W95473   3.952  36.585   4.817
27111W        W95474  38.068   7.304  11.533
27112W        W95475   9.824  30.109   4.695
27113W        W95476  14.259  14.794  13.483
27114W        W95477   4.381  11.791  12.000
27115W        W95478   5.226  37.882  10.461
27116W        W95479  34.093  23.097   1.296
27117W        W95480  33.435  43.432   1.398
27118W        W95481  38.383  13.311  10.530
27119W        W95482  27.068   1.761  14.814
27120W        W95483  20.749   4.901   2.375
27121W        W95484   5.866   7.714  13.823
27122W        W95485  13.243  33.989  11.403
27123W        W95486  16.629  41.341   5.275
27124W        W95487  28.033   0.905   1.427
27125W        W95488   8.890  42.392  10.997
27126W        W95489  30.131  12.746  13.530
27127W        W95490   1.356  12.758   3.864
27128W        W95491  32.438  27.627  14.873
27129W        W95492  10.662  35.546   3.728
27130W        W95493   9.288  23.058  12.511
27131W        W95494  10.385  20.056   0.302
27132W        W95495  36.928  28.496   1.832
27133W        W95496  43.507   6.807   1.333
27134W        W95497   9.225  39.053  12.555
27135W        W95498  44.305  12.765   2.772
27136W        W95499  40.457   2.302  14.799
27137W        W95500  37.506  42.408   3.842
27138W        W95501  20.594   2.263   4.216
27139W        W95502  16.280   0.391   1.355
27140W        W95503   9.355  21.094   3.244
27141W        W95504  37.874  13.216   3.326
27142W        W95505  39.505  35.027  12.344
27143W        W95506  42.351  12.671   4.348
27144W        W95507   7.226  22.024   1.263
27145W        W95508  43.968  42.872  12.055
27146W        W95509  43.892  17.689  12.912
27147W        W95510   6.795   1.379  11.553
27148W        W95511  29.601  10.685   3.378
27149W        W95512  16.703   5.221  12.830
27150W        W95513  39.874   4.836   3.289
27151W        W95514  33.932   4.307   2.735
27152W        W95515   0.464  40.973  12.391
27153W        W95516   4.306  40.402  13.505
27154W        W95517   3.386  17.684   0.426
27155W        W95518  34.952  10.739   1.709
27156W        W95519  31.150  14.698  13.004
27157W        W95520  16.662  39.523   2.266
27158W        W95521  35.488  44.286  10.617
27159W        W95522  16.598  11.142  11.528
27160W        W95523  24.695   5.398   0.463
27161W        W95524   4.844   3.307  11.894
27162W        W95525  23.510  16.717  11.502
27163W        W95526  17.240  10.734   4.208
27164W        W95527  28.529  34.082   0.248
27165W        W95528  40.409  15.804  11.463
27166W        W95529   0.343  30.079   1.851
27167W        W95530  36.933  31.979   5.307
27168W        W95531  10.201  19.069  14.416
27169W        W95532  37.083  39.844   1.283
27170W        W95533  21.092  14.217  13.902
27171W        W95534   0.988   8.288  12.858
27172W        W95535   3.245  28.530   3.760
27173W        W95536  29.978   2.871  12.367
27174W        W95537  43.850  10.146  12.086
27175W        W95538  12.188  17.175   4.740
27176W        W95539  38.836  31.003   3.355
27177W        W95540  33.388   9.381   4.826
27178W        W95541  38.952   3.899   2.224
27179W        W95542  23.671   7.299   1.866
27180W        W95543  12.316  13.642  13.047
27181W        W95544  40.506   8.796  10.447
27182W        W95545  44.890  15.823   1.375
27183W        W95546   6.726  12.271   1.312
27184W        W95547  33.569  11.302   0.824
27185W        W95548  31.510  13.699   4.829
27186W        W95549  27.673   0.269   1.390
27187W        W95550  25.579  18.141   9.968
27188W        W95551  12.138  19.106  13.866
27189W        W95552  13.628  27.469  10.501
27190W        W95553  43.851  13.788  14.932
27191W        W95554  39.380  10.186  14.341
27192W        W95555  16.653  25.677   3.147
27193W        W95556  12.211  15.667  13.998
27194W        W95557   0.952   9.811   1.817
27195W        W95558  41.926   0.459  10.452
27196W        W95559  20.184  17.240   0.368
27197W        W95560  21.253  17.790  10.996
27198W        W95561  22.139  39.873   2.418
27199W        W95562  31.993  19.153   4.619
27200W        W95563  32.500  29.075  10.127
27201W        W95564  35.884  16.651   4.809
27202W        W95565   4.352  12.218   1.265
27203W        W95566  21.048  20.128  12.388
27204W        W95567  18.635  32.918   1.385
27205W        W95568   5.390  35.090  13.484
27206W        W95569  20.744  11.143  14.827
27207W        W95570  12.747  34.490  11.527
27208W        W95571   1.436  12.797  13.791
27209W        W95572  19.220   8.711   2.230
27210W        W95573  26.045  39.358   3.287
27211W        W95574  32.606   5.921  12.342
27212W        W95575  18.775   2.784  12.536
27213W        W95576  30.495  30.954  10.122
27214W        W95577  24.023   0.334  11.857
27215W        W95578  33.072  39.045   1.712
27216W        W95579  24.645  28.582  11.095
27217W        W95580  42.516  16.276   2.295
27218W        W95581  42.457  39.361  11.936
27219W        W95582  38.984  21.727  14.954
27220W        W95583  28.150  31.514  13.525
27221W        W95584  32.060  38.931  13.531
27222W        W95585  44.325  22.204   3.150
27223W        W95586  15.739  16.128   0.295
27224W        W95587   7.171   7.735  11.581
27225W        W95588   5.413   4.796  11.905
27226W        W95589  42.503  27.018   0.957
27227W        W95590  42.486   9.719   1.368
27228W        W95591  20.574  22.044   3.741
27229W        W95592  40.493   4.255   2.314
27230W        W95593  24.628  43.909  11.866
27231W        W95594  20.102  32.587   0.798
27232W        W95595  14.115   2.300  12.473
27233W        W95596  22.049  17.117  14.361
27234W        W95597  38.830   1.297  14.401
27235W        W95598  28.951  18.274  11.958
27236W        W95599   2.854   1.978   4.240
27237W        W95600  29.944   4.931   3.813
27238W        W95601  33.594  37.972   1.873
27239W        W95602  10.235   7.264   0.409
27240W        W95603  38.394  39.387  11.526
27241W        W95604  37.998  39.424  12.466
27242W        W95605   6.860   8.395   3.768
27243W        W95606  18.673  19.110   1.212
27244W        W95607  32.450   5.909   4.229
27245W        W95608  26.636   7.403  14.317
27246W        W95609   3.381  22.569   3.661
27247W        W95610  21.670  21.543   3.257
27248W        W95611  29.056  27.666  13.468
27249W        W95612   7.896  33.010  14.829
27250W        W95613   2.792  20.257  12.869
27251W        W95614  44.301  40.512   3.632
27252W        W95615   1.859  32.399   2.827
27253W        W95616  35.526  37.482  10.424
27254W        W95617  18.054  23.022   0.903
27255W        W95618  41.925  13.704  12.446
27256W        W95619  10.298  18.140   1.772
27257W        W95620  15.739  15.090  14.328
27258W        W95621  18.127  16.724   3.300
27259W        W95622  12.620  29.595   1.908
27260W        W95623  35.036  35.583  13.372
27261W        W95624  42.903  13.290   5.106
27262W        W95625  39.551  34.086  11.071
27263W        W95626   1.733  24.534  14.383
27264W        W95627  43.969  11.851  12.452
27265W        W95628  33.556  27.118  13.791
27266W        W95629   8.726  39.862   0.341
27267W        W95630  31.928  17.231   1.716
27268W        W95631  32.935  35.104  14.394
27269W        W95632  31.132   9.384   1.256
27270W        W95633  21.022   5.304   0.943
27271W        W95634  33.903  26.048  14.373
27272W        W95635  20.751  24.537  14.799
27273W        W95636   2.821  19.096  14.357
27274W        W95637  36.875  23.232   0.359
27275W        W95638  34.899  36.005  14.779
27276W        W95639   3.420  16.114   1.353
27277W        W95640  44.927  11.662  14.028
27278W        W95641  20.603  35.359  13.520
27279W        W95642  34.575  41.306  14.908
27280W        W95643  33.090  23.137  12.095
27281W        W95644  21.520  25.099   1.703
27282W        W95645  26.533  23.679   2.265
27283W        W95646  22.026  22.529   0.252
27284W        W95647  37.845   7.187   4.827
27285W        W95648  41.994  28.487   1.840
27286W        W95649   5.433  24.087   3.321
27287W        W95650  19.593  35.067  10.547
27288W        W95651   0.399  19.175   3.148
27289W        W95652  27.992  26.146   4.740
27290W        W95653   3.287  17.183  13.517
27291W        W95654  35.378  36.007   3.346
27292W        W95655  40.985   7.315  13.875
27293W        W95656   0.461  22.214  13.425
27294W        W95657   0.789   3.931  14.512
27295W        W95658  29.972  42.907  13.512
27296W        W95659   7.251  31.623   2.383
27297W        W95660  10.275  27.642   4.327
27298W        W95661   9.218  18.599   2.762
27299W        W95662  15.652  43.830  11.926
27300W        W95663  24.055  34.012  14.772
27301W        W95664  37.434  10.742  14.281
27302W        W95665   5.736  38.075   3.713
27303W        W95666  36.093  17.588  14.412
27304W        W95667  15.099   0.442  12.968
27305W        W95668  28.092   4.213  14.883
27306W        W95669  42.507  23.708   0.939
27307W        W95670  41.311   6.357   0.828
27308W        W95671  26.497  29.500   1.425
27309W        W95672   8.302  30.458   1.257
27310W        W95673  39.893  20.224  14.905
27311W        W95674  11.238  42.387  13.919
27312W        W95675  30.149  12.780   2.359
27313W        W95676  24.181  11.665   3.668
27314W        W95677   3.731  42.806   0.368
27315W        W95678  39.926   3.411   2.708
27316W        W95679   6.186  26.190   1.346
27317W        W95680  29.925   0.303   2.705
27318W        W95681  33.925  30.972   2.774
27319W        W95682  15.117  42.397   2.322
27320W        W95683  17.783  39.505   3.825
27321W        W95684  30.064  43.791  10.983
27322W        W95685  33.982  36.905  11.115
27323W        W95686  31.948   7.684  14.862
27324W        W95687  20.253  15.305   3.221
27325W        W95688  28.595  20.102   3.218
27326W        W95689   7.785  33.488  10.549
27327W        W95690   7.731  34.042  11.573
27328W        W95691  13.272  26.667   3.341
27329W        W95692  17.160  43.892   1.243
27330W        W95693  27.514  37.411  11.088
27331W        W95694  14.713   1.854  13.376
27332W        W95695   5.427  29.931  14.402
27333W        W95696  27.668  20.708   1.355
27334W        W95697  16.154  43.278  10.419
27335W        W95698  29.527  26.122   2.864
27336W        W95699   9.709  18.192   0.960
27337W        W95700  26.611  22.233  14.280
27338W        W95701  40.411   6.855   1.847
27339W        W95702   9.343  18.590   1.840
27340W        W95703   8.335  37.440   2.316
27341W        W95704   8.198  28.098   1.844
27342W        W95705   3.403   5.321  13.411
27343W        W95706  20.206  37.547   4.339
27344W        W95707   0.819  34.094   2.186
27345W        W95708  43.371  22.139  11.495
27346W        W95709   8.824  25.028  12.085
27347W        W95710  32.980  24.513   0.740
27348W        W95711  44.479  27.069  12.410
27349W        W95712  21.615  11.156  12.869
27350W        W95713  20.234  13.607   1.408
27351W        W95714  32.107   7.261  13.810
27352W        W95715  13.292  16.119   1.817
27353W        W95716  26.027   8.838  10.457
27354W        W95717  35.916  18.251   1.294
27355W        W95718  10.745  20.655   2.703
27356W        W95719  28.545  41.037   4.330
27357W        W95720   9.193   4.838  10.089
27358W        W95721  22.594   9.320   3.191
27359W        W95722   3.810  36.442   3.250
27360W        W95723  13.181   6.695  12.002
27361W        W95724  32.509  34.040   4.603
27362W        W95725  14.780  33.588   3.841
27363W        W95726  31.520   6.917   2.840
27364W        W95727  27.563   1.940   3.708
27365W        W95728  34.593  13.779  10.498
27366W        W95729  15.162  34.000  10.498
27367W        W95730  32.107  29.108   1.281
27368W        W95731   0.321  31.409   0.355
27369W        W95732  34.372  44.437  12.846
27370W        W95733  27.190  15.248  11.123
27371W        W95734   5.889  30.642  12.443
27372W        W95735   4.224   3.453  12.062
27373W        W95736  29.005   5.886  11.562
27374W        W95737  20.193  31.440  13.441
27375W        W95738  31.562  32.507   0.881
27376W        W95739   4.710   5.739   2.256
27377W        W95740   6.772  10.781   1.363
27378W        W95741   9.388  37.422   0.440
27379W        W95742  23.124  40.018   4.694
27380W        W95743  40.957   6.405  12.095
27381W        W95744   8.774  23.189  11.947
27382W        W95745  19.686  20.607   1.814
27383W        W95746  22.703  35.004   1.848
27384W        W95747   6.367  12.158  11.483
27385W        W95748  15.278   8.788  12.496
27386W        W95749  19.095  17.153  12.939
27387W        W95750  20.225  19.237   1.444
27388W        W95751  42.349  32.495   2.375
27389W        W95752  12.163  16.813  10.506
27390W        W95753  14.638   5.243  12.984
27391W        W95754  19.202  30.438   1.253
27392W        W95755  10.827   1.960   4.713
27393W        W95756  26.570  24.682  10.574
27394W        W95757   2.948  12.294   4.816
27395W        W95758  28.031  43.966  12.830
27396W        W95759  44.332   6.722   1.788
27397W        W95760   1.372  33.594  14.864
27398W        W95761  19.590  31.138   4.599
27399W        W95762  37.897  22.538   4.667
27400W        W95763  10.161  39.827  11.587
27401W        W95764   0.749  27.633   3.260
27402W        W95765  17.579  15.128   4.598
27403W        W95766  11.738  43.789  11.899
27404W        W95767  22.669  21.683  12.928
27405W        W95768  26.078  18.626   0.776
27406W        W95769  24.012  34.422  12.522
27407W        W95770  21.631  39.977  10.906
27408W        W95771  20.638  18.085  14.859
27409W        W95772  30.615   5.345   1.801
27410W        W95773  31.424   9.766  11.035
27411W        W95774  42.523  28.524   3.721
27412W        W95775   9.658  32.496  10.559
27413W        W95776   1.316  36.975  14.376
27414W        W95777  30.618  43.339   1.913
27415W        W95778  31.088   6.775   1.874
27416W        W95779   3.791  22.121   9.441
27417W        W95780  17.211  20.123   2.669
27418W        W95781  11.271  41.460   4.174
27419W        W95782  25.161   5.698   1.248
27420W        W95783  29.442  10.665   1.816
27421W        W95784  17.624  33.434   3.310
27422W        W95785  41.928  25.616  14.879
27423W        W95786  10.248   5.821  13.951
27424W        W95787   0.944  19.232  13.459
27425W        W95788  15.818  13.688   1.232
27426W        W95789  29.460  27.987  14.856
27427W        W95790  35.015  33.510  11.082
27428W        W95791  41.851  16.797   2.199
27429W        W95792   8.252  33.112   0.867
27430W        W95793  40.537  34.935  14.805
27431W        W95794  43.414  30.102  13.544
27432W        W95795  21.198  33.912   2.385
27433W        W95796   7.355  18.173   3.719
27434W        W95797  40.370  39.376  12.359
27435W        W95798  33.504   9.857   3.750
27436W        W95799  41.457   1.446  10.465
27437W        W95800  16.705  28.476  10.507
27438W        W95801  33.520  40.517   3.676
27439W        W95802  26.586  15.129  14.777
27440W        W95803  26.035  35.008  12.044
27441W        W95804  35.452  32.111   4.281
27442W        W95805  15.711  25.071   1.369
27443W        W95806   7.717  36.874  14.907
27444W        W95807   6.698  30.031   4.244
27445W        W95808  42.313  33.527  14.830
27446W        W95809  20.271  15.619   3.162
27447W        W95810   6.335  37.908  11.087
27448W        W95811  28.998  14.797   1.697
27449W        W95812  29.478  25.186   0.272
27450W        W95813  37.059   4.796   0.743
27451W        W95814  37.518  10.858  13.949
27452W        W95815   8.351  30.506  10.473
27453W        W95816   8.769  25.652   1.367
27454W        W95817  40.458  37.348  13.399
27455W        W95818   0.786  42.974   3.773
27456W        W95819  20.746  32.956   1.326
27457W        W95820   5.322  20.647   2.760
27458W        W95821  25.057  32.064   2.739
27459W        W95822  18.196  12.355  14.762
27460W        W95823  23.649  36.036   2.702
27461W        W95824   6.352   8.285   1.892
27462W        W95825  24.695   6.740  10.483
27463W        W95826   8.319  31.091  12.382
27464W        W95827  11.158  15.766   4.308
27465W        W95828   1.414   3.370  10.440
27466W        W95829  41.467  22.636   0.410
27467W        W95830  38.902  38.960  12.399
27468W        W95831  14.218  15.578  14.936
27469W        W95832  29.076   6.401   4.723
27470W        W95833  17.194  34.961   0.851
27471W        W95834   6.885   6.917  11.992
27472W        W95835   7.244  35.570  12.048
27473W        W95836   6.845  18.640   2.392
27474W        W95837  19.556  40.452  11.087
27475W        W95838  40.804  17.773   4.341
27476W        W95839  21.174   7.784  13.413
27477W        W95840  39.846  19.251  14.513
27478W        W95841  41.501  20.186   4.669
27479W        W95842  11.177  27.626   3.676
27480W        W95843   4.928  27.549   3.685
27481W        W95844  21.107  41.007  12.041
27482W        W95845  34.013  12.756  13.955
27483W        W95846  24.061  23.587   1.246
27484W        W95847  42.922   5.802   0.860
27485W        W95848  20.225  17.577   1.884
27486W        W95849  32.103  17.659  10.959
27487W        W95850  31.008  38.946   2.241
27488W        W95851  12.795  28.053  13.498
27489W        W95852   8.246  13.648  13.458
27490W        W95853  21.090  28.969  14.401
27491W        W95854  43.992  19.541  10.495
27492W        W95855  16.656   9.649  12.837
27493W        W95856   6.760  25.484   4.224
27494W        W95857  32.552  10.632  11.461
27495W        W95858  16.239  23.131  10.911
27496W        W95859  12.766  34.006   1.861
27497W        W95860  42.382  18.282   0.859
27498W        W95861  34.449   9.336   2.196
27499W        W95862  22.646   8.815  12.538
27500W        W95863  25.502  39.351  11.118
27501W        W95864  39.359  42.451  14.766
27502W        W95865  14.705   6.784   1.889
27503W        W95866  38.361   3.225   3.754
27504W        W95867  44.900  33.458  13.408
27505W        W95868  32.618  29.625  11.041
27506W        W95869  25.168   6.705  14.999
27507W        W95870  20.131  26.016   3.670
27508W        W95871  38.007   9.749   4.292
27509W        W95872  23.997  42.845  12.484
27510W        W95873  38.884  40.964   4.248
27511W        W95874  44.835  25.112  14.851
27512W        W95875  17.752  17.092   0.934
27513W        W95876  20.682  23.608   1.305
27514W        W95877  37.833  12.827  11.082
27515W        W95878  16.749  12.349   4.801
27516W        W95879   8.843   6.796   1.345
27517W        W95880  39.913   7.176  14.497
27518W        W95881  30.542   6.397  14.918
27519W        W95882   8.341   5.305  10.608
27520W        W95883  25.090  10.287  11.099
27521W        W95884   7.825  14.740  11.915
27522W        W95885  18.756   4.806   4.726
27523W        W95886  19.644  28.100  11.095
27524W        W95887   8.824  20.111   1.263
27525W        W95888  19.274  24.033  11.929
27526W        W95889  33.125  11.755   1.395
27527W        W95890  39.379  38.992   4.697
27528W        W95891  29.601  19.086  13.813
27529W        W95892  30.602  19.070  13.963
27530W        W95893  15.695   1.880   1.237
27531W        W95894  20.096  42.819   3.382
27532W        W95895  38.430  16.715   1.717
27533W        W95896  11.840   9.393  12.406
27534W        W95897   8.177  28.096  13.326
27535W        W95898   7.242   0.307  10.407
27536W        W95899  21.113  38.957  12.910
27537W        W95900  14.792  31.006   1.781
27538W        W95901  26.034  25.969   3.797
27539W        W95902  14.253  33.427   2.181
27540W        W95903   1.337   6.317   2.309
27541W        W95904  23.004  38.541  12.072
27542W        W95905  41.430   7.907  13.437
27543W        W95906  27.022  26.642   3.863
27544W        W95907  24.588   8.261   1.896
27545W        W95908  32.549  30.467   4.324
27546W        W95909  32.985   4.926   1.918
27547W        W95910  30.646  30.587  12.023
27548W        W95911  30.928  40.828  14.852
27549W        W95912  30.546  37.003   4.137
27550W        W95913   3.377  30.569  11.016
27551W        W95914  17.757  35.555   0.483
27552W        W95915  17.185  38.511  11.551
27553W        W95916  10.375  19.534  11.878
27554W        W95917  44.841  25.649  10.946
27555W        W95918   0.793  33.566  11.909
27556W        W95919  34.059   0.467   4.633
27557W        W95920  32.616  37.067   3.668
27558W        W95921  29.560  18.716   2.745
27559W        W95922  32.522  13.751  12.892
27560W        W95923  23.158  12.836   0.250
27561W        W95924  10.674   2.300   1.436
27562W        W95925   0.394   4.358   4.279
27563W        W95926  10.723   2.891  13.059
27564W        W95927  22.681  39.005  10.050
27565W        W95928  14.259  25.106   3.650
27566W        W95929  12.841  29.582  13.510
27567W        W95930  10.226  44.827   4.158
27568W        W95931  37.448   5.368  12.491
27569W        W95932  30.636  19.726   0.779
27570W        W95933  25.542  29.159  13.977
27571W        W95934   9.362  15.685   5.211
27572W        W95935  41.322  26.031   2.900
27573W        W95936  36.963  27.973  10.561
27574W        W95937  39.979  38.942   0.483
27575W        W95938  15.220  19.041  10.044
27576W        W95939  10.676  34.406   3.250
27577W        W95940  17.085  18.556  14.499
27578W        W95941  29.639   3.440  10.479
27579W        W95942  25.469  34.561  11.609
27580W        W95943  25.490  22.215  11.911
27581W        W95944  33.429  10.282  13.505
27582W        W95945   3.317  10.704  11.544
27583W        W95946  10.188  12.163   3.186
27584W        W95947  21.604  40.875  11.456
27585W        W95948  43.924  24.980  12.422
27586W        W95949  20.045  40.972  13.008
27587W        W95950  36.934  25.513  14.856
27588W        W95951  25.142  30.576  11.399
27589W        W95952  43.452   2.720   1.404
27590W        W95953   0.846  29.995   2.365
27591W        W95954  38.487  37.500  14.315
27592W        W95955  14.330  10.167   3.360
27593W        W95956  28.533  14.622  10.039
27594W        W95957   7.881   0.827  13.345
27595W        W95958  40.934  13.253   4.715
27596W        W95959  31.092   3.884  10.416
27597W        W95960   4.909  25.217  12.569
27598W        W95961  43.404  17.579   0.801
27599W        W95962  27.558   8.798  12.385
27600W        W95963  15.668  17.697   1.835
27601W        W95964  41.405  43.954  11.588
27602W        W95965   7.227  18.221   0.889
27603W        W95966  17.068  11.208  14.966
27604W        W95967  26.196  20.573  12.485
27605W        W95968  29.590  31.001  11.386
27606W        W95969   1.388   4.718  11.065
27607W        W95970  23.690  27.175   4.259
27608W        W95971   6.766  39.552  12.497
27609W        W95972  42.020  23.134  11.036
27610W        W95973  28.067  14.257  13.402
27611W        W95974   9.646   0.920   4.758
27612W        W95975  16.609   5.744   1.234
27613W        W95976   3.310  43.947   4.303
27614W        W95977  29.052   1.242  10.913
27615W        W95978  34.899  34.867   4.186
27616W        W95979  20.676  10.731  10.934
27617W        W95980  24.699  19.049  12.911
27618W        W95981  44.922  35.366   1.876
27619W        W95982  36.842  10.656  14.772
27620W        W95983  31.415  35.434  12.095
27621W        W95984  41.801  43.330  11.058
27622W        W95985  11.182  36.510  11.116
27623W        W95986  12.711  29.935   0.419
27624W        W95987   7.769  28.525  11.963
27625W        W95988   4.248  28.984  11.513
27626W        W95989  44.493  43.515   4.629
27627W        W95990  29.054  28.597  10.559
27628W        W95991  16.644  30.581  12.966
27629W        W95992   4.700   1.796   5.088
27630W        W95993  38.565  29.059   2.855
27631W        W95994   6.216   1.772   4.350
27632W        W95995   9.153   6.742   2.789
27633W        W95996  38.474  24.109  10.901
27634W        W95997   7.747  39.833   4.706
27635W        W95998  42.944  32.995   3.688
27636W        W95999  14.295  17.224   3.764
27637W        W96000  21.613  35.101  14.866
27638W        W96001  16.232  40.343  10.467
27639W        W96002  38.882  21.213   0.880
27640W        W96003  43.498   7.805   2.407
27641W        W96004  26.118  12.166  10.982
27642W        W96005  37.989  11.167   0.730
27643W        W96006  16.801   5.286  14.016
27644W        W96007   3.789   6.772   0.435
27645W        W96008  43.971  19.065   0.826
27646W        W96009   8.192  10.666  10.534
27647W        W96010  40.023  35.368  13.369
27648W        W96011  41.303  11.182  13.811
27649W        W96012   2.878  12.142   2.321
27650W        W96013  33.520  26.550  14.761
27651W        W96014  32.504  23.675   1.321
27652W        W96015  25.554  21.098   3.195
27653W        W96016   9.331   3.322  14.850
27654W        W96017  32.994   3.866  13.521
27655W        W96018  28.115  22.124  14.289
27656W        W96019  44.287  14.806   0.921
27657W        W96020  36.884  32.449   2.324
27658W        W96021  23.008  28.503  11.083
27659W        W96022  25.998  36.938  11.599
27660W        W96023  33.551  13.139  14.301
27661W        W96024   7.251  10.689   1.708
27662W        W96025  17.743   9.281   4.285
27663W        W96026  25.003  39.375   4.253
27664W        W96027  44.329  13.721  11.549
27665W        W96028  36.586  22.149   0.752
27666W        W96029   7.680  28.128   4.165
27667W        W96030  40.469   3.787  14.860
27668W        W96031  25.183   2.359  14.335
27669W        W96032  24.185  18.059   1.356
27670W        W96033   2.467  19.537   3.301
27671W        W96034   4.335   5.728  14.379
27672W        W96035  40.303  36.019   1.934
27673W        W96036  44.911  37.446  11.379
27674W        W96037  12.827  34.104  13.537
27675W        W96038   5.202  19.118  12.504
27676W        W96039   3.304  31.584  11.555
27677W        W96040  15.138  18.658  11.079
27678W        W96041  34.933  15.219  14.293
27679W        W96042  30.108  37.448   0.965
27680W        W96043  15.779  21.054  14.813
27681W        W96044  43.412   1.384  14.510
27682W        W96045   3.876  29.061   3.279
27683W        W96046  39.990  26.183  11.918
27684W        W96047  18.695  10.337   2.198
27685W        W96048  32.088   9.158  13.405
27686W        W96049  33.394  42.510  11.558
27687W        W96050  36.906  31.006  14.394
27688W        W96051  13.194  39.927  11.979
27689W        W96052  11.221  24.586  14.790
27690W        W96053  20.066  44.897  12.064
27691W        W96054   7.372  35.880  14.025
27692W        W96055  15.598  31.489  11.511
27693W        W96056  10.328  17.604   2.253
27694W        W96057  43.983  29.431   1.831
27695W        W96058  42.938  41.519   3.260
27696W        W96059  32.901  13.803   2.195
27697W        W96060  33.059  41.000  13.976
27698W        W96061   4.932  20.660  10.516
27699W        W96062  33.495  23.554   3.164
27700W        W96063  32.623  43.370   4.616
27701W        W96064   0.311   4.234  10.942
27702W        W96065  34.073   1.837   1.803
27703W        W96066   2.801   0.487   2.699
27704W        W96067  16.109   5.348  11.518
27705W        W96068  35.551   1.272  13.826
27706W        W96069   5.802   3.729  11.453
27707W        W96070  36.462  34.943  13.837
27708W        W96071  33.422  11.824  12.441
27709W        W96072  19.278  30.651  12.096
27710W        W96073  38.338  39.331   4.132
27711W        W96074  42.792  16.722  12.501
27712W        W96075   1.775  15.730  10.452
27713W        W96076   1.776  32.118   4.237
27714W        W96077  41.317  37.489  13.061
27715W        W96078   7.323  23.505  13.872
27716W        W96079  31.555  16.239   1.849
27717W        W96080  38.377  15.328  10.477
27718W        W96081  24.193  16.581  14.856
27719W        W96082  44.448  41.883  13.308
27720W        W96083  18.616  14.124  11.874
27721W        W96084  44.821   4.904   3.638
27722W        W96085  22.049  22.184  10.900
27723W        W96086  20.649  15.255   1.719
27724W        W96087  16.791  38.533  13.436
27725W        W96088  32.969  20.109   4.655
27726W        W96089  29.132  16.181   4.768
27727W        W96090  16.154  27.661   3.760
27728W        W96091  16.783  19.753  12.377
27729W        W96092  30.548  10.175   1.773
27730W        W96093  26.567  16.207   0.882
27731W        W96094  17.271   2.460   2.792
27732W        W96095  29.142  25.595  11.895
27733W        W96096  11.864  12.173  10.420
27734W        W96097   2.764  37.553   1.899
27735W        W96098  32.401   4.822  13.479
27736W        W96099  27.004   1.805  11.878
27737W        W96100   8.750  14.167  13.350
27738W        W96101  20.741  35.022   3.191
27739W        W96102  15.605  26.571   3.819
27740W        W96103  31.511  16.078   1.301
27741W        W96104  28.458  30.977  12.855
27742W        W96105  43.991  19.110   2.185
27743W        W96106  31.599   4.273   0.918
27744W        W96107  40.990  26.996   1.424
27745W        W96108  23.585  29.969   2.210
27746W        W96109  18.582  34.949   3.379
27747W        W96110  32.991   7.871  14.780
27748W        W96111   6.357  43.815  11.010
27749W        W96112  21.237  25.115  14.942
27750W        W96113  26.184  43.341   1.213
27751W        W96114  37.388  14.776   1.759
27752W        W96115   3.365  27.602   4.819
27753W        W96116  15.643  16.726  13.334
27754W        W96117   5.208  25.117  11.996
27755W        W96118  40.336   0.340   3.278
27756W        W96119   4.751  10.736   3.809
27757W        W96120  20.609  20.744  13.319
27758W        W96121  19.208  43.785  14.972
27759W        W96122  41.850  23.197  14.364
27760W        W96123   8.218   8.309  11.030
27761W        W96124  30.533  41.912   1.298
27762W        W96125   4.708  25.617   0.760
27763W        W96126  37.458   7.237   3.171
27764W        W96127   5.203   2.739   4.124
27765W        W96128  29.424  28.655   1.330
27766W        W96129  10.867  14.663   4.748
27767W        W96130   4.237   5.931  10.559
27768W        W96131  32.538  30.040  11.048
27769W        W96132  22.158  19.146  14.941
27770W        W96133  16.191  24.634   1.809
27771W        W96134  41.368  23.505   2.262
27772W        W96135  44.301  29.123   0.344
27773W        W96136   1.744  23.033   3.183
27774W        W96137  24.193  41.355  12.501
27775W        W96138  29.926   4.321  13.417
27776W        W96139  35.013  40.309  14.484
27777W        W96140  27.646  11.669  13.995
27778W        W96141  13.328  12.216   0.756
27779W        W96142   9.357  30.427  13.466
27780W        W96143   7.189  34.907  14.346
27781W        W96144  27.062  33.874  12.401
27782W        W96145   2.952  37.866  13.980
27783W        W96146  41.994  26.010   0.920
27784W        W96147  34.950  29.506  10.912
27785W        W96148  15.142  32.509  12.953
27786W        W96149  10.704  13.182  12.893
27787W        W96150  29.588   7.350   1.372
27788W        W96151  33.088  26.608  11.587
27789W        W96152  29.064   1.762   4.668
27790W        W96153   9.204  25.508  13.457
27791W        W96154   8.871  33.465  12.984
27792W        W96155  15.814   2.917  13.032
27793W        W96156  30.465  11.827  14.893
27794W        W96157  21.121   0.743  14.781
27795W        W96158  23.988  18.655  12.842
27796W        W96159   1.853  24.725  11.935
27797W        W96160   6.359   3.308  13.039
27798W        W96161   8.731  18.554   4.286
27799W        W96162   9.882   3.383  14.420
27800W        W96163  40.444  24.537   0.427
27801W        W96164  28.988  17.676  12.014
27802W        W96165   5.910   4.368  12.504
27803W        W96166  40.903  28.553  13.382
27804W        W96167  22.047   5.929  11.457
27805W        W96168  33.512   5.373  10.158
27806W        W96169  16.309  43.418   0.778
27807W        W96170   5.195   1.854   1.366
27808W        W96171  42.872  12.693  12.384
27809W        W96172  44.451  40.495   2.225
27810W        W96173  30.078  20.098   3.200
27811W        W96174  33.553   5.713   4.135
27812W        W96175  12.272  33.575  12.550
27813W        W96176  24.094  16.592  14.410
27814W        W96177  17.098  31.032  12.511
27815W        W96178   7.719   8.213   4.837
27816W        W96179  22.070  41.459  11.093
27817W        W96180  24.643  33.020  12.407
27818W        W96181  43.908  43.974  12.529
27819W        W96182  43.478  26.695   3.639
27820W        W96183   9.166  29.622   0.454
27821W        W96184  32.032  44.479  14.325
27822W        W96185  25.973  28.148   2.836
27823W        W96186  35.980  32.457  13.938
27824W        W96187  39.914  41.043   0.847
27825W        W96188  22.745  32.917   4.605
27826W        W96189   8.739  38.447  11.865
27827W        W96190  16.634  32.489   0.853
27828W        W96191  16.785   6.339   2.406
27829W        W96192  42.410   3.429  12.578
27830W        W96193  21.159   1.799   4.318
27831W        W96194   2.316  17.098  14.458
27832W        W96195  14.200  41.462   0.370
27833W        W96196  28.599   8.347   2.414
27834W        W96197   7.254  28.543   3.796
27835W        W96198   5.329  19.198   1.738
27836W        W96199   9.197  20.640   2.193
27837W        W96200  13.768  25.676  11.111
27838W        W96201  18.059  20.156  13.411
27839W        W96202  37.570  23.004  13.370
27840W        W96203  42.939  24.140  13.394
27841W        W96204  18.775  19.106   1.906
27842W        W96205  19.741  18.267  10.509
27843W        W96206  42.412  25.675  10.483
27844W        W96207  23.610  25.567  13.034
27845W        W96208   0.302  27.108  10.893
27846W        W96209  18.130  12.207   0.760
27847W        W96210  31.966  24.723  12.938
27848W        W96211  31.075  36.969   4.232
27849W        W96212  35.538  27.514   3.704
27850W        W96213   6.249   8.316   0.455
27851W        W96214   9.732   5.838   1.920
27852W        W96215  43.899  23.004  14.869
27853W        W96216  44.863  15.130   4.332
27854W        W96217   7.900  42.458   2.297
27855W        W96218   4.926  12.197  13.340
27856W        W96219   6.298  34.048  11.044
27857W        W96220  16.591  12.253  11.987
27858W        W96221  18.758  17.307   1.776
27859W        W96222  32.467  22.605   1.906
27860W        W96223  15.242   8.799  13.801
27861W        W96224  16.630   2.934   4.307
27862W        W96225  40.454  41.813   0.934
27863W        W96226  17.128  16.806   2.842
27864W        W96227   4.789  14.157   3.828
27865W        W96228  43.904  38.828   0.757
27866W        W96229  28.541  36.357  10.916
27867W        W96230   7.910  43.943  11.934
27868W        W96231  38.561   0.749   3.280
27869W        W96232  27.556  16.638   4.713
27870W        W96233  11.270  18.652  10.517
27871W        W96234  30.461  21.755   4.655
27872W        W96235   7.737  19.175   4.663
27873W        W96236  11.759  34.867   2.336
27874W        W96237  18.160  37.911   0.841
27875W        W96238  44.477  44.326   0.811
27876W        W96239  39.317  41.846   4.310
27877W        W96240   2.278  22.704  14.018
27878W        W96241   5.374  40.984   0.919
27879W        W96242  17.675  22.660  13.898
27880W        W96243  29.481  11.334  14.977
27881W        W96244   1.809  31.012  14.877
27882W        W96245  27.466  42.020  14.889
27883W        W96246  20.201  14.314  12.498
27884W        W96247  31.485  42.503  13.895
27885W        W96248  38.074  43.290  12.886
27886W        W96249   7.282  14.286   2.205
27887W        W96250  30.080  29.013  10.150
27888W        W96251  11.158   1.476  12.385
27889W        W96252  34.431   2.732  14.457
27890W        W96253  23.126  30.916   2.215
27891W        W96254  29.968  27.584   5.110
27892W        W96255  12.733  30.061   1.725
27893W        W96256  17.586   5.349  12.398
27894W        W96257  26.964  42.893  14.450
27895W        W96258  16.196  31.126  10.427
27896W        W96259  42.781  39.384  10.977
27897W        W96260  28.447  18.240  10.541
27898W        W96261  42.437   2.366  11.958
27899W        W96262  29.160  27.093   2.762
27900W        W96263  30.001  13.656   4.254
27901W        W96264  36.876  37.070  11.512
27902W        W96265  36.468  19.714   0.886
27903W        W96266  15.126   0.870   1.242
27904W        W96267  13.136  37.980   2.857
27905W        W96268   4.699  37.912  12.883
27906W        W96269   8.369  24.031   1.827
27907W        W96270  28.986   4.369  13.917
27908W        W96271  42.481   7.240  13.817
27909W        W96272  13.827  28.081   2.765
27910W        W96273  36.505  17.667   2.388
27911W        W96274   5.889   3.855   4.331
27912W        W96275  40.932   7.730   3.308
27913W        W96276  42.383  12.796   0.771
27914W        W96277  26.099  12.669  14.877
27915W        W96278   5.386  15.578   1.703
27916W        W96279   5.338  32.096  14.370
27917W        W96280  28.941  29.513   1.368
27918W        W96281  20.146   9.268  12.983
27919W        W96282  23.700  28.487   1.876
27920W        W96283  17.630   8.167  12.032
27921W        W96284  23.541  17.673   3.180
27922W        W96285  14.308  20.584  14.947
27923W        W96286  44.839  23.579   3.800
27924W        W96287   8.242  12.802   1.723
27925W        W96288  27.032  42.455   3.838
27926W        W96289  44.421  17.657   3.794
27927W        W96290  15.272   4.899   4.718
27928W        W96291  13.299  32.597   4.142
27929W        W96292   0.455  18.112  13.056
27930W        W96293  36.485  41.371  10.158
27931W        W96294  37.412  43.387  13.048
27932W        W96295  19.179  34.571  12.496
27933W        W96296  41.805  21.252   2.677
27934W        W96297   7.736  36.965   2.246
27935W        W96298  12.348  44.802   4.757
27936W        W96299  29.434  12.203   2.345
27937W        W96300  34.968  43.821   4.722
27938W        W96301  19.634  37.075  10.996
27939W        W96302  19.569  41.875  13.907
27940W        W96303   6.811  10.325   2.665
27941W        W96304  39.012  21.143   3.656
27942W        W96305  19.536  28.032   1.711
27943W        W96306  40.517   6.409  13.005
27944W        W96307  43.490  25.991   2.284
27945W        W96308  17.176  13.690   3.377
27946W        W96309  20.092  32.997  14.792
27947W        W96310  28.001   6.408  10.589
27948W        W96311   7.360  19.609  13.016
27949W        W96312  40.417  24.704   3.728
27950W        W96313  32.584  30.954  14.865
27951W        W96314  32.058  12.345   2.700
27952W        W96315   5.719  12.212   4.668
27953W        W96316   4.291  38.469   4.209
27954W        W96317  34.872   8.658  14.346
27955W        W96318   1.310  15.722   1.394
27956W        W96319  21.125  22.593   3.830
27957W        W96320  30.963  42.813   1.907
27958W        W96321  28.603  19.649  13.061
27959W        W96322  15.580  36.572   5.256
27960W        W96323  24.619  40.360  14.849
27961W        W96324  34.520  26.647  11.116
27962W        W96325  28.678  30.537  14.440
27963W        W96326  13.176  18.773  10.994
27964W        W96327   5.913  23.156  14.815
27965W        W96328   7.748   4.876   3.710
27966W        W96329  14.309  11.795  12.472
27967W        W96330  19.608  25.490   3.152
27968W        W96331  17.291  37.967   4.146
27969W        W96332  10.223  41.461  12.467
27970W        W96333  22.695  42.283  11.861
27971W        W96334  27.568  33.489   3.184
27972W        W96335   5.738  12.677   3.337
27973W        W96336  22.085  36.412  14.344
27974W        W96337  34.915   5.742  12.843
27975W        W96338  33.942  36.069   4.792
27976W        W96339   1.783   0.456   4.256
27977W        W96340   5.227  32.971   4.663
27978W        W96341  26.969   5.386   0.275
27979W        W96342  12.181   1.443  10.448
27980W        W96343  17.197  37.565  10.943
27981W        W96344  10.148  28.603  12.517
27982W        W96345  37.537  34.507  12.886
27983W        W96346   1.876  24.083   4.131
27984W        W96347   8.282  40.949   2.840
27985W        W96348  33.500  29.515  10.149
27986W        W96349  42.971   6.282   1.436
27987W        W96350  11.229  43.004   1.787
27988W        W96351  30.569  30.922  12.841
27989W        W96352  38.393  40.882   3.771
27990W        W96353   3.819  33.555   3.704
27991W        W96354  21.050   2.239   3.352
27992W        W96355  16.204  22.523   2.825
27993W        W96356  34.100  28.453   2.708
27994W        W96357  28.657  29.918  13.024
27995W        W96358  43.390  17.653  13.041
27996W        W96359  15.712  31.576   4.286
27997W        W96360  21.263  25.100   0.897
27998W        W96361  35.042  29.639   2.744
27999W        W96362  44.771  10.739   3.169
28000W        W96363   9.834  13.174   4.151
28001W        W96364   7.719  36.882   4.115
28002W        W96365  19.176  31.904   0.405
28003W        W96366  35.467  25.032   4.638
28004W        W96367  28.981  24.191   1.833
28005W        W96368  24.996  14.788   4.633
28006W        W96369  23.056   3.758   0.810
28007W        W96370  36.368  21.555  11.116
28008W        W96371   6.861  40.309   4.197
28009W        W96372   8.183   5.278  13.504
28010W        W96373  16.630  16.309   4.705
28011W        W96374  19.225  42.969  13.329
28012W        W96375  41.867  16.167   1.211
28013W        W96376  15.803  13.610   4.838
28014W        W96377  17.219   1.293  13.476
28015W        W96378   8.768  17.291   4.738
28016W        W96379  13.178  23.539  10.943
28017W        W96380  26.610   0.283  12.078
28018W        W96381  29.439  22.030  10.442
28019W        W96382  38.340   9.253  11.436
28020W        W96383  42.330   0.945  12.951
28021W        W96384  36.413  15.688  11.521
28022W        W96385  38.908  23.671  14.804
28023W        W96386  15.822  13.832  14.973
28024W        W96387  37.562  30.579  13.466
28025W        W96388  15.680  14.172  13.828
28026W        W96389  21.052  11.342   4.223
28027W        W96390  20.663  14.224  11.032
28028W        W96391   2.856  36.037   0.859
28029W        W96392  38.008  20.753  11.595
28030W        W96393  41.300  35.477   2.790
28031W        W96394  14.610   9.152   1.227
28032W        W96395  27.614  38.356  11.890
28033W        W96396  20.066  27.554  14.015
28034W        W96397  15.746  20.244   2.719
28035W        W96398  33.033  12.328   0.736
28036W        W96399  35.511  39.021  10.553
28037W        W96400  42.006  18.164  14.391
28038W        W96401  11.196  25.972   1.868
28039W        W96402  34.949  12.224   1.225
28040W        W96403   5.709  40.001   3.332
28041W        W96404  33.553  24.012  10.619
28042W        W96405  39.021  28.182  11.379
28043W        W96406   4.858   1.457   4.285
28044W        W96407  15.127  41.408   0.431
28045W        W96408   2.334  19.663  10.534
28046W        W96409  39.846   6.796   4.231
28047W        W96410   3.397  40.934  12.449
28048W        W96411  26.009  11.259  11.405
28049W        W96412   5.318  27.134   3.184
28050W        W96413  42.839   3.350   2.824
28051W        W96414  32.502   7.252   2.865
28052W        W96415  43.018  17.655   1.801
28053W        W96416   6.910  43.809   3.163
28054W        W96417  17.600  41.454  11.075
28055W        W96418  12.845   4.814   0.881
28056W        W96419  26.109   7.730  13.383
28057W        W96420  14.254  29.508  10.644
28058W        W96421  26.484  26.088  14.477
28059W        W96422  31.951  43.270  10.896
28060W        W96423  29.124  44.789  14.322
28061W        W96424   1.423  24.054   1.451
28062W        W96425  43.944  24.052  13.449
28063W        W96426  29.089  43.467   3.687
28064W        W96427  11.167   2.376   3.707
28065W        W96428  39.515  43.481   3.842
28066W        W96429  37.069  27.606   3.195
28067W        W96430  16.785  26.605  12.964
28068W        W96431  12.321  27.666  11.009
28069W        W96432  14.664  32.495  12.878
28070W        W96433  26.489  42.973   2.265
28071W        W96434   6.340   3.831  14.829
28072W        W96435  10.225   5.919  12.356
28073W        W96436   5.918   8.826  11.099
28074W        W96437  13.663  14.182  14.871
28075W        W96438  26.008  13.741   0.850
28076W        W96439  34.572  18.734  13.445
28077W        W96440  26.121  35.507   1.260
28078W        W96441  37.363  27.631   2.253
28079W        W96442  20.757   5.203   1.301
28080W        W96443  22.019  25.644  14.289
28081W        W96444  32.105  34.023  12.506
28082W        W96445  24.064  27.447  14.511
28083W        W96446  28.098  10.700   0.396
28084W        W96447  22.678  40.965  10.641
28085W        W96448  38.068  28.184   3.822
28086W        W96449  20.552  17.780   0.758
28087W        W96450  38.403  27.643   4.125
28088W        W96451  31.517   2.265   9.962
28089W        W96452   0.815   2.899   4.713
28090W        W96453  12.665   5.304   3.710
28091W        W96454  29.578  34.584   2.241
28092W        W96455   0.762   3.413  14.428
28093W        W96456  34.032  13.312  11.938
28094W        W96457  10.141   6.359  11.031
28095W        W96458   2.258  21.686   3.207
28096W        W96459  29.670  11.288  13.836
28097W        W96460   8.858   6.682   4.130
28098W        W96461  43.993  12.170   0.249
28099W        W96462   2.938   5.736   4.269
28100W        W96463  36.081   6.185  14.309
28101W        W96464  41.849  44.756  12.403
28102W        W96465   1.921   7.300  11.521
28103W        W96466  13.615  14.161   1.238
28104W        W96467  19.728  16.748   1.718
28105W        W96468  25.193  25.700  11.940
28106W        W96469   9.378  10.361  12.494
28107W        W96470   2.471  29.500  10.508
28108W        W96471  41.529  27.009   4.148
28109W        W96472  29.077  39.497   0.281
28110W        W96473  11.220  15.169   3.763
28111W        W96474  16.118  42.502  14.892
28112W        W96475  17.712  29.646  12.825
28113W        W96476   3.370  44.477  11.998
28114W        W96477  10.815  30.444  12.858
28115W        W96478   5.840  27.459   1.345
28116W        W96479  26.642  39.548   3.239
28117W        W96480  43.512  18.268   4.752
28118W        W96481  28.947  33.991  11.112
28119W        W96482   9.673   7.793  11.075
28120W        W96483  31.033  15.737  10.942
28121W        W96484   7.911   5.389  11.435
28122W        W96485  35.372   1.470  11.010
28123W        W96486  29.100  42.864  12.960
28124W        W96487  27.559  33.586  13.399
28125W        W96488  36.379  16.103  12.994
28126W        W96489  33.415  28.064  12.918
28127W        W96490  24.684  25.051   1.236
28128W        W96491  41.348  36.948  10.513
28129W        W96492  13.800  39.405  13.045
28130W        W96493   0.958  17.675   2.684
28131W        W96494   8.823  19.168   2.860
28132W        W96495   6.809  31.058  14.792
28133W        W96496  35.925  28.493   2.360
28134W        W96497  30.932  37.397  10.642
28135W        W96498  24.124  33.883  10.957
28136W        W96499  37.506   4.401   2.668
28137W        W96500  37.954  38.397  13.940
28138W        W96501  27.596   0.881   4.793
28139W        W96502   1.325  11.773  12.926
28140W        W96503   0.761  32.111   3.811
28141W        W96504   5.868  14.794  10.969
28142W        W96505  30.572  31.505   3.272
28143W        W96506  31.025  42.406  12.540
28144W        W96507   1.293  37.336   2.289
28145W        W96508  32.934  27.495  11.600
28146W        W96509   8.327  33.883  10.487
28147W        W96510   0.262   1.350   2.850
28148W        W96511  13.743  11.336  11.047
28149W        W96512  35.518  10.223  12.427
28150W        W96513  16.244  31.137   4.354
28151W        W96514   2.890  19.252  13.870
28152W        W96515  24.614  44.912  10.997
28153W        W96516  16.657  42.936  14.411
28154W        W96517  24.180  41.342   1.806
28155W        W96518  11.859   1.940  14.929
28156W        W96519  14.592  37.945   0.456
28157W        W96520  32.110  37.942  13.375
28158W        W96521  33.480  19.049  12.462
28159W        W96522  38.997   8.750  12.356
28160W        W96523  39.910  25.977   0.403
28161W        W96524   8.670  41.522  14.474
28162W        W96525  36.488   6.837   1.778
28163W        W96526  36.496  39.842   3.360
28164W        W96527  34.002  37.945  11.044
28165W        W96528  15.772  27.108  10.018
28166W        W96529   3.934  37.351  14.840
28167W        W96530  20.638  22.671   2.720
28168W        W96531  44.989  37.454   5.202
28169W        W96532  40.929  14.588   1.929
28170W        W96533  19.208   2.402   4.762
28171W        W96534  23.171  27.170  11.474
28172W        W96535  41.496  22.015   3.261
28173W        W96536  36.024  27.063  12.954
28174W        W96537  28.001  33.996   3.162
28175W        W96538  17.168  33.124   4.608
28176W        W96539  33.003   0.319  10.096
28177W        W96540  36.856  36.890   2.192
28178W        W96541  36.540  39.813   4.630
28179W        W96542  25.173   8.898  10.546
28180W        W96543  11.226  42.350   0.904
28181W        W96544  33.499  41.802   1.800
28182W        W96545  30.945  29.081  11.114
28183W        W96546   3.277   7.297  13.800
28184W        W96547  33.965  14.130  11.486
28185W        W96548  13.326  16.075  13.310
28186W        W96549   9.850  31.601  11.098
28187W        W96550  21.592  17.679  12.354
28188W        W96551  12.744  34.950  13.860
28189W        W96552  17.128  40.820   2.733
28190W        W96553  22.057  36.393  10.429
28191W        W96554  29.972  41.826   2.253
28192W        W96555  20.768  29.093  11.971
28193W        W96556  26.133  37.904  12.074
28194W        W96557  40.903  21.605   1.435
28195W        W96558   7.317  42.866  11.511
28196W        W96559  25.194  39.893  12.428
28197W        W96560  40.472  35.004   3.654
28198W        W96561   3.267  37.520   1.850
28199W        W96562  27.965   3.874  10.443
28200W        W96563  29.543  16.733  14.500
28201W        W96564   7.417  22.055   2.731
28202W        W96565  40.340  42.778   3.764
28203W        W96566  35.555  37.082  13.525
28204W        W96567   5.705  14.804  12.850
28205W        W96568  19.585  11.827   5.148
28206W        W96569  41.318   9.149   0.769
28207W        W96570  14.627  24.037  10.564
28208W        W96571   7.295  24.111   1.287
28209W        W96572  26.052  15.668   4.761
28210W        W96573  24.064   6.344   1.272
28211W        W96574   7.882  15.110  11.463
28212W        W96575   0.829  33.966  12.946
28213W        W96576  31.935   6.922   2.323
28214W        W96577  29.072   0.443   1.400
28215W        W96578   3.398  35.972  12.974
28216W        W96579  29.106  30.571   2.761
28217W        W96580  14.815  28.648  12.982
28218W        W96581   4.736  35.507   2.779
28219W        W96582  13.761  40.823   3.180
28220W        W96583  36.522  35.921   2.678
28221W        W96584  14.304  39.425   2.857
28222W        W96585  25.599  22.558   3.191
28223W        W96586  11.790  26.680   5.291
28224W        W96587  33.453  16.203   1.765
28225W        W96588  44.264  12.299  11.594
28226W        W96589  22.532  14.217   4.680
28227W        W96590  19.618  14.588  13.445
28228W        W96591  19.132  20.262  10.524
28229W        W96592  31.929   8.259   1.805
28230W        W96593   3.883   7.217   2.811
28231W        W96594  26.529  17.562  12.975
28232W        W96595  10.287  27.033  12.413
28233W        W96596  34.520  11.182  14.411
28234W        W96597  32.936  19.719   2.699
28235W        W96598   6.774  27.468   4.346
28236W        W96599  38.921  15.280   4.768
28237W        W96600  39.038  37.047   4.128
28238W        W96601  18.704  36.076   3.673
28239W        W96602  37.360  15.119  13.360
28240W        W96603  29.627   2.815  14.766
28241W        W96604  16.148   0.434   0.843
28242W        W96605  13.810  29.933   1.735
28243W        W96606   9.660  42.819   3.188
28244W        W96607  36.841   2.416  13.313
28245W        W96608   0.470  38.355   3.372
28246W        W96609  10.289   9.672   4.211
28247W        W96610  44.832   7.832   1.365
28248W        W96611  37.020  13.289   4.623
28249W        W96612  26.113  32.547   4.672
28250W        W96613  11.187  42.942   0.352
28251W        W96614  37.944  34.027  10.471
28252W        W96615  36.997  40.921   1.784
28253W        W96616  20.524   3.909  14.760
28254W        W96617  24.561  17.749  14.827
28255W        W96618  17.694  20.565  12.897
28256W        W96619  39.387  36.372   0.370
28257W        W96620  13.120  14.699   2.275
28258W        W96621  19.167  18.740  10.987
28259W        W96622  21.662  36.908   1.745
28260W        W96623  39.553  20.064  11.888
28261W        W96624  19.586  26.194  12.898
28262W        W96625  43.442  44.296  13.858
28263W        W96626  10.348  23.700  14.869
28264W        W96627  33.395  43.413  14.346
28265W        W96628  28.467  32.910  11.448
28266W        W96629  16.643  37.570  14.785
28267W        W96630  26.134  16.121  11.508
28268W        W96631   8.705  20.234   1.803
28269W        W96632  10.209  36.416  14.929
28270W        W96633  29.526  13.789   3.826
28271W        W96634  24.051   7.349   4.775
28272W        W96635  42.009  30.022  14.464
28273W        W96636   3.798  10.687   4.226
28274W        W96637   0.470  30.589  13.525
28275W        W96638  20.685  30.079  11.466
28276W        W96639  31.606  30.129  12.456
28277W        W96640   8.190  24.033  13.010
28278W        W96641  41.322  29.616   5.151
28279W        W96642   6.803   3.270   1.276
28280W        W96643  23.020  44.908   2.390
28281W        W96644  25.602  19.073  13.476
28282W        W96645  13.706   6.307   3.842
28283W        W96646  18.185   9.359  13.317
28284W        W96647   6.751  21.151  12.368
28285W        W96648  44.376  30.140  11.885
28286W        W96649  35.889  43.298  12.935
28287W        W96650  37.517  10.792  11.388
28288W        W96651  38.043  32.392   2.391
28289W        W96652  26.633  14.133   4.728
28290W        W96653  23.234  29.101   4.686
28291W        W96654  32.614  41.895   1.698
28292W        W96655  17.221  36.061  11.511
28293W        W96656  33.513  24.165   4.668
28294W        W96657  14.808  17.618   0.931
28295W        W96658  11.207  38.465  13.963
28296W        W96659  15.791   3.358  10.637
28297W        W96660  42.949  27.533   0.966
28298W        W96661  42.286  23.197   3.377
28299W        W96662   2.314  28.067   3.375
28300W        W96663  28.076   5.344   3.746
28301W        W96664  31.602  18.744  12.467
28302W        W96665  41.826  21.558  13.415
28303W        W96666  24.721  15.780  12.897
28304W        W96667  40.809  34.041   4.333
28305W        W96668  23.601  10.198   4.730
28306W        W96669  26.598  16.673   0.924
28307W        W96670   1.789  14.324  12.442
28308W        W96671  13.172  37.494  12.950
28309W        W96672  26.070  31.030  10.981
28310W        W96673  28.666  32.488  12.569
28311W        W96674  32.014  13.171  14.029
28312W        W96675  15.259  15.694   2.676
28313W        W96676  26.989  29.967  12.049
28314W        W96677  33.922  28.007  11.085
28315W        W96678  11.211   2.944  12.869
28316W        W96679  31.457  10.173   4.272
28317W        W96680  25.688  19.224   3.298
28318W        W96681  28.167   1.908  12.877
28319W        W96682  27.952   8.307   2.400
28320W        W96683  14.786  32.571   2.343
28321W        W96684  13.233   2.318  14.278
28322W        W96685  44.405   2.366   0.425
28323W        W96686  39.955   6.337  14.384
28324W        W96687  20.660  41.916  12.460
28325W        W96688  29.519  11.795   0.290
28326W        W96689  14.235  34.965  12.018
28327W        W96690  33.935  33.066   0.266
28328W        W96691  28.636  10.799   4.206
28329W        W96692   1.953  41.947   0.468
28330W        W96693  16.072  11.298   3.672
28331W        W96694   9.846  14.752  10.613
28332W        W96695   7.236  32.982  13.025
28333W        W96696  38.044  28.960   2.188
28334W        W96697  34.877  43.835   0.292
28335W        W96698  13.224  38.882   2.816
28336W        W96699  42.840  15.174  14.367
28337W        W96700  24.580   7.673   2.341
28338W        W96701  34.045   7.700   0.458
28339W        W96702  31.626   4.698  12.527
28340W        W96703   1.865  33.418  13.991
28341W        W96704  14.818  20.046  14.352
28342W        W96705  36.387  13.316  10.079
28343W        W96706  41.509   9.697   1.857
28344W        W96707  39.009  19.733   3.357
28345W        W96708  25.138  28.596   3.217
28346W        W96709  27.967  41.297  10.480
28347W        W96710  38.555  44.338  10.903
28348W        W96711  41.823  42.834  11.589
28349W        W96712  43.848  32.024  14.343
28350W        W96713  32.624  14.198  11.124
28351W        W96714  13.112   4.278  10.489
28352W        W96715  43.950  22.227   1.243
28353W        W96716  15.244  44.815  11.942
28354W        W96717  33.081  37.909  14.781
28355W        W96718  15.608  31.089  13.979
28356W        W96719  16.579  11.370   1.216
28357W        W96720  20.229  30.511  11.559
28358W        W96721   9.692  28.164  11.570
28359W        W96722  42.906  40.516   1.367
28360W        W96723  37.840  12.815  13.427
28361W        W96724   5.362  44.353   2.291
28362W        W96725  29.592  19.150   1.381
28363W        W96726  32.571  15.275  12.930
28364W        W96727   1.468  21.737   0.369
28365W        W96728  40.028   8.784  12.435
28366W        W96729   0.907  36.948   9.921
28367W        W96730   9.754  14.644   2.382
28368W        W96731  23.568  14.761   0.767
28369W        W96732  13.323   1.482  11.519
28370W        W96733  17.771  30.136  10.483
28371W        W96734   2.766  34.870  11.515
28372W        W96735  28.184   1.921  10.065
28373W        W96736  27.489  37.354   0.325
28374W        W96737  44.949  42.951  13.892
28375W        W96738  28.164   5.225   4.181
28376W        W96739  41.806  17.706   0.825
28377W        W96740  29.431  35.976  14.881
28378W        W96741  13.263  42.443  12.095
28379W        W96742  22.646  39.868  13.335
28380W        W96743  16.112  13.719   2.280
28381W        W96744  14.119  33.413  13.945
28382W        W96745  32.456  33.551   2.327
28383W        W96746  21.175  32.927   1.756
28384W        W96747  43.468  23.672   1.722
28385W        W96748  24.088  35.475  14.016
28386W        W96749  37.993   3.890  13.363
28387W        W96750  37.463  43.297  14.999
28388W        W96751  15.783   9.845   1.406
28389W        W96752  26.126  10.176  10.564
28390W        W96753  12.216   7.886   0.419
28391W        W96754   3.822   1.298   2.835
28392W        W96755   4.890  12.198   4.712
28393W        W96756  29.922  13.796  14.957
28394W        W96757  37.940   7.708  10.520
28395W        W96758  35.038  35.530   1.345
28396W        W96759  11.300  42.459  11.475
28397W        W96760  37.417  26.049   3.655
28398W        W96761  22.236  14.303  12.505
28399W        W96762  24.697  36.374  11.104
28400W        W96763   3.917  11.273   0.340
28401W        W96764   1.978  40.911   1.325
28402W        W96765  37.381  35.956  12.425
28403W        W96766  14.117  31.896   4.757
28404W        W96767  43.426   9.196   3.691
28405W        W96768  37.346  10.152  12.095
28406W        W96769  38.866   7.376  14.291
28407W        W96770   3.402  43.998  11.908
28408W        W96771   3.356  18.737   0.907
28409W        W96772  36.030   9.742  10.461
28410W        W96773  29.093  14.641   3.801
28411W        W96774  11.236   1.372   3.149
28412W        W96775  14.252  19.072   4.187
28413W        W96776  40.459  34.475  14.960
28414W        W96777   9.318  41.348   1.823
28415W        W96778  35.429  32.104  11.986
28416W        W96779   5.271  10.205  13.869
28417W        W96780  20.561   1.370  12.343
28418W        W96781   0.747  44.779  11.859
28419W        W96782  18.580  44.884  12.010
28420W        W96783  42.360  38.517  13.948
28421W        W96784  33.574   3.215  14.292
28422W        W96785  21.714  16.596   2.277
28423W        W96786  18.239  35.888   1.219
28424W        W96787  24.973   3.906   2.890
28425W        W96788  32.140  44.803   1.412
28426W        W96789  36.051  17.129  11.885
28427W        W96790  32.976  35.471  13.373
28428W        W96791  39.954  36.853  10.596
28429W        W96792  31.118  36.426  14.458
28430W        W96793  10.875  13.717   0.791
28431W        W96794  24.116   4.339   1.381
28432W        W96795  17.727  22.196  13.965
28433W        W96796  44.360  32.098   0.417
28434W        W96797  34.019  17.646  11.430
28435W        W96798  39.053  35.051   0.878
28436W        W96799   6.843  24.515   3.799
28437W        W96800  15.763   0.822   3.208
28438W        W96801   8.234  31.625   0.467
28439W        W96802  23.537  27.096  12.869
28440W        W96803  41.894   4.443  11.456
28441W        W96804  26.079  34.924  12.489
28442W        W96805  24.147  26.677  13.856
28443W        W96806  31.408  20.187   0.759
28444W        W96807  35.517  28.607   0.790
28445W        W96808  25.062  23.689   4.759
28446W        W96809   8.717  23.501   2.220
28447W        W96810  39.815  14.129  11.953
28448W        W96811   2.426  35.073   0.322
28449W        W96812   3.441  11.867   2.270
28450W        W96813  19.250  17.207  14.360
28451W        W96814  30.433   3.821  13.537
28452W        W96815  27.999  17.213   2.360
28453W        W96816  36.033  27.022   4.113
28454W        W96817  15.090   7.403   0.426
28455W        W96818  26.521  36.096  11.501
28456W        W96819  16.198   5.809   1.355
28457W        W96820  27.601  16.276  11.049
28458W        W96821  37.419  34.428  11.865
28459W        W96822  34.471  28.475   2.236
28460W        W96823  36.904   8.723  13.472
28461W        W96824  31.043  17.663  11.505
28462W        W96825  23.618  17.771   2.685
28463W        W96826   1.772  30.644   1.835
28464W        W96827  37.357  12.342  11.079
28465W        W96828  36.517  40.318  14.013
28466W        W96829  44.884  39.350   4.830
28467W        W96830   6.329  32.968   0.940
28468W        W96831  41.020  27.193  10.966
28469W        W96832  39.836  14.789  13.358
28470W        W96833   8.734  13.799   4.837
28471W        W96834  44.799  31.016   0.448
28472W        W96835  22.721  22.562   4.237
28473W        W96836  41.296  15.773   4.600
28474W        W96837  32.082  39.329  12.479
28475W        W96838   9.830  43.791   3.741
28476W        W96839  20.090   1.392   4.332
28477W        W96840   4.219  44.870   4.803
28478W        W96841  39.971  33.458   0.925
28479W        W96842   7.793  39.952   3.816
28480W        W96843   2.464  22.253   0.250
28481W        W96844  42.782   2.358  10.427
28482W        W96845  34.040  28.176   0.931
28483W        W96846  27.110   4.219  14.323
28484W        W96847  17.614   7.698  13.829
28485W        W96848  26.651  22.234   2.226
28486W        W96849  34.018   3.878   1.868
28487W        W96850   8.806   8.668   1.275
28488W        W96851  14.594  37.349   1.774
28489W        W96852  16.122  36.426   4.742
28490W        W96853  39.831  28.007  12.077
28491W        W96854  39.484  25.675   4.252
28492W        W96855  15.244  43.337  11.457
28493W        W96856  23.111  31.601   0.381
28494W        W96857  36.026  30.044   2.190
28495W        W96858   2.411   5.397  14.513
28496W        W96859  32.452  22.682   2.878
28497W        W96860   2.870   7.257   0.345
28498W        W96861  21.097   7.799   2.804
28499W        W96862   1.278   9.753   4.663
28500W        W96863  40.923  21.625   2.322
28501W        W96864  23.232  34.942  12.456
28502W        W96865  34.939   1.297   1.864
28503W        W96866  16.114  10.142  13.935
28504W        W96867  27.085  25.504   4.119
28505W        W96868  40.832  30.119  12.029
28506W        W96869  20.048  35.858   4.720
28507W        W96870  25.974  17.639  11.557
28508W        W96871  15.616  11.759   1.255
28509W        W96872  22.149   7.313   2.719
28510W        W96873  43.321  41.462   3.386
28511W        W96874   2.762  12.128   4.308
28512W        W96875   7.774  32.408   2.686
28513W        W96876  44.426   3.860  12.934
28514W        W96877  26.649   1.780  11.596
28515W        W96878  30.916  23.196   0.459
28516W        W96879  22.738  24.041   2.784
28517W        W96880   0.369   7.266   2.344
28518W        W96881  32.073  32.993   2.713
28519W        W96882   7.784  31.004  14.008
28520W        W96883  30.127   1.417  11.398
28521W        W96884   8.328  12.245   1.748
28522W        W96885   0.770  36.474  14.487
28523W        W96886  25.538  12.793   1.935
28524W        W96887  27.045  29.485   0.424
28525W        W96888   5.193   0.317  12.055
28526W        W96889   6.236  38.964   5.320
28527W        W96890  16.686  33.609  14.844
28528W        W96891  17.143  15.153   0.384
28529W        W96892  38.377  34.021  12.860
28530W        W96893  41.026  28.957   0.392
28531W        W96894   0.831   9.298  11.596
28532W        W96895  10.671  37.029  11.989
28533W        W96896  17.556  19.087   3.233
28534W        W96897   8.695   0.925  14.409
28535W        W96898  36.896   0.781   4.239
28536W        W96899  36.898  10.228   1.914
28537W        W96900  32.117  16.139  11.934
28538W        W96901  29.615  35.895   1.869
28539W        W96902   5.226  37.018  10.901
28540W        W96903   2.334  25.542  12.953
28541W        W96904  27.519  36.571   3.663
28542W        W96905  32.503   8.711   0.870
28543W        W96906   6.338   1.937  11.510
28544W        W96907  15.734   4.861   5.228
28545W        W96908   8.715  33.992   3.713
28546W        W96909  20.079  10.765  13.977
28547W        W96910   3.928  33.976  13.435
28548W        W96911  29.922  20.154   4.636
28549W        W96912  25.700  43.398  13.861
28550W        W96913  11.246  21.081   0.261
28551W        W96914  32.142  23.656   0.964
28552W        W96915  43.270   9.336  12.903
28553W        W96916  31.578  29.640  14.466
28554W        W96917   4.809  37.570   5.311
28555W        W96918  38.073  26.492  14.509
28556W        W96919  17.159  38.548  10.567
28557W        W96920  36.054   5.888   0.432
28558W        W96921  28.663  24.622  11.603
28559W        W96922  25.016  16.248  13.009
28560W        W96923  40.340  31.023   2.827
28561W        W96924   0.809  28.646   2.250
28562W        W96925  35.030  13.728  10.477
28563W        W96926  42.791  23.089  12.556
28564W        W96927   8.215   7.706   4.732
28565W        W96928  19.086  19.155  13.943
28566W        W96929  36.485  30.649  11.460
28567W        W96930  23.073  14.224   2.678
28568W        W96931  28.132  44.786  13.976
28569W        W96932  29.487  18.164  10.059
28570W        W96933  40.387  34.944   1.799
28571W        W96934  15.233  17.762   2.743
28572W        W96935   8.874  36.850  12.571
28573W        W96936  13.234  39.022  12.983
28574W        W96937  25.605   2.826   2.371
28575W        W96938  36.377   1.957  12.562
28576W        W96939  41.509  28.118  12.038
28577W        W96940   0.766  41.403   0.356
28578W        W96941  35.921   9.814   0.368
28579W        W96942  13.692  27.122  11.907
28580W        W96943  32.952   3.887  13.900
28581W        W96944  10.790  25.534  13.045
28582W        W96945  29.536  27.665  11.455
28583W        W96946  43.458  27.173  12.538
28584W        W96947  19.696  32.394  14.836
28585W        W96948  28.975   4.443  14.767
28586W        W96949   3.368  43.461   2.757
28587W        W96950  43.343   7.828   3.848
28588W        W96951   4.450  17.273   3.741
28589W        W96952  23.552  10.873   2.304
28590W        W96953  13.107  13.652  13.453
28591W        W96954  37.889  35.045  13.530
28592W        W96955  42.829  10.801   3.286
28593W        W96956  32.135  43.783   4.614
28594W        W96957   1.468   1.913   3.285
28595W        W96958  31.941  26.065   0.341
28596W        W96959  18.202  14.754  12.444
28597W        W96960  27.122  14.226  11.408
28598W        W96961   6.214  35.949  13.936
28599W        W96962  19.059   5.778  10.566
28600W        W96963  26.959  40.414   0.252
28601W        W96964  20.178  37.569  12.947
28602W        W96965  14.668  19.749  12.867
28603W        W96966  39.892  16.709  14.305
28604W        W96967  19.562   7.680  12.519
28605W        W96968   6.303  13.246   2.752
28606W        W96969  15.724  12.266   0.918
28607W        W96970  16.729  42.379  13.318
28608W        W96971  35.568  34.534   0.264
28609W        W96972  33.555  24.130  14.292
28610W        W96973  15.620  12.298   5.226
28611W        W96974  22.701  15.280   1.312
28612W        W96975  12.206   8.334   4.308
28613W        W96976  39.997  12.816   2.254
28614W        W96977  17.776  41.820  11.081
28615W        W96978  30.075   5.882   1.451
28616W        W96979   4.228  22.664   3.180
28617W        W96980  39.495   7.250   2.277
28618W        W96981  16.751   2.896  11.968
28619W        W96982  25.021  23.157   4.670
28620W        W96983  32.445  18.700  10.520
28621W        W96984  34.431  41.446   0.748
28622W        W96985  29.553   4.944   3.725
28623W        W96986  36.846  26.499  10.460
28624W        W96987   9.251   1.921   2.796
28625W        W96988   7.665  20.600   0.344
28626W        W96989  28.647  23.641  14.794
28627W        W96990  20.048  13.321   4.160
28628W        W96991  38.438  34.913   0.748
28629W        W96992  20.680   0.813  10.904
28630W        W96993  21.112  26.671  11.891
28631W        W96994   7.273  20.595  14.767
28632W        W96995  42.924  40.036  14.492
28633W        W96996   5.391  36.357   1.870
28634W        W96997  14.239  22.570  13.521
28635W        W96998  43.375   7.712   0.959
28636W        W96999  14.740  36.942  11.875
28637W        W97000  43.300  10.257  14.932
28638W        W97001  27.544  14.328   5.148
28639W        W97002  20.127  36.986  12.031
28640W        W97003   8.838  19.077   3.223
28641W        W97004  14.623  37.388  11.017
28642W        W97005   3.239  40.943  11.949
28643W        W97006  32.408  31.151  12.454
28644W        W97007   8.284   9.865  10.519
28645W        W97008   9.774  42.998   4.750
28646W        W97009  10.213  38.048   3.337
28647W        W97010  28.096  10.813  12.913
28648W        W97011  21.068   6.679   1.913
28649W        W97012  12.249  42.360  12.961
28650W        W97013  40.916  20.758  11.039
28651W        W97014   4.913   4.274   2.282
28652W        W97015  10.343  18.777   3.188
28653W        W97016  12.708  24.144   1.267
28654W        W97017  15.114  20.208  13.348
28655W        W97018  26.002  41.452   3.838
28656W        W97019   8.717  21.518  11.093
28657W        W97020  31.122   6.719  11.945
28658W        W97021  18.571  44.304   1.363
28659W        W97022  27.976   7.682  10.621
28660W        W97023   6.858   7.840  13.845
28661W        W97024  30.957  30.517   3.326
28662W        W97025  41.416  31.597   3.756
28663W        W97026  24.199  39.820   3.736
28664W        W97027  31.605  35.071   3.807
28665W        W97028  27.058  21.032   9.950
28666W        W97029  37.849  22.565   3.638
28667W        W97030  32.898  35.926  14.343
28668W        W97031   7.796  16.129  10.923
28669W        W97032  23.179  29.509   2.838
28670W        W97033  19.601  11.621   4.226
28671W        W97034  23.049  12.137  14.885
28672W        W97035  24.563  11.138  10.585
28673W        W97036  33.469  36.550   1.842
28674W        W97037   7.754  16.773   1.303
28675W        W97038  33.043  41.906   0.269
28676W        W97039  20.572  29.503   3.870
28677W        W97040  37.908  26.612  12.393
28678W        W97041   6.850  11.684  12.368
28679W        W97042  32.031  27.581   4.274
28680W        W97043  21.683  32.525   2.325
28681W        W97044  41.860   7.850  11.404
28682W        W97045   2.425  27.109   0.476
28683W        W97046  28.614  31.966   4.687
28684W        W97047  13.664   3.944   1.249
28685W        W97048  18.190  20.247  12.825
28686W        W97049  16.657  22.628   0.877
28687W        W97050  17.631  33.906   4.735
28688W        W97051  13.690  12.852   4.257
28689W        W97052  27.649  36.939   4.831
28690W        W97053  15.798   6.797   1.840
28691W        W97054  10.677  38.517   4.652
28692W        W97055  39.433  41.022  12.073
28693W        W97056  28.677  14.156  13.924
28694W        W97057  29.129   2.453   1.375
28695W        W97058  26.002  29.610  11.972
28696W        W97059  21.066  16.725   3.780
28697W        W97060  34.096  43.806   5.303
28698W        W97061  38.947   9.206   2.790
28699W        W97062  43.299  27.503  13.498
28700W        W97063  38.924  39.367   2.792
28701W        W97064   7.176  16.570   2.344
28702W        W97065  21.062  22.562  11.983
28703W        W97066  32.128  28.674  12.463
28704W        W97067  24.163   9.341   3.837
28705W        W97068  43.959  18.062  12.409
28706W        W97069  11.683  12.180  11.997
28707W        W97070  19.192  43.342   9.974
28708W        W97071  25.700  29.619   2.882
28709W        W97072  39.536  13.302  13.532
28710W        W97073   8.328  35.045   3.315
28711W        W97074  14.774  44.771  12.403
28712W        W97075   4.328  17.655  11.063
28713W        W97076  24.130  13.118   1.382
28714W        W97077   7.867   1.890   5.223
28715W        W97078  42.979  25.152   3.339
28716W        W97079  18.270  11.712  14.481
28717W        W97080  19.221   1.326   0.888
28718W        W97081  18.071  15.632  12.960
28719W        W97082  29.040  22.211  12.383
28720W        W97083  41.878   5.832  14.390
28721W        W97084   6.841  25.513  10.593
28722W        W97085  15.678  39.459  11.495
28723W        W97086  28.023  14.168   3.754
28724W        W97087  15.627  39.494  13.336
28725W        W97088  15.799  17.748   4.315
28726W        W97089  21.729  24.981   4.672
28727W        W97090  25.633  27.197   1.241
28728W        W97091  38.546  17.576  13.842
28729W        W97092  37.974  29.553  12.429
28730W        W97093  18.667  33.966  11.067
28731W        W97094   9.338   5.822   4.724
28732W        W97095  32.506  18.689   3.288
28733W        W97096  35.053   0.823  10.612
28734W        W97097  32.991  14.726   1.798
28735W        W97098  17.171  23.515  14.493
28736W        W97099   6.197  18.747  13.443
28737W        W97100  21.259  34.534  10.960
28738W        W97101  43.833  21.557  14.961
28739W        W97102  28.090  35.581   4.759
28740W        W97103  18.140   9.860   3.711
28741W        W97104  38.424  37.909  10.607
28742W        W97105  15.713   8.719   4.703
28743W        W97106  14.612  17.701   1.306
28744W        W97107  24.084  37.034   2.375
28745W        W97108  43.918  36.973   4.813
28746W        W97109   5.271  34.471   0.906
28747W        W97110   2.771   5.296   3.308
28748W        W97111  34.881  10.258   0.917
28749W        W97112   8.815  24.055  14.963
28750W        W97113  30.153  35.563   4.669
28751W        W97114   9.820   1.295   4.632
28752W        W97115  23.494   2.248   4.243
28753W        W97116   3.391  44.981   2.720
28754W        W97117  26.515  13.827  10.594
28755W        W97118  43.975  10.845   1.723
28756W        W97119  33.126  44.960   3.203
28757W        W97120  25.532  27.127   4.136
28758W        W97121  37.857  41.439   4.712
28759W        W97122  19.578  19.044   1.334
28760W        W97123  36.050   4.347   0.428
28761W        W97124   5.264  14.271  13.888
28762W        W97125  10.220  17.086   2.406
28763W        W97126  22.589   9.276   0.349
28764W        W97127  27.087  15.216   2.850
28765W        W97128   4.396  39.320   2.802
28766W        W97129  38.011   7.261   5.116
28767W        W97130  17.706  20.541   0.419
28768W        W97131  14.822  21.099  14.356
28769W        W97132   8.803  32.627   3.831
28770W        W97133  40.863  38.569  12.842
28771W        W97134   6.737   7.731   4.745
28772W        W97135   5.833  28.161   2.219
28773W        W97136  32.949  10.871  14.442
28774W        W97137  29.571  22.155  11.403
28775W        W97138  39.414  40.524  11.973
28776W        W97139   7.862  38.496  14.344
28777W        W97140  26.012   9.749  13.003
28778W        W97141  19.196   2.935  12.013
28779W        W97142  17.611  11.339  10.448
28780W        W97143  42.931   9.255   3.685
28781W        W97144  35.858   8.797  10.482
28782W        W97145  22.620  21.135   1.302
28783W        W97146  18.204   8.806   2.809
28784W        W97147   0.338   6.308  11.908
28785W        W97148   6.320   2.437   2.890
28786W        W97149  29.108   3.273  12.022
28787W        W97150  31.538  30.079  14.784
28788W        W97151  15.814  37.576  10.512
28789W        W97152  29.088   7.793   3.312
28790W        W97153  35.394  26.476  13.458
28791W        W97154  13.729  41.489   0.805
28792W        W97155  19.041  27.060  13.904
28793W        W97156  20.199  28.640   4.737
28794W        W97157  44.006   3.946  10.530
28795W        W97158  44.500  39.979   0.267
28796W        W97159  28.999  44.842   0.928
28797W        W97160   1.807  33.495  11.581
28798W        W97161   8.873  13.138  10.413
28799W        W97162   0.858  30.556  12.578
28800W        W97163  11.330  10.852  12.834
28801W        W97164  17.748   0.901   2.341
28802W        W97165   9.297  15.755  10.553
28803W        W97166  27.616  17.674   1.398
28804W        W97167  15.090  12.844   0.276
28805W        W97168  20.650  23.136  11.122
28806W        W97169  33.919  29.547  13.992
28807W        W97170   6.197  18.604   0.916
28808W        W97171   8.398   2.823   4.195
28809W        W97172  18.558   6.290   1.912
28810W        W97173   0.252   3.768  11.030
28811W        W97174  31.115  12.149   4.633
28812W        W97175  26.969  42.403   1.778
28813W        W97176  37.007  25.062  11.127
28814W        W97177  25.122  10.198  13.378
28815W        W97178  25.628  27.674   4.796
28816W        W97179   6.415  31.603  11.927
28817W        W97180  12.771   3.375  10.054
28818W        W97181  26.467  17.224  14.993
28819W        W97182  37.364  20.547   0.896
28820W        W97183   1.276  42.499  10.992
28821W        W97184  34.971   9.709  11.125
28822W        W97185   1.419  39.959  13.029
28823W        W97186  34.572  28.009  12.920
28824W        W97187  22.638  20.201   2.821
28825W        W97188  39.922  27.175   2.372
28826W        W97189  40.326  24.624  12.050
28827W        W97190  39.511  23.555   5.231
28828W        W97191  37.443  23.490   3.231
28829W        W97192  11.835  12.831   5.107
28830W        W97193  32.496  35.475   0.477
28831W        W97194  24.187  27.688   0.401
28832W        W97195  15.688  37.849  12.442
28833W        W97196  41.321  38.911   2.812
28834W        W97197  43.323  20.184   0.867
28835W        W97198  31.509  28.040  10.594
28836W        W97199   5.819  36.069  10.988
28837W        W97200  44.482  27.684   0.861
28838W        W97201  24.198  38.997  14.459
28839W        W97202  26.527  30.923  10.500
28840W        W97203  33.909  28.106  13.456
28841W        W97204  15.715  14.783   5.134
28842W        W97205   2.426  43.780  11.974
28843W        W97206   4.832   1.398  12.881
28844W        W97207  35.093  29.669   0.452
28845W        W97208  31.103  27.669   2.216
28846W        W97209  22.091  11.745  14.434
28847W        W97210  18.125  44.259   4.766
28848W        W97211  44.385  10.851   3.836
28849W        W97212  27.481  15.195   3.711
28850W        W97213  42.925  14.605  11.430
28851W        W97214  41.531   5.932  14.512
28852W        W97215  39.912   8.711   2.669
28853W        W97216  21.198   4.914  13.443
28854W        W97217  22.191  14.211  14.946
28855W        W97218  36.373   1.373  12.508
28856W        W97219  19.222   3.441   2.244
28857W        W97220  13.603  30.414   4.681
28858W        W97221  22.699   6.294   4.167
28859W        W97222  23.033  18.787   1.382
28860W        W97223  14.151   3.263   4.693
28861W        W97224  18.750  35.430   3.241
28862W        W97225  16.241   2.229  14.288
28863W        W97226  44.400  25.052  13.386
28864W        W97227  23.639  28.495   1.232
28865W        W97228  28.089   4.839   0.877
28866W        W97229  13.716  29.053  14.824
28867W        W97230  20.647  18.658   3.344
28868W        W97231  20.171  11.265   2.211
28869W        W97232   8.178  32.030   2.309
28870W        W97233  39.928  21.059  13.938
28871W        W97234   8.253  23.657   4.808
28872W        W97235  35.371  12.158   0.806
28873W        W97236  44.900  20.709  11.021
28874W        W97237  18.569  41.942   1.417
28875W        W97238  15.296  44.953  12.936
28876W        W97239  12.273  44.812  10.973
28877W        W97240  19.200  43.505  14.470
28878W        W97241  27.521  25.649  10.587
28879W        W97242  19.777  38.872   1.763
28880W        W97243  37.545   4.945   0.733
28881W        W97244  21.141  33.925   0.286
28882W        W97245  44.866   4.735  11.912
28883W        W97246  14.104  39.905   4.306
28884W        W97247  32.583  27.654   4.618
28885W        W97248  11.691  20.641   2.238
28886W        W97249  35.903  40.913   2.192
28887W        W97250  42.784   8.803  14.497
28888W        W97251  10.763  36.366  13.817
28889W        W97252  11.365   0.883   4.340
28890W        W97253   4.390  42.931   0.859
28891W        W97254  31.615  34.496   1.329
28892W        W97255  36.505  35.363  14.350
28893W        W97256  16.680  17.088   0.868
28894W        W97257   0.342  28.947  12.953
28895W        W97258  32.603  11.266  14.411
28896W        W97259   7.742  31.551   0.267
28897W        W97260  26.659   4.371   2.880
28898W        W97261  39.015   2.854  13.830
28899W        W97262   3.785  25.175  10.015
28900W        W97263   5.814  16.615  14.761
28901W        W97264  14.787  28.141   1.381
28902W        W97265  34.871  18.687  14.448
28903W        W97266  21.599  29.934   3.243
28904W        W97267  44.983  21.551   3.740
28905W        W97268  25.531  38.006  12.424
28906W        W97269  28.100   9.803   3.196
28907W        W97270  44.369  35.003  12.999
28908W        W97271   5.880  38.843   0.464
28909W        W97272  25.126  38.904   1.286
28910W        W97273  40.001  40.958  12.504
28911W        W97274  16.700  29.976  14.832
28912W        W97275  15.192  29.101   3.272
28913W        W97276  32.460  24.621  14.353
28914W        W97277  23.588  14.330  13.365
28915W        W97278  37.408   8.258   4.655
28916W        W97279  36.878  30.071  14.018
28917W        W97280  32.534  11.814   3.806
28918W        W97281  21.150  24.148   5.262
28919W        W97282  16.087  16.280  10.428
28920W        W97283  38.515  35.444   0.250
28921W        W97284  39.453  43.967  11.483
28922W        W97285  18.545   0.404  12.969
28923W        W97286   6.309  26.547   4.176
28924W        W97287  44.840  25.031   4.824
28925W        W97288   2.942  22.231   2.765
28926W        W97289  25.642  34.029   0.316
28927W        W97290  39.369  42.308   1.798
28928W        W97291  21.095   5.918   4.270
28929W        W97292   2.950  28.443   4.233
28930W        W97293  23.500  29.138  11.102
28931W        W97294   0.463   6.812  11.576
28932W        W97295  21.228  41.946   1.232
28933W        W97296  19.676  31.924  13.908
28934W        W97297  15.177   2.388  13.529
28935W        W97298   0.883  44.352   1.296
28936W        W97299   4.877   8.225   1.378
28937W        W97300  20.696  32.094  14.351
28938W        W97301   4.842  11.646   5.195
28939W        W97302   1.812  20.547   2.391
28940W        W97303  20.259  27.107   3.183
28941W        W97304  19.583  14.789  12.510
28942W        W97305  20.713  22.657  12.996
28943W        W97306  27.639  32.888  12.506
28944W        W97307   1.445   1.443   1.741
28945W        W97308  16.181  15.096  13.867
28946W        W97309  19.277  26.167  11.097
28947W        W97310  17.176  34.459   0.867
28948W        W97311  34.608  12.645  14.319
28949W        W97312  18.209   4.318  14.766
28950W        W97313  22.040  28.089   0.820
28951W        W97314  29.469  29.133   1.384
28952W        W97315  36.992  23.074  10.435
28953W        W97316  22.605  32.539   4.291
28954W        W97317  21.586  34.428  14.882
28955W        W97318  19.708  16.759  12.465
28956W        W97319  29.955  30.155   2.226
28957W        W97320  38.054  12.279   2.300
28958W        W97321  41.532  22.072  13.417
28959W        W97322  10.384  32.903  10.480
28960W        W97323  22.212  14.652   1.795
28961W        W97324  31.634  28.107   5.213
28962W        W97325  30.050  37.487   1.864
28963W        W97326  20.107  19.206  11.109
28964W        W97327   2.367   3.797   2.795
28965W        W97328  31.642  30.529   2.418
28966W        W97329  14.761   2.410  14.408
28967W        W97330  23.525  39.380   0.743
28968W        W97331   3.784  25.709  10.482
28969W        W97332  40.856  22.222   2.264
28970W        W97333  27.043  21.708   0.473
28971W        W97334   6.397  32.490   0.833
28972W        W97335  30.086  20.125   0.903
28973W        W97336  36.481  43.012  13.796
28974W        W97337  18.157   3.303   2.391
28975W        W97338  28.655  34.998   4.819
28976W        W97339  13.649  32.450   1.385
28977W        W97340  25.625  37.833  14.023
28978W        W97341  19.646  20.085  10.421
28979W        W97342   1.935  40.312  11.499
28980W        W97343  28.114  34.897  10.965
28981W        W97344   5.358   8.831   1.359
28982W        W97345  42.785  13.834   3.774
28983W        W97346  22.235  30.143   0.845
28984W        W97347  41.415   3.239   2.332
28985W        W97348   1.797   2.796   1.276
28986W        W97349   4.766  23.087   1.369
28987W        W97350  10.203  14.637   4.668
28988W        W97351  39.381   2.747  10.588
28989W        W97352  36.930  43.309   2.285
28990W        W97353  39.503   6.773  11.456
28991W        W97354  10.239   7.241   3.307
28992W        W97355  38.890  29.499  11.585
28993W        W97356  19.138  39.815  10.912
28994W        W97357   3.901   2.344  11.881
28995W        W97358   9.379   0.808   2.663
28996W        W97359   9.739  20.621   3.274
28997W        W97360  16.708  18.600   4.294
28998W        W97361  10.161  37.534   2.822
28999W        W97362  21.651  40.369   2.254
29000W        W97363  30.595  13.731   3.656
29001W        W97364  21.194   9.677   1.809
29002W        W97365  23.026  35.548  11.875
29003W        W97366  17.575  22.214  14.971
29004W        W97367  10.338   0.978   2.858
29005W        W97368  32.395  20.610  13.965
29006W        W97369  36.542  12.117   4.140
29007W        W97370  22.651  12.809  10.435
29008W        W97371  23.726  39.555   4.238
29009W        W97372  38.051  10.783  13.916
29010W        W97373  13.231   3.284  13.956
29011W        W97374   5.369  28.480   0.875
29012W        W97375  13.630  44.290  10.521
29013W        W97376  29.155  19.256   4.324
29014W        W97377  15.623  19.720  13.322
29015W        W97378  39.353  19.758   2.209
29016W        W97379  38.029   3.359   1.854
29017W        W97380   2.822  43.848  11.374
29018W        W97381  18.608  36.551   1.903
29019W        W97382  10.353   4.388  11.518
29020W        W97383  24.625   5.712  13.938
29021W        W97384   7.412  31.503  11.454
29022W        W97385   8.898  25.968  10.461
29023W        W97386  19.571   8.675   2.327
29024W        W97387  40.306  36.461   2.406
29025W        W97388  34.009  30.150   3.201
29026W        W97389   1.903  34.891  13.063
29027W        W97390  33.964  10.821  13.796
29028W        W97391  22.184  17.207  10.520
29029W        W97392  37.394  35.048   4.300
29030W        W97393  35.417   5.864  12.364
29031W        W97394   2.435  16.663   1.914
29032W        W97395  39.923  15.702  10.423
29033W        W97396  27.539  29.956  12.001
29034W        W97397  12.714  23.118  11.393
29035W        W97398  32.994   4.359   3.719
29036W        W97399  31.976  20.724  14.912
29037W        W97400  26.600  21.710   4.656
29038W        W97401   8.271  44.350   0.475
29039W        W97402  13.674  41.797   2.672
29040W        W97403   9.856  24.034  14.293
29041W        W97404  29.119  41.467  11.440
29042W        W97405  16.179   4.412  10.922
29043W        W97406  10.258  12.150  14.467
29044W        W97407  42.393  39.966   1.369
29045W        W97408  25.588  27.454  11.014
29046W        W97409   9.150  41.864   2.349
29047W        W97410  33.946  42.499   1.843
29048W        W97411  39.049   7.691  13.877
29049W        W97412  28.000  14.817  14.882
29050W        W97413  30.121  32.014  11.034
29051W        W97414  41.020   0.978   4.351
29052W        W97415  17.733   7.222  13.918
29053W        W97416  18.783  30.607   1.849
29054W        W97417  30.105  29.060  12.982
29055W        W97418  21.652  43.289  14.295
29056W        W97419  33.486   4.919  10.593
29057W        W97420  24.023  44.388   1.258
29058W        W97421   4.739  33.402   0.816
29059W        W97422  43.441  17.647  14.831
29060W        W97423   7.893  33.901  14.348
29061W        W97424   8.225  20.208   3.664
29062W        W97425   9.359   9.368  10.604
29063W        W97426   2.412  41.308   3.648
29064W        W97427  44.353  18.247   0.362
29065W        W97428  31.514  12.736   4.763
29066W        W97429  20.708  37.880  12.903
29067W        W97430  43.809  26.968   0.773
29068W        W97431  41.352  36.479  11.014
29069W        W97432  32.951  13.175   3.833
29070W        W97433  20.638  14.638   0.336
29071W        W97434  30.420   8.711   0.318
29072W        W97435   2.964   0.345   3.778
29073W        W97436   5.226  21.137   0.307
29074W        W97437  22.214  15.203   2.678
29075W        W97438  22.008   4.428   4.259
29076W        W97439   3.755  14.319  13.393
29077W        W97440  40.408   3.946   3.205
29078W        W97441  43.860   5.428  13.012
29079W        W97442  26.098  19.592   0.842
29080W        W97443  26.971  40.484  13.949
29081W        W97444  18.187  30.605   1.224
29082W        W97445  18.765  29.477   5.109
29083W        W97446  10.251   0.462  10.533
29084W        W97447  15.684   9.241  12.510
29085W        W97448   7.369  13.829   1.770
29086W        W97449  23.506  27.197   3.222
29087W        W97450  33.994  22.578   2.303
29088W        W97451  13.645  20.592  12.966
29089W        W97452  31.608  13.229  11.602
29090W        W97453  34.986   5.787  11.585
29091W        W97454  41.295  31.084   1.267
29092W        W97455  34.562  21.598   1.891
29093W        W97456  17.558  25.541   1.890
29094W        W97457  41.529  44.756  11.556
29095W        W97458  35.602  12.204  10.451
29096W        W97459  13.137  18.653  14.402
29097W        W97460  16.765  11.812   0.420
29098W        W97461  26.663  28.147   5.250
29099W        W97462   3.215  24.494   4.133
29100W        W97463   1.768  15.794  14.908
29101W        W97464   0.362  35.959   1.715
29102W        W97465  23.646  34.608   3.308
29103W        W97466   0.347  27.949  13.307
29104W        W97467  12.708  33.626  10.553
29105W        W97468  26.150  25.617  13.401
29106W        W97469   7.889   2.281  11.470
29107W        W97470  26.161  15.144  14.410
29108W        W97471  17.208  33.395  11.102
29109W        W97472  30.622  37.041  14.419
29110W        W97473   1.410   0.792  10.452
29111W        W97474  32.125   1.964  10.478
29112W        W97475  44.368  27.980  13.501
29113W        W97476  26.159  39.890  12.862
29114W        W97477   9.747  23.184  13.373
29115W        W97478  29.146  38.422  12.882
29116W        W97479  29.940  17.303   0.794
29117W        W97480  15.101  37.517   3.646
29118W        W97481  37.887  41.937  11.551
29119W        W97482  38.563  44.762   3.181
29120W        W97483  19.580   2.877  10.944
29121W        W97484  27.476  33.392   4.118
29122W        W97485  27.549  10.680   4.835
29123W        W97486  37.556  26.635  14.000
29124W        W97487  11.344  14.603   1.218
29125W        W97488  42.343   0.747   3.840
29126W        W97489  16.227  16.143   3.278
29127W        W97490  31.073   7.294  14.781
29128W        W97491   0.436  44.801  14.274
29129W        W97492  32.061  39.877   2.880
29130W        W97493   9.386  17.246  11.122
29131W        W97494  36.910  32.618   2.852
29132W        W97495   4.449   0.906   1.698
29133W        W97496  27.131  18.067   2.246
29134W        W97497  34.974  29.655   0.920
29135W        W97498  11.766  27.606   2.760
29136W        W97499  33.574  41.828  13.548
29137W        W97500   4.357   5.420  10.544
29138W        W97501  18.114  31.485  10.905
29139W        W97502  33.067  23.092   1.283
29140W        W97503  14.783  11.283  14.347
29141W        W97504  24.200   7.841   3.809
29142W        W97505  38.967  27.957   3.722
29143W        W97506  37.550  36.955  10.959
29144W        W97507  35.389   1.272  11.939
29145W        W97508   6.315   2.835  11.490
29146W        W97509  32.957  29.669  13.003
29147W        W97510  41.306  18.290  12.940
29148W        W97511  11.757  30.557  10.984
29149W        W97512  40.452   0.902   2.856
29150W        W97513  31.952  37.946  13.932
29151W        W97514  14.801  36.001   2.291
29152W        W97515   5.828   8.192  12.561
29153W        W97516  32.989   3.461   3.348
29154W        W97517   4.366   8.228  13.309
29155W        W97518  12.129  31.938  10.559
29156W        W97519   1.747  28.066  13.329
29157W        W97520  32.575  30.483   0.745
29158W        W97521   1.470  19.044  13.795
29159W        W97522  24.992  17.179   4.679
29160W        W97523  12.647  27.608  12.497
29161W        W97524   6.256  43.882  10.469
29162W        W97525  34.087  27.118   3.825
29163W        W97526   4.209  23.610  11.381
29164W        W97527  42.787  20.555   3.703
29165W        W97528   9.204  13.118  11.952
29166W        W97529  29.590  23.166   3.221
29167W        W97530  38.433  22.112   2.278
29168W        W97531  27.177  32.399  14.773
29169W        W97532  29.644  35.381   2.796
29170W        W97533   1.346  17.582  10.480
29171W        W97534  12.241   4.303   4.262
29172W        W97535   2.745  18.776   4.225
29173W        W97536  18.193  14.317  11.402
29174W        W97537  15.619  44.426   3.708
29175W        W97538  40.884  18.650  12.084
29176W        W97539  10.673  35.534  10.582
29177W        W97540  12.645  35.562  11.587
29178W        W97541  19.654  31.123  14.356
29179W        W97542  27.600   5.888  13.307
29180W        W97543  18.167   8.230   1.725
29181W        W97544  43.917  30.005   1.280
29182W        W97545  27.128  33.095  14.318
29183W        W97546   8.788  17.179   0.266
29184W        W97547  15.202  27.171  13.040
29185W        W97548  40.443  29.151   4.135
29186W        W97549   6.331  44.778   0.248
29187W        W97550  18.107  35.495  11.058
29188W        W97551  12.241  11.820  13.019
29189W        W97552  29.980   0.409   4.177
29190W        W97553  26.147  30.135  14.390
29191W        W97554  20.103  41.895   1.805
29192W        W97555  11.791  27.580  12.023
29193W        W97556   9.193  15.279  12.966
29194W        W97557  20.097   2.739   1.788
29195W        W97558  40.501  32.014   0.943
29196W        W97559  19.591  23.511  10.992
29197W        W97560  12.788  26.114   0.419
29198W        W97561  36.994  42.968   4.349
29199W        W97562  44.776  28.011   1.704
29200W        W97563  27.172   9.181   3.802
29201W        W97564  11.140  10.851   4.698
29202W        W97565   0.298   0.854   4.187
29203W        W97566  26.532  20.069  12.094
29204W        W97567  14.732  36.526   4.624
29205W        W97568  34.910   7.344   0.952
29206W        W97569  21.674  27.069   0.309
29207W        W97570  14.215  38.373  14.019
29208W        W97571   7.803  11.796  14.790
29209W        W97572  17.712  34.982   1.295
29210W        W97573  12.716  21.217   2.315
29211W        W97574   6.867  42.939  11.473
29212W        W97575  32.002   3.395  10.624
29213W        W97576  41.421  36.545  12.469
29214W        W97577  31.969  37.849   4.681
29215W        W97578  28.588  36.437   1.811
29216W        W97579  30.102  24.493  12.851
29217W        W97580  20.657  40.321   3.838
29218W        W97581  40.819  31.993  12.425
29219W        W97582  16.745  38.327  14.313
29220W        W97583   3.456   7.804  14.954
29221W        W97584  10.225   6.797  14.491
29222W        W97585  43.831  38.364   1.279
29223W        W97586  26.568  38.407  12.870
29224W        W97587  10.741  13.332  11.110
29225W        W97588  34.911  38.860   5.137
29226W        W97589  44.314   1.935  14.466
29227W        W97590  33.062  10.814   3.838
29228W        W97591  12.633  13.164   1.255
29229W        W97592  32.571  42.498  12.575
29230W        W97593  11.370  21.104  12.886
29231W        W97594  14.650  23.707   4.239
29232W        W97595  24.647  26.471   3.225
29233W        W97596  34.412   0.353   5.273
29234W        W97597  44.362  34.503  10.918
29235W        W97598  19.098  33.436  11.005
29236W        W97599  14.643   9.377   3.772
29237W        W97600  34.608  18.607   3.231
29238W        W97601   4.332   7.771   3.150
29239W        W97602  10.280  32.095  11.075
29240W        W97603  44.753  26.058  11.403
29241W        W97604  42.462  21.185   3.854
29242W        W97605  11.361  31.437  14.032
29243W        W97606  37.893  25.648   0.913
29244W        W97607  30.075   4.774   1.841
29245W        W97608  28.033  34.032  12.464
29246W        W97609  33.032   9.804  13.030
29247W        W97610  28.456   3.797   4.241
29248W        W97611  24.622  40.383  12.973
29249W        W97612  15.183   3.322  13.930
29250W        W97613   8.767  21.676   4.773
29251W        W97614  18.735  43.793   0.301
29252W        W97615  44.790   6.842  14.904
29253W        W97616  36.439  18.782   1.739
29254W        W97617   9.650  19.639   4.247
29255W        W97618  38.959  36.578   1.217
29256W        W97619  17.622   0.362   2.695
29257W        W97620  11.719  33.443  12.052
29258W        W97621   1.885  23.705  10.421
29259W        W97622   0.280   7.907  11.571
29260W        W97623   7.348  24.656   0.833
29261W        W97624  31.554  17.098  14.493
29262W        W97625   7.719  31.984   1.308
29263W        W97626  22.221  41.877   2.804
29264W        W97627  31.938  44.354   9.532
29265W        W97628  29.607   2.881   2.401
29266W        W97629  11.733  11.156   4.323
29267W        W97630  21.682  34.082  10.574
29268W        W97631   8.272   8.744   3.854
29269W        W97632   3.838  16.263  12.090
29270W        W97633  15.760  22.741   2.746
29271W        W97634  18.591   1.826   2.276
29272W        W97635   1.755  32.965  12.080
29273W        W97636  33.909  17.288   2.875
29274W        W97637  38.896   9.871  12.004
29275W        W97638   9.253  19.199  13.407
29276W        W97639  44.460   9.860   4.314
29277W        W97640  44.501   7.228   1.245
29278W        W97641  43.418  25.681   2.368
29279W        W97642  12.833  32.946   3.821
29280W        W97643  12.743  12.680   2.800
29281W        W97644  44.404  44.260   1.715
29282W        W97645  37.551  28.959  12.555
29283W        W97646  42.400  30.050  13.371
29284W        W97647   7.869  21.550   2.405
29285W        W97648  40.865  23.596  12.534
29286W        W97649  30.083   2.312  12.479
29287W        W97650  37.339  12.217  11.906
29288W        W97651   6.374  25.079  14.842
29289W        W97652  16.797  27.481   0.354
29290W        W97653   3.942  11.706  13.005
29291W        W97654  24.068  27.166  10.553
29292W        W97655  43.834  31.494   1.887
29293W        W97656  31.040  28.112  13.874
29294W        W97657  10.737  29.015  14.828
29295W        W97658  23.643   5.912  12.925
29296W        W97659  14.651  20.703   4.612
29297W        W97660  39.423   7.886  10.945
29298W        W97661   5.296   0.827  13.827
29299W        W97662  16.282  27.085  12.829
29300W        W97663  33.966  42.792   3.329
29301W        W97664  27.080  25.078   3.194
29302W        W97665  36.518  25.015  13.827
29303W        W97666  23.203  13.296   0.295
29304W        W97667  17.652   6.710  12.986
29305W        W97668  15.605  13.840  12.967
29306W        W97669  30.522   5.419  14.491
29307W        W97670  20.177   5.765   3.243
29308W        W97671   3.386  31.903  10.953
29309W        W97672  33.453  38.407  11.060
29310W        W97673  38.559  26.989   3.180
29311W        W97674  43.291  30.618   3.306
29312W        W97675   5.251  14.763  10.893
29313W        W97676  10.140   1.903  13.342
29314W        W97677  30.493  34.436  12.874
29315W        W97678  35.383   0.960   3.732
29316W        W97679  27.611  19.265  13.964
29317W        W97680  15.591  37.932  13.842
29318W        W97681  17.717  18.058   2.252
29319W        W97682  41.349  14.326   0.286
29320W        W97683   7.286   2.361   3.708
29321W        W97684  25.027  42.369  13.009
29322W        W97685  14.628  10.672  14.849
29323W        W97686  36.045  19.729   3.309
29324W        W97687  31.064  15.265   2.685
29325W        W97688  12.231  27.631   1.284
29326W        W97689  30.109  13.172  13.502
29327W        W97690   0.287  33.584  13.891
29328W        W97691  16.261  43.487   0.372
29329W        W97692  27.577  37.044  14.287
29330W        W97693  10.209   8.893   1.840
29331W        W97694   7.370   9.257  13.448
29332W        W97695  37.833  43.926  14.476
29333W        W97696  14.735  27.131   3.704
29334W        W97697  21.052   5.771   4.706
29335W        W97698  10.271  34.032  12.508
29336W        W97699  23.187  17.265  10.453
29337W        W97700   4.856   9.194  10.625
29338W        W97701  44.342  37.878   9.997
29339W        W97702  25.578  32.994  14.395
29340W        W97703  33.048  20.159  13.851
29341W        W97704   6.695  33.488  13.925
29342W        W97705  40.481  18.068   9.955
29343W        W97706  10.380  13.701   1.717
29344W        W97707  36.049  27.680   0.370
29345W        W97708  14.110  22.708   2.379
29346W        W97709  13.758  16.293   5.171
29347W        W97710   6.688  22.709  11.019
29348W        W97711  26.022  31.540  11.517
29349W        W97712  12.351   4.907  14.867
29350W        W97713  26.514  38.506   4.769
29351W        W97714  24.037  35.085   1.433
29352W        W97715  33.598  41.440   2.806
29353W        W97716  27.951   3.230   2.841
29354W        W97717  38.444  32.045   4.191
29355W        W97718  12.153   3.227   0.453
29356W        W97719  13.623  17.594   4.192
29357W        W97720  10.851  31.453   3.254
29358W        W97721  18.296   9.814  13.926
29359W        W97722   3.881  12.311   1.312
29360W        W97723  34.113  23.011   2.405
29361W        W97724  37.431  39.487  13.825
29362W        W97725  43.401   7.682   1.903
29363W        W97726  24.722  37.337  13.327
29364W        W97727  29.923  42.778  14.999
29365W        W97728  44.412   7.859   3.376
29366W        W97729  42.846  34.571   1.748
29367W        W97730  38.881   4.840   0.412
29368W        W97731  23.495  11.191  11.503
29369W        W97732  25.634   7.688  13.511
29370W        W97733   3.722  17.572  12.430
29371W        W97734  36.561  21.256  11.469
29372W        W97735  21.066  26.965   4.653
29373W        W97736   2.301   0.385   0.911
29374W        W97737  40.851  36.393   0.377
29375W        W97738  15.716  12.301  13.816
29376W        W97739   2.888  27.556  10.527
29377W        W97740  22.537   5.231  13.440
29378W        W97741   9.387  17.754   2.710
29379W        W97742  34.614  29.625  11.901
29380W        W97743  17.771  12.695  13.910
29381W        W97744  34.095  43.925   5.746
29382W        W97745  10.723  22.603   0.753
29383W        W97746  15.276  20.197  10.530
29384W        W97747   8.654  10.223   3.311
29385W        W97748  39.918  25.542   0.356
29386W        W97749  34.508  22.045  13.829
29387W        W97750  28.966   0.453   3.168
29388W        W97751  39.941   2.378   3.632
29389W        W97752  32.619  16.115  11.580
29390W        W97753   8.701  11.235   1.878
29391W        W97754   6.859  27.488   1.421
29392W        W97755  23.142  28.066  11.867
29393W        W97756  36.483  43.312   0.247
29394W        W97757  15.736  40.969   4.198
29395W        W97758  38.529  13.671  14.433
29396W        W97759  15.714  21.044  11.608
29397W        W97760  35.988  22.596   2.853
29398W        W97761  37.003  43.443   2.865
29399W        W97762  13.288  44.274   1.406
29400W        W97763  29.507  42.777   4.653
29401W        W97764  15.608  20.187   0.872
29402W        W97765  15.248  21.697   0.480
29403W        W97766  39.406  17.293   3.684
29404W        W97767  13.134  37.368   9.924
29405W        W97768  20.624  30.970   3.808
29406W        W97769  15.614  31.472   2.403
29407W        W97770  12.173  10.789   1.359
29408W        W97771  28.653   1.298   3.267
29409W        W97772  13.710  12.749  14.818
29410W        W97773  17.567  16.311  14.871
29411W        W97774   3.415  32.010  13.961
29412W        W97775  33.421  40.537   3.377
29413W        W97776  32.551  24.482  13.904
29414W        W97777  40.401  13.759   0.266
29415W        W97778  12.290   9.155   1.265
29416W        W97779   7.792  14.755   2.794
29417W        W97780  41.017  35.011  10.988
29418W        W97781  30.558  28.491   3.284
29419W        W97782  27.959  38.822  13.444
29420W        W97783  41.914  33.949   0.881
29421W        W97784  34.028  15.595   1.348
29422W        W97785  14.759  13.251   4.662
29423W        W97786  27.990  31.906   2.271
29424W        W97787  37.991  13.318  14.846
29425W        W97788  28.955  21.128   0.304
29426W        W97789  15.725  35.547  12.516
29427W        W97790  10.352  42.306  12.976
29428W        W97791  24.625  13.825   3.787
29429W        W97792  37.856  20.064  12.059
29430W        W97793  42.992  26.478  14.413
29431W        W97794  10.305  32.984   9.929
29432W        W97795   9.815  27.561  14.406
29433W        W97796  15.765  32.121   2.221
29434W        W97797  19.644   1.919   1.428
29435W        W97798   7.910  10.653   2.322
29436W        W97799  23.608  43.441  14.907
29437W        W97800  15.816   5.846   4.669
29438W        W97801  35.600  15.206   2.844
29439W        W97802  18.730  19.711  12.403
29440W        W97803  40.503  44.463   4.193
29441W        W97804  41.833  25.992  13.318
29442W        W97805  10.694  44.297  12.354
29443W        W97806   5.738   0.931  11.457
29444W        W97807  15.781  12.754   2.782
29445W        W97808  26.967   1.328   2.262
29446W        W97809   4.326  18.251  11.564
29447W        W97810  37.530  32.571  11.465
29448W        W97811  12.288  44.408  11.518
29449W        W97812   2.242  12.313  12.984
29450W        W97813  43.502  26.093  14.935
29451W        W97814  33.384  22.189   1.310
29452W        W97815  34.549  22.074  12.848
29453W        W97816  37.839  22.251   2.822
29454W        W97817  16.749  23.169  14.796
29455W        W97818  13.703   1.275  14.883
29456W        W97819  36.477  23.143  12.997
29457W        W97820  42.944  21.128   1.214
29458W        W97821  24.143  35.420  12.984
29459W        W97822   1.404  40.830  14.512
29460W        W97823   9.862   3.812  12.928
29461W        W97824   3.756  27.136   1.884
29462W        W97825  19.661  32.029  10.931
29463W        W97826  23.166  40.870   4.275
29464W        W97827  26.545  43.997   1.292
29465W        W97828  34.947   4.827   0.354
29466W        W97829  10.835  34.378   3.681
29467W        W97830  24.603  38.567   2.847
29468W        W97831   5.743  21.758   3.178
29469W        W97832  19.189   3.810  13.997
29470W        W97833  22.069  18.286   3.709
29471W        W97834  11.673  18.187   0.795
29472W        W97835  24.691  37.479  13.866
29473W        W97836  20.597   4.384  14.987
29474W        W97837  10.711   5.258   3.184
29475W        W97838  33.406  36.490   2.378
29476W        W97839  11.326   9.200   0.922
29477W        W97840  24.206  21.612   0.442
29478W        W97841  35.484  43.971  10.527
29479W        W97842  35.514  21.668   1.371
29480W        W97843  37.488  39.830  10.989
29481W        W97844  24.142  40.819  11.571
29482W        W97845   8.701  35.441   3.148
29483W        W97846   3.339  28.134   0.914
29484W        W97847  24.057  19.598  10.578
29485W        W97848  32.441  18.662  14.846
29486W        W97849  33.876   8.682  13.792
29487W        W97850  41.459  12.225  12.401
29488W        W97851  38.916  23.620   3.788
29489W        W97852  13.275   3.796  13.811
29490W        W97853  26.659  32.490   2.322
29491W        W97854   2.244  35.963   0.823
29492W        W97855  15.578  26.018  11.575
29493W        W97856   9.662  35.093   2.698
29494W        W97857  21.620  30.156   0.845
29495W        W97858  28.040  11.188   0.856
29496W        W97859  29.107  41.028   1.790
29497W        W97860   2.791   4.853  10.955
29498W        W97861  23.516  27.533   1.442
29499W        W97862   4.860   5.399   0.446
29500W        W97863  43.790  14.709  14.926
29501W        W97864  14.661  32.583  14.278
29502W        W97865  19.060  39.540   3.209
29503W        W97866  20.085  40.822  14.413
29504W        W97867   6.687  38.833   0.312
29505W        W97868  43.871  37.869   1.722
29506W        W97869   8.302  43.426  14.839
29507W        W97870  34.493  15.131  11.940
29508W        W97871  34.025  12.299  14.996
29509W        W97872  38.841  29.438   3.781
29510W        W97873  12.311  11.143   3.345
29511W        W97874  10.642   1.353  11.891
29512W        W97875  21.149  37.489   3.796
29513W        W97876  43.811  32.052  13.903
29514W        W97877  30.095  34.546  14.939
29515W        W97878  31.046  11.692  12.960
29516W        W97879   4.340  38.890  11.118
29517W        W97880  18.705   1.924   0.393
29518W        W97881   1.347  16.791   3.846
29519W        W97882  41.534  21.239   3.220
29520W        W97883  12.201  11.226   1.216
29521W        W97884  12.293   7.678  10.530
29522W        W97885  23.133  26.978   4.265
29523W        W97886  38.494  22.593  10.585
29524W        W97887  31.902  16.174   4.145
29525W        W97888  36.882  35.512  12.401
29526W        W97889  18.259  25.501  13.971
29527W        W97890  19.582   6.399  14.322
29528W        W97891   0.342   5.408  10.550
29529W        W97892  29.163  17.685  14.971
29530W        W97893  18.647  26.501   2.408
29531W        W97894  20.696  20.751  11.378
29532W        W97895  44.404  22.729  13.862
29533W        W97896  34.588   7.792  14.823
29534W        W97897  22.720   0.807  14.394
29535W        W97898  20.263  10.311   2.727
29536W        W97899   2.244  44.347  12.407
29537W        W97900  42.287  26.117  13.932
29538W        W97901  19.723  28.009  14.819
29539W        W97902  20.763  33.512  14.352
29540W        W97903  40.988   1.381   0.876
29541W        W97904  20.765  28.441   0.761
29542W        W97905   6.290  15.167   4.601
29543W        W97906  24.094  43.890  14.391
29544W        W97907   7.829  38.881   4.316
29545W        W97908  23.236  11.204  13.486
29546W        W97909   4.719  40.458  13.036
29547W        W97910  10.165  22.549   0.839
29548W        W97911  32.098  39.370   0.249
29549W        W97912   7.260  12.142   2.392
29550W        W97913  15.598  42.310  14.399
29551W        W97914  17.176  13.238  11.553
29552W        W97915  26.539  18.705  11.594
29553W        W97916   7.862  25.564  14.512
29554W        W97917   7.340   6.789  10.924
29555W        W97918  28.955  27.484  14.779
29556W        W97919  29.482   3.283   3.148
29557W        W97920  26.631  38.033   3.156
29558W        W97921  11.793  28.610   3.804
29559W        W97922  32.113  10.294  14.887
29560W        W97923  34.879  41.448   2.755
29561W        W97924  44.413  13.180   0.810
29562W        W97925  10.273   8.830  12.040
29563W        W97926  28.979  33.098  13.827
29564W        W97927  35.866  13.754  12.392
29565W        W97928   5.761   7.284  12.897
29566W        W97929   8.369  32.088   2.766
29567W        W97930  26.129  29.639   0.739
29568W        W97931  12.205  20.698   2.870
29569W        W97932  43.282   1.918  14.007
29570W        W97933  40.006   2.825  13.519
29571W        W97934  33.584  35.991   2.405
29572W        W97935   2.795   3.800  12.540
29573W        W97936  12.813  11.158   1.789
29574W        W97937   3.930  25.494   4.700
29575W        W97938  36.051  27.478  11.486
29576W        W97939   1.783  12.773   2.290
29577W        W97940  41.350  32.443  12.834
29578W        W97941  38.878  11.130   1.382
29579W        W97942  12.728  30.497   1.848
29580W        W97943  33.879  28.615  11.890
29581W        W97944   1.372  41.886   3.264
29582W        W97945  41.803  20.585  11.029
29583W        W97946  17.162  32.035  13.012
29584W        W97947  21.128  27.163  12.006
29585W        W97948  21.591  23.090  11.994
29586W        W97949  18.226  30.450  12.371
29587W        W97950  10.340  21.529   3.354
29588W        W97951  39.977  25.552  11.409
29589W        W97952  10.292  28.038   5.133
29590W        W97953  40.314  28.992   3.182
29591W        W97954  33.436  35.394  11.494
29592W        W97955  43.849   2.744  12.858
29593W        W97956   8.333  22.535  12.505
29594W        W97957  12.743  25.592  14.345
29595W        W97958  23.166  34.482   3.798
29596W        W97959  27.962  29.598  12.482
29597W        W97960  32.423  25.017   2.675
29598W        W97961   4.431  40.856   4.654
29599W        W97962   7.839  39.553   4.298
29600W        W97963  33.932  43.963   2.180
29601W        W97964  33.521  20.071   3.181
29602W        W97965  37.839  16.253  10.633
29603W        W97966  33.598  23.722   2.809
29604W        W97967  29.974  24.721  14.769
29605W        W97968  32.920  15.286   4.274
29606W        W97969  25.079  42.823  10.611
29607W        W97970  34.400  14.335  10.632
29608W        W97971  17.087  40.508  10.439
29609W        W97972  38.908  38.345   2.409
29610W        W97973  39.942   3.226   5.143
29611W        W97974   7.769  36.905  14.506
29612W        W97975  20.261   5.724   0.807
29613W        W97976  37.522  10.828   4.335
29614W        W97977  19.539  25.690  11.544
29615W        W97978  27.656   7.391  10.414
29616W        W97979   1.969  15.817   0.283
29617W        W97980  40.367   0.763   3.671
29618W        W97981  19.747  42.517  10.575
29619W        W97982  28.989  21.120   1.701
29620W        W97983  11.200  35.870   1.243
29621W        W97984  26.547   5.212  14.321
29622W        W97985  16.120  32.096  14.312
29623W        W97986  33.382  29.514  11.557
29624W        W97987  14.791  18.667   1.365
29625W        W97988  18.164  34.447   3.644
29626W        W97989   7.195  44.468  12.053
29627W        W97990   9.174  18.232   3.273
29628W        W97991  28.605  33.471  11.892
29629W        W97992  23.113  12.827  12.934
29630W        W97993  15.673  41.825  14.804
29631W        W97994  42.463  24.508   2.330
29632W        W97995   9.760  33.545  12.494
29633W        W97996  42.479  18.208   0.402
29634W        W97997   7.409  41.360  12.990
29635W        W97998  40.022  43.465  13.004
29636W        W97999  20.052   0.779   9.939
29637W        W98000   4.747   7.770  12.972
29638W        W98001  26.624   9.713  10.888
29639W        W98002   4.804   1.972   2.199
29640W        W98003  37.060  14.198   0.320
29641W        W98004  23.200  32.456   3.159
29642W        W98005  38.547  20.261   2.892
29643W        W98006  18.709  20.143  14.976
29644W        W98007  16.576  29.011   3.698
29645W        W98008  27.677  34.585   1.875
29646W        W98009  13.636   4.252  12.005
29647W        W98010   9.794  15.727   1.732
29648W        W98011  32.911  42.442   4.618
29649W        W98012  28.525  10.162  10.038
29650W        W98013  41.033  42.368  14.787
29651W        W98014   4.355  14.606   3.648
29652W        W98015   8.350  43.382  11.999
29653W        W98016  43.906  18.586   4.213
29654W        W98017  12.763  16.314  11.452
29655W        W98018  34.078  10.724  12.375
29656W        W98019  25.706  24.007  10.474
29657W        W98020   3.824  39.065  14.400
29658W        W98021   1.936  35.540  10.454
29659W        W98022  28.942  32.907   2.261
29660W        W98023  39.963  32.998  14.774
29661W        W98024   9.876  35.483   2.779
29662W        W98025  23.687   6.252  11.466
29663W        W98026  15.152  22.681   3.330
29664W        W98027  42.408  16.310  11.098
29665W        W98028   2.435  42.476  10.450
29666W        W98029  33.006   0.843  12.064
29667W        W98030  37.488  43.506  13.333
29668W        W98031  14.673  24.998   2.775
29669W        W98032   9.644  38.490  13.862
29670W        W98033   2.367  29.932  14.856
29671W        W98034  33.900  14.698   1.298
29672W        W98035  27.091  25.704  14.928
29673W        W98036  27.599  28.487   3.147
29674W        W98037   5.846  25.582   2.798
29675W        W98038  14.180   2.453  10.552
29676W        W98039   7.853  36.034  10.085
29677W        W98040  18.213  24.097  14.469
29678W        W98041  24.187  11.135  14.014
29679W        W98042  32.568  14.180   4.721
29680W        W98043  13.137   2.925  10.605
29681W        W98044  16.799  30.602  13.826
29682W        W98045  12.844  14.823  11.999
29683W        W98046  37.997  40.350  11.029
29684W        W98047  11.814  44.876   4.621
29685W        W98048  40.811   3.255   2.208
29686W        W98049   9.723   0.388   0.407
29687W        W98050  16.302  36.441   1.362
29688W        W98051  19.095  14.747  14.303
29689W        W98052  16.261   6.726   0.354
29690W        W98053  21.601  15.129  10.513
29691W        W98054  10.355  30.642  14.911
29692W        W98055  19.067   6.360   4.680
29693W        W98056   1.756   9.175  13.860
29694W        W98057   6.897  22.208   1.376
29695W        W98058  12.687   4.809  13.812
29696W        W98059   3.385  22.554  13.524
29697W        W98060  15.719   6.264   1.301
29698W        W98061   2.405   9.881  12.571
29699W        W98062   7.712  23.706   3.181
29700W        W98063   5.800  12.739  14.458
29701W        W98064   4.784  39.315   3.335
29702W        W98065  15.740  27.485   2.225
29703W        W98066  19.068   2.816   0.800
29704W        W98067   9.351  37.416   2.843
29705W        W98068  22.618   4.400   2.799
29706W        W98069  11.200  25.080   0.316
29707W        W98070  18.677  18.739  12.900
29708W        W98071  23.195  13.127   2.417
29709W        W98072  29.159  44.884  12.986
29710W        W98073  11.328  38.862  12.394
29711W        W98074  37.912  37.339  10.460
29712W        W98075   8.402  24.976   1.798
29713W        W98076  41.487  11.700  14.799
29714W        W98077  27.997  23.083  12.492
29715W        W98078  28.082  18.779   1.325
29716W        W98079  29.446   1.352  14.284
29717W        W98080  13.711  15.751   1.855
29718W        W98081  22.172   1.346  11.966
29719W        W98082   7.199  21.517  13.535
29720W        W98083   6.709  13.787   4.742
29721W        W98084  34.590  37.992  14.989
29722W        W98085  14.262   3.828   1.874
29723W        W98086   8.397  17.281   4.652
29724W        W98087  11.646   9.655  14.962
29725W        W98088  37.012   5.716   3.785
29726W        W98089   8.676  30.491  14.491
29727W        W98090  10.331   1.863   0.307
29728W        W98091  40.858  17.561  11.076
29729W        W98092   6.394  25.076   5.301
29730W        W98093   5.408  15.734   3.383
29731W        W98094  15.138  42.378  13.961
29732W        W98095   8.661  34.425   4.813
29733W        W98096   0.903   8.178  11.483
29734W        W98097   8.838  24.494  10.547
29735W        W98098  25.163  27.581  10.978
29736W        W98099  14.724  21.126   0.274
29737W        W98100  15.277  43.300  14.844
29738W        W98101  19.709  19.636  12.425
29739W        W98102   0.928  27.479   1.855
29740W        W98103  19.718   0.263   1.279
29741W        W98104  16.706   6.796  13.914
29742W        W98105  37.564  40.543   4.199
29743W        W98106   1.345  19.684   0.410
29744W        W98107  29.076  25.646   3.154
29745W        W98108  41.429  11.229   4.688
29746W        W98109   5.235  39.042   1.231
29747W        W98110  17.202  13.806   4.163
29748W        W98111  22.507  20.184   4.210
29749W        W98112  31.413  17.676  13.310
29750W        W98113   7.404  29.455  13.411
29751W        W98114  44.450  12.358  13.376
29752W        W98115  27.482  35.060   2.675
29753W        W98116  31.062  33.965   4.261
29754W        W98117   4.892  13.326   4.629
29755W        W98118  44.868  14.618  14.410
29756W        W98119  35.983  20.707   2.350
29757W        W98120  16.160  12.323  13.995
29758W        W98121  23.702  31.494  14.864
29759W        W98122  39.845  30.634   1.410
29760W        W98123   6.762  40.001   1.237
29761W        W98124   3.825  30.590   3.214
29762W        W98125   2.930  29.594   4.231
29763W        W98126  35.559  11.298  12.551
29764W        W98127  32.953  37.973   3.861
29765W        W98128  16.763  19.601   1.347
29766W        W98129   9.819  12.171  10.944
29767W        W98130  18.704  31.551   0.856
29768W        W98131  18.139  31.995   2.861
29769W        W98132  37.087   9.823  14.505
29770W        W98133  16.083  32.892   4.629
29771W        W98134  15.285  26.002   1.793
29772W        W98135  41.896  26.518  11.018
29773W        W98136   6.183  35.422   1.250
29774W        W98137  25.711  34.464  13.471
29775W        W98138   9.224  44.842   0.468
29776W        W98139  39.946  44.381  12.836
29777W        W98140  17.220  41.855  14.331
29778W        W98141  12.177  26.035  11.568
29779W        W98142  18.715  15.240   2.765
29780W        W98143  35.043  18.641   0.449
29781W        W98144   2.470  23.113   1.792
29782W        W98145  11.305  14.234   2.340
29783W        W98146   2.243   4.343   1.894
29784W        W98147  25.190  21.033  11.093
29785W        W98148  17.264  22.664   4.126
29786W        W98149   6.780  40.315   3.377
29787W        W98150  39.528  37.867  14.416
29788W        W98151  44.978  25.051   4.283
29789W        W98152  18.265  18.266   4.789
29790W        W98153  22.045  41.833   3.260
29791W        W98154  16.187  12.628   1.863
29792W        W98155  25.573  36.459   4.806
29793W        W98156  28.529  23.559   4.780
29794W        W98157  44.899  29.039  12.575
29795W        W98158   2.725  31.638   3.794
29796W        W98159  20.131  23.228   1.819
29797W        W98160  35.600   6.410  13.887
29798W        W98161   5.426  41.830  11.595
29799W        W98162  43.489  36.401   0.277
29800W        W98163  10.750  21.152  11.026
29801W        W98164  11.223  25.122  14.886
29802W        W98165  41.413  18.251   2.854
29803W        W98166  21.598  16.309   0.341
29804W        W98167   6.359  33.555  11.560
29805W        W98168   8.300  20.225   4.331
29806W        W98169   0.824  15.667   1.905
29807W        W98170   4.408  24.658  13.530
29808W        W98171  44.420  12.676   2.339
29809W        W98172  21.692  13.625   3.373
29810W        W98173   1.461   1.926  11.953
29811W        W98174  22.657  30.623   0.732
29812W        W98175  44.933  38.532  11.381
29813W        W98176  37.352   0.957   0.295
29814W        W98177  12.664   0.752   1.809
29815W        W98178  22.517   7.880  12.348
29816W        W98179  43.908   6.254   4.762
29817W        W98180  34.936  37.010   3.155
29818W        W98181  35.012  18.670   4.796
29819W        W98182  40.503   3.792   1.389
29820W        W98183  14.652  18.113   1.313
29821W        W98184  32.423  40.908   4.122
29822W        W98185  10.215  37.996   1.774
29823W        W98186  42.974   1.400  10.503
29824W        W98187  22.163  12.268  14.761
29825W        W98188   9.366  26.089  13.539
29826W        W98189   9.664   1.313  13.845
29827W        W98190  25.164  20.640   1.811
29828W        W98191  13.267   1.919  12.826
29829W        W98192  37.836  15.202   2.707
29830W        W98193  20.666  11.855   0.833
29831W        W98194  11.173  31.134   2.210
29832W        W98195  29.612   1.295   2.694
29833W        W98196  17.665  42.477  10.961
29834W        W98197  38.048  28.631  12.947
29835W        W98198  22.137   5.872   3.824
29836W        W98199   2.796  43.905   1.321
29837W        W98200  21.606  19.706  10.970
29838W        W98201  19.280  44.441   4.158
29839W        W98202   8.715  26.081   2.178
29840W        W98203   1.276   5.798  10.920
29841W        W98204  34.027   4.771  12.954
29842W        W98205  14.651  20.231   4.767
29843W        W98206   3.441  12.239  14.514
29844W        W98207  11.232   2.226  13.882
29845W        W98208  31.127  21.155  14.789
29846W        W98209  44.820  16.750  10.619
29847W        W98210  15.791  15.625   1.752
29848W        W98211  38.846   5.692  10.059
29849W        W98212  36.049  44.863  14.366
29850W        W98213  35.102  36.998  14.342
29851W        W98214   5.295  15.656  11.867
29852W        W98215   6.384  32.075   3.730
29853W        W98216  35.577  24.050   0.324
29854W        W98217  10.708  16.083  11.030
29855W        W98218   7.817  31.448  13.345
29856W        W98219  12.194   2.791  11.965
29857W        W98220  13.320  20.182   1.262
29858W        W98221  33.470  20.680  12.395
29859W        W98222  28.594   2.402  13.478
29860W        W98223  18.686   0.836   1.435
29861W        W98224  33.437  42.916  11.857
29862W        W98225  13.321  18.266   0.458
29863W        W98226  39.981  20.156  11.437
29864W        W98227  20.618   8.827   4.735
29865W        W98228  35.445  42.450  14.791
29866W        W98229   6.824   8.729  10.419
29867W        W98230  37.857  23.079  14.337
29868W        W98231  17.693  16.718   3.345
29869W        W98232  27.572  21.658   3.354
29870W        W98233  15.083  33.403  13.889
29871W        W98234   3.747   6.246   0.955
29872W        W98235   9.653  36.970   0.786
29873W        W98236  36.033  28.633   4.638
29874W        W98237  32.955  26.197   2.267
29875W        W98238  24.160  29.606  14.902
29876W        W98239  37.909  14.120  10.584
29877W        W98240  31.117  19.620  11.405
29878W        W98241   3.458   6.715  10.616
29879W        W98242  34.934  44.295   0.431
29880W        W98243  27.963  15.641  12.460
29881W        W98244   8.168  17.085   0.730
29882W        W98245  34.382  21.555  13.542
29883W        W98246  15.678  20.058  14.826
29884W        W98247  42.293  36.355  12.488
29885W        W98248  15.210  28.177   3.342
29886W        W98249   2.429   7.299  11.382
29887W        W98250   2.813  42.426  12.930
29888W        W98251  26.628  33.952   4.268
29889W        W98252  44.445  36.379   2.674
29890W        W98253  34.613  30.977  13.386
29891W        W98254  30.528  10.635   2.361
29892W        W98255   1.461  20.181   0.870
29893W        W98256  36.511  39.064   9.986
29894W        W98257  24.525  34.561   0.476
29895W        W98258  29.144  35.927  13.039
29896W        W98259  10.826  39.987   0.885
29897W        W98260  26.013  37.476   2.730
29898W        W98261   1.788  10.783  13.546
29899W        W98262   1.786  10.181   0.926
29900W        W98263  39.933  15.299  14.446
29901W        W98264  26.039  22.632   0.404
29902W        W98265  43.434  15.615  11.570
29903W        W98266   3.879  17.616  14.958
29904W        W98267  37.424  20.263   0.908
29905W        W98268  19.088  32.576  12.057
29906W        W98269   9.279  44.424  13.896
29907W        W98270   0.873  18.780  13.805
29908W        W98271  28.974  13.801  14.944
29909W        W98272   3.336  37.026  11.103
29910W        W98273  26.569  42.510  10.595
29911W        W98274  38.512  33.912  10.413
29912W        W98275  11.299  31.036  14.976
29913W        W98276  36.385  28.666  12.980
29914W        W98277  43.996  16.305   1.317
29915W        W98278   3.829  19.691   5.222
29916W        W98279   1.922  16.181  14.915
29917W        W98280  25.133  14.723  13.020
29918W        W98281  32.599  29.585   3.647
29919W        W98282  21.253  35.062  13.547
29920W        W98283  28.098  22.105  13.023
29921W        W98284  36.397   4.907   2.233
29922W        W98285  32.981  24.704  10.979
29923W        W98286  26.201   9.650   1.924
29924W        W98287  22.507  42.391   3.644
29925W        W98288  32.502  35.528  13.891
29926W        W98289  26.620  41.929  11.458
29927W        W98290  33.592   3.288   3.271
29928W        W98291  12.752  36.981   1.438
29929W        W98292   0.381  42.525   0.844
29930W        W98293  14.273  14.757   3.794
29931W        W98294  34.106  22.161   0.264
29932W        W98295   6.357  15.588   4.745
29933W        W98296  44.759  43.378   1.365
29934W        W98297   2.344  25.013   1.395
29935W        W98298   9.290  26.122   0.416
29936W        W98299  31.402   5.298  13.946
29937W        W98300  42.869  26.183  12.049
29938W        W98301   6.895  26.158  10.429
29939W        W98302  14.181  18.714  10.496
29940W        W98303  17.714  14.798   4.136
29941W        W98304   5.243  33.880   2.261
29942W        W98305   0.787  16.599   2.367
29943W        W98306  30.608  10.238   4.724
29944W        W98307  34.915   6.243  10.477
29945W        W98308  11.718   6.871   2.768
29946W        W98309  16.700  34.400  11.875
29947W        W98310  31.471   9.331  11.877
29948W        W98311  39.885   7.197   4.321
29949W        W98312  29.053  37.436  14.416
29950W        W98313  31.425  18.199  12.405
29951W        W98314  37.439  39.350  14.406
29952W        W98315  29.471  42.485  10.564
29953W        W98316   8.159   4.830   4.245
29954W        W98317  29.589   6.363   1.384
29955W        W98318  35.941  14.278   3.722
29956W        W98319  10.639  17.572   1.727
29957W        W98320  37.869   2.903   2.767
29958W        W98321  12.719  30.154  11.591
29959W        W98322  31.972   2.930  14.387
29960W        W98323  34.385  44.940  13.465
29961W        W98324  22.099  36.526   2.393
29962W        W98325  38.050  23.523   4.270
29963W        W98326   9.745  30.033  14.454
29964W        W98327  32.929  35.018   2.319
29965W        W98328  18.214  43.506  11.919
29966W        W98329  37.456  12.145   1.408
29967W        W98330  14.167   6.767   0.786
29968W        W98331  27.975  11.832   3.708
29969W        W98332  32.065  31.092  14.336
29970W        W98333  25.705  20.546   3.812
29971W        W98334  33.480   2.720   0.433
29972W        W98335  11.296   8.737   3.862
29973W        W98336   8.720  36.516  12.952
29974W        W98337  10.367  14.251   3.188
29975W        W98338  27.018  28.592  12.958
29976W        W98339   7.705  39.020  13.892
29977W        W98340  21.607  27.584  12.980
29978W        W98341  41.365  12.809   2.878
29979W        W98342  44.935   8.350   2.330
29980W        W98343  21.132  34.053  12.867
29981W        W98344  37.864  40.356  10.453
29982W        W98345  19.078  31.069  14.828
29983W        W98346   8.268  20.673  11.423
29984W        W98347  14.780  35.910  14.970
29985W        W98348  43.460  19.109   0.265
29986W        W98349  38.924  40.306   0.311
29987W        W98350  27.467  30.523  11.963
29988W        W98351   3.300  13.155   1.908
29989W        W98352  10.293   8.764   0.958
29990W        W98353  30.017  25.610   3.314
29991W        W98354  26.684  20.628   3.791
29992W        W98355  11.183  41.872  14.918
29993W        W98356  43.824  15.814  11.495
29994W        W98357  44.450  14.726  13.966
29995W        W98358   8.750  25.545   4.674
29996W        W98359  34.989  27.174   0.289
29997W        W98360  15.601   3.341   1.739
29998W        W98361  42.870  13.146  12.431
29999W        W98362  32.067   8.296   1.417
30000W        W98363  33.546  39.504  13.915
30001W        W98364  34.947  38.461  14.854
30002W        W98365   1.801   9.382   3.164
30003W        W98366  41.319  37.509   0.771
30004W        W98367  41.791   4.300  10.406
30005W        W98368  19.647  14.755   2.320
30006W        W98369  28.024  38.534  12.385
30007W        W98370  15.766  40.402   1.902
30008W        W98371   2.435  26.137   4.347
30009W        W98372  25.187  12.630  11.434
30010W        W98373  23.608  43.287  10.986
30011W        W98374  40.318  41.493  13.851
30012W        W98375   6.861  30.429   1.879
30013W        W98376  18.152  43.995  11.880
30014W        W98377  37.581  19.534   4.276
30015W        W98378  23.621  23.732   1.451
30016W        W98379  10.714   4.260   4.348
30017W        W98380  42.931   7.794   1.737
30018W        W98381  10.333  23.683  11.550
30019W        W98382  11.285  27.087  12.494
30020W        W98383  25.637   3.379  10.919
30021W        W98384   3.263  25.171   0.906
30022W        W98385  36.988  20.616   3.253
30023W        W98386  43.418   7.272  11.402
30024W        W98387  35.509  17.307  10.962
30025W        W98388   5.386   4.927   2.196
30026W        W98389  21.039  11.796  11.490
30027W        W98390  42.454  28.142  13.919
30028W        W98391  13.648  39.878  11.987
30029W        W98392  12.818  34.924   2.340
30030W        W98393  17.708  31.099   2.296
30031W        W98394   9.203   2.803  13.867
30032W        W98395  42.522  38.036   9.441
30033W        W98396  35.440   9.344  12.995
30034W        W98397  12.221   8.235  14.960
30035W        W98398  42.497  18.582   3.637
30036W        W98399  41.959   8.365  10.900
30037W        W98400  28.978  23.098  13.930
30038W        W98401  26.465  10.714  12.976
30039W        W98402   4.891   9.731   0.443
30040W        W98403  11.194   9.707  12.551
30041W        W98404  25.707  20.181   2.328
30042W        W98405  18.708  15.747  12.536
30043W        W98406   2.354   0.283  10.604
30044W        W98407  10.738   6.746  13.469
30045W        W98408  21.694  10.344   1.225
30046W        W98409  11.749   4.810  11.610
30047W        W98410  13.797  34.077   0.253
30048W        W98411  12.298  10.872  12.824
30049W        W98412  31.601  43.945   0.458
30050W        W98413  28.562  37.498  14.797
30051W        W98414  36.969  44.439   1.265
30052W        W98415  33.458  28.647   0.461
30053W        W98416   1.285  27.119   1.737
30054W        W98417   6.679  43.458  11.526
30055W        W98418  35.858  28.141   5.220
30056W        W98419  36.440  21.584  12.444
30057W        W98420  33.080   4.856  11.110
30058W        W98421   7.315   7.881   2.796
30059W        W98422   4.756  14.336  12.090
30060W        W98423  40.357  13.320   2.180
30061W        W98424  30.080  12.213   4.341
30062W        W98425  35.926  35.009  11.003
30063W        W98426  16.743   7.296  11.598
30064W        W98427   4.763  14.141   0.444
30065W        W98428  10.654  30.089  14.955
30066W        W98429   1.789  28.502   2.691
30067W        W98430  13.149  28.514  13.977
30068W        W98431  18.737  12.719   2.833
30069W        W98432   7.235   7.318   4.243
30070W        W98433  38.991  30.106   3.755
30071W        W98434  15.747  18.660  13.851
30072W        W98435  27.536  34.072   1.367
30073W        W98436  11.810  19.773  10.564
30074W        W98437  32.929  37.991   3.338
30075W        W98438  24.197  23.667  11.096
30076W        W98439   8.291  30.927   2.711
30077W        W98440  43.995  25.083  10.599
30078W        W98441  10.863  40.820   2.773
30079W        W98442  20.152  34.606   3.380
30080W        W98443  15.200  36.475  14.383
30081W        W98444  30.559   4.441  11.992
30082W        W98445  10.704   5.829   2.248
30083W        W98446  22.676  37.871   4.291
30084W        W98447  21.036  25.615   4.116
30085W        W98448   5.789  17.776   4.256
30086W        W98449  10.680  38.884   3.636
30087W        W98450  25.096   6.184  13.864
30088W        W98451  38.343  39.819  11.007
30089W        W98452  14.131  42.960   2.328
30090W        W98453  19.043  15.216   2.855
30091W        W98454  35.972  37.473   4.811
30092W        W98455  15.280  13.723   1.400
30093W        W98456  29.943  38.471   1.725
30094W        W98457  30.513   5.743   3.368
30095W        W98458  11.215   8.833  10.469
30096W        W98459  36.462  34.900   3.776
30097W        W98460   6.307  38.965   4.241
30098W        W98461  30.445   9.194   1.729
30099W        W98462  14.773  27.133  12.952
30100W        W98463  28.069  12.849   2.733
30101W        W98464  37.562  24.669   1.878
30102W        W98465  33.924  35.515  13.899
30103W        W98466  35.559  20.137  11.888
30104W        W98467  21.659   4.437   0.749
30105W        W98468  27.129  40.355  10.979
30106W        W98469  30.505  38.434   0.777
30107W        W98470  42.993  28.588   2.267
30108W        W98471  12.222  34.982  12.884
30109W        W98472  31.506  27.172   1.718
30110W        W98473   3.795  29.661   4.341
30111W        W98474  44.907  28.956   2.328
30112W        W98475  30.976   1.299  11.016
30113W        W98476  44.503  40.372   1.410
30114W        W98477  35.082  26.004   0.424
30115W        W98478  38.070  41.019  14.758
30116W        W98479  15.145   4.736   2.671
30117W        W98480  21.745  28.602  14.471
30118W        W98481  30.143  11.757  11.864
30119W        W98482  37.989  41.446   3.169
30120W        W98483  42.416  32.963  14.021
30121W        W98484   6.398  32.539  10.421
30122W        W98485   1.911   1.840  10.500
30123W        W98486   3.436  21.669  14.309
30124W        W98487  13.230  35.479   1.735
30125W        W98488  37.402  12.664   4.281
30126W        W98489  28.506  12.355   3.369
30127W        W98490  31.955  17.725  13.822
30128W        W98491   4.715  34.882  13.971
30129W        W98492  18.738  31.941   5.217
30130W        W98493   1.279   3.218  12.998
30131W        W98494  26.655   7.684  12.432
30132W        W98495   4.777   5.391   3.856
30133W        W98496  22.653  34.988  10.966
30134W        W98497  28.537   1.258  10.969
30135W        W98498  10.831  10.210   0.806
30136W        W98499   2.843  31.910   0.264
30137W        W98500  17.713  18.638  14.840
30138W        W98501   3.895  43.021   4.219
30139W        W98502  33.389  18.551   2.736
30140W        W98503  30.976  30.528   5.097
30141W        W98504  27.969  13.303   5.100
30142W        W98505   8.814   3.412  12.969
30143W        W98506  13.648   8.711   1.440
30144W        W98507  40.324   9.338   3.819
30145W        W98508  11.774  29.141   0.292
30146W        W98509  17.689   8.357  13.905
30147W        W98510  40.523   4.893  12.553
30148W        W98511  25.687  25.068   2.884
30149W        W98512   1.359   7.327  12.945
30150W        W98513  29.004   6.214   0.946
30151W        W98514  15.233  10.219  12.554
30152W        W98515  36.906  27.563  10.634
30153W        W98516  44.767  40.313  10.457
30154W        W98517  17.775   4.714   2.686
30155W        W98518  32.924  21.718  10.494
30156W        W98519  27.486   4.829   1.857
30157W        W98520  32.960  13.834   0.781
30158W        W98521   0.307  39.002  11.607
30159W        W98522   0.269  39.449   3.316
30160W        W98523  19.755  27.983  13.837
30161W        W98524  31.983  12.269  11.403
30162W        W98525  23.699  22.082   3.201
30163W        W98526  40.320  38.978  13.999
30164W        W98527  38.454  32.619   0.260
30165W        W98528   8.682  38.941  14.906
30166W        W98529  28.638  38.883  11.411
30167W        W98530  19.738   4.740  13.981
30168W        W98531  44.268  24.573  11.423
30169W        W98532   2.405  32.475   4.167
30170W        W98533  17.077   4.319  11.856
30171W        W98534  10.152  26.081   1.811
30172W        W98535  33.889  16.097   0.417
30173W        W98536  26.481  16.707   1.265
30174W        W98537  11.724  27.526  13.329
30175W        W98538  39.059   7.281  12.449
30176W        W98539  41.891  32.509   3.229
30177W        W98540  40.326   1.299  13.405
30178W        W98541  11.288  13.152  14.911
30179W        W98542   2.398  19.694  13.912
30180W        W98543  25.068  34.001  14.029
30181W        W98544   2.764  11.678  13.371
30182W        W98545  31.538  42.826   3.800
30183W        W98546   5.271  12.325   3.828
30184W        W98547  26.079   6.883   1.339
30185W        W98548  29.978  16.808   4.201
30186W        W98549  30.080  17.788  13.868
30187W        W98550  30.414  21.163  12.343
30188W        W98551  21.543  10.200  11.898
30189W        W98552  34.569  13.752  12.496
30190W        W98553  28.984  40.879  10.425
30191W        W98554  40.525  35.074   0.392
30192W        W98555  36.880  12.155  11.991
30193W        W98556  22.182  30.030   4.640
30194W        W98557  14.175  44.354   1.797
30195W        W98558  16.164  39.339   1.222
30196W        W98559  24.098   2.375   0.826
30197W        W98560  37.434  12.296   2.788
30198W        W98561   3.343  35.010  12.355
30199W        W98562  44.869   0.956   2.352
30200W        W98563  28.096  36.980   4.283
30201W        W98564   5.275   4.323  12.991
30202W        W98565  12.622  36.945  11.504
30203W        W98566  10.826  40.819   2.266
30204W        W98567  17.741  36.503  12.416
30205W        W98568   9.680   9.292  13.381
30206W        W98569  32.455  38.328   2.359
30207W        W98570  36.030  26.672  12.472
30208W        W98571  22.729  13.704  11.882
30209W        W98572   9.736  35.530   4.335
30210W        W98573  33.400   9.379  10.466
30211W        W98574  11.726  41.507  10.563
30212W        W98575  17.074  43.980   3.737
30213W        W98576  13.278  40.866   0.342
30214W        W98577  39.339  35.539   4.134
30215W        W98578  12.352  14.200   4.709
30216W        W98579  21.727  44.005   4.336
30217W        W98580  21.569  30.568   2.877
30218W        W98581  21.569   8.845  11.466
30219W        W98582  36.851   3.816  11.081
30220W        W98583  25.158   8.255  12.511
30221W        W98584  12.716   9.662  14.811
30222W        W98585  35.596  35.451   3.325
30223W        W98586  15.611  32.500  11.093
30224W        W98587   5.383   6.900  14.826
30225W        W98588  24.544   2.228   2.878
30226W        W98589  37.037  22.732  11.860
30227W        W98590  44.924   9.685   2.303
30228W        W98591  33.533  43.992  12.479
30229W        W98592   8.196   8.704   0.794
30230W        W98593  12.642  33.100   0.466
30231W        W98594  12.284  27.108   4.221
30232W        W98595  25.599  29.591  13.487
30233W        W98596   7.782  38.951  14.893
30234W        W98597  30.496  10.233  13.336
30235W        W98598  39.058  44.270  14.932
30236W        W98599   4.403  39.825   3.254
30237W        W98600  18.750  28.475  13.406
30238W        W98601  28.105  28.674   3.746
30239W        W98602   4.938  21.639   0.278
30240W        W98603   9.881   0.491  12.009
30241W        W98604  32.443  44.962  10.986
30242W        W98605  18.088  25.125  14.969
30243W        W98606   1.288  42.786   2.699
30244W        W98607  40.342  36.856  12.866
30245W        W98608  28.434  19.726   5.280
30246W        W98609  23.094  34.384  12.509
30247W        W98610  34.951  42.424  14.872
30248W        W98611  33.508  22.031  11.913
30249W        W98612  27.691  18.639   0.445
30250W        W98613  17.599  12.119   2.883
30251W        W98614  11.169   5.292  12.056
30252W        W98615  37.982  30.029  14.332
30253W        W98616  18.716  44.392   0.373
30254W        W98617   4.412  29.546   0.919
30255W        W98618  36.003  27.070  14.427
30256W        W98619  21.512  19.539  12.046
30257W        W98620  14.224  15.205  12.877
30258W        W98621  29.629  29.552  14.936
30259W        W98622  21.519  12.664   0.391
30260W        W98623  28.113  25.176  10.026
30261W        W98624   3.411  10.765   0.350
30262W        W98625  44.306  41.362   3.155
30263W        W98626   4.377  18.238  14.857
30264W        W98627  16.125  16.184   9.466
30265W        W98628  38.035  26.979   3.826
30266W        W98629  17.070  33.099  12.362
30267W        W98630   9.773  42.323  12.382
30268W        W98631   5.700   6.838  12.340
30269W        W98632  39.358  21.751   1.211
30270W        W98633  40.446   0.329  10.451
30271W        W98634  27.193  10.681   0.903
30272W        W98635  17.664   6.907   3.804
30273W        W98636  20.041  15.100   0.868
30274W        W98637  30.638  27.687  11.588
30275W        W98638  20.030  23.617   1.870
30276W        W98639  43.766  14.336  13.821
30277W        W98640  30.104  28.572   2.368
30278W        W98641  24.216   9.887  14.017
30279W        W98642  39.952  43.385   3.325
30280W        W98643   1.353  18.195  13.869
30281W        W98644  13.116   7.895   2.197
30282W        W98645  42.982   7.263   0.272
30283W        W98646  42.015  17.565  13.938
30284W        W98647  40.516  39.051   4.675
30285W        W98648  27.051   1.438   4.132
30286W        W98649  12.824  41.506   2.813
30287W        W98650  36.872  18.208   3.291
30288W        W98651  21.563  31.586  13.064
30289W        W98652   4.253  15.754   5.292
30290W        W98653  30.089   0.971   1.240
30291W        W98654  40.458  29.654   3.696
30292W        W98655  25.032  36.398   1.725
30293W        W98656  44.426  41.510  10.023
30294W        W98657  42.402  38.351   4.269
30295W        W98658  21.577  44.413   3.843
30296W        W98659  44.917  30.049  13.334
30297W        W98660  21.659  15.604   0.967
30298W        W98661   3.870  15.791  11.104
30299W        W98662  21.557   1.838   3.690
30300W        W98663  24.212   7.899  10.555
30301W        W98664  39.530  11.288  12.002
30302W        W98665  10.199  11.700   1.757
30303W        W98666  33.975   0.382   2.733
30304W        W98667  31.119  20.036   4.200
30305W        W98668  31.024  26.487  13.386
30306W        W98669  11.713  38.441   2.230
30307W        W98670   4.908   6.350   1.757
30308W        W98671  38.491   7.732  13.474
30309W        W98672  20.710   6.687   3.810
30310W        W98673  21.072  18.758   0.934
30311W        W98674   1.792   5.803   4.178
30312W        W98675  41.017  31.023  13.048
30313W        W98676  38.497  42.377   1.443
30314W        W98677   3.298  24.125   0.476
30315W        W98678   2.919  33.403  12.942
30316W        W98679   2.737  10.158   3.338
30317W        W98680  37.058   5.891   3.343
30318W        W98681  34.594  36.551  13.527
30319W        W98682  26.487  32.130  10.410
30320W        W98683  44.472  35.942   0.291
30321W        W98684   6.235  29.452   3.653
30322W        W98685   1.878   7.343  12.412
30323W        W98686  27.062  11.139  12.049
30324W        W98687  36.946  35.490   0.328
30325W        W98688   2.843  34.601   3.808
30326W        W98689  23.068   8.772  12.401
30327W        W98690   5.831  38.847   1.924
30328W        W98691   6.251   1.824  12.509
30329W        W98692  37.841   5.354   2.185
30330W        W98693  26.700  16.257  12.959
30331W        W98694  33.582   1.811   5.292
30332W        W98695  40.447  26.099  11.443
30333W        W98696   7.198  29.527  11.012
30334W        W98697   7.736  28.628  13.387
30335W        W98698  34.484  35.941   1.377
30336W        W98699  16.180  24.719  13.393
30337W        W98700  43.461   2.310  14.340
30338W        W98701  29.590  38.989  13.396
30339W        W98702  28.959  40.862   2.729
30340W        W98703  14.815  18.259   3.282
30341W        W98704  40.943  34.486  10.489
30342W        W98705  28.530  28.522   1.360
30343W        W98706  28.485  15.777  11.580
30344W        W98707  10.168  31.476  12.532
30345W        W98708  43.962  24.571   1.351
30346W        W98709   4.349  40.453  13.033
30347W        W98710   1.819  24.634  13.005
30348W        W98711  41.014  19.630   2.236
30349W        W98712  29.115   6.184  11.902
30350W        W98713  18.134  12.730  11.999
30351W        W98714  10.734  31.058   2.836
30352W        W98715  30.424  16.173   2.365
30353W        W98716   4.218   0.919   0.842
30354W        W98717  40.859  33.416   2.221
30355W        W98718  21.018  16.292  10.419
30356W        W98719  23.530   9.359  10.957
30357W        W98720   2.822  18.587   1.754
30358W        W98721   8.307  43.764  14.454
30359W        W98722  30.072  24.697  13.370
30360W        W98723  16.098  26.137  10.454
30361W        W98724  36.357   6.724  14.797
30362W        W98725   3.456   4.334  13.454
30363W        W98726  10.761   7.391  12.394
30364W        W98727  13.299  10.293  11.101
30365W        W98728  31.008  29.099  14.897
30366W        W98729  43.844  39.520  11.978
30367W        W98730  14.257  35.463  14.943
30368W        W98731  34.410  14.106  12.404
30369W        W98732  38.479  35.923   3.866
30370W        W98733   9.885  27.005   3.653
30371W        W98734  21.071   8.664   1.707
30372W        W98735  40.307  43.799   2.184
30373W        W98736  11.265  20.042   3.221
30374W        W98737  30.150   6.812   1.345
30375W        W98738  19.220   4.820  14.024
30376W        W98739  37.567   0.397  12.391
30377W        W98740   6.836  27.106   1.814
30378W        W98741   2.400  35.544  12.985
30379W        W98742   9.308  28.552  11.098
30380W        W98743   6.197  16.608  14.947
30381W        W98744  23.550  42.966   1.720
30382W        W98745  43.452  39.439  13.875
30383W        W98746  33.099  20.138   3.227
30384W        W98747  30.968  24.580  14.864
30385W        W98748   0.836   9.763   3.821
30386W        W98749  37.867  34.553  11.552
30387W        W98750  18.228  26.500   1.326
30388W        W98751  25.471  35.874   2.361
30389W        W98752  14.647  30.420   0.819
30390W        W98753  19.167  33.118  13.035
30391W        W98754   7.296  36.482  14.776
30392W        W98755  42.909  13.620   1.791
30393W        W98756  24.684  30.654   3.253
30394W        W98757  44.437  30.094  14.489
30395W        W98758  33.972   9.887  11.875
30396W        W98759  20.678  35.050  14.365
30397W        W98760  29.431  38.334  14.813
30398W        W98761   1.265  42.883   2.330
30399W        W98762  42.880   3.806   0.900
30400W        W98763  43.929   6.221  14.376
30401W        W98764  40.027  39.471   2.318
30402W        W98765  15.146  45.000  13.322
30403W        W98766  24.072  40.808  13.930
30404W        W98767  20.661  31.954  13.832
30405W        W98768  28.459   3.830  12.015
30406W        W98769  25.995   1.863   0.905
30407W        W98770  29.992  43.954  13.813
30408W        W98771   9.261  42.466   3.743
30409W        W98772  17.249   0.839  13.803
30410W        W98773  31.617  26.555  12.986
30411W        W98774  16.811  28.501   3.340
30412W        W98775  31.436   7.374   0.473
30413W        W98776  22.090  18.206   4.159
30414W        W98777  42.303  44.335  14.430
30415W        W98778  36.362  31.919   1.776
30416W        W98779  42.973  44.786  13.404
30417W        W98780  14.738   7.226  10.436
30418W        W98781  43.767   0.925   0.364
30419W        W98782  19.722  28.462  14.892
30420W        W98783  25.651  12.235  13.953
30421W        W98784   3.416  38.055  13.321
30422W        W98785  16.175   0.465  13.545
30423W        W98786  38.487  26.596  12.349
30424W        W98787  14.120  44.975  13.537
30425W        W98788  42.841   4.784   4.215
30426W        W98789  29.165  32.567  12.353
30427W        W98790  24.201  32.481   0.335
30428W        W98791  15.224  24.627  10.417
30429W        W98792  39.984  20.269   0.790
30430W        W98793  44.489   3.318   3.715
30431W        W98794  33.469  29.125   5.085
30432W        W98795  26.658  37.435  13.879
30433W        W98796  41.310  38.364  13.358
30434W        W98797  23.113  29.433   2.356
30435W        W98798   7.344  16.207   2.321
30436W        W98799  37.938  14.107  13.932
30437W        W98800  15.306  28.594   2.816
30438W        W98801  39.862  42.463   4.293
30439W        W98802   4.875  27.029   0.423
30440W        W98803  31.038  43.423  12.027
30441W        W98804  40.848   5.815  14.856
30442W        W98805  33.562  12.736   3.824
30443W        W98806  38.499   9.355   1.762
30444W        W98807  35.054  38.865   3.680
30445W        W98808  18.645  21.208   3.730
30446W        W98809   1.241   0.793  12.013
30447W        W98810  37.436  19.222   3.301
30448W        W98811  37.951  28.115   4.158
30449W        W98812  43.844   4.338   2.774
30450W        W98813  36.568  13.306   1.261
30451W        W98814  12.175  34.965   0.746
30452W        W98815  34.406  20.679   1.230
30453W        W98816  29.565  14.665   4.299
30454W        W98817  32.894   1.851  14.477
30455W        W98818  13.174  13.680   1.405
30456W        W98819  23.666  29.996  14.843
30457W        W98820   2.334  31.003   0.350
30458W        W98821  39.991  27.975  13.811
30459W        W98822  34.068  17.631  14.863
30460W        W98823  40.331   2.438   3.767
30461W        W98824  35.362  20.611   2.269
30462W        W98825  19.125   9.238  14.343
30463W        W98826   5.284  40.491   1.229
30464W        W98827  26.692  14.804  10.915
30465W        W98828   0.367  32.534  11.596
30466W        W98829  42.915  16.161   2.366
30467W        W98830  11.151  19.547  12.866
30468W        W98831  15.743   8.354  14.467
30469W        W98832  10.176  33.624   1.249
30470W        W98833  35.971  29.932   3.797
30471W        W98834  37.975  38.998  12.014
30472W        W98835  27.095  20.075   1.329
30473W        W98836  34.974  34.953  10.052
30474W        W98837  35.387  21.678   1.726
30475W        W98838  19.755  43.981   1.283
30476W        W98839  34.917  13.178  10.605
30477W        W98840  30.923  39.383  13.420
30478W        W98841  25.983  36.542  11.006
30479W        W98842  23.023  21.698   1.390
30480W        W98843  25.481  22.732   1.271
30481W        W98844   0.362  14.774   3.320
30482W        W98845  38.948  13.744   4.704
30483W        W98846  16.658  10.784   0.253
30484W        W98847  19.120  34.485  12.094
30485W        W98848  18.125  44.369   1.865
30486W        W98849  36.930  37.003  14.988
30487W        W98850   5.714  40.968  12.451
30488W        W98851  35.021   1.870   0.728
30489W        W98852  23.089  27.013  14.760
30490W        W98853  33.508   2.272   4.332
30491W        W98854  27.597  11.861  12.552
30492W        W98855  17.281  36.505  13.322
30493W        W98856  13.778  14.094  12.515
30494W        W98857  13.691  29.166   1.856
30495W        W98858  38.464  15.713  11.473
30496W        W98859  24.555   0.303   0.956
30497W        W98860  39.408  18.602  12.987
30498W        W98861  44.951   8.776   2.879
30499W        W98862  21.664  41.007   2.791
30500W        W98863  21.222  37.357  11.449
30501W        W98864  44.924  44.434  11.020
30502W        W98865  19.695   5.890  13.969
30503W        W98866  23.689  16.222   1.868
30504W        W98867  26.020  33.507   1.213
30505W        W98868  26.573  33.499  13.385
30506W        W98869  28.138  15.147  11.584
30507W        W98870   7.416  27.477   2.810
30508W        W98871  40.873  16.255  14.968
30509W        W98872  20.551   3.924  11.381
30510W        W98873   8.173  16.158   3.174
30511W        W98874  33.579  12.765   2.724
30512W        W98875  10.778  44.879  10.451
30513W        W98876  21.019  28.639  12.066
30514W        W98877  39.317  32.006  11.868
30515W        W98878  17.098  18.620  14.959
30516W        W98879  41.950  15.663  13.022
30517W        W98880  16.791   6.267   4.776
30518W        W98881  13.732  31.131  10.555
30519W        W98882  13.261  34.601   3.758
30520W        W98883  30.944  42.782  14.942
30521W        W98884  36.498  36.446   3.194
30522W        W98885  22.646  36.442  12.360
30523W        W98886  31.076  22.579   4.628
30524W        W98887  18.202   5.765   0.890
30525W        W98888  36.401  39.314  14.958
30526W        W98889  23.711  28.077   4.311
30527W        W98890   4.763  32.137   3.349
30528W        W98891  28.123  17.622   1.219
30529W        W98892  33.951   1.313  14.461
30530W        W98893   9.712   0.300  13.326
30531W        W98894  37.372  27.458   4.687
30532W        W98895  17.182  30.650  14.840
30533W        W98896  13.187   9.343   3.210
30534W        W98897   5.248  41.343   0.432
30535W        W98898   7.242   8.365   1.934
30536W        W98899  17.099   2.871   4.608
30537W        W98900  16.163  42.312   3.367
30538W        W98901  42.485  30.430  13.513
30539W        W98902  18.183  13.837  14.381
30540W        W98903   5.324  41.929   3.657
30541W        W98904   1.295  43.792  14.393
30542W        W98905  30.568   9.803  11.978
30543W        W98906   7.176  33.048   0.758
30544W        W98907  18.708  38.915  14.775
30545W        W98908  35.018  43.380  11.112
30546W        W98909  14.253  16.692  14.386
30547W        W98910   7.722  25.096  14.356
30548W        W98911  17.567  19.100   2.415
30549W        W98912  27.686  23.638   4.838
30550W        W98913  16.250   1.845  14.370
30551W        W98914  31.056  38.549  13.409
30552W        W98915   6.423  35.458   4.730
30553W        W98916  39.052  10.355   0.313
30554W        W98917  30.120  41.993   2.820
30555W        W98918   2.940  24.177   0.257
30556W        W98919  37.345  30.514  14.336
30557W        W98920  44.451  14.620  12.372
30558W        W98921  39.825  23.099  14.394
30559W        W98922  44.384  31.956  12.485
30560W        W98923  27.011  17.751  10.910
30561W        W98924   2.900  23.122   2.217
30562W        W98925  27.141  23.528   1.212
30563W        W98926  11.736   4.790  14.812
30564W        W98927  31.130   2.246   4.629
30565W        W98928  13.707   5.255   1.224
30566W        W98929  44.386  19.245   2.368
30567W        W98930  29.008  18.717  14.504
30568W        W98931  14.195  30.559   2.885
30569W        W98932   7.242  43.937  10.509
30570W        W98933  40.507  38.074   3.347
30571W        W98934  20.675  13.244   4.255
30572W        W98935  40.330  39.498  13.881
30573W        W98936  21.680  36.458  14.429
30574W        W98937  15.139  13.783  12.492
30575W        W98938  39.393   9.728  13.360
30576W        W98939  13.294   9.198   4.212
30577W        W98940  44.757  34.517   4.291
30578W        W98941  31.084  14.712  13.812
30579W        W98942  29.517  17.661   3.201
30580W        W98943  19.194  17.574  11.028
30581W        W98944  31.929  39.432  13.531
30582W        W98945   8.178  33.891   2.287
30583W        W98946  33.606  23.021   5.115
30584W        W98947   9.346  20.255  11.464
30585W        W98948  36.381  32.944   1.379
30586W        W98949  11.829  19.073  14.014
30587W        W98950   5.861  21.191   0.801
30588W        W98951  41.807  30.412   2.664
30589W        W98952  43.309  36.543   2.760
30590W        W98953  40.995  28.028   3.805
30591W        W98954  20.220  42.896   1.343
30592W        W98955   2.873  32.016   1.297
30593W        W98956  34.089  34.435  13.967
30594W        W98957  36.863  39.339   3.316
30595W        W98958  43.769  25.583   0.734
30596W        W98959  39.001  20.100   0.776
30597W        W98960  33.098  44.318   3.324
30598W        W98961   1.886  26.073  13.415
30599W        W98962  39.012   3.790  12.038
30600W        W98963   8.163  14.166   1.337
30601W        W98964  35.501  35.103  11.986
30602W        W98965  16.800  39.426  13.054
30603W        W98966   0.864  25.490  14.969
30604W        W98967  42.976  23.170   1.391
30605W        W98968  23.126  18.783   0.401
30606W        W98969  23.534   0.974  13.402
30607W        W98970  17.236   9.198  12.069
30608W        W98971  36.885  35.569   1.880
30609W        W98972  36.397  12.259   0.942
30610W        W98973  22.568  29.529  13.412
30611W        W98974  28.075  37.409   4.179
30612W        W98975  16.315  25.015  11.954
30613W        W98976   9.192  41.375   3.290
30614W        W98977  26.506  44.258  13.371
30615W        W98978  22.556   4.913   3.832
30616W        W98979  27.599  23.201   0.358
30617W        W98980  32.135  40.980   1.373
30618W        W98981  26.057   0.434   4.233
30619W        W98982  36.381  12.750   3.841
30620W        W98983   2.431  12.176  10.529
30621W        W98984  14.772   3.264  11.920
30622W        W98985   8.403  24.068   0.772
30623W        W98986  30.589  28.631   0.306
30624W        W98987  10.274  39.913  12.833
30625W        W98988  28.102  20.247  10.905
30626W        W98989  12.301  15.753   0.804
30627W        W98990  21.720   4.390  14.451
30628W        W98991  24.042   9.740  14.786
30629W        W98992  14.699  19.049   2.406
30630W        W98993  24.218  11.359  10.529
30631W        W98994  10.800  22.520  10.115
30632W        W98995  25.711  34.013   4.779
30633W        W98996  15.820  32.141   4.246
30634W        W98997   5.362  10.223   0.765
30635W        W98998  12.294  31.137  13.391
30636W        W98999  13.776  37.488   3.764
30637W        W99000   1.770  24.203   0.328
30638W        W99001  43.766  10.685   0.847
30639W        W99002  18.678  37.512   3.657
30640W        W99003   4.299  43.940  12.343
30641W        W99004  28.160  41.014   1.706
30642W        W99005  38.030  16.284  14.865
30643W        W99006   0.763  23.561   1.870
30644W        W99007  29.125  26.534  13.989
30645W        W99008   0.285  44.917   3.290
30646W        W99009  25.139  28.017  14.315
30647W        W99010   5.333   0.943   0.804
30648W        W99011   0.828   7.191  12.370
30649W        W99012  35.578  35.095  13.334
30650W        W99013   4.399  20.109  12.891
30651W        W99014   5.345  11.218  13.817
30652W        W99015  21.749  17.603   4.734
30653W        W99016  30.476  44.774  12.452
30654W        W99017  36.559   6.765   3.668
30655W        W99018  11.833  30.047   4.753
30656W        W99019   8.679  24.573  13.431
30657W        W99020   4.309  25.596  13.336
30658W        W99021   5.349  15.694   3.643
30659W        W99022  15.311  44.963  10.634
30660W        W99023  30.041  14.624   4.290
30661W        W99024   0.463  34.014   4.306
30662W        W99025  36.930  34.424  12.470
30663W        W99026  20.258  15.225   0.263
30664W        W99027   5.306  25.707   4.165
30665W        W99028   6.271   6.717  14.956
30666W        W99029  36.470   4.275   0.811
30667W        W99030  37.521  20.161  10.930
30668W        W99031  35.065  21.685  12.564
30669W        W99032  44.925  13.671   2.353
30670W        W99033  34.417  21.160  13.968
30671W        W99034  29.565   9.365  12.904
30672W        W99035  39.956  12.357  13.455
30673W        W99036  32.896  36.444  13.949
30674W        W99037   6.276  44.359  14.011
30675W        W99038  14.178  23.097   4.636
30676W        W99039  20.237  27.962  14.428
30677W        W99040  44.883  33.523  12.033
30678W        W99041   7.704  13.324  11.443
30679W        W99042  18.144   5.375  13.510
30680W        W99043  43.414   8.386   4.116
30681W        W99044   7.358   8.859  11.461
30682W        W99045   7.370  11.766   1.934
30683W        W99046   7.805   0.254   3.706
30684W        W99047  28.155   5.728  12.442
30685W        W99048  41.321  33.407  12.342
30686W        W99049  16.171  38.465   0.893
30687W        W99050  41.864  29.627   2.358
30688W        W99051  13.117  31.150   3.855
30689W        W99052   0.821  15.268   0.349
30690W        W99053  25.557  19.554   2.786
30691W        W99054  25.551  22.178   4.680
30692W        W99055  24.168  37.068   3.850
30693W        W99056  38.365  44.842   4.214
30694W        W99057   4.759   8.184  14.911
30695W        W99058  13.749   9.838   0.247
30696W        W99059  31.456  19.158  13.377
30697W        W99060  13.645  40.026  10.589
30698W        W99061  33.509  33.110   2.757
30699W        W99062  28.949   7.710  12.554
30700W        W99063  40.339  22.708  10.161
30701W        W99064   3.831  23.095   4.142
30702W        W99065  27.463  33.421   3.853
30703W        W99066  12.664  18.180   3.862
30704W        W99067  24.057  35.961   0.411
30705W        W99068  28.526  25.075   4.604
30706W        W99069  33.593  32.927  13.908
30707W        W99070  36.537   2.908   3.277
30708W        W99071  30.637   5.353   2.866
30709W        W99072  22.687  10.804  10.984
30710W        W99073  34.438  23.165  10.463
30711W        W99074  37.436   2.818   1.301
30712W        W99075  29.554  14.650  10.074
30713W        W99076  27.112  26.037   2.821
30714W        W99077  27.951  15.284   0.307
30715W        W99078   4.341  16.582   1.334
30716W        W99079  44.359   7.781   0.965
30717W        W99080  43.904  37.987  12.092
30718W        W99081  42.968  14.096  12.392
30719W        W99082  20.717   7.715   3.636
30720W        W99083  21.705  29.174   1.310
30721W        W99084  18.572  24.637   2.212
30722W        W99085  35.464  19.112  11.604
30723W        W99086   8.746  30.533   1.908
30724W        W99087  40.014  37.963  10.450
30725W        W99088  13.221   3.294   1.431
30726W        W99089  26.682  42.468  11.914
30727W        W99090  22.534   9.240  10.520
30728W        W99091  29.003   5.346   4.642
30729W        W99092   0.270  18.255  11.007
30730W        W99093  34.942  42.956  11.049
30731W        W99094  40.485  15.799   3.207
30732W        W99095  37.563  15.632   3.824
30733W        W99096  34.478  21.710  12.916
30734W        W99097  44.379  16.570   0.853
30735W        W99098   9.751  44.327   2.841
30736W        W99099  24.592  13.145   1.304
30737W        W99100  40.799  16.139   1.739
30738W        W99101  37.567  40.370  10.519
30739W        W99102  21.065  27.123   1.880
30740W        W99103  29.563  20.734   1.364
30741W        W99104  38.884  13.175  13.029
30742W        W99105  42.841  21.526   2.286
30743W        W99106   3.386  43.305  13.308
30744W        W99107  29.652  15.630  11.923
30745W        W99108  31.626  41.880  11.588
30746W        W99109  33.515  20.051  10.458
30747W        W99110  23.986  20.041   4.350
30748W        W99111  34.086  14.680   0.747
30749W        W99112   9.189   6.767  13.480
30750W        W99113  28.113  14.160  14.923
30751W        W99114  40.448  19.179   0.790
30752W        W99115   7.317  30.586   0.748
30753W        W99116  17.302   9.853   0.310
30754W        W99117  40.926  41.800  14.313
30755W        W99118  26.174  39.557   1.745
30756W        W99119  31.932   7.805  14.306
30757W        W99120  26.641  13.692   2.851
30758W        W99121  44.460  18.776   4.793
30759W        W99122  13.629  39.055   4.663
30760W        W99123  25.628  29.164   3.711
30761W        W99124  43.308  38.432   5.759
30762W        W99125   9.166  40.024   3.300
30763W        W99126   2.859  33.514   2.374
30764W        W99127  18.754  33.426  13.850
30765W        W99128  18.202  38.062  14.006
30766W        W99129  15.207  39.899  12.956
30767W        W99130  30.133  21.185  11.090
30768W        W99131   5.232   9.387  14.337
30769W        W99132  41.856  21.676   1.775
30770W        W99133  44.326  36.000  12.032
30771W        W99134  14.667   1.857   4.224
30772W        W99135  13.832  42.357   2.346
30773W        W99136  31.950  29.051  14.372
30774W        W99137  35.518  12.216   0.386
30775W        W99138   8.163  44.411  13.864
30776W        W99139  41.422  25.022   4.669
30777W        W99140  30.530   2.340   1.796
30778W        W99141   2.934   4.365  14.508
30779W        W99142  31.582   7.806  13.000
30780W        W99143  18.581   2.753  14.973
30781W        W99144  11.704  25.478   1.319
30782W        W99145  28.039  15.241   2.391
30783W        W99146  14.671  36.381  14.857
30784W        W99147  23.986  14.224   4.141
30785W        W99148   5.327   6.220   0.256
30786W        W99149  37.950  32.474  11.587
30787W        W99150  23.678  27.971   2.862
30788W        W99151  20.646   1.894  11.519
30789W        W99152  31.444  13.148  14.293
30790W        W99153  44.878   4.402   2.685
30791W        W99154   0.867  32.042   0.966
30792W        W99155   5.270  38.560   1.798
30793W        W99156   3.400  20.161  10.892
30794W        W99157   5.305   3.911   3.741
30795W        W99158  28.120   4.367   1.320
30796W        W99159  11.733  40.906  12.886
30797W        W99160  16.087  34.573  13.832
30798W        W99161  29.103  26.109  10.501
30799W        W99162  20.702  10.744   1.810
30800W        W99163  17.564   8.206   1.793
30801W        W99164  13.620  30.155   3.799
30802W        W99165   9.774   8.762  12.831
30803W        W99166  22.056  11.336   2.367
30804W        W99167   5.218  25.043  12.541
30805W        W99168   2.444   6.335   1.839
30806W        W99169  10.743  44.434  14.321
30807W        W99170  43.400  12.725  10.001
30808W        W99171   6.819   0.297   2.821
30809W        W99172  36.438   3.851   1.424
30810W        W99173   5.309  30.112  11.901
30811W        W99174  12.774   1.882  13.355
30812W        W99175  10.269   3.921   4.598
30813W        W99176  38.339  18.741  10.595
30814W        W99177  35.566  23.650  11.394
30815W        W99178  19.167  16.715   2.189
30816W        W99179  31.069  44.940   2.206
30817W        W99180   6.888  30.154  14.311
30818W        W99181   0.269  15.663   3.288
30819W        W99182  13.772  31.559  11.609
30820W        W99183  10.224   0.936  14.286
30821W        W99184  39.936   0.903  12.886
30822W        W99185   2.877   5.417   4.293
30823W        W99186   3.349  35.594  12.535
30824W        W99187  44.457  26.541  10.488
30825W        W99188  33.076   7.853   3.761
30826W        W99189  26.189   3.379   1.914
30827W        W99190  39.035   0.282  13.043
30828W        W99191  25.058  17.201   2.855
30829W        W99192  14.794  11.238  13.819
30830W        W99193  22.175   4.827  12.064
30831W        W99194   9.395  33.092   0.843
30832W        W99195  28.637   2.376   3.798
30833W        W99196  16.164  43.783  11.533
30834W        W99197  39.979  34.477   4.735
30835W        W99198  17.623  44.400  11.454
30836W        W99199  23.515  25.199   3.197
30837W        W99200   1.339  21.104   4.695
30838W        W99201  35.961   5.407   4.708
30839W        W99202  21.099  43.976  10.470
30840W        W99203  34.427  12.689   0.943
30841W        W99204  19.207  29.474   0.412
30842W        W99205   8.354  39.809   0.324
30843W        W99206  22.530   2.917  11.100
30844W        W99207  42.879   2.849   4.621
30845W        W99208  22.687  44.501   4.279
30846W        W99209  14.102   4.731  12.068
30847W        W99210  21.607   9.738   0.943
30848W        W99211  13.230   5.349   4.210
30849W        W99212  30.617  30.112   9.475
30850W        W99213   1.800  38.326   2.727
30851W        W99214   5.859  29.628   4.780
30852W        W99215  12.168   6.793   2.218
30853W        W99216  19.074  13.126   1.839
30854W        W99217  15.316  16.192   2.826
30855W        W99218  16.748  38.381  12.423
30856W        W99219  42.891   6.368   1.700
30857W        W99220  18.662  16.076   3.677
30858W        W99221  18.651   7.794  11.969
30859W        W99222   5.848  43.472  11.540
30860W        W99223   9.832  13.659   1.800
30861W        W99224   0.462   7.295   0.763
30862W        W99225  35.364   4.706   1.822
30863W        W99226  15.577  19.050  14.410
30864W        W99227  44.854  36.901   0.926
30865W        W99228  27.509  41.979   1.439
30866W        W99229  11.316  15.623   3.382
30867W        W99230  22.738  16.591  12.088
30868W        W99231   2.393   8.878   3.165
30869W        W99232   7.395  35.562  10.501
30870W        W99233   0.886  15.663  10.129
30871W        W99234  41.328   1.795  12.368
30872W        W99235  43.944   9.756  14.475
30873W        W99236  26.640   8.801   2.832
30874W        W99237  42.793  26.142   1.812
30875W        W99238  14.266  32.621   1.794
30876W        W99239   3.317  29.939   3.384
30877W        W99240  30.535  10.157   1.286
30878W        W99241   6.734  22.175   1.877
30879W        W99242  11.783  12.332   2.775
30880W        W99243   3.812  25.043   2.192
30881W        W99244  29.123  39.963   3.153
30882W        W99245  23.081  20.543  11.600
30883W        W99246  33.609   0.485  13.357
30884W        W99247   1.882   8.731   3.837
30885W        W99248  41.021   0.324   4.175
30886W        W99249  34.086   3.300   3.171
30887W        W99250  15.655  15.282   3.232
30888W        W99251  33.512  26.178   2.772
30889W        W99252  18.610  15.695  11.390
30890W        W99253  43.974  22.642  14.309
30891W        W99254  37.934  27.579   1.855
30892W        W99255  40.925  28.455   4.247
30893W        W99256  37.016  34.470  14.398
30894W        W99257  39.453  35.364  12.868
30895W        W99258  43.270  32.459  13.990
30896W        W99259  21.655  30.456   1.433
30897W        W99260   2.228  14.809   4.320
30898W        W99261  38.874   2.282  11.013
30899W        W99262  16.774  13.817   3.766
30900W        W99263  32.466  14.707   1.449
30901W        W99264  28.097  30.656  12.848
30902W        W99265  28.029  26.624   4.146
30903W        W99266   4.766  25.031   0.851
30904W        W99267  24.138  16.118   3.756
30905W        W99268  28.467  42.802   0.740
30906W        W99269  19.646  27.085  14.855
30907W        W99270  22.534   2.909   1.708
30908W        W99271  14.323  40.834  11.050
30909W        W99272  23.129   4.214   2.391
30910W        W99273  39.414   3.881  13.462
30911W        W99274  29.931  29.033  11.931
30912W        W99275   6.838  35.029  14.400
30913W        W99276  37.032  41.878   0.910
30914W        W99277  27.474  44.990   3.186
30915W        W99278  33.446  12.674   1.433
30916W        W99279  38.941  18.772  13.494
30917W        W99280   6.233  34.946   3.368
30918W        W99281  39.552   0.494  10.633
30919W        W99282  10.785  32.510   2.807
30920W        W99283   9.246   0.317   1.931
30921W        W99284   7.284  26.072  14.323
30922W        W99285   6.347  17.710  14.931
30923W        W99286  41.479  42.380  12.072
30924W        W99287  32.098  29.126  10.145
30925W        W99288  36.936  11.636   1.366
30926W        W99289  27.490  37.062   0.244
30927W        W99290  24.153  18.181  10.451
30928W        W99291   2.853  38.349   3.699
30929W        W99292  25.011  38.967   2.178
30930W        W99293  13.805   6.886   5.244
30931W        W99294  20.119  41.913  13.852
30932W        W99295  33.402  16.191  11.398
30933W        W99296  19.748  33.919   2.332
30934W        W99297  31.617  28.107   4.250
30935W        W99298  32.426  41.935   3.636
30936W        W99299  31.551  27.558   4.287
30937W        W99300  29.964  19.606   3.755
30938W        W99301  14.130   7.689   2.755
30939W        W99302  19.738  22.586   0.896
30940W        W99303  12.223  11.795   4.758
30941W        W99304  28.179  38.933  14.350
30942W        W99305  35.920  20.243   3.864
30943W        W99306  25.591  37.998  11.912
30944W        W99307  32.474   5.771   3.251
30945W        W99308  12.854  40.905   1.849
30946W        W99309  16.271  37.969  10.593
30947W        W99310  34.910   3.358  14.350
30948W        W99311   4.798   2.957   0.852
30949W        W99312   7.322  28.995  11.077
30950W        W99313  20.111  12.680  11.109
30951W        W99314  30.516  18.752  14.427
30952W        W99315   0.894  16.267   1.830
30953W        W99316  41.485  36.904   1.830
30954W        W99317  44.897   5.361   1.844
30955W        W99318   5.795  39.528   3.765
30956W        W99319  39.047   2.441  13.504
30957W        W99320  19.587  16.789  11.876
30958W        W99321  40.982  37.537  13.347
30959W        W99322  42.501  39.010   2.278
30960W        W99323   1.741  38.969  10.606
30961W        W99324  11.773  22.185  14.986
30962W        W99325  38.059  42.896  13.057
30963W        W99326  35.391  33.593   1.894
30964W        W99327  23.039   3.835  10.441
30965W        W99328  43.955  19.126   3.161
30966W        W99329  23.232  42.337  10.929
30967W        W99330  15.798  22.503   1.823
30968W        W99331  30.132  11.156  12.081
30969W        W99332  23.692  13.770   2.193
30970W        W99333   9.724  16.195  13.853
30971W        W99334  35.945  17.196   2.324
30972W        W99335  16.286  20.717  10.523
30973W        W99336  14.606  35.594   2.277
30974W        W99337  43.007  14.625   1.929
30975W        W99338  32.427  25.978  10.581
30976W        W99339   7.223   9.647  12.059
30977W        W99340   2.293   3.832  11.499
30978W        W99341  39.942  23.639   1.715
30979W        W99342  25.519  14.759  12.440
30980W        W99343  35.963  17.243  14.831
30981W        W99344  31.104  35.477   0.912
30982W        W99345   5.278   6.812   1.697
30983W        W99346  19.700  27.602   3.195
30984W        W99347  40.369  43.934  11.076
30985W        W99348  36.520  11.156   0.449
30986W        W99349  11.219  24.581  12.023
30987W        W99350   8.865   4.426   2.796
30988W        W99351  10.647   4.774   2.311
30989W        W99352   4.429  12.633   3.742
30990W        W99353  27.550  33.889  11.889
30991W        W99354   5.344  19.112  12.953
30992W        W99355  19.072   3.919   1.281
30993W        W99356  31.430  20.709   4.713
30994W        W99357  30.060  36.868   0.959
30995W        W99358   7.201  25.129  12.833
30996W        W99359  41.307   5.828  12.353
30997W        W99360  29.114   9.333  13.997
30998W        W99361  15.644  18.148   0.827
30999W        W99362  35.503   8.705  14.878
31000W        W99363  27.505   7.705  12.541
31001W        W99364  20.718   2.284  13.906
31002W        W99365   7.681  20.058  14.905
31003W        W99366  10.769  28.154   4.782
31004W        W99367  26.680  41.490  14.385
31005W        W99368  34.398   0.918   4.271
31006W        W99369   6.718   3.360   2.779
31007W        W99370  20.768  21.114  10.604
31008W        W99371   0.871  16.668   1.870
31009W        W99372  36.959  17.575   3.787
31010W        W99373  25.171   6.705   1.421
31011W        W99374  32.084  38.883  11.124
31012W        W99375   0.964  43.949  13.439
31013W        W99376  43.494  12.122  11.908
31014W        W99377  26.632  44.918   1.366
31015W        W99378  12.851  44.261   0.780
31016W        W99379  42.781  23.183   2.332
31017W        W99380  40.833   1.977  13.002
31018W        W99381  13.699  14.795  10.991
31019W        W99382  20.212  16.672   3.212
31020W        W99383   0.836  14.678   2.291
31021W        W99384  22.677  13.750  14.381
31022W        W99385  33.955  15.148   4.671
31023W        W99386  11.284  42.400  11.961
31024W        W99387  24.045  15.606   3.323
31025W        W99388  19.566  42.280   2.847
31026W        W99389  16.108   1.811  13.316
31027W        W99390  41.864   4.314  12.470
31028W        W99391  44.352  31.079   4.295
31029W        W99392  40.433  25.681   3.756
31030W        W99393  26.496   0.331  10.533
31031W        W99394   7.697  36.421   2.180
31032W        W99395   8.236  21.543   3.684
31033W        W99396  35.597  14.650   4.154
31034W        W99397  16.232  14.268   3.215
31035W        W99398   9.763  12.355  12.067
31036W        W99399  29.044  23.084  11.560
31037W        W99400  29.002  44.287   3.726
31038W        W99401  36.878  39.953   3.150
31039W        W99402  32.055  26.074   4.809
31040W        W99403  15.791  41.424  12.451
31041W        W99404  17.197  17.184   0.909
31042W        W99405   7.859  35.393  13.360
31043W        W99406  43.374  44.407  11.409
31044W        W99407  24.536  44.410  12.053
31045W        W99408  11.312   8.852   4.836
31046W        W99409  12.253  39.424  13.943
31047W        W99410  43.320  31.925  11.520
31048W        W99411  29.122  37.535  10.589
31049W        W99412  15.706   0.279   2.249
31050W        W99413  31.929  33.023  11.389
31051W        W99414   0.402  30.975  12.470
31052W        W99415  13.657  27.658  11.923
31053W        W99416  37.013   1.323   3.744
31054W        W99417   9.821  10.142  11.972
31055W        W99418  18.143  16.577  13.382
31056W        W99419  14.667  24.577   0.791
31057W        W99420  14.696  38.336   3.256
31058W        W99421  37.972  11.371  11.025
31059W        W99422  29.578  40.946  11.420
31060W        W99423  43.944  32.513   0.479
31061W        W99424  28.953  14.803  14.884
31062W        W99425  17.743   4.858  13.954
31063W        W99426  28.448  44.265   3.157
31064W        W99427  14.247   6.687   5.244
31065W        W99428   5.747  34.025   0.823
31066W        W99429   8.897  14.619  14.796
31067W        W99430  31.564  16.661   0.919
31068W        W99431  35.369   9.236   4.214
31069W        W99432  23.601  24.538  11.452
31070W        W99433  31.036  17.679   1.401
31071W        W99434  35.384  43.960   4.271
31072W        W99435  18.697  32.622   0.253
31073W        W99436  15.219  14.816   4.179
31074W        W99437  28.027  21.586  13.488
31075W        W99438   3.867   3.405  13.800
31076W        W99439   1.789   9.361   1.864
31077W        W99440  27.094  39.911   0.758
31078W        W99441  20.074  33.597  14.387
31079W        W99442  20.578  36.845   4.196
31080W        W99443  19.125  13.260  14.372
31081W        W99444  36.968  14.592   1.288
31082W        W99445  21.745  42.427  14.455
31083W        W99446  25.216  21.668   0.319
31084W        W99447  32.483  36.991   0.408
31085W        W99448  15.099  36.347   0.961
31086W        W99449  24.623  24.540  13.487
31087W        W99450  20.229  38.366  14.924
31088W        W99451   6.777  41.969   2.274
31089W        W99452   4.309  26.543   3.636
31090W        W99453  11.152  28.587   1.383
31091W        W99454  17.150   7.273   5.240
31092W        W99455  17.122   3.937  11.601
31093W        W99456  26.035   5.823  11.911
31094W        W99457  31.638  30.503   2.825
31095W        W99458  11.244  34.549  12.924
31096W        W99459   0.834  32.904  11.551
31097W        W99460   0.907  40.325  14.409
31098W        W99461   9.763  15.101   0.429
31099W        W99462  33.586  18.766   0.316
31100W        W99463  10.185  43.299   4.246
31101W        W99464   8.846  20.205   0.939
31102W        W99465   3.332  39.991   2.900
31103W        W99466  35.101   6.811  13.395
31104W        W99467   6.800  28.103   2.348
31105W        W99468   9.308   6.732   2.245
31106W        W99469  13.675  44.395   0.392
31107W        W99470  30.574   3.436  14.784
31108W        W99471  38.423  35.946   1.781
31109W        W99472  10.746  31.486  14.957
31110W        W99473  30.048  19.267   4.715
31111W        W99474  32.016   6.200  14.360
31112W        W99475   6.386  41.534  10.150
31113W        W99476  23.109  21.047  14.500
31114W        W99477  15.104  27.137   1.376
31115W        W99478  17.729  37.336   3.242
31116W        W99479  29.966  32.932  11.414
31117W        W99480  12.216  44.489   1.223
31118W        W99481   2.342  27.990  11.888
31119W        W99482  35.996  11.761   2.879
31120W        W99483  24.135  37.567  14.305
31121W        W99484  18.129  36.064  12.511
31122W        W99485  29.624  39.427   1.817
31123W        W99486  16.147  11.768   1.358
31124W        W99487  30.984  42.481   1.917
31125W        W99488   2.443  19.143  13.367
31126W        W99489   9.723  40.548   2.278
31127W        W99490  19.039  42.329   1.775
31128W        W99491  39.896  19.044  11.509
31129W        W99492  26.510  27.516  13.791
31130W        W99493  38.561  23.236  10.552
31131W        W99494  30.549  38.978   3.362
31132W        W99495  23.719  25.618  11.071
31133W        W99496  15.654  40.047   5.242
31134W        W99497  21.187   4.291  14.997
31135W        W99498  36.566   3.424  10.887
31136W        W99499  26.971  41.398   4.204
31137W        W99500  23.155  36.423  11.067
31138W        W99501  17.766  42.874   1.233
31139W        W99502  14.772   2.721   9.515
31140W        W99503  22.655  43.308   0.451
31141W        W99504  20.220  14.113  11.532
31142W        W99505  17.167  22.047  14.398
31143W        W99506  11.135  15.111  13.859
31144W        W99507  28.102  11.841   3.304
31145W        W99508   0.965  20.030  13.477
31146W        W99509  36.092  34.110   1.895
31147W        W99510  22.157  41.880  11.480
31148W        W99511  22.649  16.263   3.763
31149W        W99512  12.311  33.511  11.388
31150W        W99513  12.694  40.048   2.802
31151W        W99514  19.134  24.658   1.368
31152W        W99515  36.056   8.673   0.244
31153W        W99516  20.187   3.851   4.785
31154W        W99517   0.255   5.385   3.332
31155W        W99518   6.259  17.693  10.908
31156W        W99519  26.539  13.206   1.841
31157W        W99520  34.117  31.425  11.518
31158W        W99521  31.034  31.028  14.365
31159W        W99522   3.433  29.065   3.815
31160W        W99523   4.408  37.524  12.901
31161W        W99524  29.484  24.981  12.061
31162W        W99525  17.285   3.307  12.510
31163W        W99526  38.461  14.237  11.944
31164W        W99527  32.622  44.443  10.613
31165W        W99528  34.020  29.523   4.233
31166W        W99529  16.129  25.070  12.426
31167W        W99530   6.314  25.157  11.874
31168W        W99531   0.970  41.791   4.129
31169W        W99532  27.960  39.549  14.851
31170W        W99533   3.258   3.302   3.734
31171W        W99534  42.829  13.627  11.592
31172W        W99535  11.724  23.077   4.662
31173W        W99536  15.666  38.490  12.530
31174W        W99537  32.120  29.555  13.849
31175W        W99538  22.137  11.847  11.429
31176W        W99539  32.006   6.188  12.397
31177W        W99540  12.182  13.610  11.926
31178W        W99541  29.604   2.317   0.284
31179W        W99542  40.305  24.172  14.312
31180W        W99543  29.118  17.680   0.354
31181W        W99544  11.627   1.323  12.975
31182W        W99545  41.463   2.377   3.336
31183W        W99546  17.158  12.157  11.997
31184W        W99547  41.992  19.052  13.933
31185W        W99548  23.497  23.014   0.270
31186W        W99549  12.173  12.809  13.309
31187W        W99550  17.659  27.531   2.242
31188W        W99551  11.719  34.541  11.441
31189W        W99552  42.342   7.325  14.489
31190W        W99553  21.053  25.596   2.812
31191W        W99554  44.399  22.711   0.253
31192W        W99555  31.531  35.995  13.842
31193W        W99556  17.146   4.742  13.490
31194W        W99557  40.973   4.831   3.773
31195W        W99558   8.767  21.199  10.133
31196W        W99559  44.422  37.391   4.255
31197W        W99560  36.525  13.146  12.382
31198W        W99561  14.100   3.902  13.544
31199W        W99562  12.722   8.206  12.965
31200W        W99563  43.387   3.313   3.243
31201W        W99564   0.914   1.422  13.427
31202W        W99565  28.570  30.613   0.875
31203W        W99566  30.540  42.795   2.396
31204W        W99567  17.071  34.374   9.942
31205W        W99568   2.256  21.253  13.367
31206W        W99569  35.438  27.668  11.991
31207W        W99570  10.224  16.802  10.520
31208W        W99571  34.927  23.695  13.944
31209W        W99572  32.500  26.614   0.477
31210W        W99573  33.127  28.615  10.147
31211W        W99574  22.249  14.206  10.491
31212W        W99575  29.013   2.740   2.718
31213W        W99576   8.401   1.366   3.788
31214W        W99577  23.586   8.685   0.483
31215W        W99578  38.942  17.560   0.277
31216W        W99579  37.975  44.772  12.537
31217W        W99580  12.644   0.275   0.731
31218W        W99581  16.217   5.300   0.328
31219W        W99582  20.653  36.519   4.766
31220W        W99583   6.753  41.344  13.399
31221W        W99584  25.531   7.346   3.792
31222W        W99585  32.915   2.271   2.811
31223W        W99586  20.067  41.364   0.462
31224W        W99587  12.293  19.189   3.386
31225W        W99588  38.538  27.461  12.445
31226W        W99589  12.358  44.808  10.503
31227W        W99590  11.342  35.399  12.062
31228W        W99591  37.877  10.303   4.737
31229W        W99592  36.495  31.580  11.087
31230W        W99593   8.216  19.280   2.820
31231W        W99594  44.753  14.139   0.824
31232W        W99595  42.328   5.430   2.326
31233W        W99596  30.470  41.013   1.255
31234W        W99597  17.090   3.443   3.658
31235W        W99598  29.568  14.095  13.408
31236W        W99599  40.821  23.638   0.433
31237W        W99600  43.004   6.830  14.370
31238W        W99601  25.603   2.446  11.101
31239W        W99602  24.002  20.597   1.918
31240W        W99603  11.195  36.441  14.842
31241W        W99604   2.802  37.988  12.097
31242W        W99605   3.790  35.928   3.314
31243W        W99606   6.881   0.389  14.503
31244W        W99607  18.587  16.651   2.679
31245W        W99608  14.763  12.804  14.360
31246W        W99609  31.455  10.728  14.511
31247W        W99610  36.365  44.276  11.385
31248W        W99611   5.760  22.183  13.359
31249W        W99612  37.899  13.114  12.915
31250W        W99613  20.073  30.931  12.371
31251W        W99614  42.362  22.678  11.497
31252W        W99615   0.389  11.230   0.292
31253W        W99616  21.136  19.071   2.891
31254W        W99617  23.638  12.243   4.725
31255W        W99618  24.137  23.596   1.901
31256W        W99619   0.789   4.734  10.894
31257W        W99620  20.600   2.795   3.753
31258W        W99621  36.373  12.281  13.537
31259W        W99622  27.124   1.451  13.476
31260W        W99623  38.977  17.627   3.308
31261W        W99624  21.627  41.964   1.377
31262W        W99625  26.128  40.013   4.233
31263W        W99626  28.625  24.179  13.528
31264W        W99627  18.659  24.631  14.334
31265W        W99628   7.682  26.045   3.380
31266W        W99629   9.226  35.592  14.907
31267W        W99630  27.000  24.213   0.768
31268W        W99631  34.892  14.628  14.957
31269W        W99632  33.109   1.475   2.667
31270W        W99633  37.506   4.289   4.231
31271W        W99634  10.634  22.535  12.834
31272W        W99635   1.301  20.179  11.122
31273W        W99636   8.333  40.039   4.634
31274W        W99637  18.772  39.962  12.385
31275W        W99638  27.453  30.590   2.243
31276W        W99639  30.996  44.906  13.832
31277W        W99640  24.112  24.155  11.123
31278W        W99641   8.163   8.168   3.311
31279W        W99642   1.383  33.439  11.097
31280W        W99643  35.405  18.116  11.072
31281W        W99644   1.739   0.459   0.738
31282W        W99645  35.955   0.923  13.924
31283W        W99646   9.699  39.381  11.905
31284W        W99647  28.127   9.243   0.277
31285W        W99648  17.128   7.191  14.358
31286W        W99649  21.585  11.292  14.920
31287W        W99650  43.304  24.646   1.912
31288W        W99651  40.917  15.708  13.394
31289W        W99652  41.814  14.128   5.281
31290W        W99653  24.051   3.416  11.577
31291W        W99654  11.366  20.750   3.684
31292W        W99655  22.596  32.637   4.825
31293W        W99656   7.832  17.558   4.782
31294W        W99657  22.547  33.561   3.182
31295W        W99658  14.784  35.041   2.419
31296W        W99659  38.529  15.671  14.941
31297W        W99660  35.540  11.710   1.866
31298W        W99661  16.667  15.810   0.483
31299W        W99662  32.930  12.833   1.287
31300W        W99663  20.198  29.548   4.224
31301W        W99664  19.172  39.558   1.234
31302W        W99665   0.787  25.053  10.089
31303W        W99666  29.626  29.937   9.471
31304W        W99667  37.891  35.075   3.213
31305W        W99668  10.250   1.938  14.401
31306W        W99669  43.366  18.295   1.840
31307W        W99670  30.624   0.915  11.930
31308W        W99671  10.282  13.303   4.192
31309W        W99672  15.796  11.751   4.318
31310W        W99673  36.565  33.625  10.018
31311W        W99674  44.890  44.895  11.890
31312W        W99675  41.377   8.780  13.524
31313W        W99676  14.732   3.768   2.414
31314W        W99677  36.976   7.220  11.066
31315W        W99678  40.435  15.202  13.372
31316W        W99679  30.110  42.344   4.778
31317W        W99680   9.706  30.501   0.484
31318W        W99681   4.884   1.796  13.891
31319W        W99682  36.018  31.014  12.405
31320W        W99683  38.843  31.102   1.736
31321W        W99684  23.061  12.264  11.470
31322W        W99685  20.574  21.074   3.380
31323W        W99686  10.198  18.159  11.483
31324W        W99687   5.382  39.472  12.844
31325W        W99688  33.474   3.362  13.979
31326W        W99689  38.558  30.651  14.888
31327W        W99690   2.956  44.360   1.448
31328W        W99691   6.308  41.519   3.384
31329W        W99692  32.505  29.020  12.496
31330W        W99693  32.096  14.595  11.054
31331W        W99694  41.476  26.071   0.369
31332W        W99695  35.467   4.921  14.963
31333W        W99696   4.360   9.174  12.360
31334W        W99697  10.358  12.137   1.340
31335W        W99698  12.721  37.947   3.786
31336W        W99699  19.763  11.845   0.928
31337W        W99700  32.904  14.173   3.295
31338W        W99701  39.982  36.353   3.201
31339W        W99702  36.478  42.887   1.336
31340W        W99703  29.543  33.439   1.315
31341W        W99704  24.219  30.131  14.023
31342W        W99705   7.189  35.570  13.376
31343W        W99706  25.141   0.395  11.512
31344W        W99707  31.025  44.961   4.813
31345W        W99708  10.757  40.312  13.958
31346W        W99709  12.158  34.545  12.389
31347W        W99710  21.236  30.137  11.099
31348W        W99711  20.544  27.664   0.301
31349W        W99712  16.151  19.229   2.271
31350W        W99713   2.920  25.180   4.772
31351W        W99714  40.833  25.626  12.563
31352W        W99715   6.805  42.489   4.183
31353W        W99716   5.334  17.765  13.377
31354W        W99717   9.735  29.541   3.324
31355W        W99718  20.553   0.488  11.376
31356W        W99719  27.549  25.585  11.395
31357W        W99720   9.315  35.887   1.827
31358W        W99721  24.581   5.827  11.894
31359W        W99722  38.406  23.168   1.820
31360W        W99723  21.550  39.009   3.805
31361W        W99724  34.606  22.625   2.784
31362W        W99725  33.917  19.720  12.978
31363W        W99726  41.530  15.324  13.897
31364W        W99727   2.858  32.081  12.082
31365W        W99728  43.323  15.207  14.374
31366W        W99729  29.584   0.387  12.504
31367W        W99730   9.652  20.636  13.037
31368W        W99731   9.720  27.950   4.827
31369W        W99732  34.372   3.295   2.687
31370W        W99733  26.677   6.857  12.993
31371W        W99734   9.259  36.889  12.556
31372W        W99735  42.339  27.029  12.432
31373W        W99736   3.225  22.525  11.026
31374W        W99737  27.669  11.186  11.985
31375W        W99738  42.499   3.948  10.536
31376W        W99739  28.542  14.669  12.001
31377W        W99740  30.463  24.599  12.564
31378W        W99741  29.624  11.812   4.150
31379W        W99742  41.823  17.712  10.517
31380W        W99743  13.260  38.833   3.147
31381W        W99744  30.574  38.885   4.722
31382W        W99745  24.709  36.538  13.448
31383W        W99746   0.401  36.428   3.831
31384W        W99747  13.818  17.095   1.844
31385W        W99748  23.042  24.061   0.753
31386W        W99749  10.279  28.080  13.466
31387W        W99750  30.140  23.509  10.919
31388W        W99751  26.697  23.084   3.851
31389W        W99752  30.491  31.498   3.858
31390W        W99753  13.289   7.267   0.466
31391W        W99754  19.110  35.512   4.743
31392W        W99755  22.148  23.600   0.337
31393W        W99756  31.458  40.474   0.879
31394W        W99757  32.123  36.506  14.817
31395W        W99758  19.260  14.768   0.398
31396W        W99759   5.247  36.546   2.264
31397W        W99760  43.014   0.898  13.953
31398W        W99761  21.630  19.277   2.337
31399W        W99762  23.055  10.163   1.278
31400W        W99763  16.794  39.040   2.376
31401W        W99764  21.754  30.096   2.671
31402W        W99765   9.154  32.938   1.277
31403W        W99766  33.068  25.631   2.845
31404W        W99767  13.121  38.523   4.687
31405W        W99768  41.823  29.625   3.857
31406W        W99769   9.646  28.048  13.911
31407W        W99770  39.952   2.946  11.919
31408W        W99771  12.617  11.216   2.712
31409W        W99772  16.301  13.759   0.447
31410W        W99773  35.095   9.837  13.480
31411W        W99774  30.023  18.210   3.744
31412W        W99775  13.308  19.280   0.823
31413W        W99776  37.063  19.099   0.733
31414W        W99777   4.936  15.101   2.819
31415W        W99778  41.454  40.843   3.307
31416W        W99779   4.219   1.291   1.835
31417W        W99780  41.489  29.091  11.541
31418W        W99781   0.259  42.975  11.426
31419W        W99782  11.755  42.343  14.885
31420W        W99783  41.312   0.872   0.947
31421W        W99784  13.747   9.827   1.764
31422W        W99785  13.351   9.645   0.393
31423W        W99786  39.463  37.365  14.385
31424W        W99787  14.647   5.872   2.751
31425W        W99788  21.628  34.461   2.265
31426W        W99789  10.642  31.503  13.006
31427W        W99790  36.913  38.362  11.119
31428W        W99791   5.916  16.082   0.774
31429W        W99792  11.866  41.028   3.652
31430W        W99793  40.991  29.957   3.300
31431W        W99794   0.819  25.499  10.994
31432W        W99795   3.832  13.190  14.786
31433W        W99796  11.347  23.188   0.962
31434W        W99797  37.406   7.729   2.683
31435W        W99798  36.021  12.196   0.314
31436W        W99799  11.719  27.452   0.268
31437W        W99800  14.675  20.688  11.112
31438W        W99801  28.066  40.309   2.363
31439W        W99802  10.229   6.829   0.277
31440W        W99803  25.980   4.943  12.345
31441W        W99804  26.988  11.169   1.794
31442W        W99805  18.694  24.615  13.517
31443W        W99806  40.004   1.810  14.375
31444W        W99807  10.857  15.206   1.777
31445W        W99808  35.963   1.833  14.903
31446W        W99809  33.960  35.495  14.947
31447W        W99810  37.529   4.721  14.402
31448W        W99811  39.548   4.406   2.825
31449W        W99812  10.306  44.475   2.254
31450W        W99813  15.192  15.741   0.355
31451W        W99814  36.480  11.711   3.306
31452W        W99815  22.176  23.117   1.916
31453W        W99816  35.491  10.733   0.297
31454W        W99817  44.824   6.182   0.760
31455W        W99818  44.869   8.756  10.582
31456W        W99819  30.549  37.392   5.091
31457W        W99820  19.174   4.911   4.768
31458W        W99821  39.823  39.507   4.612
31459W        W99822  33.054  35.871   4.728
31460W        W99823  35.464   0.802   1.407
31461W        W99824  37.063  24.057   3.155
31462W        W99825  35.943  19.225   0.409
31463W        W99826  16.237  15.089  10.027
31464W        W99827  11.856  32.918   1.284
31465W        W99828  15.608  29.665   3.218
31466W        W99829  23.555  13.292  13.836
31467W        W99830  23.143  17.681  11.442
31468W        W99831  36.013  26.020  12.450
31469W        W99832  37.336  34.601  13.383
31470W        W99833  23.141  20.169  13.963
31471W        W99834  32.480   5.825   1.315
31472W        W99835  15.258  25.078   2.195
31473W        W99836  17.566  16.598   2.335
31474W        W99837  32.947  34.938   4.729
31475W        W99838  33.958  33.045  13.015
31476W        W99839  33.621  14.232   0.919
31477W        W99840  11.753  16.779  12.343
31478W        W99841  34.910  42.304   2.882
31479W        W99842  25.101  24.177   4.240
31480W        W99843   4.824  33.047   2.837
31481W        W99844  21.042  28.996   1.749
31482W        W99845  39.983   5.846  12.020
31483W        W99846  12.755   7.803   2.279
31484W        W99847   5.293  37.534   2.709
31485W        W99848  21.718   7.912  12.824
31486W        W99849  15.278  32.119  11.573
31487W        W99850  22.249   5.395  10.478
31488W        W99851  17.678  35.109  10.970
31489W        W99852   1.315  26.156   2.665
31490W        W99853   4.835  29.957  14.393
31491W        W99854  19.153   0.422  11.582
31492W        W99855  25.995   8.282  13.383
31493W        W99856  35.535  38.983  12.051
31494W        W99857  22.251  22.250   1.318
31495W        W99858  12.324   8.737  13.438
31496W        W99859   7.410   8.211  11.119
31497W        W99860   6.265   1.951  10.557
31498W        W99861  26.033  27.566   4.603
31499W        W99862   6.725   0.397  12.441
31500W        W99863  39.868  43.766  13.009
31501W        W99864  22.740  10.225  14.009
31502W        W99865  29.162  24.489  11.923
31503W        W99866  43.907  41.326   2.360
31504W        W99867  15.764   6.207  11.947
31505W        W99868  39.841  19.703   4.743
31506W        W99869  15.647   8.403   1.370
31507W        W99870  25.658  24.597  14.439
31508W        W99871  32.073  29.036   1.837
31509W        W99872   4.940  25.983  12.408
31510W        W99873   7.315   6.858   0.828
31511W        W99874  13.199  24.573  10.448
31512W        W99875  38.373  18.153   0.376
31513W        W99876  21.718   5.258  14.822
31514W        W99877  37.957  10.785   5.671
31515W        W99878   3.792  40.915  11.956
31516W        W99879  26.988  43.407  13.927
31517W        W99880   0.391  38.565   1.885
31518W        W99881  15.321   0.940  14.915
31519W        W99882  16.758  17.749  10.568
31520W        W99883  40.008  29.067  12.874
31521W        W99884  30.430  25.495   3.798
31522W        W99885  13.268  17.668  11.539
31523W        W99886   0.790  42.886   2.677
31524W        W99887   6.845  38.850  10.416
31525W        W99888  16.810  11.257  12.565
31526W        W99889  34.083   6.867   3.641
31527W        W99890  44.891  32.964  10.427
31528W        W99891  30.124  27.009  14.964
31529W        W99892   4.273  34.962  11.077
31530W        W99893  26.205  10.854  12.465
31531W        W99894  34.062  36.047  14.307
31532W        W99895  14.773  42.343  14.951
31533W        W99896   9.666   5.322   2.250
31534W        W99897  41.029  32.409   2.721
31535W        W99898   8.312  10.848  12.058
31536W        W99899  39.411   2.330  14.502
31537W        W99900  39.507  31.515  14.501
31538W        W99901   0.402  32.919  12.892
31539W        W99902  32.473  40.952   0.733
31540W        W99903  10.315  11.622  10.435
31541W        W99904   7.796   3.450   4.294
31542W        W99905  14.114   6.879   3.826
31543W        W99906  43.793  21.704   0.900
31544W        W99907  34.445  23.666  14.355
31545W        W99908   3.393   2.818  13.442
31546W        W99909  29.483  10.705  10.508
31547W        W99910  16.672  31.130   1.752
31548W        W99911  27.685  44.382   0.408
31549W        W99912  42.842   3.751  14.880
31550W        W99913  34.610  26.056   3.797
31551W        W99914  38.977   8.222   1.325
31552W        W99915  33.006  31.453  12.956
31553W        W99916  25.493   1.398  10.424
31554W        W99917   4.223  28.138   1.393
31555W        W99918  44.285   7.248  13.462
31556W        W99919  26.122   0.448   2.896
31557W        W99920  34.082  31.539   4.271
31558W        W99921  43.994  30.604   4.750
31559W        W99922  28.640  26.989   3.661
31560W        W99923  23.664  39.444   2.714
31561W        W99924  29.994  18.101  13.847
31562W        W99925  34.060  12.238   1.434
31563W        W99926  35.055  42.999   1.233
31564W        W99927  40.498  10.299  12.453
31565W        W99928  38.022  29.444  14.437
31566W        W99929  33.066  25.061  13.368
31567W        W99930  39.408  33.626   1.394
31568W        W99931  41.800   2.307   2.745
31569W        W99932  29.025   9.379   0.870
31570W        W99933   1.933  10.203  11.508
31571W        W99934  33.477  27.530   5.084
31572W        W99935  31.896   8.682  13.828
31573W        W99936  13.193  12.797  12.961
31574W        W99937  32.028   1.969   4.278
31575W        W99938  31.588  33.126  12.459
31576W        W99939  14.166  36.521   4.780
31577W        W99940   1.340  32.126  11.378
31578W        W99941  21.512  19.636  12.554
31579W        W99942  28.602  34.429   3.266
31580W        W99943  44.761  44.768   3.295
31581W        W99944  33.042   8.803   1.412
31582W        W99945  22.231  19.146   3.807
31583W        W99946  15.723   4.770  13.049
31584W        W99947  11.822  26.677   4.719
31585W        W99948   4.794  37.340  10.912
31586W        W99949  36.070  27.139   3.719
31587W        W99950  40.349   2.291  10.436
31588W        W99951  25.975  11.846   4.828
31589W        W99952  22.674  18.107   3.865
31590W        W99953  28.052  23.017  13.403
31591W        W99954  11.690  22.699   0.375
31592W        W99955   2.810   3.418  13.030
31593W        W99956  10.684  21.246   2.667
31594W        W99957  17.693  34.468   4.200
31595W        W99958  22.664  15.108   3.286
31596W        W99959  14.096  20.536  10.546
31597W        W99960  24.973  20.150  11.376
31598W        W99961  14.288  15.137   2.224
31599W        W99962  15.125   5.836  13.865
31600W        W99963  25.984  18.127   0.918
31601W        W99964  26.050  39.823  14.320
31602W        W99965   2.296  33.588  10.588
31603W        W99966  14.662   4.376   5.087
31604W        W99967  40.911  10.199  13.988
31605W        W99968  31.060  39.811  11.112
31606W        W99969  33.906   4.830  10.102
31607W        W99970  34.061  16.310  14.834
31608W        W99971  11.134   5.866  14.340
31609W        W99972  21.592  25.626   0.779
31610W        W99973  14.701  14.199  14.447
31611W        W99974  30.094  41.014   0.860
31612W        W99975  36.396  23.514  14.445
31613W        W99976   9.659  20.209   3.341
31614W        W99977   3.248   7.249   3.211
31615W        W99978  24.123  31.443  13.988
31616W        W99979  10.851  27.661  11.122
31617W        W99980   9.355  32.573   2.200
31618W        W99981  14.195  24.659  13.960
31619W        W99982  11.820  13.788  14.921
31620W        W99983   5.721  42.016   2.708
31621W        W99984  36.450   4.920   1.907
31622W        W99985  32.120   7.334   2.888
31623W        W99986   1.830   1.851   1.350
31624W        W99987   9.291  42.899   1.907
31625W        W99988  28.162  25.468   4.144
31626W        W99989   5.430  18.180   3.821
31627W        W99990   0.324   3.260  12.008
31628W        W99991  16.173  22.108   4.686
31629W        W99992  30.972  36.566  11.518
31630W        W99993  33.582  31.041  11.525
31631W        W99994  14.253  17.666  10.421
31632W        W99995  15.634  26.485   0.961
31633W        W99996  16.225  37.953  12.436
31634W        W99997   3.281  32.923   3.296
31635W        W99998   0.323   9.327  14.387
31636W        W99999  41.520  26.526   4.122
31637W        W    0  23.029   3.442   2.202
31638W        W    1  43.769   4.443  11.076
31639W        W    2  14.234  16.657   1.386
31640W        W    3  43.906  15.743   3.793
31641W        W    4  11.189  14.315   4.700
31642W        W    5  39.421  24.172  10.958
31643W        W    6  44.495  24.606  13.048
31644W        W    7  11.761  38.352  14.007
31645W        W    8  38.569  44.305   3.254
31646W        W    9   3.343  24.539   2.408
31647W        W   10  43.516  20.210   2.797
31648W        W   11  32.024  11.143   2.820
31649W        W   12  12.790  40.041  14.345
31650W        W   13  20.753   4.363  14.386
31651W        W   14  44.386  20.067   1.361
31652W        W   15   2.295  34.500   0.344
31653W        W   16   0.322  34.467  10.978
31654W        W   17  43.336  35.523   1.245
31655W        W   18  22.657  34.540   3.799
31656W        W   19  12.730  12.719   0.257
31657W        W   20  38.428   5.858  14.469
31658W        W   21   4.822   0.366  11.399
31659W        W   22  39.987  41.023   0.324
31660W        W   23  16.302   5.262   2.336
31661W        W   24  42.006   7.301  14.437
31662W        W   25   2.228   3.779   3.857
31663W        W   26   0.405   4.727  11.048
31664W        W   27  13.157  37.925  11.881
31665W        W   28  32.467   6.778   3.154
31666W        W   29  19.559  44.469  12.967
31667W        W   30  33.954  30.050  12.504
31668W        W   31  36.421   1.397   0.375
31669W        W   32  39.838  26.460   4.229
31670W        W   33   3.239  32.465  12.476
31671W        W   34  15.607   6.186  12.397
31672W        W   35  44.403  15.778   1.733
31673W        W   36  34.964  11.262  10.466
31674W        W   37  30.089  26.634   4.738
31675W        W   38  43.475  29.465  12.985
31676W        W   39  25.125  11.281   2.777
31677W        W   40  38.919  27.066   3.706
31678W        W   41  33.510  10.220   0.416
31679W        W   42  38.875  10.801  12.515
31680W        W   43  31.104  10.243  13.326
31681W        W   44  35.459  30.914  13.391
31682W        W   45  11.315   1.451  12.896
31683W        W   46  38.419  22.602  12.344
31684W        W   47  23.573  16.747   1.799
31685W        W   48  28.667  20.730  10.491
31686W        W   49  19.594  19.674  13.040
31687W        W   50  26.624  35.540  13.343
31688W        W   51  41.963  10.850   1.776
31689W        W   52  26.965  42.331  11.016
31690W        W   53  22.679  32.450   3.211
31691W        W   54  27.062  42.402   4.836
31692W        W   55  30.449  36.403  11.596
31693W        W   56  15.142  18.740   4.719
31694W        W   57  19.222  21.139  14.993
31695W        W   58   5.801  11.794   1.326
31696W        W   59   8.714  39.873  11.990
31697W        W   60  20.120  38.895   2.899
31698W        W   61   2.338  22.728   1.792
31699W        W   62  32.935  36.090   1.710
31700W        W   63  16.748  41.534   1.891
31701W        W   64  22.143  18.765   2.399
31702W        W   65  19.113  34.565  13.063
31703W        W   66  25.531  30.920  12.560
31704W        W   67  27.171  18.247  13.911
31705W        W   68   6.703   1.452  10.453
31706W        W   69  25.014  27.470   3.302
31707W        W   70   6.393   7.183   1.441
31708W        W   71   5.340  31.502   1.387
31709W        W   72  44.309  16.299   0.269
31710W        W   73   5.691  23.161  11.407
31711W        W   74  33.913   0.878  14.934
31712W        W   75  16.570  23.720   0.729
31713W        W   76  43.354  41.008  14.790
31714W        W   77   7.837   5.811   3.671
31715W        W   78  40.456   5.370  12.083
31716W        W   79  21.561  20.239   4.209
31717W        W   80  36.474  41.358  11.935
31718W        W   81  14.227  39.020   4.215
31719W        W   82   9.335   4.337   1.802
31720W        W   83  10.662   0.835  11.984
31721W        W   84  33.071  44.010  14.423
31722W        W   85  22.720  44.377  11.117
31723W        W   86   1.969   1.249   3.759
31724W        W   87  19.279  18.145   2.318
31725W        W   88  28.099  26.578  13.411
31726W        W   89   2.299  34.120  12.897
31727W        W   90  24.201  36.063   0.857
31728W        W   91   5.918  10.705  14.919
31729W        W   92  12.296   4.824   3.351
31730W        W   93   6.187  36.966   2.393
31731W        W   94  42.882  14.292  14.450
31732W        W   95  33.538  16.294  13.311
31733W        W   96  24.207  22.039  14.310
31734W        W   97  17.062  25.624   4.182
31735W        W   98  31.052   6.696  14.919
31736W        W   99  42.788  36.571   1.229
31737W        W  100   9.236  14.261  11.914
31738W        W  101  28.942  26.057   0.866
31739W        W  102  21.064   0.894  12.967
31740W        W  103  28.147  43.785  11.575
31741W        W  104   7.830  21.519   3.304
31742W        W  105  22.239  23.710  11.604
31743W        W  106   6.183  12.248   1.723
31744W        W  107  21.745  42.912  11.384
31745W        W  108  41.335  14.673   1.438
31746W        W  109  29.493  16.178  11.942
31747W        W  110  11.694  32.938  10.479
31748W        W  111  40.976   1.284  13.023
31749W        W  112   1.875   1.807  13.397
31750W        W  113  21.022  31.410  13.847
31751W        W  114  11.696  43.946   1.799
31752W        W  115   4.835  14.661  12.969
31753W        W  116  16.254   5.281   1.717
31754W        W  117   5.411  43.452  12.354
31755W        W  118  13.328  39.362  14.802
31756W        W  119  21.238  29.975  12.094
31757W        W  120   8.211  26.540  11.056
31758W        W  121  35.442  11.293   4.628
31759W        W  122  29.661   9.787  11.577
31760W        W  123  31.906  42.921   3.672
31761W        W  124  15.189  20.551   2.722
31762W        W  125  30.924  15.667  11.506
31763W        W  126  10.661  38.490   3.639
31764W        W  127  40.539  25.118   3.869
31765W        W  128  40.928  31.096   0.763
31766W        W  129  30.553  24.200  11.049
31767W        W  130  43.435  39.326  14.510
31768W        W  131  11.623  28.028  14.331
31769W        W  132  28.655  20.541   2.891
31770W        W  133   2.362  27.536   3.801
31771W        W  134  17.739  44.754  11.965
31772W        W  135  19.606  16.729  12.876
31773W        W  136   4.405  33.075  11.421
31774W        W  137   7.278   1.912  11.975
31775W        W  138   0.434  18.073  11.930
31776W        W  139  10.707  40.532  11.051
31777W        W  140  39.525  22.047  14.404
31778W        W  141   3.776  24.720   1.768
31779W        W  142  24.493  21.126   1.236
31780W        W  143  27.681  12.210   1.308
31781W        W  144  37.044  16.232   4.755
31782W        W  145  29.631  14.180  11.547
31783W        W  146   0.338  15.129   3.796
31784W        W  147  42.341   6.771  11.864
31785W        W  148  16.126  39.024  13.330
31786W        W  149   6.897  37.434  14.921
31787W        W  150   2.246  10.712  13.006
31788W        W  151  30.463   3.404  12.066
31789W        W  152   4.323  37.380  13.846
31790W        W  153   8.164  37.401   4.630
31791W        W  154  12.735  10.343  14.969
31792W        W  155  26.010  42.791  11.910
31793W        W  156  22.684  16.115  12.897
31794W        W  157  26.688  14.787   2.736
31795W        W  158  24.996  22.655  13.048
31796W        W  159  37.981   7.757  11.883
31797W        W  160  20.195  36.542   3.641
31798W        W  161  40.835  37.341  11.926
31799W        W  162  30.599  25.592  14.506
31800W        W  163  40.929  39.973   2.768
31801W        W  164  21.654  19.652   3.870
31802W        W  165  12.718  19.079   0.802
31803W        W  166   0.744  20.732  10.548
31804W        W  167  11.132  43.996   1.872
31805W        W  168  26.621   4.276  14.481
31806W        W  169  23.690  25.163   1.788
31807W        W  170  16.211   9.794  11.932
31808W        W  171  40.936   2.806  12.539
31809W        W  172  43.769  39.829   4.823
31810W        W  173  27.482  24.480   1.450
31811W        W  174  38.356  20.671   0.785
31812W        W  175  26.582  20.101  10.548
31813W        W  176   1.390  36.877   1.255
31814W        W  177  42.294  12.232   4.122
31815W        W  178  13.186  14.181  11.991
31816W        W  179  21.060  21.103   0.309
31817W        W  180  32.555  39.809   1.697
31818W        W  181  10.792  19.709   5.256
31819W        W  182  18.775  25.659   3.770
31820W        W  183  40.821  32.056  12.970
31821W        W  184   0.790  14.303  10.962
31822W        W  185   6.749  40.969   0.447
31823W        W  186  19.737  13.641  11.932
31824W        W  187  44.904  37.341  10.920
31825W        W  188  26.047  32.908  13.546
31826W        W  189   3.711  26.162   2.788
31827W        W  190   3.323  38.508   4.161
31828W        W  191  30.993  17.187  10.563
31829W        W  192  29.602   5.705  12.450
31830W        W  193   7.347  16.098   4.805
31831W        W  194  15.794  13.314  13.320
31832W        W  195   9.731  13.811   2.255
31833W        W  196  24.660  12.243   1.779
31834W        W  197  14.752  32.463  14.824
31835W        W  198  40.548   0.746   0.797
31836W        W  199   6.683  26.189   4.240
31837W        W  200  24.634  19.605   3.330
31838W        W  201  28.163  30.490  14.875
31839W        W  202  19.764   6.410  10.462
31840W        W  203  32.490  30.104   3.836
31841W        W  204  24.975   2.456  10.575
31842W        W  205  29.944  31.927   1.421
31843W        W  206  11.135  43.284  12.556
31844W        W  207   4.358  10.698   3.290
31845W        W  208  35.515  12.269  10.905
31846W        W  209  16.725  21.027  11.946
31847W        W  210   3.919   4.266   3.179
31848W        W  211  14.281   3.753   1.230
31849W        W  212  35.076  37.971  12.474
31850W        W  213  23.726  22.619  14.415
31851W        W  214  42.835  31.949  10.475
31852W        W  215  39.325  30.428   3.745
31853W        W  216   7.825  43.964   2.695
31854W        W  217  14.171  30.602   4.348
31855W        W  218  41.914  33.016   3.861
31856W        W  219  19.658   2.434   2.890
31857W        W  220  38.060  38.844   4.166
31858W        W  221  44.815  10.779  13.364
31859W        W  222  22.062  42.977   4.211
31860W        W  223  25.653   5.391  10.534
31861W        W  224   9.358   8.337  14.394
31862W        W  225   8.310  21.225  11.943
31863W        W  226   6.403  39.985   4.701
31864W        W  227  31.065   7.396  13.007
31865W        W  228  40.319  20.185   3.774
31866W        W  229  44.778  33.910  14.370
31867W        W  230  17.781  31.456  11.968
31868W        W  231   4.852  24.032  11.016
31869W        W  232  26.014   7.795   0.820
31870W        W  233  29.456  18.094   1.388
31871W        W  234  19.652  10.633   3.370
31872W        W  235  29.007  19.653   4.172
31873W        W  236  21.668  15.760  13.443
31874W        W  237  28.121  44.982  12.847
31875W        W  238   1.313  33.001  10.640
31876W        W  239  12.268  44.473  12.504
31877W        W  240  42.330   2.932   0.968
31878W        W  241  11.148  44.368   0.936
31879W        W  242  34.520   0.912   5.308
31880W        W  243  39.471  16.282   0.747
31881W        W  244  30.570  27.525  13.844
31882W        W  245  16.175  17.192   0.734
31883W        W  246  41.025  44.895   3.806
31884W        W  247  12.686  30.996   1.420
31885W        W  248  36.845   0.255   3.694
31886W        W  249   5.831  16.684   4.796
31887W        W  250   8.761  12.164   1.908
31888W        W  251  10.379  37.008   1.883
31889W        W  252  41.362  39.344  10.960
31890W        W  253  25.685  39.473  10.591
31891W        W  254  14.273  31.468  11.963
31892W        W  255   1.465  33.428  12.580
31893W        W  256   3.279  43.885  14.453
31894W        W  257  34.931   9.652  12.910
31895W        W  258   5.828  11.795  12.015
31896W        W  259  38.989  13.662   2.216
31897W        W  260   8.871  33.396  11.471
31898W        W  261   3.294  29.104  12.458
31899W        W  262  34.872  39.823   0.413
31900W        W  263  20.696  21.646  12.923
31901W        W  264  33.482   5.305   1.718
31902W        W  265  14.258  26.682   2.712
31903W        W  266  37.905  26.999  13.895
31904W        W  267  21.712  42.338  11.584
31905W        W  268  20.155   7.899   1.309
31906W        W  269  35.979  27.582   1.362
31907W        W  270  31.040  31.528  12.931
31908W        W  271  33.416  44.858  12.081
31909W        W  272  36.045   9.282  13.061
31910W        W  273  24.657  11.707  14.503
31911W        W  274  20.566   2.928   2.382
31912W        W  275   9.212  32.043  12.400
31913W        W  276  20.583   8.755   0.839
31914W        W  277  31.418   4.305  12.895
31915W        W  278  38.406   4.832   2.385
31916W        W  279  43.929  10.274  13.364
31917W        W  280  10.753  26.178   0.348
31918W        W  281  40.964  37.421   2.673
31919W        W  282  33.578  20.166   2.219
31920W        W  283  31.992   2.470   2.191
31921W        W  284  29.137   4.389  11.487
31922W        W  285  24.700  41.852   4.617
31923W        W  286  20.767  25.044  11.904
31924W        W  287  35.048  24.075   1.343
31925W        W  288   2.809  38.052   0.324
31926W        W  289  35.983  11.293  13.824
31927W        W  290  21.582  18.769   2.794
31928W        W  291  30.989  15.706   1.393
31929W        W  292  22.087  39.456   1.239
31930W        W  293   1.272  19.608   3.314
31931W        W  294  41.857  11.787  10.631
31932W        W  295   8.196  14.326   3.341
31933W        W  296  18.183  32.032  12.991
31934W        W  297  17.283  36.978   4.710
31935W        W  298  21.169   7.354   3.374
31936W        W  299  11.178  26.549  13.999
31937W        W  300  41.363  16.740   4.823
31938W        W  301   9.821   3.806  11.860
31939W        W  302   8.785  18.609   3.226
31940W        W  303   8.381  13.825  14.959
31941W        W  304  22.187  23.069  13.828
31942W        W  305   2.276  33.435   3.649
31943W        W  306  20.583  41.389   2.226
31944W        W  307  33.590  22.746   0.464
31945W        W  308   1.948  37.488  11.578
31946W        W  309  24.084  13.174   0.804
31947W        W  310  34.089  29.525   2.311
31948W        W  311  17.656   4.857   1.252
31949W        W  312  28.570   3.412  11.929
31950W        W  313  44.481  15.724  10.453
31951W        W  314  12.293  32.459  12.514
31952W        W  315   5.873  23.141   2.765
31953W        W  316  22.103  43.848  10.970
31954W        W  317  37.456  28.615  12.505
31955W        W  318  37.561  34.571   3.247
31956W        W  319  39.537  16.764  14.968
31957W        W  320   0.908  15.115  12.054
31958W        W  321  33.008  19.053   1.427
31959W        W  322  44.877  33.883  11.068
31960W        W  323   4.924  41.340  10.610
31961W        W  324  22.068  41.860  13.462
31962W        W  325  22.633   6.397  12.928
31963W        W  326  37.437  11.357   0.246
31964W        W  327  17.684  23.682   1.723
31965W        W  328   6.738  20.572   3.260
31966W        W  329   5.203  15.693   4.212
31967W        W  330   2.879  21.619  13.373
31968W        W  331  40.981  10.741   1.227
31969W        W  332  19.624  36.434  12.989
31970W        W  333  43.346  23.622   1.343
31971W        W  334  42.968   4.781  12.375
31972W        W  335  12.275  18.550  12.933
31973W        W  336  14.122  42.523  12.572
31974W        W  337   0.892  20.168   0.443
31975W        W  338  16.113  41.304  10.587
31976W        W  339   8.207  39.977  13.965
31977W        W  340   5.901  17.252  10.415
31978W        W  341  23.735  16.724   3.803
31979W        W  342  23.734  38.546  10.924
31980W        W  343   1.936  36.046  12.089
31981W        W  344  18.753  40.019   1.253
31982W        W  345   2.776  43.512   2.899
31983W        W  346  15.135  21.192   1.442
31984W        W  347  33.622  38.418  13.830
31985W        W  348  11.272  34.014   1.783
31986W        W  349   8.687  18.179   1.368
31987W        W  350   2.896   2.368  14.017
31988W        W  351  21.158  16.284   1.421
31989W        W  352  29.590  33.974   4.642
31990W        W  353  20.133  44.911   4.633
31991W        W  354   1.290  34.031  14.509
31992W        W  355  10.870  20.087   3.702
31993W        W  356  23.100  14.276  11.934
31994W        W  357  17.169   7.711  11.894
31995W        W  358  44.797  29.482  10.422
31996W        W  359  31.039  26.984  14.477
31997W        W  360  21.548  19.750  14.923
31998W        W  361  16.147  29.969   2.835
31999W        W  362   7.910  39.919   1.841
32000W        W  363   7.873  42.281  13.460
32001W        W  364  20.578  20.615  12.433
32002W        W  365  23.088  25.557   4.647
32003W        W  366  26.006   7.720   1.857
32004W        W  367  38.063  17.662   3.842
32005W        W  368   8.874  40.436  11.974
32006W        W  369  22.187  43.767   4.629
32007W        W  370  10.186   1.886   4.809
32008W        W  371  44.936  41.368  14.276
32009W        W  372  29.437  44.466  12.381
32010W        W  373  40.869   9.199   3.690
32011W        W  374  16.277   5.400   4.640
32012W        W  375   1.825   4.809  12.406
32013W        W  376  28.962  38.429   2.313
32014W        W  377   2.448  21.182  13.022
32015W        W  378  33.400  20.125   3.748
32016W        W  379   9.371  38.056  13.791
32017W        W  380  39.981  20.533   4.288
32018W        W  381  21.200  33.105  10.408
32019W        W  382   3.774   9.254   2.237
32020W        W  383   8.313  39.984  14.941
32021W        W  384  25.521   9.691  11.037
32022W        W  385  25.601  38.568  10.538
32023W        W  386   6.688   8.372  13.954
32024W        W  387  33.991  35.908   2.888
32025W        W  388   8.285  22.565   4.326
32026W        W  389  43.337  12.706   1.708
32027W        W  390  44.973  43.789   2.389
32028W        W  391   3.234  16.744   3.285
32029W        W  392  36.560  24.702   2.319
32030W        W  393  41.946  19.251   0.296
32031W        W  394  20.552   8.305   1.773
32032W        W  395  26.515  13.348  11.526
32033W        W  396  10.846   4.828  12.400
32034W        W  397  24.664   2.925   1.881
32035W        W  398  11.282   1.893   1.226
32036W        W  399  19.689   6.879   0.951
32037W        W  400   3.269  26.018  10.109
32038W        W  401   6.888  14.664  13.341
32039W        W  402  32.100  32.554   1.728
32040W        W  403  15.812  30.551  12.923
32041W        W  404  26.025  33.933   0.898
32042W        W  405  27.602  38.855   3.385
32043W        W  406  42.985   4.406  10.629
32044W        W  407  32.944  44.813  14.846
32045W        W  408  13.616  41.814  14.402
32046W        W  409  32.004  26.683  14.906
32047W        W  410  14.242  10.318  12.013
32048W        W  411  35.403  32.915  10.954
32049W        W  412   9.151  26.006  13.946
32050W        W  413  33.427  15.126   2.885
32051W        W  414  40.480  10.323   4.684
32052W        W  415  15.748  42.942  10.114
32053W        W  416   5.285  28.110  14.781
32054W        W  417  15.613  38.426  10.918
32055W        W  418  39.833   6.916   1.254
32056W        W  419   0.754  33.457   0.436
32057W        W  420  17.248  26.624   1.431
32058W        W  421  37.949  21.740  13.385
32059W        W  422  34.522  38.410  14.487
32060W        W  423  44.494   0.851  10.544
32061W        W  424  30.525  39.500   3.235
32062W        W  425   4.716  22.123   2.870
32063W        W  426  44.310  12.312  13.926
32064W        W  427  16.676  38.028   3.273
32065W        W  428  14.803  31.103  14.909
32066W        W  429  30.447  30.645   0.466
32067W        W  430  38.007   9.865   3.805
32068W        W  431  27.610  35.027   1.215
32069W        W  432  40.840  10.234   0.340
32070W        W  433  37.037  12.327   9.990
32071W        W  434  13.131  21.059   1.722
32072W        W  435  27.623  31.992  12.008
32073W        W  436  11.625  11.146  12.878
32074W        W  437   9.741   2.886  11.945
32075W        W  438  44.822  29.539   1.819
32076W        W  439  17.696  42.815  11.020
32077W        W  440  27.530  13.809   1.911
32078W        W  441   8.726  20.081  12.386
32079W        W  442  10.215  12.718   1.381
32080W        W  443  19.769   5.216   3.193
32081W        W  444  24.160  26.676   0.342
32082W        W  445  32.070  42.886   1.436
32083W        W  446  28.576   9.307   4.611
32084W        W  447  24.230  41.906  10.433
32085W        W  448  33.115  27.621   2.307
32086W        W  449   0.861  44.914  10.917
32087W        W  450  44.911  28.971  10.954
32088W        W  451   4.832   5.933  10.946
32089W        W  452  30.929  22.720  13.875
32090W        W  453  19.772   1.427  14.275
32091W        W  454   5.713  20.707   2.376
32092W        W  455  40.472   1.840   2.221
32093W        W  456  28.122  44.756   4.119
32094W        W  457  35.563  36.360   1.923
32095W        W  458   6.709  13.124  14.785
32096W        W  459  13.277  40.888  14.925
32097W        W  460  33.036  40.841  10.589
32098W        W  461  29.140   3.449   4.747
32099W        W  462   5.832  42.884   4.760
32100W        W  463  43.949  19.218  11.557
32101W        W  464   5.418  32.496  13.834
32102W        W  465   5.348  31.933   3.201
32103W        W  466   6.751  26.148  14.450
32104W        W  467  19.561  24.984  12.036
32105W        W  468   1.756  32.580  13.370
32106W        W  469  41.534  29.030   0.800
32107W        W  470  26.034  16.610   5.235
32108W        W  471  27.142  21.239  13.402
32109W        W  472  25.002  26.491   1.398
32110W        W  473  34.934  29.025   2.197
32111W        W  474  39.928  24.217   0.900
32112W        W  475  27.675  39.412   3.205
32113W        W  476   8.856  11.693  12.346
32114W        W  477   0.382  41.825  13.511
32115W        W  478  33.972  23.003   4.117
32116W        W  479  36.017  24.209  13.880
32117W        W  480  11.303  14.779  12.065
32118W        W  481  27.144   7.373   3.174
32119W        W  482  15.660  28.113   0.402
32120W        W  483  20.553  19.668  12.916
32121W        W  484  26.146  20.070   1.925
32122W        W  485   5.732   4.283   4.689
32123W        W  486  18.760  22.635   3.366
32124W        W  487  22.130  33.881  14.898
32125W        W  488   4.806  43.004  11.454
32126W        W  489  13.759  37.900   2.418
32127W        W  490  33.424  33.089  11.064
32128W        W  491   5.204  36.497  14.326
32129W        W  492  38.341  29.531  13.364
32130W        W  493  25.182  39.408   0.782
32131W        W  494  43.871  25.096   3.259
32132W        W  495  33.009  14.644   2.789
32133W        W  496  29.120   6.778  10.529
32134W        W  497  18.583  33.952   2.359
32135W        W  498  21.237  17.798   4.311
32136W        W  499  28.115  25.555  12.862
32137W        W  500  20.607  27.492   3.340
32138W        W  501  21.093  17.279   0.416
32139W        W  502  23.510  21.758  13.458
32140W        W  503  12.744  36.580   0.815
32141W        W  504   6.323   4.234  11.601
32142W        W  505  20.689   9.828  14.492
32143W        W  506  15.126   2.343  14.878
32144W        W  507   2.257  24.628   2.270
32145W        W  508  39.454  40.529   4.219
32146W        W  509   3.221  19.764  13.515
32147W        W  510  21.546  39.470   1.855
32148W        W  511  42.469  22.592  10.557
32149W        W  512  32.079  29.625  11.542
32150W        W  513   5.698  10.832   0.761
32151W        W  514   2.799  36.897   4.600
32152W        W  515  23.071   7.722  13.486
32153W        W  516  28.962   2.434  12.039
32154W        W  517  31.427  28.139   0.370
32155W        W  518  17.639  19.066  11.891
32156W        W  519  32.973  12.694  12.045
32157W        W  520  13.267  32.547   4.634
32158W        W  521  22.522  26.665   1.211
32159W        W  522   0.754  10.284   0.320
32160W        W  523  35.024  38.948   2.191
32161W        W  524  16.579   0.873  14.516
32162W        W  525  25.001   7.387  13.005
32163W        W  526  22.030   0.745  14.869
32164W        W  527  44.404  19.730   0.796
32165W        W  528  21.713  30.040  10.621
32166W        W  529   9.748   4.747   1.711
32167W        W  530   6.357  18.593   3.200
32168W        W  531  10.826  20.061  14.484
32169W        W  532  13.824   4.298  12.496
32170W        W  533  14.730  15.262  10.894
32171W        W  534   0.278  38.969   4.238
32172W        W  535   0.494  19.769   0.837
32173W        W  536  31.966  43.999  10.051
32174W        W  537  26.478  11.289   4.754
32175W        W  538  40.432  42.401   2.765
32176W        W  539  10.821  43.938  10.520
32177W        W  540  44.436  35.544  13.911
32178W        W  541  28.118   3.765  14.966
32179W        W  542  21.569  38.540  11.565
32180W        W  543   4.216   4.380   4.324
32181W        W  544  38.347  21.195  12.425
32182W        W  545  21.030  42.872   3.209
32183W        W  546  31.030  37.027   2.245
32184W        W  547   1.875  41.501  12.085
32185W        W  548  18.554   5.214   3.643
32186W        W  549   4.403   7.340  14.969
32187W        W  550  42.500   2.775   4.127
32188W        W  551  16.634  35.997  14.361
32189W        W  552  23.556  29.658  10.600
32190W        W  553  43.912  32.017   2.309
32191W        W  554  27.089  31.969   9.943
32192W        W  555   9.776  13.673   3.252
32193W        W  556  32.613  44.476  10.903
32194W        W  557  16.742  10.727  14.402
32195W        W  558  29.460  25.711   3.650
32196W        W  559   1.783  20.555  13.499
32197W        W  560  23.076  41.841   3.767
32198W        W  561   9.715  31.577   2.816
32199W        W  562  13.335  28.568  14.901
32200W        W  563  33.391  28.552  14.812
32201W        W  564  28.666   3.391   2.742
32202W        W  565   0.786  25.600  11.510
32203W        W  566  39.550  42.363   4.213
32204W        W  567  29.466   1.922  11.044
32205W        W  568   7.739  37.932   4.781
32206W        W  569  24.133  31.505   1.933
32207W        W  570  12.148  20.524   2.314
32208W        W  571  40.355   1.941   4.140
32209W        W  572  30.635  19.201   0.260
32210W        W  573  40.481  25.575   1.443
32211W        W  574  27.037  15.771   3.722
32212W        W  575   5.253   2.926  13.009
32213W        W  576  13.249  28.149   4.145
32214W        W  577  27.632  20.118   4.621
32215W        W  578  38.053  25.623   1.234
32216W        W  579  25.177  31.484  12.527
32217W        W  580  19.684  30.451  12.373
32218W        W  581  32.133  11.204   0.329
32219W        W  582  18.158   8.765   4.752
32220W        W  583  15.230   2.438  14.457
32221W        W  584  42.443   5.845   2.302
32222W        W  585  25.164   4.915   2.359
32223W        W  586  23.034  24.996  11.937
32224W        W  587  38.393  14.326   0.857
32225W        W  588  35.062  25.052   2.893
32226W        W  589  40.963  43.812   3.270
32227W        W  590  28.062   5.212  10.484
32228W        W  591  30.033  15.772  13.800
32229W        W  592   3.263  26.994  11.492
32230W        W  593  38.441  18.591  14.964
32231W        W  594  35.012  40.035  10.994
32232W        W  595  42.929  39.314  14.999
32233W        W  596  29.466  42.879   0.766
32234W        W  597  18.706  13.805   1.776
32235W        W  598  17.087  29.158   0.771
32236W        W  599  41.531  14.652  11.377
32237W        W  600  19.698   7.872  13.379
32238W        W  601  23.986  32.112  12.914
32239W        W  602  18.261  41.391   5.306
32240W        W  603   6.772  32.981  13.951
32241W        W  604  16.255  16.149   1.242
32242W        W  605  29.549  38.968  10.913
32243W        W  606  28.969  36.868   3.362
32244W        W  607  32.600  44.395   0.757
32245W        W  608  34.468   5.413  12.832
32246W        W  609   2.924  21.159  12.580
32247W        W  610   6.405  43.358   0.876
32248W        W  611  27.493  35.910   0.250
32249W        W  612  16.267  20.583  11.388
32250W        W  613  21.143   6.277   4.296
32251W        W  614  14.105  35.438   1.876
32252W        W  615  14.256  31.519  14.381
32253W        W  616  22.193   9.222   4.646
32254W        W  617  26.575  19.625  12.580
32255W        W  618  36.516  44.297   2.301
32256W        W  619  35.366  22.573   0.761
32257W        W  620  38.554  20.551  12.090
32258W        W  621  28.097   1.967   2.336
32259W        W  622  13.639  23.732   4.175
32260W        W  623  43.504  37.432  14.284
32261W        W  624  12.324  14.685  13.513
32262W        W  625  29.984  22.132  11.024
32263W        W  626  36.070  34.876   0.872
32264W        W  627  40.021  42.410  14.995
32265W        W  628  31.962  19.716   4.239
32266W        W  629   0.778  15.083   1.861
32267W        W  630  36.394   6.353  12.348
32268W        W  631  44.839  19.539   1.426
32269W        W  632   0.447   8.346   3.767
32270W        W  633  32.885  31.968   0.848
32271W        W  634  39.057   9.167   1.388
32272W        W  635   6.389   8.850   3.257
32273W        W  636  23.681  16.260   3.192
32274W        W  637  15.701  32.471   2.838
32275W        W  638  30.106  39.532   2.711
32276W        W  639  10.156   3.258  14.851
32277W        W  640   0.769  28.501   0.895
32278W        W  641  32.430  29.514  14.319
32279W        W  642  18.661   8.172   3.275
32280W        W  643   5.784  38.387  12.374
32281W        W  644  31.431   7.282  12.571
32282W        W  645  18.661  31.571   1.738
32283W        W  646  36.578  42.905  11.022
32284W        W  647  38.003  38.341   1.837
32285W        W  648  37.563  17.242  13.507
32286W        W  649  23.029  43.910  11.521
32287W        W  650  29.472   1.433  12.026
32288W        W  651  36.906  13.686  12.481
32289W        W  652  31.052  41.864   1.922
32290W        W  653   5.215  15.820  13.490
32291W        W  654  19.584   6.372   4.336
32292W        W  655  21.106  37.452   4.772
32293W        W  656  32.031  41.510   3.271
32294W        W  657   1.922   9.344   4.630
32295W        W  658  24.990  38.406  13.529
32296W        W  659  16.660  14.128   1.445
32297W        W  660  36.513   5.270   3.734
32298W        W  661   2.749   5.359   4.704
32299W        W  662  38.469   6.289   2.345
32300W        W  663  27.581   3.714   2.409
32301W        W  664  16.226   3.807   3.228
32302W        W  665   5.708   4.204   2.359
32303W        W  666   5.289  44.285  11.447
32304W        W  667  35.011  15.791  14.991
32305W        W  668  27.007  27.135   4.633
32306W        W  669  35.973  20.061  14.415
32307W        W  670  26.559   1.754   2.248
32308W        W  671  33.577  26.540   4.752
32309W        W  672   1.325  24.027  10.069
32310W        W  673  37.856   8.379   4.199
32311W        W  674  34.583   4.861   0.270
32312W        W  675  32.392  44.445   1.877
32313W        W  676  12.321  24.189   3.306
32314W        W  677  42.464  31.469   1.345
32315W        W  678  15.087   7.398  14.294
32316W        W  679  18.701  31.012  13.873
32317W        W  680  36.353  18.089   1.422
32318W        W  681  44.947  13.340   0.777
32319W        W  682  33.968   9.649  12.575
32320W        W  683  23.665  30.999   1.282
32321W        W  684  33.999  20.610  11.984
32322W        W  685  30.097  25.203  12.844
32323W        W  686   2.309  16.313   3.243
32324W        W  687  20.192   5.837  13.387
32325W        W  688  13.319  31.985   0.246
32326W        W  689  12.632  37.404   1.838
32327W        W  690  32.469   0.405  13.363
32328W        W  691  44.829  21.056  13.409
32329W        W  692   0.946  44.974  14.450
32330W        W  693  32.113  18.211  13.330
32331W        W  694  39.370  11.197  13.405
32332W        W  695  28.034  27.577  11.939
32333W        W  696  16.766  17.689   3.220
32334W        W  697   4.869  28.992  14.804
32335W        W  698  18.782   3.438   4.822
32336W        W  699  10.352  40.975   2.397
32337W        W  700  20.136  33.543   4.240
32338W        W  701   3.742  30.139   2.701
32339W        W  702  18.637   6.907  13.812
32340W        W  703  42.477   9.289   2.201
32341W        W  704  21.713  34.460   3.355
32342W        W  705   0.752   5.780   0.882
32343W        W  706  39.398  14.121   2.847
32344W        W  707  12.176  15.815  11.886
32345W        W  708  33.579  21.606  10.544
32346W        W  709  43.781   0.910  10.410
32347W        W  710  19.586   4.270  11.542
32348W        W  711  15.768  32.438   1.327
32349W        W  712  32.980  21.042  12.492
32350W        W  713  36.592  35.540  10.444
32351W        W  714  15.185  31.987  14.415
32352W        W  715   2.348  10.712  10.525
32353W        W  716  15.130  44.925   1.738
32354W        W  717  37.488  14.728  11.073
32355W        W  718  29.062  40.397  12.506
32356W        W  719  42.280  15.689   4.195
32357W        W  720  16.165  23.495  12.486
32358W        W  721   7.348  23.720  14.509
32359W        W  722  35.387  13.667   1.785
32360W        W  723  19.232  25.105  11.911
32361W        W  724  15.718  15.764   2.211
32362W        W  725  14.739   9.254  11.597
32363W        W  726   1.290  24.483  10.583
32364W        W  727  21.605  25.066   2.383
32365W        W  728  12.654  29.962   2.772
32366W        W  729  32.135  22.704   2.277
32367W        W  730  30.524  23.510   2.785
32368W        W  731  44.442  31.154   4.669
32369W        W  732   6.350  10.366   5.127
32370W        W  733  26.023   7.216   0.738
32371W        W  734   0.789  39.022  10.099
32372W        W  735  35.861  34.452   4.631
32373W        W  736   6.284  40.851   4.338
32374W        W  737  18.189  43.886   0.830
32375W        W  738  37.576  33.582  11.044
32376W        W  739  30.442  10.860   1.836
32377W        W  740   9.367  25.561  11.508
32378W        W  741  41.449  29.985  12.992
32379W        W  742   8.743  18.565  13.536
32380W        W  743  22.190  12.821  12.440
32381W        W  744  35.371  13.202   3.197
32382W        W  745  31.515  20.274  12.044
32383W        W  746  13.270   8.833  11.444
32384W        W  747  33.877  21.663   4.734
32385W        W  748  17.774  23.691   3.271
32386W        W  749   6.739   9.191   3.328
32387W        W  750  41.892  24.683  12.932
32388W        W  751  30.658  30.154   4.783
32389W        W  752  14.123  32.396  13.470
32390W        W  753   4.284  34.950   0.463
32391W        W  754  11.676  31.128  11.122
32392W        W  755  21.237  15.199  12.440
32393W        W  756   2.822   1.899  14.475
32394W        W  757  21.679   7.386  13.377
32395W        W  758  11.841  10.327   3.342
32396W        W  759  41.954  42.960  12.973
32397W        W  760   1.810  17.693  14.403
32398W        W  761  38.020  36.441   3.715
32399W        W  762  25.578  12.807   3.867
32400W        W  763  30.434   6.291   0.319
32401W        W  764  27.673  33.597   0.260
32402W        W  765  20.249   1.800   1.330
32403W        W  766  37.463  43.974   2.841
32404W        W  767  38.886  36.410   4.613
32405W        W  768  30.101   2.432  13.507
32406W        W  769  21.591  36.498   2.811
32407W        W  770  32.631  28.590  10.475
32408W        W  771  30.643  19.046  10.631
32409W        W  772  35.070  24.670  10.424
32410W        W  773  20.562  21.055   2.385
32411W        W  774   8.762   7.233  11.609
32412W        W  775   9.731  26.102  10.601
32413W        W  776  17.640   2.395  11.080
32414W        W  777  12.741  15.176  14.016
32415W        W  778   8.266   2.375   0.731
32416W        W  779  33.991  44.400   4.623
32417W        W  780  26.459  14.120   0.402
32418W        W  781  35.425  31.569   2.888
32419W        W  782  11.161  39.922   0.748
32420W        W  783  20.156  34.071   0.851
32421W        W  784  27.139  41.871  12.411
32422W        W  785  19.606   6.888   0.291
32423W        W  786  23.588  21.621  12.017
32424W        W  787  34.100  37.863  14.799
32425W        W  788   9.726  44.391   3.270
32426W        W  789  42.350   7.416   4.616
32427W        W  790  22.660  26.029  11.570
32428W        W  791  37.491  10.374  14.015
32429W        W  792  21.256  22.677   0.887
32430W        W  793  33.947  28.639  14.798
32431W        W  794   3.805  11.757   1.789
32432W        W  795  35.579   3.315   3.178
32433W        W  796  22.736  10.846   3.637
32434W        W  797  42.415   0.267   0.340
32435W        W  798  25.553  19.148  14.919
32436W        W  799  18.683  19.613   3.746
32437W        W  800  35.542  20.196  12.508
32438W        W  801  10.696  16.642  12.500
32439W        W  802   9.361  18.744   1.393
32440W        W  803  19.052  11.796  13.338
32441W        W  804  34.438  22.186  11.556
32442W        W  805  21.527  31.492  13.404
32443W        W  806   8.662  30.493  13.975
32444W        W  807  10.664  12.178  11.968
32445W        W  808   4.862   7.674   0.279
32446W        W  809  22.089  16.250   3.183
32447W        W  810  25.002  38.408  13.835
32448W        W  811  16.637  14.725  12.437
32449W        W  812  25.990  11.350   1.935
32450W        W  813  33.066   8.760  14.915
32451W        W  814  29.143  35.991  11.064
32452W        W  815  37.386  16.281   3.368
32453W        W  816  20.573  15.611   0.391
32454W        W  817  15.190   5.207   0.259
32455W        W  818   5.194   9.325  14.937
32456W        W  819  42.312  35.916   0.396
32457W        W  820  16.094  36.050   1.328
32458W        W  821  39.352   6.184  14.821
32459W        W  822  15.696  10.800  11.606
32460W        W  823   3.834  29.505   3.763
32461W        W  824   5.739   5.249   1.831
32462W        W  825  33.992  22.581  13.476
32463W        W  826   2.365  43.408   0.918
32464W        W  827  13.288  14.659  11.887
32465W        W  828  18.639   4.734   1.256
32466W        W  829  15.272  35.022   4.269
32467W        W  830  38.389  26.983   4.650
32468W        W  831  32.085   6.905   0.931
32469W        W  832  35.530   4.887   2.761
32470W        W  833  41.824  17.751   4.791
32471W        W  834  33.413  25.029  14.019
32472W        W  835  28.977  10.354  12.927
32473W        W  836  40.319  24.084   1.402
32474W        W  837  16.725  11.372  14.313
32475W        W  838  44.274  13.174   0.357
32476W        W  839  35.866   6.325  11.372
32477W        W  840  29.025  37.992  12.527
32478W        W  841   6.253  28.445  10.993
32479W        W  842  10.773  21.232  13.343
32480W        W  843  15.094  12.304   0.921
32481W        W  844  38.052  18.066  11.922
32482W        W  845  31.478  37.044   1.846
32483W        W  846   4.389  35.405  10.536
32484W        W  847  14.602  40.905   3.184
32485W        W  848  33.043  14.203   0.394
32486W        W  849   0.400  17.143   3.719
32487W        W  850  12.355  12.847   2.334
32488W        W  851  13.819  44.923   4.183
32489W        W  852  36.388   0.856   1.447
32490W        W  853  30.106  35.070   3.380
32491W        W  854  41.850  15.720   2.188
32492W        W  855  13.302  44.833  12.552
32493W        W  856  35.603  24.149   2.320
32494W        W  857  24.019  19.674   2.897
32495W        W  858  25.556  42.508   4.777
32496W        W  859  23.187  25.965   1.715
32497W        W  860   9.671  34.530  14.462
32498W        W  861   5.235  20.588  14.477
32499W        W  862  20.222  37.353  10.043
32500W        W  863  10.759  36.921   1.704
32501W        W  864  26.011  38.944  13.370
32502W        W  865  25.157  40.528  11.867
32503W        W  866  17.695  31.604  10.965
32504W        W  867  25.674  32.411  14.489
32505W        W  868  14.654  10.637   2.683
32506W        W  869  41.042   8.713   0.337
32507W        W  870  40.425  12.178  11.573
32508W        W  871  33.006   2.316  12.561
32509W        W  872   1.413  34.520  10.989
32510W        W  873   5.419  44.782   4.354
32511W        W  874  29.008  37.051  12.871
32512W        W  875  18.627   7.773  12.381
32513W        W  876  44.824  40.836  10.645
32514W        W  877  24.106  18.233   3.225
32515W        W  878  28.011  37.534   1.225
32516W        W  879  20.609  35.059  12.437
32517W        W  880  27.557  16.288  14.303
32518W        W  881  24.111   8.656   3.635
32519W        W  882  14.797   1.307   3.771
32520W        W  883  37.471  38.903   2.824
32521W        W  884  30.478  33.071  10.539
32522W        W  885   4.441  21.601   0.302
32523W        W  886  31.032   5.822   3.343
32524W        W  887  32.949  25.522  10.512
32525W        W  888   2.339  17.184  10.624
32526W        W  889  16.808   1.290   1.857
32527W        W  890  42.422   6.710  12.990
32528W        W  891  42.920  34.051   2.890
32529W        W  892  41.975   1.245   0.918
32530W        W  893  16.208  12.309   2.818
32531W        W  894   6.311  44.354   4.318
32532W        W  895   8.815  34.483  11.037
32533W        W  896  29.103  42.917   5.092
32534W        W  897  34.405  32.481  11.020
32535W        W  898   2.319   3.288  12.877
32536W        W  899  25.162  16.258  11.043
32537W        W  900   4.357  39.359  12.031
32538W        W  901  44.471   1.800  14.874
32539W        W  902  13.649   0.355   3.860
32540W        W  903  21.170  13.267  14.361
32541W        W  904  23.674  12.610   3.148
32542W        W  905  16.603  39.357  14.850
32543W        W  906  12.142   6.197  14.376
32544W        W  907  17.233   0.330   4.116
32545W        W  908  44.820  22.122   4.195
32546W        W  909  32.583  11.741  11.984
32547W        W  910  31.464  12.268  10.426
32548W        W  911   7.337  27.093   3.385
32549W        W  912   0.757  18.785   1.230
32550W        W  913  14.148  38.460   9.923
32551W        W  914  15.702  43.879   1.708
32552W        W  915   4.306  44.949   1.780
32553W        W  916  18.244  19.567   1.843
32554W        W  917  11.317  31.539   3.705
32555W        W  918  32.464   4.785   2.306
32556W        W  919  19.182  39.956  14.853
32557W        W  920  11.677  32.625   3.646
32558W        W  921   1.780   1.873   2.731
32559W        W  922  13.827  28.013   1.857
32560W        W  923  16.793  17.226  12.450
32561W        W  924  29.434   7.783   2.779
32562W        W  925  43.822  31.151   0.760
32563W        W  926  19.214  12.293   1.373
32564W        W  927   9.248  15.223  10.414
32565W        W  928  25.503  41.526  10.982
32566W        W  929  14.161  28.178   2.717
32567W        W  930   4.297  27.480  14.509
32568W        W  931  42.396  26.531  14.885
32569W        W  932  13.701  23.030  11.040
32570W        W  933  33.411   0.368  10.472
32571W        W  934  42.787  44.369   1.368
32572W        W  935  24.505  33.977   4.812
32573W        W  936   6.287  34.586  14.395
32574W        W  937   5.414  19.725  12.544
32575W        W  938  42.299  34.505  14.278
32576W        W  939  28.126  32.562   4.191
32577W        W  940  27.554  37.512  13.505
32578W        W  941  35.588  14.216  14.448
32579W        W  942  39.962   5.372   0.473
32580W        W  943   0.936  41.417  12.486
32581W        W  944  21.611  36.415   3.313
32582W        W  945  26.572  18.277   1.241
32583W        W  946  35.875   9.739  13.324
32584W        W  947  31.462  43.988  10.450
32585W        W  948  22.506  19.274   4.831
32586W        W  949  13.285  16.207  11.505
32587W        W  950   6.757  33.400   0.740
32588W        W  951  32.444  33.056   4.781
32589W        W  952   4.370  42.381  11.928
32590W        W  953  42.931  18.076   2.270
32591W        W  954  11.643  16.116  12.960
32592W        W  955  21.658  20.123  10.603
32593W        W  956  15.750  33.086  12.011
32594W        W  957   0.483  25.553  13.037
32595W        W  958  13.204  31.448  10.545
32596W        W  959  44.326  30.093   3.242
32597W        W  960  39.499   8.189  10.510
32598W        W  961  42.815  31.055   2.841
32599W        W  962  35.004   7.330   4.272
32600W        W  963  43.355  21.187   1.823
32601W        W  964  21.220  18.159   0.364
32602W        W  965  35.379   3.414   2.841
32603W        W  966  34.089   6.798  13.333
32604W        W  967   9.706  24.170   4.290
32605W        W  968  13.648  37.514  14.959
32606W        W  969  13.149   1.334   2.323
32607W        W  970  22.111  44.427   1.213
32608W        W  971   0.436  37.534   1.696
32609W        W  972  25.573   8.811   2.858
32610W        W  973   6.215   3.253   1.309
32611W        W  974  37.370  35.436  12.385
32612W        W  975  41.304  19.070   4.833
32613W        W  976  37.479  22.570   1.890
32614W        W  977   6.919  10.878   1.705
32615W        W  978   1.362  11.306   0.761
32616W        W  979   6.678  28.000   0.257
32617W        W  980   9.270   7.738  11.121
32618W        W  981  36.061   2.887  12.833
32619W        W  982  32.489  39.038  10.032
32620W        W  983   0.976  15.795   4.681
32621W        W  984  11.724  36.367  13.402
32622W        W  985  34.878  20.066   0.930
32623W        W  986  32.398  40.884   2.801
32624W        W  987  34.942  33.425  14.818
32625W        W  988   9.884  39.344   4.808
32626W        W  989  38.936  38.924   0.248
32627W        W  990  44.892  28.104   4.745
32628W        W  991  26.523   2.738  14.937
32629W        W  992  44.282  10.243   1.268
32630W        W  993   4.898  22.512   1.451
32631W        W  994  13.148  44.345   4.217
32632W        W  995  28.001  19.099   1.921
32633W        W  996  21.755  17.671  10.421
32634W        W  997   8.828  24.593   4.819
32635W        W  998  30.938  29.554   4.274
32636W        W  999  41.407  10.368  14.836
32637W        W 1000  31.938  22.541   5.322
32638W        W 1001  27.100  29.122   4.732
32639W        W 1002  42.316  44.414  11.039
32640W        W 1003   0.894  26.006   0.828
32641W        W 1004  33.875  36.960  14.909
32642W        W 1005  17.076  15.611  13.323
32643W        W 1006   9.886   3.350  12.455
32644W        W 1007   9.362  19.231  10.569
32645W        W 1008  25.680  33.963   2.739
32646W        W 1009  26.461  11.651   0.375
32647W        W 1010  40.314  11.866   3.252
32648W        W 1011  24.513  22.133   0.322
32649W        W 1012  21.022  33.556   0.263
32650W        W 1013  24.663   4.908  14.823
32651W        W 1014   7.252  11.776   3.840
32652W        W 1015  42.865  28.469   0.747
32653W        W 1016  22.047  25.037   4.829
32654W        W 1017   2.936   7.823   2.229
32655W        W 1018  28.152  24.491  12.891
32656W        W 1019  16.215  42.514  12.946
32657W        W 1020  40.027  35.920   1.909
32658W        W 1021  20.715  43.495   4.315
32659W        W 1022  34.411  11.677  12.463
32660W        W 1023  35.956   7.259   0.764
32661W        W 1024   2.238  29.081   1.868
32662W        W 1025  22.132  20.088  11.454
32663W        W 1026  21.712   2.950   2.184
32664W        W 1027  43.492   8.310  14.480
32665W        W 1028  39.919  33.041   1.921
32666W        W 1029   5.282  44.832  13.534
32667W        W 1030  28.082   9.659   0.439
32668W        W 1031   8.311   0.913  14.876
32669W        W 1032  42.302  23.040   4.208
32670W        W 1033  36.901  34.612  14.002
32671W        W 1034   6.192  22.543   3.325
32672W        W 1035  32.436  28.050   1.760
32673W        W 1036   8.871  13.736   1.231
32674W        W 1037  13.280  38.512   1.440
32675W        W 1038  40.940  26.208  13.405
32676W        W 1039  27.105  14.736   3.327
32677W        W 1040  38.042  18.070   1.698
32678W        W 1041  44.443  23.656  11.903
32679W        W 1042  21.149  16.767  13.051
32680W        W 1043  41.337  38.030   4.730
32681W        W 1044  11.751  12.824  12.088
32682W        W 1045  27.560   6.749  14.470
32683W        W 1046   8.844  23.205   2.370
32684W        W 1047  10.723  12.236   2.180
32685W        W 1048  24.219  28.000   2.392
32686W        W 1049   4.415  17.719   2.404
32687W        W 1050  14.729  32.098  10.056
32688W        W 1051  38.960   1.261   0.776
32689W        W 1052  14.168  27.535  10.614
32690W        W 1053  15.598  18.269  11.882
32691W        W 1054   6.202   2.369   0.880
32692W        W 1055  28.677  14.230   9.972
32693W        W 1056  37.895   8.225  11.893
32694W        W 1057   1.391  44.874   3.265
32695W        W 1058   0.800  38.437  14.408
32696W        W 1059  18.609   7.320   4.348
32697W        W 1060  40.884  27.625   4.741
32698W        W 1061  16.205  43.405   4.301
32699W        W 1062  37.830  15.696  11.000
32700W        W 1063  25.984  27.555  13.422
32701W        W 1064  29.156  16.294  13.529
32702W        W 1065  41.522   6.197  13.487
32703W        W 1066  44.345   2.935  10.460
32704W        W 1067   5.769  38.049  10.629
32705W        W 1068  40.969   0.773  11.858
32706W        W 1069  30.427  38.438   4.247
32707W        W 1070   8.866   8.183   1.232
32708W        W 1071  28.962  42.485  12.009
32709W        W 1072  30.652  11.779  13.387
32710W        W 1073   7.788   0.397   3.235
32711W        W 1074   7.172  30.082  12.867
32712W        W 1075  18.629  24.021   4.179
32713W        W 1076  27.978  26.166  14.945
32714W        W 1077  18.090  27.048   0.796
32715W        W 1078  35.540  33.946  11.446
32716W        W 1079   1.243   7.686  12.343
32717W        W 1080  38.419  40.828  10.444
32718W        W 1081  44.863  31.987  12.580
32719W        W 1082   9.321  35.367  12.919
32720W        W 1083  43.781  16.124   2.233
32721W        W 1084  41.986   2.962  12.873
32722W        W 1085   1.813  28.119   3.308
32723W        W 1086  23.625  20.242  10.508
32724W        W 1087  25.514  25.096  11.464
32725W        W 1088  28.950  34.398  14.760
32726W        W 1089  30.006   1.264  12.360
32727W        W 1090  14.690   3.343  14.877
32728W        W 1091  27.979  21.264   2.417
32729W        W 1092  30.484  40.530   1.726
32730W        W 1093  33.031  32.489  14.848
32731W        W 1094  14.806  37.841  12.921
32732W        W 1095  32.532  30.519   1.773
32733W        W 1096  34.450   6.705   0.871
32734W        W 1097  12.195  40.917   2.903
32735W        W 1098  24.085   3.830  12.567
32736W        W 1099  37.517  17.571   2.778
32737W        W 1100  20.220  16.699  13.990
32738W        W 1101  28.014  11.148   3.670
32739W        W 1102  40.457  34.071  12.464
32740W        W 1103  28.494  12.168  11.541
32741W        W 1104  22.558  19.237  11.022
32742W        W 1105  31.528  20.194   4.758
32743W        W 1106  27.038  34.926  14.434
32744W        W 1107  12.657  32.007  13.012
32745W        W 1108   0.932  14.178  11.373
32746W        W 1109  31.438  10.866   4.126
32747W        W 1110  35.404  38.363   0.760
32748W        W 1111  23.718  17.210   4.115
32749W        W 1112  22.193  15.811   0.828
32750W        W 1113  14.310  37.421  14.887
32751W        W 1114  23.061   4.382   2.846
32752W        W 1115  43.451  39.876  14.765
32753W        W 1116  17.252  35.944   3.181
32754W        W 1117   4.941   7.694  13.349
32755W        W 1118  15.317  42.994  14.320
32756W        W 1119  43.962  39.485   3.732
32757W        W 1120   5.882   3.226  13.973
32758W        W 1121  43.848  20.528   4.254
32759W        W 1122  13.177  19.661  14.279
32760W        W 1123  27.096  13.325   3.318
32761W        W 1124   3.459  21.654   3.653
32762W        W 1125  27.583  30.993   1.210
32763W        W 1126  12.619  15.233  12.341
32764W        W 1127  10.339   1.955   3.678
32765W        W 1128  12.268  22.118   4.321
32766W        W 1129   8.689  43.969   0.284
32767W        W 1130   5.373   4.701   4.801
32768W        W 1131   8.822  13.265   4.628
32769W        W 1132   7.196  26.505  10.639
32770W        W 1133  39.911  43.417   4.136
32771W        W 1134  24.059  43.402  14.452
32772W        W 1135  36.956  26.022  13.889
32773W        W 1136  22.220  24.725  14.005
32774W        W 1137  42.450  23.016  12.901
32775W        W 1138   1.886  17.090  14.477
32776W        W 1139  32.065  12.234   2.388
32777W        W 1140  28.998  11.816  13.811
32778W        W 1141   0.809   0.492  11.590
32779W        W 1142  12.763  24.133   0.295
32780W        W 1143  10.252   1.794   2.850
32781W        W 1144  40.316  38.560  11.383
32782W        W 1145  39.476  44.794  14.799
32783W        W 1146   3.285  23.186   1.719
32784W        W 1147  17.181  32.391  10.959
32785W        W 1148   7.807  20.222  10.576
32786W        W 1149  26.498  44.464   4.750
32787W        W 1150   3.892  33.426   4.782
32788W        W 1151  23.014  26.013  12.852
32789W        W 1152  22.166  20.270  14.943
32790W        W 1153  16.597   2.382   1.743
32791W        W 1154  31.485  17.205   1.830
32792W        W 1155  16.119   3.422   2.328
32793W        W 1156  39.900  29.468  14.871
32794W        W 1157  25.683  24.509  12.922
32795W        W 1158  42.777  44.972   1.737
32796W        W 1159  26.985  14.674   5.276
32797W        W 1160  21.229  40.303   0.793
32798W        W 1161  35.390  41.483   3.649
32799W        W 1162  31.922  32.036  14.455
32800W        W 1163  11.658  10.647   0.832
32801W        W 1164  24.205  22.563   2.332
32802W        W 1165  26.139  10.192   0.906
32803W        W 1166   4.270  13.624   1.930
32804W        W 1167  41.526  22.026   0.777
32805W        W 1168  17.617  38.400   3.825
32806W        W 1169  12.346  12.256   1.799
32807W        W 1170  17.151   8.758   3.818
32808W        W 1171  33.953  30.971  13.922
32809W        W 1172  31.027  16.240   4.633
32810W        W 1173  28.560  15.137  13.830
32811W        W 1174  25.966   4.766  10.918
32812W        W 1175  24.192   4.840   3.353
32813W        W 1176  23.219  26.999   2.251
32814W        W 1177  31.544  30.938   5.119
32815W        W 1178  40.497   2.959   1.430
32816W        W 1179  18.662  28.955  12.858
32817W        W 1180  15.767  34.003   1.858
32818W        W 1181  12.828  29.126  12.498
32819W        W 1182   2.284   8.871   2.370
32820W        W 1183   2.451  16.124  12.380
32821W        W 1184  14.094  26.521  11.887
32822W        W 1185   8.764  14.178   4.276
32823W        W 1186  34.575  27.608   4.318
32824W        W 1187  23.596  27.092   4.743
32825W        W 1188   3.303  14.669   1.352
32826W        W 1189  44.454  26.157   2.726
32827W        W 1190   5.333  13.205   0.388
32828W        W 1191  16.190  26.026  12.343
32829W        W 1192  38.338  38.007   0.299
32830W        W 1193  17.144  42.938   1.920
32831W        W 1194  40.445  32.083   2.843
32832W        W 1195  23.006  19.684   3.818
32833W        W 1196  12.782  29.061   2.363
32834W        W 1197   3.812  40.975  14.411
32835W        W 1198  34.536  20.269   1.428
32836W        W 1199  14.217  30.654  13.312
32837W        W 1200  11.700  13.106  13.063
32838W        W 1201  15.592  23.215   0.350
32839W        W 1202   9.225  29.446  12.357
32840W        W 1203  44.832  30.617   4.158
32841W        W 1204  12.632  32.065  14.001
32842W        W 1205   8.240  23.728   0.425
32843W        W 1206  15.586  19.041  11.077
32844W        W 1207   7.811  30.985   2.197
32845W        W 1208  29.020  18.104  14.770
32846W        W 1209  21.110   5.378   1.820
32847W        W 1210  20.584  22.229   1.818
32848W        W 1211  27.620  31.548  12.021
32849W        W 1212  18.181  27.584  11.076
32850W        W 1213  44.293  35.856   5.166
32851W        W 1214  43.926  31.911   4.714
32852W        W 1215  27.481  17.606  14.355
32853W        W 1216  17.602  30.995  11.930
32854W        W 1217   4.919  30.414   4.599
32855W        W 1218  26.519   6.426  10.604
32856W        W 1219  37.862   6.263  11.462
32857W        W 1220  43.968  33.030  10.511
32858W        W 1221  11.758  12.801  14.776
32859W        W 1222  44.834  15.211  14.985
32860W        W 1223  20.223   8.282  10.632
32861W        W 1224  26.637  26.588  11.538
32862W        W 1225  19.554  33.449   0.398
32863W        W 1226  27.560  30.981  11.590
32864W        W 1227  42.032  18.144  12.938
32865W        W 1228  12.139  24.481   1.429
32866W        W 1229   3.229  38.054   4.281
32867W        W 1230  33.989  13.685   3.810
32868W        W 1231   5.255  43.774  11.001
32869W        W 1232  16.085  43.417  14.956
32870W        W 1233  39.926  21.672   4.767
32871W        W 1234  26.097  19.687   4.826
32872W        W 1235  24.677  43.444  10.485
32873W        W 1236   7.855  13.161  11.943
32874W        W 1237   8.720  35.978  11.535
32875W        W 1238   9.234  43.989   4.289
32876W        W 1239   3.904   7.667  12.570
32877W        W 1240  39.900  15.823   1.328
32878W        W 1241  43.997  35.440   0.727
32879W        W 1242  14.719  11.655  11.589
32880W        W 1243  21.586   9.162  10.628
32881W        W 1244  44.810   8.888   3.371
32882W        W 1245  13.301  17.099   4.250
32883W        W 1246  14.192  12.637   1.822
32884W        W 1247  36.019  37.004   1.790
32885W        W 1248  29.993   6.829  13.473
32886W        W 1249   0.821   3.414   3.754
32887W        W 1250  39.007  39.413  13.446
32888W        W 1251  25.138   4.214  12.527
32889W        W 1252  14.724  22.709   3.219
32890W        W 1253  37.360  21.136   4.317
32891W        W 1254  16.072  19.673  12.484
32892W        W 1255  12.120   6.400   3.659
32893W        W 1256  40.517  41.871   4.226
32894W        W 1257   4.843  23.577  14.365
32895W        W 1258   4.403  28.024   1.709
32896W        W 1259  32.941  43.822   3.170
32897W        W 1260  19.758  44.311  13.904
32898W        W 1261  24.039  36.401   2.374
32899W        W 1262   5.750   6.788  10.620
32900W        W 1263  16.576  33.045   0.440
32901W        W 1264   4.873  16.667   4.161
32902W        W 1265  40.895  31.449  14.993
32903W        W 1266  39.539  34.596  11.895
32904W        W 1267   6.759  30.937   4.597
32905W        W 1268   5.403  17.141  12.826
32906W        W 1269  41.942   6.859   0.384
32907W        W 1270   2.283  43.461  14.456
32908W        W 1271  38.012  33.609  11.484
32909W        W 1272  16.738   4.900   3.164
32910W        W 1273  27.176  13.111   3.716
32911W        W 1274  38.410  14.236  10.509
32912W        W 1275  42.293   1.286   4.179
32913W        W 1276  28.525  18.246   1.381
32914W        W 1277  36.060   2.350   2.799
32915W        W 1278  42.340   7.796   4.748
32916W        W 1279  10.795  16.681  10.993
32917W        W 1280  13.602  19.776   3.785
32918W        W 1281  37.964  39.542  14.431
32919W        W 1282  25.017  37.010   0.787
32920W        W 1283  11.293   3.355   4.683
32921W        W 1284   9.649  23.496   1.348
32922W        W 1285  21.221  24.542   2.217
32923W        W 1286  23.672  29.424  14.969
32924W        W 1287  32.136  10.692  13.503
32925W        W 1288  39.366  29.580   0.380
32926W        W 1289   1.254  13.736   4.237
32927W        W 1290  28.135   0.780   3.330
32928W        W 1291  23.500  35.984  11.575
32929W        W 1292  32.070  21.747   4.322
32930W        W 1293   5.422  38.419  10.586
32931W        W 1294  33.622  32.110  12.561
32932W        W 1295  14.144  33.498   2.746
32933W        W 1296  40.048  33.581   3.192
32934W        W 1297  22.157   3.368  13.453
32935W        W 1298  17.302  27.167   4.712
32936W        W 1299   5.831  29.442   4.144
32937W        W 1300   4.819  14.231  12.429
32938W        W 1301  27.590   8.708  14.308
32939W        W 1302   3.379  29.523  14.827
32940W        W 1303  37.343  40.916   2.231
32941W        W 1304  35.037  25.140  12.493
32942W        W 1305  21.637  38.332  10.463
32943W        W 1306   4.237  21.695   0.813
32944W        W 1307  43.854  30.160   3.655
32945W        W 1308   0.953   6.420  11.935
32946W        W 1309  43.816  17.074  12.829
32947W        W 1310   2.860  40.375  10.559
32948W        W 1311  37.455  22.132   2.197
32949W        W 1312   9.879  20.763   2.701
32950W        W 1313   7.671  35.006  11.582
32951W        W 1314  10.760   1.910   3.145
32952W        W 1315  28.972  35.362  11.437
32953W        W 1316   4.255  43.927   4.693
32954W        W 1317  13.801  20.585   0.357
32955W        W 1318  40.527  10.657   1.310
32956W        W 1319  44.367   7.385   0.349
32957W        W 1320   8.322   2.822  13.829
32958W        W 1321  21.598  44.839  13.518
32959W        W 1322   0.973  43.764  11.505
32960W        W 1323  12.774  27.625   2.728
32961W        W 1324  39.504  15.296  11.509
32962W        W 1325  24.176  33.974  10.590
32963W        W 1326   4.699  26.134  13.828
32964W        W 1327  16.660  23.551   3.323
32965W        W 1328  38.836  41.812  12.383
32966W        W 1329  19.570   4.356   0.414
32967W        W 1330   2.763   9.213   0.729
32968W        W 1331  28.081  11.672   4.225
32969W        W 1332   3.423  19.081  13.424
32970W        W 1333  11.758  17.792   2.251
32971W        W 1334   0.308  15.276   2.264
32972W        W 1335  16.224   5.380   4.319
32973W        W 1336   9.889  44.823   3.247
32974W        W 1337  30.982  33.618  14.845
32975W        W 1338   1.441  11.157   2.251
32976W        W 1339  33.127   7.883   4.159
32977W        W 1340  23.646   1.837   1.842
32978W        W 1341  21.612  38.479  10.991
32979W        W 1342  13.768  42.963   0.899
32980W        W 1343  43.935   3.928   2.788
32981W        W 1344  11.252   4.208   2.325
32982W        W 1345  20.721  12.202   4.813
32983W        W 1346  32.420   1.796   4.606
32984W        W 1347  23.595  44.500  14.962
32985W        W 1348  33.959  30.573  11.958
32986W        W 1349  41.536  22.682  14.945
32987W        W 1350  29.477  12.139   3.257
32988W        W 1351  15.204   7.866   4.778
32989W        W 1352  31.990  24.052  10.591
32990W        W 1353  28.441   7.210   3.204
32991W        W 1354  37.875  17.662  14.780
32992W        W 1355  23.714  43.016  10.575
32993W        W 1356   6.703  30.438  14.336
32994W        W 1357  18.120  28.678  13.044
32995W        W 1358  26.953  33.944  10.490
32996W        W 1359  30.605   5.694   1.304
32997W        W 1360  14.737  12.629   1.716
32998W        W 1361   7.403  43.870   0.383
32999W        W 1362  44.800  37.068  11.611
33000W        W 1363  28.053  34.407   1.269
33001W        W 1364  37.835  40.882   1.770
33002W        W 1365  30.027  27.597   1.812
33003W        W 1366  30.091  32.051   3.750
33004W        W 1367  12.825  23.230   4.813
33005W        W 1368  13.219  43.516   2.703
33006W        W 1369  19.100  31.577  11.113
33007W        W 1370  29.636  28.938   9.926
33008W        W 1371  15.124  40.847   4.747
33009W        W 1372  25.633  42.963  14.498
33010W        W 1373  34.870  13.804   1.259
33011W        W 1374  37.085   4.875  14.015
33012W        W 1375  38.354  44.823  10.459
33013W        W 1376   9.769  32.989   3.843
33014W        W 1377  32.006   5.717  12.516
33015W        W 1378  26.085  39.017  14.960
33016W        W 1379  13.319  41.515  11.097
33017W        W 1380  27.479  43.441   1.332
33018W        W 1381  31.066   2.894  14.868
33019W        W 1382  25.565  23.011  13.522
33020W        W 1383   4.714  28.135  13.951
33021W        W 1384   0.789  40.824   3.268
33022W        W 1385  30.618  41.310   0.331
33023W        W 1386  38.959  40.516  14.497
33024W        W 1387  17.260   8.890   0.246
33025W        W 1388  44.467  15.220   4.648
33026W        W 1389   0.912  28.024  13.961
33027W        W 1390  14.788   3.280   3.205
33028W        W 1391  14.697  29.551  12.846
33029W        W 1392   6.900  40.897  10.511
33030W        W 1393  13.319  36.966  14.864
33031W        W 1394  34.461  42.852  11.983
33032W        W 1395  16.197   1.306  11.127
33033W        W 1396  10.284   8.173   4.756
33034W        W 1397  24.128  28.984   3.657
33035W        W 1398  28.579  14.227   3.787
33036W        W 1399  19.103   3.283   3.758
33037W        W 1400  28.539   9.792  14.433
33038W        W 1401  20.259  18.288   0.420
33039W        W 1402  38.052   2.948  10.554
33040W        W 1403   9.763   3.348   2.815
33041W        W 1404  38.012  42.386   3.770
33042W        W 1405  35.523  40.353  10.623
33043W        W 1406  35.591  17.104   0.921
33044W        W 1407   4.260  24.990  10.539
33045W        W 1408  15.814  28.005   0.837
33046W        W 1409   3.927  28.070  10.537
33047W        W 1410  18.575   9.842   0.960
33048W        W 1411  39.508  34.613  14.509
33049W        W 1412   6.346  43.829  14.949
33050W        W 1413   0.358  10.843  11.898
33051W        W 1414   8.746  27.097   3.262
33052W        W 1415  16.114  26.077  12.082
33053W        W 1416  30.657  13.809   1.933
33054W        W 1417   1.912  20.636   0.745
33055W        W 1418  38.062  42.507   4.655
33056W        W 1419   8.269  40.822   1.450
33057W        W 1420   0.786  26.634  11.536
33058W        W 1421  33.427  28.096   3.222
33059W        W 1422  27.989  14.654  11.409
33060W        W 1423  12.706  24.706   0.441
33061W        W 1424  42.858  41.335   2.673
33062W        W 1425  34.016   5.269  11.062
33063W        W 1426  32.502  23.497   1.883
33064W        W 1427  36.918  17.073   4.785
33065W        W 1428   3.248  39.426  12.037
33066W        W 1429  16.280  27.094   3.365
33067W        W 1430  44.879  39.409  11.542
33068W        W 1431  17.663  35.388   2.403
33069W        W 1432   5.421   9.750  12.860
33070W        W 1433  26.597  42.854   0.371
33071W        W 1434  16.690  13.321  12.068
33072W        W 1435   8.845  21.659   0.343
33073W        W 1436   1.339  20.201  12.092
33074W        W 1437  37.970  35.037   2.814
33075W        W 1438  18.562  18.713  10.645
33076W        W 1439   0.960  35.923  13.484
33077W        W 1440  43.455  25.042  14.885
33078W        W 1441   5.702  13.766   2.364
33079W        W 1442  32.618   6.276   9.924
33080W        W 1443  36.415   8.882   2.385
33081W        W 1444  21.667  13.211   2.760
33082W        W 1445  30.634  35.503  12.543
33083W        W 1446  14.133  15.284  10.520
33084W        W 1447  40.851  27.501   0.433
33085W        W 1448  43.380   2.273   2.772
33086W        W 1449  10.801  41.299   3.266
33087W        W 1450  38.570  10.264   3.207
33088W        W 1451  10.170  19.204   0.347
33089W        W 1452  31.442  28.968   3.348
33090W        W 1453  24.706  35.391   3.790
33091W        W 1454  25.081  42.337   0.742
33092W        W 1455  34.428  21.560  13.854
33093W        W 1456  12.720  43.359   2.341
33094W        W 1457   4.300  38.066  14.338
33095W        W 1458  21.158  16.243   2.717
33096W        W 1459  26.173  27.637  10.898
33097W        W 1460  32.399  28.613  11.057
33098W        W 1461  28.518  18.159   3.656
33099W        W 1462  41.998   8.860   3.736
33100W        W 1463  17.785   6.694   4.683
33101W        W 1464  21.658  38.898   0.326
33102W        W 1465  25.643   4.361   0.292
33103W        W 1466   7.741   6.347   0.271
33104W        W 1467   9.356  29.980  10.587
33105W        W 1468  43.395  26.970   1.348
33106W        W 1469  37.839   3.739  13.970
33107W        W 1470  28.613  25.571   4.320
33108W        W 1471  32.055  11.655  11.555
33109W        W 1472  12.316  28.005   4.217
33110W        W 1473  24.724  27.662   4.155
33111W        W 1474  32.051  15.249   4.600
33112W        W 1475  11.340  32.027   0.943
33113W        W 1476  40.548  39.530  11.395
33114W        W 1477  35.589  43.443   3.240
33115W        W 1478  44.317  24.049  12.041
33116W        W 1479  33.444  12.766  11.962
33117W        W 1480  12.710   2.746  10.910
33118W        W 1481  28.650  23.552  10.942
33119W        W 1482  14.784  31.964   0.942
33120W        W 1483  12.214  29.933  10.924
33121W        W 1484   2.411  10.161   3.748
33122W        W 1485  26.962   3.766  12.543
33123W        W 1486  11.782   1.246   3.146
33124W        W 1487  20.625  34.999  11.092
33125W        W 1488  28.985  43.270  10.895
33126W        W 1489  41.037  42.868   2.337
33127W        W 1490   5.375  16.811  13.314
33128W        W 1491  33.055   0.310   2.692
33129W        W 1492   1.271  15.314   0.389
33130W        W 1493   8.706   3.443  10.062
33131W        W 1494   3.781  22.245   0.870
33132W        W 1495  27.580  11.678   3.200
33133W        W 1496  36.382  24.649  12.048
33134W        W 1497  17.724  31.003   1.818
33135W        W 1498  28.534   8.827  11.908
33136W        W 1499  32.978  34.516  14.872
33137W        W 1500  16.748  35.575  13.532
33138W        W 1501  21.102  35.914  13.321
33139W        W 1502   8.286  16.263  11.055
33140W        W 1503   8.827  22.034  12.078
33141W        W 1504   8.732  41.941   0.903
33142W        W 1505  15.613  44.985   1.846
33143W        W 1506  12.645  22.714   3.355
33144W        W 1507  14.834  43.344  11.546
33145W        W 1508  42.982   0.926  12.361
33146W        W 1509   1.303  19.219  14.443
33147W        W 1510  33.955   4.321   0.804
33148W        W 1511  10.656  15.302   4.737
33149W        W 1512  29.667  43.402  11.543
33150W        W 1513  17.712  20.737  10.901
33151W        W 1514  18.090  15.641  14.825
33152W        W 1515   9.249  24.712  14.935
33153W        W 1516  18.722  36.444  10.429
33154W        W 1517  23.586   8.312   0.897
33155W        W 1518  29.595  16.799  14.786
33156W        W 1519  28.093  43.787   0.891
33157W        W 1520  35.395   6.750  13.507
33158W        W 1521   4.359  23.685  14.338
33159W        W 1522   2.763  37.900   1.924
33160W        W 1523   6.391  24.988  10.521
33161W        W 1524   2.374   9.832   2.858
33162W        W 1525  36.556  38.504  12.573
33163W        W 1526   0.861  33.948  13.529
33164W        W 1527  35.088  42.292  13.312
33165W        W 1528   4.916   3.356  10.023
33166W        W 1529   5.910  20.677  13.426
33167W        W 1530  34.454  35.945   2.670
33168W        W 1531  10.144   7.387  13.540
33169W        W 1532  30.466  26.657  13.804
33170W        W 1533  32.900   8.209   0.347
33171W        W 1534  27.458  31.571   2.872
33172W        W 1535  31.455  36.877  12.012
33173W        W 1536  15.309  43.846  14.959
33174W        W 1537  19.045  17.610  14.922
33175W        W 1538  35.391  34.544  13.452
33176W        W 1539  34.116  13.294  14.989
33177W        W 1540   6.315  32.564  13.991
33178W        W 1541  44.399   1.332  11.455
33179W        W 1542  42.018  28.998  13.860
33180W        W 1543  40.535  13.729  11.511
33181W        W 1544   7.887  38.061   3.635
33182W        W 1545  15.684  13.179   2.817
33183W        W 1546  18.215  44.820  13.803
33184W        W 1547  27.561   2.418   3.801
33185W        W 1548   3.297  15.816   3.340
33186W        W 1549   8.698  37.887  13.885
33187W        W 1550  28.619  22.733  11.611
33188W        W 1551  24.995  40.052  11.606
33189W        W 1552   3.792   0.475  11.903
33190W        W 1553  33.505  10.292  13.957
33191W        W 1554  43.782  38.519  12.918
33192W        W 1555   2.236  14.782   1.729
33193W        W 1556  15.815  35.997  11.609
33194W        W 1557  28.091  30.966   1.393
33195W        W 1558   2.340  25.195   5.743
33196W        W 1559  33.025   7.340  11.073
33197W        W 1560   6.723  24.687   0.341
33198W        W 1561  10.181  23.582   0.944
33199W        W 1562  16.606  34.611   1.786
33200W        W 1563   3.403   9.767  10.409
33201W        W 1564  35.891  31.897   5.201
33202W        W 1565  39.514   2.873  13.801
33203W        W 1566  29.447   7.304   9.971
33204W        W 1567  21.751   8.193  11.392
33205W        W 1568  23.093   7.403  11.865
33206W        W 1569   9.331  10.855  14.381
33207W        W 1570  36.418   5.736   1.896
33208W        W 1571  35.096  16.171  13.807
33209W        W 1572  19.105  37.857  10.967
33210W        W 1573   5.433  37.962   1.427
33211W        W 1574  36.467  16.575  11.125
33212W        W 1575  40.821  31.407   0.419
33213W        W 1576   5.823  40.384  11.592
33214W        W 1577   1.961  37.870  10.961
33215W        W 1578  28.941  18.113   3.225
33216W        W 1579  29.987   4.850  10.619
33217W        W 1580   7.246  38.852   0.256
33218W        W 1581  43.962  22.564   1.713
33219W        W 1582  41.025   3.737  10.900
33220W        W 1583   2.429  23.027  11.570
33221W        W 1584   1.965   4.373   2.698
33222W        W 1585  28.159   2.428  14.499
33223W        W 1586   9.156   8.808  13.944
33224W        W 1587  44.412  19.591  11.557
33225W        W 1588  29.428   9.307  11.052
33226W        W 1589   2.421   5.369  10.605
33227W        W 1590  32.056  33.391  13.385
33228W        W 1591   0.866   9.167   0.790
33229W        W 1592  22.573  27.174   2.413
33230W        W 1593  26.026  14.190  14.351
33231W        W 1594  20.046  12.174   3.227
33232W        W 1595  33.395  28.577  13.345
33233W        W 1596  36.587  18.759  14.858
33234W        W 1597   1.799   2.825  13.871
33235W        W 1598  35.085  43.440  11.594
33236W        W 1599  39.997  10.784  13.411
33237W        W 1600  21.709  24.050   0.801
33238W        W 1601  19.148  11.712   1.304
33239W        W 1602  26.156  38.909  10.901
33240W        W 1603  41.418  11.675   3.654
33241W        W 1604  25.617  15.175  11.014
33242W        W 1605  40.517  21.158  13.794
33243W        W 1606  44.276  16.716  13.039
33244W        W 1607  42.845  12.630  12.880
33245W        W 1608   0.391  36.552   4.147
33246W        W 1609  19.060  37.915   0.386
33247W        W 1610   9.298   6.843   3.304
33248W        W 1611  36.990  12.842   5.146
33249W        W 1612   7.790  10.147  11.860
33250W        W 1613   3.740  30.652  10.434
33251W        W 1614   2.393  33.402  14.930
33252W        W 1615  20.041  21.241   4.146
33253W        W 1616  21.181   6.342  12.902
33254W        W 1617  23.543   5.779  11.504
33255W        W 1618   4.849  16.205  13.351
33256W        W 1619  20.261  13.812  13.890
33257W        W 1620  27.488  33.014   4.598
33258W        W 1621  20.148  44.283   0.258
33259W        W 1622  36.986   1.849  14.371
33260W        W 1623  12.633  18.292  13.368
33261W        W 1624   2.725  28.678   0.470
33262W        W 1625  42.442  31.437   4.322
33263W        W 1626  35.976  24.039   1.328
33264W        W 1627  37.006  37.407   3.642
33265W        W 1628  14.599  44.903   3.835
33266W        W 1629  23.732   2.363   2.780
33267W        W 1630  38.336  28.126  13.882
33268W        W 1631  20.765  14.616  12.511
33269W        W 1632  40.322  40.534   3.784
33270W        W 1633  43.481  26.073  12.351
33271W        W 1634   1.817  34.576   2.694
33272W        W 1635   9.275  18.681  13.974
33273W        W 1636  35.504  40.524   0.797
33274W        W 1637   9.167  29.561   0.895
33275W        W 1638  35.043  19.770   3.862
33276W        W 1639  41.877  33.516   3.216
33277W        W 1640   5.879   7.394  10.504
33278W        W 1641  16.095  18.710  12.341
33279W        W 1642  40.980   1.857  11.931
33280W        W 1643   2.239   2.383   4.604
33281W        W 1644  22.133   2.839  11.877
33282W        W 1645  19.139  44.272   5.127
33283W        W 1646  41.918  15.702   3.236
33284W        W 1647  18.568   1.951  10.022
33285W        W 1648  10.202  35.890   4.289
33286W        W 1649   1.946   1.402  11.570
33287W        W 1650  17.565  38.564  11.112
33288W        W 1651  30.095  25.130  14.996
33289W        W 1652   0.966   0.922   4.167
33290W        W 1653   2.880  16.106   2.889
33291W        W 1654  25.114  28.611  11.395
33292W        W 1655  15.214   1.419  10.575
33293W        W 1656   7.737  33.530   4.324
33294W        W 1657   9.273  36.015  13.352
33295W        W 1658  33.439  37.468   4.330
33296W        W 1659   0.350  14.833   3.770
33297W        W 1660  40.000  11.854  11.021
33298W        W 1661   1.355  21.067   3.651
33299W        W 1662  14.728  15.584   0.773
33300W        W 1663  12.202   0.958   1.926
33301W        W 1664  25.573  35.060  12.081
33302W        W 1665  19.173  20.074   4.675
33303W        W 1666  38.991  37.896  14.032
33304W        W 1667  29.601   6.404  14.509
33305W        W 1668  40.003  22.104  13.028
33306W        W 1669  42.026  35.425  14.331
33307W        W 1670  25.563  30.652  13.329
33308W        W 1671  14.203  18.140  12.505
33309W        W 1672  32.590  41.845  13.043
33310W        W 1673  37.067  26.702   3.270
33311W        W 1674  17.569  20.203   4.818
33312W        W 1675  17.182  28.080   0.790
33313W        W 1676  37.411  20.239   2.665
33314W        W 1677   2.318   8.707  14.759
33315W        W 1678  39.475   8.733  13.854
33316W        W 1679  42.506  21.099  11.034
33317W        W 1680   1.445  25.637   3.350
33318W        W 1681  37.891  10.183  12.916
33319W        W 1682   5.915  28.451  13.381
33320W        W 1683   4.405  32.633   1.442
33321W        W 1684  36.477  23.160  14.011
33322W        W 1685   8.212  12.168   2.418
33323W        W 1686  35.028   2.424  10.961
33324W        W 1687   8.214   5.193  14.902
33325W        W 1688  13.344  32.626  14.376
33326W        W 1689  34.586   6.336   2.379
33327W        W 1690  11.741  26.977  10.410
33328W        W 1691   3.931   8.162   3.724
33329W        W 1692  18.153  15.702   4.168
33330W        W 1693  34.531  27.042  14.916
33331W        W 1694  20.113  40.378  13.951
33332W        W 1695   4.717  28.589   0.434
33333W        W 1696  41.470  34.461   3.798
33334W        W 1697  22.550   3.286   9.993
33335W        W 1698  11.715  18.694   2.892
33336W        W 1699  36.525  33.882  11.532
33337W        W 1700   9.327   2.457  12.994
33338W        W 1701  15.259  27.023   0.940
33339W        W 1702   8.216  31.122  11.873
33340W        W 1703  33.559   0.455   1.449
33341W        W 1704  24.041   1.803   2.419
33342W        W 1705  25.962  18.170  12.367
33343W        W 1706  26.694  23.240   1.873
33344W        W 1707   6.869  14.311  13.966
33345W        W 1708  28.177  18.562  11.471
33346W        W 1709  11.698  37.903   3.660
33347W        W 1710  36.871  44.966  10.453
33348W        W 1711   1.789   7.304   0.378
33349W        W 1712  16.685  14.673  13.953
33350W        W 1713  29.488  26.186   2.393
33351W        W 1714  19.563  40.543  12.918
33352W        W 1715  12.213  31.441  10.889
33353W        W 1716  43.892   5.275  10.556
33354W        W 1717  20.274   7.401   3.773
33355W        W 1718  27.043  19.253   2.278
33356W        W 1719  30.535  29.484   0.378
33357W        W 1720  40.829  38.907  12.844
33358W        W 1721  42.921  28.573   4.721
33359W        W 1722  16.316  10.774   4.623
33360W        W 1723  19.544  11.298  13.386
33361W        W 1724  35.490   3.844   4.695
33362W        W 1725  14.183  31.924   0.336
33363W        W 1726   4.779  16.229   0.422
33364W        W 1727  35.549  16.761   2.795
33365W        W 1728  41.800  12.263  11.872
33366W        W 1729   2.406   0.412   2.662
33367W        W 1730   6.187  29.936  11.611
33368W        W 1731  10.383  39.952  14.466
33369W        W 1732  34.999  34.482  10.629
33370W        W 1733   3.280  30.058  15.000
33371W        W 1734  33.989  15.178   2.273
33372W        W 1735  38.414   5.871   1.810
33373W        W 1736  25.591  42.781   5.128
33374W        W 1737  21.044  26.573   2.389
33375W        W 1738   3.833  28.440  12.899
33376W        W 1739  11.786  23.105  11.568
33377W        W 1740   7.839  36.964   0.276
33378W        W 1741  22.512  17.703   4.667
33379W        W 1742  19.167  22.659  11.578
33380W        W 1743  19.610  12.707  10.630
33381W        W 1744  26.193  13.298   0.339
33382W        W 1745   9.360  34.119  11.066
33383W        W 1746  17.300  13.261   1.367
33384W        W 1747   4.935  33.886  13.019
33385W        W 1748  31.910  21.050   3.376
33386W        W 1749   6.423  12.759   2.184
33387W        W 1750   7.341  41.393  11.004
33388W        W 1751  15.129   0.278  13.846
33389W        W 1752  44.398   4.925  12.464
33390W        W 1753   4.303  32.487   3.826
33391W        W 1754   9.866  28.094   1.377
33392W        W 1755   2.257  13.666  12.471
33393W        W 1756  15.290  27.469  12.959
33394W        W 1757  41.343  37.037  14.458
33395W        W 1758  20.051   1.415   1.732
33396W        W 1759   9.839  39.059   2.251
33397W        W 1760  16.657  31.044  14.491
33398W        W 1761   5.844  17.645   1.228
33399W        W 1762  19.611  17.609  13.868
33400W        W 1763  37.837  38.462  10.479
33401W        W 1764  44.459  34.113  12.063
33402W        W 1765  34.474  26.053   0.966
33403W        W 1766  22.073   0.769  10.561
33404W        W 1767  38.369  29.457   4.205
33405W        W 1768  10.778  27.565   0.251
33406W        W 1769  20.530  19.062  12.890
33407W        W 1770  24.489  43.358   3.700
33408W        W 1771  35.452   3.902  14.409
33409W        W 1772  31.645  34.067  12.056
33410W        W 1773   8.195  42.904   1.222
33411W        W 1774  31.604  12.173   0.445
33412W        W 1775  21.113  44.263  11.394
33413W        W 1776  14.781  21.186  11.093
33414W        W 1777  19.266  35.557  10.615
33415W        W 1778   8.834   8.242   4.203
33416W        W 1779   5.299  30.638  13.435
33417W        W 1780  40.812  42.314  11.423
33418W        W 1781  35.909  34.113  11.868
33419W        W 1782   8.697  28.656  12.096
33420W        W 1783  18.558   2.410  12.397
33421W        W 1784  30.915  13.220  14.835
33422W        W 1785  22.098  40.413  13.995
33423W        W 1786  32.560  31.474  14.921
33424W        W 1787  41.316   0.331   4.654
33425W        W 1788  41.019  28.556  14.483
33426W        W 1789  36.508  35.969  13.801
33427W        W 1790   9.692  36.376  10.492
33428W        W 1791   4.774  11.169  11.081
33429W        W 1792  28.544   9.253   2.332
33430W        W 1793  23.154   5.788   2.677
33431W        W 1794  13.163  14.212   3.773
33432W        W 1795  14.276   0.810  14.316
33433W        W 1796   5.253  28.643   2.200
33434W        W 1797   2.363  29.626   4.201
33435W        W 1798   9.858   2.431  13.421
33436W        W 1799  42.922  21.042  12.978
33437W        W 1800  13.107  25.134  14.417
33438W        W 1801   5.384  32.060  14.891
33439W        W 1802  42.454   1.253  13.039
33440W        W 1803  23.701  38.416  12.978
33441W        W 1804  31.114   9.371  14.853
33442W        W 1805  28.639  37.412  11.500
33443W        W 1806  28.108  10.722   3.722
33444W        W 1807  22.608  10.207   4.343
33445W        W 1808  24.195  17.596  12.013
33446W        W 1809  25.607  15.319   4.163
33447W        W 1810  42.775  40.805  13.000
33448W        W 1811  43.926  31.442  14.382
33449W        W 1812  27.542  26.991   0.920
33450W        W 1813  25.216  20.670  12.488
33451W        W 1814  13.196  12.756   3.248
33452W        W 1815  10.752  12.737   1.923
33453W        W 1816  44.467  21.050   0.845
33454W        W 1817   2.458  41.390   2.413
33455W        W 1818  34.914  28.055   1.733
33456W        W 1819  16.245  44.390   2.732
33457W        W 1820  20.606  17.594   1.859
33458W        W 1821   8.232   9.792  14.023
33459W        W 1822  29.976  35.516   0.365
33460W        W 1823   7.702  11.820   1.729
33461W        W 1824  24.053  43.895  13.506
33462W        W 1825   3.719  12.805   4.761
33463W        W 1826  39.382  33.507  14.845
33464W        W 1827  38.930   6.803   2.779
33465W        W 1828  13.130  35.406  10.983
33466W        W 1829  44.304  20.567  13.432
33467W        W 1830   7.184  30.946   3.813
33468W        W 1831  33.973  42.400  13.855
33469W        W 1832   8.386  36.452  10.574
33470W        W 1833  42.520  16.572  13.447
33471W        W 1834  38.830  32.963   4.294
33472W        W 1835  31.102  28.081  14.775
33473W        W 1836  28.942  32.119   1.705
33474W        W 1837   7.695   0.247   1.738
33475W        W 1838  22.743   4.278  11.580
33476W        W 1839  32.939  30.036  10.909
33477W        W 1840  31.966  35.918   0.847
33478W        W 1841  22.683  38.353  11.567
33479W        W 1842  13.701  30.469  13.836
33480W        W 1843  44.475  25.674  14.420
33481W        W 1844  11.356  40.456  11.533
33482W        W 1845  44.323  30.963  11.923
33483W        W 1846  18.658   2.748  12.878
33484W        W 1847  32.627   0.749   4.304
33485W        W 1848  44.497  26.532   3.176
33486W        W 1849  26.616  35.530   2.202
33487W        W 1850  18.643  35.424   0.452
33488W        W 1851  12.854  11.306  11.878
33489W        W 1852   8.210  31.497   2.382
33490W        W 1853  21.134  16.229  13.533
33491W        W 1854  32.928  15.114   3.845
33492W        W 1855  13.835  18.065   0.967
33493W        W 1856   9.667  38.022   1.420
33494W        W 1857  35.058  39.009   3.216
33495W        W 1858  25.714  39.449   0.347
33496W        W 1859  10.220  13.739   2.191
33497W        W 1860  11.713  37.385  11.011
33498W        W 1861   5.801  41.810  13.820
33499W        W 1862  38.858  44.756  11.022
33500W        W 1863   9.266  37.479  13.805
33501W        W 1864  39.857   9.347  13.910
33502W        W 1865  34.465  16.105  14.003
33503W        W 1866  10.711  21.679   1.219
33504W        W 1867  27.040  42.969  13.363
33505W        W 1868  18.786  19.136  10.620
33506W        W 1869   0.373  10.335  13.997
33507W        W 1870  43.010   1.349   4.211
33508W        W 1871   0.890  33.608   1.859
33509W        W 1872  11.300  24.191  14.334
33510W        W 1873  36.556  11.647   4.615
33511W        W 1874  13.780  20.631   4.200
33512W        W 1875  40.401  36.902   1.746
33513W        W 1876  35.477  19.214  11.879
33514W        W 1877  38.453   6.817   3.705
33515W        W 1878  21.572  22.124   2.773
33516W        W 1879  12.632  19.095   2.715
33517W        W 1880  29.158   9.228  12.500
33518W        W 1881   7.358   8.670   1.404
33519W        W 1882  13.841  29.442   0.777
33520W        W 1883   3.232  32.418   3.850
33521W        W 1884  22.727   6.187  11.869
33522W        W 1885  19.624  20.702  13.485
33523W        W 1886  29.162  18.755  11.466
33524W        W 1887  18.758   2.461   4.262
33525W        W 1888   6.743  14.266  13.488
33526W        W 1889   5.287   3.924   2.698
33527W        W 1890  21.229  33.124  10.146
33528W        W 1891  10.874   8.175   3.798
33529W        W 1892   6.391  40.369  11.985
33530W        W 1893  29.952  23.105   4.672
33531W        W 1894  23.589  15.231   1.311
33532W        W 1895   9.753  42.423   1.321
33533W        W 1896  33.395   4.377   1.851
33534W        W 1897   3.283  14.757   1.717
33535W        W 1898   8.794  43.004  14.860
33536W        W 1899   0.852  44.862   4.124
33537W        W 1900  33.380  34.437  13.032
33538W        W 1901  43.385  35.533   5.796
33539W        W 1902  32.022  12.670  12.010
33540W        W 1903  14.231  42.812   1.879
33541W        W 1904  11.782  28.521  10.414
33542W        W 1905  11.805  10.383  13.523
33543W        W 1906  16.683  40.932   0.471
33544W        W 1907  13.320  21.054   0.740
33545W        W 1908   7.233   6.231   0.336
33546W        W 1909  31.994   5.709   2.717
33547W        W 1910  34.391  15.710   1.888
33548W        W 1911  43.788  37.468  13.055
33549W        W 1912  41.505   7.302  12.434
33550W        W 1913   9.289  25.962   3.339
33551W        W 1914  23.018   6.725   3.669
33552W        W 1915  10.269  34.051  12.015
33553W        W 1916  43.894  24.139  14.985
33554W        W 1917   5.915  33.592  13.914
33555W        W 1918  19.111   1.457  11.496
33556W        W 1919   3.920  38.409   4.263
33557W        W 1920  42.393   7.339   1.278
33558W        W 1921  15.294  18.181   2.340
33559W        W 1922  41.036  30.527   1.854
33560W        W 1923  13.755  15.707   0.327
33561W        W 1924   3.395  10.737  15.000
33562W        W 1925  21.232  21.695  12.494
33563W        W 1926  31.970  12.662   1.896
33564W        W 1927  28.155  39.450   4.765
33565W        W 1928  17.226  41.866   4.653
33566W        W 1929  42.352  21.017   2.195
33567W        W 1930   1.881   2.936   2.230
33568W        W 1931  17.161  22.114  13.490
33569W        W 1932  40.503   9.177   3.270
33570W        W 1933  16.717  43.356  10.135
33571W        W 1934  36.982  21.628   3.185
33572W        W 1935  23.725  18.232   4.326
33573W        W 1936  40.454   3.777   2.897
33574W        W 1937   7.404  11.196  12.564
33575W        W 1938  44.342  21.075   1.740
33576W        W 1939  38.445  19.725   4.238
33577W        W 1940  16.583  24.513   1.883
33578W        W 1941   1.895  38.365  12.862
33579W        W 1942  37.387  20.172   4.800
33580W        W 1943  33.108   4.861   0.790
33581W        W 1944  27.678   8.748  10.936
33582W        W 1945  29.496  39.494  11.551
33583W        W 1946  44.339  19.115   4.807
33584W        W 1947   1.343  23.037  13.973
33585W        W 1948  14.190   3.455  14.786
33586W        W 1949  21.692  11.312   4.819
33587W        W 1950  24.546  33.470  14.935
33588W        W 1951  30.434  34.435   3.697
33589W        W 1952  24.998  12.239  14.405
33590W        W 1953  23.138  13.625  12.524
33591W        W 1954  17.648  14.620   2.297
33592W        W 1955  41.899  38.884   2.294
33593W        W 1956  10.202  13.309   2.707
33594W        W 1957  31.088  12.685   1.259
33595W        W 1958  38.539  34.604   3.763
33596W        W 1959  11.240  37.431  11.602
33597W        W 1960  26.639  13.647   3.224
33598W        W 1961  36.444  38.944   1.777
33599W        W 1962  24.612  27.013  14.966
33600W        W 1963   1.876  30.930  11.042
33601W        W 1964  35.363  15.262  11.968
33602W        W 1965   2.269  23.495  11.431
33603W        W 1966  19.726  15.750  14.962
33604W        W 1967  10.233  43.786  13.485
33605W        W 1968  38.860  35.592   4.278
33606W        W 1969   6.747  42.412   3.783
33607W        W 1970  17.708   3.806   3.652
33608W        W 1971  39.033   0.863   4.270
33609W        W 1972   7.228  27.135  13.543
33610W        W 1973  21.123  15.270  13.545
33611W        W 1974   8.686   5.275  12.443
33612W        W 1975  29.571  17.584   2.891
33613W        W 1976  29.955   2.740   4.638
33614W        W 1977   1.873   1.917   2.360
33615W        W 1978  43.915  24.217  11.963
33616W        W 1979  31.095  28.056  13.454
33617W        W 1980  10.236  30.639  11.469
33618W        W 1981  15.646   6.903  12.450
33619W        W 1982  38.555  12.652   2.297
33620W        W 1983  37.877  16.663  10.896
33621W        W 1984  35.519   8.381  11.014
33622W        W 1985  40.376  12.662   3.689
33623W        W 1986  31.609  20.593  11.057
33624W        W 1987  10.226  32.552  13.921
33625W        W 1988  15.199   2.399   2.739
33626W        W 1989   3.805  37.086   4.704
33627W        W 1990  16.592  33.099  12.923
33628W        W 1991   2.925  20.108   1.324
33629W        W 1992  34.563  11.329   2.355
33630W        W 1993  42.794   0.793  11.858
33631W        W 1994  32.566  43.278   3.792
33632W        W 1995  19.094  14.246  12.407
33633W        W 1996  24.064  39.503   2.311
33634W        W 1997  11.264  19.734   2.292
33635W        W 1998  33.085   7.244   0.933
33636W        W 1999  10.333  37.902  12.937
33637W        W 2000  26.552  24.141  11.399
33638W        W 2001  22.142  19.149   1.818
33639W        W 2002   7.312  38.429   0.817
33640W        W 2003  41.033  10.697  14.436
33641W        W 2004  30.090  23.127  13.904
33642W        W 2005   2.824  14.119   2.388
33643W        W 2006  21.123   6.236  14.468
33644W        W 2007  15.585  43.423  11.047
33645W        W 2008  25.608  35.401  11.609
33646W        W 2009  15.243   9.781  13.505
33647W        W 2010  15.207   3.244   2.687
33648W        W 2011   8.781  14.128  11.954
33649W        W 2012   4.251  34.487  12.903
33650W        W 2013  17.591  23.111  10.441
33651W        W 2014   7.293  11.312   3.202
33652W        W 2015  30.520  35.560   3.711
33653W        W 2016  25.066  43.827   1.300
33654W        W 2017  29.513  22.714  11.921
33655W        W 2018  40.542  10.840  12.995
33656W        W 2019   8.717  42.917  14.312
33657W        W 2020   7.265  37.373  12.021
33658W        W 2021  33.509  21.717  13.472
33659W        W 2022  10.309  41.979   2.213
33660W        W 2023  22.726  16.624   0.835
33661W        W 2024   2.365  39.319   0.316
33662W        W 2025   6.916   9.761   3.842
33663W        W 2026  13.652  32.118  12.441
33664W        W 2027  14.594   2.919  11.472
33665W        W 2028  24.678   7.350   4.193
33666W        W 2029   1.760  28.089  10.600
33667W        W 2030  35.929  11.726   2.179
33668W        W 2031  39.534   8.679   2.395
33669W        W 2032   0.786  40.942   0.254
33670W        W 2033   9.733  32.972   2.326
33671W        W 2034  28.083  22.565  12.968
33672W        W 2035   0.834  43.921  12.382
33673W        W 2036  23.988  21.740  13.862
33674W        W 2037   5.692  35.533  12.443
33675W        W 2038  15.808  38.967  13.820
33676W        W 2039  11.756  33.588  13.807
33677W        W 2040  24.643   9.748   0.764
33678W        W 2041   5.328   1.459   4.224
33679W        W 2042  34.115  33.057  13.846
33680W        W 2043  41.292  20.584  14.403
33681W        W 2044  35.039  25.601   3.334
33682W        W 2045  29.647  15.646  10.428
33683W        W 2046  43.787  33.919  10.507
33684W        W 2047  44.495  23.986   2.863
33685W        W 2048  37.886  20.233   4.793
33686W        W 2049  41.300  20.260  12.444
33687W        W 2050  30.996  34.417  11.026
33688W        W 2051   4.729  27.647   0.458
33689W        W 2052  42.487  27.148   1.405
33690W        W 2053  42.483  16.795   0.893
33691W        W 2054   2.960   4.886   1.733
33692W        W 2055  29.482  41.416  11.391
33693W        W 2056  14.202   1.277  13.446
33694W        W 2057  33.098  15.233   4.682
33695W        W 2058  17.600  30.614  10.926
33696W        W 2059  31.625  33.021   0.321
33697W        W 2060  33.967  27.585   2.305
33698W        W 2061  23.000  21.217  11.966
33699W        W 2062   4.863  17.068   5.183
33700W        W 2063  36.841  40.408  12.991
33701W        W 2064  33.458  42.465   2.778
33702W        W 2065  42.856  21.113   2.384
33703W        W 2066  33.565   6.374  13.020
33704W        W 2067  26.639  40.371   1.817
33705W        W 2068   1.913  42.996   1.323
33706W        W 2069   5.914  27.092  11.125
33707W        W 2070  42.464   0.874   1.822
33708W        W 2071  19.537  11.808   1.237
33709W        W 2072  27.631  36.843  12.032
33710W        W 2073  17.589  34.048   3.326
33711W        W 2074   4.323  35.541   0.807
33712W        W 2075  38.961  24.999   3.257
33713W        W 2076  16.752  40.326   3.255
33714W        W 2077  37.438  19.200   4.323
33715W        W 2078  41.037  23.203   1.862
33716W        W 2079  11.296  20.072  11.435
33717W        W 2080  16.726   0.452   2.281
33718W        W 2081  30.447  11.164   3.252
33719W        W 2082  37.369  20.697   2.195
33720W        W 2083  37.901  28.437  10.436
33721W        W 2084  33.487  31.576  14.802
33722W        W 2085  39.988   0.877  13.914
33723W        W 2086  10.727  19.562  14.005
33724W        W 2087  41.395  19.621   0.343
33725W        W 2088  38.398  32.552   1.408
33726W        W 2089  31.978   1.798   2.722
33727W        W 2090  17.082   9.726  13.436
33728W        W 2091  22.216  20.606   4.326
33729W        W 2092  31.102  24.137  13.912
33730W        W 2093   7.674  26.063  14.354
33731W        W 2094  34.114  13.648  14.804
33732W        W 2095  17.668   9.161  11.536
33733W        W 2096  28.060  29.487   0.414
33734W        W 2097  10.209  11.230  13.814
33735W        W 2098  38.843  24.992  10.150
33736W        W 2099   7.675  20.752   0.833
33737W        W 2100  39.462   7.241   2.696
33738W        W 2101  38.540   6.840   0.796
33739W        W 2102   5.723   3.281   4.326
33740W        W 2103  32.919  26.130  11.919
33741W        W 2104  42.474  38.033  10.112
33742W        W 2105  17.603  44.795   5.629
33743W        W 2106  39.357  20.047  13.519
33744W        W 2107  33.118  40.966  11.982
33745W        W 2108  16.167  44.450   3.179
33746W        W 2109  13.602   2.826  14.285
33747W        W 2110   1.383  22.006   3.344
33748W        W 2111  24.087  32.052  11.564
33749W        W 2112   7.722   7.218  12.045
33750W        W 2113  44.916   7.372   4.133
33751W        W 2114   3.854  12.359   4.611
33752W        W 2115  24.622   1.826  14.436
33753W        W 2116  32.599  37.849  14.842
33754W        W 2117  11.810   4.831   4.150
33755W        W 2118  34.912  29.120   3.190
33756W        W 2119  11.724  32.631  14.369
33757W        W 2120  15.592  36.044   9.945
33758W        W 2121  35.961  35.902   3.740
33759W        W 2122  38.564  29.491   1.768
33760W        W 2123  37.356  19.537  14.887
33761W        W 2124   0.908  23.700   2.348
33762W        W 2125  14.304  40.838   2.781
33763W        W 2126  36.549   6.334   2.185
33764W        W 2127  25.087  27.561  12.883
33765W        W 2128  15.650   7.884   3.834
33766W        W 2129  24.624  32.568  10.411
33767W        W 2130  34.581   4.283   1.785
33768W        W 2131   8.742   1.788  13.311
33769W        W 2132  35.856  12.709   5.125
33770W        W 2133  24.161   5.232   3.228
33771W        W 2134  27.128  11.301   2.902
33772W        W 2135  40.893  41.949   0.267
33773W        W 2136  13.661  13.240  12.370
33774W        W 2137  38.981  34.921   2.753
33775W        W 2138  13.189  20.602  10.960
33776W        W 2139  27.470   7.860  11.578
33777W        W 2140  33.512   7.675   3.773
33778W        W 2141  16.219  18.772  14.879
33779W        W 2142  41.008  30.987   1.220
33780W        W 2143  34.540  30.531  12.361
33781W        W 2144  37.464  33.010   9.931
33782W        W 2145  23.664   2.408  13.493
33783W        W 2146  22.138  23.724  14.339
33784W        W 2147  20.721  21.683   2.245
33785W        W 2148  32.924  30.451   2.766
33786W        W 2149  10.158   3.747   2.899
33787W        W 2150  15.137  31.449  12.019
33788W        W 2151  31.914  43.483  10.490
33789W        W 2152  11.174  25.060   4.128
33790W        W 2153  32.624   4.698   3.173
33791W        W 2154   1.382  15.741   2.399
33792W        W 2155  28.082   8.788  14.367
33793W        W 2156  40.529  17.602  13.840
33794W        W 2157  13.833  41.943  11.474
33795W        W 2158  39.464  27.161   3.355
33796W        W 2159  37.397  16.590  14.985
33797W        W 2160  17.721  39.013   3.213
33798W        W 2161  30.492  23.581  12.013
33799W        W 2162  19.169  32.927  12.511
33800W        W 2163  33.611   5.855  10.598
33801W        W 2164  26.538   4.266   1.278
33802W        W 2165  11.303  14.810   2.780
33803W        W 2166  17.756  40.963  12.360
33804W        W 2167  44.777   9.646  13.894
33805W        W 2168   5.762   3.367   1.932
33806W        W 2169  32.608   2.302  14.812
33807W        W 2170  34.565  28.110   4.599
33808W        W 2171   3.803  39.448   1.807
33809W        W 2172  16.130  42.931  12.008
33810W        W 2173  17.568   7.893  12.430
33811W        W 2174   5.406  44.297   0.936
33812W        W 2175  37.878  10.293   5.173
33813W        W 2176  12.795  35.475   0.843
33814W        W 2177   4.437  11.285   1.387
33815W        W 2178  43.899  40.026  12.413
33816W        W 2179   7.711   3.849   1.848
33817W        W 2180  22.168  35.464   1.775
33818W        W 2181  29.017  22.238  13.334
33819W        W 2182  12.312  44.420  14.009
33820W        W 2183  44.970  10.840  14.026
33821W        W 2184  29.970  12.830  11.593
33822W        W 2185  38.010  21.068  13.024
33823W        W 2186  14.103  32.439  11.937
33824W        W 2187   6.816  37.498   5.294
33825W        W 2188  33.017  43.436  11.547
33826W        W 2189   6.320  14.692   3.316
33827W        W 2190  27.589  31.489  13.820
33828W        W 2191  33.118  16.582   0.760
33829W        W 2192  14.283  12.164   1.237
33830W        W 2193  17.236  44.874   2.892
33831W        W 2194  24.105   6.404  10.981
33832W        W 2195  34.117  39.819  12.869
33833W        W 2196  44.406  28.624   4.142
33834W        W 2197  20.708  29.520   1.804
33835W        W 2198   6.680   8.743  12.868
33836W        W 2199  32.402  25.116  10.128
33837W        W 2200   4.424  27.562   2.352
33838W        W 2201  11.128  44.980  13.463
33839W        W 2202  18.581   6.890  14.841
33840W        W 2203  20.091   8.680  11.033
33841W        W 2204   5.436  26.531   4.812
33842W        W 2205  32.493  18.622  10.959
33843W        W 2206  25.072  39.438  11.564
33844W        W 2207   6.429  27.490   3.832
33845W        W 2208  32.905  30.630  11.590
33846W        W 2209  31.081  41.827  11.083
33847W        W 2210   7.212   0.857  13.365
33848W        W 2211  18.552   7.227  13.451
33849W        W 2212  30.046  23.191   2.874
33850W        W 2213   9.262  15.131   4.731
33851W        W 2214  26.155   0.355  13.334
33852W        W 2215  27.614  41.389  13.971
33853W        W 2216  40.386  28.617  13.802
33854W        W 2217  26.502  28.521   4.819
33855W        W 2218   9.149   8.878   1.790
33856W        W 2219  11.703  41.442  14.976
33857W        W 2220  42.900  30.965  13.864
33858W        W 2221  42.453  30.650   4.212
33859W        W 2222  41.391   9.191  14.979
33860W        W 2223  17.200   5.876   1.253
33861W        W 2224  14.678   3.803   5.794
33862W        W 2225  23.624  21.192   0.410
33863W        W 2226  23.098   4.830   4.700
33864W        W 2227  33.110  36.918  10.553
33865W        W 2228  43.829  40.432   4.742
33866W        W 2229  17.675  32.610   1.297
33867W        W 2230  40.377  24.178  10.553
33868W        W 2231  18.781  24.066   0.449
33869W        W 2232  42.337  33.498  12.445
33870W        W 2233  21.024   6.724   0.357
33871W        W 2234   9.846  41.509   1.332
33872W        W 2235  32.906  38.489  12.080
33873W        W 2236  19.132  15.154   3.146
33874W        W 2237  12.794  26.109  13.057
33875W        W 2238  14.320  34.905   0.467
33876W        W 2239   0.871  32.596  14.277
33877W        W 2240  37.071  40.444   0.946
33878W        W 2241  38.836   9.740  11.093
33879W        W 2242  41.979  33.915  13.988
33880W        W 2243   9.346  40.418  12.565
33881W        W 2244  32.612  30.015   0.860
33882W        W 2245  24.584   8.269   0.926
33883W        W 2246   0.480  17.728  13.465
33884W        W 2247  17.676   4.399   2.339
33885W        W 2248  42.347  18.160   2.717
33886W        W 2249   2.830  18.268   2.801
33887W        W 2250  35.527  31.463   3.786
33888W        W 2251   0.908  33.959   0.414
33889W        W 2252  16.671  35.986   3.380
33890W        W 2253  37.057   6.841  14.846
33891W        W 2254   9.359   2.374   4.700
33892W        W 2255  28.079  11.259  13.454
33893W        W 2256   2.270  12.794   4.698
33894W        W 2257   3.871  27.006   0.820
33895W        W 2258   9.149   2.763   3.857
33896W        W 2259  34.400   5.888  14.019
33897W        W 2260   0.338  24.074  13.931
33898W        W 2261  25.101  40.458  10.975
33899W        W 2262  31.091   8.256  12.360
33900W        W 2263  38.332  23.498   2.874
33901W        W 2264  36.452  15.253   1.361
33902W        W 2265  17.752  32.615  12.454
33903W        W 2266  35.988  23.206   3.232
33904W        W 2267  12.310   1.920   4.216
33905W        W 2268  36.538   1.475   4.821
33906W        W 2269  24.152   1.351   1.307
33907W        W 2270  37.934  11.228  12.358
33908W        W 2271  21.049  20.166  14.494
33909W        W 2272  14.121  42.891  14.454
33910W        W 2273   2.881  19.551  11.578
33911W        W 2274  26.163   3.731  13.371
33912W        W 2275  30.144  35.093   1.789
33913W        W 2276  41.397  30.057   4.637
33914W        W 2277   7.219  21.097   1.774
33915W        W 2278  11.700   7.760   0.305
33916W        W 2279  34.474  44.262   3.707
33917W        W 2280  42.428  30.948  10.428
33918W        W 2281   0.270   9.855  13.013
33919W        W 2282  28.025   4.391  10.607
33920W        W 2283  27.478  31.489   1.297
33921W        W 2284  26.117  41.484  13.925
33922W        W 2285  38.964  12.315  12.855
33923W        W 2286   9.302   3.232  13.540
33924W        W 2287  25.207  34.955  13.351
33925W        W 2288  23.734  10.815  13.473
33926W        W 2289  21.630  29.613  11.382
33927W        W 2290  14.762  35.906  14.324
33928W        W 2291  30.553  27.173   3.245
33929W        W 2292  20.680   8.403  14.001
33930W        W 2293  41.475   6.245  11.461
33931W        W 2294  17.077  37.898   1.731
33932W        W 2295  19.667  22.550   3.149
33933W        W 2296  22.575   8.718   2.407
33934W        W 2297  26.544  28.454   0.340
33935W        W 2298  34.415  39.000   1.825
33936W        W 2299   5.317   8.226  10.434
33937W        W 2300   9.785  29.587   1.857
33938W        W 2301  18.228  12.780  14.963
33939W        W 2302   4.250   3.307  12.864
33940W        W 2303   7.263  14.600  13.466
33941W        W 2304  29.588  12.295   1.882
33942W        W 2305  42.476  32.943  12.980
33943W        W 2306  38.348   7.221   4.811
33944W        W 2307  23.550  10.244   1.866
33945W        W 2308   5.439  10.199  11.071
33946W        W 2309  16.808  18.204  13.325
33947W        W 2310  34.913  42.408   0.311
33948W        W 2311   0.818  41.972  10.585
33949W        W 2312   4.833  24.146   1.392
33950W        W 2313   3.320  24.136  12.492
33951W        W 2314  44.886  14.267  14.455
33952W        W 2315  15.736  18.641  11.417
33953W        W 2316   6.329  13.275   3.658
33954W        W 2317  32.023   5.762  10.934
33955W        W 2318  43.300  12.846  13.476
33956W        W 2319  23.117  40.327   1.842
33957W        W 2320  39.830  20.064   2.766
33958W        W 2321  36.509  13.328   2.244
33959W        W 2322  22.108  43.774   2.323
33960W        W 2323   1.404  19.542   3.668
33961W        W 2324  24.074  11.170  11.992
33962W        W 2325  28.949   5.364  10.962
33963W        W 2326  26.026  15.129  10.577
33964W        W 2327  16.138  30.632  10.941
33965W        W 2328  26.150  42.288   2.723
33966W        W 2329  12.163  42.806  13.010
33967W        W 2330  26.608  36.413  14.397
33968W        W 2331  34.480  12.215   3.309
33969W        W 2332  44.392  33.501  12.041
33970W        W 2333   2.330  18.067   0.254
33971W        W 2334   6.739  20.546  14.342
33972W        W 2335  15.113  41.867   2.833
33973W        W 2336   8.762  23.492   1.404
33974W        W 2337  19.151   1.876  11.385
33975W        W 2338  17.189  30.016  12.452
33976W        W 2339   6.741  16.284  14.788
33977W        W 2340   9.353  22.538  11.062
33978W        W 2341  32.598  38.529  14.450
33979W        W 2342   7.386  27.073   1.356
33980W        W 2343   3.265  37.032   1.271
33981W        W 2344   4.431  24.569   1.358
33982W        W 2345   6.406   7.285   4.786
33983W        W 2346  30.640  14.725   0.922
33984W        W 2347   1.332  20.633  11.397
33985W        W 2348  16.086  38.562   0.389
33986W        W 2349  24.221  42.352   0.760
33987W        W 2350  25.195  16.639  14.456
33988W        W 2351  30.622  14.241  14.817
33989W        W 2352  35.101  18.585   3.324
33990W        W 2353   6.251  31.470   4.140
33991W        W 2354  28.554   6.683   0.819
33992W        W 2355  41.525  38.527  12.507
33993W        W 2356  44.480  28.652   2.303
33994W        W 2357  17.746  36.548  12.897
33995W        W 2358  44.309  19.218  12.842
33996W        W 2359  25.083  31.023   3.233
33997W        W 2360  20.160  43.879   3.378
33998W        W 2361  30.498  30.486   4.823
33999W        W 2362  42.843  43.817   2.772
34000W        W 2363  15.293  35.491  14.872
34001W        W 2364  21.657  25.539   2.260
34002W        W 2365  37.901  21.597  11.970
34003W        W 2366   7.877   2.405  10.603
34004W        W 2367  16.651  33.885  13.425
34005W        W 2368  43.354  20.199  14.329
34006W        W 2369  29.636   0.969   2.221
34007W        W 2370   0.953  35.044  11.044
34008W        W 2371  37.380  17.222   1.342
34009W        W 2372  36.412  32.587  11.967
34010W        W 2373   8.379  44.807  10.523
34011W        W 2374  35.391  40.533  14.832
34012W        W 2375  38.476   3.710   2.357
34013W        W 2376  22.216  35.568   3.376
34014W        W 2377  25.705  26.018   0.319
34015W        W 2378  24.069  29.480  14.286
34016W        W 2379  28.577  20.214   1.834
34017W        W 2380  15.292  42.927   1.305
34018W        W 2381  30.045   2.924   3.160
34019W        W 2382  31.472  15.172  14.870
34020W        W 2383  29.163  37.352  12.544
34021W        W 2384  17.657  37.840   0.840
34022W        W 2385  37.438  44.347   4.603
34023W        W 2386  34.418  13.139   3.746
34024W        W 2387  31.481  10.277   0.744
34025W        W 2388  42.477  11.862  10.561
34026W        W 2389  30.964  19.668   2.741
34027W        W 2390  33.596  38.495   1.216
34028W        W 2391   0.913  30.913   1.293
34029W        W 2392   6.339  17.248  10.540
34030W        W 2393  35.474  29.986   0.304
34031W        W 2394  33.083   7.867   1.857
34032W        W 2395  39.348  42.507  12.362
34033W        W 2396  41.421   5.366  10.901
34034W        W 2397  20.756  34.577  12.448
34035W        W 2398  10.198  44.894  10.452
34036W        W 2399   8.774  40.888  12.952
34037W        W 2400  23.631   7.384   0.823
34038W        W 2401  34.120   3.420   2.288
34039W        W 2402  39.061  27.479   0.436
34040W        W 2403  40.470  32.005  12.895
34041W        W 2404  10.718  44.784   4.786
34042W        W 2405  38.555  26.971  10.892
34043W        W 2406  44.347  26.063   1.705
34044W        W 2407  32.488   7.323  10.025
34045W        W 2408  28.965   0.336   0.840
34046W        W 2409   9.830  10.845  14.805
34047W        W 2410  44.825  34.028   3.170
34048W        W 2411   9.259  43.403  11.593
34049W        W 2412   0.831  13.640  11.437
34050W        W 2413   5.235  40.433  13.542
34051W        W 2414  17.649  14.138  12.577
34052W        W 2415   9.341   7.680   4.725
34053W        W 2416  19.633  20.696   2.390
34054W        W 2417  23.140  13.352   1.755
34055W        W 2418  41.495  27.493   2.401
34056W        W 2419  36.896  44.504   0.794
34057W        W 2420  18.280  21.224  12.890
34058W        W 2421  33.566  33.990  11.487
34059W        W 2422  13.798  15.634   4.828
34060W        W 2423  44.786  38.540   2.699
34061W        W 2424  12.674  33.912   3.702
34062W        W 2425   5.395  43.287  10.434
34063W        W 2426  21.136  34.974  11.955
34064W        W 2427  10.785  36.892   0.258
34065W        W 2428  14.629   4.285   4.686
34066W        W 2429  20.586   9.374   4.815
34067W        W 2430  17.722   3.450   3.158
34068W        W 2431  37.408  28.565   0.305
34069W        W 2432  23.114  31.061  11.041
34070W        W 2433  33.046  33.061  11.864
34071W        W 2434  32.052  44.835  11.877
34072W        W 2435  31.086   5.342  10.546
34073W        W 2436  23.686  31.969  13.337
34074W        W 2437  29.150  31.555  11.006
34075W        W 2438   5.222  42.476   2.256
34076W        W 2439  23.576  12.752   4.644
34077W        W 2440   3.953  27.039   2.855
34078W        W 2441  38.506   3.394   2.406
34079W        W 2442  12.731  19.143  14.773
34080W        W 2443   7.669  32.506  13.924
34081W        W 2444  24.641  33.014   3.178
34082W        W 2445  15.668  29.540   3.739
34083W        W 2446  29.513  30.035   4.255
34084W        W 2447  26.608  38.832  13.858
34085W        W 2448   6.764   6.910   0.447
34086W        W 2449  13.720  27.672  13.860
34087W        W 2450  32.634  12.852  11.395
34088W        W 2451  37.894   8.799  11.477
34089W        W 2452  35.984  26.103   0.420
34090W        W 2453  43.874  37.439  13.917
34091W        W 2454  21.166  22.091   3.209
34092W        W 2455  10.180  32.915  14.787
34093W        W 2456   6.410   8.889   1.372
34094W        W 2457  38.880  31.448   1.869
34095W        W 2458  14.214  17.270  14.795
34096W        W 2459   6.740  16.782   3.350
34097W        W 2460  23.984  26.960  12.386
34098W        W 2461  10.725  37.529   2.240
34099W        W 2462  36.888  26.962  11.993
34100W        W 2463  24.595  20.701   2.679
34101W        W 2464  43.502  23.157  12.472
34102W        W 2465  40.831  34.916  12.048
34103W        W 2466  25.635   6.302  12.063
34104W        W 2467  43.478  23.013  10.432
34105W        W 2468  12.203  39.014   0.782
34106W        W 2469  35.934  40.878   4.726
34107W        W 2470  25.063  14.273  11.051
34108W        W 2471  39.908  34.013  13.343
34109W        W 2472  37.879  12.300  13.395
34110W        W 2473   1.813  23.711   0.933
34111W        W 2474   4.789  30.433   1.242
34112W        W 2475  17.646   7.823  13.410
34113W        W 2476   7.673   9.366  12.950
34114W        W 2477  21.230  38.429  10.915
34115W        W 2478  14.152  29.625   3.637
34116W        W 2479   4.243  32.124  12.489
34117W        W 2480  32.908   8.866  10.539
34118W        W 2481  38.876  40.530   3.363
34119W        W 2482  11.802   5.291   4.233
34120W        W 2483  30.032  27.572   5.581
34121W        W 2484  28.944  25.141   3.746
34122W        W 2485  34.436   8.357  14.833
34123W        W 2486  10.797   2.963  14.788
34124W        W 2487  25.049  44.903  14.318
34125W        W 2488  21.118  39.314  13.308
34126W        W 2489  27.170  25.560   4.799
34127W        W 2490  29.577   8.783   3.193
34128W        W 2491  21.080  22.515   1.746
34129W        W 2492  15.282  35.878   4.774
34130W        W 2493  36.859  41.410   1.728
34131W        W 2494  18.544  26.457  10.517
34132W        W 2495  14.598  15.326  12.051
34133W        W 2496   3.949  27.967  10.135
34134W        W 2497  10.369  11.204  14.371
34135W        W 2498  41.821  29.552   4.824
34136W        W 2499  32.520  37.853   3.779
34137W        W 2500  26.111   8.301  12.350
34138W        W 2501  14.288  36.078   0.392
34139W        W 2502   0.781  11.683  11.405
34140W        W 2503   2.278  27.167  14.789
34141W        W 2504   2.354  35.079  14.920
34142W        W 2505  43.470  36.035   9.925
34143W        W 2506  15.766  24.164  11.950
34144W        W 2507  24.637  19.749  13.387
34145W        W 2508  20.714  40.482   0.794
34146W        W 2509  44.451  16.656  14.293
34147W        W 2510  18.235  21.695  12.575
34148W        W 2511   2.833  22.500   4.783
34149W        W 2512  29.080  10.719   1.753
34150W        W 2513  22.035  32.537   2.308
34151W        W 2514  16.100  39.985   4.712
34152W        W 2515  18.791  23.230  12.020
34153W        W 2516   7.266  12.160   4.719
34154W        W 2517  44.275   8.313   4.304
34155W        W 2518  11.247  38.485  13.535
34156W        W 2519   0.476  12.254  13.951
34157W        W 2520  16.152  42.312   0.353
34158W        W 2521  34.379  31.415  11.004
34159W        W 2522  18.285   5.701  14.997
34160W        W 2523  23.561   5.814   2.865
34161W        W 2524   5.355  19.759   1.781
34162W        W 2525   4.436  34.954  12.987
34163W        W 2526  28.993  15.660   0.374
34164W        W 2527  12.616  28.024  14.029
34165W        W 2528   3.361  44.832  12.956
34166W        W 2529  26.544  33.024   4.198
34167W        W 2530   3.222  44.431  10.944
34168W        W 2531  30.031  11.292   1.305
34169W        W 2532  27.174  35.400   4.337
34170W        W 2533  38.388  20.701   0.328
34171W        W 2534  10.789  25.622   3.773
34172W        W 2535  43.377   9.729  14.847
34173W        W 2536  33.924  20.189  12.403
34174W        W 2537  10.849  21.055  10.569
34175W        W 2538  39.824  44.768  14.000
34176W        W 2539  26.585   8.281   1.860
34177W        W 2540   2.335  29.929  11.540
34178W        W 2541  30.542  33.074   4.754
34179W        W 2542  38.337   6.292  11.543
34180W        W 2543  32.990  37.835   1.379
34181W        W 2544  32.449  25.082   4.224
34182W        W 2545  21.564  37.504   1.318
34183W        W 2546  31.071  18.684  13.472
34184W        W 2547  22.174  16.807  12.946
34185W        W 2548  39.062  28.170   2.219
34186W        W 2549   5.931  43.411   0.282
34187W        W 2550  15.267  15.242   5.730
34188W        W 2551   7.320  36.886  14.915
34189W        W 2552   8.655   3.915   4.174
34190W        W 2553  31.403  18.253  13.969
34191W        W 2554  26.197  27.664  12.903
34192W        W 2555  38.896  27.466  12.839
34193W        W 2556  12.722  23.058  14.940
34194W        W 2557  21.255  12.730   4.289
34195W        W 2558  27.690   3.923   2.819
34196W        W 2559  12.801  36.569  12.842
34197W        W 2560   9.321  38.922  12.087
34198W        W 2561  14.333  33.526  12.555
34199W        W 2562   4.837  19.708  11.124
34200W        W 2563   4.922   7.267  13.795
34201W        W 2564  23.494  13.318  10.889
34202W        W 2565  23.156  11.766  10.151
34203W        W 2566  31.951  12.637   0.924
34204W        W 2567  37.556  23.504   4.707
34205W        W 2568  33.974   7.688  13.517
34206W        W 2569  38.874  12.210   4.180
34207W        W 2570  21.745  24.201   4.141
34208W        W 2571  16.607  26.101  11.018
34209W        W 2572  35.873  38.473  14.933
34210W        W 2573   6.311  23.572   0.333
34211W        W 2574  17.302  12.697   1.299
34212W        W 2575  15.139  25.970   2.330
34213W        W 2576  34.605  16.740  13.874
34214W        W 2577   0.926  37.474  11.945
34215W        W 2578  26.654  22.029   2.712
34216W        W 2579  17.648  16.199   3.356
34217W        W 2580  33.910   7.202  10.976
34218W        W 2581   0.314   6.805   4.775
34219W        W 2582  33.037  15.681   1.354
34220W        W 2583  26.064  25.123   0.473
34221W        W 2584  28.467   7.888   1.822
34222W        W 2585  10.142  18.179  12.911
34223W        W 2586  42.777  37.057  10.971
34224W        W 2587  21.063  28.062  12.077
34225W        W 2588  37.539  31.023   0.947
34226W        W 2589  11.321  30.479  11.921
34227W        W 2590  43.881   7.365   1.707
34228W        W 2591  29.067  26.644  14.359
34229W        W 2592  13.329  42.390   4.669
34230W        W 2593   2.454   6.687   1.832
34231W        W 2594   5.303  15.264   0.883
34232W        W 2595   3.413  28.122   4.347
34233W        W 2596  23.176  12.198  11.890
34234W        W 2597  18.161  15.280  12.436
34235W        W 2598  10.241  24.524   1.302
34236W        W 2599  25.642  38.072  12.828
34237W        W 2600  43.878  18.111  11.572
34238W        W 2601  44.006  34.499   5.098
34239W        W 2602  15.793  38.420  12.088
34240W        W 2603  12.823  35.998   1.417
34241W        W 2604   1.342  30.626  11.486
34242W        W 2605  41.032  36.349   3.649
34243W        W 2606  42.837  35.472  10.889
34244W        W 2607  23.685  37.862   0.313
34245W        W 2608  40.877  43.464   3.827
34246W        W 2609  30.560  40.517  13.870
34247W        W 2610   1.468  21.686   4.131
34248W        W 2611  31.951  40.547   2.742
34249W        W 2612  37.494  17.296  14.013
34250W        W 2613   7.225  41.412   0.433
34251W        W 2614  18.050   2.436  10.608
34252W        W 2615  32.565  36.540  14.820
34253W        W 2616  39.546  44.326  12.091
34254W        W 2617  37.914  16.088   0.373
34255W        W 2618  44.896  38.478   5.804
34256W        W 2619  19.577  22.251   2.259
34257W        W 2620  18.161  23.720   3.253
34258W        W 2621  26.551   2.775  11.597
34259W        W 2622  29.157  35.582  11.050
34260W        W 2623   4.812  20.695  12.467
34261W        W 2624  40.856  28.144  14.816
34262W        W 2625  16.126  37.942  13.982
34263W        W 2626   4.407   9.385  14.891
34264W        W 2627  34.904   2.901   1.796
34265W        W 2628  22.721  43.486  10.986
34266W        W 2629  30.502  33.601  13.064
34267W        W 2630  13.624  21.131  10.529
34268W        W 2631  35.474  36.888   3.696
34269W        W 2632   6.343   9.150   4.306
34270W        W 2633  36.064   9.339   1.699
34271W        W 2634   3.280  27.447   3.236
34272W        W 2635   0.899  13.134   2.818
34273W        W 2636  21.186  11.347   0.893
34274W        W 2637  19.700  15.759  12.012
34275W        W 2638   6.768   2.753   2.818
34276W        W 2639  36.065  36.953  11.864
34277W        W 2640  41.990   9.172  14.829
34278W        W 2641  22.660  23.988  10.986
34279W        W 2642  43.822  27.995   1.915
34280W        W 2643  32.500  34.440  13.043
34281W        W 2644  43.838  44.832  14.279
34282W        W 2645  13.722   2.423   0.444
34283W        W 2646  22.049  11.636   3.827
34284W        W 2647  32.589  35.097  12.991
34285W        W 2648  41.961  39.543   3.744
34286W        W 2649  36.996  38.023  13.312
34287W        W 2650  21.705  34.863  11.967
34288W        W 2651  36.530  10.648   1.410
34289W        W 2652  40.366  28.597   1.443
34290W        W 2653  20.742  16.104   4.309
34291W        W 2654  16.625  11.626  14.761
34292W        W 2655  35.925   7.793   3.250
34293W        W 2656  10.818  22.045   0.330
34294W        W 2657  33.622  14.312   3.759
34295W        W 2658   8.887   2.248  14.786
34296W        W 2659  33.467  40.873   4.220
34297W        W 2660   6.739  22.734  12.086
34298W        W 2661  26.469  30.520  12.920
34299W        W 2662  13.291  35.985   2.325
34300W        W 2663  41.352   9.262  11.063
34301W        W 2664  11.642  11.693   3.747
34302W        W 2665  29.079  30.136  14.864
34303W        W 2666  26.554   6.697   3.760
34304W        W 2667  17.070  11.782   3.695
34305W        W 2668  27.059  37.874  12.918
34306W        W 2669  19.188  41.326  13.382
34307W        W 2670  21.640  15.693  11.003
34308W        W 2671  28.131  12.718  11.048
34309W        W 2672  17.169   8.293   4.815
34310W        W 2673   1.438  35.502   4.155
34311W        W 2674  19.722  44.855  10.915
34312W        W 2675  20.656   9.261   1.905
34313W        W 2676  24.158   2.755   2.746
34314W        W 2677   5.415  34.965   9.938
34315W        W 2678  35.016  13.158   2.413
34316W        W 2679   3.458  30.457  14.943
34317W        W 2680  39.862  10.323  14.455
34318W        W 2681  18.086  19.160  13.889
34319W        W 2682  32.139   9.731  11.439
34320W        W 2683  21.227  31.600   2.304
34321W        W 2684  23.670   8.378  14.022
34322W        W 2685  19.282  13.205   4.142
34323W        W 2686   4.241  43.502  10.086
34324W        W 2687  18.703  31.496  14.821
34325W        W 2688  42.935  27.556  10.991
34326W        W 2689  28.178  38.844  12.953
34327W        W 2690  28.600  17.730  14.408
34328W        W 2691  31.943  14.793   4.128
34329W        W 2692  42.010  23.713   4.770
34330W        W 2693  32.895  30.543  10.909
34331W        W 2694  37.068  40.326   0.401
34332W        W 2695  15.257  20.042   2.811
34333W        W 2696  34.511  39.339  14.868
34334W        W 2697  17.153  23.110  10.470
34335W        W 2698  16.602  15.774   4.800
34336W        W 2699  21.713  37.973  11.595
34337W        W 2700  37.409  11.156  12.004
34338W        W 2701   3.365  20.605  11.404
34339W        W 2702  41.972   3.216   3.740
34340W        W 2703  19.157  11.334   0.772
34341W        W 2704  29.592   4.391   3.337
34342W        W 2705   7.385  41.473  11.587
34343W        W 2706  32.955  39.334   4.257
34344W        W 2707  13.622  22.735   1.305
34345W        W 2708  25.579  13.653  10.488
34346W        W 2709  34.013   9.388  13.425
34347W        W 2710  32.887  32.525   3.345
34348W        W 2711   0.921  32.629  13.008
34349W        W 2712  21.517  32.004  13.903
34350W        W 2713  22.654  25.130   4.635
34351W        W 2714  35.373   7.892  12.550
34352W        W 2715  15.718   9.304   4.171
34353W        W 2716  37.363  30.588  11.908
34354W        W 2717  32.955   2.873  12.054
34355W        W 2718   8.295   4.361   1.845
34356W        W 2719  11.354  11.139  12.005
34357W        W 2720  20.079  29.652  13.049
34358W        W 2721  20.706  42.932  13.546
34359W        W 2722  12.228  30.958   0.302
34360W        W 2723  32.086   1.266  11.036
34361W        W 2724  37.930  21.136   0.831
34362W        W 2725  13.713  12.211   1.934
34363W        W 2726  39.954  39.876  11.943
34364W        W 2727  31.471   3.927  11.067
34365W        W 2728  18.242  19.762   2.741
34366W        W 2729  12.306  34.909   2.390
34367W        W 2730  36.432  38.566  11.546
34368W        W 2731   9.801  39.906  13.879
34369W        W 2732  40.033  44.841   2.856
34370W        W 2733  25.503   0.434  14.865
34371W        W 2734  24.086  23.007   2.840
34372W        W 2735  44.440  25.581  11.020
34373W        W 2736  12.687  36.002  14.785
34374W        W 2737  38.397  44.444  13.871
34375W        W 2738   2.791  23.027  10.984
34376W        W 2739  35.023  26.532   1.376
34377W        W 2740  15.780  10.662  14.440
34378W        W 2741  15.751  23.176   2.828
34379W        W 2742  21.203  21.231   2.711
34380W        W 2743   9.656  36.027  12.893
34381W        W 2744   0.423  30.638   4.613
34382W        W 2745  28.681  31.053   1.700
34383W        W 2746  14.182  30.628   5.209
34384W        W 2747  40.985  41.374  14.856
34385W        W 2748   8.661   7.189   2.314
34386W        W 2749  39.832   5.222  14.358
34387W        W 2750  19.633  41.426   3.268
34388W        W 2751  38.871   1.926  13.012
34389W        W 2752  11.311  38.571   3.246
34390W        W 2753  41.945  29.081   1.323
34391W        W 2754  20.752  39.384   2.757
34392W        W 2755  12.168  15.216   4.251
34393W        W 2756  23.178  42.909  14.326
34394W        W 2757  25.000  38.075   1.722
34395W        W 2758  37.997   1.473  10.533
34396W        W 2759  36.037  10.309  12.497
34397W        W 2760  20.588  43.437   3.747
34398W        W 2761  27.020  29.108  12.853
34399W        W 2762  41.807  37.991   3.270
34400W        W 2763   0.314  19.629  11.097
34401W        W 2764  32.063  28.115   5.662
34402W        W 2765  36.397   2.922   4.603
34403W        W 2766  38.822  44.982  10.624
34404W        W 2767  28.678  15.191  14.328
34405W        W 2768  15.742   7.694   0.464
34406W        W 2769  41.016  26.979  13.479
34407W        W 2770  39.324   7.401   0.476
34408W        W 2771   8.724  35.447   4.609
34409W        W 2772  37.560  26.683   0.923
34410W        W 2773   0.873   3.867   0.454
34411W        W 2774  14.655  25.136  11.934
34412W        W 2775  15.754  39.065   1.229
34413W        W 2776  40.005  19.533   3.858
34414W        W 2777  19.625  13.795   1.342
34415W        W 2778  10.799  17.224   9.988
34416W        W 2779  36.467  19.688  14.449
34417W        W 2780  14.594  24.515  12.579
34418W        W 2781  23.535  19.246  13.022
34419W        W 2782  31.454   2.376   1.278
34420W        W 2783  23.132  43.420   0.805
34421W        W 2784  32.112  43.791   9.458
34422W        W 2785  40.882  36.963   2.292
34423W        W 2786  37.552  12.781   5.208
34424W        W 2787   5.885  39.833  13.432
34425W        W 2788  41.346   8.898  12.520
34426W        W 2789  16.210  12.270  11.547
34427W        W 2790  17.784  29.167  11.114
34428W        W 2791   7.769  40.978  12.409
34429W        W 2792  32.474  39.438  10.432
34430W        W 2793   5.824  32.054  13.053
34431W        W 2794  15.684  35.869   3.373
34432W        W 2795  44.342  21.644  11.598
34433W        W 2796  24.221  22.614   2.667
34434W        W 2797  44.895  21.567   4.735
34435W        W 2798  43.358  13.758   4.307
34436W        W 2799  11.331  28.474   3.691
34437W        W 2800  17.653  23.591  13.468
34438W        W 2801   9.358  25.691   1.261
34439W        W 2802  31.479  14.334  13.824
34440W        W 2803   0.255   6.365   1.832
34441W        W 2804   0.921  29.612   4.689
34442W        W 2805  14.832   1.361  14.337
34443W        W 2806  38.560  10.855   2.306
34444W        W 2807  40.445  33.613   2.377
34445W        W 2808  43.871  10.379   0.378
34446W        W 2809  30.127  27.448  11.111
34447W        W 2810   6.202   9.358   0.785
34448W        W 2811   6.788  25.555  12.973
34449W        W 2812  31.568  31.543  13.362
34450W        W 2813   4.392  27.078   4.606
34451W        W 2814   8.275  43.372  12.346
34452W        W 2815  10.153  33.575  11.866
34453W        W 2816  33.405  41.026   4.670
34454W        W 2817  39.361  28.579   3.229
34455W        W 2818  41.480   9.739  11.126
34456W        W 2819  33.951  28.082  14.835
34457W        W 2820  15.699  17.267  12.416
34458W        W 2821  31.967  43.352  12.395
34459W        W 2822  26.548   4.229   3.386
34460W        W 2823  36.880   2.349   1.368
34461W        W 2824  20.714  12.326   3.787
34462W        W 2825   3.904  40.837   2.861
34463W        W 2826  21.055  25.597   3.236
34464W        W 2827  18.150  37.978   3.727
34465W        W 2828  27.507  39.981   3.272
34466W        W 2829  31.628  14.179  14.305
34467W        W 2830  39.398  33.468   3.356
34468W        W 2831  37.948   4.408  13.428
34469W        W 2832  42.293  42.806   3.802
34470W        W 2833  16.158  33.972  12.464
34471W        W 2834   0.446   7.667   4.808
34472W        W 2835   8.358  36.919  13.887
34473W        W 2836  28.979   9.266   3.855
34474W        W 2837  27.500  15.111   1.367
34475W        W 2838  16.106  29.534   3.774
34476W        W 2839  24.529   4.902   4.202
34477W        W 2840  22.716  18.773   2.865
34478W        W 2841  31.996   6.755  10.492
34479W        W 2842  10.301   1.899  10.631
34480W        W 2843  32.040  28.492   4.196
34481W        W 2844  18.680   0.950   5.100
34482W        W 2845  34.097   6.799  12.968
34483W        W 2846  20.758  11.183   1.700
34484W        W 2847  22.032  35.477  12.527
34485W        W 2848  25.071  21.618  11.584
34486W        W 2849  30.951  11.802   4.781
34487W        W 2850  44.473  15.113  10.941
34488W        W 2851  27.965  25.671   1.318
34489W        W 2852  35.017  33.453   4.174
34490W        W 2853  41.819  21.671   0.373
34491W        W 2854  12.259   3.884   0.315
34492W        W 2855   4.278  14.643  10.405
34493W        W 2856  36.507   1.901   3.652
34494W        W 2857  22.504  25.153  14.505
34495W        W 2858   0.392  11.355   1.851
34496W        W 2859  20.735  24.059   2.842
34497W        W 2860  17.686  36.456  10.451
34498W        W 2861  18.589   8.846   1.851
34499W        W 2862  38.467  18.622   0.252
34500W        W 2863  22.705   7.181   5.189
34501W        W 2864  11.719   4.329   3.178
34502W        W 2865  26.136  38.040   0.846
34503W        W 2866  24.116  27.039   1.254
34504W        W 2867  31.059  37.441   0.321
34505W        W 2868   6.859  32.462   3.784
34506W        W 2869  43.299  37.902   0.320
34507W        W 2870   6.890  19.760   2.411
34508W        W 2871  12.722  29.478   3.370
34509W        W 2872  37.491  36.069  12.085
34510W        W 2873   0.310  10.869  13.955
34511W        W 2874  25.063  20.555  12.827
34512W        W 2875  41.362   0.862  11.570
34513W        W 2876  26.131  40.353   3.654
34514W        W 2877  30.023   2.250   3.338
34515W        W 2878   0.801  12.146  13.041
34516W        W 2879  10.216  36.895  14.008
34517W        W 2880   0.867  17.606   4.644
34518W        W 2881   6.873  27.121  13.011
34519W        W 2882  42.934  16.305  13.532
34520W        W 2883  18.766  37.353  13.528
34521W        W 2884  26.667  11.745   3.666
34522W        W 2885   9.795  37.937  12.502
34523W        W 2886  27.532  13.153   0.810
34524W        W 2887   9.834   1.328  14.400
34525W        W 2888  23.625  37.412   2.674
34526W        W 2889  27.133  40.412   2.245
34527W        W 2890  34.872   6.338  11.114
34528W        W 2891  11.325  42.977  13.510
34529W        W 2892  17.561   0.377  14.773
34530W        W 2893  38.829  24.048  14.862
34531W        W 2894   9.682  25.168   4.742
34532W        W 2895  43.486  29.927  11.441
34533W        W 2896  11.361  16.606  11.929
34534W        W 2897  32.016  24.489  13.517
34535W        W 2898   5.890  14.641   4.615
34536W        W 2899  30.126   6.689   0.323
34537W        W 2900   2.720   5.726  12.459
34538W        W 2901  17.600  25.059  14.319
34539W        W 2902  43.479  29.519   0.767
34540W        W 2903  17.667   8.385   2.749
34541W        W 2904  29.110  40.507  11.958
34542W        W 2905  14.201  11.243   2.259
34543W        W 2906  21.571   2.234  11.117
34544W        W 2907  38.063   5.899  11.037
34545W        W 2908  23.729  21.029  13.808
34546W        W 2909  16.146   1.261  14.845
34547W        W 2910   0.800  41.520   2.899
34548W        W 2911   4.900  33.406  14.984
34549W        W 2912  21.254   4.751  12.368
34550W        W 2913  10.819  43.920  11.090
34551W        W 2914  30.113  42.306  14.909
34552W        W 2915  10.860  10.341  14.292
34553W        W 2916  21.041  32.008   2.293
34554W        W 2917  23.597  39.011  12.074
34555W        W 2918   0.745  38.561   2.902
34556W        W 2919   2.732   4.237  11.121
34557W        W 2920  10.820  15.267   3.857
34558W        W 2921   0.282  11.723   4.294
34559W        W 2922  38.337  27.050  10.410
34560W        W 2923  11.675  31.483   2.346
34561W        W 2924  20.572   1.758   0.361
34562W        W 2925  39.817  25.672   4.233
34563W        W 2926   7.833  41.451  13.513
34564W        W 2927  30.412  26.591   3.827
34565W        W 2928  36.562  25.040  10.537
34566W        W 2929  25.090   8.321   1.719
34567W        W 2930  13.829  29.604  13.546
34568W        W 2931  21.638  36.871   4.273
34569W        W 2932   4.281  43.324  12.422
34570W        W 2933   4.416  26.574  11.388
34571W        W 2934   9.851  15.821   2.901
34572W        W 2935  41.374  25.471  14.980
34573W        W 2936  44.329  29.119  11.382
34574W        W 2937   4.756  14.175   1.267
34575W        W 2938  22.101  28.573  12.059
34576W        W 2939  29.978  28.438  13.061
34577W        W 2940  31.564  38.375  11.936
34578W        W 2941  23.079  39.998  12.578
34579W        W 2942  37.975  17.164  11.489
34580W        W 2943  44.993   1.853   3.785
34581W        W 2944   5.740  21.199   2.264
34582W        W 2945   3.241  37.432   3.802
34583W        W 2946  31.490   1.969  14.796
34584W        W 2947  15.302  10.828  12.983
34585W        W 2948  43.384  32.116  14.858
34586W        W 2949   4.397   6.217   2.331
34587W        W 2950   4.256  30.981  12.000
34588W        W 2951  26.485  10.342   4.630
34589W        W 2952  33.574  19.721   3.862
34590W        W 2953  24.010  16.149  11.102
34591W        W 2954  34.048  35.918  10.889
34592W        W 2955  19.766   3.752  12.460
34593W        W 2956   3.261  25.680  13.805
34594W        W 2957  22.251  11.240   2.697
34595W        W 2958  40.388  31.587   4.731
34596W        W 2959  22.548  37.450  12.553
34597W        W 2960  31.625  44.366  12.020
34598W        W 2961  44.907  25.529  11.500
34599W        W 2962  30.987  18.587   2.313
34600W        W 2963  15.595  33.396   2.341
34601W        W 2964  15.145  38.558   1.815
34602W        W 2965  44.321  44.383   5.131
34603W        W 2966  29.527   2.847   3.820
34604W        W 2967  41.371  24.026   2.791
34605W        W 2968   5.273  42.301  12.367
34606W        W 2969  24.190  12.219   4.284
34607W        W 2970  19.147  24.685   0.327
34608W        W 2971  17.580  36.986  14.942
34609W        W 2972   0.306  28.104  13.042
34610W        W 2973   0.954   4.241  11.582
34611W        W 2974  35.937  41.972   0.373
34612W        W 2975  21.064  41.356  10.516
34613W        W 2976  10.311   1.427  11.371
34614W        W 2977  26.092  24.175   0.784
34615W        W 2978  37.401  14.185   1.934
34616W        W 2979  18.124  30.602   1.709
34617W        W 2980  36.901   2.853   0.291
34618W        W 2981  24.980  32.438   1.874
34619W        W 2982  25.142  22.717  10.462
34620W        W 2983   1.840  42.858  10.587
34621W        W 2984  12.841  18.586   4.738
34622W        W 2985   2.387  22.232  12.020
34623W        W 2986  24.036  20.095   1.390
34624W        W 2987   7.316  24.646   2.301
34625W        W 2988  17.217   1.297  11.039
34626W        W 2989   2.945  31.494   1.333
34627W        W 2990   7.308  27.092   4.687
34628W        W 2991  32.414  41.830  11.909
34629W        W 2992  14.196  27.670  12.359
34630W        W 2993   5.334  34.914   4.271
34631W        W 2994   9.336  38.978   1.711
34632W        W 2995   1.826  25.055   1.367
34633W        W 2996  28.490  38.334   1.303
34634W        W 2997   8.798   3.787   2.395
34635W        W 2998  44.918   2.327   3.856
34636W        W 2999  35.453  20.065   4.243
34637W        W 3000  26.131  24.692  12.091
34638W        W 3001  44.897  11.733  10.489
34639W        W 3002  10.768  34.864   1.894
34640W        W 3003  14.105  17.099  12.920
34641W        W 3004  35.069  38.915   0.888
34642W        W 3005  33.462  18.054  11.939
34643W        W 3006   3.255  19.560  14.758
34644W        W 3007  19.220  31.036  11.079
34645W        W 3008  21.048   1.797   3.839
34646W        W 3009   4.699  20.741  11.858
34647W        W 3010  40.360  37.575   2.227
34648W        W 3011  34.017  12.235   2.414
34649W        W 3012  24.171   4.750   2.205
34650W        W 3013  23.161  17.711   3.820
34651W        W 3014  17.296  18.238  11.526
34652W        W 3015  41.894  19.608   3.694
34653W        W 3016   0.754   6.719  13.481
34654W        W 3017  44.764  10.286  10.923
34655W        W 3018  19.238  37.560  13.545
34656W        W 3019  30.512  18.545  11.013
34657W        W 3020   3.774  32.915  13.898
34658W        W 3021  14.804  15.267  14.388
34659W        W 3022   9.161  21.213   4.262
34660W        W 3023  34.092  15.818  10.639
34661W        W 3024  41.426  39.329   0.379
34662W        W 3025  31.977  32.479  13.472
34663W        W 3026  21.675   4.891  12.890
34664W        W 3027  31.969  24.174  14.937
34665W        W 3028  43.362  24.583   0.408
34666W        W 3029  40.832  13.214   1.212
34667W        W 3030  43.834  25.553  11.581
34668W        W 3031  13.267  25.054  12.485
34669W        W 3032   6.734  14.120  11.067
34670W        W 3033   1.346  41.814  11.917
34671W        W 3034  22.549  12.767  12.513
34672W        W 3035  19.684  36.517   0.963
34673W        W 3036   8.686  30.061  11.054
34674W        W 3037  34.110   0.900  14.023
34675W        W 3038  37.539  26.678   1.371
34676W        W 3039  31.417  19.611   1.445
34677W        W 3040   6.210   0.337  12.418
34678W        W 3041  24.491   0.404  14.787
34679W        W 3042  30.121  41.982  13.984
34680W        W 3043  30.058  24.153   1.301
34681W        W 3044  38.388   9.711   5.660
34682W        W 3045   4.898  35.498   0.892
34683W        W 3046  11.310   4.886  12.371
34684W        W 3047  44.931  38.902  14.377
34685W        W 3048  13.206  38.562  10.927
34686W        W 3049   9.282  28.650   4.821
34687W        W 3050  30.069   3.775   1.237
34688W        W 3051  35.092  25.496   2.799
34689W        W 3052  16.584  19.139   2.252
34690W        W 3053  31.959  21.170   4.263
34691W        W 3054  17.107  39.062  11.040
34692W        W 3055   9.790  30.455  14.962
34693W        W 3056  11.181  37.474   5.301
34694W        W 3057  28.459   9.303  13.455
34695W        W 3058  30.109  11.694   4.784
34696W        W 3059  41.520  39.451  14.291
34697W        W 3060  33.977  42.471  10.624
34698W        W 3061  35.513  22.181  11.484
34699W        W 3062   1.909  31.946   1.793
34700W        W 3063  34.397  18.672  12.907
34701W        W 3064  21.653  33.626   1.799
34702W        W 3065  44.769   3.415  14.831
34703W        W 3066  41.832   1.885   1.780
34704W        W 3067  23.703  29.969   3.731
34705W        W 3068   3.861  30.470   4.190
34706W        W 3069   1.779  21.711   2.804
34707W        W 3070   8.344   5.391   0.439
34708W        W 3071   1.398  29.603   3.809
34709W        W 3072  25.604  15.143  13.801
34710W        W 3073   9.153  24.163   0.889
34711W        W 3074  22.717  19.671   4.720
34712W        W 3075  24.689  15.271   3.868
34713W        W 3076  38.993  32.038  11.858
34714W        W 3077  37.369  37.964   2.187
34715W        W 3078  23.497  19.664   0.270
34716W        W 3079  29.119  37.452   4.717
34717W        W 3080  18.661  23.594  11.948
34718W        W 3081  26.057   6.761  12.370
34719W        W 3082   2.358  44.953   0.471
34720W        W 3083  10.708  23.160   0.332
34721W        W 3084  31.020  42.004  13.894
34722W        W 3085  14.313  35.921   3.245
34723W        W 3086  37.494  22.157  11.076
34724W        W 3087  29.032  21.656  13.356
34725W        W 3088  10.848   4.331  13.963
34726W        W 3089   0.319   9.737   2.861
34727W        W 3090  18.153  33.092  12.363
34728W        W 3091   2.460  14.817  11.080
34729W        W 3092  13.795  15.582   3.283
34730W        W 3093  31.563  41.491   0.851
34731W        W 3094  40.364   3.955  10.511
34732W        W 3095  35.866  11.328  12.963
34733W        W 3096  31.956  25.054  12.383
34734W        W 3097  20.722  11.698   0.311
34735W        W 3098  10.726  25.485  13.495
34736W        W 3099   9.185  25.000  12.538
34737W        W 3100  16.611   3.344   0.328
34738W        W 3101   5.384  30.969   3.347
34739W        W 3102  36.415  37.967  11.427
34740W        W 3103  22.202   2.311   3.651
34741W        W 3104   3.293  26.982  14.374
34742W        W 3105  27.071  18.140   5.218
34743W        W 3106  35.464   6.915  13.830
34744W        W 3107   5.264  40.376   1.761
34745W        W 3108  17.700  30.119   2.884
34746W        W 3109   6.233  23.693  10.569
34747W        W 3110  18.270  34.470  14.029
34748W        W 3111  11.683  31.958  10.492
34749W        W 3112   3.891   6.921  12.012
34750W        W 3113  33.566   9.190  14.803
34751W        W 3114  43.960  16.307  11.955
34752W        W 3115  19.121  34.989  14.509
34753W        W 3116  41.303   8.888   3.205
34754W        W 3117  20.156  10.683   1.711
34755W        W 3118  31.991   2.856   0.833
34756W        W 3119   9.786  23.194  10.993
34757W        W 3120  17.572   8.742   0.892
34758W        W 3121  32.104  28.138  11.535
34759W        W 3122  23.548  42.022   4.834
34760W        W 3123  21.541  44.467   4.244
34761W        W 3124  40.802  21.722  14.481
34762W        W 3125  41.806  34.391  10.914
34763W        W 3126  21.190  37.427   2.372
34764W        W 3127  29.958   2.961  11.403
34765W        W 3128  15.691   5.227  11.599
34766W        W 3129  10.693   5.885   3.231
34767W        W 3130   0.877  11.315   0.732
34768W        W 3131   0.761  38.050  11.980
34769W        W 3132  44.404  14.637  14.863
34770W        W 3133  27.470   2.797   2.762
34771W        W 3134   9.255   6.359   2.289
34772W        W 3135  38.339  35.548   1.741
34773W        W 3136  42.997  33.431   4.315
34774W        W 3137  11.294  11.753  12.008
34775W        W 3138  18.639  35.917  10.478
34776W        W 3139  19.254  32.913  10.996
34777W        W 3140  35.367   8.216  13.429
34778W        W 3141  41.502  12.176   0.926
34779W        W 3142   3.441  12.650   3.285
34780W        W 3143  26.578  37.343   3.261
34781W        W 3144  27.089  20.600   3.757
34782W        W 3145   7.200  14.815   0.282
34783W        W 3146  34.931  12.311   3.310
34784W        W 3147  28.601  10.254   1.426
34785W        W 3148   0.348   1.432   4.830
34786W        W 3149   2.381  30.927   0.922
34787W        W 3150  26.573  21.752   0.245
34788W        W 3151   3.286   1.274  14.496
34789W        W 3152   3.748   9.823   3.784
34790W        W 3153  32.959   2.758   4.168
34791W        W 3154  24.689  10.847   2.688
34792W        W 3155   7.682  10.155   2.849
34793W        W 3156  10.706  35.088   0.462
34794W        W 3157   0.988  16.605  11.115
34795W        W 3158  41.893  35.383  10.496
34796W        W 3159  36.943  36.873   4.781
34797W        W 3160  36.488   4.882   0.934
34798W        W 3161  23.106  22.534   3.385
34799W        W 3162  42.504  24.137  13.454
34800W        W 3163  24.147   7.823   2.835
34801W        W 3164  19.670  41.494  14.439
34802W        W 3165   2.418  24.152  12.560
34803W        W 3166  44.783  36.064   4.211
34804W        W 3167   9.225  21.056   4.657
34805W        W 3168  34.509   9.378  10.517
34806W        W 3169  24.685  17.251  12.472
34807W        W 3170  10.651  19.245  12.403
34808W        W 3171  35.002  28.627   4.237
34809W        W 3172  18.727   6.428   2.869
34810W        W 3173   7.691  17.738  10.641
34811W        W 3174  10.226  15.795  13.332
34812W        W 3175  31.576  44.852  11.531
34813W        W 3176  27.965   6.341  14.339
34814W        W 3177  22.123  41.330   4.224
34815W        W 3178  19.658  25.118   1.824
34816W        W 3179  37.977  39.819   1.840
34817W        W 3180   4.320  12.710  14.800
34818W        W 3181  36.988  17.583  14.842
34819W        W 3182   0.353   2.267   3.171
34820W        W 3183  26.188   6.238   0.817
34821W        W 3184  37.088  18.608   1.882
34822W        W 3185  43.952  16.293   4.768
34823W        W 3186  37.506  21.614   1.231
34824W        W 3187  38.819  35.380  14.858
34825W        W 3188  27.458   9.772  13.899
34826W        W 3189  39.037   2.230   2.753
34827W        W 3190   4.878  38.416   4.679
34828W        W 3191  41.294  18.249  11.612
34829W        W 3192  18.183   9.702  12.398
34830W        W 3193  26.107   6.718  13.322
34831W        W 3194  33.984  34.533   0.413
34832W        W 3195  27.561  31.058   3.262
34833W        W 3196  32.543   3.734  13.443
34834W        W 3197  11.343  14.292  13.374
34835W        W 3198  35.963  18.549  12.519
34836W        W 3199   3.307  36.376   4.768
34837W        W 3200  19.185   5.754  12.016
34838W        W 3201  41.895   9.820   1.761
34839W        W 3202  34.540   1.258   4.325
34840W        W 3203  15.711  42.964  14.505
34841W        W 3204  42.322   7.897  14.026
34842W        W 3205  40.328  15.230   4.218
34843W        W 3206  24.651   4.218   1.274
34844W        W 3207  10.144  41.523   0.338
34845W        W 3208  28.446  26.154  10.914
34846W        W 3209  30.039   6.871   2.806
34847W        W 3210  16.779   3.330   3.293
34848W        W 3211  33.029   8.678  11.381
34849W        W 3212   5.313  11.754   1.241
34850W        W 3213  20.245  10.655   0.474
34851W        W 3214  32.625  32.110   1.736
34852W        W 3215  16.276  37.521   3.288
34853W        W 3216   7.708  19.654  10.428
34854W        W 3217  27.145  25.650   0.895
34855W        W 3218  13.116  29.578  10.503
34856W        W 3219   2.887  33.395  14.816
34857W        W 3220   9.850  44.828  11.590
34858W        W 3221   0.769   0.339  12.560
34859W        W 3222  43.874  33.125  13.521
34860W        W 3223  27.486  17.765   1.780
34861W        W 3224  31.072  25.117   5.187
34862W        W 3225  17.735  39.964   1.262
34863W        W 3226  32.949   9.300   0.883
34864W        W 3227  26.625  38.491  13.512
34865W        W 3228  31.595  30.456  11.938
34866W        W 3229  39.414  38.362  14.950
34867W        W 3230  21.149   5.262   4.290
34868W        W 3231   5.846   4.857  10.643
34869W        W 3232   2.891  31.119  11.595
34870W        W 3233  31.432   0.339  11.478
34871W        W 3234   4.732  22.555  11.884
34872W        W 3235  14.134   5.693   5.229
34873W        W 3236   6.306  27.968   0.341
34874W        W 3237  43.767   9.388  11.394
34875W        W 3238  12.610  24.078   2.807
34876W        W 3239  24.028   5.242   1.323
34877W        W 3240   5.751  29.026   1.864
34878W        W 3241  29.053  41.499   3.343
34879W        W 3242  41.992  33.875   4.308
34880W        W 3243  29.485  28.114   0.739
34881W        W 3244  43.279  39.062   1.437
34882W        W 3245   7.716  35.437  12.011
34883W        W 3246  38.947   9.693   4.150
34884W        W 3247  17.182  18.710  12.886
34885W        W 3248  25.475  31.427  14.297
34886W        W 3249  11.633  28.083   0.271
34887W        W 3250  39.445  11.333  11.040
34888W        W 3251  27.672  41.967   1.742
34889W        W 3252  40.859  34.516   2.748
34890W        W 3253  14.252  32.032  13.419
34891W        W 3254   1.934  21.132   1.310
34892W        W 3255  36.002  37.557  10.972
34893W        W 3256  21.581   4.855  12.404
34894W        W 3257  29.542  13.734   4.129
34895W        W 3258   4.883   9.360  13.876
34896W        W 3259  38.495  38.541   0.262
34897W        W 3260  14.693  22.545   2.375
34898W        W 3261  20.265  25.991   2.698
34899W        W 3262   2.434   5.901   4.729
34900W        W 3263  17.293  34.911  12.579
34901W        W 3264  32.560  28.592  14.937
34902W        W 3265  44.926  34.389   2.224
34903W        W 3266  25.627  43.316   4.196
34904W        W 3267  43.330   9.292   0.924
34905W        W 3268  32.523  25.142   0.814
34906W        W 3269  24.202  37.083   0.287
34907W        W 3270  26.185  23.240   3.718
34908W        W 3271  14.285  31.122  13.510
34909W        W 3272  36.516   6.360  11.080
34910W        W 3273  32.940  21.670  11.532
34911W        W 3274  44.776  13.671  14.871
34912W        W 3275  31.543   0.494  11.076
34913W        W 3276  44.000  24.146   2.818
34914W        W 3277  37.490  17.146   5.233
34915W        W 3278  23.602  27.580  14.908
34916W        W 3279  44.754  32.959   3.786
34917W        W 3280  21.180  22.198   1.848
34918W        W 3281  29.527  24.583  12.020
34919W        W 3282   2.799  12.736  12.389
34920W        W 3283  29.553  36.935  11.488
34921W        W 3284  32.054  25.210  12.019
34922W        W 3285  27.571  20.532  12.401
34923W        W 3286  17.707   8.384   0.938
34924W        W 3287  31.039  35.375   1.891
34925W        W 3288  30.497  31.629   4.146
34926W        W 3289  22.250  19.210   1.401
34927W        W 3290  44.417  39.962   1.815
34928W        W 3291   8.206  20.229  14.479
34929W        W 3292   2.789  21.585   1.924
34930W        W 3293  35.934  22.506  13.939
34931W        W 3294  33.036  30.659   1.380
34932W        W 3295  24.693  35.912   0.322
34933W        W 3296  37.340  17.571   4.248
34934W        W 3297   9.732  35.861   4.344
34935W        W 3298  19.212  11.221   1.256
34936W        W 3299  43.375   8.215   2.719
34937W        W 3300   4.919  25.654   9.988
34938W        W 3301  31.003  30.931   0.921
34939W        W 3302  30.515  25.094   1.787
34940W        W 3303  27.028  16.227   2.864
34941W        W 3304  15.305  41.889   3.856
34942W        W 3305  32.534   0.338  10.639
34943W        W 3306  43.270  39.407  10.968
34944W        W 3307  11.356  29.633  13.337
34945W        W 3308   4.391  37.439   0.267
34946W        W 3309  12.193  16.092   4.280
34947W        W 3310  36.455  33.396  11.004
34948W        W 3311  15.726  42.935   3.798
34949W        W 3312  28.955  23.577  14.830
34950W        W 3313  42.842  26.492   3.695
34951W        W 3314  22.623  24.611   2.352
34952W        W 3315  11.289  19.063  13.394
34953W        W 3316   2.456  40.528   3.672
34954W        W 3317  41.516  33.079   4.264
34955W        W 3318  40.503   9.834   2.748
34956W        W 3319   1.416   1.796  13.396
34957W        W 3320  32.571  15.127   3.303
34958W        W 3321  43.893  32.077   4.185
34959W        W 3322   1.349  27.025   0.828
34960W        W 3323  15.106  32.969  12.516
34961W        W 3324  33.403  23.557  13.355
34962W        W 3325  18.112  21.157  14.357
34963W        W 3326  35.580  25.121   4.249
34964W        W 3327  11.340   9.322  12.836
34965W        W 3328  11.291  25.645   1.420
34966W        W 3329  34.552  27.141   1.877
34967W        W 3330  35.004  32.006   1.825
34968W        W 3331  16.177  30.511   3.786
34969W        W 3332  42.803  15.321   4.200
34970W        W 3333  40.921  42.886  14.379
34971W        W 3334  24.707   8.257  13.408
34972W        W 3335  44.000  12.129   1.914
34973W        W 3336   4.424  34.429  14.306
34974W        W 3337  42.520  35.379  11.909
34975W        W 3338  20.228  35.985   0.893
34976W        W 3339  16.714  25.053  11.547
34977W        W 3340   0.311  20.652  12.047
34978W        W 3341  26.610   3.838  11.089
34979W        W 3342  36.947   6.720  14.315
34980W        W 3343  23.990  14.610  12.365
34981W        W 3344   0.434  21.559   3.285
34982W        W 3345  36.903  44.373   2.209
34983W        W 3346  41.932  37.410   5.225
34984W        W 3347  19.607  38.826   0.768
34985W        W 3348  32.610  43.970  13.030
34986W        W 3349  15.703  42.894  10.899
34987W        W 3350  19.620  22.705  10.984
34988W        W 3351   4.388  22.193   2.804
34989W        W 3352  10.201   3.786   4.310
34990W        W 3353  14.186  33.486   0.395
34991W        W 3354  30.023  22.033   1.862
34992W        W 3355   7.326  42.897  14.998
34993W        W 3356  36.079  25.518  14.991
34994W        W 3357  30.461  27.063  11.065
34995W        W 3358  19.650   4.716   2.779
34996W        W 3359   8.833  33.911   2.801
34997W        W 3360  15.088  21.024   1.734
34998W        W 3361  24.675   0.924  14.804
34999W        W 3362  40.398  21.621  14.867
35000W        W 3363  24.012  37.927  12.430
35001W        W 3364  34.939  24.622   2.335
35002W        W 3365   7.797  10.650   3.773
35003W        W 3366  11.629   0.946   4.154
35004W        W 3367   7.669  10.327  10.436
35005W        W 3368  44.283   5.912  12.055
35006W        W 3369  10.691  25.631   0.818
35007W        W 3370  32.391   1.942  14.938
35008W        W 3371  26.107  32.932   0.432
35009W        W 3372   2.267  26.201   1.859
35010W        W 3373  22.594  34.591   2.667
35011W        W 3374  23.616  19.639   0.844
35012W        W 3375  27.478  30.584   4.276
35013W        W 3376   8.685   5.770  12.536
35014W        W 3377  41.960   7.679  11.987
35015W        W 3378  29.644  10.139  12.367
35016W        W 3379  19.542   9.255   1.271
35017W        W 3380  24.722  41.469  10.471
35018W        W 3381   2.236  22.175   4.151
35019W        W 3382   9.677  23.591  14.293
35020W        W 3383  24.520   5.824   3.680
35021W        W 3384  42.837  24.097  14.991
35022W        W 3385  19.733  23.497  12.961
35023W        W 3386  37.954  21.754   4.335
35024W        W 3387  33.393  11.203   4.806
35025W        W 3388  26.489  24.103   0.325
35026W        W 3389   0.919  15.787  14.508
35027W        W 3390  14.329   5.363   1.426
35028W        W 3391   8.196  23.694   3.179
35029W        W 3392  27.468  42.460   1.237
35030W        W 3393  26.004  28.110  10.913
35031W        W 3394  28.066   5.408  11.947
35032W        W 3395  10.361  16.740  12.520
35033W        W 3396  34.433  13.213   2.366
35034W        W 3397  42.375  26.681  11.579
35035W        W 3398  38.826  36.995  11.101
35036W        W 3399  15.737  42.331  12.399
35037W        W 3400  42.491  12.633  11.528
35038W        W 3401  16.588  21.589   1.414
35039W        W 3402  26.113  36.385   1.694
35040W        W 3403  13.772  38.545  14.032
35041W        W 3404  42.807  39.879   0.335
35042W        W 3405  29.553   0.425  13.909
35043W        W 3406   8.778  33.423   1.800
35044W        W 3407  11.203  32.533  13.333
35045W        W 3408  23.563  11.763   1.750
35046W        W 3409  12.226  11.772  12.025
35047W        W 3410  24.698  30.541   1.694
35048W        W 3411  26.572  39.058   5.288
35049W        W 3412  12.806  28.516  11.101
35050W        W 3413  15.295   7.855  12.876
35051W        W 3414  35.972   6.687  14.952
35052W        W 3415  35.990  44.463   3.344
35053W        W 3416  26.538  11.785   4.738
35054W        W 3417  16.263  17.123   1.793
35055W        W 3418  11.816  15.288  10.636
35056W        W 3419   4.328  42.893   3.660
35057W        W 3420  32.047  38.544   4.121
35058W        W 3421  15.645  15.231   0.442
35059W        W 3422   3.860   4.786  10.148
35060W        W 3423  11.152  19.697  13.838
35061W        W 3424  24.496  26.567  14.394
35062W        W 3425  44.845  26.134  13.915
35063W        W 3426  11.171  19.259   3.201
35064W        W 3427  24.013   7.228   2.856
35065W        W 3428  18.144  25.071   3.184
35066W        W 3429  27.112  40.984  14.377
35067W        W 3430  43.968  16.736  14.998
35068W        W 3431  24.181  32.110   3.372
35069W        W 3432  11.624  40.995  11.383
35070W        W 3433  18.102  29.468   2.321
35071W        W 3434   1.292  41.490   1.416
35072W        W 3435  15.266  37.365  14.922
35073W        W 3436  22.641  17.774  14.332
35074W        W 3437  13.806  28.097   2.216
35075W        W 3438   6.683  28.047   3.737
35076W        W 3439  16.271  23.012  11.856
35077W        W 3440   9.717  29.957  11.096
35078W        W 3441   6.791  33.936   2.277
35079W        W 3442  43.852  24.538  12.978
35080W        W 3443  28.451  23.681   1.251
35081W        W 3444  34.593  24.723  12.481
35082W        W 3445  44.848  11.280   0.450
35083W        W 3446   9.257  39.447  10.914
35084W        W 3447   0.454  28.084  14.407
35085W        W 3448  32.553   3.274   4.812
35086W        W 3449   6.716   9.365   2.293
35087W        W 3450   0.332   2.758   4.180
35088W        W 3451   4.827  22.234  10.529
35089W        W 3452   4.422   0.949   4.651
35090W        W 3453  29.101  33.008   1.251
35091W        W 3454   1.415  32.579   1.900
35092W        W 3455  44.977   0.299   4.168
35093W        W 3456  44.784   6.906   4.838
35094W        W 3457  21.058  40.053   3.852
35095W        W 3458  38.971  15.770   1.270
35096W        W 3459  19.124  22.710   0.427
35097W        W 3460   1.380   4.234  12.426
35098W        W 3461  23.602  26.964  13.490
35099W        W 3462   1.913  39.478   4.761
35100W        W 3463   0.851  22.648  13.455
35101W        W 3464  43.431  19.117   0.885
35102W        W 3465   7.677  19.220  10.580
35103W        W 3466  29.050   4.934  10.972
35104W        W 3467  42.496  27.584   1.798
35105W        W 3468  23.655  42.966  11.061
35106W        W 3469  31.535   1.277   5.651
35107W        W 3470  40.005  37.490   2.326
35108W        W 3471  30.488  14.098  11.599
35109W        W 3472  12.191  39.403   0.345
35110W        W 3473  10.299  31.509   3.695
35111W        W 3474  28.071  23.026  13.801
35112W        W 3475  29.056  21.084  13.996
35113W        W 3476  22.617  34.898  14.332
35114W        W 3477  37.424  11.182   0.869
35115W        W 3478   3.316   8.803  12.568
35116W        W 3479  33.497   2.900  12.371
35117W        W 3480  12.312  26.168   0.384
35118W        W 3481  14.239  24.032   4.212
35119W        W 3482  21.712  30.939  11.457
35120W        W 3483  11.739  18.622   2.319
35121W        W 3484  38.426  22.049   3.348
35122W        W 3485  28.966  37.484  10.097
35123W        W 3486  10.248   9.801   2.780
35124W        W 3487  37.970   3.227   5.265
35125W        W 3488  42.785  32.461  14.930
35126W        W 3489  42.428  30.061  12.365
35127W        W 3490   0.783  15.787   2.841
35128W        W 3491  14.094  30.593  10.424
35129W        W 3492   2.418  30.545   3.704
35130W        W 3493  16.632   5.272   2.779
35131W        W 3494  29.069  23.556  12.847
35132W        W 3495  18.292  43.828   2.689
35133W        W 3496  36.926  13.139   2.680
35134W        W 3497  37.383  39.441   3.260
35135W        W 3498  23.589  19.635   2.680
35136W        W 3499  24.534  14.688  11.866
35137W        W 3500  43.430   5.217   0.357
35138W        W 3501  24.190   7.897   4.149
35139W        W 3502  21.591  11.679   4.795
35140W        W 3503  39.061  19.050   3.336
35141W        W 3504  40.479  39.384  12.005
35142W        W 3505  10.783  29.029  12.428
35143W        W 3506   4.699  27.586   2.742
35144W        W 3507  30.634  22.722  11.060
35145W        W 3508  32.013   9.844  10.155
35146W        W 3509  13.807  24.183   1.272
35147W        W 3510  14.632  36.510  13.511
35148W        W 3511  10.754   9.837   1.425
35149W        W 3512   5.396  44.426  13.017
35150W        W 3513  30.911  40.810   4.681
35151W        W 3514  12.855  36.465  11.499
35152W        W 3515  29.918  36.546   1.364
35153W        W 3516  20.581  24.133  14.463
35154W        W 3517   6.304  21.655  13.359
35155W        W 3518   7.881  38.386  11.499
35156W        W 3519  11.185  12.819  12.437
35157W        W 3520  33.592   7.230   0.343
35158W        W 3521  24.535  33.991  12.987
35159W        W 3522  44.933   4.764   9.985
35160W        W 3523  17.259  35.860  13.886
35161W        W 3524  10.190  42.020  10.452
35162W        W 3525  24.614   6.378   4.326
35163W        W 3526  29.922  42.496   3.705
35164W        W 3527  19.713   6.247  12.981
35165W        W 3528   6.359  31.131  13.349
35166W        W 3529  16.114   4.266  12.011
35167W        W 3530   0.868  21.139   2.340
35168W        W 3531  20.242  35.053   4.292
35169W        W 3532  32.919  16.251  10.608
35170W        W 3533  27.498  42.798   4.220
35171W        W 3534   3.393  36.479   0.406
35172W        W 3535  37.895  43.322  14.871
35173W        W 3536  25.090  15.167   0.365
35174W        W 3537  14.304  21.188  13.485
35175W        W 3538   2.771  29.097  11.438
35176W        W 3539  29.965  18.117   0.852
35177W        W 3540  32.935  42.460   1.435
35178W        W 3541  43.500  11.159   1.879
35179W        W 3542   0.840  31.539  14.890
35180W        W 3543   3.947   2.942  10.968
35181W        W 3544  21.078  33.130   0.385
35182W        W 3545   4.399  28.002  12.459
35183W        W 3546  16.075  20.640  12.964
35184W        W 3547  29.921   1.482  11.054
35185W        W 3548  40.951  34.472   4.609
35186W        W 3549  41.506   9.856  13.813
35187W        W 3550  40.901  41.026   2.337
35188W        W 3551  41.429  14.248   0.903
35189W        W 3552  36.494  34.886   2.269
35190W        W 3553  12.285  23.026  10.957
35191W        W 3554  36.382   5.688  11.467
35192W        W 3555   0.281  13.222  10.516
35193W        W 3556  36.032  44.849   2.880
35194W        W 3557  28.512   4.386  11.117
35195W        W 3558  25.205  34.967   2.895
35196W        W 3559   8.719  10.279   0.816
35197W        W 3560  34.041  32.449   1.445
35198W        W 3561   3.933  41.439   0.927
35199W        W 3562  19.729  44.452   4.798
35200W        W 3563  41.324   3.943  12.999
35201W        W 3564  14.632  44.957  12.025
35202W        W 3565   3.287   7.174  12.019
35203W        W 3566  12.759  35.554   3.769
35204W        W 3567  44.501  37.522   0.884
35205W        W 3568  23.067  20.074   2.216
35206W        W 3569  19.193  12.212  10.435
35207W        W 3570  23.026  20.587   1.319
35208W        W 3571  30.921  27.041  11.992
35209W        W 3572  12.733  43.432   0.344
35210W        W 3573   2.354  38.880   3.385
35211W        W 3574  23.018   0.489   0.303
35212W        W 3575  43.009  30.497   0.941
35213W        W 3576  29.064  14.660  11.093
35214W        W 3577   8.688  21.187   3.664
35215W        W 3578  43.867  35.930  14.015
35216W        W 3579  28.459  41.020  10.944
35217W        W 3580  17.744  21.246   0.460
35218W        W 3581  39.967  16.576   3.245
35219W        W 3582   2.834  34.865   2.215
35220W        W 3583  44.790  28.008  12.509
35221W        W 3584  25.542   1.873   3.755
35222W        W 3585  12.714  13.316  13.802
35223W        W 3586  11.285  36.938  10.566
35224W        W 3587  44.403  17.158   4.679
35225W        W 3588  16.146  15.109  13.544
35226W        W 3589  21.020  21.663   1.730
35227W        W 3590  23.221  27.646   0.435
35228W        W 3591  11.797  13.158  10.491
35229W        W 3592  37.011  44.998  12.484
35230W        W 3593  25.580  29.590  14.940
35231W        W 3594   3.339  35.482  11.070
35232W        W 3595  31.061   6.740   2.825
35233W        W 3596  29.090  23.170  11.877
35234W        W 3597  23.101   0.323  13.411
35235W        W 3598  23.993  17.075   2.772
35236W        W 3599   1.398  23.051  14.447
35237W        W 3600  16.633   3.282  13.878
35238W        W 3601  37.953  34.444   9.968
35239W        W 3602   8.774   2.347   1.741
35240W        W 3603  41.979  12.160   4.605
35241W        W 3604  30.505  24.708  14.019
35242W        W 3605  34.037  13.291  13.422
35243W        W 3606   5.792   5.789  13.993
35244W        W 3607   4.305  28.628   2.665
35245W        W 3608  27.590  18.669  12.909
35246W        W 3609  14.244  30.073  12.574
35247W        W 3610   1.905   7.720   2.390
35248W        W 3611  17.155  29.948  11.055
35249W        W 3612  13.259  16.639  14.807
35250W        W 3613  44.496  26.458   3.660
35251W        W 3614   3.894  15.257   2.685
35252W        W 3615  20.590  11.313   1.387
35253W        W 3616   9.749   1.472   2.760
35254W        W 3617  43.278  27.557  14.296
35255W        W 3618  39.474  20.628  11.582
35256W        W 3619  35.376   6.919  14.454
35257W        W 3620  43.438  26.647   2.262
35258W        W 3621  16.605  42.353   2.757
35259W        W 3622  10.139  24.083   0.348
35260W        W 3623  32.561  16.245  14.375
35261W        W 3624  11.687  17.088  14.954
35262W        W 3625  22.590  13.803   3.800
35263W        W 3626  12.803   9.278   1.884
35264W        W 3627  41.378  44.916  12.925
35265W        W 3628  17.784  43.466  11.101
35266W        W 3629  40.003  15.733  13.408
35267W        W 3630   4.306  40.317  10.913
35268W        W 3631   7.854   7.334  11.478
35269W        W 3632  13.744  17.669   9.980
35270W        W 3633  20.525   3.921  13.483
35271W        W 3634   2.301   0.483   3.336
35272W        W 3635  35.510   7.219  10.580
35273W        W 3636  34.567  37.886  11.517
35274W        W 3637  38.857  17.086  14.863
35275W        W 3638  42.502  21.150   4.247
35276W        W 3639  26.991  38.041   4.178
35277W        W 3640   5.848  42.021   0.449
35278W        W 3641  27.596  15.655   4.174
35279W        W 3642  39.844  29.603   0.952
35280W        W 3643  40.875  29.163   4.642
35281W        W 3644  31.959  28.486   1.414
35282W        W 3645  21.551  10.287   3.303
35283W        W 3646  11.275  14.699   1.756
35284W        W 3647  14.703  36.527  11.573
35285W        W 3648  22.576  39.851  10.582
35286W        W 3649  14.751   4.930  13.838
35287W        W 3650   1.974  43.972  10.160
35288W        W 3651   1.422  11.789  13.355
35289W        W 3652  23.168  33.025   0.387
35290W        W 3653  37.890  44.301   1.356
35291W        W 3654  32.968  28.039   0.766
35292W        W 3655  42.435   1.416   2.700
35293W        W 3656  12.318   4.898  10.089
35294W        W 3657  11.255  30.933  12.999
35295W        W 3658  40.836  22.233   2.795
35296W        W 3659  10.381   0.397  13.399
35297W        W 3660  37.581  33.448  12.523
35298W        W 3661  12.226  35.539   3.162
35299W        W 3662  30.434  21.183  13.429
35300W        W 3663  36.519  22.171  14.378
35301W        W 3664  28.989   5.269  14.303
35302W        W 3665  40.374   3.282  14.300
35303W        W 3666  35.591  17.114  10.466
35304W        W 3667  38.973  38.011  14.986
35305W        W 3668  38.006  14.655  14.978
35306W        W 3669   3.740  25.191  10.448
35307W        W 3670  18.148   3.394  13.022
35308W        W 3671  36.401  26.168  11.446
35309W        W 3672   3.363  16.679  11.932
35310W        W 3673  15.597  36.566  10.518
35311W        W 3674  32.065  43.858  13.960
35312W        W 3675   7.702  43.455   2.819
35313W        W 3676  44.753  31.080   2.364
35314W        W 3677   2.424  32.464   2.782
35315W        W 3678  22.710  40.395   5.240
35316W        W 3679  21.719  16.161   4.826
35317W        W 3680  23.631  28.595   4.597
35318W        W 3681  34.956  28.680  11.539
35319W        W 3682  44.000  19.665   0.306
35320W        W 3683  19.201   5.808  11.129
35321W        W 3684   1.280  34.505   1.436
35322W        W 3685  31.896  37.460  12.941
35323W        W 3686  33.956  36.005  12.376
35324W        W 3687   9.819  25.693   3.747
35325W        W 3688   2.297  35.027  11.499
35326W        W 3689  13.219  23.672   1.219
35327W        W 3690  42.406  23.590  11.484
35328W        W 3691  35.440  36.067   1.867
35329W        W 3692  21.747  14.156  11.039
35330W        W 3693  37.506  11.866  12.575
35331W        W 3694  18.555  30.630   0.443
35332W        W 3695  37.010  36.371   3.706
35333W        W 3696  16.117   6.245  13.330
35334W        W 3697  40.425  32.937   1.846
35335W        W 3698  26.980   5.933   2.847
35336W        W 3699  11.356  14.719   4.692
35337W        W 3700  26.626  17.105   1.827
35338W        W 3701  29.015  40.957  14.971
35339W        W 3702  32.625  19.635  14.981
35340W        W 3703  20.622  29.465  14.339
35341W        W 3704  17.777  10.240  11.063
35342W        W 3705  42.916  27.009   3.151
35343W        W 3706  14.200  38.404   3.215
35344W        W 3707  11.136  12.764   4.712
35345W        W 3708  41.391  39.863   4.331
35346W        W 3709  40.022  35.860  10.518
35347W        W 3710  41.313  41.358  13.879
35348W        W 3711  38.377  43.348  12.019
35349W        W 3712  14.264   5.215   3.203
35350W        W 3713   4.812  40.517  14.028
35351W        W 3714  42.290  34.908  11.982
35352W        W 3715  44.902  14.668   1.699
35353W        W 3716  44.816  41.791   1.360
35354W        W 3717   1.781  40.972   2.848
35355W        W 3718   5.844  24.148   3.221
35356W        W 3719  25.121  42.823  12.978
35357W        W 3720  14.640  13.272  14.977
35358W        W 3721  24.016   5.854  13.339
35359W        W 3722  33.087  23.172   3.791
35360W        W 3723  40.026  18.573   3.183
35361W        W 3724   6.763  10.783  13.509
35362W        W 3725  32.902  18.744  13.331
35363W        W 3726   0.458  28.030  11.105
35364W        W 3727  20.163   9.212  10.596
35365W        W 3728  42.303  14.271   4.659
35366W        W 3729   7.238   6.313  12.460
35367W        W 3730   4.798  35.387   1.916
35368W        W 3731  39.383  43.004  10.119
35369W        W 3732  40.902  35.874   2.796
35370W        W 3733  14.599  29.138  14.803
35371W        W 3734  44.348  13.633  14.826
35372W        W 3735  17.113   8.258  10.957
35373W        W 3736  42.412  16.312   2.844
35374W        W 3737  12.286  16.697   2.865
35375W        W 3738  21.224  22.213  13.006
35376W        W 3739  27.049  36.005   2.365
35377W        W 3740  20.658   2.863  14.808
35378W        W 3741  33.566  30.433  14.457
35379W        W 3742  26.541  40.447  11.417
35380W        W 3743  10.785   4.832  10.538
35381W        W 3744   7.891  21.188  10.001
35382W        W 3745  39.355  33.050  11.453
35383W        W 3746  23.120  23.667   3.164
35384W        W 3747   7.762   4.850  11.042
35385W        W 3748  30.095  17.669  12.403
35386W        W 3749  42.505   7.698  12.977
35387W        W 3750  41.492  10.167  12.003
35388W        W 3751  13.240   3.757  11.406
35389W        W 3752  21.141  11.666   4.604
35390W        W 3753  34.555  31.436  11.480
35391W        W 3754  11.239  22.015  11.930
35392W        W 3755  18.074  44.894  10.983
35393W        W 3756  36.870  13.707   2.212
35394W        W 3757   6.739  21.545   0.423
35395W        W 3758  27.553  44.390  13.891
35396W        W 3759  20.097  25.531  13.512
35397W        W 3760  11.754   1.302  14.807
35398W        W 3761   2.359  10.657   0.944
35399W        W 3762   5.724  31.059   2.205
35400W        W 3763  32.013  32.892  12.466
35401W        W 3764   3.844  19.709  12.964
35402W        W 3765  37.945  35.041   4.630
35403W        W 3766  39.015  34.096   1.785
35404W        W 3767   7.361   9.742   1.299
35405W        W 3768  42.802  36.938  12.513
35406W        W 3769  11.366  35.487   1.875
35407W        W 3770   8.702   3.290   1.924
35408W        W 3771   2.374  21.713  14.921
35409W        W 3772  27.015  28.182  11.473
35410W        W 3773  36.092   8.287  12.463
35411W        W 3774  17.560  27.539  12.552
35412W        W 3775  27.488  13.608  10.914
35413W        W 3776  29.426  43.377   3.723
35414W        W 3777  32.013  44.868   5.288
35415W        W 3778   6.748   0.939  10.514
35416W        W 3779  33.983  29.080  13.394
35417W        W 3780   9.184   0.369   2.340
35418W        W 3781  38.446  13.660  10.451
35419W        W 3782  24.583   6.791  13.532
35420W        W 3783   4.390  33.948  11.472
35421W        W 3784   6.332  43.316   0.328
35422W        W 3785  21.110  23.717   0.869
35423W        W 3786  19.144  31.449  14.918
35424W        W 3787  37.427  40.413  14.450
35425W        W 3788  22.529  34.545  13.466
35426W        W 3789   7.722  26.953  14.924
35427W        W 3790  30.555  16.683   3.197
35428W        W 3791  29.627  25.013   3.792
35429W        W 3792   9.159  27.020  10.541
35430W        W 3793  42.944  11.261  12.096
35431W        W 3794  15.739  44.343  11.497
35432W        W 3795  14.827  18.718   4.186
35433W        W 3796  13.207  44.876   4.756
35434W        W 3797  40.988  16.151  12.437
35435W        W 3798  29.533  44.387   2.744
35436W        W 3799  41.375  20.270  14.951
35437W        W 3800  11.208  35.058  14.303
35438W        W 3801  34.605  32.043  14.760
35439W        W 3802   4.707   8.182   1.751
35440W        W 3803  28.625  32.037   1.343
35441W        W 3804  41.874  23.057  13.530
35442W        W 3805  33.893  22.680   2.880
35443W        W 3806   5.816  27.673  12.877
35444W        W 3807  19.049  29.028  13.016
35445W        W 3808  22.237  24.054   4.609
35446W        W 3809   6.183   7.372   1.711
35447W        W 3810  41.993  30.539  13.499
35448W        W 3811  23.035  21.614  14.769
35449W        W 3812  12.828  17.773   0.467
35450W        W 3813   3.347  18.262   1.810
35451W        W 3814  18.642   3.229  10.000
35452W        W 3815  16.590  37.012  12.849
35453W        W 3816  10.343  34.589  12.343
35454W        W 3817   4.856  33.068  13.991
35455W        W 3818  32.505  26.987  10.917
35456W        W 3819  33.390  40.946  11.595
35457W        W 3820   8.669  36.010   1.802
35458W        W 3821   7.762  24.042   3.335
35459W        W 3822   4.702  40.420  11.386
35460W        W 3823  21.117  20.082   0.775
35461W        W 3824   7.718   2.239  11.020
35462W        W 3825  30.019  30.630   1.852
35463W        W 3826   7.408  23.702   0.910
35464W        W 3827  14.627  32.049  12.516
35465W        W 3828  23.588  25.991  11.867
35466W        W 3829   6.813   0.798  12.922
35467W        W 3830  41.907  11.142   1.822
35468W        W 3831  18.569   9.260   2.264
35469W        W 3832  27.514   9.338   1.741
35470W        W 3833  42.511   1.850  12.859
35471W        W 3834  12.128  36.878  11.510
35472W        W 3835  11.167  37.482   0.407
35473W        W 3836  43.928  16.651  12.364
35474W        W 3837  29.076  44.773  11.475
35475W        W 3838  43.421  33.096   1.398
35476W        W 3839  27.500   8.824  13.425
35477W        W 3840  39.879   3.715  11.532
35478W        W 3841  14.142  36.929   2.789
35479W        W 3842  27.627  27.574  10.641
35480W        W 3843  34.399   8.689  11.600
35481W        W 3844   0.930  24.055  11.535
35482W        W 3845  27.185  34.118   2.733
35483W        W 3846  22.617  10.205   5.266
35484W        W 3847  33.466  24.620  13.910
35485W        W 3848  18.062  12.728   1.305
35486W        W 3849  31.900  13.629   1.391
35487W        W 3850  26.675  16.761   9.660
35488W        W 3851   8.736  31.490  10.425
35489W        W 3852  21.689  33.890   3.681
35490W        W 3853  32.563  40.875   0.259
35491W        W 3854  24.016  30.986   1.874
35492W        W 3855   8.402   7.856   1.747
35493W        W 3856  43.467  16.220   3.379
35494W        W 3857  18.764  30.156   2.722
35495W        W 3858  41.349  42.431   1.810
35496W        W 3859  28.180  23.596  11.504
35497W        W 3860  38.363   0.363   3.829
35498W        W 3861  11.629  30.450   4.302
35499W        W 3862   9.392  12.139  13.926
35500W        W 3863  40.885  16.812  12.890
35501W        W 3864   1.779  22.192   5.628
35502W        W 3865  26.631   1.253   3.260
35503W        W 3866  38.457  14.096  12.437
35504W        W 3867  37.485  36.462  12.022
35505W        W 3868   1.385  37.523  14.950
35506W        W 3869  23.091   7.727  12.401
35507W        W 3870  35.095  44.981   4.703
35508W        W 3871   9.709   9.298   1.344
35509W        W 3872  14.721  12.314  14.941
35510W        W 3873   8.672  18.614   2.847
35511W        W 3874  28.943  10.152  14.819
35512W        W 3875  41.932   8.250  11.602
35513W        W 3876  25.152  18.076  12.020
35514W        W 3877   9.282  18.129   2.683
35515W        W 3878   3.255  41.486   4.124
35516W        W 3879  18.050  10.190  12.511
35517W        W 3880   2.889  10.265  14.319
35518W        W 3881  11.846  22.014   0.380
35519W        W 3882  14.791  36.457  12.007
35520W        W 3883  11.181  13.216  14.467
35521W        W 3884  17.724  31.897  13.962
35522W        W 3885  30.951   1.740  13.345
35523W        W 3886  36.582   6.916  14.322
35524W        W 3887  35.543  12.811   3.767
35525W        W 3888  21.018   3.454  10.512
35526W        W 3889  42.975  26.017   2.218
35527W        W 3890   0.396  14.813   1.905
35528W        W 3891   9.754  32.611  11.025
35529W        W 3892  11.275  35.883  11.545
35530W        W 3893  23.117  19.615   1.850
35531W        W 3894  31.934  34.548  14.923
35532W        W 3895  36.038   8.189   2.251
35533W        W 3896   3.249  21.519   2.193
35534W        W 3897  16.265   5.711   1.838
35535W        W 3898   1.240  11.330  13.920
35536W        W 3899  27.043   7.906   4.644
35537W        W 3900   7.262  37.581   2.741
35538W        W 3901  13.325   0.922  13.992
35539W        W 3902  20.248  16.718   4.782
35540W        W 3903  14.326  21.528   2.355
35541W        W 3904  21.697  28.571  13.895
35542W        W 3905  14.638   5.749  14.898
35543W        W 3906  41.868  22.064  10.628
35544W        W 3907  25.482  25.159   1.759
35545W        W 3908  35.864   2.468  13.928
35546W        W 3909  16.657  24.066  11.949
35547W        W 3910  41.872  36.942   3.354
35548W        W 3911  16.094  36.558   3.249
35549W        W 3912  43.922   8.356  10.531
35550W        W 3913  33.000  40.822   4.782
35551W        W 3914   0.836   1.374  10.576
35552W        W 3915   7.236   6.278  10.520
35553W        W 3916  42.948  21.143   5.231
35554W        W 3917  38.919  35.976   0.854
35555W        W 3918  13.306  21.128  10.638
35556W        W 3919   3.945  15.236   1.779
35557W        W 3920   8.270  33.386  12.492
35558W        W 3921  30.562   5.360   3.710
35559W        W 3922   1.274  30.426  13.363
35560W        W 3923  29.594  27.174  14.326
35561W        W 3924  23.691  20.212   2.225
35562W        W 3925  23.063  43.915  14.994
35563W        W 3926  25.702  23.677  10.435
35564W        W 3927  15.662  23.552  14.479
35565W        W 3928  42.901   6.300  11.545
35566W        W 3929   7.680  13.740  13.018
35567W        W 3930  15.746  30.955   0.408
35568W        W 3931  37.423   2.876  14.352
35569W        W 3932  32.577   2.848  10.434
35570W        W 3933   1.899  39.420   1.910
35571W        W 3934  42.023  40.521   2.789
35572W        W 3935  40.888  44.384  12.560
35573W        W 3936   8.335  16.225  14.484
35574W        W 3937   1.885  13.776   1.451
35575W        W 3938  29.949  30.086  13.056
35576W        W 3939  38.034   9.828  13.940
35577W        W 3940  12.320   7.338  11.458
35578W        W 3941  40.977  15.183   4.168
35579W        W 3942  35.993  23.065   0.452
35580W        W 3943   5.382  16.752  12.564
35581W        W 3944   7.705  15.743   3.727
35582W        W 3945   6.338  15.321   2.756
35583W        W 3946   5.741   3.384  13.369
35584W        W 3947  22.180  36.058  12.977
35585W        W 3948  27.663  25.566  13.998
35586W        W 3949   7.767  36.946   1.757
35587W        W 3950   6.397   9.224  12.068
35588W        W 3951  15.119  35.528  13.917
35589W        W 3952  42.372   7.270   2.813
35590W        W 3953  43.314   3.858  12.393
35591W        W 3954  41.350  24.216  12.885
35592W        W 3955  27.482  18.727  14.355
35593W        W 3956  16.736  16.780   2.894
35594W        W 3957   4.942   5.907   4.290
35595W        W 3958  18.164  28.951  14.997
35596W        W 3959  22.580  19.649   0.863
35597W        W 3960  30.935  26.157  14.450
35598W        W 3961  16.147  28.494  13.054
35599W        W 3962  36.430  13.182   5.095
35600W        W 3963  41.899  35.915  12.077
35601W        W 3964  23.164  22.052   2.350
35602W        W 3965  12.758  10.156   4.169
35603W        W 3966  33.892  24.612   4.149
35604W        W 3967   4.221  12.241  13.468
35605W        W 3968  18.118  20.256   2.838
35606W        W 3969  11.226   1.901  14.003
35607W        W 3970  22.661  21.607  13.983
35608W        W 3971   2.880   3.456  14.006
35609W        W 3972  19.773  43.821   1.765
35610W        W 3973  39.482   4.878  13.533
35611W        W 3974  27.485  16.119   0.383
35612W        W 3975  14.646   0.807  11.524
35613W        W 3976  28.578  12.162  11.058
35614W        W 3977  37.083  22.027  12.868
35615W        W 3978  22.051  44.262   0.888
35616W        W 3979  28.114  26.049  14.337
35617W        W 3980  31.121   0.887   2.373
35618W        W 3981   8.255  34.537   4.196
35619W        W 3982  44.942  35.529  12.455
35620W        W 3983  39.537   6.273   0.368
35621W        W 3984  40.888   8.260  12.049
35622W        W 3985  18.765   2.279   0.854
35623W        W 3986   7.239  38.523   3.740
35624W        W 3987  12.848  20.222   0.432
35625W        W 3988   3.810  38.067   1.249
35626W        W 3989   7.274  38.460  10.636
35627W        W 3990  22.548  28.676   0.438
35628W        W 3991  44.938  16.691  12.508
35629W        W 3992  10.239  14.172  14.833
35630W        W 3993  29.927  41.453  12.911
35631W        W 3994  21.081  21.240   0.960
35632W        W 3995   0.361  19.092  12.933
35633W        W 3996  13.317  27.182   3.803
35634W        W 3997  20.584   8.324   2.761
35635W        W 3998  16.651  44.973   4.644
35636W        W 3999  42.865   3.450  10.518
35637W        W 4000  21.061  36.349   0.425
35638W        W 4001  40.908   2.730  13.824
35639W        W 4002   3.443  39.951  13.444
35640W        W 4003   3.363  22.222  12.038
35641W        W 4004  42.353  28.521  11.943
35642W        W 4005  22.702  23.050   4.137
35643W        W 4006  44.398   7.727   4.132
35644W        W 4007  15.087   3.744  10.062
35645W        W 4008  17.068  28.529  14.957
35646W        W 4009  16.769  19.065   3.848
35647W        W 4010  31.076  11.176  12.573
35648W        W 4011  14.681  13.680   1.256
35649W        W 4012  42.939  10.706   1.440
35650W        W 4013  28.030  38.937  12.089
35651W        W 4014   8.354  35.008   4.278
35652W        W 4015  15.646  21.211   3.278
35653W        W 4016  30.917  32.081  13.499
35654W        W 4017  15.784  33.104   2.237
35655W        W 4018   8.280  12.619  10.457
35656W        W 4019  34.573  29.052  14.009
35657W        W 4020   0.365  30.971   1.260
35658W        W 4021   9.657   1.305  11.410
35659W        W 4022   7.370  29.616  12.497
35660W        W 4023   3.438  18.227  13.866
35661W        W 4024  17.611   1.950   2.793
35662W        W 4025  24.209   7.395  10.633
35663W        W 4026  34.394  27.195  12.428
35664W        W 4027   4.891   2.907   2.714
35665W        W 4028  28.553  15.273   4.711
35666W        W 4029  39.359  18.088   0.745
35667W        W 4030  44.381  30.439   1.294
35668W        W 4031  30.107  10.655   0.831
35669W        W 4032   8.777  39.020  14.024
35670W        W 4033   9.797  33.924   4.741
35671W        W 4034   2.896  35.028   3.710
35672W        W 4035  29.509   6.377   4.175
35673W        W 4036  38.956  14.095   4.244
35674W        W 4037  28.122  32.997   1.797
35675W        W 4038  16.141  26.692  10.998
35676W        W 4039  32.478  25.580  13.062
35677W        W 4040   6.750  28.588  13.491
35678W        W 4041   0.809  21.044  10.457
35679W        W 4042  16.258   3.852   5.142
35680W        W 4043  24.009  23.713   9.995
35681W        W 4044  27.977   6.787  14.985
35682W        W 4045  24.630  29.101  12.576
35683W        W 4046  19.573  37.507  11.885
35684W        W 4047  29.668  31.934   1.696
35685W        W 4048  33.445  20.236   0.756
35686W        W 4049  13.175  15.578   3.159
35687W        W 4050   7.747   0.312  13.333
35688W        W 4051   5.384  42.491   4.743
35689W        W 4052  37.999  14.799  12.555
35690W        W 4053  13.683  28.165  12.370
35691W        W 4054  19.758  31.093  11.556
35692W        W 4055  19.581  24.229   1.217
35693W        W 4056  14.331  13.618  11.592
35694W        W 4057   2.783  38.513  10.485
35695W        W 4058  44.825   6.730  11.570
35696W        W 4059  26.632  15.122   2.701
35697W        W 4060  18.733  26.545  11.546
35698W        W 4061   3.414  14.190   4.271
35699W        W 4062  22.672  11.249   3.717
35700W        W 4063   9.190  41.820   1.391
35701W        W 4064  28.939  33.581  13.019
35702W        W 4065  20.029  13.329  11.549
35703W        W 4066   4.335  25.549   2.404
35704W        W 4067   4.291   8.272   0.897
35705W        W 4068  39.831  18.558  13.063
35706W        W 4069  10.356  41.372   2.693
35707W        W 4070   1.269  23.645   2.393
35708W        W 4071  19.119  43.996   5.709
35709W        W 4072  39.556  39.437   1.397
35710W        W 4073  34.442   1.387  12.517
35711W        W 4074   8.352  42.325  13.046
35712W        W 4075  34.501   8.256   3.815
35713W        W 4076   8.260  12.854  12.480
35714W        W 4077  43.453  22.135   3.646
35715W        W 4078  21.671  22.036  13.353
35716W        W 4079  24.162  12.625   3.176
35717W        W 4080  25.197  16.093  12.534
35718W        W 4081  29.132  20.062   2.402
35719W        W 4082  12.323  19.647   4.219
35720W        W 4083  22.658  27.134   3.270
35721W        W 4084   4.711   0.891   2.361
35722W        W 4085  21.163  10.240  13.547
35723W        W 4086  22.696  38.367  11.874
35724W        W 4087  27.966  33.088   4.644
35725W        W 4088  19.673  39.987   2.317
35726W        W 4089  39.967   9.172   3.234
35727W        W 4090  19.171   0.938  14.988
35728W        W 4091  26.702  29.063  10.117
35729W        W 4092  22.675  12.791   0.472
35730W        W 4093  32.589  12.720   4.611
35731W        W 4094  35.871   2.305  12.462
35732W        W 4095  20.638   4.851   4.133
35733W        W 4096   2.257   3.762   1.291
35734W        W 4097  23.034   9.759   4.279
35735W        W 4098  18.598  32.953  10.473
35736W        W 4099  14.604   2.246  12.385
35737W        W 4100  27.983  24.189   9.985
35738W        W 4101  12.756  32.944  13.967
35739W        W 4102  44.476  44.415   4.129
35740W        W 4103  24.658  14.319   0.818
35741W        W 4104  20.117  15.763   5.230
35742W        W 4105  38.930  27.946   2.750
35743W        W 4106  12.741  27.582   3.163
35744W        W 4107  24.214   4.275  10.446
35745W        W 4108  39.895  17.608  14.378
35746W        W 4109  10.382  20.061  13.369
35747W        W 4110  17.712  13.794  13.797
35748W        W 4111  33.982  42.859  11.128
35749W        W 4112  23.144  14.095  14.987
35750W        W 4113   7.687  26.067   2.688
35751W        W 4114  15.755  14.699  11.870
35752W        W 4115  30.571  44.311   4.201
35753W        W 4116   1.832  29.492  13.526
35754W        W 4117  30.472  41.407  12.577
35755W        W 4118  14.332   4.262   1.302
35756W        W 4119  11.780   3.866  13.982
35757W        W 4120  32.007  16.223   1.739
35758W        W 4121  18.136  28.115   4.262
35759W        W 4122  19.253   4.381  10.913
35760W        W 4123  32.608  32.100   0.409
35761W        W 4124   2.371  20.225  11.867
35762W        W 4125  22.046  22.635  11.495
35763W        W 4126  14.325  24.134  14.017
35764W        W 4127  30.078  22.528   4.617
35765W        W 4128  30.491  35.478   2.866
35766W        W 4129   2.429  21.752  13.416
35767W        W 4130  34.481  20.090   3.745
35768W        W 4131  15.161  28.581   2.328
35769W        W 4132   0.448  37.946  13.397
35770W        W 4133  21.235  20.574  12.862
35771W        W 4134  33.997  17.708   4.799
35772W        W 4135  40.934   7.791   0.427
35773W        W 4136  36.855  34.501  10.919
35774W        W 4137  33.483  23.007  13.985
35775W        W 4138  18.656   0.914  13.855
35776W        W 4139   6.829   2.775  12.982
35777W        W 4140  22.032  35.432   2.242
35778W        W 4141  36.490  44.885  12.441
35779W        W 4142   4.442  31.422  10.942
35780W        W 4143  24.205   8.385  12.410
35781W        W 4144  44.956  13.769  11.501
35782W        W 4145  34.381  33.065  14.918
35783W        W 4146  44.007  29.498   3.718
35784W        W 4147  32.617  34.003  10.948
35785W        W 4148  42.840   5.327   1.323
35786W        W 4149  20.574   4.368   4.280
35787W        W 4150   6.235  28.546   0.912
35788W        W 4151  29.155  20.267   4.150
35789W        W 4152  31.945   5.411   1.373
35790W        W 4153  26.568   3.735   3.826
35791W        W 4154   8.291  22.659  14.399
35792W        W 4155  14.626   4.817  14.375
35793W        W 4156  30.607  36.348   1.363
35794W        W 4157  31.608  11.826  11.089
35795W        W 4158  34.455  41.372  11.450
35796W        W 4159  25.161  31.983  12.491
35797W        W 4160  38.425  35.061  10.954
35798W        W 4161  23.159  23.107  13.917
35799W        W 4162  27.492  35.561  11.545
35800W        W 4163  10.350  10.354  10.949
35801W        W 4164   1.865   0.266   3.387
35802W        W 4165  18.664   7.744  13.818
35803W        W 4166  41.893  25.547  14.373
35804W        W 4167  13.828   2.862   2.754
35805W        W 4168  25.571  23.194  11.573
35806W        W 4169  44.008  28.471   2.301
35807W        W 4170  42.029  11.162   9.924
35808W        W 4171  27.959   0.249  11.551
35809W        W 4172  17.211  22.214   0.787
35810W        W 4173  33.617   6.296   5.268
35811W        W 4174  36.846  39.349   0.920
35812W        W 4175   6.213   2.383   4.192
35813W        W 4176  11.191  43.848  12.496
35814W        W 4177  30.573  26.589  14.313
35815W        W 4178  20.709   8.163  11.598
35816W        W 4179  25.518  38.359  13.062
35817W        W 4180   2.283  22.581   4.296
35818W        W 4181   1.762   0.435  13.963
35819W        W 4182  15.139  11.862  11.944
35820W        W 4183  40.857  41.861   0.733
35821W        W 4184   2.255  21.650   4.624
35822W        W 4185  29.453   7.830  13.063
35823W        W 4186  41.529  28.038  14.870
35824W        W 4187  22.093   7.867  13.021
35825W        W 4188  34.897  38.074   2.793
35826W        W 4189  42.937  24.556   2.193
35827W        W 4190   6.185  20.103   3.672
35828W        W 4191  14.115   3.245   3.283
35829W        W 4192  20.212  13.710   4.273
35830W        W 4193  13.742  37.071  10.485
35831W        W 4194  41.323  41.451  14.295
35832W        W 4195  27.170   7.379   4.324
35833W        W 4196  35.558  15.798   5.249
35834W        W 4197  20.541  20.037   1.897
35835W        W 4198   9.152  10.806  12.342
35836W        W 4199  32.413   2.958  14.367
35837W        W 4200  11.248  37.555  11.989
35838W        W 4201  11.215  35.087  11.063
35839W        W 4202  23.079   4.763  10.473
35840W        W 4203  37.868  37.410  10.116
35841W        W 4204  21.681  26.617   1.427
35842W        W 4205  26.677  25.526   3.212
35843W        W 4206  34.590   9.788  13.858
35844W        W 4207  22.063  37.877   2.387
35845W        W 4208  31.979  30.099   3.686
35846W        W 4209  18.173  39.869  14.793
35847W        W 4210  17.236  38.886   4.341
35848W        W 4211  39.918   4.718   1.722
35849W        W 4212  27.148  26.525   2.416
35850W        W 4213  36.533  14.212  14.802
35851W        W 4214  22.242  41.878   2.225
35852W        W 4215  33.123  31.114   4.220
35853W        W 4216   8.292  27.978   3.376
35854W        W 4217  44.365  31.995  12.893
35855W        W 4218  18.644   2.939  13.354
35856W        W 4219  20.577  24.225  11.079
35857W        W 4220  34.006  25.062   4.838
35858W        W 4221   0.867   6.294   4.121
35859W        W 4222   4.904  25.162   4.238
35860W        W 4223  11.731  16.142   4.215
35861W        W 4224  30.941  10.878  14.786
35862W        W 4225  23.993   8.791   4.779
35863W        W 4226  39.004   3.319  13.004
35864W        W 4227  40.880   9.276  13.924
35865W        W 4228   1.951   8.877  13.803
35866W        W 4229   2.755   2.385  10.965
35867W        W 4230  17.668   2.302  11.378
35868W        W 4231   4.267  30.002  10.591
35869W        W 4232  38.005   0.482   0.435
35870W        W 4233  17.694   9.672   1.932
35871W        W 4234  44.478  11.625  13.449
35872W        W 4235  24.110  33.123   4.296
35873W        W 4236  15.302   4.206   4.298
35874W        W 4237   5.386   4.839  14.817
35875W        W 4238  23.156  12.831  11.976
35876W        W 4239  27.035  36.038   4.175
35877W        W 4240  37.083  16.574   2.384
35878W        W 4241  25.527   0.857   3.808
35879W        W 4242  14.740  31.403  12.421
35880W        W 4243  41.962   8.673   1.389
35881W        W 4244  32.976  33.548  14.889
35882W        W 4245  36.490  27.164  10.552
35883W        W 4246  23.524  13.288  11.521
35884W        W 4247  27.457  30.618   1.757
35885W        W 4248  44.429   5.397  13.994
35886W        W 4249  39.058  22.227  12.457
35887W        W 4250  19.067  10.773  11.420
35888W        W 4251  14.141  16.171   2.262
35889W        W 4252  14.818  22.513   0.796
35890W        W 4253  32.096  22.064  10.968
35891W        W 4254  27.011  32.075   0.926
35892W        W 4255  33.498   4.226  10.894
35893W        W 4256  27.067  28.539  11.889
35894W        W 4257  26.459  22.634  14.294
35895W        W 4258  11.373  14.317  11.472
35896W        W 4259  44.361   6.889  11.860
35897W        W 4260  40.953  29.582   2.688
35898W        W 4261   2.795   6.324   2.679
35899W        W 4262  30.094  44.780   1.913
35900W        W 4263  43.964  34.964   2.831
35901W        W 4264  33.623  18.735  14.463
35902W        W 4265  44.403  10.717  14.992
35903W        W 4266  18.689  22.700  13.037
35904W        W 4267  40.870  27.064  10.499
35905W        W 4268  39.947  25.192   0.942
35906W        W 4269  23.155  41.521   4.129
35907W        W 4270  33.951  14.164   1.291
35908W        W 4271  43.324  32.939  14.988
35909W        W 4272  30.537  12.828  13.475
35910W        W 4273  37.340  41.447  14.852
35911W        W 4274  30.619  33.481   1.390
35912W        W 4275  38.512  10.261   5.690
35913W        W 4276   7.200  18.292   2.711
35914W        W 4277  30.579   1.401   0.438
35915W        W 4278  10.658  27.944  11.397
35916W        W 4279  32.501  44.842   1.417
35917W        W 4280  33.114  12.225   4.348
35918W        W 4281   1.860   9.735  12.572
35919W        W 4282  15.281   3.291  14.982
35920W        W 4283  18.599   5.423  11.534
35921W        W 4284  41.836   8.282  12.869
35922W        W 4285   4.920  33.097  13.488
35923W        W 4286  40.304  42.448  12.498
35924W        W 4287  33.518  21.033  13.382
35925W        W 4288   1.946   8.262   2.203
35926W        W 4289   7.678   6.387   2.836
35927W        W 4290  37.535  34.469  11.389
35928W        W 4291   2.351  35.879   2.854
35929W        W 4292   4.934  10.748   0.777
35930W        W 4293  38.046  42.995  13.379
35931W        W 4294  11.661   2.768   2.790
35932W        W 4295  36.516  37.060  11.584
35933W        W 4296  12.786  16.283  10.415
35934W        W 4297   8.670  24.666   3.677
35935W        W 4298  28.989  21.512  11.568
35936W        W 4299   9.292  27.469  13.464
35937W        W 4300  34.522  27.969   0.763
35938W        W 4301  19.125  31.461   0.253
35939W        W 4302   6.779   2.726   0.846
35940W        W 4303  28.989   8.310   2.228
35941W        W 4304  19.258   5.780   0.818
35942W        W 4305  12.643   8.330   2.778
35943W        W 4306   9.787  34.580   0.415
35944W        W 4307  10.735  28.592  12.045
35945W        W 4308  11.769  16.270   3.638
35946W        W 4309   0.894   7.356   1.276
35947W        W 4310  26.954  10.672  12.921
35948W        W 4311  44.764  24.130  13.329
35949W        W 4312  42.472  40.929   3.202
35950W        W 4313   0.386  25.190   3.287
35951W        W 4314  36.910   1.805  11.589
35952W        W 4315   0.978   3.350   2.673
35953W        W 4316  29.634  25.547  14.833
35954W        W 4317   9.343  16.733   4.172
35955W        W 4318   1.357  28.930  14.374
35956W        W 4319  29.489  20.575   2.181
35957W        W 4320  19.124  37.558  13.064
35958W        W 4321  30.113  24.063   2.891
35959W        W 4322  26.971  44.374   0.737
35960W        W 4323   7.867  34.932   3.257
35961W        W 4324  23.500  19.042   4.231
35962W        W 4325   3.267  18.238   3.651
35963W        W 4326  24.480  16.082   1.838
35964W        W 4327   1.872  41.889   1.303
35965W        W 4328  33.072  41.523  13.884
35966W        W 4329  15.704  10.275   0.322
35967W        W 4330  27.972  21.517   1.799
35968W        W 4331  13.177  28.516   3.758
35969W        W 4332  31.551   0.390  14.435
35970W        W 4333  21.624  23.645   3.779
35971W        W 4334  15.229  39.935  13.393
35972W        W 4335  17.588   7.171   3.790
35973W        W 4336  22.206  24.202   2.771
35974W        W 4337   6.764  35.383   0.273
35975W        W 4338   2.762   2.431  14.403
35976W        W 4339  13.669  22.197   4.289
35977W        W 4340  15.225  13.156   2.743
35978W        W 4341  22.549  25.098  11.914
35979W        W 4342  36.380  32.569  13.308
35980W        W 4343  16.138  12.662   4.769
35981W        W 4344  30.111  33.906   3.680
35982W        W 4345  21.099  24.031  13.459
35983W        W 4346   7.226  13.175   1.771
35984W        W 4347  31.546  25.988  11.113
35985W        W 4348   1.249  21.714  12.535
35986W        W 4349  35.952  10.784   4.326
35987W        W 4350  14.142   8.360  10.406
35988W        W 4351  25.562  16.237  13.386
35989W        W 4352  17.636  31.095   4.653
35990W        W 4353  12.812  36.085  13.466
35991W        W 4354  29.101  22.168   4.613
35992W        W 4355   2.444  38.869  11.034
35993W        W 4356   0.775  22.536   0.422
35994W        W 4357   5.306   1.339   3.672
35995W        W 4358  20.111   4.818   3.288
35996W        W 4359  14.606  10.758   3.327
35997W        W 4360  31.457  24.670   0.244
35998W        W 4361  13.173  18.078  12.967
35999W        W 4362  10.738   4.791  10.055
36000W        W 4363  17.271   1.426   2.703
36001W        W 4364   7.361  19.151   4.179
36002W        W 4365  30.457   0.271   0.917
36003W        W 4366   1.977  21.260  12.565
36004W        W 4367  39.025   9.727   1.433
36005W        W 4368  44.902  16.095  10.921
36006W        W 4369   0.322   9.755  13.903
36007W        W 4370  30.488  19.572  11.453
36008W        W 4371  25.165  12.280   3.284
36009W        W 4372   8.842  32.426  11.535
36010W        W 4373  33.011   8.305  11.371
36011W        W 4374  36.094  19.260   0.840
36012W        W 4375   3.841  32.618   0.424
36013W        W 4376  32.136  11.818   0.861
36014W        W 4377  36.917  42.495   4.290
36015W        W 4378  35.094  34.530  12.973
36016W        W 4379  43.367  43.813  12.504
36017W        W 4380  26.092  29.482  13.885
36018W        W 4381  10.879  39.038   2.673
36019W        W 4382  43.492  23.574  10.568
36020W        W 4383  43.978   4.899   1.214
36021W        W 4384   5.200   1.414   0.906
36022W        W 4385  32.899  18.545   1.736
36023W        W 4386  19.184  24.486  12.076
36024W        W 4387   5.927   6.392   1.350
36025W        W 4388  22.701  32.071   0.915
36026W        W 4389   5.352   1.925  11.056
36027W        W 4390  32.961  11.693  12.893
36028W        W 4391  42.024  28.587   4.322
36029W        W 4392  41.843  33.408   2.871
36030W        W 4393  26.597  10.794   2.871
36031W        W 4394  23.606  25.635  14.410
36032W        W 4395  16.781  37.567   1.395
36033W        W 4396  18.251   5.797  10.909
36034W        W 4397   9.873  21.729   0.317
36035W        W 4398  38.409  19.640  13.971
36036W        W 4399  19.747  21.622   4.611
36037W        W 4400  16.290  18.618   3.262
36038W        W 4401  12.252   5.817   2.674
36039W        W 4402  23.561  21.531  11.012
36040W        W 4403  25.141  36.362   4.140
36041W        W 4404  13.611   9.709   2.209
36042W        W 4405  27.547  39.974  13.325
36043W        W 4406  29.601  15.792  13.992
36044W        W 4407  14.203   1.929   3.265
36045W        W 4408  16.279  31.458  13.850
36046W        W 4409  12.652  30.500  13.951
36047W        W 4410  29.924  31.574   0.459
36048W        W 4411  40.322  38.952  10.598
36049W        W 4412  35.075  18.242   4.223
36050W        W 4413   4.919  16.693   1.379
36051W        W 4414   1.846  28.086   1.413
36052W        W 4415  24.586  32.501  14.476
36053W        W 4416  27.635   9.344   3.338
36054W        W 4417  39.056  12.280  13.840
36055W        W 4418  16.282  31.585  14.424
36056W        W 4419  16.709  35.953  12.515
36057W        W 4420  33.461   4.437   0.390
36058W        W 4421  15.617  39.828  10.492
36059W        W 4422   5.734  42.990  12.357
36060W        W 4423  13.645  31.448  14.846
36061W        W 4424  15.153  33.001   3.727
36062W        W 4425  15.129  21.536  14.905
36063W        W 4426  13.122  29.594  11.983
36064W        W 4427  16.596  10.146  10.488
36065W        W 4428  31.405  42.964  11.582
36066W        W 4429  36.572  18.750  10.433
36067W        W 4430  10.323  21.043   1.357
36068W        W 4431  23.047  22.160   0.803
36069W        W 4432  11.634   2.836   0.258
36070W        W 4433  25.213  42.803  14.904
36071W        W 4434  13.606  11.138   1.338
36072W        W 4435  36.948   8.305   2.898
36073W        W 4436  25.185  32.561  11.093
36074W        W 4437   1.292  11.286  10.600
36075W        W 4438   7.183   7.249   1.263
36076W        W 4439   3.948   2.823   1.396
36077W        W 4440  29.644  33.527  12.374
36078W        W 4441  11.307  10.829   1.303
36079W        W 4442  37.888  14.184   5.171
36080W        W 4443  19.073  36.356   1.244
36081W        W 4444  19.682   4.890   1.701
36082W        W 4445  21.723  33.419  13.386
36083W        W 4446  18.573   7.183   2.181
36084W        W 4447  33.106  30.627   3.674
36085W        W 4448   2.740  11.308   4.705
36086W        W 4449  22.659   9.769  10.579
36087W        W 4450  38.833  41.326  10.075
36088W        W 4451  38.031  12.827   5.282
36089W        W 4452  24.994   8.661  13.019
36090W        W 4453   6.307  20.051  10.079
36091W        W 4454  41.026  14.625  10.512
36092W        W 4455  10.366  27.992  14.810
36093W        W 4456  38.386  13.294   3.173
36094W        W 4457  14.268  30.613  11.560
36095W        W 4458  11.784  12.301   0.432
36096W        W 4459   0.369  24.665  14.326
36097W        W 4460  35.581  44.424   4.650
36098W        W 4461  16.724  23.046  13.970
36099W        W 4462  26.136  28.109  11.380
36100W        W 4463  20.078  24.092   1.244
36101W        W 4464  24.699   3.796  12.877
36102W        W 4465   8.384   7.687   1.436
36103W        W 4466  25.112   4.885  13.525
36104W        W 4467  25.531   7.348  14.359
36105W        W 4468  30.053  38.987  11.478
36106W        W 4469  19.626   1.338   3.754
36107W        W 4470  43.868  16.116   3.677
36108W        W 4471  28.504   8.711  13.420
36109W        W 4472  35.483  30.953   0.732
36110W        W 4473  26.002  37.851   4.211
36111W        W 4474  38.498  18.721   2.225
36112W        W 4475  36.075  21.745   1.739
36113W        W 4476  28.605  31.586  11.859
36114W        W 4477  27.607  44.385   2.183
36115W        W 4478  41.337  36.388   9.932
36116W        W 4479  13.804   9.679   1.369
36117W        W 4480  27.161  32.977   2.879
36118W        W 4481  34.497  15.310   1.789
36119W        W 4482   3.763   4.216  13.385
36120W        W 4483  22.216  15.674  11.520
36121W        W 4484  38.996  20.228  10.413
36122W        W 4485  23.566  42.790   4.163
36123W        W 4486   1.757  10.276   2.766
36124W        W 4487  20.750  35.575   0.726
36125W        W 4488  27.066  20.216   3.229
36126W        W 4489  42.323  44.438  11.873
36127W        W 4490   0.471  18.128   4.832
36128W        W 4491  13.212   8.387   4.667
36129W        W 4492  30.623  24.179   3.341
36130W        W 4493  26.560  14.677  10.612
36131W        W 4494  39.398   3.299  11.538
36132W        W 4495   1.403  25.118  12.894
36133W        W 4496  39.956  24.983  12.959
36134W        W 4497   3.908  43.928  12.550
36135W        W 4498  26.657  14.688  14.944
36136W        W 4499   7.748   4.276  12.399
36137W        W 4500  40.808   1.815   2.822
36138W        W 4501  26.549  19.039   3.792
36139W        W 4502  12.148  19.575  13.314
36140W        W 4503  12.345  21.140   1.227
36141W        W 4504  14.678   6.853  11.871
36142W        W 4505  35.973  38.069  12.937
36143W        W 4506  19.740  24.550  10.905
36144W        W 4507  42.798  18.650  14.340
36145W        W 4508   6.260  24.222   1.728
36146W        W 4509  44.928  10.740  11.564
36147W        W 4510  39.860   1.788  10.466
36148W        W 4511  37.561  34.990  13.338
36149W        W 4512  19.552  44.002  13.467
36150W        W 4513  10.703   0.346  14.381
36151W        W 4514  11.162  10.814  11.859
36152W        W 4515  44.940   0.433  12.360
36153W        W 4516   6.884  33.042   1.702
36154W        W 4517  41.435  26.588   3.363
36155W        W 4518   1.311  31.959   1.280
36156W        W 4519  11.681   6.215   0.757
36157W        W 4520  42.031  11.355  14.800
36158W        W 4521  21.737  33.100  10.977
36159W        W 4522  24.676  44.980  13.024
36160W        W 4523  17.302  16.080  14.783
36161W        W 4524  15.236  34.978  11.612
36162W        W 4525   4.820  42.401   1.394
36163W        W 4526  16.268   3.780   0.366
36164W        W 4527  30.577  38.422  11.454
36165W        W 4528  22.608  41.514   4.177
36166W        W 4529  17.275  41.446  13.802
36167W        W 4530  15.604   4.254   9.936
36168W        W 4531  23.687  20.176  11.473
36169W        W 4532   0.295  17.201   0.755
36170W        W 4533  15.758   8.815   9.927
36171W        W 4534  15.697  44.848  12.896
36172W        W 4535  34.435  16.114  12.510
36173W        W 4536  41.438  44.865   4.728
36174W        W 4537  11.780  44.917  13.871
36175W        W 4538  17.078  11.133   0.748
36176W        W 4539  21.552  38.421  14.431
36177W        W 4540  34.485  36.073  12.343
36178W        W 4541  42.298   2.446   2.851
36179W        W 4542   4.864  12.856   3.733
36180W        W 4543   9.661  11.186   1.288
36181W        W 4544   9.736   9.877  13.370
36182W        W 4545  35.047   1.360  13.819
36183W        W 4546  39.065   0.352   1.714
36184W        W 4547  14.776   4.215   0.900
36185W        W 4548  27.540  23.509  12.351
36186W        W 4549  39.552   1.855   0.417
36187W        W 4550  19.051  44.821  13.937
36188W        W 4551  36.860  27.613  13.535
36189W        W 4552  23.558   0.757  11.928
36190W        W 4553  36.587  28.166  13.056
36191W        W 4554  42.304  14.292  11.460
36192W        W 4555  24.617  13.281  12.430
36193W        W 4556  44.444  32.630   2.750
36194W        W 4557  23.172  34.477   3.250
36195W        W 4558  39.329  26.063   1.301
36196W        W 4559   2.361  35.579  13.976
36197W        W 4560  44.810   9.192   4.757
36198W        W 4561  19.091  10.868  10.554
36199W        W 4562  19.557   6.242   1.332
36200W        W 4563   6.378   8.713   0.846
36201W        W 4564  37.086  26.639   1.765
36202W        W 4565  33.914  35.088  14.939
36203W        W 4566  22.597  22.598  11.045
36204W        W 4567   5.905  35.018  13.457
36205W        W 4568  37.913   5.909  12.018
36206W        W 4569  14.603  17.151   4.260
36207W        W 4570  36.419  30.542   1.748
36208W        W 4571   1.778  16.172   4.727
36209W        W 4572  33.943  42.281   3.306
36210W        W 4573  40.435  35.876   1.448
36211W        W 4574  17.134  15.750  14.949
36212W        W 4575  40.390  26.670  10.461
36213W        W 4576  21.645  13.170   3.786
36214W        W 4577  27.151   5.217   2.268
36215W        W 4578  37.030   8.709   2.324
36216W        W 4579  36.911  32.975  10.523
36217W        W 4580  30.921   4.887  11.960
36218W        W 4581   6.807  17.789  11.079
36219W        W 4582  27.559  21.213   4.173
36220W        W 4583  33.413  29.445  14.280
36221W        W 4584   4.746  22.185   9.925
36222W        W 4585  11.625  15.609  14.479
36223W        W 4586  36.939  29.170  11.929
36224W        W 4587  13.137   5.307  11.444
36225W        W 4588  10.719  40.501  14.872
36226W        W 4589   4.404   4.873  13.327
36227W        W 4590   4.835  21.667  10.630
36228W        W 4591  14.310   9.395   4.809
36229W        W 4592  15.097  44.873   3.667
36230W        W 4593   7.252  39.482   2.721
36231W        W 4594  41.980  20.103  11.112
36232W        W 4595   6.695  36.590   2.853
36233W        W 4596  30.088  29.123   2.788
36234W        W 4597   3.792  39.812   3.236
36235W        W 4598  29.549  16.783   0.421
36236W        W 4599  37.522  31.982   0.258
36237W        W 4600  23.715  26.520   2.748
36238W        W 4601  21.512  34.047   4.269
36239W        W 4602   6.302  23.631  11.084
36240W        W 4603  38.396  22.541   3.815
36241W        W 4604  39.916   2.734  13.909
36242W        W 4605  37.519  43.314   3.833
36243W        W 4606  18.082  24.531   0.757
36244W        W 4607  28.936  14.324  11.863
36245W        W 4608  42.505  36.430   4.636
36246W        W 4609  36.991  29.521  13.359
36247W        W 4610  44.345  43.774   3.200
36248W        W 4611  21.043   6.678   3.738
36249W        W 4612  30.915  26.575  13.050
36250W        W 4613   7.323  35.077  12.093
36251W        W 4614   0.437  32.116   1.417
36252W        W 4615  38.331  43.000  12.082
36253W        W 4616  24.711  26.050  11.989
36254W        W 4617   1.264  26.015   0.436
36255W        W 4618  15.782  43.413  13.051
36256W        W 4619  20.146  25.048  10.936
36257W        W 4620  29.992  43.766  11.889
36258W        W 4621  34.410  26.676  12.028
36259W        W 4622  31.568  36.000   2.228
36260W        W 4623  35.465  35.593   0.263
36261W        W 4624  19.753   0.408   4.199
36262W        W 4625   2.953  38.548   2.746
36263W        W 4626  22.068   2.845  13.454
36264W        W 4627  40.366  40.492  14.299
36265W        W 4628   9.314  44.445   4.636
36266W        W 4629  12.771  26.014   3.307
36267W        W 4630  44.308  12.334   2.814
36268W        W 4631  34.983   4.903   1.767
36269W        W 4632  41.416   5.193  14.819
36270W        W 4633  29.127   8.183   1.362
36271W        W 4634  33.592  24.133   3.318
36272W        W 4635  19.601  28.093   2.713
36273W        W 4636  12.154  26.528  14.797
36274W        W 4637  31.048  25.042   1.779
36275W        W 4638   1.947  38.048  11.934
36276W        W 4639  30.464  41.981  11.467
36277W        W 4640   2.791  14.217   1.838
36278W        W 4641  10.784  44.008  14.920
36279W        W 4642   9.771  19.568  11.982
36280W        W 4643   2.250  11.314  11.413
36281W        W 4644  11.310  19.157  10.965
36282W        W 4645  25.124  44.446  12.579
36283W        W 4646   3.781  27.489   1.875
36284W        W 4647  23.697  18.240  14.827
36285W        W 4648  44.960  44.914  12.509
36286W        W 4649  13.731  30.025   3.304
36287W        W 4650  42.370  22.232  14.379
36288W        W 4651  32.495  33.051   2.863
36289W        W 4652  24.156  42.803  10.046
36290W        W 4653  15.195   6.737  10.073
36291W        W 4654  28.097  24.505   0.826
36292W        W 4655  38.946  16.813   0.394
36293W        W 4656  20.205  42.915   0.936
36294W        W 4657  22.081  36.442  12.458
36295W        W 4658  28.662  13.343   3.257
36296W        W 4659  27.578  43.812   2.192
36297W        W 4660  32.042  33.391  12.861
36298W        W 4661   6.791  40.861  13.540
36299W        W 4662  41.873  44.462  13.534
36300W        W 4663   2.301  12.204   2.710
36301W        W 4664   6.846   8.684   1.230
36302W        W 4665  20.221   5.876   0.375
36303W        W 4666  14.143   5.747  11.477
36304W        W 4667  24.698   3.784  12.442
36305W        W 4668  34.022  43.319   1.388
36306W        W 4669  44.892  41.881  11.882
36307W        W 4670  41.292  17.234  13.429
36308W        W 4671   0.792  11.158   4.762
36309W        W 4672   0.322  32.955   0.336
36310W        W 4673  26.029   8.297   3.371
36311W        W 4674  36.910  10.874  11.088
36312W        W 4675  42.901  19.604   4.824
36313W        W 4676  27.146  34.386  12.092
36314W        W 4677  15.182  40.916   3.325
36315W        W 4678  35.584   5.427   3.746
36316W        W 4679   0.927  24.635   0.378
36317W        W 4680  11.636  29.431   4.119
36318W        W 4681  34.457   5.736  10.449
36319W        W 4682   8.886  37.407   2.364
36320W        W 4683  10.201  22.016  11.886
36321W        W 4684   2.921  30.567   4.738
36322W        W 4685   7.782  30.654   5.294
36323W        W 4686  32.532  41.310   2.210
36324W        W 4687  14.664   0.445  12.545
36325W        W 4688  34.409   0.373  14.419
36326W        W 4689  42.340   1.461   2.369
36327W        W 4690   6.302   5.799   0.281
36328W        W 4691   7.860  10.752  14.959
36329W        W 4692  18.764   7.855   4.206
36330W        W 4693  32.023  33.554  11.067
36331W        W 4694  39.065  30.469  13.804
36332W        W 4695  24.589   8.182  14.283
36333W        W 4696  39.464   6.808   4.205
36334W        W 4697  10.240  14.329  12.432
36335W        W 4698  40.049  44.815  11.023
36336W        W 4699   1.415  11.743   2.744
36337W        W 4700  26.970  39.513  11.973
36338W        W 4701  32.429  19.596   0.314
36339W        W 4702  29.433  20.617  12.908
36340W        W 4703  17.156   7.714   1.313
36341W        W 4704  15.323  18.100  12.454
36342W        W 4705  28.968  27.981   1.820
36343W        W 4706  39.449  39.329  14.878
36344W        W 4707  18.218  10.645   4.143
36345W        W 4708  30.526  43.862  13.376
36346W        W 4709  32.939  42.511  11.057
36347W        W 4710   2.404  15.810   3.760
36348W        W 4711  27.967  43.007  10.641
36349W        W 4712  19.642  13.606   4.669
36350W        W 4713   3.778  23.032  11.043
36351W        W 4714   0.829  27.119  13.393
36352W        W 4715  32.528  36.426  13.838
36353W        W 4716  36.504  11.810  10.139
36354W        W 4717  37.423  32.999  11.971
36355W        W 4718  12.283  24.208   0.263
36356W        W 4719  11.631  24.724   0.244
36357W        W 4720  28.543  27.955  10.493
36358W        W 4721  22.599   3.709  13.862
36359W        W 4722  29.500  22.605   0.951
36360W        W 4723  23.657  14.114  14.899
36361W        W 4724   6.851  14.127   0.827
36362W        W 4725  19.133   2.720  12.904
36363W        W 4726  27.520   4.298  14.367
36364W        W 4727   0.849  14.228   0.794
36365W        W 4728   7.369  19.602   2.721
36366W        W 4729  20.044  40.496  13.359
36367W        W 4730  36.360   4.856   1.350
36368W        W 4731  17.671  14.158   4.230
36369W        W 4732   2.833  13.298   2.393
36370W        W 4733  43.881  31.139  10.613
36371W        W 4734   5.853  30.969  14.500
36372W        W 4735  27.493  26.597   3.768
36373W        W 4736  38.893  16.692   1.910
36374W        W 4737  25.593   5.259  13.968
36375W        W 4738   4.360   3.938   4.629
36376W        W 4739   5.314  30.158   4.346
36377W        W 4740   4.257  32.900  13.825
36378W        W 4741   3.764  13.777   0.426
36379W        W 4742  37.449  34.570   4.206
36380W        W 4743  23.538  41.490   3.374
36381W        W 4744   1.271  36.484   2.239
36382W        W 4745  39.474  19.685   1.242
36383W        W 4746   7.305  24.546  10.532
36384W        W 4747  27.177  36.436  12.938
36385W        W 4748  14.130  31.968   3.363
36386W        W 4749  42.387  20.557   4.767
36387W        W 4750  12.318  30.465   4.789
36388W        W 4751  15.789  18.692   9.957
36389W        W 4752   8.377  15.820   4.744
36390W        W 4753  23.571  14.688  14.397
36391W        W 4754  16.232  21.620   2.417
36392W        W 4755  18.747   0.858  11.609
36393W        W 4756  29.631   1.481   1.894
36394W        W 4757  25.528  28.094   2.406
36395W        W 4758  24.614  21.710   1.242
36396W        W 4759   1.476   6.860   4.116
36397W        W 4760  39.453  19.055   4.797
36398W        W 4761   8.300  11.670   3.162
36399W        W 4762  32.426  25.219   4.664
36400W        W 4763   9.187   2.895   0.380
36401W        W 4764   4.294  26.155  13.314
36402W        W 4765  39.422  27.030  12.942
36403W        W 4766   4.249  32.890   3.727
36404W        W 4767  36.506  37.921  12.546
36405W        W 4768  12.761  16.809  13.541
36406W        W 4769  35.528   5.312   1.417
36407W        W 4770  21.181  12.713  11.000
36408W        W 4771   7.706  37.578   4.204
36409W        W 4772   7.902  16.680  14.826
36410W        W 4773  35.958  27.483   0.854
36411W        W 4774  42.856  31.492  12.952
36412W        W 4775  13.825  21.748  14.996
36413W        W 4776  34.107  40.938   3.659
36414W        W 4777  23.684  22.738   3.796
36415W        W 4778  17.692  15.781  11.435
36416W        W 4779  42.963  32.445   5.247
36417W        W 4780  20.738  18.289   1.802
36418W        W 4781   5.883  20.124  13.937
36419W        W 4782  41.908  14.745   2.351
36420W        W 4783  19.272  38.531   3.235
36421W        W 4784   2.339   9.257   4.610
36422W        W 4785  10.709  32.894  11.868
36423W        W 4786  33.031   0.827   0.325
36424W        W 4787  22.206  27.060  10.496
36425W        W 4788  19.757  12.143   0.282
36426W        W 4789  33.116  28.935   0.743
36427W        W 4790   9.288  29.126   2.725
36428W        W 4791  22.694  23.181  12.828
36429W        W 4792   7.390   0.446   4.652
36430W        W 4793  43.964  32.511   1.427
36431W        W 4794  11.278  11.345  13.045
36432W        W 4795  34.915  39.398  10.954
36433W        W 4796  15.631  18.125  13.503
36434W        W 4797   0.823  14.094  14.442
36435W        W 4798  27.083   6.733  12.872
36436W        W 4799  16.704  29.573  11.488
36437W        W 4800  19.277  27.495  13.321
36438W        W 4801  42.858  32.891  13.335
36439W        W 4802  10.317  44.279  14.471
36440W        W 4803  11.356  30.957  11.024
36441W        W 4804   4.875  23.112  12.472
36442W        W 4805  24.045   7.341  14.452
36443W        W 4806   8.310  33.576  13.375
36444W        W 4807  37.429  12.309  13.472
36445W        W 4808  38.045  35.497   2.753
36446W        W 4809  11.268  17.702  10.567
36447W        W 4810  26.174  28.651   0.920
36448W        W 4811  15.705  36.905   1.270
36449W        W 4812   2.813  36.498  11.572
36450W        W 4813  38.870  23.497  11.084
36451W        W 4814  35.023  36.089   4.635
36452W        W 4815  42.817  33.479   0.483
36453W        W 4816  28.996  11.322  14.822
36454W        W 4817   9.808  10.172  14.804
36455W        W 4818  32.578  23.694   3.669
36456W        W 4819  26.624  15.616   1.367
36457W        W 4820   8.165   2.291  14.284
36458W        W 4821  14.178  16.154   2.894
36459W        W 4822  32.584   9.884  10.540
36460W        W 4823   2.358   7.373   1.815
36461W        W 4824  11.812  16.643   3.868
36462W        W 4825  14.186  18.091  14.786
36463W        W 4826  20.220  29.936   1.228
36464W        W 4827  17.129  35.459  14.824
36465W        W 4828  37.426  29.002  13.492
36466W        W 4829  17.772  33.898   4.279
36467W        W 4830  18.645  26.523  13.314
36468W        W 4831   3.344  35.498   1.281
36469W        W 4832   6.368  11.635  10.979
36470W        W 4833  42.903  33.514   1.350
36471W        W 4834  27.020  41.023  13.372
36472W        W 4835  15.210   7.366  11.013
36473W        W 4836  19.715  32.631   4.628
36474W        W 4837  36.959   0.369   0.327
36475W        W 4838   0.860  40.833  14.923
36476W        W 4839   7.705  18.643  14.487
36477W        W 4840  38.536  32.967  11.456
36478W        W 4841  12.856  36.505  10.996
36479W        W 4842  32.040  11.232  12.566
36480W        W 4843  31.992   1.951  12.487
36481W        W 4844  42.966   0.420   1.815
36482W        W 4845  30.524  11.147  10.555
36483W        W 4846  18.667  29.098  13.893
36484W        W 4847  38.389  34.570   0.741
36485W        W 4848  39.420  17.622  12.870
36486W        W 4849  39.013  33.986  11.886
36487W        W 4850   4.859  42.405  10.477
36488W        W 4851  33.456  14.229   5.288
36489W        W 4852  39.495  18.557   3.704
36490W        W 4853  33.071  32.582   0.861
36491W        W 4854  17.184  26.153  14.884
36492W        W 4855  29.506  34.078   1.264
36493W        W 4856  30.078   9.283  14.996
36494W        W 4857  27.446  31.560  10.989
36495W        W 4858  30.069  14.672  10.540
36496W        W 4859  24.688  13.163   4.686
36497W        W 4860  20.117  44.324  13.465
36498W        W 4861  24.194  17.602   3.170
36499W        W 4862  13.227  43.432  14.852
36500W        W 4863  11.628  26.613   2.256
36501W        W 4864  34.018   7.677   2.716
36502W        W 4865  19.092  15.666  13.863
36503W        W 4866  32.452  34.560   3.731
36504W        W 4867  15.788  10.836  13.409
36505W        W 4868   0.917  26.161  11.857
36506W        W 4869  39.347  40.816  13.845
36507W        W 4870  24.720  18.648  13.447
36508W        W 4871  40.346  23.237   3.653
36509W        W 4872  13.311  44.978  13.802
36510W        W 4873  37.950  20.268  12.498
36511W        W 4874  44.497  34.964   5.139
36512W        W 4875  24.121  10.372  11.007
36513W        W 4876  16.136  35.899   4.647
36514W        W 4877  11.769  36.478   4.226
36515W        W 4878  27.192  16.767  13.000
36516W        W 4879  12.169  30.163   3.819
36517W        W 4880  43.838  38.021   4.260
36518W        W 4881   5.818  40.457   2.704
36519W        W 4882  36.087  33.582  14.492
36520W        W 4883   5.263   3.293   2.298
36521W        W 4884   7.880  33.042  11.921
36522W        W 4885   5.298  32.453   2.688
36523W        W 4886   6.817  13.687  13.837
36524W        W 4887  38.052  33.577   0.257
36525W        W 4888  35.039  36.913   4.787
36526W        W 4889  19.181  13.170   2.786
36527W        W 4890  22.115  30.150   1.448
36528W        W 4891  12.725   1.328   3.182
36529W        W 4892  30.504  14.098   5.321
36530W        W 4893   2.848  28.081  13.838
36531W        W 4894  27.995  16.707   2.894
36532W        W 4895  14.733  39.533   1.866
36533W        W 4896  30.520  22.609   1.849
36534W        W 4897   9.239  41.997   3.811
36535W        W 4898  26.478  37.058   2.762
36536W        W 4899  32.394  35.528   1.927
36537W        W 4900  20.554  28.635  14.909
36538W        W 4901  44.408  24.603   2.195
36539W        W 4902  11.828   6.797   4.292
36540W        W 4903  43.958  43.980   4.132
36541W        W 4904   5.732  16.796  11.913
36542W        W 4905  11.314  34.046  14.780
36543W        W 4906  12.804  25.601   2.413
36544W        W 4907  34.007  34.570  14.803
36545W        W 4908  12.776  33.929  13.900
36546W        W 4909  19.711  27.559  12.520
36547W        W 4910   9.662  35.083  13.955
36548W        W 4911   6.921   7.260   3.221
36549W        W 4912   8.282  35.526  12.863
36550W        W 4913  38.037  34.993   0.803
36551W        W 4914  23.189  35.452   1.884
36552W        W 4915   3.241  39.879  11.534
36553W        W 4916  34.609  35.024  13.054
36554W        W 4917  29.508  17.638   3.652
36555W        W 4918   6.761  23.638   1.301
36556W        W 4919   7.418  18.604   3.204
36557W        W 4920  20.099   1.271   3.862
36558W        W 4921  34.935  38.004  14.419
36559W        W 4922  20.705  17.290   0.359
36560W        W 4923  44.006  17.078  13.995
36561W        W 4924  41.457   0.753  14.290
36562W        W 4925  23.630  17.161  13.882
36563W        W 4926   6.786  38.432   2.768
36564W        W 4927  33.454   8.833   4.201
36565W        W 4928  33.102  29.919  10.511
36566W        W 4929   5.332  20.573   0.751
36567W        W 4930  32.462  14.707  12.044
36568W        W 4931   6.711  35.047   1.768
36569W        W 4932   1.866  38.356   3.213
36570W        W 4933   0.946   2.786  11.490
36571W        W 4934  19.727   1.433  14.828
36572W        W 4935   3.402   5.333  12.048
36573W        W 4936  41.964  41.394  11.467
36574W        W 4937  26.173  23.687   4.707
36575W        W 4938  33.527  31.096   2.880
36576W        W 4939  40.990  18.732  13.927
36577W        W 4940  24.061  12.762  11.891
36578W        W 4941  21.146  23.233   2.324
36579W        W 4942   1.440  41.484  11.374
36580W        W 4943   2.418  42.946   1.844
36581W        W 4944  19.616  43.431  14.440
36582W        W 4945  23.602  36.875   1.452
36583W        W 4946  20.623   0.342   0.479
36584W        W 4947  20.714   1.330  13.888
36585W        W 4948  25.146  10.803   0.776
36586W        W 4949   8.325   4.430   3.632
36587W        W 4950   3.453  32.950  14.971
36588W        W 4951  14.738  15.643   1.224
36589W        W 4952  10.774  44.420   1.237
36590W        W 4953  15.273  31.118  14.899
36591W        W 4954   8.340  17.299   3.339
36592W        W 4955  35.468  28.518  13.424
36593W        W 4956   3.880  16.737   3.385
36594W        W 4957   2.802  40.983  14.958
36595W        W 4958  34.490  17.589   3.194
36596W        W 4959  21.199   7.345  10.503
36597W        W 4960  17.110   4.385  12.343
36598W        W 4961  16.807  11.256  12.840
36599W        W 4962   5.338   3.335  13.850
36600W        W 4963   1.927   8.718  12.830
36601W        W 4964  43.807  10.640  10.609
36602W        W 4965  39.840  11.328  13.891
36603W        W 4966   0.935  10.278  10.108
36604W        W 4967  26.611  21.248  13.014
36605W        W 4968   5.701  25.973  11.472
36606W        W 4969  28.947  37.359   0.256
36607W        W 4970  37.053   0.927   0.404
36608W        W 4971  11.758  13.731   0.729
36609W        W 4972  34.888   3.429  11.442
36610W        W 4973  20.563   2.769  11.415
36611W        W 4974   6.717  40.904   4.350
36612W        W 4975   4.871  33.382   3.805
36613W        W 4976   2.833  16.616   3.375
36614W        W 4977   5.814   4.928   4.779
36615W        W 4978  11.213  27.652  10.577
36616W        W 4979  27.497   6.271   2.327
36617W        W 4980  37.366  13.164   0.332
36618W        W 4981  21.587  29.575   4.683
36619W        W 4982   0.450  40.368   4.624
36620W        W 4983   0.803  33.572  14.853
36621W        W 4984  12.326  12.201  12.895
36622W        W 4985   9.842  35.476  13.385
36623W        W 4986  17.660  40.040   2.273
36624W        W 4987  26.652   8.770   9.974
36625W        W 4988  27.979  20.234   0.300
36626W        W 4989  21.177   9.331  11.553
36627W        W 4990   6.222   4.937   4.659
36628W        W 4991  26.489   5.835   0.930
36629W        W 4992  41.375   0.920  13.800
36630W        W 4993  13.636  40.045  11.013
36631W        W 4994  36.549  11.201   1.301
36632W        W 4995  21.525  15.637  11.931
36633W        W 4996  11.256  41.389  11.429
36634W        W 4997  25.623  15.180  13.049
36635W        W 4998   8.879   9.811   1.812
36636W        W 4999  33.380   1.861   2.375
36637W        W 5000  21.054  25.481   3.644
36638W        W 5001  31.027  20.264   4.678
36639W        W 5002  35.457  22.715  14.768
36640W        W 5003  30.567  40.013   4.272
36641W        W 5004   7.781   7.720  12.954
36642W        W 5005  34.120  20.690   4.269
36643W        W 5006  41.847  28.060  10.445
36644W        W 5007  35.982   5.803  11.414
36645W        W 5008   6.721   2.431  13.005
36646W        W 5009  44.417  34.415  10.418
36647W        W 5010  30.580  43.401  13.481
36648W        W 5011  17.763   1.397   4.701
36649W        W 5012  31.046  12.688   4.168
36650W        W 5013  29.096  25.057  11.912
36651W        W 5014  43.355   0.266   4.802
36652W        W 5015  39.858  10.231  12.487
36653W        W 5016  43.377  15.747  12.826
36654W        W 5017  13.334  31.468  12.345
36655W        W 5018  22.037  20.045   1.930
36656W        W 5019   6.269  43.456   4.640
36657W        W 5020   1.278  27.182   4.349
36658W        W 5021   6.718  12.810  12.826
36659W        W 5022  32.442  43.022  13.870
36660W        W 5023  21.686  44.489  14.025
36661W        W 5024   5.785  39.065   0.769
36662W        W 5025  22.139  12.675  13.332
36663W        W 5026  30.415   3.401  10.568
36664W        W 5027  20.097  27.069   2.258
36665W        W 5028  34.466   1.482  10.499
36666W        W 5029  18.603  11.153  13.028
36667W        W 5030  15.581  29.573  14.338
36668W        W 5031   7.714  21.128   1.299
36669W        W 5032   7.880  11.761  12.088
36670W        W 5033  24.982  14.746  12.555
36671W        W 5034  18.686  20.540   3.170
36672W        W 5035  12.332  38.486  10.961
36673W        W 5036   9.823  44.933  11.128
36674W        W 5037  12.150  43.514   4.263
36675W        W 5038  16.712  28.643  14.430
36676W        W 5039  12.182   9.683  11.590
36677W        W 5040  34.552  24.524  11.396
36678W        W 5041  32.618   6.385  10.561
36679W        W 5042   4.865  11.269  10.607
36680W        W 5043  43.833  24.149  10.982
36681W        W 5044   2.897   4.364   0.781
36682W        W 5045  19.137  40.346  11.067
36683W        W 5046  15.688   0.414  11.475
36684W        W 5047  12.851  39.366  12.963
36685W        W 5048  33.880  44.442   0.294
36686W        W 5049   8.878  18.073   0.928
36687W        W 5050  11.742  19.089   1.754
36688W        W 5051  33.040  34.869  12.535
36689W        W 5052   5.402  25.708  12.956
36690W        W 5053  18.182  37.498   0.426
36691W        W 5054  42.819  27.055  14.316
36692W        W 5055   6.365  29.583   1.756
36693W        W 5056  25.537   4.211   3.166
36694W        W 5057  16.588  41.827  10.443
36695W        W 5058   8.795  14.166  10.466
36696W        W 5059  26.633  24.676   4.713
36697W        W 5060  35.909  24.147   3.374
36698W        W 5061   5.911  30.966   2.760
36699W        W 5062   9.777  16.808   1.752
36700W        W 5063  18.610   3.297  13.028
36701W        W 5064  19.587  40.402  11.875
36702W        W 5065  22.054  24.979  10.999
36703W        W 5066  18.663  39.054   4.632
36704W        W 5067   2.881  26.480   0.465
36705W        W 5068  28.014  43.393   1.698
36706W        W 5069  18.726  38.493  11.993
36707W        W 5070   1.284  14.618  12.351
36708W        W 5071  44.346  10.215  13.887
36709W        W 5072  38.340  10.711  14.978
36710W        W 5073   7.213   9.189   0.809
36711W        W 5074  16.304  31.503   1.257
36712W        W 5075  20.691   6.901   1.260
36713W        W 5076  35.596  13.775  13.422
36714W        W 5077  29.450   3.309   0.384
36715W        W 5078  15.188   0.947  12.864
36716W        W 5079  32.117  32.938  14.003
36717W        W 5080   6.680  38.915  10.142
36718W        W 5081  22.527   6.907   0.798
36719W        W 5082  34.520   5.835   3.638
36720W        W 5083  15.794  34.876   4.277
36721W        W 5084  43.418  31.950  13.362
36722W        W 5085  12.830  10.822  14.778
36723W        W 5086   8.711  31.061  13.008
36724W        W 5087  43.913  43.357  10.497
36725W        W 5088  14.802  35.936   4.321
36726W        W 5089  33.958  40.931  14.317
36727W        W 5090  22.552  14.099  12.513
36728W        W 5091  25.649   5.257  13.381
36729W        W 5092  22.040  15.280   0.884
36730W        W 5093  10.761  36.086   4.601
36731W        W 5094  32.521  27.948  14.505
36732W        W 5095  19.661  13.155  10.893
36733W        W 5096  41.796  34.879   0.893
36734W        W 5097  22.563  23.173  10.974
36735W        W 5098  41.962   1.473   0.316
36736W        W 5099  35.032  12.737   5.130
36737W        W 5100  43.497   7.696  10.500
36738W        W 5101  39.896   1.800   4.603
36739W        W 5102  32.484  38.824  11.028
36740W        W 5103   2.908  43.913  12.543
36741W        W 5104  30.915  35.902  11.940
36742W        W 5105   2.786  11.819   0.799
36743W        W 5106  12.119  29.100   4.599
36744W        W 5107  36.015  15.112  12.894
36745W        W 5108  36.526  29.530  12.435
36746W        W 5109  16.297  42.981   1.395
36747W        W 5110  38.853   7.293   4.686
36748W        W 5111  29.093  27.012  12.487
36749W        W 5112  21.042  32.966  12.574
36750W        W 5113  42.851  39.506  13.046
36751W        W 5114   7.667  20.240  11.579
36752W        W 5115  37.506  18.757  11.103
36753W        W 5116  16.776  25.571   0.863
36754W        W 5117  14.639  23.722   2.695
36755W        W 5118  15.096  43.957  12.557
36756W        W 5119   7.894  40.980   2.353
36757W        W 5120  43.274  22.120   1.243
36758W        W 5121  15.785   2.253   4.252
36759W        W 5122  39.928  38.945   2.247
36760W        W 5123  20.273   1.878  13.996
36761W        W 5124   9.724  17.062   1.283
36762W        W 5125  28.013  10.697  11.069
36763W        W 5126  42.362  10.826   0.847
36764W        W 5127  18.639  19.205   3.793
36765W        W 5128  18.606  37.998  13.934
36766W        W 5129  40.343   3.754  11.516
36767W        W 5130  39.962  22.142   1.219
36768W        W 5131   2.393  26.196   2.846
36769W        W 5132   7.766  18.292  12.983
36770W        W 5133  23.528  19.199  11.891
36771W        W 5134  25.006  25.692   0.252
36772W        W 5135  11.146  26.121  13.475
36773W        W 5136  14.626  27.467  13.377
36774W        W 5137   6.848  10.179   1.781
36775W        W 5138  15.165   2.236  11.931
36776W        W 5139  20.272  42.812  14.963
36777W        W 5140  41.293  15.696  12.555
36778W        W 5141  20.560  25.992   2.276
36779W        W 5142  36.478  16.309  11.018
36780W        W 5143  43.804  43.441   4.603
36781W        W 5144  23.190  43.398  12.877
36782W        W 5145  14.640  17.106  13.824
36783W        W 5146  37.831  39.946  14.401
36784W        W 5147  40.013  24.580  14.863
36785W        W 5148  43.014  26.595   0.435
36786W        W 5149  10.848  40.496   4.206
36787W        W 5150  24.667  24.003   0.967
36788W        W 5151  44.993   8.758  12.045
36789W        W 5152  38.829  33.409   3.850
36790W        W 5153  30.079  17.078   2.349
36791W        W 5154  22.048   1.481   0.379
36792W        W 5155  21.055  26.601  12.530
36793W        W 5156  30.935  14.314  14.771
36794W        W 5157  42.976   6.841   2.249
36795W        W 5158  18.195  16.238   0.841
36796W        W 5159  40.436  18.150   4.801
36797W        W 5160  36.355  21.695   0.380
36798W        W 5161  10.674  25.103  12.861
36799W        W 5162  16.297   4.708   1.816
36800W        W 5163   0.963  14.817   4.137
36801W        W 5164  44.854   5.352  14.831
36802W        W 5165  31.625  20.690   4.142
36803W        W 5166  39.416  19.761  12.918
36804W        W 5167  11.752  10.300   3.856
36805W        W 5168   5.753   0.846   4.213
36806W        W 5169  13.329  31.018   2.763
36807W        W 5170  36.361  39.375   4.677
36808W        W 5171  10.800  36.578   0.960
36809W        W 5172  40.332  32.582  13.487
36810W        W 5173   5.381  32.551  13.348
36811W        W 5174  13.749   3.713  12.435
36812W        W 5175  35.916   2.740  12.454
36813W        W 5176  18.160   5.249   1.251
36814W        W 5177  31.934  14.174  13.898
36815W        W 5178   9.856  26.129  12.068
36816W        W 5179  25.203  11.166  10.044
36817W        W 5180  13.173   5.899   1.422
36818W        W 5181  37.971   9.661  13.003
36819W        W 5182  28.633  31.121  11.447
36820W        W 5183  20.634  17.677   4.214
36821W        W 5184  13.336  40.410   2.898
36822W        W 5185   3.358  13.209  12.377
36823W        W 5186  13.272   4.759   0.425
36824W        W 5187  44.784  27.658  12.546
36825W        W 5188   7.704   3.903  14.331
36826W        W 5189  39.824  37.053  12.407
36827W        W 5190  44.859   4.846  14.371
36828W        W 5191   4.280  24.505  11.956
36829W        W 5192   5.201  19.739   2.366
36830W        W 5193  12.328  15.105  14.438
36831W        W 5194  28.959  12.718  13.545
36832W        W 5195  20.656   2.437  13.348
36833W        W 5196  42.400  34.060  10.638
36834W        W 5197  18.706   8.729   3.738
36835W        W 5198   3.304   1.369   0.306
36836W        W 5199  20.263   8.721   0.861
36837W        W 5200   5.798   5.886  11.951
36838W        W 5201  38.862  26.532  10.025
36839W        W 5202  18.135   8.291   3.840
36840W        W 5203  34.029  27.514  12.350
36841W        W 5204  39.989  38.378   0.836
36842W        W 5205  36.871  21.033   4.687
36843W        W 5206   6.416  24.031  14.889
36844W        W 5207  13.753  14.304   0.472
36845W        W 5208   4.738  11.855   1.225
36846W        W 5209  14.647  16.792   4.330
36847W        W 5210   9.863  14.825   1.862
36848W        W 5211  38.486   4.399   3.179
36849W        W 5212  11.142  34.480   0.263
36850W        W 5213   5.853   4.875   3.707
36851W        W 5214   7.754  39.867   2.416
36852W        W 5215  32.892  22.167  10.504
36853W        W 5216  37.567   6.320  14.021
36854W        W 5217   5.251  40.457   3.343
36855W        W 5218  25.124  36.045  12.434
36856W        W 5219  11.640  12.757   4.187
36857W        W 5220  20.212  28.447   4.230
36858W        W 5221   3.217   4.780  12.348
36859W        W 5222  15.235  40.934   0.395
36860W        W 5223   8.834  26.977   4.342
36861W        W 5224  10.754   6.305  14.424
36862W        W 5225  35.868  38.820   1.891
36863W        W 5226  41.488  22.575   3.702
36864W        W 5227   0.884  23.549   2.898
36865W        W 5228   7.402  17.276  10.405
36866W        W 5229   3.299  41.839  14.475
36867W        W 5230  18.637  32.907  11.589
36868W        W 5231  18.244   3.844  11.391
36869W        W 5232  24.210  31.953  12.358
36870W        W 5233  21.177  30.043  10.621
36871W        W 5234  15.311  20.736   1.911
36872W        W 5235   4.376  23.580   3.323
36873W        W 5236  34.974  23.653  11.855
36874W        W 5237  22.564  20.577  13.536
36875W        W 5238  16.271  15.719  13.543
36876W        W 5239  20.224   9.280  12.395
36877W        W 5240   3.246  33.882  12.049
36878W        W 5241   3.267  40.348  12.506
36879W        W 5242  36.958   5.395  13.064
36880W        W 5243   8.692  34.411   3.630
36881W        W 5244  32.625  17.658   3.345
36882W        W 5245   7.673   2.359  13.491
36883W        W 5246  36.048  34.509   3.354
36884W        W 5247   2.301   0.250  13.476
36885W        W 5248   5.783  41.941   0.866
36886W        W 5249   3.792  41.494  14.849
36887W        W 5250  24.085  29.922   1.294
36888W        W 5251  30.071   8.682   3.331
36889W        W 5252  26.607  21.571  13.499
36890W        W 5253  40.000  18.711   0.358
36891W        W 5254  12.125  10.698   4.146
36892W        W 5255  36.943  10.263  13.449
36893W        W 5256  26.538  37.431  14.334
36894W        W 5257  13.827  25.569  11.498
36895W        W 5258  21.017   9.664   4.677
36896W        W 5259  44.822  32.619  11.496
36897W        W 5260   9.174  39.876  14.848
36898W        W 5261  35.559  18.224  14.340
36899W        W 5262  12.202  16.228  12.890
36900W        W 5263  14.270  33.921  11.009
36901W        W 5264  29.132  40.051  13.445
36902W        W 5265  27.138  27.509  14.024
36903W        W 5266  22.632  29.477   2.712
36904W        W 5267  20.578  27.642  14.930
36905W        W 5268  13.316  33.392  10.078
36906W        W 5269  17.107  33.398  13.465
36907W        W 5270  34.433  11.154   1.760
36908W        W 5271  38.346  13.334  12.837
36909W        W 5272  31.990  42.495  11.524
36910W        W 5273  37.851  32.619   4.720
36911W        W 5274  29.526  25.018  14.333
36912W        W 5275  15.223  12.201  13.440
36913W        W 5276  33.459  36.088  12.005
36914W        W 5277  19.170  37.013  12.501
36915W        W 5278  20.759   5.404   3.236
36916W        W 5279  44.787  20.568   3.226
36917W        W 5280  44.850   9.346   0.408
36918W        W 5281  15.612  28.576  14.845
36919W        W 5282  13.249  39.474  12.451
36920W        W 5283  42.496   0.964   4.243
36921W        W 5284  15.267   6.267  14.795
36922W        W 5285   5.307  10.159   1.276
36923W        W 5286  23.686  32.110   1.399
36924W        W 5287  14.152  14.799   4.249
36925W        W 5288  28.673  34.068   0.824
36926W        W 5289   9.368  13.271  14.363
36927W        W 5290  13.181  16.130  11.974
36928W        W 5291  31.528  38.456  12.409
36929W        W 5292  37.532   6.427   4.707
36930W        W 5293  25.203  33.953   0.731
36931W        W 5294   0.943   6.401   0.927
36932W        W 5295  33.411  41.923   3.273
36933W        W 5296  30.050  29.085   1.789
36934W        W 5297  22.633  26.963  12.986
36935W        W 5298  23.133   2.300  10.549
36936W        W 5299  20.245   4.424   4.764
36937W        W 5300   2.437  38.822   2.860
36938W        W 5301   0.482  30.135  14.830
36939W        W 5302  22.125   1.861  12.934
36940W        W 5303   6.289   8.788   5.197
36941W        W 5304  21.668  29.990  10.984
36942W        W 5305  33.042  38.912   2.330
36943W        W 5306  13.189  42.506  14.985
36944W        W 5307   9.160  28.988  14.028
36945W        W 5308  22.181   2.835   4.258
36946W        W 5309  21.705  27.568   0.892
36947W        W 5310  44.433   2.859   4.119
36948W        W 5311  41.497  42.798  13.892
36949W        W 5312  25.208  39.421  13.816
36950W        W 5313  25.635  29.507   0.734
36951W        W 5314  28.530   1.332   4.811
36952W        W 5315  24.017  43.008   1.908
36953W        W 5316  27.957   7.816  10.035
36954W        W 5317  11.838  35.983   3.822
36955W        W 5318  15.788   1.970  10.407
36956W        W 5319  34.042  24.574   0.774
36957W        W 5320  44.373  40.961  13.880
36958W        W 5321  23.204  10.374  13.024
36959W        W 5322  32.426  25.655   1.813
36960W        W 5323  16.641  30.011   3.750
36961W        W 5324   7.727   2.845   0.339
36962W        W 5325  14.161  20.101   1.421
36963W        W 5326  36.384  23.629   1.821
36964W        W 5327   6.313  16.267  12.951
36965W        W 5328  17.697  43.413   9.496
36966W        W 5329  34.029  18.137  14.312
36967W        W 5330   1.764  38.868   2.727
36968W        W 5331   8.739  17.205   2.808
36969W        W 5332  17.168  42.291  12.402
36970W        W 5333  17.234  17.645   1.777
36971W        W 5334   6.822  25.520   4.833
36972W        W 5335  33.928   6.718  13.986
36973W        W 5336  42.915   2.898  11.531
36974W        W 5337  43.473  39.010  11.896
36975W        W 5338  34.044  15.780  14.386
36976W        W 5339   3.366  25.621  11.456
36977W        W 5340  30.028  44.989   4.274
36978W        W 5341   3.722  23.525   4.750
36979W        W 5342  13.789  40.475  11.419
36980W        W 5343  16.176  29.645   4.816
36981W        W 5344  10.245  38.401   4.174
36982W        W 5345   1.358   5.921  12.827
36983W        W 5346   2.852  28.113  11.934
36984W        W 5347   3.895  39.939   4.215
36985W        W 5348  14.741  21.537  12.572
36986W        W 5349  20.248  31.648  14.960
36987W        W 5350  22.618  11.724   4.242
36988W        W 5351  24.644   0.746   0.306
36989W        W 5352  31.951  10.266  14.399
36990W        W 5353  43.404   3.859  14.767
36991W        W 5354   2.901  32.092  14.357
36992W        W 5355  44.492  23.643   3.214
36993W        W 5356  20.763  11.810  14.942
36994W        W 5357  12.175  23.525   0.396
36995W        W 5358  11.294  27.133   1.392
36996W        W 5359  25.512  32.565  13.520
36997W        W 5360  32.611  44.925  11.437
36998W        W 5361  43.509  27.521  11.485
36999W        W 5362  38.458  43.009  13.454
37000W        W 5363  17.231  25.141   3.756
37001W        W 5364  28.617  14.133   1.882
37002W        W 5365   1.346  44.488   2.671
37003W        W 5366   4.931  12.336   1.367
37004W        W 5367   0.461  34.402  13.944
37005W        W 5368  11.835  32.108   1.293
37006W        W 5369  15.319  10.750   1.347
37007W        W 5370  27.064  44.385  11.072
37008W        W 5371  13.316  34.996  10.889
37009W        W 5372  20.602  42.504  11.089
37010W        W 5373  20.095  32.508  13.433
37011W        W 5374  35.053  31.621   2.877
37012W        W 5375   3.733  39.905   0.763
37013W        W 5376  41.945  29.470  14.934
37014W        W 5377   5.697  13.152   0.423
37015W        W 5378  40.342   0.826  11.031
37016W        W 5379   0.449  42.339   2.891
37017W        W 5380  13.832  31.064   0.285
37018W        W 5381  38.860  31.046  12.496
37019W        W 5382  37.522   7.843   5.267
37020W        W 5383  36.043  20.647   3.630
37021W        W 5384  16.103  27.609   4.618
37022W        W 5385  36.557  26.480  14.850
37023W        W 5386   7.306   1.852  14.818
37024W        W 5387  30.525  10.375   0.820
37025W        W 5388  27.984   4.273  12.933
37026W        W 5389  27.666  40.522   3.373
37027W        W 5390   7.246  40.975   0.913
37028W        W 5391  11.741  11.674  13.318
37029W        W 5392  17.085  30.644   3.722
37030W        W 5393  43.276  40.957   1.344
37031W        W 5394  32.569   8.697  12.515
37032W        W 5395  34.921  36.872  12.008
37033W        W 5396   2.264   1.973  13.346
37034W        W 5397  41.812  15.788  10.490
37035W        W 5398  27.591  33.402  10.441
37036W        W 5399  42.373  23.602  10.530
37037W        W 5400  11.737  22.646   1.857
37038W        W 5401  42.283  18.788   3.153
37039W        W 5402  40.375  16.657   4.187
37040W        W 5403  20.563  41.938   0.845
37041W        W 5404   1.397  28.517   4.180
37042W        W 5405   2.449  39.821  14.425
37043W        W 5406   2.851  37.498  13.410
37044W        W 5407  31.998  22.533  13.851
37045W        W 5408  36.354  26.598  13.827
37046W        W 5409  27.629  40.948   1.353
37047W        W 5410  31.452  13.720   3.692
37048W        W 5411  29.473  13.115  13.489
37049W        W 5412  35.449   2.313  12.942
37050W        W 5413  11.720  40.003   3.352
37051W        W 5414  23.660  24.540  12.484
37052W        W 5415  36.387  33.500  14.833
37053W        W 5416  37.833  21.579  11.527
37054W        W 5417  20.092  30.049  12.992
37055W        W 5418   4.294   3.358   1.450
37056W        W 5419  42.485   6.329   4.149
37057W        W 5420   3.350  19.064   4.796
37058W        W 5421  15.326  42.889   3.216
37059W        W 5422  22.593  38.427  14.803
37060W        W 5423  34.396  42.519   2.196
37061W        W 5424  13.701   5.342  13.868
37062W        W 5425  34.119  10.834  11.046
37063W        W 5426  12.813   0.770   3.215
37064W        W 5427  33.585  40.903  14.945
37065W        W 5428  36.084  13.144  11.861
37066W        W 5429  21.516   6.824  13.032
37067W        W 5430  40.906  26.096   3.373
37068W        W 5431  41.011  28.973  12.846
37069W        W 5432  18.115  42.930  14.906
37070W        W 5433  37.400  15.281   1.785
37071W        W 5434  43.811  19.047  13.905
37072W        W 5435  28.995  24.649  14.794
37073W        W 5436   2.956  35.413   4.195
37074W        W 5437  37.086  21.566  13.507
37075W        W 5438   5.839  42.445   3.345
37076W        W 5439  14.095  24.705   1.845
37077W        W 5440  28.046  40.530   4.142
37078W        W 5441  41.017  38.836   4.194
37079W        W 5442   2.392  38.822  12.561
37080W        W 5443  31.620  38.859  13.897
37081W        W 5444   0.841  24.683  11.908
37082W        W 5445  28.622   8.655   1.252
37083W        W 5446   9.745  12.232   1.789
37084W        W 5447  32.056   1.970  10.037
37085W        W 5448  28.616   6.806   2.239
37086W        W 5449  19.650  10.824  13.821
37087W        W 5450  42.896  42.970  11.537
37088W        W 5451  24.076  34.015   0.911
37089W        W 5452  39.808  19.213   2.212
37090W        W 5453  18.258  22.143  13.954
37091W        W 5454  44.363  15.181  13.992
37092W        W 5455  32.441   5.239   1.222
37093W        W 5456   8.221  16.147  13.429
37094W        W 5457   5.896  28.598  13.882
37095W        W 5458  29.561  18.584  11.069
37096W        W 5459  32.518  27.037  13.351
37097W        W 5460  27.026   4.403   2.686
37098W        W 5461  22.652  30.583   1.897
37099W        W 5462  31.564  43.491  11.979
37100W        W 5463  14.658  38.452  10.485
37101W        W 5464  15.210  10.249   1.396
37102W        W 5465  20.622  21.595   4.330
37103W        W 5466  30.099  30.125  14.502
37104W        W 5467  10.184  35.082   4.181
37105W        W 5468  29.985  14.603   2.858
37106W        W 5469  44.997  18.587   4.274
37107W        W 5470  35.922  26.096  12.956
37108W        W 5471  15.183  33.094  11.037
37109W        W 5472  25.066  44.399  14.284
37110W        W 5473   1.449  42.347  11.519
37111W        W 5474   1.258  11.758  13.808
37112W        W 5475  41.461  32.918  13.467
37113W        W 5476  21.024   0.980   1.747
37114W        W 5477  34.077  23.635   4.697
37115W        W 5478  12.639  14.621  11.560
37116W        W 5479  34.922  39.426  13.836
37117W        W 5480  44.833  16.092  14.950
37118W        W 5481  26.979  27.196   1.884
37119W        W 5482  34.104   8.801   1.417
37120W        W 5483  29.603  38.829  12.453
37121W        W 5484  14.099   9.773   1.733
37122W        W 5485   4.346  27.118   3.196
37123W        W 5486  43.489   8.362   0.785
37124W        W 5487  15.324   1.829   4.612
37125W        W 5488   1.741  36.862  13.365
37126W        W 5489  21.020  29.965   1.895
37127W        W 5490  26.626  38.979  13.024
37128W        W 5491  35.086  14.116  12.010
37129W        W 5492   3.408  22.099  11.585
37130W        W 5493  34.431  40.979  12.900
37131W        W 5494  38.342  25.014   3.842
37132W        W 5495   9.753  17.061   3.377
37133W        W 5496  28.589   1.389   2.198
37134W        W 5497  16.703  33.510   1.390
37135W        W 5498  28.629  13.134  10.962
37136W        W 5499  42.489  39.967  12.505
37137W        W 5500  17.099   1.458  14.940
37138W        W 5501   7.338  18.252   4.636
37139W        W 5502  24.091  24.543  14.760
37140W        W 5503  40.389   3.736  13.477
37141W        W 5504   3.276  19.276   0.792
37142W        W 5505  22.640   9.721   3.223
37143W        W 5506  26.200  22.078  11.890
37144W        W 5507   1.751  10.286   4.350
37145W        W 5508   7.700  15.113  12.988
37146W        W 5509   4.747  13.655   0.373
37147W        W 5510  12.329  12.342   1.294
37148W        W 5511  28.084  27.467   4.144
37149W        W 5512  35.997   6.764   1.364
37150W        W 5513  42.866  14.699  13.890
37151W        W 5514  40.929  44.753  13.881
37152W        W 5515  33.471  41.025  14.010
37153W        W 5516   0.474  23.604  13.063
37154W        W 5517  42.464  30.017  13.011
37155W        W 5518   8.254  25.083  12.470
37156W        W 5519  29.460  11.636   1.283
37157W        W 5520  43.953  13.747   1.741
37158W        W 5521  27.676  29.164   0.885
37159W        W 5522   4.740  34.433   1.262
37160W        W 5523  31.143  33.063  14.285
37161W        W 5524  31.003  26.098   4.734
37162W        W 5525  33.602   6.284   1.703
37163W        W 5526   9.791  35.545  12.377
37164W        W 5527  38.463  32.488   2.679
37165W        W 5528  41.903  24.027  14.823
37166W        W 5529  23.550   3.258  11.120
37167W        W 5530  44.447  34.592   1.217
37168W        W 5531  29.603  27.571  14.974
37169W        W 5532  26.523   4.723   4.200
37170W        W 5533   0.379  14.094   0.325
37171W        W 5534  20.743  36.878  11.057
37172W        W 5535  25.513  41.387   1.846
37173W        W 5536  23.013   2.418  11.948
37174W        W 5537  25.060  33.587   2.323
37175W        W 5538  32.049  34.876   0.830
37176W        W 5539  16.141  11.237   0.792
37177W        W 5540  18.735  32.091  10.556
37178W        W 5541   7.334  41.909  13.491
37179W        W 5542   1.474  13.198  11.125
37180W        W 5543   5.721  18.586   0.949
37181W        W 5544  36.013  21.113   5.120
37182W        W 5545  25.205   1.771  11.050
37183W        W 5546  29.466  27.046  12.009
37184W        W 5547  17.607  43.014   4.299
37185W        W 5548  43.016  25.711   2.736
37186W        W 5549  21.638  34.092  14.280
37187W        W 5550  22.670  42.496  13.448
37188W        W 5551  19.126   4.233   0.260
37189W        W 5552  20.532   7.250   2.832
37190W        W 5553  32.621  19.162  13.007
37191W        W 5554  36.854  22.034   2.680
37192W        W 5555  15.598  25.540  11.912
37193W        W 5556   0.409  41.296   2.776
37194W        W 5557   1.465  41.919  11.023
37195W        W 5558   2.911  11.701   2.329
37196W        W 5559   1.266   9.789   0.436
37197W        W 5560  12.200   3.343   1.430
37198W        W 5561  26.482  32.117   4.243
37199W        W 5562  39.947  19.648   3.332
37200W        W 5563   9.209  43.015   3.729
37201W        W 5564  18.545  22.686  14.965
37202W        W 5565  40.001  21.724  14.887
37203W        W 5566  32.392  40.539  11.062
37204W        W 5567  28.961  13.733  12.838
37205W        W 5568  11.843  32.113  10.888
37206W        W 5569  16.309  25.064  11.499
37207W        W 5570   9.207  28.167  11.937
37208W        W 5571  43.304  14.336   4.315
37209W        W 5572   3.796  36.941   1.268
37210W        W 5573  28.480  17.199   2.279
37211W        W 5574  19.633  35.367  14.945
37212W        W 5575  23.604  26.600   0.747
37213W        W 5576  22.242  41.471   1.252
37214W        W 5577   3.820   1.924   1.228
37215W        W 5578  40.418  41.885  13.923
37216W        W 5579  39.530  39.898   3.310
37217W        W 5580  44.276  24.689   4.196
37218W        W 5581  38.405  20.233   1.824
37219W        W 5582   4.302  27.056  10.443
37220W        W 5583   4.270   8.217  10.913
37221W        W 5584  23.521  24.070  10.900
37222W        W 5585  16.688  11.264   2.284
37223W        W 5586  25.214  24.192  12.405
37224W        W 5587  34.963  30.563  11.610
37225W        W 5588  18.670   9.344   1.320
37226W        W 5589  16.264  21.249  12.078
37227W        W 5590  15.135  18.759  10.049
37228W        W 5591  19.248   2.436  14.457
37229W        W 5592   7.802  39.814   0.953
37230W        W 5593  34.922  26.188   0.897
37231W        W 5594  10.778   0.262  10.619
37232W        W 5595  40.422  36.055   4.148
37233W        W 5596   4.848  26.664  10.601
37234W        W 5597  15.263  43.429   0.933
37235W        W 5598  23.668  23.059   4.235
37236W        W 5599  29.584  21.673   1.883
37237W        W 5600  43.450   0.912  13.868
37238W        W 5601  18.603  36.450  14.468
37239W        W 5602  25.531  17.734   2.885
37240W        W 5603  11.762  29.088  13.052
37241W        W 5604  15.647  37.078  13.950
37242W        W 5605  31.457  20.635   3.677
37243W        W 5606  15.654   4.354  10.596
37244W        W 5607  20.573   6.801  12.958
37245W        W 5608  24.975  23.170   1.884
37246W        W 5609  11.332  41.876  10.406
37247W        W 5610  30.551  38.516  13.926
37248W        W 5611   2.466  40.346   2.763
37249W        W 5612  10.234  39.425  13.535
37250W        W 5613  10.144  24.032   2.211
37251W        W 5614  11.642  34.044   0.407
37252W        W 5615  34.115  40.858   4.317
37253W        W 5616  31.608   5.806   0.927
37254W        W 5617  20.581  40.834   4.752
37255W        W 5618  21.148  24.046   2.699
37256W        W 5619  12.718  25.122   4.284
37257W        W 5620  30.530  41.453   2.903
37258W        W 5621  23.157  15.610  14.389
37259W        W 5622   5.215  16.080   0.312
37260W        W 5623  29.033   7.675  10.458
37261W        W 5624  38.471  34.577  13.548
37262W        W 5625  41.354   4.345   4.323
37263W        W 5626  44.454   0.435   3.376
37264W        W 5627   8.831  10.383  12.566
37265W        W 5628  27.971   1.913  12.547
37266W        W 5629   1.779  16.646   1.438
37267W        W 5630  35.076  15.767   2.377
37268W        W 5631  37.854  31.097  13.495
37269W        W 5632  28.046   2.471  12.939
37270W        W 5633  32.458   6.686  10.515
37271W        W 5634   2.938  29.603  11.094
37272W        W 5635  33.988  26.059   1.795
37273W        W 5636   6.811  38.411   0.736
37274W        W 5637  26.605   9.300   2.419
37275W        W 5638  43.903  36.554  10.407
37276W        W 5639  34.385   2.782   2.876
37277W        W 5640  13.740  27.124   0.784
37278W        W 5641  17.078   0.301   1.411
37279W        W 5642  21.126  29.528  12.008
37280W        W 5643  39.460  22.595  13.386
37281W        W 5644  33.900   1.276   0.856
37282W        W 5645  41.368  19.770   3.672
37283W        W 5646  38.075  34.970   4.255
37284W        W 5647  43.469   0.921  12.481
37285W        W 5648  23.516  24.500   1.766
37286W        W 5649  41.321   2.388  10.943
37287W        W 5650  31.609   0.373   2.190
37288W        W 5651  10.717  35.532  11.075
37289W        W 5652  26.471   8.744   5.096
37290W        W 5653   9.784   4.771   4.353
37291W        W 5654  10.139  16.573   0.341
37292W        W 5655   8.264  22.150  11.590
37293W        W 5656   8.704  39.063  10.497
37294W        W 5657   6.748  42.370  12.969
37295W        W 5658   9.268   5.698   4.137
37296W        W 5659  21.108  39.038  13.978
37297W        W 5660  10.177  44.382   2.718
37298W        W 5661  24.590  22.582  13.344
37299W        W 5662   8.212  39.397  14.374
37300W        W 5663  36.395   1.330   3.353
37301W        W 5664  39.002  12.134  11.006
37302W        W 5665  27.687   8.309  10.972
37303W        W 5666  25.520  39.921  13.451
37304W        W 5667   4.934  37.031  10.594
37305W        W 5668  43.298  30.017   3.369
37306W        W 5669  31.541  18.762   2.281
37307W        W 5670  40.519  30.517   4.284
37308W        W 5671  42.322  41.870  12.348
37309W        W 5672  44.301   5.869  14.929
37310W        W 5673   5.231   2.759   3.327
37311W        W 5674   4.423  30.593   1.833
37312W        W 5675   3.322  44.777   4.670
37313W        W 5676  26.562  43.895  10.965
37314W        W 5677  24.626  42.427  14.343
37315W        W 5678   0.840  22.609   3.165
37316W        W 5679  31.451  35.518  11.065
37317W        W 5680  16.221  28.064   0.883
37318W        W 5681  28.004  27.142  12.041
37319W        W 5682  39.525  30.947  13.839
37320W        W 5683  31.556  33.960  14.420
37321W        W 5684  41.846   4.426  11.864
37322W        W 5685  23.665  33.103  13.885
37323W        W 5686   2.948   9.809  14.309
37324W        W 5687   3.452  11.339  14.944
37325W        W 5688   8.348   8.214   2.293
37326W        W 5689  24.135  20.031   3.710
37327W        W 5690  23.550  43.405   0.750
37328W        W 5691  11.166  34.544  10.936
37329W        W 5692  15.247  14.687   2.254
37330W        W 5693  32.043  25.664  14.980
37331W        W 5694  33.518  14.111   2.309
37332W        W 5695   7.856  40.822   1.895
37333W        W 5696  10.780  41.465   0.376
37334W        W 5697  42.865  21.650   4.329
37335W        W 5698  35.071  30.608   3.293
37336W        W 5699   1.971  11.248   0.381
37337W        W 5700   3.750  38.941   0.332
37338W        W 5701   6.921  36.963  14.896
37339W        W 5702  22.591  18.059  14.778
37340W        W 5703  11.725   5.766   1.820
37341W        W 5704  29.060  15.160  13.378
37342W        W 5705  27.999  34.921   0.415
37343W        W 5706  30.089  36.095   4.155
37344W        W 5707   1.261  30.456   0.837
37345W        W 5708  42.965  44.324  11.415
37346W        W 5709  38.334   4.409  11.388
37347W        W 5710  40.879  27.086   0.295
37348W        W 5711  14.169  16.647   1.699
37349W        W 5712   5.736  11.245   1.728
37350W        W 5713  26.655   7.205   3.743
37351W        W 5714  33.512  34.071   1.416
37352W        W 5715  39.047  18.115  13.345
37353W        W 5716  20.752   7.404  12.929
37354W        W 5717   4.805   0.262   0.735
37355W        W 5718   2.837   8.310  11.946
37356W        W 5719   8.196  23.166   0.290
37357W        W 5720  20.179  15.734   1.806
37358W        W 5721  32.924  16.094  14.423
37359W        W 5722  35.079  41.845  13.420
37360W        W 5723  17.644  35.369   3.840
37361W        W 5724  14.220   0.306  14.997
37362W        W 5725  10.708   2.861  13.973
37363W        W 5726  14.281  35.915  14.430
37364W        W 5727  24.571  35.973   3.794
37365W        W 5728   1.749   6.814   4.667
37366W        W 5729  37.047  43.474  14.771
37367W        W 5730  30.475   4.237  13.530
37368W        W 5731  29.066  33.622   2.395
37369W        W 5732  14.279   7.741  13.450
37370W        W 5733  40.919  41.321   3.716
37371W        W 5734  14.790  14.816  14.434
37372W        W 5735  17.162  36.852  14.969
37373W        W 5736   8.378  40.968  10.425
37374W        W 5737  36.348  44.402   1.835
37375W        W 5738  16.688  29.604  14.278
37376W        W 5739  36.473  35.076  10.994
37377W        W 5740  38.912  30.001  14.008
37378W        W 5741   4.270  31.982   2.414
37379W        W 5742   8.188  22.066  11.109
37380W        W 5743  43.977  19.099  12.362
37381W        W 5744  31.545  36.561   0.895
37382W        W 5745   8.793   8.725   4.772
37383W        W 5746  35.561  22.015   1.308
37384W        W 5747   4.371  16.317   2.211
37385W        W 5748  44.411  23.206   0.474
37386W        W 5749  11.858  24.589   1.886
37387W        W 5750  24.647  42.378  13.437
37388W        W 5751  24.075  44.293  14.285
37389W        W 5752   0.249  31.934  11.943
37390W        W 5753   2.470  15.604   2.402
37391W        W 5754  42.485  35.905  10.090
37392W        W 5755  27.478  32.625   0.823
37393W        W 5756  22.672  35.854  11.604
37394W        W 5757   3.412  29.139   4.146
37395W        W 5758  43.824  43.506  11.023
37396W        W 5759  13.320   9.774  12.493
37397W        W 5760  41.948   6.321   5.113
37398W        W 5761  28.637   2.802   4.200
37399W        W 5762  20.157  38.489   0.458
37400W        W 5763  37.953   0.451  11.108
37401W        W 5764  24.041  40.804  10.908
37402W        W 5765  15.788  24.661   0.335
37403W        W 5766  23.650  23.607  14.014
37404W        W 5767  22.520  39.931   3.750
37405W        W 5768  36.963  42.969  12.089
37406W        W 5769  24.528  43.809   2.888
37407W        W 5770  16.148  20.078   1.313
37408W        W 5771  38.054  10.354   3.865
37409W        W 5772  30.552   1.422  12.454
37410W        W 5773  25.482  24.063  13.918
37411W        W 5774  44.789  11.257   2.859
37412W        W 5775  44.915  28.637   2.237
37413W        W 5776  38.360  20.076  11.484
37414W        W 5777  37.554  37.993   2.726
37415W        W 5778  23.600  37.892   2.665
37416W        W 5779   7.417  20.657  13.410
37417W        W 5780  21.161  14.335   2.810
37418W        W 5781  42.410  44.449   1.322
37419W        W 5782  21.717  10.159  11.097
37420W        W 5783   6.724  35.893   0.962
37421W        W 5784   3.217  33.626   4.168
37422W        W 5785   0.315  13.110  14.925
37423W        W 5786  23.097   9.285   3.812
37424W        W 5787  27.650  22.194   0.883
37425W        W 5788   7.716  33.068   1.742
37426W        W 5789  10.637  38.472  11.956
37427W        W 5790  23.625   2.294   4.782
37428W        W 5791   6.682  32.063  14.925
37429W        W 5792   2.334   1.851   1.880
37430W        W 5793  34.898   0.970  14.907
37431W        W 5794  27.035  15.623   1.744
37432W        W 5795  32.033  36.917  14.005
37433W        W 5796  40.318  44.463  13.813
37434W        W 5797  13.845  29.140   0.307
37435W        W 5798  31.542   8.720  13.378
37436W        W 5799   6.264  19.121  10.966
37437W        W 5800  44.324  34.426  13.370
37438W        W 5801  17.147  37.078  12.580
37439W        W 5802  22.561  23.236  14.865
37440W        W 5803  41.805   5.862  10.896
37441W        W 5804   9.682  37.071  11.503
37442W        W 5805   6.768  36.887   2.374
37443W        W 5806  43.902  28.573  13.537
37444W        W 5807  32.907  11.692   4.715
37445W        W 5808  13.838  17.633  11.605
37446W        W 5809  43.332  12.757   0.281
37447W        W 5810  22.505  17.725   4.307
37448W        W 5811   6.270  17.291  12.428
37449W        W 5812   5.851  37.467   0.442
37450W        W 5813  36.023  39.881  13.521
37451W        W 5814   7.790  41.903   3.314
37452W        W 5815  12.145  15.201   1.361
37453W        W 5816   6.352  38.568  13.526
37454W        W 5817  12.669  36.563   1.934
37455W        W 5818   2.404  35.557   3.647
37456W        W 5819  36.449  31.450   4.768
37457W        W 5820  43.286  13.828   4.767
37458W        W 5821  17.589   5.235  14.312
37459W        W 5822  40.951  16.664  13.507
37460W        W 5823  36.562   2.833  11.387
37461W        W 5824   2.313  11.273   2.327
37462W        W 5825   6.866  12.230  13.032
37463W        W 5826   5.345  22.007  14.907
37464W        W 5827   3.809  25.529   0.318
37465W        W 5828  12.675  43.917   0.765
37466W        W 5829  26.599  41.902   0.967
37467W        W 5830   4.207  23.632  14.859
37468W        W 5831  23.194  22.677  10.453
37469W        W 5832  23.496  44.291   2.260
37470W        W 5833  37.893  29.544   2.274
37471W        W 5834  16.307  19.277   1.860
37472W        W 5835   5.747  38.408  10.480
37473W        W 5836  31.099  10.251   3.665
37474W        W 5837  22.177  34.102  14.301
37475W        W 5838  31.130  41.442   3.640
37476W        W 5839  39.870  24.194   2.372
37477W        W 5840  10.864  23.680  10.902
37478W        W 5841  30.619  10.219   3.329
37479W        W 5842  36.844   4.736  10.639
37480W        W 5843   7.688  30.601   2.842
37481W        W 5844   1.958  32.548  14.950
37482W        W 5845  43.385  11.700   3.262
37483W        W 5846  19.245  15.617   3.190
37484W        W 5847  26.637  19.106   2.706
37485W        W 5848   7.392  36.425  14.004
37486W        W 5849   3.224   7.352  11.429
37487W        W 5850   4.322  42.461   1.292
37488W        W 5851  29.642   4.280   0.408
37489W        W 5852   7.183  22.042  12.043
37490W        W 5853  32.106  20.743   1.422
37491W        W 5854  44.891  37.087   1.423
37492W        W 5855  12.127   9.717  12.576
37493W        W 5856  19.761  29.152   2.248
37494W        W 5857  16.772  29.966  11.591
37495W        W 5858  23.533  20.738  11.484
37496W        W 5859  41.484   3.773   1.431
37497W        W 5860  26.068  42.962   5.168
37498W        W 5861   5.893  27.661  12.070
37499W        W 5862   0.877  11.833   3.339
37500W        W 5863  11.644   4.447  13.886
37501W        W 5864  10.335  11.339  10.505
37502W        W 5865  32.904   4.764  10.599
37503W        W 5866  26.652  41.905  14.364
37504W        W 5867  34.092   9.732  13.487
37505W        W 5868  16.212  17.169  13.449
37506W        W 5869  41.306  25.040  11.516
37507W        W 5870  15.678   4.783   3.295
37508W        W 5871  31.504  18.584   3.763
37509W        W 5872  11.296  28.001  12.898
37510W        W 5873   6.829  13.778  10.904
37511W        W 5874  18.118  17.771  13.890
37512W        W 5875   3.827  40.397  10.449
37513W        W 5876  43.505  40.897   4.290
37514W        W 5877  25.185   9.728   2.306
37515W        W 5878  21.022  33.507  12.066
37516W        W 5879  38.031  29.609  13.398
37517W        W 5880  10.639   0.988   3.149
37518W        W 5881   2.753  27.063  12.538
37519W        W 5882  34.512  19.645   1.767
37520W        W 5883  30.489  42.998  11.084
37521W        W 5884  30.974  10.264   1.837
37522W        W 5885  30.907   8.726  14.394
37523W        W 5886  30.051  28.084   3.776
37524W        W 5887  42.441  21.153  13.505
37525W        W 5888  28.511   3.405  12.365
37526W        W 5889   7.226  39.429  12.885
37527W        W 5890  41.981  35.006  11.593
37528W        W 5891  39.474  35.003   4.814
37529W        W 5892  40.918   8.395  11.437
37530W        W 5893   2.297  42.825  13.336
37531W        W 5894  34.864  14.102   3.829
37532W        W 5895  39.338  38.005  10.454
37533W        W 5896  40.326   2.384  14.026
37534W        W 5897  26.514  28.970  13.483
37535W        W 5898   2.393  38.546   0.927
37536W        W 5899  42.944  13.783   2.743
37537W        W 5900  29.556  36.353   1.445
37538W        W 5901  25.988   0.460  11.939
37539W        W 5902  11.274  22.180  10.514
37540W        W 5903  10.308   4.392   4.129
37541W        W 5904  18.723  24.202  10.432
37542W        W 5905  38.850  13.113   4.664
37543W        W 5906  18.555  36.950  10.922
37544W        W 5907  30.644  23.103   4.182
37545W        W 5908  31.139  41.964   2.694
37546W        W 5909   8.790  29.922  14.820
37547W        W 5910  18.185  22.683   4.756
37548W        W 5911  32.071  33.126   0.773
37549W        W 5912  28.994  18.736   1.242
37550W        W 5913  36.093  31.405   1.873
37551W        W 5914  42.891   5.923  11.491
37552W        W 5915   0.766  30.531  14.828
37553W        W 5916  18.097  35.553  12.385
37554W        W 5917   9.347  42.965   5.122
37555W        W 5918  36.466  38.888   3.723
37556W        W 5919   8.247   0.948  10.926
37557W        W 5920   9.208  39.832   1.301
37558W        W 5921  16.647  18.758   2.261
37559W        W 5922  40.517  20.523   1.704
37560W        W 5923  21.592  10.343  11.554
37561W        W 5924  14.706  18.578   0.842
37562W        W 5925  27.623  30.415   0.945
37563W        W 5926   0.281  36.928   9.931
37564W        W 5927  18.209  40.531   1.816
37565W        W 5928  38.336  43.347   3.742
37566W        W 5929  28.001  17.600  13.874
37567W        W 5930  27.011  29.648   3.262
37568W        W 5931  43.945  30.943   2.370
37569W        W 5932  22.154  21.549   2.719
37570W        W 5933  24.080  12.627  11.456
37571W        W 5934  36.561  21.151  13.349
37572W        W 5935  13.267  18.754  11.446
37573W        W 5936  17.612  14.173   3.341
37574W        W 5937  36.867   1.778  13.500
37575W        W 5938  12.775   3.734  10.013
37576W        W 5939  10.729   6.197  13.968
37577W        W 5940  18.250  38.980   3.296
37578W        W 5941  26.582   3.278   2.815
37579W        W 5942   3.804  23.099  12.407
37580W        W 5943  13.217  31.463  11.445
37581W        W 5944   2.899  10.226  13.325
37582W        W 5945  36.435  32.039   0.373
37583W        W 5946   1.936   4.358   2.303
37584W        W 5947  12.805  16.669   4.675
37585W        W 5948   4.762  11.796   0.321
37586W        W 5949  10.708  25.998  13.360
37587W        W 5950  10.202  17.124   3.229
37588W        W 5951  11.253   8.288   0.255
37589W        W 5952   5.720  22.700   1.776
37590W        W 5953  41.801  42.928  10.943
37591W        W 5954  23.727  38.512  10.418
37592W        W 5955  37.411  31.074  14.979
37593W        W 5956  24.696  29.114   2.244
37594W        W 5957  24.216  35.090   4.301
37595W        W 5958  36.423  29.643  12.067
37596W        W 5959  13.689  40.931  13.411
37597W        W 5960   8.354  36.348  11.562
37598W        W 5961   7.812  44.816   2.692
37599W        W 5962  16.732  11.322  13.982
37600W        W 5963  38.481   8.872   2.300
37601W        W 5964   6.314  42.359  12.935
37602W        W 5965  38.985  19.745  13.051
37603W        W 5966  20.666  12.835  12.870
37604W        W 5967  13.263  30.068  10.580
37605W        W 5968   2.346  18.757  11.473
37606W        W 5969   2.861  24.169  11.447
37607W        W 5970  29.459  33.032   4.600
37608W        W 5971  38.501  27.080  13.825
37609W        W 5972   1.897  13.124  11.051
37610W        W 5973  12.752   5.408  13.012
37611W        W 5974  34.941  22.555  13.310
37612W        W 5975   2.900   0.371   4.775
37613W        W 5976  17.204  40.477  14.328
37614W        W 5977   5.271  38.894   0.785
37615W        W 5978  36.430  17.727   0.930
37616W        W 5979  33.437  41.427   1.803
37617W        W 5980  17.120  17.757  14.371
37618W        W 5981  27.451  10.346   0.905
37619W        W 5982   2.954  14.740   1.213
37620W        W 5983   4.247  26.599  14.783
37621W        W 5984  21.137  43.359   1.840
37622W        W 5985  17.220  12.174   4.700
37623W        W 5986   1.301  12.823   1.806
37624W        W 5987   6.676  39.927   3.633
37625W        W 5988  43.810   1.795  12.907
37626W        W 5989   3.450  39.948  14.965
37627W        W 5990   8.882  24.623  12.993
37628W        W 5991  43.374   5.899  12.038
37629W        W 5992  15.283   7.195  11.863
37630W        W 5993   3.389   1.763   1.882
37631W        W 5994  35.864  42.455  11.090
37632W        W 5995  44.798  18.074  14.455
37633W        W 5996   7.321  11.742  11.080
37634W        W 5997   9.178  43.463  12.830
37635W        W 5998   0.369   0.382   0.349
37636W        W 5999  36.074  42.918   0.369
37637W        W 6000  21.023  11.210  13.375
37638W        W 6001  31.436  18.737   1.797
37639W        W 6002  22.149  28.002  14.363
37640W        W 6003  10.867  38.031   1.400
37641W        W 6004   9.264  21.212  13.809
37642W        W 6005  17.712  36.369   4.254
37643W        W 6006  17.769  13.650   4.750
37644W        W 6007  23.105   8.299   4.609
37645W        W 6008  36.444  11.840   0.728
37646W        W 6009  16.170  42.891  12.580
37647W        W 6010  28.653   5.747   0.483
37648W        W 6011  34.560  19.168   2.340
37649W        W 6012   5.687  18.652  11.015
37650W        W 6013  22.677  35.946   4.345
37651W        W 6014  25.043  25.200  14.930
37652W        W 6015  37.438  30.615   1.341
37653W        W 6016   8.376  16.809  11.401
37654W        W 6017   6.245  36.348   2.703
37655W        W 6018  12.747   2.444  10.421
37656W        W 6019  23.727  32.983   3.300
37657W        W 6020  10.864   7.814   4.775
37658W        W 6021  44.488   9.349  11.418
37659W        W 6022  18.585  12.709  11.009
37660W        W 6023  40.494  41.386  11.534
37661W        W 6024  37.389  32.618  12.937
37662W        W 6025   9.297  38.571   3.851
37663W        W 6026  39.881  25.090   2.763
37664W        W 6027  23.672   3.292  12.564
37665W        W 6028  26.105  44.991  10.510
37666W        W 6029   1.971   0.988   9.567
37667W        W 6030  37.840   9.741   9.674
37668W        W 6031  33.557   6.362  14.966
37669W        W 6032  14.237  16.187   5.090
37670W        W 6033  11.355  17.743   1.807
37671W        W 6034   0.344  26.671   0.867
37672W        W 6035  17.075  24.527  13.474
37673W        W 6036  28.457  44.437   2.743
37674W        W 6037   4.811  16.187  11.608
37675W        W 6038  15.241   6.314   0.864
37676W        W 6039  34.388  18.101  11.942
37677W        W 6040  43.914   5.235   4.598
37678W        W 6041   9.263  44.861  13.368
37679W        W 6042  27.615  40.872  14.821
37680W        W 6043  18.104  27.124  10.534
37681W        W 6044  12.838  39.877   0.428
37682W        W 6045  17.163  25.095   2.855
37683W        W 6046  20.137  31.950  13.344
37684W        W 6047  31.509  17.580  13.830
37685W        W 6048  37.410   9.380   4.709
37686W        W 6049   0.903  32.422   1.784
37687W        W 6050   3.866  42.480   2.344
37688W        W 6051  34.379   9.695  14.346
37689W        W 6052  18.229   8.376   4.180
37690W        W 6053  21.175  29.454   1.322
37691W        W 6054  25.034  39.462  13.398
37692W        W 6055  37.468   2.387  11.943
37693W        W 6056  31.598   6.892   1.833
37694W        W 6057  16.154  39.416  10.498
37695W        W 6058  23.045  21.021   2.262
37696W        W 6059   6.879  33.957  11.036
37697W        W 6060   7.713  43.306   1.346
37698W        W 6061  33.047  11.335  12.960
37699W        W 6062  26.463  22.161   9.982
37700W        W 6063  19.626   2.311   5.314
37701W        W 6064  23.681  17.704   1.244
37702W        W 6065  41.520  21.045   1.695
37703W        W 6066  29.565  21.140   0.338
37704W        W 6067  18.147  17.683   4.342
37705W        W 6068  20.105  13.235   3.160
37706W        W 6069  27.017  10.158  13.422
37707W        W 6070   1.325  18.734   4.183
37708W        W 6071   1.402  14.673   1.883
37709W        W 6072  20.088  39.863  11.121
37710W        W 6073   5.765  32.994   4.223
37711W        W 6074  16.811   6.254  13.364
37712W        W 6075  20.532  14.199   2.209
37713W        W 6076  14.310  34.929   0.923
37714W        W 6077  39.041   3.447  11.959
37715W        W 6078  19.649  28.073  11.378
37716W        W 6079  16.812  22.226  11.877
37717W        W 6080  34.427  36.021   4.701
37718W        W 6081  15.084  14.758   0.903
37719W        W 6082  30.067  38.882   4.152
37720W        W 6083   6.413  41.311  12.997
37721W        W 6084   5.751   5.746   1.698
37722W        W 6085  41.309   2.795  10.568
37723W        W 6086   3.779  21.725   3.668
37724W        W 6087  32.577   0.924  13.897
37725W        W 6088   4.276  20.699  11.996
37726W        W 6089  11.776  14.182  12.555
37727W        W 6090  20.637   5.810   3.189
37728W        W 6091  20.228  22.611  12.843
37729W        W 6092  29.619  38.511  12.036
37730W        W 6093   0.962  34.870   1.909
37731W        W 6094  12.348  35.921  11.914
37732W        W 6095   1.281  28.937  10.963
37733W        W 6096  32.523  28.548   5.802
37734W        W 6097  19.110  32.050  13.338
37735W        W 6098  27.670  32.956   3.351
37736W        W 6099  38.371   8.249  13.798
37737W        W 6100  19.636  14.767  12.038
37738W        W 6101  28.933  26.698   0.361
37739W        W 6102  41.918  33.429  11.857
37740W        W 6103  28.967  18.559   2.823
37741W        W 6104  42.941  43.982   4.327
37742W        W 6105  22.546  11.862  12.540
37743W        W 6106  12.611   8.320  14.375
37744W        W 6107  27.609  11.814   4.625
37745W        W 6108  42.858  23.596   1.362
37746W        W 6109  42.795   0.845  11.518
37747W        W 6110  11.667  39.921   0.476
37748W        W 6111  41.957  31.954   4.648
37749W        W 6112  34.542  30.144  14.469
37750W        W 6113  23.069  43.019  13.325
37751W        W 6114  12.133  19.190   4.834
37752W        W 6115  24.593  28.086  12.549
37753W        W 6116  15.198  39.054   2.400
37754W        W 6117   3.823  18.170   1.379
37755W        W 6118  29.087   4.212   2.263
37756W        W 6119  33.598  24.698   1.806
37757W        W 6120  18.131  29.982   0.751
37758W        W 6121  32.580   8.401  11.524
37759W        W 6122  36.417  13.144   4.834
37760W        W 6123   4.391  25.662   0.260
37761W        W 6124  10.346  21.060  10.453
37762W        W 6125  44.377  17.786  13.947
37763W        W 6126   1.399  13.337  10.472
37764W        W 6127  23.002  14.772   1.374
37765W        W 6128  10.699   4.295   0.922
37766W        W 6129  38.967  42.484   1.424
37767W        W 6130  31.423  22.239  10.457
37768W        W 6131  13.276  13.751  12.438
37769W        W 6132  40.400  25.483  10.999
37770W        W 6133   3.271   1.409   1.343
37771W        W 6134   7.268  35.050  12.530
37772W        W 6135   5.260  29.609   9.936
37773W        W 6136   2.740  43.856  10.567
37774W        W 6137  23.172  31.921  14.409
37775W        W 6138  27.536  29.553   2.269
37776W        W 6139  38.472  38.361   2.784
37777W        W 6140   8.693   4.389  12.344
37778W        W 6141  14.273  12.625  14.278
37779W        W 6142   0.929  13.198   1.343
37780W        W 6143  34.088   0.259  10.627
37781W        W 6144  30.994  34.903  13.411
37782W        W 6145   8.815  21.182  14.008
37783W        W 6146  16.317  36.995  13.503
37784W        W 6147  22.705  36.449  14.017
37785W        W 6148  31.005  41.330   4.694
37786W        W 6149  12.658   3.852   3.718
37787W        W 6150   7.802   8.278   2.746
37788W        W 6151   4.251  10.684  11.484
37789W        W 6152  40.336  40.950   0.783
37790W        W 6153  37.476  14.598   4.134
37791W        W 6154  31.546  22.608   4.170
37792W        W 6155  18.204  37.023   1.375
37793W        W 6156  16.766  33.622   4.652
37794W        W 6157  31.427  14.663   1.856
37795W        W 6158  22.690   1.273   4.202
37796W        W 6159  39.497  19.085  14.790
37797W        W 6160  31.068  14.185  11.873
37798W        W 6161  29.136  41.790   0.267
37799W        W 6162  44.399  36.855   2.761
37800W        W 6163  30.029  34.902  14.936
37801W        W 6164  18.791   5.794  11.411
37802W        W 6165  25.517  12.194  11.120
37803W        W 6166  15.775  41.869  13.805
37804W        W 6167  11.653  44.329  10.952
37805W        W 6168  42.843  38.846   1.919
37806W        W 6169  11.860  19.570   4.783
37807W        W 6170   0.745  21.735  14.889
37808W        W 6171   2.822   4.768  12.921
37809W        W 6172   4.380  17.738  12.505
37810W        W 6173  30.116  16.606   1.876
37811W        W 6174   7.828  26.572   1.808
37812W        W 6175  13.824  27.450   1.893
37813W        W 6176  38.430  11.342   3.297
37814W        W 6177   0.777  18.744   3.797
37815W        W 6178  10.712  43.866   3.637
37816W        W 6179  32.893  24.111   1.746
37817W        W 6180  18.250   3.285  10.984
37818W        W 6181  26.633  28.972  14.934
37819W        W 6182  12.698  25.201   3.639
37820W        W 6183   3.726  19.057   1.791
37821W        W 6184   6.762  38.501  13.447
37822W        W 6185  25.564  12.794   9.976
37823W        W 6186  21.707  34.937   4.719
37824W        W 6187  44.466  13.735   1.760
37825W        W 6188  18.680  18.675   4.275
37826W        W 6189   1.462  15.109   1.237
37827W        W 6190  32.013  13.304  14.890
37828W        W 6191  12.204  16.123   3.209
37829W        W 6192  18.183  21.756  11.997
37830W        W 6193  39.015  27.455   3.308
37831W        W 6194  19.206  32.472   2.702
37832W        W 6195  39.482  37.048  11.527
37833W        W 6196   3.355  11.841   3.801
37834W        W 6197  23.222  23.627  12.860
37835W        W 6198  25.202  33.991  12.973
37836W        W 6199  44.297  40.864   2.188
37837W        W 6200  21.641  14.124   2.749
37838W        W 6201  27.678  14.715  12.020
37839W        W 6202   6.377  37.038  14.480
37840W        W 6203  31.006  41.999   3.223
37841W        W 6204  42.403  15.587  13.044
37842W        W 6205  13.801  26.700   3.307
37843W        W 6206  37.383  14.127   4.817
37844W        W 6207  35.413  24.652  12.901
37845W        W 6208  29.923  33.030   4.321
37846W        W 6209  44.778  41.514  11.525
37847W        W 6210   2.788  29.068   2.733
37848W        W 6211   1.271   0.353   2.297
37849W        W 6212  25.680  17.111   0.739
37850W        W 6213  14.702  36.432   3.212
37851W        W 6214  25.520   1.342   1.930
37852W        W 6215  14.615   6.695   5.793
37853W        W 6216  29.620  44.492  11.887
37854W        W 6217  27.120  17.683  10.453
37855W        W 6218  37.953   6.821  13.323
37856W        W 6219  12.789  26.179  11.076
37857W        W 6220  18.730  21.214  12.925
37858W        W 6221   2.413  10.158   1.240
37859W        W 6222  40.461  32.543   4.293
37860W        W 6223   8.665   3.857   1.901
37861W        W 6224   0.749  28.961   3.362
37862W        W 6225  27.524  22.040  10.608
37863W        W 6226  33.955  28.500  13.935
37864W        W 6227  27.076   5.262  14.839
37865W        W 6228   3.305   8.364  11.117
37866W        W 6229  34.906  17.065   4.347
37867W        W 6230  27.566  38.338  12.363
37868W        W 6231  33.384  38.849  10.085
37869W        W 6232  30.059   3.861   3.275
37870W        W 6233   4.290  16.676  12.991
37871W        W 6234  13.282  39.820   1.261
37872W        W 6235   8.826  37.025   0.893
37873W        W 6236  10.215  13.314   1.927
37874W        W 6237   1.468  31.109   2.212
37875W        W 6238  12.321  10.198   3.312
37876W        W 6239  22.216  38.897  14.926
37877W        W 6240  24.504  35.506  12.496
37878W        W 6241  36.910  28.025  11.962
37879W        W 6242  41.013  23.150   3.749
37880W        W 6243  44.865  27.509  12.013
37881W        W 6244  16.681  18.063  14.801
37882W        W 6245  27.573  34.928   3.336
37883W        W 6246  28.944  10.178  11.446
37884W        W 6247  35.095  16.165  11.613
37885W        W 6248   8.745  44.447   1.818
37886W        W 6249  13.797  36.845  11.889
37887W        W 6250  42.482  18.099   4.160
37888W        W 6251  31.476   2.897   4.238
37889W        W 6252  35.392   9.874   1.888
37890W        W 6253  29.994  39.356  11.929
37891W        W 6254  16.315  18.229  12.914
37892W        W 6255  38.433   9.858  10.966
37893W        W 6256  37.978  24.093  12.550
37894W        W 6257   6.258   2.278  10.562
37895W        W 6258  26.539   0.874   2.269
37896W        W 6259  32.627   7.309  13.485
37897W        W 6260  18.133  32.127   4.685
37898W        W 6261  38.531  15.764   2.812
37899W        W 6262  43.976   8.365  10.969
37900W        W 6263   4.210   8.842   4.756
37901W        W 6264  41.483  27.116  13.331
37902W        W 6265  26.524   6.215  14.912
37903W        W 6266  26.654  20.637  14.422
37904W        W 6267  38.984  33.585  14.349
37905W        W 6268  34.970   8.759   0.409
37906W        W 6269  33.480  31.075  12.849
37907W        W 6270   0.406  13.796  10.900
37908W        W 6271  35.485  31.107  12.870
37909W        W 6272  27.192   7.251   3.861
37910W        W 6273  40.343  33.394   5.225
37911W        W 6274   7.851  41.840  13.342
37912W        W 6275  32.944  34.121  14.367
37913W        W 6276  14.193  23.662  10.976
37914W        W 6277   0.758  38.495  12.389
37915W        W 6278  41.473  10.296   1.695
37916W        W 6279  25.633  16.639  14.015
37917W        W 6280  35.902  34.422   3.783
37918W        W 6281  43.421  27.179  10.470
37919W        W 6282  36.938  27.516   0.400
37920W        W 6283  16.603  35.553   1.749
37921W        W 6284  19.720  25.582  14.952
37922W        W 6285  16.631  41.502   1.331
37923W        W 6286  28.090  32.025   9.942
37924W        W 6287  41.315  16.184   2.304
37925W        W 6288  13.276  36.942  11.881
37926W        W 6289  43.818   8.378  13.823
37927W        W 6290  38.831  27.120  13.511
37928W        W 6291   9.291  21.634   2.249
37929W        W 6292  27.502  43.286  11.110
37930W        W 6293  14.655  28.567   2.781
37931W        W 6294   2.286  43.924  11.485
37932W        W 6295   0.419   8.700  13.908
37933W        W 6296   9.829   9.825  14.424
37934W        W 6297   2.722  11.764   4.612
37935W        W 6298  40.842  12.827  12.036
37936W        W 6299  41.356  10.727  14.345
37937W        W 6300  38.830  44.341  12.569
37938W        W 6301  38.054  10.811   2.756
37939W        W 6302   5.249  18.623   3.278
37940W        W 6303  39.394  36.054  12.941
37941W        W 6304  18.713  35.578   2.814
37942W        W 6305  17.290  26.462  11.381
37943W        W 6306  44.480   0.965  11.390
37944W        W 6307  36.972  32.070  11.094
37945W        W 6308  22.710  23.492   4.128
37946W        W 6309  25.007  44.401  13.462
37947W        W 6310   6.248   4.784  13.417
37948W        W 6311  27.111   9.149  11.430
37949W        W 6312   3.295   4.701   1.907
37950W        W 6313  40.440  22.629   3.828
37951W        W 6314   8.793  22.533   5.098
37952W        W 6315  44.879   0.792   2.744
37953W        W 6316  19.093  21.048   0.847
37954W        W 6317  19.636  36.957  14.973
37955W        W 6318  27.029  11.672  13.875
37956W        W 6319  38.388  28.069  13.535
37957W        W 6320  39.809  37.533  14.339
37958W        W 6321  32.966  42.026  10.967
37959W        W 6322  38.359  34.009   4.602
37960W        W 6323  39.005  25.202   2.296
37961W        W 6324  38.941  27.028   2.831
37962W        W 6325  32.461  16.808   3.809
37963W        W 6326  36.989  17.758   1.394
37964W        W 6327  39.405  30.145  12.957
37965W        W 6328  24.499   1.872   4.599
37966W        W 6329  32.123  44.442   1.213
37967W        W 6330  17.098  21.247  12.080
37968W        W 6331   2.276  31.964  10.601
37969W        W 6332  27.110  43.983   0.418
37970W        W 6333  23.582  36.410   4.135
37971W        W 6334  15.764  23.107   1.444
37972W        W 6335  12.641   9.383  11.922
37973W        W 6336   8.293  23.103  13.527
37974W        W 6337  27.078  22.055  13.323
37975W        W 6338  42.941  13.276   3.857
37976W        W 6339  34.117   1.906   2.731
37977W        W 6340   4.790  23.046   5.225
37978W        W 6341  40.466  38.935  10.935
37979W        W 6342  39.903   9.194  14.481
37980W        W 6343  16.117  13.608   4.161
37981W        W 6344   4.772  13.825   4.799
37982W        W 6345  15.592  18.709  13.375
37983W        W 6346  39.514  32.948   1.233
37984W        W 6347  14.738  19.675   4.760
37985W        W 6348  18.654  28.049   5.250
37986W        W 6349  15.240  14.094  10.481
37987W        W 6350   4.944   9.743   0.858
37988W        W 6351  26.974   1.355  10.911
37989W        W 6352  12.737   1.407   4.670
37990W        W 6353  13.305  18.748   4.238
37991W        W 6354  16.749   1.924  12.498
37992W        W 6355  41.885  12.715  14.848
37993W        W 6356  26.147  38.547   2.269
37994W        W 6357  11.277  30.164   4.728
37995W        W 6358   3.727  26.584   3.183
37996W        W 6359  27.042  32.900   3.868
37997W        W 6360  29.512  30.025   3.379
37998W        W 6361  27.628   8.741   4.635
37999W        W 6362  43.922   1.440   4.291
38000W        W 6363  12.645  41.526  11.071
38001W        W 6364   1.919   0.772   4.827
38002W        W 6365  11.160  31.121  11.911
38003W        W 6366   0.277  16.661  12.958
38004W        W 6367  30.153  41.509   3.676
38005W        W 6368  10.785  37.467   0.920
38006W        W 6369  36.591  35.476  11.098
38007W        W 6370  32.946   1.309   1.255
38008W        W 6371  42.926  11.621   0.778
38009W        W 6372  18.137   9.266  11.865
38010W        W 6373  20.056  24.508  14.797
38011W        W 6374  17.247  42.345   4.139
38012W        W 6375  23.518   6.206   4.614
38013W        W 6376   9.261  39.560  11.385
38014W        W 6377  41.994   1.761   4.718
38015W        W 6378  30.129  26.166   3.710
38016W        W 6379  35.099  16.727   4.807
38017W        W 6380  41.507  44.006   1.302
38018W        W 6381   3.290  40.832   3.707
38019W        W 6382  31.095  32.476   0.303
38020W        W 6383  32.482  31.144   0.782
38021W        W 6384  19.170  14.200  10.546
38022W        W 6385   0.922   3.299   1.763
38023W        W 6386  20.739  30.463  12.512
38024W        W 6387  27.970  23.210  11.952
38025W        W 6388  41.433  22.103  14.820
38026W        W 6389  34.534   8.786   3.358
38027W        W 6390  12.223  17.666  11.578
38028W        W 6391  44.945  24.162   3.182
38029W        W 6392  13.682  12.743   0.766
38030W        W 6393  34.992  20.259  13.890
38031W        W 6394  33.464  12.308   2.769
38032W        W 6395  38.889   4.356   0.278
38033W        W 6396  12.736   2.419   0.953
38034W        W 6397  28.583   9.685   2.360
38035W        W 6398  18.562   4.814   0.753
38036W        W 6399  40.852   6.301  12.507
38037W        W 6400   8.881   7.726   4.643
38038W        W 6401   6.711  35.946  12.856
38039W        W 6402  40.935   0.981  13.895
38040W        W 6403   1.898  36.014   4.221
38041W        W 6404  39.889  41.505   2.783
38042W        W 6405  40.526  37.441  12.879
38043W        W 6406  17.098  44.342   3.367
38044W        W 6407  40.898  29.037   0.903
38045W        W 6408  33.497  14.252  12.993
38046W        W 6409  21.722   7.220   2.666
38047W        W 6410   6.189  29.111  14.946
38048W        W 6411  26.009  17.254  13.960
38049W        W 6412  38.982  22.603   9.934
38050W        W 6413  29.944  31.138   4.823
38051W        W 6414  43.404  43.289   2.869
38052W        W 6415   1.798  36.039  14.451
38053W        W 6416  36.859  41.403   1.218
38054W        W 6417   3.789   2.859  13.866
38055W        W 6418  41.520  11.297   0.924
38056W        W 6419  38.884  28.049  12.531
38057W        W 6420   4.332  14.118   3.387
38058W        W 6421  36.382   7.836   0.827
38059W        W 6422  30.607  11.652   4.787
38060W        W 6423  22.159  37.380   3.230
38061W        W 6424  21.611  42.437  12.445
38062W        W 6425  10.807  21.049   0.789
38063W        W 6426  33.093   3.892   3.176
38064W        W 6427  28.536   2.720  10.930
38065W        W 6428  15.242  15.191   3.284
38066W        W 6429  34.955   6.845   2.669
38067W        W 6430  25.021   6.194   0.361
38068W        W 6431  23.160   2.961   4.698
38069W        W 6432  39.493   8.771  10.626
38070W        W 6433  32.982  21.126   1.776
38071W        W 6434   3.875  39.367   1.319
38072W        W 6435   3.886  17.580   2.798
38073W        W 6436  28.571  13.645   9.560
38074W        W 6437  35.460   4.718  10.410
38075W        W 6438  32.044  24.032   4.690
38076W        W 6439  44.411  11.287   2.347
38077W        W 6440  14.120   7.775   5.270
38078W        W 6441   7.249   1.454   2.246
38079W        W 6442  32.561  31.942   4.762
38080W        W 6443  32.129   0.815  13.520
38081W        W 6444  23.183  31.526   2.233
38082W        W 6445  44.995  38.941   0.757
38083W        W 6446  19.764  15.085  13.824
38084W        W 6447  15.641  35.040   2.717
38085W        W 6448   7.350  34.417  14.345
38086W        W 6449  38.974  18.127   5.083
38087W        W 6450  40.489  31.507  12.094
38088W        W 6451  41.987  24.656  12.507
38089W        W 6452  42.360  39.032  13.052
38090W        W 6453  30.973  10.812   0.947
38091W        W 6454  32.480  33.624   1.699
38092W        W 6455  38.530   6.844   1.912
38093W        W 6456  15.274  15.192   5.093
38094W        W 6457   8.362  15.712   1.829
38095W        W 6458  38.931  16.629  10.975
38096W        W 6459  31.115  17.122   2.811
38097W        W 6460   8.333  22.685  10.422
38098W        W 6461  15.104  17.061   0.302
38099W        W 6462   4.322  15.740  13.890
38100W        W 6463  31.407  30.924  12.926
38101W        W 6464  31.540  22.175  13.825
38102W        W 6465  35.070  24.535   1.765
38103W        W 6466  41.462  44.484  14.873
38104W        W 6467  22.505  20.553  14.025
38105W        W 6468  37.439  13.637  10.079
38106W        W 6469  33.506  10.161   3.760
38107W        W 6470   2.463  40.871   3.239
38108W        W 6471  33.524  34.450  12.031
38109W        W 6472  37.337  25.044  13.946
38110W        W 6473  23.213   5.866  12.094
38111W        W 6474   0.278  40.030  14.320
38112W        W 6475  43.460   4.738   2.801
38113W        W 6476  24.081  41.495  10.923
38114W        W 6477   1.264   8.888  10.446
38115W        W 6478  32.459  16.177   2.347
38116W        W 6479  12.178  26.699   3.843
38117W        W 6480  23.733   6.728  10.988
38118W        W 6481  10.805  30.612   0.760
38119W        W 6482  35.951  38.075  11.096
38120W        W 6483  27.531  34.394  12.575
38121W        W 6484  33.132  34.610   4.675
38122W        W 6485  27.671  27.607   3.369
38123W        W 6486   9.296  22.044  14.913
38124W        W 6487  19.762  13.294   2.371
38125W        W 6488  36.352  34.443  14.824
38126W        W 6489  38.452  14.237   1.810
38127W        W 6490  23.674  29.584  12.465
38128W        W 6491  33.536  42.799  14.424
38129W        W 6492  11.863  35.375   4.251
38130W        W 6493   9.250  15.584   0.949
38131W        W 6494   0.465   0.293  14.851
38132W        W 6495  24.069  37.895   1.901
38133W        W 6496  25.471  14.274  11.588
38134W        W 6497   2.826  17.120   0.876
38135W        W 6498  42.355   2.822  10.617
38136W        W 6499  44.410  40.477  10.476
38137W        W 6500  24.511  20.229  12.574
38138W        W 6501  26.657  24.580   1.367
38139W        W 6502   0.816  32.885   0.458
38140W        W 6503  35.948  44.498  10.083
38141W        W 6504   9.313   1.767   1.274
38142W        W 6505   6.680  35.901   2.192
38143W        W 6506   2.362  13.160   4.713
38144W        W 6507  16.764  37.955  13.937
38145W        W 6508   7.174  10.177   2.271
38146W        W 6509  42.401  44.355   4.137
38147W        W 6510   6.756  31.573  14.348
38148W        W 6511  26.573  37.999  10.645
38149W        W 6512  32.142  37.899  11.929
38150W        W 6513   3.344  14.104   1.246
38151W        W 6514   8.216  34.992   0.763
38152W        W 6515   2.234  28.575  11.054
38153W        W 6516  30.441  14.307  11.119
38154W        W 6517  33.535  31.487  13.352
38155W        W 6518  18.144  42.026   1.260
38156W        W 6519  16.774  33.032  11.985
38157W        W 6520  36.576  31.492  12.046
38158W        W 6521  38.529   9.680  12.006
38159W        W 6522  10.785  17.684   2.812
38160W        W 6523  44.480  23.090  12.030
38161W        W 6524  12.226  21.593  13.511
38162W        W 6525  39.456  11.170   1.712
38163W        W 6526  11.131  17.183   3.712
38164W        W 6527  36.520   8.895  14.434
38165W        W 6528   6.340  11.370  13.885
38166W        W 6529  30.027  31.986  11.917
38167W        W 6530  38.472  11.840   0.273
38168W        W 6531  30.056  28.606  12.524
38169W        W 6532  39.058  28.652  10.476
38170W        W 6533  41.907   9.159   1.380
38171W        W 6534   2.864   0.471  14.909
38172W        W 6535   6.302  35.078  11.503
38173W        W 6536   5.283   7.905  13.000
38174W        W 6537  29.514  26.507   3.760
38175W        W 6538  41.788  34.581  12.082
38176W        W 6539   4.351  44.357  13.795
38177W        W 6540  31.109   7.325   4.815
38178W        W 6541  26.692  10.335   2.263
38179W        W 6542  31.647  19.217   3.778
38180W        W 6543  41.334  11.329   2.690
38181W        W 6544  41.919  12.808   3.704
38182W        W 6545   0.341  13.700  13.996
38183W        W 6546  12.245  29.565   4.167
38184W        W 6547   7.752   8.880  10.128
38185W        W 6548   0.942  26.011   1.738
38186W        W 6549  38.837   5.234  11.400
38187W        W 6550  40.967   7.863   1.930
38188W        W 6551  26.552   6.687  13.509
38189W        W 6552  39.990  41.912  13.429
38190W        W 6553  40.531  37.857  13.310
38191W        W 6554  33.100  36.956  14.320
38192W        W 6555  31.595  29.596  13.799
38193W        W 6556  32.985  34.033   1.704
38194W        W 6557  14.815  33.891  10.543
38195W        W 6558   3.761  21.734   1.418
38196W        W 6559  12.772  19.713  11.475
38197W        W 6560  42.501  31.469   2.397
38198W        W 6561  39.817  15.776   2.841
38199W        W 6562  15.742  31.465   0.816
38200W        W 6563  40.340  29.934   1.253
38201W        W 6564  41.441   9.338   2.853
38202W        W 6565   4.906  35.463   3.301
38203W        W 6566  37.454  37.551   4.132
38204W        W 6567  18.195   5.417   2.676
38205W        W 6568  38.490  11.312   1.424
38206W        W 6569  21.740  21.150   9.965
38207W        W 6570  10.373  10.652  14.819
38208W        W 6571  14.336  18.107   1.758
38209W        W 6572  42.369  24.177   1.318
38210W        W 6573  19.543  16.769   3.853
38211W        W 6574  27.960  38.423   0.741
38212W        W 6575  22.030  37.911   1.924
38213W        W 6576  41.830  25.586  12.019
38214W        W 6577  43.977  23.999  14.362
38215W        W 6578   9.819  26.620   4.215
38216W        W 6579  12.156  30.125  10.621
38217W        W 6580   2.815  16.725   2.419
38218W        W 6581   6.393  16.805   4.261
38219W        W 6582  30.119  40.948   4.190
38220W        W 6583  43.495  42.852  11.515
38221W        W 6584  14.710  29.445  11.540
38222W        W 6585  40.953  15.290  12.503
38223W        W 6586  19.551  23.127  14.349
38224W        W 6587   0.746   5.427  14.775
38225W        W 6588  29.549   6.838   1.704
38226W        W 6589  22.687  17.280  10.915
38227W        W 6590  36.475  25.543  13.450
38228W        W 6591  13.109  34.477   2.868
38229W        W 6592  17.076  33.600  14.885
38230W        W 6593  25.047  18.616  14.974
38231W        W 6594   1.308  10.636  11.061
38232W        W 6595  11.212  34.434   4.166
38233W        W 6596  39.492  15.718   2.888
38234W        W 6597  39.330  38.020  14.959
38235W        W 6598  39.497  33.459  13.321
38236W        W 6599  16.149  41.038  12.441
38237W        W 6600  36.541  33.118  10.955
38238W        W 6601  28.446  26.504   2.842
38239W        W 6602  30.113  18.063  11.434
38240W        W 6603  11.799  25.541  11.415
38241W        W 6604  10.384  31.544  10.551
38242W        W 6605   2.781  28.455   0.928
38243W        W 6606  38.464   8.229   1.895
38244W        W 6607  11.668  18.242  12.435
38245W        W 6608  10.325  32.024  13.998
38246W        W 6609  18.056   5.295   4.234
38247W        W 6610   3.760   9.317   1.758
38248W        W 6611   9.761  29.070   1.890
38249W        W 6612  29.120  42.915   0.836
38250W        W 6613  25.692  38.861  12.983
38251W        W 6614  37.883  43.771   0.393
38252W        W 6615  16.789  38.402  11.121
38253W        W 6616  33.518  42.426  10.427
38254W        W 6617   8.843  37.041  13.425
38255W        W 6618  20.658   0.409  13.365
38256W        W 6619   8.676   1.819   4.620
38257W        W 6620   2.239   4.941   3.670
38258W        W 6621  20.107  26.083  10.929
38259W        W 6622  20.200  38.507   1.925
38260W        W 6623   2.931  27.002   0.835
38261W        W 6624  35.446  28.667   3.660
38262W        W 6625  40.946  30.057  13.867
38263W        W 6626  42.475  22.683  12.879
38264W        W 6627   4.753  22.526  11.067
38265W        W 6628  10.635  12.156   4.222
38266W        W 6629   8.880  21.549   0.785
38267W        W 6630   9.392  27.121   2.885
38268W        W 6631  15.263   6.690  11.406
38269W        W 6632  13.704  15.810  13.032
38270W        W 6633   4.819  27.059  13.363
38271W        W 6634   5.310  11.845  13.007
38272W        W 6635   3.416  11.334  12.503
38273W        W 6636  10.381  10.190   2.294
38274W        W 6637   0.249  24.211   1.914
38275W        W 6638   0.473   1.828  13.351
38276W        W 6639  12.170  40.398   1.325
38277W        W 6640  16.205   5.927  13.878
38278W        W 6641  30.480  24.561  14.901
38279W        W 6642  10.144   0.796  11.048
38280W        W 6643  34.933  24.072   5.113
38281W        W 6644  43.300   9.783  13.478
38282W        W 6645   5.397  23.643   0.407
38283W        W 6646   3.864  37.940  14.457
38284W        W 6647  33.908  17.138   0.405
38285W        W 6648  14.801  25.065  12.994
38286W        W 6649  12.157   0.308  14.842
38287W        W 6650  23.155  39.464  11.861
38288W        W 6651  36.930  12.766   3.739
38289W        W 6652   1.821   8.331  10.890
38290W        W 6653  27.962  27.508  13.862
38291W        W 6654   4.296  20.095  14.997
38292W        W 6655  33.051   0.747   3.169
38293W        W 6656   0.315  19.675   4.626
38294W        W 6657  30.037  10.307  14.297
38295W        W 6658  38.886  15.704  11.946
38296W        W 6659  32.401  11.670  13.455
38297W        W 6660  40.349   7.192   2.731
38298W        W 6661   5.755  20.615  10.450
38299W        W 6662  26.465   7.340  12.414
38300W        W 6663   2.243  30.057   1.440
38301W        W 6664   6.292  34.940  14.336
38302W        W 6665  39.962  27.503   0.279
38303W        W 6666  17.128   4.322  14.388
38304W        W 6667  28.165   6.236   0.468
38305W        W 6668  40.381  28.590  13.397
38306W        W 6669  24.046  39.486  10.591
38307W        W 6670  36.999  43.892  13.984
38308W        W 6671  26.698   4.342  13.363
38309W        W 6672  20.135  32.503   0.344
38310W        W 6673  43.340  35.549  12.564
38311W        W 6674  19.098  10.365  11.886
38312W        W 6675  20.089  25.211  12.006
38313W        W 6676  20.523  40.046   1.710
38314W        W 6677  25.489  17.233  12.464
38315W        W 6678  19.158  30.140   4.346
38316W        W 6679  15.715   4.283   0.473
38317W        W 6680  18.785  22.117  11.867
38318W        W 6681  29.016   5.408   3.740
38319W        W 6682  43.821  19.117   2.896
38320W        W 6683   4.851  19.102   2.299
38321W        W 6684  16.222  41.965   1.748
38322W        W 6685  25.489  37.499  14.941
38323W        W 6686  20.588  22.141  11.896
38324W        W 6687  29.582  13.148  11.077
38325W        W 6688   5.249  26.062   3.225
38326W        W 6689  31.438   1.295  11.590
38327W        W 6690  17.272  30.464  10.105
38328W        W 6691  34.593   4.855   3.801
38329W        W 6692   0.957  32.970  14.826
38330W        W 6693  11.144  33.122   3.779
38331W        W 6694   3.256   6.897  14.808
38332W        W 6695  39.479   9.302  12.047
38333W        W 6696  36.966  13.688   4.640
38334W        W 6697  12.217  23.598  11.041
38335W        W 6698   6.375  13.292  14.389
38336W        W 6699  31.150  12.830   4.764
38337W        W 6700   7.831  36.454  12.036
38338W        W 6701  10.200   2.830   1.346
38339W        W 6702  16.096  38.836  13.033
38340W        W 6703  44.459  37.833  12.020
38341W        W 6704  40.518  37.848  12.014
38342W        W 6705  12.244  42.806   1.924
38343W        W 6706  38.484  12.254  10.569
38344W        W 6707  18.161  31.433  12.515
38345W        W 6708  24.152  40.038  13.520
38346W        W 6709  12.179  30.939   3.271
38347W        W 6710  20.050  27.040   2.747
38348W        W 6711   3.913   7.271   3.713
38349W        W 6712  15.716  20.209  10.577
38350W        W 6713   0.839  31.115   4.288
38351W        W 6714   5.772  41.527  10.412
38352W        W 6715   1.342   9.181   0.349
38353W        W 6716  32.598   3.884   1.324
38354W        W 6717  18.080  42.503   0.248
38355W        W 6718  31.993  23.205  10.428
38356W        W 6719  31.483  42.991  10.889
38357W        W 6720   0.265  12.133  14.290
38358W        W 6721  23.618   3.758  13.980
38359W        W 6722   0.847  39.355   4.643
38360W        W 6723  33.440  16.810   0.278
38361W        W 6724  38.521  41.408  11.866
38362W        W 6725  22.578  43.999  13.369
38363W        W 6726  38.389  17.197  14.366
38364W        W 6727   6.198  10.289   1.716
38365W        W 6728  29.060  13.762  12.094
38366W        W 6729  26.060  36.485   1.413
38367W        W 6730  19.675  38.031   1.761
38368W        W 6731  36.959  34.421   3.194
38369W        W 6732  35.102  34.588  13.398
38370W        W 6733  20.663   8.247  13.477
38371W        W 6734   2.896   2.281   3.282
38372W        W 6735   6.249  27.022   0.347
38373W        W 6736  35.546   0.790   1.917
38374W        W 6737   5.774  28.451   0.400
38375W        W 6738  23.061  15.699  11.545
38376W        W 6739  36.463   0.799  12.955
38377W        W 6740  11.750  32.600   4.251
38378W        W 6741  29.488  23.232  14.863
38379W        W 6742  38.865  27.563  11.855
38380W        W 6743  17.669  10.736  11.427
38381W        W 6744  11.644   2.821   4.638
38382W        W 6745   7.304  11.863  10.543
38383W        W 6746  43.272  38.998  12.351
38384W        W 6747  34.094   6.211  13.449
38385W        W 6748  31.414  23.582   1.260
38386W        W 6749   7.179  39.951   4.116
38387W        W 6750  24.721  25.125  12.497
38388W        W 6751   7.178  28.029   1.227
38389W        W 6752  29.131  12.850   0.866
38390W        W 6753  35.513   1.977  11.377
38391W        W 6754  33.585  23.497  10.626
38392W        W 6755  21.214   9.802  10.997
38393W        W 6756  28.463  31.450   1.726
38394W        W 6757  31.571   5.217   0.930
38395W        W 6758  26.556   3.920  12.501
38396W        W 6759  39.495  44.482  12.468
38397W        W 6760  14.233  19.621   4.178
38398W        W 6761  30.033  32.131  13.334
38399W        W 6762  15.593   3.906   2.821
38400W        W 6763  41.368  13.747   2.863
38401W        W 6764   2.403  34.502   2.200
38402W        W 6765  29.046  34.391   4.157
38403W        W 6766  35.958  39.910   4.192
38404W        W 6767   7.259  13.184   3.290
38405W        W 6768  18.239   3.733   0.803
38406W        W 6769  37.571  34.874   0.832
38407W        W 6770  36.866  43.787   4.690
38408W        W 6771  28.100   8.268  12.851
38409W        W 6772  33.464  23.078   3.238
38410W        W 6773  35.899   1.943   4.195
38411W        W 6774  33.963  38.016   2.846
38412W        W 6775   4.235  40.455   0.327
38413W        W 6776  28.975  18.174  13.822
38414W        W 6777  18.776   6.204  14.899
38415W        W 6778  40.828  34.111   2.221
38416W        W 6779  37.544  13.719   1.360
38417W        W 6780  41.933  11.210   4.687
38418W        W 6781  15.768  43.985  13.064
38419W        W 6782   3.367  15.202  12.579
38420W        W 6783  32.977  13.174  12.508
38421W        W 6784  29.063  41.423   2.187
38422W        W 6785  35.533  30.021   1.356
38423W        W 6786  16.690  21.750  13.057
38424W        W 6787  34.030   3.712  14.952
38425W        W 6788  42.959   3.881   2.325
38426W        W 6789  41.393  32.003  13.874
38427W        W 6790   8.883  44.864  12.518
38428W        W 6791  35.051  28.634   2.830
38429W        W 6792  11.263  28.102  12.024
38430W        W 6793  23.106  22.162   4.281
38431W        W 6794   5.257   4.385  13.491
38432W        W 6795  18.766  12.314  13.363
38433W        W 6796  35.372  18.588   3.364
38434W        W 6797   3.882  36.056   1.931
38435W        W 6798  30.507  36.593  10.915
38436W        W 6799  32.400   3.451   0.456
38437W        W 6800  29.530  39.534  11.101
38438W        W 6801   9.864   5.808   2.768
38439W        W 6802  26.176   3.738  14.913
38440W        W 6803   3.720  13.345  12.987
38441W        W 6804   9.213  13.321  11.489
38442W        W 6805  36.962   7.693   2.321
38443W        W 6806  33.589  44.382  12.009
38444W        W 6807  18.068  23.986  11.401
38445W        W 6808  39.928   0.312  11.108
38446W        W 6809   8.369  40.440   0.399
38447W        W 6810  30.917  29.465   3.273
38448W        W 6811  32.470   9.270  10.894
38449W        W 6812  12.758  17.651   2.765
38450W        W 6813  37.344  17.732   3.248
38451W        W 6814  27.197  36.389   0.267
38452W        W 6815  44.758  21.116  11.524
38453W        W 6816  33.028  25.491  14.800
38454W        W 6817   6.380  29.596   0.434
38455W        W 6818  37.059   2.359   3.378
38456W        W 6819  17.269  43.412   5.309
38457W        W 6820  11.358   1.812   4.275
38458W        W 6821  42.441  13.207   1.351
38459W        W 6822  35.919  44.324  10.423
38460W        W 6823   0.777  22.157  13.918
38461W        W 6824  12.262   7.864  13.528
38462W        W 6825  19.050   1.243  11.943
38463W        W 6826  13.291  21.104  10.982
38464W        W 6827  44.754  22.102   2.780
38465W        W 6828  19.546  43.307   1.812
38466W        W 6829  16.145  22.640  12.370
38467W        W 6830  12.116  29.443   1.930
38468W        W 6831  41.512  12.163  14.764
38469W        W 6832  19.196  34.439   1.433
38470W        W 6833  28.452   2.362  12.927
38471W        W 6834  29.446  38.895  13.953
38472W        W 6835  31.969  32.013   4.289
38473W        W 6836  14.252  18.185   3.731
38474W        W 6837  15.738  14.655   2.799
38475W        W 6838  25.481  19.670  12.392
38476W        W 6839  32.111  21.197   3.660
38477W        W 6840  23.566  42.906   1.262
38478W        W 6841  40.379  28.455   3.753
38479W        W 6842   7.211  44.900   0.898
38480W        W 6843  32.978  18.791   3.376
38481W        W 6844   8.798  13.704  14.500
38482W        W 6845  33.449  38.930   2.209
38483W        W 6846  25.710  40.048  14.459
38484W        W 6847  43.277  12.837  12.923
38485W        W 6848  34.515   9.331   2.833
38486W        W 6849  33.578  30.036   1.407
38487W        W 6850  15.579   4.838  10.113
38488W        W 6851  34.003  15.187  13.965
38489W        W 6852  44.349   8.271  10.463
38490W        W 6853  37.376  33.100   2.834
38491W        W 6854  39.472  34.024   3.703
38492W        W 6855   9.307  18.677  11.568
38493W        W 6856  32.494  29.918   2.399
38494W        W 6857   4.723   6.767  11.547
38495W        W 6858  34.980  23.162   1.277
38496W        W 6859   3.407  44.401   1.913
38497W        W 6860  14.279  33.124  12.340
38498W        W 6861  21.190  17.124   3.306
38499W        W 6862  34.491   0.815  12.058
38500W        W 6863  33.572  11.255  14.504
38501W        W 6864  15.733  32.018   0.903
38502W        W 6865  43.952  36.538   2.791
38503W        W 6866   7.670  12.154  12.014
38504W        W 6867  16.077  41.359   1.242
38505W        W 6868   9.368  10.230  13.026
38506W        W 6869   0.845  26.132  11.414
38507W        W 6870  23.985  41.311  10.565
38508W        W 6871  27.504  37.889  13.524
38509W        W 6872  35.599   0.872  12.075
38510W        W 6873  30.553  17.558   4.680
38511W        W 6874  10.375   4.721   5.183
38512W        W 6875  21.533  36.034  13.315
38513W        W 6876  39.003  41.483   2.836
38514W        W 6877  20.582  36.080  11.967
38515W        W 6878   9.183  37.504  10.532
38516W        W 6879  27.099  14.215   1.705
38517W        W 6880  29.599  16.634   4.613
38518W        W 6881  16.790  43.870   0.271
38519W        W 6882  34.489   5.409   0.887
38520W        W 6883   9.313  31.901   3.748
38521W        W 6884  41.012   8.847   3.675
38522W        W 6885   4.825  42.327  12.847
38523W        W 6886  21.700   2.302   2.354
38524W        W 6887   2.906  11.365   0.266
38525W        W 6888  14.665   1.306   2.760
38526W        W 6889  20.646   7.815   4.612
38527W        W 6890   0.269   8.407  14.767
38528W        W 6891   2.813   7.372  13.326
38529W        W 6892  31.937   4.819   2.251
38530W        W 6893  12.362  33.532   4.330
38531W        W 6894   3.808  37.910  14.862
38532W        W 6895  30.435   6.777  12.057
38533W        W 6896  17.281  11.745   1.775
38534W        W 6897  32.090  25.003   0.385
38535W        W 6898  13.108  10.284  12.373
38536W        W 6899  31.624  21.623   0.411
38537W        W 6900   3.234  30.077  12.827
38538W        W 6901  35.574   2.839   2.770
38539W        W 6902   0.427  42.400  14.964
38540W        W 6903   9.766  22.229  13.975
38541W        W 6904  12.614  39.515  14.928
38542W        W 6905  43.383  16.665   0.372
38543W        W 6906   9.707   8.822   1.850
38544W        W 6907  43.817  39.044  13.849
38545W        W 6908  25.058  13.601   1.848
38546W        W 6909   8.752  31.480  11.498
38547W        W 6910  31.531  40.542  14.282
38548W        W 6911  15.128  16.799   0.451
38549W        W 6912   6.374   5.689   4.113
38550W        W 6913   8.879  39.411   0.904
38551W        W 6914  37.436  43.826  14.997
38552W        W 6915  44.417  19.101  10.588
38553W        W 6916  30.133  15.813   4.757
38554W        W 6917  11.710  11.281  12.533
38555W        W 6918  44.483  29.068  14.451
38556W        W 6919  43.469  31.550  10.977
38557W        W 6920  35.361   7.770   2.296
38558W        W 6921  25.656  23.676   3.684
38559W        W 6922  30.654  30.964  12.541
38560W        W 6923  27.966   8.768   1.338
38561W        W 6924   9.673   5.848   3.849
38562W        W 6925  13.159  32.059  13.426
38563W        W 6926   6.187  13.665   2.342
38564W        W 6927   8.753  40.999  14.451
38565W        W 6928  37.932  12.668   3.863
38566W        W 6929  43.365  17.562   3.334
38567W        W 6930  42.829   5.417   4.839
38568W        W 6931  39.911   4.337   0.349
38569W        W 6932  25.061  20.067  13.815
38570W        W 6933  43.999  27.997  11.576
38571W        W 6934  16.107  26.164  15.000
38572W        W 6935   4.308  43.884  13.918
38573W        W 6936  11.790   0.449  10.996
38574W        W 6937  16.121  13.143  11.901
38575W        W 6938   1.963  43.373  10.415
38576W        W 6939   3.449  14.643   0.313
38577W        W 6940  30.531   3.395   3.341
38578W        W 6941  18.592   5.413   4.300
38579W        W 6942  20.177  42.334   4.113
38580W        W 6943  19.720   5.369  12.544
38581W        W 6944   1.283  35.104   4.756
38582W        W 6945  32.988   1.785   4.172
38583W        W 6946  42.895  22.089   0.831
38584W        W 6947  16.319  31.626  10.952
38585W        W 6948  10.691  40.833  10.452
38586W        W 6949  22.534   1.329  11.120
38587W        W 6950  15.295  44.363  13.880
38588W        W 6951  40.548  14.647  12.355
38589W        W 6952  31.564   0.494   1.921
38590W        W 6953  13.746  25.047  14.504
38591W        W 6954  39.003  42.006  14.402
38592W        W 6955  21.677   9.744  13.964
38593W        W 6956  42.985  37.972  12.428
38594W        W 6957   6.842   2.960   1.783
38595W        W 6958  23.720  10.184  11.477
38596W        W 6959  23.054  38.458  11.007
38597W        W 6960  36.375  24.008  13.317
38598W        W 6961  16.794   2.312  13.395
38599W        W 6962  15.646  20.676   3.846
38600W        W 6963  31.486  36.422  11.409
38601W        W 6964   2.446   0.965  10.452
38602W        W 6965  40.877  29.443  11.592
38603W        W 6966  40.840  30.109  10.567
38604W        W 6967  13.214   2.280  12.358
38605W        W 6968   0.439  24.655   1.405
38606W        W 6969   0.944  34.513  11.402
38607W        W 6970  26.656  28.564  13.062
38608W        W 6971  23.047  42.797   0.473
38609W        W 6972  30.062  37.031  11.409
38610W        W 6973  30.001  21.712   3.759
38611W        W 6974   3.730   8.816  11.409
38612W        W 6975  34.933  19.160   0.739
38613W        W 6976   1.339  20.714  13.811
38614W        W 6977  43.474  31.587   4.680
38615W        W 6978  23.533   3.374  11.452
38616W        W 6979  25.174  15.590   0.243
38617W        W 6980  27.497  24.530  13.061
38618W        W 6981  40.981  28.558   2.322
38619W        W 6982  26.099   8.189  14.514
38620W        W 6983  32.955  18.706   0.758
38621W        W 6984  25.102  12.630   4.113
38622W        W 6985  37.422   4.427  12.409
38623W        W 6986  11.301  34.369   1.825
38624W        W 6987   7.759  26.657  12.981
38625W        W 6988  22.502  32.984   0.769
38626W        W 6989  25.183   3.721  14.314
38627W        W 6990  15.688  18.562   2.697
38628W        W 6991  27.151   4.422   3.212
38629W        W 6992  37.045  23.138  13.458
38630W        W 6993  39.978  35.443  12.861
38631W        W 6994  23.083  10.833   4.202
38632W        W 6995  31.528  36.094   3.193
38633W        W 6996  24.184  38.848  13.815
38634W        W 6997  24.105  19.538   5.168
38635W        W 6998   3.929  30.098  10.477
38636W        W 6999  39.842  14.129  10.421
38637W        W 7000  33.931   5.428   2.391
38638W        W 7001   7.398   4.425  13.046
38639W        W 7002  16.743  43.387  11.018
38640W        W 7003  32.024  41.790   1.922
38641W        W 7004  15.091  25.002  10.613
38642W        W 7005   3.286  26.139  14.285
38643W        W 7006  34.989  24.058  13.860
38644W        W 7007  32.953  12.268  10.956
38645W        W 7008   0.448  22.628   1.383
38646W        W 7009  35.860   2.292  11.406
38647W        W 7010  25.512  34.119  14.326
38648W        W 7011  16.262  14.718  13.463
38649W        W 7012  16.110  20.613   1.235
38650W        W 7013  38.040  15.722  12.998
38651W        W 7014   9.154  18.226  12.579
38652W        W 7015  30.604  37.430   4.627
38653W        W 7016   4.872  44.939   0.800
38654W        W 7017   0.807  20.663   4.253
38655W        W 7018  10.289   1.331  13.933
38656W        W 7019  35.582   4.725  11.394
38657W        W 7020  36.098  44.288  11.571
38658W        W 7021  38.371  29.039  10.446
38659W        W 7022  39.343  28.127  14.821
38660W        W 7023  31.903  16.257   3.303
38661W        W 7024  24.060  33.503   2.731
38662W        W 7025  37.533   8.272   2.241
38663W        W 7026   1.748  27.046   0.448
38664W        W 7027   9.160  44.494  12.512
38665W        W 7028  12.314  30.040   1.765
38666W        W 7029  36.912  32.595   0.893
38667W        W 7030  42.481  37.527   0.856
38668W        W 7031  24.007   1.753  10.517
38669W        W 7032  37.050   7.322   1.876
38670W        W 7033  32.397   1.439  13.026
38671W        W 7034  22.655  17.064  12.441
38672W        W 7035  41.902  17.726  10.895
38673W        W 7036  20.733  36.407  12.011
38674W        W 7037   9.697  26.649  10.499
38675W        W 7038  43.921  24.113   0.266
38676W        W 7039  21.192  38.833   3.152
38677W        W 7040  26.173   6.255   2.190
38678W        W 7041  32.066  43.380  11.548
38679W        W 7042  14.236  30.085   3.295
38680W        W 7043  12.642  41.893  13.393
38681W        W 7044  28.474  25.470   2.302
38682W        W 7045   6.289   7.839   4.316
38683W        W 7046  25.061   6.412  12.384
38684W        W 7047  32.585  34.490  11.610
38685W        W 7048  43.811  36.533   2.201
38686W        W 7049  43.795  12.652  11.372
38687W        W 7050  29.565  21.694   3.759
38688W        W 7051  34.073  30.638  13.928
38689W        W 7052  40.990  34.042  14.004
38690W        W 7053  39.416  37.995   3.307
38691W        W 7054   3.276  15.714  10.995
38692W        W 7055  27.053  19.269   0.340
38693W        W 7056  20.084  36.858  12.397
38694W        W 7057   5.314  29.644   2.332
38695W        W 7058  43.305  41.298   0.260
38696W        W 7059  27.601  43.877  14.973
38697W        W 7060  33.052  10.663   4.693
38698W        W 7061  34.070  30.420  14.979
38699W        W 7062  21.082  32.467  10.576
38700W        W 7063   4.430  22.174   3.741
38701W        W 7064  15.700  29.627  10.580
38702W        W 7065  10.666  22.589   4.341
38703W        W 7066  13.716  25.189  13.390
38704W        W 7067  26.978  13.323  11.872
38705W        W 7068  43.299  13.269  13.880
38706W        W 7069  18.760  18.750  13.386
38707W        W 7070  18.745  13.657  13.481
38708W        W 7071  13.659  10.383   2.273
38709W        W 7072  21.544   3.259   1.441
38710W        W 7073  31.441  17.588  11.576
38711W        W 7074   8.249  11.270   2.840
38712W        W 7075  10.863  28.562   3.700
38713W        W 7076  26.095  14.244   2.386
38714W        W 7077   6.199  30.046   0.779
38715W        W 7078   6.897  19.070  12.575
38716W        W 7079  40.351  34.578  12.373
38717W        W 7080  11.826  12.807   1.257
38718W        W 7081   6.206   5.883  12.863
38719W        W 7082  24.590  26.989  11.013
38720W        W 7083   2.916   2.904   3.320
38721W        W 7084  11.279  32.134   2.192
38722W        W 7085  23.678   3.952   0.909
38723W        W 7086  26.471   7.728   1.410
38724W        W 7087  22.583  43.369  11.494
38725W        W 7088  41.470  26.590   0.811
38726W        W 7089   9.286   7.854   3.861
38727W        W 7090  26.183  14.624  13.895
38728W        W 7091  10.291  13.280  12.401
38729W        W 7092  11.301  15.112  13.482
38730W        W 7093   1.384  40.495  13.853
38731W        W 7094   0.935  36.879   3.290
38732W        W 7095  19.255   6.859   4.260
38733W        W 7096  42.013   2.228  14.872
38734W        W 7097  32.127  27.064   0.458
38735W        W 7098  15.085  39.951   1.709
38736W        W 7099  29.539  28.063   3.362
38737W        W 7100  17.665  27.162  14.506
38738W        W 7101  31.514  10.211  11.075
38739W        W 7102  10.172  37.547  10.018
38740W        W 7103   5.929  23.677  11.416
38741W        W 7104  30.942  35.477  10.460
38742W        W 7105  31.488   0.938  10.506
38743W        W 7106  32.033  23.191  14.449
38744W        W 7107  31.896  20.532  12.517
38745W        W 7108  32.008  17.267   3.234
38746W        W 7109  18.134  39.431   2.390
38747W        W 7110  44.842  21.573   4.117
38748W        W 7111  41.416  44.265   2.864
38749W        W 7112  42.942  18.055  13.935
38750W        W 7113  28.037  17.303  13.492
38751W        W 7114  26.646  31.628  13.534
38752W        W 7115  38.886   3.360  10.030
38753W        W 7116  12.145   6.880   1.914
38754W        W 7117  11.745  36.071  12.574
38755W        W 7118  28.496  44.261   9.983
38756W        W 7119  12.631  16.677   2.872
38757W        W 7120   4.753  31.957   5.292
38758W        W 7121  28.971  19.111   0.931
38759W        W 7122  31.485   3.905   1.218
38760W        W 7123  38.342  26.120   2.672
38761W        W 7124   6.418  11.298  12.910
38762W        W 7125  17.616  31.039   0.752
38763W        W 7126  24.127  42.920   3.845
38764W        W 7127  27.487  38.417  10.904
38765W        W 7128  11.153  31.143   0.907
38766W        W 7129  32.060  38.993   1.912
38767W        W 7130  42.513  14.600   4.178
38768W        W 7131  28.600  42.360   1.320
38769W        W 7132  40.392  38.383   4.179
38770W        W 7133  40.321   5.886   0.771
38771W        W 7134  20.730  22.528  11.878
38772W        W 7135  41.004  31.940  14.471
38773W        W 7136  16.785  33.993  14.786
38774W        W 7137  11.160  19.095   2.260
38775W        W 7138  37.515  36.529   2.894
38776W        W 7139  25.564  16.239   2.199
38777W        W 7140   8.343  29.545  10.439
38778W        W 7141  32.116   0.365   1.873
38779W        W 7142  34.109  41.526  13.421
38780W        W 7143  38.424  12.194  12.560
38781W        W 7144   8.816   2.268  11.930
38782W        W 7145  14.657  30.055  12.076
38783W        W 7146  13.725  31.429  13.034
38784W        W 7147  28.453  32.475  12.093
38785W        W 7148  32.916  32.557  14.402
38786W        W 7149  37.394  16.692   4.349
38787W        W 7150  40.338  37.077  13.428
38788W        W 7151  27.949  35.905   1.895
38789W        W 7152  43.334  19.149  13.322
38790W        W 7153   5.819   5.419   3.306
38791W        W 7154   7.355   9.697   0.763
38792W        W 7155  12.268   5.840   3.381
38793W        W 7156  10.261   4.828  13.851
38794W        W 7157  27.521  14.115  11.594
38795W        W 7158  33.519  38.330   2.398
38796W        W 7159   9.380  32.505  14.503
38797W        W 7160  40.840  35.877   0.764
38798W        W 7161  24.098  37.336   5.254
38799W        W 7162  37.574  12.286   1.748
38800W        W 7163  31.990  17.224  10.978
38801W        W 7164  14.749  13.307   1.781
38802W        W 7165  34.369  25.195  12.466
38803W        W 7166  30.554  26.695   0.778
38804W        W 7167   5.767  15.807   0.901
38805W        W 7168  26.962  40.388   4.811
38806W        W 7169   7.325   6.249   3.833
38807W        W 7170   2.234   1.738   2.743
38808W        W 7171  23.490  12.789   4.130
38809W        W 7172  36.035  14.122  11.102
38810W        W 7173  44.935  24.061   1.714
38811W        W 7174  31.566  14.656  12.494
38812W        W 7175  11.211   5.758   2.361
38813W        W 7176  38.550  14.792  14.301
38814W        W 7177  18.258  11.320   1.775
38815W        W 7178  21.710  24.569   2.246
38816W        W 7179  38.473   2.311   2.688
38817W        W 7180  17.730  35.471   3.187
38818W        W 7181   5.426  38.847  10.410
38819W        W 7182  22.222  41.020  10.554
38820W        W 7183  44.775  25.112  11.600
38821W        W 7184  17.157  26.173  11.431
38822W        W 7185  26.102  28.594  12.895
38823W        W 7186  24.542   6.920   1.934
38824W        W 7187   2.463  12.818  12.993
38825W        W 7188  24.197  22.006  12.831
38826W        W 7189  38.076  22.183   4.830
38827W        W 7190   5.699  31.989   2.287
38828W        W 7191  15.684  20.154  12.913
38829W        W 7192  16.606  21.131  12.461
38830W        W 7193  23.637  14.806  13.992
38831W        W 7194  40.908  15.101   0.393
38832W        W 7195  34.612  23.495   1.427
38833W        W 7196   9.297   9.376   3.714
38834W        W 7197   5.257   2.410   1.388
38835W        W 7198  21.733   9.299  11.027
38836W        W 7199   8.786  19.278  12.986
38837W        W 7200  17.182   0.363   0.908
38838W        W 7201  17.099  35.362  14.356
38839W        W 7202  25.068   0.947   0.961
38840W        W 7203  25.533  15.114   2.878
38841W        W 7204   2.867  28.484  11.128
38842W        W 7205  17.281  39.835  14.771
38843W        W 7206  35.492  15.104   4.707
38844W        W 7207   8.250  15.805   4.333
38845W        W 7208  30.472  23.611  12.913
38846W        W 7209   6.751  24.690  11.063
38847W        W 7210  12.271  40.303   3.738
38848W        W 7211  22.104   2.403  11.968
38849W        W 7212  29.528  13.774  13.972
38850W        W 7213  23.153   0.962  13.457
38851W        W 7214  35.568   5.256   0.780
38852W        W 7215  25.478  42.851   4.654
38853W        W 7216  35.494  41.834   4.290
38854W        W 7217  15.272  23.194   0.404
38855W        W 7218  36.592  15.705  12.063
38856W        W 7219  42.863  10.255  13.063
38857W        W 7220   9.680  12.316  13.041
38858W        W 7221  38.525  34.558   1.928
38859W        W 7222   1.842  30.941   0.386
38860W        W 7223  35.493  19.740   4.209
38861W        W 7224  38.556   9.354   4.663
38862W        W 7225  30.102  40.893   2.284
38863W        W 7226  12.258  20.674   3.806
38864W        W 7227   4.378   1.395  14.962
38865W        W 7228   1.238  37.385  13.405
38866W        W 7229  12.799  27.532   0.430
38867W        W 7230  23.591   4.278  13.964
38868W        W 7231   9.227  37.420   0.735
38869W        W 7232  27.097  35.543   2.706
38870W        W 7233  43.471   2.879   1.849
38871W        W 7234  15.658  34.969  12.859
38872W        W 7235  37.444  22.708   5.173
38873W        W 7236  29.938   0.800  14.427
38874W        W 7237   4.893  31.138  11.861
38875W        W 7238   4.829  31.928   0.934
38876W        W 7239  13.108  23.155   2.315
38877W        W 7240  14.247  29.630  12.085
38878W        W 7241  31.462  24.159   0.757
38879W        W 7242   4.837   0.830  13.895
38880W        W 7243   2.966   8.313   0.933
38881W        W 7244  29.132  18.281   4.833
38882W        W 7245  44.937   9.304   4.247
38883W        W 7246  24.215  30.015  11.054
38884W        W 7247   4.378  33.042  12.492
38885W        W 7248  35.558   4.307  12.925
38886W        W 7249  22.700  40.451  10.434
38887W        W 7250  24.219  19.131   4.326
38888W        W 7251  25.971   8.741  10.988
38889W        W 7252  22.650  37.037  13.388
38890W        W 7253  40.922  32.885  12.892
38891W        W 7254   1.362  17.192   4.761
38892W        W 7255  28.113  20.058  14.852
38893W        W 7256  22.249  17.763  11.529
38894W        W 7257  31.498  11.268   0.482
38895W        W 7258  40.459   1.387  14.000
38896W        W 7259  38.891  38.556   0.301
38897W        W 7260  28.156  21.196  10.093
38898W        W 7261  33.100  28.102   0.287
38899W        W 7262  17.100  38.544  13.356
38900W        W 7263  28.626  35.976   4.629
38901W        W 7264  36.847  39.331   0.438
38902W        W 7265  17.732  29.601   3.212
38903W        W 7266  26.973  31.558  10.517
38904W        W 7267   0.909  21.525  10.607
38905W        W 7268   5.423  40.902   2.900
38906W        W 7269  10.634  15.664   2.356
38907W        W 7270  20.683  31.131  13.955
38908W        W 7271   2.252   4.871   0.422
38909W        W 7272   6.696  41.339   1.848
38910W        W 7273  31.403   8.837  11.466
38911W        W 7274  32.130  25.589   1.319
38912W        W 7275  17.133  27.637  11.907
38913W        W 7276  20.166  17.193   4.119
38914W        W 7277  18.717  25.152   4.788
38915W        W 7278  32.467  43.780   0.811
38916W        W 7279  23.193  12.317   4.649
38917W        W 7280   0.772  38.364   0.287
38918W        W 7281  38.503   1.439  12.448
38919W        W 7282   8.385  15.765  14.772
38920W        W 7283  17.790   0.296  14.461
38921W        W 7284  30.045   5.875  14.824
38922W        W 7285  37.344  33.601  10.608
38923W        W 7286   3.884  35.498   3.774
38924W        W 7287  30.094   1.739  10.517
38925W        W 7288  10.292  37.458  10.487
38926W        W 7289  21.718  32.607   0.328
38927W        W 7290  15.306  27.114   0.338
38928W        W 7291  44.927  40.345  12.563
38929W        W 7292  24.547  18.050   1.845
38930W        W 7293   3.388  20.244   0.909
38931W        W 7294  44.326   0.402   4.335
38932W        W 7295  21.173  18.552  12.483
38933W        W 7296   3.224   3.720   2.192
38934W        W 7297  39.499   4.375  12.095
38935W        W 7298  22.684  22.658   2.341
38936W        W 7299   6.346   8.875  14.957
38937W        W 7300   3.846  19.284  11.046
38938W        W 7301  28.618  10.659  11.464
38939W        W 7302  10.785  18.645  10.525
38940W        W 7303  39.895  18.589  10.942
38941W        W 7304  14.118   2.825  10.577
38942W        W 7305  40.925  13.655   4.136
38943W        W 7306  23.705  30.089  13.498
38944W        W 7307  15.158  22.237   0.402
38945W        W 7308  14.664  12.338  10.447
38946W        W 7309  37.898  22.006  14.978
38947W        W 7310  20.236  29.564  13.530
38948W        W 7311  29.623  17.159  12.084
38949W        W 7312   6.335  37.855   0.441
38950W        W 7313  17.753  22.513   2.223
38951W        W 7314  15.264  26.637   2.872
38952W        W 7315  11.631  42.463  13.905
38953W        W 7316   5.424  38.886  11.423
38954W        W 7317  32.499  38.045  10.510
38955W        W 7318  26.140   7.845   2.343
38956W        W 7319  29.577  27.538   2.676
38957W        W 7320   6.779  34.998   2.411
38958W        W 7321  27.053  28.610  11.435
38959W        W 7322  40.804  27.492   4.209
38960W        W 7323  16.152  42.831   1.751
38961W        W 7324   8.810   6.271  14.031
38962W        W 7325   2.845  25.473  12.339
38963W        W 7326  17.240  14.121  14.957
38964W        W 7327   6.877  39.434   3.745
38965W        W 7328  19.188  41.998   0.810
38966W        W 7329  40.406  18.549   4.237
38967W        W 7330  27.153  18.130   3.260
38968W        W 7331  19.203  23.182  12.991
38969W        W 7332   3.834  23.177  10.476
38970W        W 7333  35.911  13.332   5.293
38971W        W 7334  27.608  26.964  10.500
38972W        W 7335  43.897  12.730  14.010
38973W        W 7336   0.758  35.867   4.167
38974W        W 7337  28.525  31.511  10.986
38975W        W 7338   1.751   3.343  11.455
38976W        W 7339  41.938  28.942   0.275
38977W        W 7340   3.413  33.984  13.957
38978W        W 7341  29.609   4.919   4.132
38979W        W 7342  41.997  23.988   4.602
38980W        W 7343   2.408  14.277   0.432
38981W        W 7344   1.784  12.727  14.824
38982W        W 7345   8.745   9.365   3.764
38983W        W 7346  35.026  40.487  13.038
38984W        W 7347  20.180  16.618  14.859
38985W        W 7348  39.538  22.174  10.974
38986W        W 7349   8.817  27.527  10.903
38987W        W 7350  16.125  14.672  13.011
38988W        W 7351  26.005  13.741  12.514
38989W        W 7352  28.982   9.280   3.343
38990W        W 7353  17.612  28.448  13.949
38991W        W 7354  22.535   6.366  14.381
38992W        W 7355  38.518  32.616  10.904
38993W        W 7356   3.311  43.813  10.453
38994W        W 7357  41.880  43.827   4.339
38995W        W 7358  26.069   2.341  14.369
38996W        W 7359  39.063  22.562   0.475
38997W        W 7360  11.208   5.908  12.949
38998W        W 7361  36.074  35.896  10.514
38999W        W 7362  37.347  37.026   3.837
39000W        W 7363   1.263  10.653  12.964
39001W        W 7364   4.783  32.036   1.791
39002W        W 7365  26.609  37.882   2.764
39003W        W 7366  42.877   3.343  11.011
39004W        W 7367   7.288  42.281   1.271
39005W        W 7368  25.975  13.110  10.431
39006W        W 7369  38.362  10.732  11.926
39007W        W 7370  17.087  16.736   4.821
39008W        W 7371  18.156  19.210  12.018
39009W        W 7372  30.918  13.690  13.903
39010W        W 7373  12.815  11.251  13.930
39011W        W 7374  22.143  31.953  14.769
39012W        W 7375  31.402  12.124   2.215
39013W        W 7376  17.704  26.591  13.013
39014W        W 7377  31.454  19.667   0.343
39015W        W 7378  17.700  37.526  10.977
39016W        W 7379   7.414  12.170  12.369
39017W        W 7380  35.092  37.356   1.400
39018W        W 7381  23.513  14.121   4.190
39019W        W 7382  21.758  13.176  12.002
39020W        W 7383  25.481  44.443  10.075
39021W        W 7384  11.260  26.565  14.877
39022W        W 7385  33.499  13.612  12.945
39023W        W 7386  31.030  29.474  10.894
39024W        W 7387  24.496  15.276  12.513
39025W        W 7388  18.690  34.496  11.536
39026W        W 7389  25.661  34.085  13.933
39027W        W 7390  41.942  27.499  11.919
39028W        W 7391  30.975  37.017  13.889
39029W        W 7392  40.046  17.566  10.459
39030W        W 7393  33.125  34.539  11.491
39031W        W 7394  29.105  23.669  11.429
39032W        W 7395  14.671   7.908   1.231
39033W        W 7396  26.982  14.757  13.334
39034W        W 7397  21.693  17.300   4.781
39035W        W 7398   7.678  39.317   3.663
39036W        W 7399  12.695  27.037   4.824
39037W        W 7400  29.502  35.108   1.765
39038W        W 7401  27.662  16.781  11.556
39039W        W 7402  37.542  32.922  11.118
39040W        W 7403   6.419   1.952   2.717
39041W        W 7404   0.341  18.055  10.408
39042W        W 7405   5.334   3.376   4.650
39043W        W 7406  25.968  37.574  14.805
39044W        W 7407  44.973  37.477   4.703
39045W        W 7408  17.275  21.580  10.506
39046W        W 7409  37.072  12.800  12.961
39047W        W 7410  40.445  40.497  13.468
39048W        W 7411  22.544   0.293   2.240
39049W        W 7412   2.926  14.779  13.990
39050W        W 7413  42.894   3.874  12.064
39051W        W 7414  20.205  19.709  10.540
39052W        W 7415  43.370  37.346  12.375
39053W        W 7416  11.236  13.227  12.905
39054W        W 7417  25.984  28.458  14.386
39055W        W 7418  33.586  29.588  12.377
39056W        W 7419  22.591  34.554   1.419
39057W        W 7420  38.508  25.214   1.322
39058W        W 7421  31.081  12.126  11.478
39059W        W 7422  22.224   8.357  11.436
39060W        W 7423  27.943   0.376  12.033
39061W        W 7424   0.454  15.097  13.811
39062W        W 7425  20.090   6.707  14.451
39063W        W 7426  41.813  16.295   3.286
39064W        W 7427  11.863  22.712   3.733
39065W        W 7428  22.184  14.288   2.803
39066W        W 7429  31.557  38.005   1.236
39067W        W 7430  43.862  32.943   2.869
39068W        W 7431  43.504  11.842   4.226
39069W        W 7432  14.816  22.612  13.811
39070W        W 7433  38.973   9.157  13.053
39071W        W 7434  27.053  44.439  13.952
39072W        W 7435  33.578   7.847  12.560
39073W        W 7436  12.617   8.753   0.769
39074W        W 7437  34.397  25.132  14.006
39075W        W 7438  24.133  22.193   2.377
39076W        W 7439  11.764   7.405  12.089
39077W        W 7440  41.974  22.632  12.041
39078W        W 7441  19.116  15.770   4.712
39079W        W 7442  27.165  29.024  10.413
39080W        W 7443  22.627  41.018  10.995
39081W        W 7444  43.418  30.626   1.769
39082W        W 7445  19.563   1.856   1.808
39083W        W 7446  34.997  34.975   0.412
39084W        W 7447  20.220   4.436   1.910
39085W        W 7448  13.275  41.533   4.315
39086W        W 7449  17.302  22.190  12.523
39087W        W 7450  25.038  15.812  13.016
39088W        W 7451  25.638  12.230   2.767
39089W        W 7452  34.593   6.392   4.305
39090W        W 7453  10.274  15.118  10.516
39091W        W 7454  30.963  37.984   0.932
39092W        W 7455   0.326  40.311  12.387
39093W        W 7456  43.353  23.113   4.719
39094W        W 7457  20.610  40.042  13.899
39095W        W 7458  39.484  34.956   3.346
39096W        W 7459  12.688   4.942   2.322
39097W        W 7460  30.438  29.084  13.473
39098W        W 7461   2.855  43.291  10.899
39099W        W 7462  26.700   0.248  11.029
39100W        W 7463   1.823  17.654   2.840
39101W        W 7464  19.109  42.352  11.390
39102W        W 7465   9.262   9.841  13.318
39103W        W 7466  31.040   5.277   0.909
39104W        W 7467  42.485  24.065   0.356
39105W        W 7468  30.437  21.638   3.232
39106W        W 7469  15.815  20.630   0.266
39107W        W 7470  33.916  31.597  12.069
39108W        W 7471  26.043   6.310  10.625
39109W        W 7472  15.274  27.034  13.373
39110W        W 7473   9.727  11.129  10.423
39111W        W 7474  10.171  29.425   4.265
39112W        W 7475  25.093  37.365  10.967
39113W        W 7476  34.014  41.797   3.169
39114W        W 7477  27.001  23.577   0.435
39115W        W 7478  17.736   1.245  10.572
39116W        W 7479  20.230  14.151  14.936
39117W        W 7480  36.435  29.529  11.467
39118W        W 7481  31.447  15.290   2.847
39119W        W 7482  13.227  37.974  14.957
39120W        W 7483  12.808  13.739   1.285
39121W        W 7484  19.147  42.025  10.586
39122W        W 7485  32.900  35.926   3.373
39123W        W 7486  21.612  32.016  13.014
39124W        W 7487  26.988  37.411   1.311
39125W        W 7488  18.085   6.791   1.826
39126W        W 7489  23.578   5.429  12.431
39127W        W 7490  16.803  12.293   1.345
39128W        W 7491  40.049  44.458   3.325
39129W        W 7492   5.744  11.692  11.482
39130W        W 7493  19.721  12.274   0.900
39131W        W 7494  19.766  31.407   2.822
39132W        W 7495  27.514  25.081   2.262
39133W        W 7496  42.841   7.824   2.771
39134W        W 7497  19.668  23.520   0.302
39135W        W 7498  29.050  13.163   2.362
39136W        W 7499  23.657  20.172  12.986
39137W        W 7500   9.764   8.788   0.831
39138W        W 7501   3.380  33.129  12.478
39139W        W 7502  26.974  39.954  14.021
39140W        W 7503  16.307  39.407  14.946
39141W        W 7504  15.286  24.572   2.702
39142W        W 7505  11.797   1.302   2.370
39143W        W 7506  33.086  42.826   1.356
39144W        W 7507  23.103  33.575   0.868
39145W        W 7508   8.302  24.525   1.322
39146W        W 7509  10.728  35.450   2.270
39147W        W 7510  34.422  33.596  10.078
39148W        W 7511   5.859  29.160   4.338
39149W        W 7512  39.876   4.756   2.818
39150W        W 7513  44.260  16.781   2.292
39151W        W 7514  38.017  11.219  13.529
39152W        W 7515  22.024  25.631   0.850
39153W        W 7516  19.748   9.366  14.336
39154W        W 7517  34.596  12.343   3.674
39155W        W 7518  15.209  18.135  10.100
39156W        W 7519  36.513  34.445  12.368
39157W        W 7520  20.737  41.874   2.756
39158W        W 7521  24.538  17.199   3.770
39159W        W 7522   7.317  44.858  12.396
39160W        W 7523   1.423   7.171  11.955
39161W        W 7524  11.148   0.871  14.926
39162W        W 7525  10.643   9.395   0.898
39163W        W 7526  15.314  30.560  11.915
39164W        W 7527  18.721  35.478  10.416
39165W        W 7528  35.048  35.939  11.522
39166W        W 7529  36.983  21.620  14.844
39167W        W 7530   5.429  44.479  10.158
39168W        W 7531  28.154   0.816   0.776
39169W        W 7532  20.075   4.735   1.726
39170W        W 7533  29.952  19.679   0.830
39171W        W 7534  22.108  26.161  14.855
39172W        W 7535  38.031  18.268   3.226
39173W        W 7536   2.313  29.080   5.106
39174W        W 7537  18.562   4.358   0.478
39175W        W 7538  35.040   9.725   0.258
39176W        W 7539  29.138  14.663  12.510
39177W        W 7540  19.090  12.771  13.958
39178W        W 7541  23.054  29.554   3.690
39179W        W 7542  33.500  11.327  12.907
39180W        W 7543   6.731  25.472  13.940
39181W        W 7544  20.753  12.774  14.476
39182W        W 7545  11.836  34.911  10.444
39183W        W 7546  41.799  35.406  12.860
39184W        W 7547  18.218  39.332  10.590
39185W        W 7548   7.234   9.195  12.848
39186W        W 7549  20.743  36.961   1.407
39187W        W 7550  15.314  43.963   1.767
39188W        W 7551  38.871  29.087  11.524
39189W        W 7552  41.297  33.072  11.566
39190W        W 7553  35.430  32.511  11.008
39191W        W 7554  22.221  23.692   3.669
39192W        W 7555  32.446  23.712  12.845
39193W        W 7556  13.715  20.064  11.891
39194W        W 7557  42.025  29.531   1.424
39195W        W 7558  18.651  34.886   4.641
39196W        W 7559  13.152  22.613   1.707
39197W        W 7560  41.790   4.938   2.197
39198W        W 7561  31.009  43.350   4.140
39199W        W 7562  26.683  40.854  14.929
39200W        W 7563  23.527  23.120  11.445
39201W        W 7564   8.372  26.647   1.286
39202W        W 7565  16.121  22.124   3.384
39203W        W 7566   9.674  15.770   4.165
39204W        W 7567  17.226   1.359   4.157
39205W        W 7568  41.472   7.671   1.917
39206W        W 7569  15.749  38.451   4.245
39207W        W 7570   5.873  40.009   0.784
39208W        W 7571   6.709  40.925  14.300
39209W        W 7572  34.961   4.239   0.434
39210W        W 7573   4.401  27.461  12.578
39211W        W 7574   0.301  31.970   3.177
39212W        W 7575   1.840   2.249  10.596
39213W        W 7576  26.470  26.635   3.735
39214W        W 7577   6.865  11.257   2.271
39215W        W 7578  38.844  30.971   3.683
39216W        W 7579  42.949   8.196  13.826
39217W        W 7580  20.170  34.021  13.519
39218W        W 7581  35.882   3.863   3.216
39219W        W 7582  38.056  19.040  10.924
39220W        W 7583  10.695  32.016  11.888
39221W        W 7584  21.055  30.023   4.751
39222W        W 7585  21.640  42.356  13.840
39223W        W 7586  17.156  18.169   3.749
39224W        W 7587  27.446  21.515  12.360
39225W        W 7588  36.362  29.425  14.323
39226W        W 7589  25.049  14.819  14.876
39227W        W 7590  42.421  18.704   2.315
39228W        W 7591  28.984   6.394  10.923
39229W        W 7592   3.342   6.684   3.368
39230W        W 7593  29.540   6.760   0.473
39231W        W 7594  43.340  33.432  14.320
39232W        W 7595   5.329   4.385   4.666
39233W        W 7596  34.103  20.661   0.286
39234W        W 7597  15.664  28.534   3.727
39235W        W 7598  26.972  32.564   0.273
39236W        W 7599  36.430  17.764  12.945
39237W        W 7600  27.184  14.231   1.449
39238W        W 7601   7.389   0.946  11.488
39239W        W 7602   4.446   4.299   3.704
39240W        W 7603   3.424  22.226   2.807
39241W        W 7604  18.597   9.752  14.764
39242W        W 7605  43.501   0.297   1.248
39243W        W 7606  32.399  44.775   4.682
39244W        W 7607  10.360  19.752   0.943
39245W        W 7608   2.238  31.961  12.045
39246W        W 7609  18.625   4.439   3.838
39247W        W 7610  44.317  32.950   1.831
39248W        W 7611   5.932  16.085   4.681
39249W        W 7612  27.985  14.614  13.050
39250W        W 7613  33.050   6.192   2.314
39251W        W 7614  29.639  26.198  10.629
39252W        W 7615  35.985   3.280  14.374
39253W        W 7616  44.883  18.077   3.208
39254W        W 7617  34.588  36.998   4.827
39255W        W 7618  20.271   1.749  11.431
39256W        W 7619   8.679   5.896  14.424
39257W        W 7620  27.190  17.294  12.050
39258W        W 7621  21.200  44.494  12.476
39259W        W 7622  23.571  24.077  11.933
39260W        W 7623   2.313  22.733   5.136
39261W        W 7624  18.551  36.026   4.672
39262W        W 7625  42.981   0.258   0.854
39263W        W 7626  20.628   4.768   2.878
39264W        W 7627  29.934  24.715   1.281
39265W        W 7628  26.658  39.981   4.786
39266W        W 7629  28.597  26.194   3.651
39267W        W 7630  20.541  18.063  10.893
39268W        W 7631  11.139  29.969   2.400
39269W        W 7632   5.220  19.696  10.605
39270W        W 7633  33.130  29.017   2.334
39271W        W 7634  39.856  43.370  12.095
39272W        W 7635   8.334  20.753   1.383
39273W        W 7636  32.073  17.801  14.407
39274W        W 7637  16.279  11.730  10.410
39275W        W 7638   2.412  37.852   1.734
39276W        W 7639  24.118  30.591  14.295
39277W        W 7640  19.602  33.443  14.841
39278W        W 7641  19.254   2.863  13.417
39279W        W 7642  10.767   0.884  12.578
39280W        W 7643  13.230  23.063   3.827
39281W        W 7644  22.684   3.760  14.286
39282W        W 7645  20.215  14.619  10.890
39283W        W 7646  38.418  40.017  11.543
39284W        W 7647   4.767  25.016  14.501
39285W        W 7648  35.504   3.441   1.356
39286W        W 7649  37.385  23.232   2.226
39287W        W 7650  19.731   7.254  13.794
39288W        W 7651  29.944  27.467  13.807
39289W        W 7652  36.061  39.950   2.329
39290W        W 7653  33.567  40.384  13.056
39291W        W 7654  30.150  39.476   0.813
39292W        W 7655  39.485  44.447   0.800
39293W        W 7656  20.561  31.589  11.395
39294W        W 7657  25.040  23.639  14.399
39295W        W 7658  16.623  37.919   0.479
39296W        W 7659  41.022  10.202   4.208
39297W        W 7660   4.813  28.082  11.949
39298W        W 7661  18.725   5.361  14.428
39299W        W 7662  20.249  37.016  14.467
39300W        W 7663  15.754   7.835  14.836
39301W        W 7664  22.163  34.970  11.860
39302W        W 7665  42.332  33.058   3.371
39303W        W 7666  32.611  14.627   4.180
39304W        W 7667  43.439   2.375   3.174
39305W        W 7668   3.719  26.568  10.966
39306W        W 7669   8.373  38.490  10.500
39307W        W 7670  15.594  13.344  11.599
39308W        W 7671   6.680  21.077   1.355
39309W        W 7672  31.012   4.789   2.776
39310W        W 7673  14.130   5.729  12.501
39311W        W 7674   8.233   8.897   0.334
39312W        W 7675  33.087   1.878  12.064
39313W        W 7676  44.903  37.033  10.108
39314W        W 7677   3.399  39.459   0.259
39315W        W 7678  32.933  44.262  14.989
39316W        W 7679   1.441  21.017   2.232
39317W        W 7680  31.098  18.549  11.939
39318W        W 7681  19.588  37.068  12.409
39319W        W 7682  27.979   4.910  12.554
39320W        W 7683  14.132  38.482   4.836
39321W        W 7684  12.739  15.605   2.727
39322W        W 7685  38.429  13.189   2.399
39323W        W 7686  40.000  22.016   3.274
39324W        W 7687  44.940  43.453  13.311
39325W        W 7688  31.462  38.341   2.893
39326W        W 7689   0.905  28.117  11.057
39327W        W 7690  25.587  41.401   3.371
39328W        W 7691   9.744  23.201   0.839
39329W        W 7692   2.852  40.987  12.057
39330W        W 7693  23.096  20.215   4.307
39331W        W 7694   0.890  34.427   1.790
39332W        W 7695  39.359  19.625   0.421
39333W        W 7696   6.251  10.639   4.742
39334W        W 7697   8.204  17.613   3.728
39335W        W 7698  35.454  10.868   4.301
39336W        W 7699   8.342  42.358  12.580
39337W        W 7700  29.139   5.765  14.426
39338W        W 7701  41.017   9.694   3.235
39339W        W 7702   0.455  32.535   4.353
39340W        W 7703  11.365  14.602  12.894
39341W        W 7704  36.423  38.496   2.352
39342W        W 7705  30.017  43.511  12.507
39343W        W 7706  42.825  17.726   2.319
39344W        W 7707   7.745  27.551   0.779
39345W        W 7708  14.630   1.805   1.441
39346W        W 7709  20.136  13.652   2.900
39347W        W 7710  12.314   3.357  14.487
39348W        W 7711  43.406  27.614   2.224
39349W        W 7712   0.314  17.740  11.404
39350W        W 7713  15.201   2.288  10.420
39351W        W 7714   0.818  20.157  14.782
39352W        W 7715  27.982  28.987  14.367
39353W        W 7716  27.954  11.366   2.866
39354W        W 7717  43.286  39.482  10.477
39355W        W 7718  39.496   0.838   0.307
39356W        W 7719  35.983  26.529   1.398
39357W        W 7720  30.647  19.541  13.390
39358W        W 7721  15.623  22.626   5.153
39359W        W 7722  13.341  23.050   1.396
39360W        W 7723  30.044  14.713   3.244
39361W        W 7724   7.892   1.254   2.862
39362W        W 7725  28.112  22.112   1.696
39363W        W 7726  15.155  20.676  10.520
39364W        W 7727   0.926  19.769   1.435
39365W        W 7728  20.694  23.684   2.893
39366W        W 7729  18.580  25.192   0.960
39367W        W 7730  12.784   5.226  14.482
39368W        W 7731   3.344  29.549  12.358
39369W        W 7732  42.801   6.295  12.923
39370W        W 7733   4.204   9.841   3.712
39371W        W 7734  34.373  29.923  11.027
39372W        W 7735  44.862   7.352  11.482
39373W        W 7736  40.390  43.019  13.818
39374W        W 7737   2.858  25.498   1.817
39375W        W 7738  36.465  25.487  14.826
39376W        W 7739  15.811  15.673   0.852
39377W        W 7740  12.151   5.887  12.926
39378W        W 7741  37.383  22.667  10.420
39379W        W 7742  14.270  29.973   2.719
39380W        W 7743  25.968   5.285  13.321
39381W        W 7744  33.472  43.473  13.505
39382W        W 7745   8.387  37.838  14.953
39383W        W 7746  16.592   5.362   4.743
39384W        W 7747  14.265  37.870  10.513
39385W        W 7748  40.965  27.995  10.544
39386W        W 7749  12.242  33.018   0.904
39387W        W 7750  24.122  25.052  10.071
39388W        W 7751  16.764  15.582   1.907
39389W        W 7752  33.119  10.255  13.527
39390W        W 7753  25.532  17.765   1.256
39391W        W 7754  39.885  14.589  12.922
39392W        W 7755  40.332  26.702  10.929
39393W        W 7756  36.943  16.743  14.935
39394W        W 7757  39.991  40.038   1.271
39395W        W 7758  40.039   5.296   1.223
39396W        W 7759   5.300  14.166  12.019
39397W        W 7760  22.633  38.445  10.432
39398W        W 7761  24.540   8.836  11.541
39399W        W 7762  12.610  33.083  14.468
39400W        W 7763  20.718  14.726  13.476
39401W        W 7764  18.197   0.954  11.964
39402W        W 7765  33.052  10.350   3.689
39403W        W 7766  16.620   4.781  13.470
39404W        W 7767  25.611   6.386  14.284
39405W        W 7768  35.471  17.646   2.182
39406W        W 7769  18.656  27.636  10.446
39407W        W 7770  18.567   3.442  14.323
39408W        W 7771  15.607   6.771   0.812
39409W        W 7772  15.816  32.995  12.934
39410W        W 7773  39.970  38.482   2.201
39411W        W 7774  39.489  37.962  12.023
39412W        W 7775  24.700  29.155  11.076
39413W        W 7776   3.391  41.038  12.995
39414W        W 7777   4.858  26.068   4.691
39415W        W 7778  39.456  44.967   0.828
39416W        W 7779  38.510  19.220  12.038
39417W        W 7780  38.376  27.534   1.725
39418W        W 7781   5.427   8.374   4.132
39419W        W 7782  33.913  27.492   4.140
39420W        W 7783  22.537  24.570   1.736
39421W        W 7784  34.991  23.232  13.309
39422W        W 7785   0.424  12.799   3.655
39423W        W 7786   5.919  43.290   1.827
39424W        W 7787   7.382  31.441   0.379
39425W        W 7788   8.899  30.028   3.662
39426W        W 7789   0.926  34.528   0.947
39427W        W 7790  18.697  24.037   2.217
39428W        W 7791  36.849  23.081   4.636
39429W        W 7792  12.277  14.691  14.940
39430W        W 7793   9.289  15.302  13.314
39431W        W 7794  36.095  41.445  14.302
39432W        W 7795  44.283  21.623  10.029
39433W        W 7796   3.896  34.934   4.837
39434W        W 7797   9.812  41.950  14.995
39435W        W 7798   8.375  29.154   3.663
39436W        W 7799  21.053  38.988   2.382
39437W        W 7800  13.175  39.860   5.269
39438W        W 7801  31.488  20.089  13.990
39439W        W 7802   4.823  42.365   0.906
39440W        W 7803  22.694  25.583  12.534
39441W        W 7804  35.434  23.132   4.314
39442W        W 7805   8.179  19.611  13.380
39443W        W 7806  25.511  14.638  11.080
39444W        W 7807  25.693  40.049  12.370
39445W        W 7808   6.189  44.778  11.888
39446W        W 7809  36.031  28.629  11.015
39447W        W 7810  29.067  25.052  10.588
39448W        W 7811  42.508  20.183   1.222
39449W        W 7812  19.751   9.235  12.457
39450W        W 7813  44.414  20.037  14.312
39451W        W 7814  37.505  23.556   3.701
39452W        W 7815  20.588  16.800   0.291
39453W        W 7816  33.468   7.755  11.903
39454W        W 7817  35.902   5.769  11.958
39455W        W 7818  38.835   9.837  12.966
39456W        W 7819  43.778  21.075   0.320
39457W        W 7820  38.062  37.892   1.863
39458W        W 7821  33.958   3.728  14.410
39459W        W 7822   0.488  16.189  13.821
39460W        W 7823  30.932  21.019  11.470
39461W        W 7824  20.604  34.973  11.454
39462W        W 7825  28.660  27.024   4.830
39463W        W 7826   6.765   2.915  14.014
39464W        W 7827  20.750  42.897   0.402
39465W        W 7828   6.848  33.562  13.378
39466W        W 7829  27.957  10.843   2.857
39467W        W 7830  40.820  18.772  14.461
39468W        W 7831  40.798  27.075  12.965
39469W        W 7832  30.957  39.486  13.885
39470W        W 7833   5.207  37.056   4.339
39471W        W 7834   6.678  27.483   4.708
39472W        W 7835  28.464  22.998   4.322
39473W        W 7836  39.547  27.000   0.786
39474W        W 7837  39.878  23.559   4.831
39475W        W 7838  28.983  22.590  12.848
39476W        W 7839   8.828  27.580   2.867
39477W        W 7840  28.525  13.682   5.308
39478W        W 7841   1.473   6.206  14.431
39479W        W 7842  37.470  40.356   5.166
39480W        W 7843  32.929   9.736  12.040
39481W        W 7844  44.277  17.652  10.632
39482W        W 7845  16.712   3.447  11.911
39483W        W 7846   8.364  42.829   3.281
39484W        W 7847  34.868  38.505  13.334
39485W        W 7848   8.384  20.714   0.355
39486W        W 7849  44.892  29.522  12.395
39487W        W 7850  42.024  29.616   2.769
39488W        W 7851   3.850  36.357  11.484
39489W        W 7852  36.395  35.464   2.240
39490W        W 7853  12.644  14.686  14.313
39491W        W 7854   3.315  34.049  11.069
39492W        W 7855  43.399   1.260  13.369
39493W        W 7856  17.567   6.322   2.357
39494W        W 7857  10.868  42.939   1.745
39495W        W 7858  36.967  25.475  10.492
39496W        W 7859  33.430  17.727  14.914
39497W        W 7860   7.830  19.279  13.375
39498W        W 7861   5.863  18.093  13.871
39499W        W 7862  35.358  39.882  12.363
39500W        W 7863  26.996   3.423   2.189
39501W        W 7864   4.912  15.624  12.454
39502W        W 7865  23.043  31.989   2.405
39503W        W 7866  18.078   7.796  11.446
39504W        W 7867   0.816  27.951   0.875
39505W        W 7868   2.962   0.274   0.255
39506W        W 7869   9.842  12.665  13.035
39507W        W 7870  35.898   8.344   4.302
39508W        W 7871  20.674  32.452  13.461
39509W        W 7872  16.805  40.830   3.218
39510W        W 7873  27.540  14.735   3.320
39511W        W 7874  23.211  23.024   4.165
39512W        W 7875   2.389  37.831   3.651
39513W        W 7876  30.457  27.680  12.485
39514W        W 7877  32.896  13.641  11.976
39515W        W 7878  28.167  36.969  12.500
39516W        W 7879  39.527  14.270   4.167
39517W        W 7880  18.587  40.929  12.559
39518W        W 7881   2.264  12.162  14.947
39519W        W 7882  19.286  36.037  10.994
39520W        W 7883  15.087  39.989  12.525
39521W        W 7884  34.925  30.433   4.696
39522W        W 7885  34.600   3.903   2.391
39523W        W 7886  28.565  44.986  13.518
39524W        W 7887  20.650  17.724  12.863
39525W        W 7888  20.696  34.431  14.950
39526W        W 7889  42.298   4.910  11.041
39527W        W 7890   7.301  37.477  10.620
39528W        W 7891  14.291   9.885  12.898
39529W        W 7892  38.886  10.642   3.310
39530W        W 7893  44.880  35.384   4.165
39531W        W 7894  36.065   2.346  10.523
39532W        W 7895  27.449  35.551  14.320
39533W        W 7896  34.592  39.836   1.759
39534W        W 7897  37.388   6.304  13.413
39535W        W 7898  43.380  33.110  12.059
39536W        W 7899  35.093  26.668   2.785
39537W        W 7900  43.398   9.346   2.833
39538W        W 7901  43.390   3.351  13.873
39539W        W 7902  20.205  25.711   4.805
39540W        W 7903  37.012   7.188  10.559
39541W        W 7904  14.142   1.412   1.337
39542W        W 7905  31.006  39.867   4.304
39543W        W 7906  15.578   4.238  11.514
39544W        W 7907  42.427  20.680   2.819
39545W        W 7908  17.114   7.214  10.996
39546W        W 7909  40.971  27.542   2.808
39547W        W 7910  38.918  35.566   0.749
39548W        W 7911  19.088   1.753  14.981
39549W        W 7912  36.515   5.397   0.409
39550W        W 7913  29.038  39.916   1.887
39551W        W 7914  19.274  34.964  10.407
39552W        W 7915  32.615  27.624   5.622
39553W        W 7916   3.858   0.405   0.889
39554W        W 7917  15.311  34.978  12.578
39555W        W 7918  43.436  16.165   4.818
39556W        W 7919  18.176   8.340   0.428
39557W        W 7920  29.933  37.067  12.342
39558W        W 7921   4.712  42.874   4.743
39559W        W 7922  15.782  38.560  13.458
39560W        W 7923  39.530  21.158   0.737
39561W        W 7924  42.793  31.024  13.471
39562W        W 7925  32.071  31.513  13.419
39563W        W 7926  10.349  22.158   4.662
39564W        W 7927  44.351  42.351  12.969
39565W        W 7928   0.253  19.046  11.392
39566W        W 7929  20.663   3.387  13.524
39567W        W 7930  42.855   4.939   0.876
39568W        W 7931  23.109  35.972  13.906
39569W        W 7932   1.366  36.591   3.273
39570W        W 7933  25.213  14.190   3.149
39571W        W 7934   4.308  30.109   1.227
39572W        W 7935   7.412  19.690  14.462
39573W        W 7936  26.955   3.370  12.496
39574W        W 7937  32.446  19.164  11.069
39575W        W 7938  18.783  24.641   1.401
39576W        W 7939  35.430   7.392  12.856
39577W        W 7940  13.285  34.914  10.552
39578W        W 7941  29.458  34.940  10.632
39579W        W 7942  33.933  29.450   1.712
39580W        W 7943   0.270  23.580  11.875
39581W        W 7944  26.658  43.392   0.878
39582W        W 7945  21.058   7.406   9.958
39583W        W 7946  43.798  34.500   1.737
39584W        W 7947  44.395  29.175  12.961
39585W        W 7948  29.134  19.560  11.458
39586W        W 7949   4.266  24.163   5.792
39587W        W 7950  10.861  44.972   4.154
39588W        W 7951  12.336  32.613  11.590
39589W        W 7952  25.558  27.651   0.365
39590W        W 7953  15.695  16.224  10.438
39591W        W 7954  33.083  35.991   2.189
39592W        W 7955  41.535  36.984  13.932
39593W        W 7956  44.808   0.313  10.416
39594W        W 7957   8.803  42.967  13.537
39595W        W 7958  42.320  25.678  12.872
39596W        W 7959   7.891   4.811  14.299
39597W        W 7960  17.098  13.110  14.507
39598W        W 7961   0.826  44.489  11.378
39599W        W 7962  33.402  39.933  13.034
39600W        W 7963  43.385  27.086  11.424
39601W        W 7964  11.267  32.461  12.384
39602W        W 7965   6.728  15.145  11.925
39603W        W 7966  15.155  36.451  14.875
39604W        W 7967  30.158   9.309   3.283
39605W        W 7968  42.495  20.238   0.796
39606W        W 7969  38.374  31.003  14.891
39607W        W 7970  13.215  25.047   1.792
39608W        W 7971  12.177  38.967  10.563
39609W        W 7972  34.534  25.487   4.672
39610W        W 7973  14.174   0.866   4.256
39611W        W 7974  42.515  24.516   1.718
39612W        W 7975   9.229  40.313   2.753
39613W        W 7976  20.104  38.015   4.211
39614W        W 7977  13.323  10.346   9.944
39615W        W 7978   0.312   6.821   1.296
39616W        W 7979   7.820  24.687   3.257
39617W        W 7980  27.590  17.559  12.363
39618W        W 7981  16.791  37.999  14.280
39619W        W 7982  10.333  33.575  11.065
39620W        W 7983   1.942  29.508  14.773
39621W        W 7984   7.335  29.003  12.407
39622W        W 7985   4.295  12.666   1.417
39623W        W 7986  29.535  23.082   1.902
39624W        W 7987   4.340   6.339   0.812
39625W        W 7988  27.195  22.605  13.056
39626W        W 7989  36.875   4.729   1.706
39627W        W 7990  42.867  37.924   4.196
39628W        W 7991  19.601  41.475  13.546
39629W        W 7992  27.973  15.596   4.796
39630W        W 7993  35.580  35.040   1.348
39631W        W 7994  37.370  36.898  13.503
39632W        W 7995   9.204  37.082  14.402
39633W        W 7996  36.009  11.681   3.242
39634W        W 7997   7.844  12.317  10.496
39635W        W 7998   3.750  28.582   1.406
39636W        W 7999   5.843  23.101   1.404
39637W        W 8000  13.341  32.535  13.025
39638W        W 8001  37.417  20.210  11.988
39639W        W 8002   5.911   2.839  13.842
39640W        W 8003  23.081  29.053   1.829
39641W        W 8004   5.310  21.155  14.357
39642W        W 8005  11.654  16.771  13.366
39643W        W 8006   0.359  27.994  12.393
39644W        W 8007  19.588  31.028   4.300
39645W        W 8008  10.219  20.184   3.708
39646W        W 8009  19.192  14.612  13.415
39647W        W 8010  13.119  36.012   2.875
39648W        W 8011  13.730  14.621  10.503
39649W        W 8012  40.326  26.985  13.905
39650W        W 8013  34.075  37.055  13.402
39651W        W 8014  20.527  25.478  12.970
39652W        W 8015   1.335  39.039   3.275
39653W        W 8016  34.497   1.948   1.807
39654W        W 8017  17.202  29.439  13.547
39655W        W 8018  13.130  28.048   0.248
39656W        W 8019  22.121  35.512  11.120
39657W        W 8020  28.620  31.076   4.637
39658W        W 8021  15.308  13.747  14.506
39659W        W 8022  32.048  32.920   4.771
39660W        W 8023  33.593   6.685   1.287
39661W        W 8024  31.897  34.917   3.797
39662W        W 8025  42.314  29.113   0.792
39663W        W 8026  10.197   1.468  11.047
39664W        W 8027  25.048  31.074  11.501
39665W        W 8028   5.407  21.148   2.851
39666W        W 8029  35.560  34.953   1.818
39667W        W 8030   3.219  35.475   0.773
39668W        W 8031  23.165   8.891  11.437
39669W        W 8032   3.881  41.414   0.387
39670W        W 8033  25.084  24.713  14.879
39671W        W 8034  43.342  35.489   0.756
39672W        W 8035   1.782  31.917  11.569
39673W        W 8036  39.350  18.699  12.492
39674W        W 8037  27.962  33.432   1.850
39675W        W 8038  14.697  28.155   0.325
39676W        W 8039  24.478  13.295   0.736
39677W        W 8040  15.720  10.659   4.133
39678W        W 8041  38.869  24.656  12.946
39679W        W 8042  12.242  38.420  13.949
39680W        W 8043  44.477  41.927   1.930
39681W        W 8044  14.122  15.776  11.125
39682W        W 8045  16.686   7.229  12.568
39683W        W 8046  21.743  43.493   1.333
39684W        W 8047  38.053  39.052  10.603
39685W        W 8048  26.966  30.482   0.938
39686W        W 8049  27.138   0.834   4.271
39687W        W 8050  37.544  33.530   3.285
39688W        W 8051  11.373  20.064   1.723
39689W        W 8052  19.224  32.008   3.207
39690W        W 8053  31.463   2.839  13.482
39691W        W 8054  43.490   9.666   4.714
39692W        W 8055  13.267  38.930   1.718
39693W        W 8056   6.794  34.511  10.566
39694W        W 8057  41.928  23.661   3.168
39695W        W 8058   1.932  29.174  12.902
39696W        W 8059  43.420  12.269  14.903
39697W        W 8060  40.842   7.763   2.249
39698W        W 8061  10.690  28.444  12.552
39699W        W 8062   7.203  25.529  13.820
39700W        W 8063  44.910  34.416  13.829
39701W        W 8064  18.186   5.902  12.855
39702W        W 8065  42.939  30.653   1.769
39703W        W 8066  10.172  29.116  13.526
39704W        W 8067  11.328  33.609  11.113
39705W        W 8068  24.077  34.864  12.999
39706W        W 8069  17.258  39.930   1.430
39707W        W 8070   9.771   3.275   0.354
39708W        W 8071   2.897   9.269   2.333
39709W        W 8072  11.316  42.370  14.999
39710W        W 8073   3.355   0.313   2.700
39711W        W 8074  25.010  32.947  11.890
39712W        W 8075  42.461  25.171  13.008
39713W        W 8076  36.039  19.124   4.677
39714W        W 8077  19.544  43.001   3.695
39715W        W 8078  29.084  20.577  11.014
39716W        W 8079  23.582  13.726   3.359
39717W        W 8080   9.255  36.984   4.172
39718W        W 8081  33.491  22.252   4.237
39719W        W 8082  34.427  21.018  11.478
39720W        W 8083  32.020   9.824   4.265
39721W        W 8084  15.191  37.484   1.839
39722W        W 8085  20.701   0.418   3.765
39723W        W 8086  32.411  34.875   2.398
39724W        W 8087   1.777  42.502  13.367
39725W        W 8088  19.571  23.663   9.967
39726W        W 8089  15.589  23.682  12.534
39727W        W 8090  44.313  28.678  11.530
39728W        W 8091  38.949   2.861  13.463
39729W        W 8092  20.063  26.635  13.341
39730W        W 8093  22.049  23.113  13.042
39731W        W 8094  14.320  10.347   0.467
39732W        W 8095  20.740  11.711   3.760
39733W        W 8096  24.489  31.125  13.538
39734W        W 8097  34.104  13.249   0.795
39735W        W 8098  18.743  13.631   3.790
39736W        W 8099  11.163  12.727   2.820
39737W        W 8100   3.786   8.886  12.473
39738W        W 8101  22.230   9.356  13.489
39739W        W 8102  28.626  30.161   2.865
39740W        W 8103  35.387  27.552  10.481
39741W        W 8104  10.799  16.813   4.197
39742W        W 8105  31.042  20.700   3.307
39743W        W 8106  27.126  39.846   4.833
39744W        W 8107  26.967  38.363   2.818
39745W        W 8108  38.001  12.212   0.743
39746W        W 8109  15.578   2.452   0.315
39747W        W 8110  26.070   9.233   2.198
39748W        W 8111   2.409  30.599   1.922
39749W        W 8112  39.481  15.177   2.874
39750W        W 8113  41.311  34.400   3.211
39751W        W 8114  39.962  23.707   1.382
39752W        W 8115  21.091  21.587  10.551
39753W        W 8116  33.977  24.197   3.218
39754W        W 8117  10.754  29.986  12.920
39755W        W 8118   7.733  10.667   0.280
39756W        W 8119   9.838  35.007   0.432
39757W        W 8120  36.451  37.924   4.628
39758W        W 8121  18.208  41.406  12.938
39759W        W 8122  10.681  39.487   4.267
39760W        W 8123  35.885  25.635  13.033
39761W        W 8124   6.422   9.686   1.848
39762W        W 8125  44.787  37.886  13.927
39763W        W 8126  29.662  25.189  14.944
39764W        W 8127  36.862  29.467   4.261
39765W        W 8128  13.704  35.033   3.686
39766W        W 8129   9.809  24.669   2.196
39767W        W 8130   0.925   2.768   0.424
39768W        W 8131  39.372  10.213  13.329
39769W        W 8132  42.915  12.737  10.480
39770W        W 8133  27.178   1.817  11.396
39771W        W 8134  15.118  44.961  13.973
39772W        W 8135   1.799  24.053  11.948
39773W        W 8136  24.640  38.869  11.447
39774W        W 8137  10.811  21.603  14.335
39775W        W 8138  27.197  27.535   0.956
39776W        W 8139   3.327  21.196  13.923
39777W        W 8140   1.894  26.573  12.480
39778W        W 8141  16.670  31.129  11.601
39779W        W 8142  31.931  38.355   3.702
39780W        W 8143   1.901  29.112   3.811
39781W        W 8144  42.912   7.310  14.836
39782W        W 8145   4.757   7.802   4.243
39783W        W 8146  20.589  23.557  11.496
39784W        W 8147  22.039   6.371  14.433
39785W        W 8148   6.332  21.580   2.205
39786W        W 8149  35.393  28.492   2.758
39787W        W 8150  41.323  40.537   3.225
39788W        W 8151  25.127  44.953  14.843
39789W        W 8152  44.327   3.332  14.811
39790W        W 8153  31.120  42.360  13.462
39791W        W 8154  24.632  21.028  10.111
39792W        W 8155  24.172  38.425  10.627
39793W        W 8156  35.521   8.787   1.335
39794W        W 8157  42.317  35.942   1.359
39795W        W 8158  12.625  14.118  10.961
39796W        W 8159  31.422  36.531   1.214
39797W        W 8160  14.112  33.607  10.923
39798W        W 8161  29.998  18.585   3.744
39799W        W 8162   5.698  40.971  11.936
39800W        W 8163  18.282  30.945   3.702
39801W        W 8164  35.015  21.650  14.024
39802W        W 8165  11.215  21.672  11.478
39803W        W 8166  25.962  16.671   4.643
39804W        W 8167  32.600  18.057   3.311
39805W        W 8168  42.798  40.339   4.302
39806W        W 8169  11.256  28.540  14.857
39807W        W 8170  21.174  22.513   4.784
39808W        W 8171  35.000  10.204   4.173
39809W        W 8172  13.327  20.706  13.995
39810W        W 8173  27.503  27.142  11.009
39811W        W 8174  25.642  29.094  12.064
39812W        W 8175  15.201  38.845  12.825
39813W        W 8176  17.125  38.027  14.853
39814W        W 8177  34.412  19.626   5.142
39815W        W 8178  38.977  31.453  12.831
39816W        W 8179  17.740  28.678   0.782
39817W        W 8180  20.711  40.347   4.697
39818W        W 8181  27.194  33.531  11.049
39819W        W 8182  19.615   2.765   2.743
39820W        W 8183  20.229   0.887  10.460
39821W        W 8184  34.452  20.736  10.940
39822W        W 8185  37.980  40.527  11.400
39823W        W 8186  19.063  35.997   2.718
39824W        W 8187  39.343   1.469  11.440
39825W        W 8188  41.023  22.628   2.409
39826W        W 8189  30.540  14.820  11.020
39827W        W 8190  25.497  26.480   2.306
39828W        W 8191  42.319  16.124   1.273
39829W        W 8192  28.502  36.532   3.830
39830W        W 8193  17.269  33.405  14.012
39831W        W 8194  34.446  37.487   1.257
39832W        W 8195  35.055  40.019   3.184
39833W        W 8196  22.201  22.526   0.742
39834W        W 8197  10.782   2.758   3.646
39835W        W 8198  40.470   5.899   0.415
39836W        W 8199   2.817  32.035  10.454
39837W        W 8200  35.992  17.719   0.907
39838W        W 8201  39.876  27.125   1.449
39839W        W 8202   0.929  15.120  11.548
39840W        W 8203   3.869  22.029  11.454
39841W        W 8204  15.739  18.572   0.945
39842W        W 8205  44.466  16.306  10.037
39843W        W 8206  39.476  28.500   0.909
39844W        W 8207  34.042  12.222   1.699
39845W        W 8208  37.871  27.455  10.457
39846W        W 8209  15.678  36.877  10.499
39847W        W 8210  24.684  35.402  13.963
39848W        W 8211  33.461   6.312  11.496
39849W        W 8212  15.324  23.201  11.988
39850W        W 8213  12.197  30.162   0.761
39851W        W 8214  41.919  16.684  12.457
39852W        W 8215  18.682   1.409  14.815
39853W        W 8216   3.757  43.370   0.414
39854W        W 8217  44.002  15.798  10.021
39855W        W 8218  28.495  24.119  12.355
39856W        W 8219  37.858   2.861  12.906
39857W        W 8220  29.498  41.529   4.611
39858W        W 8221  19.647  44.793   3.246
39859W        W 8222  40.935   9.158  11.087
39860W        W 8223  32.058   3.327   3.778
39861W        W 8224  42.338   2.918  13.307
39862W        W 8225  32.009  39.925   2.296
39863W        W 8226  27.623  31.025  13.884
39864W        W 8227  22.733  37.369  12.036
39865W        W 8228  27.639  38.535   4.824
39866W        W 8229  10.692   3.412  11.024
39867W        W 8230   9.294  10.284  13.817
39868W        W 8231   8.406   1.970  12.463
39869W        W 8232  43.379   1.917   3.776
39870W        W 8233  19.246  35.393  11.863
39871W        W 8234  34.042  24.550  14.379
39872W        W 8235   8.695  25.705  11.610
39873W        W 8236  41.528  13.280   2.762
39874W        W 8237   9.714  13.736  14.956
39875W        W 8238   1.878  34.896  10.446
39876W        W 8239  37.960   6.428   2.663
39877W        W 8240  24.086  14.098  13.411
39878W        W 8241   9.687  31.050  12.423
39879W        W 8242   4.860   1.260  10.891
39880W        W 8243  13.201   7.244  12.469
39881W        W 8244  37.337   8.778   1.395
39882W        W 8245  31.931  38.463  13.482
39883W        W 8246   1.423   3.908   2.864
39884W        W 8247   8.292  43.315  13.516
39885W        W 8248   6.236  27.495   0.318
39886W        W 8249   6.323  30.501   1.309
39887W        W 8250   0.318  38.969  13.481
39888W        W 8251   1.436  31.468  10.903
39889W        W 8252  18.770   7.174  11.498
39890W        W 8253  36.901  20.035  10.994
39891W        W 8254  34.025  18.143  13.850
39892W        W 8255  36.487   5.738   4.348
39893W        W 8256  41.888  10.339   4.811
39894W        W 8257  14.328   3.784  11.866
39895W        W 8258   6.863  40.953  14.802
39896W        W 8259  18.116  35.890  10.595
39897W        W 8260  23.567  43.386  14.445
39898W        W 8261  26.041  16.621   0.844
39899W        W 8262  11.332  15.157  10.508
39900W        W 8263   7.731  37.472  13.906
39901W        W 8264  18.593  30.432  13.536
39902W        W 8265  41.934  19.094  13.409
39903W        W 8266   0.876   4.879   1.926
39904W        W 8267   0.357  37.474  14.781
39905W        W 8268  17.669  27.149  11.925
39906W        W 8269   9.276  32.450  12.967
39907W        W 8270  39.464  36.969  13.956
39908W        W 8271   2.399  24.193   4.131
39909W        W 8272   4.715  20.174   2.844
39910W        W 8273  32.518  36.079  12.863
39911W        W 8274  23.157  40.833  11.894
39912W        W 8275   3.838  13.212   1.240
39913W        W 8276   6.716  16.792  13.537
39914W        W 8277   4.903  36.915   2.778
39915W        W 8278  32.045   9.338   3.672
39916W        W 8279  33.555  43.004  14.849
39917W        W 8280   1.371  19.123   0.475
39918W        W 8281  37.386   2.861   0.320
39919W        W 8282  12.821  35.873   4.265
39920W        W 8283  41.895  28.081  12.560
39921W        W 8284   3.860   7.328  14.970
39922W        W 8285  31.628   4.806   3.179
39923W        W 8286  34.064   0.322   1.820
39924W        W 8287  39.897  39.446  12.020
39925W        W 8288   2.232   2.929  14.383
39926W        W 8289   7.765  15.127  14.500
39927W        W 8290  42.406  24.631   0.331
39928W        W 8291  16.166  15.700  13.802
39929W        W 8292   0.270   1.826   1.324
39930W        W 8293   1.865   6.679  13.861
39931W        W 8294  37.012  29.051   4.780
39932W        W 8295  42.446   8.400  14.021
39933W        W 8296  33.925  21.183  13.837
39934W        W 8297  43.277  21.201  14.803
39935W        W 8298  33.429  36.440   4.298
39936W        W 8299  38.068  12.130   0.428
39937W        W 8300  29.160   8.698  13.537
39938W        W 8301   5.798  34.089  12.927
39939W        W 8302   7.279  12.252  11.903
39940W        W 8303  37.541   4.820   3.750
39941W        W 8304   2.371  11.173   1.796
39942W        W 8305   1.865  39.485   2.180
39943W        W 8306  27.562  32.521  13.049
39944W        W 8307   2.871   6.231  10.411
39945W        W 8308   2.345  41.862  14.906
39946W        W 8309  30.125   7.193   3.347
39947W        W 8310  44.878  29.021  13.873
39948W        W 8311   0.765  20.584   1.757
39949W        W 8312  41.004  14.729   4.720
39950W        W 8313   7.761  22.724  13.973
39951W        W 8314  28.133  23.140   0.880
39952W        W 8315  25.518  21.738   3.226
39953W        W 8316   4.856  32.430   0.257
39954W        W 8317  39.472   7.279   1.318
39955W        W 8318  39.438  36.881   4.662
39956W        W 8319  29.059  22.162  10.540
39957W        W 8320  42.457  18.222  13.374
39958W        W 8321  35.994  21.591   4.769
39959W        W 8322  25.519  34.383   3.218
39960W        W 8323  39.330  13.238   2.869
39961W        W 8324  18.212  13.159  13.341
39962W        W 8325  35.983  38.395   3.368
39963W        W 8326   5.692  23.662  11.865
39964W        W 8327  17.107  27.162  11.532
39965W        W 8328  42.857   0.356   2.247
39966W        W 8329  42.446  25.498   3.803
39967W        W 8330  36.482  42.372  10.985
39968W        W 8331  14.274   2.344  11.373
39969W        W 8332  34.420   1.772  13.529
39970W        W 8333  36.561  38.935   0.423
39971W        W 8334  29.057  32.137  12.033
39972W        W 8335  27.111  17.765  11.941
39973W        W 8336  42.826  19.271   0.250
39974W        W 8337  20.208  37.048   3.831
39975W        W 8338  38.513  17.605   0.290
39976W        W 8339   0.823  22.633   2.816
39977W        W 8340  22.613  29.955  12.844
39978W        W 8341  40.402  18.742  11.473
39979W        W 8342  37.934  23.027  14.822
39980W        W 8343  29.129  12.267  13.441
39981W        W 8344  30.059  12.160  11.549
39982W        W 8345  36.957   6.690  13.464
39983W        W 8346  28.565  21.188  11.049
39984W        W 8347  27.121  11.781  14.353
39985W        W 8348  23.671  32.010  14.911
39986W        W 8349  13.327   3.741   3.376
39987W        W 8350  22.623   6.405   3.362
39988W        W 8351  18.139  24.550  12.968
39989W        W 8352   1.280  12.165  11.535
39990W        W 8353  38.363  16.314  14.427
39991W        W 8354  12.707  31.946   0.884
39992W        W 8355  22.507  27.549  11.110
39993W        W 8356  27.627  22.118   4.792
39994W        W 8357   2.923  28.675  14.395
39995W        W 8358  37.374  31.905   2.861
39996W        W 8359  35.525  21.045  14.828
39997W        W 8360   1.907  21.144   2.733
39998W        W 8361  22.236   4.387  12.921
39999W        W 8362  33.058   1.362   3.296
40000W        W 8363  13.311  10.795  13.807
40001W        W 8364   7.851  41.993   4.764
40002W        W 8365   5.860  35.898   3.225
40003W        W 8366  23.538  34.553   3.752
40004W        W 8367  43.962  14.715  11.989
40005W        W 8368  21.151  15.772  14.865
40006W        W 8369  28.680  21.130  11.522
40007W        W 8370  23.230  39.041  11.461
40008W        W 8371   3.280  25.033  11.556
40009W        W 8372  31.643  16.307  13.874
40010W        W 8373  26.033  24.176   2.210
40011W        W 8374  24.580  17.193   2.388
40012W        W 8375  32.088  33.456   3.857
40013W        W 8376  26.514  42.293   3.833
40014W        W 8377  41.964  42.392   3.383
40015W        W 8378  28.169  14.800  10.955
40016W        W 8379  24.225  20.105   3.343
40017W        W 8380   1.786  43.279   3.345
40018W        W 8381  21.066   7.372   1.760
40019W        W 8382  18.161  27.991  13.462
40020W        W 8383   7.835  40.413  11.867
40021W        W 8384   9.210  14.289   3.649
40022W        W 8385  29.581  27.527  13.804
40023W        W 8386  39.949  22.745   3.277
40024W        W 8387  13.648  22.683  10.632
40025W        W 8388  24.547  37.569  10.947
40026W        W 8389  40.394  29.079   3.652
40027W        W 8390   2.403  17.758   2.366
40028W        W 8391  23.057   9.262   4.210
40029W        W 8392  33.432  10.830   0.919
40030W        W 8393  20.631  24.171   3.742
40031W        W 8394   7.814  21.113  12.095
40032W        W 8395   9.886  39.325   1.322
40033W        W 8396   6.810  32.988   4.184
40034W        W 8397  30.617  23.677   3.635
40035W        W 8398  12.801  24.026  12.838
40036W        W 8399  34.963  14.216   0.255
40037W        W 8400  37.394  21.192  13.429
40038W        W 8401  35.508  11.318   3.207
40039W        W 8402  36.852  17.291  11.498
40040W        W 8403  34.894   6.794   1.724
40041W        W 8404  20.202   4.812   0.917
40042W        W 8405  30.033  29.014  11.034
40043W        W 8406  24.643  38.558  12.973
40044W        W 8407  25.632  35.448   0.421
40045W        W 8408   1.750  43.478  13.405
40046W        W 8409  13.212  31.538  14.413
40047W        W 8410   3.351  16.769   2.862
40048W        W 8411   5.865   1.885   0.944
40049W        W 8412  31.460  17.068   1.253
40050W        W 8413  22.521  23.160  14.362
40051W        W 8414  42.820   0.391   2.829
40052W        W 8415  27.084  30.137  10.622
40053W        W 8416  22.046  28.124  13.361
40054W        W 8417  40.913  30.989  13.463
40055W        W 8418   6.711  34.105   4.728
40056W        W 8419  17.140  26.596  12.033
40057W        W 8420  16.076   3.907  10.607
40058W        W 8421  38.903  18.058  14.349
40059W        W 8422  40.883   4.225  12.917
40060W        W 8423  15.240  34.376  12.880
40061W        W 8424  19.248  15.760   3.778
40062W        W 8425  34.502  12.756  11.961
40063W        W 8426  20.708  32.477  14.765
40064W        W 8427  21.697  34.955   2.338
40065W        W 8428  16.301  19.056  13.815
40066W        W 8429  10.219   9.794   3.182
40067W        W 8430  22.249  10.841   2.328
40068W        W 8431   6.830   9.262  10.493
40069W        W 8432  42.922  11.783   2.397
40070W        W 8433  19.065  34.393  13.334
40071W        W 8434  11.808  13.723   1.450
40072W        W 8435  13.644  43.328  14.772
40073W        W 8436  24.982   4.880  10.523
40074W        W 8437   0.404  30.961   4.325
40075W        W 8438  21.247   3.910   3.837
40076W        W 8439   7.416  41.018  11.411
40077W        W 8440  31.980  35.871  14.357
40078W        W 8441  19.181  29.130  11.522
40079W        W 8442  42.437  33.000  10.594
40080W        W 8443  19.163  28.538   2.688
40081W        W 8444  40.394   0.259  10.912
40082W        W 8445  28.101  23.636  14.290
40083W        W 8446   2.932  15.814   1.307
40084W        W 8447  19.138  20.077   3.156
40085W        W 8448   3.276   0.309  13.036
40086W        W 8449   7.850  31.523   4.817
40087W        W 8450   2.451  17.195  11.937
40088W        W 8451  33.609  20.194  14.333
40089W        W 8452  31.607  43.405   0.757
40090W        W 8453  43.498  13.343  12.557
40091W        W 8454  12.646  17.671   3.738
40092W        W 8455   9.322  12.309   1.338
40093W        W 8456  22.162  10.844  10.939
40094W        W 8457  42.364  22.097   0.457
40095W        W 8458  11.633  26.674  14.462
40096W        W 8459  38.329   6.922   1.278
40097W        W 8460   3.753  11.336  11.953
40098W        W 8461   1.886  25.149   0.802
40099W        W 8462  40.363  12.222   3.204
40100W        W 8463  36.522  20.042  10.975
40101W        W 8464  23.651  31.461  14.364
40102W        W 8465  43.285  12.340  10.595
40103W        W 8466  34.975  24.571   0.864
40104W        W 8467  23.559  42.487  13.390
40105W        W 8468  41.842  42.475   2.887
40106W        W 8469  42.319  18.126   1.819
40107W        W 8470  21.618   3.440   3.757
40108W        W 8471  32.036  19.765  12.472
40109W        W 8472  41.039  31.926   3.204
40110W        W 8473  34.532  36.561  10.418
40111W        W 8474  30.464  27.581  11.051
40112W        W 8475  10.794  17.155   4.819
40113W        W 8476  11.348  25.481  14.427
40114W        W 8477  31.047   4.911   3.831
40115W        W 8478  12.155   6.684  10.549
40116W        W 8479  41.483   9.879   3.839
40117W        W 8480  15.625  32.046  11.513
40118W        W 8481  28.072   4.841   1.872
40119W        W 8482  32.040  27.975   0.944
40120W        W 8483  18.164  35.075   1.229
40121W        W 8484   4.434   1.872   1.805
40122W        W 8485  34.538  23.159   1.281
40123W        W 8486   6.374  30.453  11.895
40124W        W 8487  30.057  27.163   0.912
40125W        W 8488   6.773  22.088   2.217
40126W        W 8489  21.058   1.764  11.440
40127W        W 8490  11.259  10.157  12.964
40128W        W 8491  13.843  43.457   0.316
40129W        W 8492  35.515  13.775   0.829
40130W        W 8493  11.349  37.075   2.822
40131W        W 8494  33.957   8.788   2.388
40132W        W 8495  21.212  42.912   5.201
40133W        W 8496  30.547   4.391   4.602
40134W        W 8497   9.855  26.001   4.672
40135W        W 8498  27.162  26.968  14.394
40136W        W 8499  20.580   6.870  12.357
40137W        W 8500  39.997  41.449  13.811
40138W        W 8501  40.402  33.979   4.601
40139W        W 8502   2.280  11.701   0.366
40140W        W 8503  30.479  12.361   0.823
40141W        W 8504  25.103   3.427   4.816
40142W        W 8505   4.207   3.808  12.044
40143W        W 8506   0.268  37.487  14.382
40144W        W 8507   4.736  25.660   4.752
40145W        W 8508  32.947   5.286  13.880
40146W        W 8509  36.964   8.845  14.852
40147W        W 8510   6.246  26.587  12.064
40148W        W 8511  11.727  34.064  10.432
40149W        W 8512  18.181   0.303   0.249
40150W        W 8513  12.764   6.746   1.377
40151W        W 8514  18.268  32.121  14.894
40152W        W 8515  31.056  17.725   0.823
40153W        W 8516  29.071  39.923  14.381
40154W        W 8517  25.549   0.436   4.294
40155W        W 8518  22.122   8.404  10.536
40156W        W 8519  30.496  15.595  12.363
40157W        W 8520  32.625  44.416   3.751
40158W        W 8521  18.583  17.727  12.868
40159W        W 8522  40.484  22.703   2.380
40160W        W 8523  32.514  44.502   2.792
40161W        W 8524  44.310  31.896   3.310
40162W        W 8525  34.870   5.902   1.773
40163W        W 8526  32.009  18.597  13.450
40164W        W 8527  17.673  29.494  13.490
40165W        W 8528  26.674  25.106   1.896
40166W        W 8529  42.850  20.722   3.259
40167W        W 8530  12.191  18.215  10.517
40168W        W 8531  10.839  14.186   1.768
40169W        W 8532  32.091  40.503  12.914
40170W        W 8533  23.064   3.834  10.980
40171W        W 8534  17.243  22.509   2.278
40172W        W 8535  25.053  33.490   4.335
40173W        W 8536   3.221  17.300  14.958
40174W        W 8537  26.137  25.023   1.427
40175W        W 8538  40.502  31.405   2.379
40176W        W 8539  33.544   6.782  12.389
40177W        W 8540  25.006  32.545  12.533
40178W        W 8541  43.493  22.113  10.557
40179W        W 8542  37.448  18.553  12.085
40180W        W 8543  18.571   5.195  13.004
40181W        W 8544  38.863  32.017  11.060
40182W        W 8545  40.845  23.645   3.285
40183W        W 8546  18.607   4.388   4.318
40184W        W 8547   2.253  17.787   4.825
40185W        W 8548  27.500  29.483   1.853
40186W        W 8549  21.036  15.703   9.974
40187W        W 8550  14.730   5.428  14.816
40188W        W 8551   1.377  19.160  12.851
40189W        W 8552  22.715  14.793   1.241
40190W        W 8553  16.085   1.787   2.308
40191W        W 8554  35.877  33.062  12.374
40192W        W 8555  27.130  20.207   4.304
40193W        W 8556  30.641   9.751  12.964
40194W        W 8557  43.789  11.638  14.415
40195W        W 8558  37.467  24.576  12.417
40196W        W 8559  43.428  28.621   3.370
40197W        W 8560  10.706  30.112   3.739
40198W        W 8561  34.065   4.278   3.654
40199W        W 8562  42.335  30.967   4.355
40200W        W 8563  34.470  42.446   3.274
40201W        W 8564  19.651  30.413   3.647
40202W        W 8565   7.751  19.766   2.418
40203W        W 8566  42.988  29.022  14.935
40204W        W 8567   6.725  22.503   2.764
40205W        W 8568  36.968   9.390  14.827
40206W        W 8569   7.190   2.795   0.778
40207W        W 8570   6.277   1.776   3.174
40208W        W 8571  19.215  18.567  13.337
40209W        W 8572  35.057   4.897  11.907
40210W        W 8573   6.715   1.374  11.073
40211W        W 8574  10.201  34.087   4.614
40212W        W 8575  26.533  22.629  10.931
40213W        W 8576  43.382  33.093  12.884
40214W        W 8577  33.937  16.709   1.436
40215W        W 8578  28.592  35.570   3.673
40216W        W 8579   8.231  10.634   2.662
40217W        W 8580   5.313  30.587   0.456
40218W        W 8581  22.550   5.706  11.528
40219W        W 8582   5.823  12.707  14.876
40220W        W 8583  27.074  23.045  14.289
40221W        W 8584  38.486  12.847   1.228
40222W        W 8585  15.100  42.015   4.816
40223W        W 8586  21.680  37.387   0.378
40224W        W 8587   8.892   8.406  13.544
40225W        W 8588  33.130  39.484   0.891
40226W        W 8589  24.986  26.077   4.169
40227W        W 8590  21.185  42.782   4.124
40228W        W 8591   3.882  28.632  10.892
40229W        W 8592  20.533  26.607   4.249
40230W        W 8593  27.982  18.115  13.528
40231W        W 8594  33.987   1.244  10.003
40232W        W 8595   7.215  44.456   2.702
40233W        W 8596  10.716  23.035  14.854
40234W        W 8597  19.649  20.085  14.819
40235W        W 8598   9.176   2.748  10.546
40236W        W 8599  28.943  24.202  14.778
40237W        W 8600   9.804  17.655  10.559
40238W        W 8601  33.931  32.589   4.673
40239W        W 8602  42.860  35.024   1.812
40240W        W 8603  38.025  37.389  13.996
40241W        W 8604  13.753  39.519   2.867
40242W        W 8605  16.100  28.043  10.033
40243W        W 8606  32.928  28.635  14.371
40244W        W 8607  17.109  10.684   0.819
40245W        W 8608  22.681  34.473   2.219
40246W        W 8609  43.866  44.991  14.963
40247W        W 8610  37.906  43.961   4.204
40248W        W 8611   1.361   7.731   0.870
40249W        W 8612  36.956  31.959  13.871
40250W        W 8613   9.864  29.456   1.291
40251W        W 8614  36.916  11.174   5.707
40252W        W 8615  18.588  18.122  12.456
40253W        W 8616  19.067  15.165  12.873
40254W        W 8617  42.804   3.338  11.374
40255W        W 8618   0.939  17.284  12.966
40256W        W 8619  31.456  25.641   4.808
40257W        W 8620   8.736  11.686  10.640
40258W        W 8621  36.968  35.010  10.459
40259W        W 8622  17.722  37.402   2.394
40260W        W 8623  26.996   4.749   0.741
40261W        W 8624  18.262   0.404   2.849
40262W        W 8625  35.464  40.993   0.460
40263W        W 8626  18.675  16.209  12.447
40264W        W 8627   3.734  42.438  10.507
40265W        W 8628  30.135  16.584  11.966
40266W        W 8629  25.069   4.448  10.456
40267W        W 8630   7.667  35.570  12.357
40268W        W 8631  35.433  31.906  12.395
40269W        W 8632  22.508  13.122  12.991
40270W        W 8633   0.449  17.611  14.983
40271W        W 8634  19.689  18.607   1.832
40272W        W 8635   3.741  23.492   3.694
40273W        W 8636  39.833  27.014  13.955
40274W        W 8637  34.554  25.210   3.713
40275W        W 8638   4.747   4.218  11.864
40276W        W 8639  37.382   2.953   1.696
40277W        W 8640  43.504  19.104  14.369
40278W        W 8641  15.735   3.254   0.297
40279W        W 8642  25.482  39.872   2.849
40280W        W 8643   7.827  17.126   3.344
40281W        W 8644  28.099  15.184   0.781
40282W        W 8645  22.104  35.013   2.329
40283W        W 8646  32.985  23.700   0.414
40284W        W 8647   2.305  24.187  10.951
40285W        W 8648   4.243  13.819  11.004
40286W        W 8649  13.212  32.610  11.470
40287W        W 8650   7.865   1.756   2.844
40288W        W 8651  11.753  41.394   3.856
40289W        W 8652  28.139  15.234  14.352
40290W        W 8653  21.192  40.845   4.316
40291W        W 8654   5.205  22.657   2.842
40292W        W 8655  21.585  36.390  11.384
40293W        W 8656  17.160  42.481  10.909
40294W        W 8657  28.947  36.904   2.249
40295W        W 8658  13.707  31.410  12.442
40296W        W 8659  42.451  30.434   0.433
40297W        W 8660  12.847  42.423   1.374
40298W        W 8661  24.557  35.992   0.911
40299W        W 8662  35.447  31.553   1.448
40300W        W 8663   9.332  30.972  13.846
40301W        W 8664   7.242  37.931   0.849
40302W        W 8665  35.099  24.166  10.611
40303W        W 8666  31.945  14.815   0.462
40304W        W 8667  40.943  39.862  11.567
40305W        W 8668   4.396  17.713  14.919
40306W        W 8669   2.237  26.039  11.120
40307W        W 8670   8.841   7.806  13.904
40308W        W 8671  30.591  27.984   4.156
40309W        W 8672   7.811  22.573   3.171
40310W        W 8673  24.569  42.005  10.992
40311W        W 8674   1.923  29.129   4.801
40312W        W 8675  37.920  11.367  10.478
40313W        W 8676  40.360  13.835   1.365
40314W        W 8677   5.876  10.141  11.922
40315W        W 8678   2.452  40.462  14.415
40316W        W 8679  29.052  43.835   4.617
40317W        W 8680  24.543  44.382  11.046
40318W        W 8681  29.986  34.502  10.440
40319W        W 8682   7.217  25.019   3.296
40320W        W 8683  25.204  24.983   4.247
40321W        W 8684  30.555   4.429   2.795
40322W        W 8685  13.222   6.257   0.866
40323W        W 8686  34.912  15.650   5.140
40324W        W 8687  16.311  36.367  14.969
40325W        W 8688  29.113   0.872  12.562
40326W        W 8689  29.023  20.760   3.251
40327W        W 8690  29.132  13.329  10.560
40328W        W 8691   8.787  17.677   3.207
40329W        W 8692   9.333   5.429   1.218
40330W        W 8693   7.389  12.325  13.362
40331W        W 8694  43.920   2.259   2.381
40332W        W 8695   3.366   9.668   3.328
40333W        W 8696  17.760   4.314   3.747
40334W        W 8697  20.249   7.265  14.465
40335W        W 8698   6.689   9.854  12.056
40336W        W 8699   5.848  39.550  12.571
40337W        W 8700  17.578  42.878   1.802
40338W        W 8701  29.107  28.466   5.265
40339W        W 8702   4.824  35.529   4.808
40340W        W 8703  27.562  27.167   3.235
40341W        W 8704  42.420   6.856   1.723
40342W        W 8705  29.082  44.459  10.632
40343W        W 8706  41.890  31.420  11.000
40344W        W 8707  43.797  24.523  13.536
40345W        W 8708  23.513  13.252   1.416
40346W        W 8709  11.640  23.068  12.067
40347W        W 8710  16.728  36.847   4.825
40348W        W 8711   7.666  27.163   4.333
40349W        W 8712  34.042  43.876  13.863
40350W        W 8713  15.253  11.295   4.355
40351W        W 8714  17.691  31.585  10.540
40352W        W 8715  32.569  23.164   2.765
40353W        W 8716   3.289  36.413  11.937
40354W        W 8717  43.940  38.901   3.827
40355W        W 8718  18.777   3.276   3.309
40356W        W 8719  24.186  31.603  14.330
40357W        W 8720  18.156   3.850   2.663
40358W        W 8721  43.361  34.066   2.276
40359W        W 8722   4.787   6.197  14.923
40360W        W 8723  28.032  44.497  11.560
40361W        W 8724  17.729   8.231  14.967
40362W        W 8725  21.585  28.499  11.563
40363W        W 8726   5.835  41.869  11.019
40364W        W 8727  11.786   1.407  13.799
40365W        W 8728  15.776  34.087  11.968
40366W        W 8729  30.114  23.592  10.477
40367W        W 8730  40.320   8.331   2.852
40368W        W 8731  31.977  17.167  10.553
40369W        W 8732  35.426  19.070  13.856
40370W        W 8733  21.514  20.161   1.862
40371W        W 8734  19.211  27.638  14.298
40372W        W 8735  17.090  43.986  11.051
40373W        W 8736  23.232  16.685   0.383
40374W        W 8737  20.548   3.712  12.037
40375W        W 8738   1.790  29.438   0.852
40376W        W 8739  39.508  15.291   1.418
40377W        W 8740  11.233  30.010   4.347
40378W        W 8741   4.386  40.002  14.515
40379W        W 8742  15.731  31.614  12.029
40380W        W 8743   5.324  21.627  14.379
40381W        W 8744  41.377   2.366  13.794
40382W        W 8745   1.860  17.603  10.949
40383W        W 8746   4.930  10.774  10.505
40384W        W 8747   7.306  29.039   0.956
40385W        W 8748  16.290  40.346  12.912
40386W        W 8749  21.041   9.721  10.424
40387W        W 8750  42.337  16.663  13.995
40388W        W 8751   1.412  35.360  10.597
40389W        W 8752   9.246  36.895   1.827
40390W        W 8753  22.220  30.993  12.930
40391W        W 8754  23.100  26.164  12.443
40392W        W 8755  10.253   3.262  13.021
40393W        W 8756   6.793  18.625  12.528
40394W        W 8757  20.217  13.187  13.997
40395W        W 8758   4.348  23.210  12.874
40396W        W 8759  31.580  14.664  12.895
40397W        W 8760  23.568   6.313   0.822
40398W        W 8761   4.315  28.613  13.353
40399W        W 8762  11.156  10.245   2.366
40400W        W 8763  17.559  15.638  14.804
40401W        W 8764  26.665   8.197  10.592
40402W        W 8765  16.616   4.772   2.380
40403W        W 8766   6.840  15.710   0.858
40404W        W 8767  11.313  27.993   1.299
40405W        W 8768   0.928  17.638   3.147
40406W        W 8769   4.303   9.649   3.301
40407W        W 8770   4.737  19.069   4.296
40408W        W 8771   3.899   0.271   4.276
40409W        W 8772  19.063  37.455   3.835
40410W        W 8773  16.811  15.110  12.928
40411W        W 8774  10.267  30.459   1.351
40412W        W 8775  25.535  42.503   2.295
40413W        W 8776  40.973  28.013   2.199
40414W        W 8777   8.368  43.946  14.833
40415W        W 8778  36.507   3.365   0.438
40416W        W 8779   2.327  32.457   2.331
40417W        W 8780  43.462  12.241  11.110
40418W        W 8781  10.138  15.739  12.548
40419W        W 8782  13.727  10.844   3.354
40420W        W 8783  12.172  34.608  11.918
40421W        W 8784  32.021  14.192   2.383
40422W        W 8785  21.080  26.458  14.859
40423W        W 8786  42.450  43.351   3.699
40424W        W 8787  27.575  22.552  14.897
40425W        W 8788  31.459  27.155   4.795
40426W        W 8789  12.721  17.268   4.337
40427W        W 8790  24.614  27.548  13.913
40428W        W 8791  25.166  26.655  14.446
40429W        W 8792  30.420  29.098  13.002
40430W        W 8793  14.811   7.838  10.535
40431W        W 8794  38.510  37.341   2.392
40432W        W 8795  14.811   6.356  13.029
40433W        W 8796  32.049  12.817  12.561
40434W        W 8797   3.411  16.701   2.344
40435W        W 8798   6.824   9.296   0.893
40436W        W 8799  35.952  18.184  10.429
40437W        W 8800  28.469  27.109  13.992
40438W        W 8801  15.625  29.620  11.436
40439W        W 8802  21.243  43.478  13.448
40440W        W 8803  41.010  32.534   0.801
40441W        W 8804  19.574  33.526  12.962
40442W        W 8805   3.326  16.624   3.770
40443W        W 8806  13.310  25.682   4.148
40444W        W 8807  43.769  36.418   4.148
40445W        W 8808  22.684  19.540   3.220
40446W        W 8809  37.832   7.317  13.820
40447W        W 8810  41.380  22.219  14.340
40448W        W 8811  15.209  29.165   0.932
40449W        W 8812   7.823  14.590   0.439
40450W        W 8813   2.770  11.263   2.813
40451W        W 8814   7.860  41.807   1.802
40452W        W 8815  12.621   9.652  14.304
40453W        W 8816  25.035  21.519  13.062
40454W        W 8817  26.079  40.803   4.718
40455W        W 8818   8.374   4.800   3.808
40456W        W 8819  27.053  38.075   3.704
40457W        W 8820   6.252  15.281  11.611
40458W        W 8821   0.822  39.439   0.440
40459W        W 8822  44.777  42.982  13.012
40460W        W 8823  16.287  23.138  13.525
40461W        W 8824  41.979  37.960  10.431
40462W        W 8825  31.082  32.953  14.884
40463W        W 8826  44.004  41.922  13.916
40464W        W 8827   7.265  28.540  12.095
40465W        W 8828  30.485  26.994   1.859
40466W        W 8829   8.679  18.186  10.574
40467W        W 8830   2.919  30.531  14.760
40468W        W 8831  14.786   0.416   4.768
40469W        W 8832  34.576  23.661  10.626
40470W        W 8833  39.905  25.666  14.329
40471W        W 8834   9.172  15.127  13.887
40472W        W 8835   3.437  22.238   1.872
40473W        W 8836  17.284  31.974   0.858
40474W        W 8837  22.617   4.276  10.493
40475W        W 8838  32.590  15.782   0.931
40476W        W 8839  30.154  16.164  10.639
40477W        W 8840  31.021  15.649  12.501
40478W        W 8841   9.164  20.675   3.166
40479W        W 8842  42.913  39.893  11.504
40480W        W 8843  15.250   1.760  14.397
40481W        W 8844  11.296  27.642   0.737
40482W        W 8845  12.697   6.367   3.668
40483W        W 8846  29.160  26.476  12.085
40484W        W 8847  20.068  37.055  13.469
40485W        W 8848  39.033  10.867   9.528
40486W        W 8849  39.472   6.372  10.497
40487W        W 8850  31.041  35.045   2.774
40488W        W 8851  20.241   1.934   4.635
40489W        W 8852  18.757  19.612  13.354
40490W        W 8853  26.071  12.640  10.481
40491W        W 8854   2.445  18.163  11.543
40492W        W 8855  41.902   0.785  14.495
40493W        W 8856  42.395   4.282   0.952
40494W        W 8857  41.407   4.809  14.465
40495W        W 8858  25.501  37.578   4.816
40496W        W 8859  22.220  40.396  13.019
40497W        W 8860  17.598  41.361   3.343
40498W        W 8861  19.251   6.389   0.896
40499W        W 8862  29.026  15.626   2.701
40500W        W 8863  40.314  18.743  14.418
40501W        W 8864  33.431  27.122   4.195
40502W        W 8865   9.752  31.439   1.898
40503W        W 8866  20.625  41.013  14.864
40504W        W 8867  29.497   2.404  11.014
40505W        W 8868  17.737  28.014   1.398
40506W        W 8869  20.525  23.624  10.478
40507W        W 8870  24.980  18.693  13.506
40508W        W 8871   3.389  32.014  14.321
40509W        W 8872  22.685  30.486   3.203
40510W        W 8873  30.966  31.498  13.988
40511W        W 8874  18.752  10.708  14.838
40512W        W 8875  19.071   3.333   1.288
40513W        W 8876   2.786  41.940   3.713
40514W        W 8877  40.347  42.371  14.788
40515W        W 8878  20.587  29.015   1.263
40516W        W 8879  25.052  42.814  10.990
40517W        W 8880   1.751  14.608  14.013
40518W        W 8881  15.099  16.077  12.371
40519W        W 8882  12.244   4.289   1.361
40520W        W 8883  35.964  32.993  14.989
40521W        W 8884   9.827   6.350   0.285
40522W        W 8885  22.657  27.967   5.238
40523W        W 8886  40.836  11.370  14.335
40524W        W 8887  28.957  22.159   2.285
40525W        W 8888  15.607  34.930   3.730
40526W        W 8889  12.334   2.964  10.437
40527W        W 8890  21.758  18.154  14.363
40528W        W 8891   3.733  22.031   2.370
40529W        W 8892   9.765  28.533   3.806
40530W        W 8893  17.295  20.530  13.331
40531W        W 8894  17.692  33.524  11.449
40532W        W 8895   7.732  30.103   3.370
40533W        W 8896  15.236   5.706  11.998
40534W        W 8897  35.556  31.625   4.119
40535W        W 8898  17.168  36.854   3.832
40536W        W 8899  20.753   9.846   0.858
40537W        W 8900   6.277   4.448   1.339
40538W        W 8901  39.940   6.842  12.837
40539W        W 8902  39.324  10.843  10.131
40540W        W 8903  44.471  16.233  13.929
40541W        W 8904  31.454  26.613   4.642
40542W        W 8905   3.373  32.103   3.695
40543W        W 8906  33.536   9.710   0.340
40544W        W 8907  29.621  19.666   0.255
40545W        W 8908   6.397  20.729   2.302
40546W        W 8909  22.562  26.547   4.122
40547W        W 8910  43.792  38.866   3.306
40548W        W 8911  29.141  28.129  10.407
40549W        W 8912   7.315  28.950   3.169
40550W        W 8913  30.930  13.340   3.171
40551W        W 8914   6.841   4.341  10.512
40552W        W 8915  12.666   6.367  11.414
40553W        W 8916  17.721  37.864   3.150
40554W        W 8917  25.700   4.776   0.413
40555W        W 8918  28.631  12.121   3.641
40556W        W 8919  24.057  30.021   0.861
40557W        W 8920  32.406   4.776   4.199
40558W        W 8921   8.212  20.658  14.304
40559W        W 8922  36.936  27.036   1.408
40560W        W 8923  24.478  25.068  11.949
40561W        W 8924  25.080  33.521  12.889
40562W        W 8925   9.764  18.646   2.791
40563W        W 8926  30.498   5.761  13.799
40564W        W 8927  36.033  25.151   1.261
40565W        W 8928  38.535  10.713  12.358
40566W        W 8929  41.296  28.482  11.396
40567W        W 8930  43.282  15.174  13.948
40568W        W 8931  12.826  30.966  13.378
40569W        W 8932   6.852  27.511  13.966
40570W        W 8933   5.316  20.242   3.249
40571W        W 8934   9.691  10.827   1.216
40572W        W 8935  17.693  16.784   0.438
40573W        W 8936  32.570  43.981   0.344
40574W        W 8937   9.264  15.308  11.091
40575W        W 8938   1.764  41.445  11.503
40576W        W 8939  36.427  26.954   0.877
40577W        W 8940  21.724  25.710  13.838
40578W        W 8941  43.280  43.489   3.212
40579W        W 8942   4.393   3.266  13.511
40580W        W 8943  25.966  22.729  10.420
40581W        W 8944  44.902  13.703  13.803
40582W        W 8945  41.427   6.272  12.528
40583W        W 8946  28.067  22.119  13.950
40584W        W 8947  19.283  37.577  10.620
40585W        W 8948  21.077  24.606   0.757
40586W        W 8949  13.608  14.257   4.620
40587W        W 8950  35.952  21.095   3.165
40588W        W 8951   4.836  25.008   1.417
40589W        W 8952   1.236  34.036  13.990
40590W        W 8953   6.834  36.941  10.957
40591W        W 8954  24.108  12.827  10.415
40592W        W 8955  28.007   0.369   2.865
40593W        W 8956  23.091  19.633   2.695
40594W        W 8957   8.231   8.764  13.876
40595W        W 8958  28.935  30.521  10.524
40596W        W 8959   5.430  27.187  12.932
40597W        W 8960  10.189  40.930   1.242
40598W        W 8961  12.222  35.404  11.077
40599W        W 8962  17.720   3.250   0.335
40600W        W 8963  36.416  18.140  11.985
40601W        W 8964  26.122  16.236   5.201
40602W        W 8965  10.304  10.840   0.347
40603W        W 8966   5.245  31.968  10.064
40604W        W 8967  12.265   9.355   3.817
40605W        W 8968  33.914  14.283   4.207
40606W        W 8969  11.312  23.658   4.653
40607W        W 8970  16.742  33.073   2.212
40608W        W 8971   9.757  34.500  13.509
40609W        W 8972   3.224   6.272  12.058
40610W        W 8973  32.503  27.614   5.119
40611W        W 8974  15.616  18.689  10.624
40612W        W 8975  16.213  14.228  11.961
40613W        W 8976  41.348  20.665  10.452
40614W        W 8977  41.340  12.212  13.992
40615W        W 8978   7.882   8.743  14.854
40616W        W 8979  10.838  13.752  12.064
40617W        W 8980   6.332  23.204   0.887
40618W        W 8981  26.193   8.875   2.241
40619W        W 8982   1.431  30.545   4.123
40620W        W 8983  13.838  38.863  13.389
40621W        W 8984  33.391  36.453  11.906
40622W        W 8985   4.739   3.232   2.317
40623W        W 8986   5.729  11.190  14.893
40624W        W 8987  11.663  43.448   4.733
40625W        W 8988  20.558  41.863  14.974
40626W        W 8989  36.019  33.385   3.308
40627W        W 8990  21.726  12.654   4.601
40628W        W 8991  26.000  11.174   2.807
40629W        W 8992  43.845  14.113   2.870
40630W        W 8993   0.456  11.161  14.903
40631W        W 8994  27.149  13.832   4.777
40632W        W 8995  15.614  21.578  12.012
40633W        W 8996  14.679   9.265   0.779
40634W        W 8997   6.790  39.982  13.472
40635W        W 8998  23.591  16.151  12.885
40636W        W 8999  29.483   0.805   3.351
40637W        W 9000   2.852  33.069  10.448
40638W        W 9001  39.871  12.178   5.784
40639W        W 9002  24.700   1.838   0.428
40640W        W 9003   3.828   9.828   2.805
40641W        W 9004  11.715  38.981  10.432
40642W        W 9005  23.126  26.166   4.304
40643W        W 9006  26.505  36.456   5.288
40644W        W 9007  22.538   4.842  13.016
40645W        W 9008  42.305  28.615   1.307
40646W        W 9009   9.196   3.797   0.404
40647W        W 9010  43.860  37.510  14.487
40648W        W 9011  15.166  14.688  12.961
40649W        W 9012  41.419  41.292   0.461
40650W        W 9013  37.839  44.322  10.610
40651W        W 9014   9.695  11.779  11.036
40652W        W 9015   6.853  22.181  13.815
40653W        W 9016  21.732  15.240   3.292
40654W        W 9017  17.689  29.453  11.105
40655W        W 9018   3.724  37.979  12.831
40656W        W 9019   6.915  19.777  14.456
40657W        W 9020  22.578  39.023   0.872
40658W        W 9021  12.237  42.830  14.467
40659W        W 9022   0.811   6.371  11.415
40660W        W 9023   1.385  42.457   2.714
40661W        W 9024  25.578  14.241  11.006
40662W        W 9025  43.359  43.336  11.071
40663W        W 9026  31.029  19.665  13.404
40664W        W 9027  34.570  11.224  13.863
40665W        W 9028  42.853  23.228  14.931
40666W        W 9029  11.196  22.075   2.823
40667W        W 9030  23.049  23.201   3.765
40668W        W 9031   3.792  42.922  11.119
40669W        W 9032  42.329  24.487  14.854
40670W        W 9033  30.436   4.299   3.352
40671W        W 9034  28.656  23.151   2.820
40672W        W 9035  22.630  21.162  11.963
40673W        W 9036  32.090  15.746  12.912
40674W        W 9037  35.053  42.309   1.270
40675W        W 9038  22.527  18.290   5.308
40676W        W 9039   7.903   2.933   2.749
40677W        W 9040  14.679  10.852  12.474
40678W        W 9041  18.240  24.198   2.760
40679W        W 9042   0.383  14.831   0.399
40680W        W 9043  44.774  27.453   3.337
40681W        W 9044  12.361  16.567   1.268
40682W        W 9045  13.745  40.944  11.567
40683W        W 9046   3.264  36.003  13.346
40684W        W 9047  28.024   1.759  13.396
40685W        W 9048  41.902  28.677  11.550
40686W        W 9049   0.888  42.409  13.002
40687W        W 9050  34.532  28.654  11.070
40688W        W 9051  24.673  39.054  13.516
40689W        W 9052  20.126  29.975   2.734
40690W        W 9053   8.318  15.131   1.235
40691W        W 9054  42.862  10.371  11.512
40692W        W 9055  41.018  16.615   1.934
40693W        W 9056  14.206  44.301  12.562
40694W        W 9057  23.001  26.608   1.863
40695W        W 9058  18.596  44.919  13.874
40696W        W 9059  15.704  40.537  14.354
40697W        W 9060  32.069  39.886  11.101
40698W        W 9061  23.205  31.120   2.706
40699W        W 9062   8.345  19.159  12.862
40700W        W 9063  33.555  37.023  11.960
40701W        W 9064  28.054  12.343   0.837
40702W        W 9065  26.051  17.282   1.756
40703W        W 9066  17.571  12.687   1.860
40704W        W 9067  40.317  20.629  14.378
40705W        W 9068  36.033  43.842  13.919
40706W        W 9069   7.737  36.882  13.376
40707W        W 9070  43.286  14.625   3.711
40708W        W 9071  15.723  19.250   3.786
40709W        W 9072   1.275  19.615  12.906
40710W        W 9073  21.019  10.263  14.312
40711W        W 9074  14.287  11.354  14.836
40712W        W 9075  14.243  32.908  14.774
40713W        W 9076  12.745  40.374  10.953
40714W        W 9077  19.120  44.779  11.483
40715W        W 9078  38.546  43.784  12.395
40716W        W 9079   8.875  27.024   0.257
40717W        W 9080  11.200   0.897   3.224
40718W        W 9081  38.997  13.602  13.808
40719W        W 9082  35.885  23.004  12.940
40720W        W 9083  44.411  15.090  11.519
40721W        W 9084  19.045  27.973   2.290
40722W        W 9085   2.285  36.519   3.731
40723W        W 9086  33.087  25.621  11.499
40724W        W 9087  31.953  44.801  13.338
40725W        W 9088  27.075  33.901  13.451
40726W        W 9089   3.746  17.081  12.537
40727W        W 9090  42.803  35.588   0.250
40728W        W 9091  42.313  18.754   1.726
40729W        W 9092  35.589  35.564   3.777
40730W        W 9093  19.143  39.367  14.301
40731W        W 9094  18.119  16.582   0.855
40732W        W 9095  24.185  19.638   4.321
40733W        W 9096   2.752  31.131  14.995
40734W        W 9097  39.356  22.702   0.420
40735W        W 9098  39.359  30.646   3.341
40736W        W 9099  42.362  43.475  14.288
40737W        W 9100   6.342  14.703  11.519
40738W        W 9101  16.186  35.495   3.231
40739W        W 9102   1.811   3.236  14.361
40740W        W 9103  34.553  13.184   1.222
40741W        W 9104   2.248  40.036   0.894
40742W        W 9105   3.905  35.458   0.348
40743W        W 9106  11.659  41.905   5.248
40744W        W 9107  41.931  26.188  10.441
40745W        W 9108  30.057   0.977  10.470
40746W        W 9109   5.336  19.120  13.458
40747W        W 9110  29.166  16.182  11.400
40748W        W 9111  31.577  12.324   4.712
40749W        W 9112  19.533  13.164   3.642
40750W        W 9113  27.993  21.036   3.336
40751W        W 9114  20.174  23.732   2.708
40752W        W 9115  44.263  38.883   0.849
40753W        W 9116   4.717  39.535  12.397
40754W        W 9117   7.236  41.907   4.115
40755W        W 9118  34.380   3.884  13.404
40756W        W 9119  29.639   0.476   1.712
40757W        W 9120   2.352   9.191   1.779
40758W        W 9121  42.295  37.843  14.792
40759W        W 9122  34.879  42.436  11.973
40760W        W 9123   5.737   3.769   2.681
40761W        W 9124  13.757  25.061   2.705
40762W        W 9125  17.247  35.584   1.378
40763W        W 9126   7.268   8.701  12.501
40764W        W 9127  17.612  13.272  13.887
40765W        W 9128  42.865   5.741   2.418
40766W        W 9129  18.081   0.934  14.963
40767W        W 9130  43.293  17.648  10.568
40768W        W 9131  11.821  39.937  10.909
40769W        W 9132  19.701  41.402   1.424
40770W        W 9133   9.197  29.511  14.280
40771W        W 9134  31.987  31.581  11.402
40772W        W 9135   7.322  15.302   2.819
40773W        W 9136  11.825  10.719  12.530
40774W        W 9137  43.503  25.482  12.901
40775W        W 9138  19.276   7.745  10.645
40776W        W 9139  29.140  41.850   4.210
40777W        W 9140   8.381  38.031   3.226
40778W        W 9141  11.349  42.013   3.314
40779W        W 9142  24.568  21.090  13.840
40780W        W 9143  31.032   2.809   1.919
40781W        W 9144  11.176  22.564   2.820
40782W        W 9145  32.010  12.795  10.437
40783W        W 9146  22.745  30.483   3.714
40784W        W 9147  37.472  29.641   0.965
40785W        W 9148   3.755  40.328   2.823
40786W        W 9149  34.406  34.442   1.263
40787W        W 9150  35.096  21.198   3.860
40788W        W 9151  11.801  14.595   0.447
40789W        W 9152  23.079  25.499   3.818
40790W        W 9153  29.647   1.264   3.744
40791W        W 9154  35.447   6.312   4.219
40792W        W 9155   8.362  33.512   0.784
40793W        W 9156  41.432  40.546   3.639
40794W        W 9157   9.314  42.938   4.320
40795W        W 9158  10.642  14.215  14.497
40796W        W 9159  31.105  25.194   1.360
40797W        W 9160   8.790  32.948   3.800
40798W        W 9161  32.915  27.514   3.288
40799W        W 9162  27.137  10.284  11.943
40800W        W 9163  15.668  29.064   1.339
40801W        W 9164  12.208  20.126  10.525
40802W        W 9165  24.229  38.943  11.919
40803W        W 9166  24.076  42.977  13.381
40804W        W 9167  17.116   4.892  12.427
40805W        W 9168   4.938  13.649  11.030
40806W        W 9169  24.704  39.378   0.376
40807W        W 9170  25.689  41.916   3.782
40808W        W 9171  24.502  21.563   0.940
40809W        W 9172  18.603  26.590   0.474
40810W        W 9173   6.313   2.742   4.660
40811W        W 9174   3.295  20.751   2.333
40812W        W 9175  41.453   6.331  11.118
40813W        W 9176  21.578  38.008  13.871
40814W        W 9177  19.090   8.339  14.850
40815W        W 9178   7.395  44.474  13.462
40816W        W 9179  39.332  38.073   3.806
40817W        W 9180  21.142  36.909   2.309
40818W        W 9181  37.561   1.855   4.657
40819W        W 9182  20.102  13.732   0.291
40820W        W 9183  42.017  41.476  10.475
40821W        W 9184  14.805  20.528  14.758
40822W        W 9185  33.998  13.674  12.383
40823W        W 9186   2.808  25.666   1.264
40824W        W 9187  19.130   3.323   0.436
40825W        W 9188  44.978  43.878  10.535
40826W        W 9189  26.022  36.372  14.840
40827W        W 9190  44.944  26.602  10.622
40828W        W 9191  39.964   7.906   3.304
40829W        W 9192  44.007  26.150  10.997
40830W        W 9193   0.268  26.612  14.440
40831W        W 9194  12.141   3.352   2.676
40832W        W 9195  18.064   1.337  10.962
40833W        W 9196  41.341  43.280   2.793
40834W        W 9197  28.089  10.264   0.728
40835W        W 9198  28.628  40.391  11.942
40836W        W 9199  40.539  35.590   2.745
40837W        W 9200  37.907  35.595   0.746
40838W        W 9201  13.277  10.233   4.681
40839W        W 9202  16.669  18.127  11.867
40840W        W 9203  20.088  24.708  13.417
40841W        W 9204   2.363  34.910   0.746
40842W        W 9205   8.685  23.068   4.754
40843W        W 9206  28.566  26.666  11.550
40844W        W 9207  39.867  25.056  10.500
40845W        W 9208  11.269  32.969  12.892
40846W        W 9209  44.852  28.475  10.565
40847W        W 9210   1.323  27.987   0.762
40848W        W 9211   3.371  18.647  14.375
40849W        W 9212  10.307  30.041  14.976
40850W        W 9213  29.158  40.354   0.387
40851W        W 9214  23.008  29.474   0.276
40852W        W 9215  37.922  33.007   2.209
40853W        W 9216  27.454  42.296   3.163
40854W        W 9217  18.200   8.741  11.993
40855W        W 9218  36.500   5.901   3.841
40856W        W 9219   9.223  44.391  12.910
40857W        W 9220   1.421  25.516   2.692
40858W        W 9221   5.890  25.134   0.428
40859W        W 9222  14.305  21.640  14.821
40860W        W 9223   7.396  26.587  14.387
40861W        W 9224   2.468  17.281   4.713
40862W        W 9225  13.619  29.661  13.000
40863W        W 9226   4.809  36.019  11.425
40864W        W 9227   9.220  36.918   2.364
40865W        W 9228  21.128  17.299  11.560
40866W        W 9229  26.562  27.077   2.260
40867W        W 9230  11.129  43.366  14.759
40868W        W 9231  19.248  32.420   4.290
40869W        W 9232  18.701  25.079  13.973
40870W        W 9233  12.634  19.775   2.340
40871W        W 9234  19.709  42.341   4.182
40872W        W 9235  36.035  22.725   2.200
40873W        W 9236   9.312  11.733  12.979
40874W        W 9237  44.901  43.780   1.716
40875W        W 9238  35.065   7.910  13.871
40876W        W 9239  30.982  22.024  13.808
40877W        W 9240   3.264   0.421   1.387
40878W        W 9241  17.672  31.902   1.796
40879W        W 9242   8.272  41.303  11.900
40880W        W 9243  43.464  28.527  10.905
40881W        W 9244  19.084  24.140  12.520
40882W        W 9245  15.666   7.276  12.477
40883W        W 9246   0.944  37.981   4.182
40884W        W 9247  23.048  25.667  10.585
40885W        W 9248  38.833  44.377  10.458
40886W        W 9249   7.268  25.521  10.429
40887W        W 9250  29.983  42.389  12.944
40888W        W 9251  33.611  16.269   4.208
40889W        W 9252  34.422   9.216   1.745
40890W        W 9253   7.695  18.578   0.452
40891W        W 9254   9.377   9.220   0.942
40892W        W 9255  42.808  15.676   3.671
40893W        W 9256  16.210  32.445  11.543
40894W        W 9257  17.126   7.411   1.250
40895W        W 9258  28.951  16.113  13.815
40896W        W 9259  29.000  21.661  12.865
40897W        W 9260  24.567  20.232  11.599
40898W        W 9261  25.709  10.299   5.148
40899W        W 9262  10.207  26.557   1.231
40900W        W 9263  24.134  17.656   0.372
40901W        W 9264  14.167   2.881   0.413
40902W        W 9265  28.443  25.549  14.942
40903W        W 9266  44.971  40.410  14.768
40904W        W 9267  10.166  19.608  13.358
40905W        W 9268  10.807   2.411  12.952
40906W        W 9269  33.535  29.527   1.811
40907W        W 9270  23.702  41.893  10.498
40908W        W 9271  41.909  39.446   1.726
40909W        W 9272   1.749   5.908   0.884
40910W        W 9273  14.146  17.769  12.544
40911W        W 9274  37.892  11.702   3.740
40912W        W 9275   4.311  23.998   5.166
40913W        W 9276   2.322  37.418  11.013
40914W        W 9277  35.050  42.780   3.708
40915W        W 9278  32.632  32.078  11.516
40916W        W 9279  28.615  16.771   0.338
40917W        W 9280  43.406  32.090   3.843
40918W        W 9281  35.413  23.092  13.940
40919W        W 9282   5.363  25.080  14.760
40920W        W 9283  10.269  21.661   1.421
40921W        W 9284  43.952  30.476  10.571
40922W        W 9285  22.189  41.951  11.867
40923W        W 9286  17.625  28.001  14.296
40924W        W 9287  19.280   9.166   0.890
40925W        W 9288   8.236  38.954   0.344
40926W        W 9289  10.686  43.859  13.432
40927W        W 9290   1.759  23.600   0.418
40928W        W 9291  19.704  22.505  12.563
40929W        W 9292   3.431  21.217  11.547
40930W        W 9293  38.388  42.434  13.056
40931W        W 9294  17.750  28.055  12.938
40932W        W 9295  39.837  17.108  12.035
40933W        W 9296  32.912  22.054  14.858
40934W        W 9297  34.961   0.405  10.957
40935W        W 9298  26.536  33.897   3.232
40936W        W 9299  38.828   0.859   2.265
40937W        W 9300   7.845  31.153   1.392
40938W        W 9301   9.270  30.576   0.847
40939W        W 9302  36.980  35.437  14.375
40940W        W 9303  22.627   7.414   1.218
40941W        W 9304  23.213  21.079   3.843
40942W        W 9305  16.255  19.178   3.337
40943W        W 9306  36.360   0.345  14.010
40944W        W 9307  38.540  19.082   4.773
40945W        W 9308  37.909  40.962   4.828
40946W        W 9309  21.687  28.585   0.467
40947W        W 9310  20.612  33.595   3.766
40948W        W 9311  41.906  29.598   3.210
40949W        W 9312  28.055  42.463   0.939
40950W        W 9313   0.918   8.815   3.802
40951W        W 9314  29.077  16.581  14.960
40952W        W 9315   4.894  17.695   3.328
40953W        W 9316  35.555   1.851  13.468
40954W        W 9317  26.134  33.019  11.008
40955W        W 9318  17.084  29.009   0.348
40956W        W 9319  40.506  34.586  11.083
40957W        W 9320  19.749  19.567  11.433
40958W        W 9321   2.466  15.242   3.355
40959W        W 9322  37.899  16.624  12.481
40960W        W 9323  35.589   3.936   4.169
40961W        W 9324  23.110  22.506  11.861
40962W        W 9325  13.747   5.433   1.927
40963W        W 9326  39.817  15.822  14.809
40964W        W 9327  38.925  15.273   0.322
40965W        W 9328  18.231   9.214  10.423
40966W        W 9329  30.630  20.710  10.938
40967W        W 9330  18.163  31.116   2.825
40968W        W 9331  44.889  37.971   4.282
40969W        W 9332  34.603   5.915  13.009
40970W        W 9333  41.023  19.739   3.672
40971W        W 9334  19.055  16.672   1.702
40972W        W 9335   5.788  35.029   1.340
40973W        W 9336  35.385   2.301   0.312
40974W        W 9337   0.859  38.496   1.327
40975W        W 9338  32.417   3.380   2.870
40976W        W 9339  28.622   7.204  11.594
40977W        W 9340   6.883  11.256   1.919
40978W        W 9341  24.029  41.506   0.893
40979W        W 9342  31.471  30.484  12.902
40980W        W 9343  11.245  44.955  10.927
40981W        W 9344  29.650  21.733  13.486
40982W        W 9345  32.904  12.199  11.959
40983W        W 9346  20.693   2.327   1.896
40984W        W 9347  41.981  23.988  14.295
40985W        W 9348  20.624   4.335   2.256
40986W        W 9349  18.191  31.630  11.441
40987W        W 9350  37.929  33.102   3.717
40988W        W 9351  35.909  36.429  12.578
40989W        W 9352  30.594  42.969   0.965
40990W        W 9353  13.324  35.390   0.355
40991W        W 9354  28.676   2.776  14.921
40992W        W 9355  37.010  44.779   2.794
40993W        W 9356  21.074   9.177  11.074
40994W        W 9357  24.687  13.317  13.390
40995W        W 9358  40.798   8.353   2.311
40996W        W 9359   7.309  29.969  10.500
40997W        W 9360   0.394   3.742   3.185
40998W        W 9361   3.365  15.729  13.505
40999W        W 9362  30.137  15.269  12.387
41000W        W 9363  39.969  24.685   0.287
41001W        W 9364  40.910  10.358  14.945
41002W        W 9365  33.088  22.044  11.598
41003W        W 9366   4.237  41.419  13.792
41004W        W 9367  36.548   0.890   4.225
41005W        W 9368   0.332  35.504  12.412
41006W        W 9369  31.584  12.774   3.211
41007W        W 9370  28.483  25.050   1.253
41008W        W 9371   9.274  41.403  12.864
41009W        W 9372  14.737   7.312   4.263
41010W        W 9373  27.620  42.395  14.410
41011W        W 9374  34.874  33.951   3.293
41012W        W 9375  16.801  29.505   0.915
41013W        W 9376  36.873  26.143   4.716
41014W        W 9377  26.166   3.371   2.786
41015W        W 9378  32.546  43.324   0.412
41016W        W 9379  32.391  16.569   2.279
41017W        W 9380  30.415  14.278   4.675
41018W        W 9381   1.281  32.397  12.086
41019W        W 9382  42.372   2.440   0.344
41020W        W 9383  29.649  12.702   4.202
41021W        W 9384  25.013  41.299  11.564
41022W        W 9385  40.407   8.381  14.944
41023W        W 9386  11.371   2.952  14.940
41024W        W 9387   3.748  29.604   1.250
41025W        W 9388  17.768  34.873   9.959
41026W        W 9389  16.590  32.970  13.533
41027W        W 9390  24.067  17.156  11.079
41028W        W 9391  27.592  40.965   1.794
41029W        W 9392   9.272  11.628  10.023
41030W        W 9393   0.409   6.383  14.324
41031W        W 9394  12.856   9.293  11.411
41032W        W 9395  31.144  44.467   0.947
41033W        W 9396  40.991  40.500  13.355
41034W        W 9397  30.650   4.242  14.343
41035W        W 9398  29.110  13.160   3.868
41036W        W 9399   2.372  10.271  12.346
41037W        W 9400  22.613  22.658   9.941
41038W        W 9401  24.547   9.189  14.022
41039W        W 9402  26.209  21.092   0.755
41040W        W 9403  21.081  34.545  11.610
41041W        W 9404  26.024  37.550  11.552
41042W        W 9405   0.792  24.630   1.272
41043W        W 9406   8.274  13.268   2.679
41044W        W 9407   4.431  43.452   4.626
41045W        W 9408   0.329  18.139   1.343
41046W        W 9409  30.446  38.392   1.300
41047W        W 9410  15.185  28.121   3.803
41048W        W 9411  29.029  34.587   1.290
41049W        W 9412  38.056  11.219  10.072
41050W        W 9413  25.143   9.358   5.089
41051W        W 9414   3.237  32.921  10.076
41052W        W 9415   9.821  21.114   3.799
41053W        W 9416   4.792  41.919  12.841
41054W        W 9417  17.098   8.867  12.457
41055W        W 9418  18.742  25.686   2.236
41056W        W 9419  16.314  17.768  11.974
41057W        W 9420  43.307   6.684  14.996
41058W        W 9421  22.068  26.109   2.229
41059W        W 9422  18.183  44.396   5.706
41060W        W 9423  11.320  41.461   0.773
41061W        W 9424  41.502  38.542   3.159
41062W        W 9425  27.116   3.858   4.734
41063W        W 9426  27.114  44.425   1.895
41064W        W 9427   9.183  21.064   3.855
41065W        W 9428  30.011   3.877  14.837
41066W        W 9429  11.167  14.797  11.088
41067W        W 9430  34.965  32.054   1.337
41068W        W 9431  28.451  34.932  14.513
41069W        W 9432  42.802  34.932   3.683
41070W        W 9433   8.865  31.432  10.151
41071W        W 9434  30.140  10.798  13.442
41072W        W 9435  12.246  37.895   1.858
41073W        W 9436  19.550  16.095  12.079
41074W        W 9437  23.000   7.808   2.196
41075W        W 9438  44.444  35.544  12.497
41076W        W 9439  43.960  31.507   1.355
41077W        W 9440  37.865  35.541  10.436
41078W        W 9441  35.963  40.401   2.716
41079W        W 9442  35.855  39.899   1.763
41080W        W 9443   7.240  41.993  14.821
41081W        W 9444  25.210   6.424   5.169
41082W        W 9445  31.900  12.664   3.818
41083W        W 9446  42.366  27.142  10.985
41084W        W 9447   6.343  10.657   4.140
41085W        W 9448  28.102  27.570  12.562
41086W        W 9449   5.439   5.413   4.692
41087W        W 9450  39.506  34.376   4.346
41088W        W 9451  31.901  35.588  13.313
41089W        W 9452   6.203   2.801   2.799
41090W        W 9453   3.369  20.176  13.882
41091W        W 9454  35.101  28.074   5.281
41092W        W 9455   6.411  19.547  10.947
41093W        W 9456  27.020  34.516   2.233
41094W        W 9457  23.033   9.191  11.943
41095W        W 9458  10.704  39.950   0.423
41096W        W 9459  42.458  32.579   1.718
41097W        W 9460  16.670  44.466   5.279
41098W        W 9461   7.702   8.335   3.180
41099W        W 9462   5.208  31.431  13.981
41100W        W 9463  28.079   5.747   1.785
41101W        W 9464  38.344   9.275  13.360
41102W        W 9465  44.348  20.216  10.461
41103W        W 9466  18.615  18.714  12.095
41104W        W 9467  21.097  24.693   1.882
41105W        W 9468  35.390  34.016  12.075
41106W        W 9469  41.498  12.199   2.312
41107W        W 9470  16.223  44.905   0.367
41108W        W 9471  42.460  43.432   1.425
41109W        W 9472   5.757  44.994  12.407
41110W        W 9473  31.013  42.498   1.219
41111W        W 9474  44.370  21.520   4.603
41112W        W 9475   5.798  41.314  14.865
41113W        W 9476  21.653  29.040  11.485
41114W        W 9477  34.474  33.453  14.786
41115W        W 9478  16.793  21.649  12.388
41116W        W 9479   0.361  30.454  12.027
41117W        W 9480  32.531   2.892  12.454
41118W        W 9481   9.363  12.636   4.335
41119W        W 9482   2.854   2.334  10.633
41120W        W 9483  18.746  35.554  11.373
41121W        W 9484  37.905  28.023  11.021
41122W        W 9485  27.527  26.598  14.810
41123W        W 9486  12.766  13.191  11.038
41124W        W 9487  22.009  26.980   1.796
41125W        W 9488  20.233  30.133   2.282
41126W        W 9489   7.281  37.945  10.459
41127W        W 9490  33.001  31.110   2.864
41128W        W 9491  31.994   5.298  10.928
41129W        W 9492  38.570  40.398   1.259
41130W        W 9493   6.702  32.090   4.260
41131W        W 9494   4.702  39.961  13.983
41132W        W 9495  43.977   2.345   2.731
41133W        W 9496  35.442  31.079  14.953
41134W        W 9497   8.766  42.948   0.899
41135W        W 9498   4.831   8.305  13.350
41136W        W 9499  42.421  32.108  14.765
41137W        W 9500  36.514  28.525   2.217
41138W        W 9501  42.483   2.921   3.685
41139W        W 9502  25.151   8.718   3.373
41140W        W 9503  44.875  21.546  11.860
41141W        W 9504   7.351  25.629  12.464
41142W        W 9505  22.737  38.014   4.671
41143W        W 9506  23.561  24.014   2.690
41144W        W 9507   5.896  22.512  13.541
41145W        W 9508  44.919  40.525   4.275
41146W        W 9509  11.208  41.502   2.324
41147W        W 9510  29.119  42.474   4.712
41148W        W 9511  16.135  27.638  13.450
41149W        W 9512   3.711  24.559   2.300
41150W        W 9513   6.826  26.202   0.880
41151W        W 9514  42.024  25.137  12.915
41152W        W 9515  40.304  10.195  13.877
41153W        W 9516  44.261   4.825  11.044
41154W        W 9517  10.328  41.323  10.453
41155W        W 9518  22.607  12.695   5.252
41156W        W 9519  18.281  15.578   2.876
41157W        W 9520  27.626   6.183  14.942
41158W        W 9521  35.449   7.774   1.836
41159W        W 9522  29.573  12.830   3.852
41160W        W 9523  44.492  22.242  10.577
41161W        W 9524  36.990   5.244   0.324
41162W        W 9525  20.155  35.477   0.391
41163W        W 9526   3.731  33.079  11.935
41164W        W 9527   0.402  11.218   3.329
41165W        W 9528  11.326  22.725   2.297
41166W        W 9529  41.304  40.393  13.015
41167W        W 9530   8.778  11.275  13.045
41168W        W 9531  21.693  13.797   2.775
41169W        W 9532  36.918   4.277   2.663
41170W        W 9533  40.396  34.501  13.940
41171W        W 9534  28.522  12.712  14.478
41172W        W 9535  41.843  44.393  10.562
41173W        W 9536  43.933  40.853   1.432
41174W        W 9537  10.165  16.287  14.489
41175W        W 9538  32.619   5.848  14.953
41176W        W 9539   3.323   8.170  11.549
41177W        W 9540  44.445  10.193   4.250
41178W        W 9541  12.665  22.048   4.285
41179W        W 9542  20.674  24.548  11.535
41180W        W 9543  15.613   0.324  14.908
41181W        W 9544  41.298   6.682  11.372
41182W        W 9545  28.997  18.100   2.234
41183W        W 9546   2.230  33.946   2.186
41184W        W 9547   3.381  37.575   3.294
41185W        W 9548  32.522  24.645  12.972
41186W        W 9549  33.503  15.797   1.701
41187W        W 9550  40.314  28.528  12.479
41188W        W 9551  38.507  23.548  10.442
41189W        W 9552  27.122   3.435   1.781
41190W        W 9553  35.464  28.133  11.429
41191W        W 9554  29.986  26.496   2.819
41192W        W 9555  22.153   4.927  12.500
41193W        W 9556  28.164   3.449  10.452
41194W        W 9557  11.752  42.371   4.783
41195W        W 9558   9.213   8.855  13.482
41196W        W 9559  43.011   3.220  13.476
41197W        W 9560   9.707  23.027  14.447
41198W        W 9561  13.285  42.325   4.325
41199W        W 9562  17.141  32.035  11.446
41200W        W 9563  39.826  21.102   4.715
41201W        W 9564  10.329  32.123   0.946
41202W        W 9565   0.450  14.119   4.721
41203W        W 9566  39.393  17.760  14.974
41204W        W 9567  34.442  18.099  10.448
41205W        W 9568   9.345  35.568   2.818
41206W        W 9569  36.405  22.250  12.397
41207W        W 9570  34.387  41.413  13.060
41208W        W 9571  34.957   4.826  12.558
41209W        W 9572  22.508  24.592   3.763
41210W        W 9573  41.990   8.893  14.335
41211W        W 9574  31.483   2.830   0.783
41212W        W 9575   6.296  20.146  11.956
41213W        W 9576  42.845  15.733   1.847
41214W        W 9577  12.774  36.380   4.729
41215W        W 9578   7.871  44.781   0.396
41216W        W 9579  43.868  20.631   3.825
41217W        W 9580  12.731  37.015   3.694
41218W        W 9581  17.786  17.072  12.541
41219W        W 9582  41.503  17.701  10.424
41220W        W 9583   3.738  16.681  13.940
41221W        W 9584  40.851   0.444   1.885
41222W        W 9585  33.484  26.595  12.094
41223W        W 9586  38.996   6.266  14.510
41224W        W 9587  21.233  30.612   2.718
41225W        W 9588  25.534   3.795  13.813
41226W        W 9589  10.842  41.861  12.479
41227W        W 9590   9.166  18.063   3.765
41228W        W 9591  37.376  41.798  11.976
41229W        W 9592  44.281  41.825  11.084
41230W        W 9593   7.245  34.412  12.455
41231W        W 9594  23.210  32.416  13.372
41232W        W 9595  27.084   3.720   3.739
41233W        W 9596   4.804  24.140  13.417
41234W        W 9597  19.697  10.215  11.112
41235W        W 9598  19.651  31.578  14.288
41236W        W 9599  31.564  35.995   3.714
41237W        W 9600  39.852  21.627  14.400
41238W        W 9601   7.760  34.512  10.452
41239W        W 9602  29.457  17.588  12.060
41240W        W 9603   2.301  17.279  12.936
41241W        W 9604  27.545  34.067  13.825
41242W        W 9605  40.908  39.921  12.481
41243W        W 9606  10.813  24.642   1.405
41244W        W 9607  40.811  35.941   1.429
41245W        W 9608  19.132  24.558  12.536
41246W        W 9609  28.438  36.867   0.423
41247W        W 9610  21.526   8.359   2.730
41248W        W 9611  14.106  22.551   4.129
41249W        W 9612   0.755  31.600  11.520
41250W        W 9613  35.474  22.138  14.807
41251W        W 9614  33.085   0.830  14.363
41252W        W 9615  43.451  35.501  10.888
41253W        W 9616  22.247  17.656   1.923
41254W        W 9617  22.118  25.539  13.013
41255W        W 9618  39.836  40.442  12.431
41256W        W 9619  31.528  30.568   4.133
41257W        W 9620  27.946  35.974   3.823
41258W        W 9621  18.081   6.259  12.959
41259W        W 9622  14.189  29.025   4.298
41260W        W 9623  18.785  14.628   3.689
41261W        W 9624  31.609   0.869  10.032
41262W        W 9625  17.643  11.814   1.738
41263W        W 9626  26.675  25.104  13.975
41264W        W 9627  28.460  16.705  14.915
41265W        W 9628  32.016  26.150   9.969
41266W        W 9629  27.968  20.617   0.808
41267W        W 9630  39.368  19.599   2.849
41268W        W 9631  21.681   0.835  12.514
41269W        W 9632  10.778  12.833   0.854
41270W        W 9633  35.422  31.458  14.343
41271W        W 9634  11.773  35.440   1.918
41272W        W 9635  18.761  26.190  11.874
41273W        W 9636   6.274  10.682   3.694
41274W        W 9637   3.837  10.311   4.134
41275W        W 9638  15.272   9.394  13.853
41276W        W 9639  19.156   8.771   1.421
41277W        W 9640   9.345  40.819   0.345
41278W        W 9641  29.084  30.163   1.310
41279W        W 9642   5.373  15.715  10.124
41280W        W 9643  23.582  15.725   1.922
41281W        W 9644  33.383   7.803   2.736
41282W        W 9645  34.543  15.274   0.821
41283W        W 9646  37.937  34.506   1.806
41284W        W 9647  11.854  10.383  12.050
41285W        W 9648  13.616  13.800   4.257
41286W        W 9649  15.743  25.137  10.447
41287W        W 9650   6.336  12.645  10.014
41288W        W 9651   2.957   4.332  11.887
41289W        W 9652  12.264  43.451   3.326
41290W        W 9653  28.590  31.535   3.268
41291W        W 9654  11.738   2.381   4.262
41292W        W 9655   5.375   1.389  12.480
41293W        W 9656  29.021  42.335  10.460
41294W        W 9657   5.903   5.728  14.905
41295W        W 9658  15.251   2.854   1.344
41296W        W 9659  32.124  38.943  14.996
41297W        W 9660  27.637   2.754   0.923
41298W        W 9661  42.979  22.132  11.482
41299W        W 9662  13.802  13.308   4.131
41300W        W 9663   1.336   3.919  13.887
41301W        W 9664   1.259  15.100  11.406
41302W        W 9665  21.753   6.221  12.881
41303W        W 9666  17.129  11.751  14.409
41304W        W 9667  13.204  22.686  12.887
41305W        W 9668   4.234   8.681   2.362
41306W        W 9669  31.610  28.654   1.720
41307W        W 9670   0.304  42.913  10.597
41308W        W 9671  27.690  20.168   3.656
41309W        W 9672  13.252  22.627  11.103
41310W        W 9673   5.352  19.064   2.414
41311W        W 9674  38.966  22.516  14.880
41312W        W 9675  21.639  30.614   3.348
41313W        W 9676  35.482  40.943   4.262
41314W        W 9677  41.300  30.602   3.700
41315W        W 9678   6.871  23.018   2.337
41316W        W 9679   1.279  20.238  12.431
41317W        W 9680  21.022  18.179   9.931
41318W        W 9681  39.398  30.137  12.555
41319W        W 9682   6.325   1.973  11.116
41320W        W 9683  22.601  43.308  11.885
41321W        W 9684  18.121  34.535  13.513
41322W        W 9685  28.060  21.643   0.310
41323W        W 9686  19.687   0.784  11.534
41324W        W 9687   3.765   6.185   2.881
41325W        W 9688  33.537  23.991   2.291
41326W        W 9689  19.664  29.544   5.100
41327W        W 9690  35.429  43.880   0.966
41328W        W 9691  25.689  35.525  13.001
41329W        W 9692  10.843  31.540   1.842
41330W        W 9693  40.389  40.499   2.348
41331W        W 9694  41.004   8.179   4.618
41332W        W 9695  26.685   6.691   3.267
41333W        W 9696  43.943   0.248  11.960
41334W        W 9697  43.857  36.349  12.001
41335W        W 9698  32.952   9.361   1.344
41336W        W 9699  33.562  37.557   2.861
41337W        W 9700  33.617  37.403   0.336
41338W        W 9701  42.946  32.971   4.732
41339W        W 9702  23.566  35.475  13.054
41340W        W 9703  17.163  26.657  10.602
41341W        W 9704  21.186  42.787   1.813
41342W        W 9705   0.340   2.804  14.944
41343W        W 9706  27.079  13.703  12.488
41344W        W 9707   1.377   2.796  12.917
41345W        W 9708  26.511   0.796   3.776
41346W        W 9709  20.610  18.766  13.803
41347W        W 9710  30.032  32.492  12.438
41348W        W 9711  27.096  22.217   3.749
41349W        W 9712   3.802   9.729  13.354
41350W        W 9713   8.311   1.313   4.805
41351W        W 9714  37.062  43.393   1.363
41352W        W 9715  26.198  13.826  10.919
41353W        W 9716  29.668   1.816  14.341
41354W        W 9717  44.367   0.385  14.461
41355W        W 9718  23.167  20.110   2.780
41356W        W 9719  14.707  13.316  11.869
41357W        W 9720  15.317  38.547   2.792
41358W        W 9721  27.057  42.789  12.482
41359W        W 9722  12.781  42.505   2.692
41360W        W 9723  33.976  30.445  12.402
41361W        W 9724   0.913   7.821   3.304
41362W        W 9725   6.378  22.703   3.707
41363W        W 9726  16.612  40.521   0.784
41364W        W 9727   7.805   5.769  10.440
41365W        W 9728  41.521  23.543   0.317
41366W        W 9729  37.892  19.643  10.610
41367W        W 9730  19.634   2.886  12.405
41368W        W 9731  25.133  39.316  14.938
41369W        W 9732  16.222  37.376  14.988
41370W        W 9733   8.358  17.674   3.262
41371W        W 9734  11.136  34.074  14.357
41372W        W 9735   9.158  40.898  12.572
41373W        W 9736  27.956  22.608  11.893
41374W        W 9737  23.607  20.130  14.850
41375W        W 9738  42.514  23.234   3.695
41376W        W 9739  19.213  12.124  12.878
41377W        W 9740  20.648  12.779   0.840
41378W        W 9741  23.520  12.352  12.534
41379W        W 9742  11.257  31.584   3.145
41380W        W 9743  12.651  21.018  11.495
41381W        W 9744   0.939  24.078   3.833
41382W        W 9745  17.800  15.757   0.804
41383W        W 9746  27.504   7.794   3.279
41384W        W 9747   3.337  38.879   1.232
41385W        W 9748   5.273  39.432   2.232
41386W        W 9749  33.059  26.095  13.055
41387W        W 9750  25.542   3.770   1.349
41388W        W 9751   4.257  13.845   0.931
41389W        W 9752  18.244  19.161  14.962
41390W        W 9753  18.725  24.208  11.008
41391W        W 9754  23.509   4.881   1.257
41392W        W 9755   9.668   2.847  10.932
41393W        W 9756   6.346  30.536  11.110
41394W        W 9757  29.139  30.120  13.940
41395W        W 9758  32.586  32.509   2.419
41396W        W 9759  18.602  19.621  11.459
41397W        W 9760  15.129  25.141  12.369
41398W        W 9761  18.587   6.720   2.364
41399W        W 9762  38.021   6.403   4.334
41400W        W 9763   6.348   3.819   0.342
41401W        W 9764   7.784  39.060   1.882
41402W        W 9765  42.822  26.540   4.122
41403W        W 9766  44.347   4.424  10.912
41404W        W 9767  19.702  43.902   9.961
41405W        W 9768  10.203  44.321   1.261
41406W        W 9769  21.690   2.438   1.385
41407W        W 9770   8.874   8.879   0.349
41408W        W 9771  41.350  37.345   1.849
41409W        W 9772  17.263  16.261   1.221
41410W        W 9773  33.402  23.200  14.759
41411W        W 9774  34.042  19.180   4.660
41412W        W 9775  29.139   2.837  11.916
41413W        W 9776  34.912  40.451   1.753
41414W        W 9777  34.547  13.637  12.949
41415W        W 9778  33.016  36.444  12.873
41416W        W 9779  43.293  29.569   0.399
41417W        W 9780  38.881  21.658  11.404
41418W        W 9781  40.511  30.522   0.458
41419W        W 9782  19.189   5.388   4.289
41420W        W 9783  29.067  18.606   0.252
41421W        W 9784   0.791  21.623   0.457
41422W        W 9785  21.241  20.183   1.253
41423W        W 9786  20.653   4.447   2.822
41424W        W 9787   2.945   5.310  14.422
41425W        W 9788  17.579   9.221  14.950
41426W        W 9789   8.226   1.262  10.449
41427W        W 9790  13.269  18.083  13.434
41428W        W 9791  39.808  43.815  12.562
41429W        W 9792  20.175  39.826   4.200
41430W        W 9793  44.392   9.319  11.105
41431W        W 9794  21.209  38.505   3.248
41432W        W 9795   1.916  36.964   4.200
41433W        W 9796  44.372  24.527  13.934
41434W        W 9797  18.126  15.778  10.590
41435W        W 9798  25.973  12.788   2.700
41436W        W 9799  38.047  26.039   3.820
41437W        W 9800  32.545  40.021  11.392
41438W        W 9801  34.579  41.000  12.409
41439W        W 9802  39.967  31.954  11.437
41440W        W 9803  12.176  25.712  12.842
41441W        W 9804  26.570  14.594  13.913
41442W        W 9805  11.306  12.306  11.519
41443W        W 9806  15.246  33.615  14.494
41444W        W 9807  10.308  21.123   5.193
41445W        W 9808  24.227  13.175   2.224
41446W        W 9809  19.051  37.056   3.179
41447W        W 9810  28.087  11.276  13.854
41448W        W 9811  19.711  43.010   2.887
41449W        W 9812  25.015  32.478  11.450
41450W        W 9813  29.034  23.028  10.539
41451W        W 9814  36.954  16.623   4.837
41452W        W 9815  43.895  32.608   1.910
41453W        W 9816  10.355  22.639   2.663
41454W        W 9817  24.721  31.414   1.308
41455W        W 9818   9.332  18.222   0.935
41456W        W 9819  42.461  21.522  14.768
41457W        W 9820  20.117   9.269  10.934
41458W        W 9821  19.068  41.879  12.088
41459W        W 9822  36.890  21.707   0.419
41460W        W 9823   3.896  32.504  14.376
41461W        W 9824   0.454   7.727   2.350
41462W        W 9825  27.570  28.459  10.982
41463W        W 9826  29.576  42.481   0.342
41464W        W 9827  37.840  17.116   4.125
41465W        W 9828   7.263  10.215   4.177
41466W        W 9829   4.772  43.372   2.747
41467W        W 9830  10.648  38.076   0.784
41468W        W 9831  28.975  37.016   4.722
41469W        W 9832  20.106  42.494   0.730
41470W        W 9833  29.970  16.632   3.326
41471W        W 9834   0.939   2.418  12.452
41472W        W 9835  34.876  24.623   4.208
41473W        W 9836  39.065  12.768   4.236
41474W        W 9837  21.584   4.339  11.995
41475W        W 9838  22.507   6.701  14.860
41476W        W 9839  31.950  36.871   2.832
41477W        W 9840  16.173  10.855   1.267
41478W        W 9841  19.108  42.994   3.321
41479W        W 9842   4.353  27.995   3.830
41480W        W 9843  10.247  18.787   2.720
41481W        W 9844  15.196  31.450  13.877
41482W        W 9845  38.950  39.814  13.057
41483W        W 9846  36.348  14.622   2.419
41484W        W 9847   2.780  20.660   1.450
41485W        W 9848  32.411  14.178  12.574
41486W        W 9849  40.956   1.410   3.272
41487W        W 9850  34.547  29.565   3.327
41488W        W 9851  39.452  23.513  12.959
41489W        W 9852   0.822  36.013  10.448
41490W        W 9853  40.511  28.112  12.452
41491W        W 9854  10.198  38.889  10.549
41492W        W 9855   0.845  27.685   0.805
41493W        W 9856   6.292  30.970   1.419
41494W        W 9857  21.034  11.133  10.947
41495W        W 9858  12.289  36.072  11.492
41496W        W 9859  27.594  37.508  12.878
41497W        W 9860  26.993  22.585  14.779
41498W        W 9861  15.713  32.624   0.775
41499W        W 9862  21.578   6.251  10.015
41500W        W 9863  31.475  25.026  13.826
41501W        W 9864   5.901  29.126  12.522
41502W        W 9865  29.961  37.872  11.439
41503W        W 9866  33.535   1.390  13.959
41504W        W 9867  12.737  33.481  13.911
41505W        W 9868   0.780   8.666  11.101
41506W        W 9869   5.354  37.053   1.342
41507W        W 9870  17.105  39.429   2.694
41508W        W 9871  18.168  31.060   0.469
41509W        W 9872  26.960  13.826  13.416
41510W        W 9873  43.809  33.423  12.572
41511W        W 9874  25.548  35.416  10.993
41512W        W 9875   0.890  11.291  13.534
41513W        W 9876  26.974  22.716   3.759
41514W        W 9877  22.626  43.790  10.543
41515W        W 9878  25.005  41.981   3.231
41516W        W 9879  31.637  35.431   0.805
41517W        W 9880  13.230  12.157  14.471
41518W        W 9881   0.386  26.574   1.350
41519W        W 9882  29.542   3.805  14.343
41520W        W 9883  31.490  29.118   1.843
41521W        W 9884  14.100   7.297  14.480
41522W        W 9885  16.144  25.512  14.469
41523W        W 9886  34.990  40.482   1.249
41524W        W 9887  35.107  41.807  11.862
41525W        W 9888  16.300  13.242  14.496
41526W        W 9889   4.712  20.704   4.301
41527W        W 9890  44.910  37.875   2.741
41528W        W 9891  24.519  31.984   0.425
41529W        W 9892   1.916  42.411   4.674
41530W        W 9893   1.948  42.380   0.330
41531W        W 9894  18.741   0.858  12.982
41532W        W 9895  28.131  41.332  10.139
41533W        W 9896  25.693  28.442   1.929
41534W        W 9897   9.877   0.952  14.320
41535W        W 9898  21.519  40.876   1.923
41536W        W 9899  29.427  39.926  14.454
41537W        W 9900  25.653  38.513  13.481
41538W        W 9901   8.680  36.518   3.810
41539W        W 9902   9.221  19.093   4.616
41540W        W 9903  10.847  11.791  14.804
41541W        W 9904  41.421  33.425   2.892
41542W        W 9905  12.770   6.359  10.931
41543W        W 9906  36.558   4.800  12.527
41544W        W 9907  36.578  14.749   1.871
41545W        W 9908  17.201  38.547  12.010
41546W        W 9909  34.010  23.532  10.952
41547W        W 9910  40.429  26.079  14.835
41548W        W 9911  16.790   3.281   1.324
41549W        W 9912   8.792  30.020   3.231
41550W        W 9913   5.910  44.413  12.509
41551W        W 9914  32.435   2.861  13.888
41552W        W 9915  23.211  36.392  11.404
41553W        W 9916  27.051   7.316  12.886
41554W        W 9917  39.490  40.902   0.800
41555W        W 9918  28.589  12.732   3.717
41556W        W 9919  18.085  13.184  10.975
41557W        W 9920  30.164   1.357  13.974
41558W        W 9921  35.431  21.246   4.283
41559W        W 9922  20.524  37.876  10.985
41560W        W 9923  40.494  26.990  14.365
41561W        W 9924   1.810  14.795  14.813
41562W        W 9925  17.256  16.652  13.917
41563W        W 9926  15.633   2.408  11.414
41564W        W 9927   3.787  26.621  12.908
41565W        W 9928  24.129  40.013  10.511
41566W        W 9929   1.409  36.556  12.989
41567W        W 9930  43.485  26.005   1.418
41568W        W 9931  25.039  35.481  12.086
41569W        W 9932  38.536  36.430  13.379
41570W        W 9933  14.150   7.767   0.851
41571W        W 9934   2.370  40.389  10.960
41572W        W 9935  34.025   3.296   3.775
41573W        W 9936  24.561   0.269  12.507
41574W        W 9937  27.946   4.383  14.012
41575W        W 9938   7.709   8.271  14.812
41576W        W 9939   2.958   9.786   4.338
41577W        W 9940   8.704  15.701   0.282
41578W        W 9941   9.820  19.058  11.526
41579W        W 9942   0.289  42.429   2.324
41580W        W 9943  22.236  23.105   4.296
41581W        W 9944  33.915  26.008   2.674
41582W        W 9945  16.760  14.328   2.303
41583W        W 9946  26.665  21.736   2.720
41584W        W 9947  19.647  21.200   4.164
41585W        W 9948   0.377  19.597  10.643
41586W        W 9949  12.135  16.612  14.442
41587W        W 9950  28.088  12.314  10.580
41588W        W 9951  36.397  26.667   0.377
41589W        W 9952  36.073  44.926  12.515
41590W        W 9953  17.269  16.131  12.361
41591W        W 9954   6.211  26.002   3.673
41592W        W 9955   6.384   6.809   4.711
41593W        W 9956   5.207  22.580   0.454
41594W        W 9957   2.398  24.706   5.119
41595W        W 9958  36.462   0.484  14.786
41596W        W 9959  13.604  27.630   4.305
41597W        W 9960  29.606  17.108  13.977
41598W        W 9961  36.361  29.574   2.723
41599W        W 9962  38.852  37.366  10.962
41600W        W 9963  10.875  14.754   2.299
41601W        W 9964  44.373  24.001   0.944
41602W        W 9965   5.347  29.923  11.375
41603W        W 9966   6.396   0.487  10.154
41604W        W 9967  43.895  39.811   1.449
41605W        W 9968  17.246   6.783  13.896
41606W        W 9969  33.885  10.308   2.387
41607W        W 9970  33.971   1.914   3.353
41608W        W 9971  40.529  27.544   3.323
41609W        W 9972  34.969  16.805   3.652
41610W        W 9973   8.715  39.833  13.531
41611W        W 9974  27.044  32.063  14.030
41612W        W 9975  14.684  42.891   1.774
41613W        W 9976   5.912   8.268  14.982
41614W        W 9977  26.601   1.936  14.817
41615W        W 9978  24.480  43.392   2.376
41616W        W 9979  43.770  35.380  11.481
41617W        W 9980  41.355  37.903  14.864
41618W        W 9981  12.685   8.283  11.099
41619W        W 9982  28.940   2.270   0.878
41620W        W 9983   5.883  26.551   2.361
41621W        W 9984  16.715  20.633   4.764
41622W        W 9985  18.132   1.777  12.455
41623W        W 9986  41.447  43.840  10.910
41624W        W 9987  35.062  41.479   4.649
41625W        W 9988  24.576   8.794  11.957
41626W        W 9989  18.095  20.556  13.411
41627W        W 9990   1.392  17.644   0.857
41628W        W 9991   2.928  23.522  12.827
41629W        W 9992  41.388  26.075   4.606
41630W        W 9993  40.432  13.224   3.774
41631W        W 9994   7.780  22.525   2.406
41632W        W 9995   1.819  16.288  14.358
41633W        W 9996  43.310  13.619   1.899
41634W        W 9997   0.881  38.469  10.614
41635W        W 9998  16.096  14.706  11.916
41636W        W 9999  20.537  38.502  12.483
41637W        W10000  38.411  40.954   2.753
41638W        W10001  16.289  42.891   2.230
41639W        W10002   0.947  18.248  10.487
41640W        W10003  11.192  34.480  12.042
41641W        W10004  41.494  23.719  11.876
41642W        W10005  29.558   6.793  13.318
41643W        W10006  29.628  28.144  10.139
41644W        W10007   2.324  10.269   1.710
41645W        W10008   9.165  25.145  11.100
41646W        W10009  17.592  33.950  10.980
41647W        W10010  35.980  12.759  11.935
41648W        W10011   2.344  39.402  11.980
41649W        W10012  33.451  32.404  13.843
41650W        W10013  36.978  23.603  11.471
41651W        W10014  39.394  22.069   4.677
41652W        W10015   0.467  14.149   1.700
41653W        W10016  11.691  32.474   0.335
41654W        W10017   9.887   4.769   3.223
41655W        W10018   3.823  43.277  12.943
41656W        W10019  24.484   5.301   0.865
41657W        W10020  30.056  12.339  12.484
41658W        W10021  32.484  18.782   0.941
41659W        W10022  37.572  14.590   2.238
41660W        W10023   5.201   0.308   0.960
41661W        W10024  26.586   6.355   1.419
41662W        W10025  44.318  22.668   3.336
41663W        W10026  41.392  14.293  14.954
41664W        W10027   9.804  22.587   2.777
41665W        W10028  34.522  25.060  13.047
41666W        W10029  15.650   6.899   4.171
41667W        W10030  18.059  12.821   0.281
41668W        W10031   0.280  36.892  13.419
41669W        W10032  40.964  44.804  14.387
41670W        W10033   1.421  31.016   0.251
41671W        W10034   1.387  23.651   3.667
41672W        W10035  39.843  21.065   0.328
41673W        W10036   5.266  43.295   1.761
41674W        W10037  40.467  37.076  12.340
41675W        W10038   0.278  24.059  11.860
41676W        W10039  16.116   5.349   0.781
41677W        W10040  13.749   6.322  12.994
41678W        W10041  34.031  22.197   4.297
41679W        W10042  14.130  37.061   3.653
41680W        W10043  34.488  31.618   0.812
41681W        W10044  38.073   9.821  11.011
41682W        W10045  44.428  28.027   0.434
41683W        W10046  32.038  39.491   3.196
41684W        W10047   6.426  19.704   2.836
41685W        W10048  20.197  22.036  12.887
41686W        W10049  43.490  42.461  11.015
41687W        W10050   0.920  38.441  13.313
41688W        W10051  38.043  41.949   4.315
41689W        W10052   2.867   7.720  14.450
41690W        W10053  17.119  23.029   2.377
41691W        W10054  24.108  37.001  14.403
41692W        W10055  39.852   6.867   2.330
41693W        W10056  36.914  38.363  10.482
41694W        W10057  21.179  34.611  12.361
41695W        W10058   1.314  11.635  14.770
41696W        W10059  29.571  19.681  12.345
41697W        W10060  14.165  15.227   3.201
41698W        W10061  13.338  38.514  11.895
41699W        W10062  32.092   8.675   4.833
41700W        W10063  10.205  11.787  12.561
41701W        W10064   5.777  41.363   2.727
41702W        W10065  11.707  29.463   1.221
41703W        W10066  12.144  18.568   4.270
41704W        W10067   0.914  31.909   2.699
41705W        W10068  21.093  32.115  13.467
41706W        W10069  19.566  35.451  11.039
41707W        W10070  32.459  21.255   3.162
41708W        W10071   8.326  20.121  11.506
41709W        W10072   1.299  32.917  14.329
41710W        W10073   3.939  21.525  14.995
41711W        W10074  44.459  27.005   0.806
41712W        W10075  27.562  12.822   0.793
41713W        W10076  18.102  43.332   1.765
41714W        W10077  13.346  13.621  13.919
41715W        W10078   0.818  27.078  12.060
41716W        W10079   0.456  25.019  13.341
41717W        W10080   2.423  16.734  11.572
41718W        W10081  40.380   5.724  13.854
41719W        W10082  43.932  37.953   3.656
41720W        W10083   3.816  20.699  11.404
41721W        W10084  26.608   7.312   5.146
41722W        W10085  15.622  44.364  10.114
41723W        W10086  37.834  26.695  13.031
41724W        W10087  32.931  16.596   2.797
41725W        W10088   5.193  30.623   2.310
41726W        W10089   9.363  43.976  14.506
41727W        W10090  23.235   3.375   0.921
41728W        W10091  29.143  33.406  10.045
41729W        W10092  25.970  40.956  11.006
41730W        W10093  18.116   6.833   4.837
41731W        W10094  11.801   6.232   4.230
41732W        W10095  27.065  17.140   0.837
41733W        W10096  30.432  37.830  14.314
41734W        W10097  36.866  44.389   3.678
41735W        W10098  37.493  13.751   0.864
41736W        W10099  24.652   0.985  11.551
41737W        W10100  40.382   7.672   2.736
41738W        W10101  23.611  28.520  12.836
41739W        W10102   6.834  33.009  12.838
41740W        W10103  43.442  43.312   4.808
41741W        W10104  25.658  19.551  12.911
41742W        W10105   5.807  22.710  11.466
41743W        W10106  13.819  15.731   1.398
41744W        W10107  38.347  33.381  11.507
41745W        W10108  10.230  27.616   0.406
41746W        W10109   2.881  22.211  14.346
41747W        W10110   7.870   9.360   2.803
41748W        W10111  36.079  28.075   4.776
41749W        W10112   8.193  40.478  13.008
41750W        W10113   0.955  39.423   3.782
41751W        W10114   4.732   7.383   2.414
41752W        W10115  23.511   6.350   1.812
41753W        W10116  18.683  37.958  12.500
41754W        W10117   3.879  32.928  12.480
41755W        W10118   6.830  30.141   2.880
41756W        W10119  17.133   5.932   2.400
41757W        W10120  38.895  28.028  13.544
41758W        W10121  40.845  24.050   1.370
41759W        W10122  34.539  34.952  13.987
41760W        W10123  24.669  40.001  11.895
41761W        W10124  12.207  22.107  10.928
41762W        W10125  21.683  26.183   4.266
41763W        W10126  16.703  24.614  10.416
41764W        W10127  12.668  41.402  14.458
41765W        W10128  12.619  43.977   3.688
41766W        W10129  22.721  23.515   5.241
41767W        W10130  11.261  20.602  11.579
41768W        W10131  38.538  19.134  14.892
41769W        W10132  14.594  25.590  12.496
41770W        W10133  21.587   9.735  12.039
41771W        W10134   8.231  13.264  11.874
41772W        W10135  27.082   6.405   1.793
41773W        W10136  23.119  25.014  13.843
41774W        W10137  31.953  43.808   1.747
41775W        W10138  18.205  18.274   2.680
41776W        W10139  23.732  24.609   4.698
41777W        W10140  32.394  10.794  14.861
41778W        W10141  12.276  15.185  12.577
41779W        W10142  26.069   7.735   0.269
41780W        W10143   5.878  12.829   0.756
41781W        W10144  14.666  36.392   0.422
41782W        W10145  44.929  20.107  14.863
41783W        W10146  25.152  36.940   4.770
41784W        W10147  16.569  30.926   3.278
41785W        W10148  26.076   8.313   2.199
41786W        W10149  11.367  21.036   3.795
41787W        W10150  14.160   1.296  12.065
41788W        W10151  28.514  44.815  11.071
41789W        W10152   1.323   2.792  13.831
41790W        W10153   6.254   7.200   2.372
41791W        W10154  36.358  40.989  13.352
41792W        W10155  41.889  40.454  14.846
41793W        W10156  43.449  40.472   3.821
41794W        W10157   3.800  36.898  14.441
41795W        W10158   2.358   3.306  12.577
41796W        W10159   0.919  44.986  14.999
41797W        W10160  22.192  26.995   0.359
41798W        W10161  14.827  36.468  13.833
41799W        W10162  17.569   9.883   1.215
41800W        W10163  26.480  14.665   4.749
41801W        W10164  31.014  10.215   2.901
41802W        W10165  18.066  37.012  12.484
41803W        W10166  15.795  16.282  11.097
41804W        W10167  23.712   1.411  14.514
41805W        W10168  34.014  40.394   2.699
41806W        W10169  14.719   9.702   3.291
41807W        W10170  29.577  14.636  12.086
41808W        W10171   2.382   3.283   1.696
41809W        W10172  26.570   1.743   4.658
41810W        W10173   1.925  10.862   3.154
41811W        W10174  25.668   0.269  12.934
41812W        W10175  23.073  15.769   0.799
41813W        W10176  10.151  28.988   0.283
41814W        W10177  27.474  19.660  12.843
41815W        W10178  41.412  22.673   0.818
41816W        W10179  26.161  36.959   4.304
41817W        W10180  41.863  10.371  13.987
41818W        W10181  37.482   4.403  11.426
41819W        W10182  36.480  11.680  12.014
41820W        W10183   5.308  28.649   3.726
41821W        W10184  32.502  27.143  13.794
41822W        W10185  17.644  15.188   1.847
41823W        W10186  18.085  13.349  10.469
41824W        W10187  17.557  35.012   4.773
41825W        W10188  32.577  30.617   2.405
41826W        W10189  35.875  37.033   1.391
41827W        W10190  25.486  24.190  11.885
41828W        W10191   2.312  20.615   1.242
41829W        W10192   4.813  32.083  10.148
41830W        W10193   4.943  43.320  12.881
41831W        W10194  13.278  37.959   1.265
41832W        W10195   5.328  24.541  13.411
41833W        W10196  35.472  26.553  12.949
41834W        W10197   1.835   2.795  12.945
41835W        W10198  43.873  21.647  13.459
41836W        W10199  32.628  42.032  12.419
41837W        W10200  16.672  38.938   3.799
41838W        W10201  20.146  32.907   1.448
41839W        W10202  16.318  35.896  11.060
41840W        W10203  38.966  38.984  14.464
41841W        W10204  34.486  32.514  14.918
41842W        W10205   1.942   7.329  14.826
41843W        W10206  30.982  44.003   4.128
41844W        W10207  12.236  26.047   4.114
41845W        W10208  42.975  10.859  10.931
41846W        W10209  30.508  15.288  12.352
41847W        W10210  44.320  38.841  11.570
41848W        W10211  22.044  27.513   3.168
41849W        W10212   8.254   2.861  14.453
41850W        W10213  34.086  10.797  10.555
41851W        W10214  26.102  14.602  14.998
41852W        W10215  18.624  31.501   0.311
41853W        W10216  34.406  36.539  11.949
41854W        W10217   8.750   4.282  11.011
41855W        W10218   0.862  33.432   1.263
41856W        W10219  19.714  40.979   1.707
41857W        W10220  21.239   3.417   5.157
41858W        W10221   2.866  21.737  12.903
41859W        W10222  44.896  18.210   0.421
41860W        W10223  31.402  27.044  11.423
41861W        W10224   5.379  39.380  11.902
41862W        W10225   2.898  20.184   2.279
41863W        W10226  39.515  27.196   4.321
41864W        W10227  22.132   8.233  13.846
41865W        W10228  16.214   0.452   3.286
41866W        W10229  20.251  32.567   2.361
41867W        W10230  38.865  24.100  10.924
41868W        W10231  41.026  36.436   1.411
41869W        W10232  39.417   9.851   1.342
41870W        W10233   7.221  43.854   2.290
41871W        W10234  10.673   8.794  14.822
41872W        W10235  26.460  14.215  12.834
41873W        W10236  39.320  24.068   2.181
41874W        W10237  25.686  34.058   1.267
41875W        W10238  13.599  12.855  13.969
41876W        W10239  29.546  29.093   4.264
41877W        W10240  18.089  21.637   1.316
41878W        W10241  28.070  17.173  11.869
41879W        W10242  40.309   3.417  13.863
41880W        W10243  35.979  31.931   1.414
41881W        W10244  11.648   4.773  12.374
41882W        W10245  33.962   2.903   2.305
41883W        W10246   8.336  40.955  13.958
41884W        W10247  29.650  27.121   1.399
41885W        W10248  19.540  33.430   3.724
41886W        W10249  18.238  22.183   1.725
41887W        W10250  30.929  27.478  11.922
41888W        W10251   5.744  23.642  14.409
41889W        W10252  28.004  31.961  10.517
41890W        W10253  29.077  39.964  12.878
41891W        W10254  16.193  38.950  12.096
41892W        W10255  34.369  18.080   4.270
41893W        W10256  14.794  34.442  10.995
41894W        W10257   7.809  29.052  13.866
41895W        W10258  28.942  22.737  12.391
41896W        W10259  40.334  21.583  14.289
41897W        W10260  31.933  44.780   9.980
41898W        W10261  37.880  19.164   2.846
41899W        W10262  25.677  28.608   4.608
41900W        W10263  37.981  35.499  14.837
41901W        W10264  23.527  29.962   4.629
41902W        W10265  32.931  34.485   2.845
41903W        W10266  21.622   4.418   3.211
41904W        W10267   7.685  23.188   4.176
41905W        W10268   0.367  30.575   2.286
41906W        W10269  16.707  10.201  13.951
41907W        W10270  31.576  30.591   4.768
41908W        W10271   1.743  30.616  14.025
41909W        W10272  36.466  25.608  11.060
41910W        W10273  11.824  43.308  13.893
41911W        W10274  22.091   5.392   0.428
41912W        W10275  33.514   7.665   1.419
41913W        W10276  35.980  43.296   0.929
41914W        W10277  26.683   9.887   0.778
41915W        W10278  10.291  37.006   3.359
41916W        W10279  24.987  42.325  14.780
41917W        W10280  42.517  24.053   4.249
41918W        W10281  35.003  43.393   4.289
41919W        W10282  27.614  37.502  11.937
41920W        W10283  10.161  44.413  10.609
41921W        W10284   1.969  43.817  12.011
41922W        W10285   2.305  21.099   3.243
41923W        W10286  30.482   0.860  14.460
41924W        W10287  29.651  20.150  12.941
41925W        W10288  37.863  42.358   0.368
41926W        W10289  36.554  38.417   3.631
41927W        W10290  14.231  25.592   1.826
41928W        W10291  33.586  21.240   3.712
41929W        W10292   8.876  14.705  10.916
41930W        W10293   2.314  20.591  14.932
41931W        W10294  37.934  18.753   4.233
41932W        W10295  21.651  34.517  11.869
41933W        W10296  10.639  16.108  14.011
41934W        W10297   5.343  42.905   2.882
41935W        W10298  31.105  44.994  12.947
41936W        W10299  36.036   0.387  11.048
41937W        W10300   8.711  29.159   1.388
41938W        W10301  43.482  36.853  11.063
41939W        W10302  23.640  27.946  11.433
41940W        W10303  12.718  19.069   4.134
41941W        W10304   4.858  20.166  14.891
41942W        W10305  42.978  14.727  14.306
41943W        W10306  41.310  21.629   0.406
41944W        W10307   8.782  33.569   3.235
41945W        W10308  44.389  13.321   1.788
41946W        W10309  42.960  43.303   1.700
41947W        W10310  40.867  36.544   0.943
41948W        W10311  20.067   2.278  13.901
41949W        W10312  17.185  35.473  13.363
41950W        W10313   2.447   5.696  14.473
41951W        W10314  23.238  15.102  13.486
41952W        W10315  28.176  40.001   2.807
41953W        W10316   0.979  12.127   1.220
41954W        W10317   7.277  33.935   4.215
41955W        W10318  20.642  27.991   2.406
41956W        W10319  32.914  22.226  12.064
41957W        W10320  22.242  33.495  10.596
41958W        W10321  28.135   7.820  12.517
41959W        W10322  30.977  28.980   4.331
41960W        W10323  24.149  20.632   4.126
41961W        W10324  13.279  20.568   3.836
41962W        W10325   6.854  27.445   1.801
41963W        W10326  27.605  12.651  12.505
41964W        W10327  22.167  19.621  13.364
41965W        W10328   3.867  41.027   3.707
41966W        W10329  39.919  11.333   1.318
41967W        W10330  39.981  36.438  10.462
41968W        W10331  14.599  17.704   4.232
41969W        W10332   7.899  24.207  12.002
41970W        W10333  30.103   8.258   0.912
41971W        W10334  40.933   5.902  14.294
41972W        W10335  15.780  21.690   2.718
41973W        W10336  15.196  15.787   4.773
41974W        W10337  17.744  35.078   3.164
41975W        W10338  23.567   0.750   3.630
41976W        W10339  40.918  34.914   0.356
41977W        W10340  25.076  13.710  11.082
41978W        W10341  38.396   2.782  13.863
41979W        W10342  12.848  29.650  14.349
41980W        W10343  11.261  43.330  11.443
41981W        W10344  11.752  32.131  13.029
41982W        W10345  14.766  15.739  13.993
41983W        W10346   6.337  37.346  11.613
41984W        W10347  26.595  37.497   4.164
41985W        W10348  40.922  30.073  14.386
41986W        W10349   0.806  43.913  11.065
41987W        W10350  20.271  19.622  14.781
41988W        W10351   6.913  38.425   1.346
41989W        W10352   2.944   5.233   0.962
41990W        W10353  37.911  13.107   0.345
41991W        W10354  43.282  20.074  14.802
41992W        W10355  23.082  25.116   3.635
41993W        W10356  30.422  25.995   4.785
41994W        W10357  39.809   1.409  13.958
41995W        W10358  39.854  34.374  12.423
41996W        W10359  13.687  35.388  11.411
41997W        W10360  27.184   9.734  11.448
41998W        W10361  36.349  24.479  12.851
41999W        W10362  29.634  27.609   1.809
42000W        W10363  11.647  30.617   2.269
42001W        W10364  36.034  14.204  12.875
42002W        W10365  24.052   3.318  13.896
42003W        W10366  31.545  25.689   0.912
42004W        W10367  33.432  18.278   2.306
42005W        W10368  12.242  28.448   0.326
42006W        W10369   6.216  40.502   2.797
42007W        W10370  15.265  20.126  14.802
42008W        W10371  38.991  25.697  14.447
42009W        W10372  42.808   6.395   0.329
42010W        W10373  29.602  16.108  12.432
42011W        W10374  22.504  11.706   0.299
42012W        W10375  32.024  31.408   0.394
42013W        W10376  30.038  32.887   2.852
42014W        W10377  40.881   9.853  12.417
42015W        W10378  38.362  13.801   5.180
42016W        W10379   1.448  32.605  12.877
42017W        W10380  28.495  16.216  14.409
42018W        W10381   0.429  39.418  13.819
42019W        W10382  24.155  19.195  12.905
42020W        W10383  39.379  20.165  10.983
42021W        W10384  35.493  27.071   3.656
42022W        W10385  16.188   6.915  11.465
42023W        W10386  15.199   1.912   2.200
42024W        W10387  23.656  13.163   4.165
42025W        W10388  34.890  28.561   0.384
42026W        W10389  41.891  39.866  14.409
42027W        W10390  42.790   8.295  12.091
42028W        W10391  28.046  44.458   3.678
42029W        W10392  44.352   6.353  13.455
42030W        W10393  27.475   4.769  13.833
42031W        W10394  32.587   5.825  13.061
42032W        W10395   4.890  10.195  12.553
42033W        W10396  33.076  20.752   0.392
42034W        W10397   2.263   3.885  10.458
42035W        W10398  38.370   6.402   1.414
42036W        W10399  31.639  16.779   1.838
42037W        W10400  42.879  33.945   4.166
42038W        W10401   5.756  28.076   3.698
42039W        W10402  39.874   4.739  11.605
42040W        W10403  27.174  24.632   3.209
42041W        W10404  30.112  35.006  12.887
42042W        W10405   3.326  28.081  10.508
42043W        W10406   1.972  34.119   1.902
42044W        W10407  22.021  44.994  11.957
42045W        W10408   1.901  23.053   3.814
42046W        W10409  32.913  38.053   2.690
42047W        W10410  11.796   6.832   2.253
42048W        W10411  14.619  29.009   4.300
42049W        W10412  34.505  32.087  12.580
42050W        W10413  44.894   3.943  11.037
42051W        W10414  12.667  15.737  11.382
42052W        W10415  18.716  44.918   1.912
42053W        W10416  10.648   8.846   0.962
42054W        W10417   0.753  20.711   3.386
42055W        W10418  36.376  38.922   3.222
42056W        W10419  43.358  17.099  10.434
42057W        W10420  14.774  14.304  10.924
42058W        W10421  28.479  38.363  14.010
42059W        W10422  40.367  42.347   4.314
42060W        W10423  35.008  41.452  11.552
42061W        W10424  20.272  20.063  12.485
42062W        W10425  27.656  44.883   2.806
42063W        W10426  37.873   0.361  12.941
42064W        W10427  11.276  44.783  13.955
42065W        W10428   8.307  10.719  11.440
42066W        W10429  40.377  35.853   3.828
42067W        W10430  12.278  12.193  10.628
42068W        W10431  42.473  18.785   2.814
42069W        W10432  11.858  15.083   4.736
42070W        W10433  16.724  25.069  13.360
42071W        W10434  19.623  42.402  13.809
42072W        W10435  30.552  31.645   0.802
42073W        W10436   4.393  44.992  14.487
42074W        W10437  20.072  25.634  13.871
42075W        W10438  39.959  39.463  13.534
42076W        W10439  39.490  20.161   3.746
42077W        W10440  44.918  27.588   2.799
42078W        W10441  33.508  40.840   1.748
42079W        W10442  34.516  35.039   0.834
42080W        W10443  42.873  24.527   0.286
42081W        W10444  16.620  43.413  11.889
42082W        W10445   9.175  23.560  11.070
42083W        W10446  27.669  39.816   1.436
42084W        W10447  35.595   6.850  11.103
42085W        W10448   4.390  22.037  14.848
42086W        W10449   7.743   9.372  11.549
42087W        W10450  32.419  35.454   4.760
42088W        W10451  11.781   5.857  11.887
42089W        W10452  11.279  23.006  10.507
42090W        W10453  17.203   5.257  12.074
42091W        W10454  13.236  11.291  14.388
42092W        W10455  30.945  12.792  11.547
42093W        W10456  15.121  16.767  14.355
42094W        W10457  25.670  25.623  13.009
42095W        W10458  26.619  12.242   0.946
42096W        W10459  39.545  23.542   4.836
42097W        W10460  12.299  15.612  10.981
42098W        W10461  23.588   7.676  12.032
42099W        W10462   5.411  15.215  10.412
42100W        W10463  11.236  36.570  13.028
42101W        W10464   7.808   6.224   3.804
42102W        W10465  37.920  31.953  13.824
42103W        W10466  21.696  39.449  14.995
42104W        W10467  27.481  27.598   0.442
42105W        W10468  15.091  34.511  13.921
42106W        W10469  12.748  13.667   4.225
42107W        W10470   4.879   7.252   4.694
42108W        W10471  31.929  42.484   1.844
42109W        W10472  37.076  37.563   1.697
42110W        W10473  17.769  13.238   0.930
42111W        W10474  24.692  34.966  14.879
42112W        W10475  28.513   0.460   3.350
42113W        W10476   5.348  33.951  11.120
42114W        W10477  40.527  21.222  11.083
42115W        W10478  39.356   6.682   3.174
42116W        W10479  21.025  10.638   3.843
42117W        W10480  36.979  23.688  13.323
42118W        W10481  37.060  35.540   4.272
42119W        W10482  13.296  14.823  14.942
42120W        W10483  32.091   1.460   5.295
42121W        W10484  20.201  30.100  11.501
42122W        W10485  34.910  26.119   3.205
42123W        W10486   7.852  36.466   0.810
42124W        W10487  35.903  27.023  13.387
42125W        W10488   8.680  26.609   3.871
42126W        W10489  36.423  31.441  13.398
42127W        W10490  22.131  31.646  10.913
42128W        W10491  22.719  44.457  11.450
42129W        W10492   4.861  19.778  13.027
42130W        W10493  32.564   4.794  13.001
42131W        W10494  36.096  35.587  13.989
42132W        W10495  38.556  29.947   4.704
42133W        W10496  28.471  15.602  13.857
42134W        W10497  12.331   1.837   3.798
42135W        W10498  28.076  11.191  12.414
42136W        W10499   0.756  11.194  14.413
42137W        W10500  43.896  44.907   1.863
42138W        W10501  41.035  41.876   2.187
42139W        W10502  30.532  41.977   3.226
42140W        W10503  22.554  20.565   2.866
42141W        W10504  38.515  18.573  12.504
42142W        W10505  19.545   9.702   3.340
42143W        W10506  31.420  39.353  14.852
42144W        W10507  43.299  43.976   3.739
42145W        W10508  25.145  24.578   3.307
42146W        W10509  33.950  24.020   0.296
42147W        W10510   0.264  38.889   1.278
42148W        W10511  15.800   8.209   2.748
42149W        W10512  40.858  21.228   2.723
42150W        W10513  24.218  27.099   4.155
42151W        W10514  38.502  26.982   2.849
42152W        W10515  31.008  14.641   4.760
42153W        W10516   5.388  37.445  13.025
42154W        W10517  42.804  13.755  13.970
42155W        W10518  37.905  40.819   4.220
42156W        W10519   3.815  30.512   1.736
42157W        W10520  13.831  32.987  12.038
42158W        W10521  34.010   1.393  12.555
42159W        W10522  16.731  33.015   3.335
42160W        W10523   6.383  22.531  11.498
42161W        W10524  43.005  33.509  11.479
42162W        W10525  10.703  20.205   3.160
42163W        W10526  33.505  19.244   1.924
42164W        W10527  18.060   0.489  14.374
42165W        W10528  26.029   6.394   3.757
42166W        W10529  14.296  38.895  14.845
42167W        W10530   8.763  26.994  14.320
42168W        W10531  25.479  40.404   3.705
42169W        W10532   6.391  38.373  12.434
42170W        W10533  18.738  37.966  12.967
42171W        W10534  41.011  33.580   3.263
42172W        W10535  20.691  32.998  13.974
42173W        W10536   0.334  18.130  14.345
42174W        W10537  19.150  18.610   0.961
42175W        W10538   0.471  29.176  11.027
42176W        W10539  20.635  14.267   0.742
42177W        W10540  24.662  41.953  14.367
42178W        W10541  10.306   4.217   2.890
42179W        W10542  17.116  16.634  11.583
42180W        W10543  12.794  38.014   3.243
42181W        W10544  42.399  17.702  10.408
42182W        W10545   0.957  23.635  11.954
42183W        W10546  19.199  20.088   2.367
42184W        W10547   1.462  41.323  10.498
42185W        W10548  24.634  32.522   1.304
42186W        W10549  43.486  24.125   3.753
42187W        W10550   3.254  31.012  12.864
42188W        W10551  13.268  43.889   0.854
42189W        W10552   4.898  44.492  12.368
42190W        W10553  19.164  14.151   4.598
42191W        W10554  19.271  11.634  10.637
42192W        W10555  26.016  38.446   0.322
42193W        W10556   7.289   1.241   3.230
42194W        W10557  43.869  22.208  11.872
42195W        W10558  12.811  10.643   3.784
42196W        W10559  15.604  39.550  13.925
42197W        W10560  36.562  33.585   0.268
42198W        W10561  39.337   7.210   0.785
42199W        W10562  22.594  17.127   3.186
42200W        W10563  26.643  14.234   5.305
42201W        W10564  34.100  26.688  12.358
42202W        W10565  33.098  31.952  13.318
42203W        W10566  43.469   4.366   2.818
42204W        W10567  21.036  21.516   2.371
42205W        W10568  44.882   1.328  14.887
42206W        W10569  38.843  13.624   3.166
42207W        W10570  17.195  39.012   2.353
42208W        W10571  10.253  34.579  13.367
42209W        W10572  16.617  37.004   1.277
42210W        W10573   9.193  19.060   0.381
42211W        W10574   2.906  14.644  11.588
42212W        W10575  40.905  31.011  14.506
42213W        W10576  34.096  44.412  13.978
42214W        W10577  12.773  43.435  13.060
42215W        W10578   9.667  34.054  12.581
42216W        W10579   9.779  12.686  13.871
42217W        W10580  44.892  44.975   0.844
42218W        W10581   7.904  39.840   4.231
42219W        W10582  35.050  39.476  10.599
42220W        W10583  29.607  23.147  13.490
42221W        W10584   3.781  24.577  11.903
42222W        W10585  40.905   2.722  11.994
42223W        W10586  39.500  27.677  14.964
42224W        W10587  45.000   6.398  12.428
42225W        W10588  28.132  22.671   2.194
42226W        W10589  16.683  42.368  11.084
42227W        W10590  44.259   6.690   0.438
42228W        W10591  23.114   8.900   2.776
42229W        W10592   0.954   9.797  10.144
42230W        W10593  33.593  17.745  11.040
42231W        W10594  19.619  36.517   5.303
42232W        W10595   7.351  44.465  10.615
42233W        W10596   2.370  33.909  12.014
42234W        W10597   3.223  23.167   3.200
42235W        W10598  13.784   5.259   0.822
42236W        W10599   4.231  25.148  13.866
42237W        W10600  15.773  32.518  13.492
42238W        W10601  32.947  24.017  14.793
42239W        W10602   6.426  20.696   3.729
42240W        W10603  15.821  20.639  11.923
42241W        W10604  36.968  22.012  14.874
42242W        W10605  15.790  10.183  10.496
42243W        W10606  16.614  29.158  12.384
42244W        W10607  23.524   3.754  14.881
42245W        W10608  25.646  40.893  12.020
42246W        W10609  11.669  43.908   3.345
42247W        W10610  16.183  23.071   2.712
42248W        W10611  37.548  32.601   1.777
42249W        W10612   0.308  24.565  10.903
42250W        W10613  41.436   3.915   4.771
42251W        W10614  36.563  24.693   1.240
42252W        W10615  29.062  43.894  13.406
42253W        W10616  22.693  27.655  10.461
42254W        W10617  29.945  19.738  10.903
42255W        W10618  28.105  44.261  14.365
42256W        W10619   3.332   4.929   3.273
42257W        W10620   9.376  19.225  13.947
42258W        W10621  27.058   4.395  12.884
42259W        W10622  18.689  19.608  14.782
42260W        W10623  11.771  42.970  14.983
42261W        W10624  35.382  43.897  12.974
42262W        W10625  24.200  34.418   1.783
42263W        W10626  41.505  34.041  11.986
42264W        W10627  21.034  24.131   3.706
42265W        W10628  36.941  26.197  12.999
42266W        W10629  11.852  41.378  12.010
42267W        W10630  43.328  26.606   4.687
42268W        W10631  19.643   0.786   1.240
42269W        W10632   2.733  23.058   4.311
42270W        W10633  37.000   8.255   3.169
42271W        W10634  30.993  16.670  12.954
42272W        W10635  19.683   6.754  13.354
42273W        W10636  18.780  44.474   1.874
42274W        W10637  37.518  16.087  10.625
42275W        W10638  32.132  30.957  12.420
42276W        W10639   5.243   9.744  11.095
42277W        W10640  24.080  36.854  10.483
42278W        W10641  38.005   3.238  12.029
42279W        W10642   5.765  39.351   1.397
42280W        W10643   4.352  25.614   1.355
42281W        W10644  44.996  33.466  12.941
42282W        W10645  28.452  17.128  14.368
42283W        W10646   9.276  24.126   3.202
42284W        W10647   3.232  39.865   3.384
42285W        W10648  22.552  42.804  12.005
42286W        W10649   3.872  19.660  14.023
42287W        W10650   4.750  15.197  14.300
42288W        W10651   2.411  44.304  11.855
42289W        W10652   4.772  18.258   0.876
42290W        W10653  44.317  15.215  12.563
42291W        W10654  39.400   7.840  11.503
42292W        W10655  32.009   7.704  13.960
42293W        W10656  37.902   2.334  12.964
42294W        W10657   9.714  22.547  12.937
42295W        W10658  35.512  18.201  10.557
42296W        W10659   7.189  39.033   1.886
42297W        W10660  33.016  28.596   0.449
42298W        W10661  11.178  40.014   4.768
42299W        W10662  40.850  17.141  13.937
42300W        W10663   8.844  29.666   3.283
42301W        W10664   1.257  27.044  14.884
42302W        W10665  25.578   0.978  13.452
42303W        W10666  44.505  17.110   0.454
42304W        W10667  29.079   3.728  13.887
42305W        W10668  17.090  24.690   0.345
42306W        W10669   9.879  44.422  12.010
42307W        W10670  32.532  42.414   2.765
42308W        W10671  39.050  23.240   3.273
42309W        W10672   1.375  18.601   3.739
42310W        W10673  39.493  30.005   2.243
42311W        W10674  23.183  37.415   4.692
42312W        W10675  22.535  43.863  14.780
42313W        W10676  11.152  13.657  14.513
42314W        W10677  17.116  11.171  11.605
42315W        W10678  15.195  41.953  10.498
42316W        W10679  11.760   4.430   2.230
42317W        W10680  23.096  37.048   4.698
42318W        W10681   2.929  16.208  14.295
42319W        W10682  12.830  19.709  10.432
42320W        W10683   5.825  32.408  13.347
42321W        W10684  21.512  17.731   4.130
42322W        W10685  28.957   6.342  13.019
42323W        W10686  29.984   5.739  14.011
42324W        W10687   8.844  29.486  13.036
42325W        W10688  21.526  39.490  10.585
42326W        W10689  30.432  30.458  10.035
42327W        W10690  32.618  13.232   0.814
42328W        W10691  17.062  24.523   0.899
42329W        W10692  33.595   5.754  13.531
42330W        W10693  26.064  33.397   2.319
42331W        W10694  39.463  41.896  12.911
42332W        W10695   0.938  20.226   4.271
42333W        W10696   9.821  29.452   0.899
42334W        W10697  15.747  20.672   1.905
42335W        W10698  38.032   3.240  12.434
42336W        W10699  26.573   7.746   2.361
42337W        W10700  33.418  39.429  11.478
42338W        W10701  31.917   1.365  11.387
42339W        W10702  12.851  39.955  11.923
42340W        W10703  40.993   5.844  10.542
42341W        W10704  10.857  21.119  14.304
42342W        W10705  39.036   6.837  14.880
42343W        W10706  44.284  18.081  12.551
42344W        W10707  20.155  40.921  11.418
42345W        W10708  38.507   9.762  10.461
42346W        W10709  10.718  16.112   1.372
42347W        W10710  11.791  37.053  12.383
42348W        W10711  12.646  40.437   0.914
42349W        W10712  44.310  10.787  12.492
42350W        W10713   0.289   6.721   3.190
42351W        W10714  18.153  42.493   1.213
42352W        W10715  38.899   9.159   0.911
42353W        W10716  15.717  25.079  12.859
42354W        W10717  15.732  21.649   3.701
42355W        W10718  36.041  24.054  12.345
42356W        W10719   0.755  24.077   2.894
42357W        W10720   1.885   2.824  10.597
42358W        W10721  39.879   5.314  12.858
42359W        W10722  35.077  18.714   5.276
42360W        W10723  34.999  41.505  12.433
42361W        W10724   0.867   1.419  12.427
42362W        W10725  27.153  40.440   3.753
42363W        W10726  23.722  37.928   0.891
42364W        W10727  20.256  28.945  13.378
42365W        W10728  32.128  35.509   3.196
42366W        W10729  14.713  25.998  14.935
42367W        W10730  14.257  41.460  13.502
42368W        W10731  22.563   2.952  12.031
42369W        W10732  38.962  13.174  11.530
42370W        W10733  22.733  37.842  10.123
42371W        W10734   8.750  20.533  10.489
42372W        W10735  13.194  28.628  12.894
42373W        W10736  13.263   4.810  14.831
42374W        W10737  14.202   6.186  13.901
42375W        W10738  15.205  11.742  12.968
42376W        W10739  41.032  38.507   2.874
42377W        W10740   7.739  26.135   4.837
42378W        W10741  37.853   2.844   1.417
42379W        W10742  43.969   4.723   3.740
42380W        W10743   5.826  12.718   1.394
42381W        W10744  20.568   3.769   3.786
42382W        W10745   8.793  30.420   3.749
42383W        W10746   7.237   8.405   0.467
42384W        W10747   7.754  18.285   2.880
42385W        W10748  41.531   8.731   2.407
42386W        W10749   4.421   3.946  10.524
42387W        W10750  37.020  33.968  14.462
42388W        W10751  27.135  26.097   1.428
42389W        W10752   4.446  40.982  12.996
42390W        W10753  39.885  22.716   2.395
42391W        W10754  22.606  23.036   0.301
42392W        W10755  33.545  10.280   0.744
42393W        W10756  43.991  18.085   0.763
42394W        W10757  39.558  43.868   4.246
42395W        W10758  14.730  28.080   3.686
42396W        W10759  36.987   2.891   1.873
42397W        W10760  39.971   1.386  12.925
42398W        W10761  29.981  41.977   0.726
42399W        W10762  26.569  42.935   1.761
42400W        W10763  42.825  17.260  11.538
42401W        W10764  12.347  31.136  14.952
42402W        W10765  13.240  33.054  12.891
42403W        W10766  44.869   0.350   0.319
42404W        W10767  34.090  41.384   1.759
42405W        W10768   1.829  27.156   0.774
42406W        W10769   7.858   9.384   2.364
42407W        W10770  24.558  30.072  14.970
42408W        W10771  24.589  13.219  10.947
42409W        W10772  29.436   5.789  10.571
42410W        W10773  42.924  33.384   3.284
42411W        W10774  38.915  42.326  12.031
42412W        W10775  38.541   0.492  10.903
42413W        W10776  14.733  28.971  12.987
42414W        W10777  28.587  10.697   3.188
42415W        W10778  17.608   4.370  10.990
42416W        W10779   6.410  29.151   1.878
42417W        W10780   0.887  29.161  12.022
42418W        W10781  40.970   1.748  12.516
42419W        W10782   9.840  20.542  11.432
42420W        W10783  19.222  17.159   0.745
42421W        W10784   6.200   4.270   2.299
42422W        W10785  26.120  19.263   2.758
42423W        W10786  26.963  44.933  11.918
42424W        W10787  27.462  13.827   9.532
42425W        W10788   3.910  29.021  13.005
42426W        W10789  44.348  21.747   0.476
42427W        W10790  20.538   6.278  10.569
42428W        W10791  16.084  24.583  13.945
42429W        W10792  22.158  38.060  13.525
42430W        W10793  32.502  15.739   1.736
42431W        W10794  27.054   3.745  10.428
42432W        W10795  19.210   4.348  13.466
42433W        W10796  21.725  35.431  13.047
42434W        W10797   0.976  44.351   0.463
42435W        W10798  39.319  36.568   0.943
42436W        W10799  27.569   4.938   3.185
42437W        W10800  34.034  13.119  12.514
42438W        W10801   0.293  17.781   2.393
42439W        W10802  10.377  17.664   2.743
42440W        W10803   6.732  18.258  14.802
42441W        W10804  41.823  11.129   3.382
42442W        W10805  40.313  40.423   1.856
42443W        W10806  39.388  39.050   0.763
42444W        W10807  16.604  36.422  12.472
42445W        W10808  31.935  20.081  14.514
42446W        W10809   1.333   2.923  14.501
42447W        W10810  26.043  44.370   0.342
42448W        W10811   3.318  34.505  12.894
42449W        W10812   4.727  14.610  11.119
42450W        W10813  31.897  31.124  12.823
42451W        W10814  14.098   0.820  12.559
42452W        W10815  28.501  42.409   1.821
42453W        W10816  33.056  35.586  12.959
42454W        W10817  18.143  31.424  14.797
42455W        W10818  23.223  18.773   4.212
42456W        W10819  42.305  27.092  11.501
42457W        W10820  38.829  25.170  11.550
42458W        W10821   8.663  16.237   3.190
42459W        W10822  22.696  33.021   3.314
42460W        W10823  16.690  16.096  13.478
42461W        W10824  14.338  43.394  11.055
42462W        W10825  40.014   2.817  11.510
42463W        W10826  24.010  33.560   1.742
42464W        W10827   9.365   1.413  14.447
42465W        W10828  32.057  16.309   3.827
42466W        W10829  23.197  13.137  14.903
42467W        W10830  42.939  28.667  11.065
42468W        W10831  31.027   3.845  11.384
42469W        W10832  24.112  33.953  12.863
42470W        W10833  39.820   3.235  11.451
42471W        W10834  15.790  17.630   0.333
42472W        W10835  13.661  19.166  10.998
42473W        W10836  16.235  44.478   3.798
42474W        W10837  12.242  38.479   3.792
42475W        W10838  23.682  17.085   2.183
42476W        W10839   5.317  44.932   1.300
42477W        W10840   0.835  11.759  10.578
42478W        W10841  22.057  40.477  14.839
42479W        W10842  30.104  14.187  11.920
42480W        W10843  37.965  32.989  13.817
42481W        W10844  24.633  38.820   2.796
42482W        W10845  13.335   7.331  13.056
42483W        W10846  41.298  44.307   4.713
42484W        W10847  38.485   4.421  10.888
42485W        W10848  17.653  19.068   4.331
42486W        W10849  28.024  38.917  10.408
42487W        W10850  18.236   7.175   4.678
42488W        W10851  42.523  37.872   0.303
42489W        W10852  17.251  11.222  12.890
42490W        W10853  44.504  42.911   1.237
42491W        W10854  15.219  23.510   4.273
42492W        W10855  26.019  43.391   1.924
42493W        W10856  32.544   8.878   2.749
42494W        W10857   7.245  29.124   3.715
42495W        W10858  14.138  12.279   4.339
42496W        W10859   0.820  27.029   0.463
42497W        W10860  22.185  31.604  12.543
42498W        W10861  31.958  42.990   0.938
42499W        W10862  32.563   6.906   3.828
42500W        W10863   9.168  41.800   0.873
42501W        W10864  30.994  36.974   1.284
42502W        W10865  31.561  41.869   3.788
42503W        W10866  34.884  42.812   2.251
42504W        W10867   1.915  39.925  13.884
42505W        W10868  28.998   1.887  11.431
42506W        W10869  31.509  20.557   0.364
42507W        W10870  13.661  24.677   4.706
42508W        W10871  40.886  22.525  14.428
42509W        W10872  19.611  22.707  14.459
42510W        W10873  19.707  15.240   3.818
42511W        W10874   6.805   7.871  14.455
42512W        W10875  40.916  43.889   4.167
42513W        W10876  23.657  24.217  13.419
42514W        W10877   0.340  40.538   1.771
42515W        W10878  37.560  30.912  11.950
42516W        W10879  35.460  43.959   4.732
42517W        W10880   7.176  28.184  10.526
42518W        W10881  38.504  44.341   2.776
42519W        W10882  17.774  41.824  10.043
42520W        W10883  19.204  25.598   3.337
42521W        W10884  17.140  35.898  13.439
42522W        W10885   1.889  31.611  14.795
42523W        W10886  25.617  40.998   4.243
42524W        W10887   9.887  37.406   0.298
42525W        W10888  35.380  11.266   4.283
42526W        W10889   9.283  25.631   3.263
42527W        W10890  20.723   0.895   2.730
42528W        W10891  18.649  33.896  10.573
42529W        W10892  28.505  31.128  14.468
42530W        W10893   4.280  39.856  13.978
42531W        W10894  44.319  17.703  14.776
42532W        W10895  19.625   7.821   4.275
42533W        W10896  10.760  44.806  14.805
42534W        W10897   9.294  27.674  13.037
42535W        W10898  11.652  29.048  13.824
42536W        W10899  38.459  18.137   3.662
42537W        W10900  15.791   3.788  13.372
42538W        W10901  10.868  13.350  12.555
42539W        W10902  10.273  44.925  13.008
42540W        W10903   4.226   7.259   4.150
42541W        W10904  22.586  35.957  13.523
42542W        W10905  40.312   3.412   0.464
42543W        W10906  30.587  38.837   0.262
42544W        W10907  21.047  21.154  14.824
42545W        W10908  10.829  28.505  10.570
42546W        W10909   9.848  25.653  13.838
42547W        W10910  44.796  11.142   2.241
42548W        W10911  13.815   4.294   2.672
42549W        W10912   7.694   2.869  12.393
42550W        W10913  13.755   6.896  11.462
42551W        W10914   1.978  19.139  12.382
42552W        W10915  39.894  26.596   2.416
42553W        W10916  16.124  25.486   2.272
42554W        W10917  13.157   6.897   5.247
42555W        W10918  25.607  10.197  13.488
42556W        W10919  40.979  37.898   2.321
42557W        W10920  44.971  36.938   2.250
42558W        W10921  41.391  33.025  10.419
42559W        W10922   1.882  18.107   0.774
42560W        W10923  41.990  10.283  10.481
42561W        W10924  11.709  20.615  10.559
42562W        W10925  18.106  38.902   2.893
42563W        W10926  17.769   6.857  11.855
42564W        W10927  31.138  16.671   4.162
42565W        W10928  25.076  44.498  10.444
42566W        W10929  25.039  40.455  13.419
42567W        W10930  36.585  13.648  14.419
42568W        W10931  37.399  17.570   1.429
42569W        W10932  44.304  35.394  13.435
42570W        W10933  30.978   4.251  10.487
42571W        W10934  33.112  25.507  13.811
42572W        W10935  15.198   2.858   0.884
42573W        W10936  43.862  11.704   4.669
42574W        W10937  13.637   1.444   4.783
42575W        W10938   6.321  21.091   4.736
42576W        W10939   9.265  42.896   1.276
42577W        W10940  40.430  39.521  12.853
42578W        W10941  36.438   1.826   2.694
42579W        W10942  36.363  25.682   3.708
42580W        W10943  28.556  39.439  12.523
42581W        W10944   9.739  32.962  13.417
42582W        W10945  43.358   4.447   0.415
42583W        W10946  27.961  32.927   2.276
42584W        W10947  26.127  16.639   3.766
42585W        W10948  23.220  35.957   3.666
42586W        W10949  32.529   8.755  13.980
42587W        W10950  18.735  37.520   4.168
42588W        W10951  23.175  36.559  14.942
42589W        W10952  17.793  17.123  11.581
42590W        W10953  34.011  11.307  12.021
42591W        W10954  15.683  22.012  13.022
42592W        W10955  25.669  29.601  11.407
42593W        W10956  17.162  19.620   1.418
42594W        W10957  10.844  12.212  14.309
42595W        W10958  27.167   8.796   0.795
42596W        W10959  29.942   6.751  14.850
42597W        W10960  40.452  41.352   2.201
42598W        W10961  28.987  20.571   1.444
42599W        W10962  36.935  42.830   2.688
42600W        W10963  13.157   8.836  13.998
42601W        W10964  40.545   2.742  10.632
42602W        W10965   6.196   4.227  10.627
42603W        W10966   1.759  39.368  11.494
42604W        W10967   1.401  19.539  13.328
42605W        W10968  20.266  17.225  12.876
42606W        W10969  17.106  40.325  11.587
42607W        W10970  36.493   7.700  10.509
42608W        W10971   9.886  18.088   2.390
42609W        W10972  34.011  19.168  12.556
42610W        W10973   1.273  28.632   1.793
42611W        W10974  13.229  42.876  11.082
42612W        W10975  36.025  28.484  13.014
42613W        W10976  22.155  34.602  12.980
42614W        W10977  16.122  17.118  11.441
42615W        W10978  29.565  19.276   4.303
42616W        W10979  11.289   9.341  11.501
42617W        W10980  17.118   7.784   4.330
42618W        W10981  28.096   9.229   3.221
42619W        W10982  18.708   5.402  12.460
42620W        W10983   6.814  32.400   0.929
42621W        W10984   2.462  24.226   1.916
42622W        W10985  30.921  22.618  10.942
42623W        W10986  36.900  18.785   0.913
42624W        W10987  31.478  34.421   2.700
42625W        W10988  18.673  33.974   0.321
42626W        W10989  36.982  19.145  14.021
42627W        W10990  44.985  14.732  11.975
42628W        W10991  19.659   1.464   2.309
42629W        W10992  36.486  24.134  11.497
42630W        W10993  38.425   2.268   4.708
42631W        W10994  21.094  14.629   4.276
42632W        W10995  35.556  22.716  10.546
42633W        W10996  40.422   7.371   1.405
42634W        W10997  37.381  29.980   3.291
42635W        W10998  31.556  40.912   3.249
42636W        W10999  20.099  19.163  12.580
42637W        W11000   4.746  39.001  12.363
42638W        W11001  38.926  14.301  11.486
42639W        W11002  33.062  10.835   3.279
42640W        W11003   7.393  27.627   3.200
42641W        W11004  34.586  23.600   3.363
42642W        W11005  32.994  11.231  11.407
42643W        W11006   0.443  30.440   4.317
42644W        W11007  28.957   7.737  13.345
42645W        W11008  42.471  38.043  13.801
42646W        W11009  37.887   1.917   4.793
42647W        W11010   2.384  40.866  13.877
42648W        W11011  35.000  31.412  12.838
42649W        W11012  22.636  17.151   1.340
42650W        W11013  13.287   0.917  10.955
42651W        W11014  17.658  13.769  11.459
42652W        W11015   6.724  32.977  14.992
42653W        W11016  16.140  17.688   4.314
42654W        W11017  36.065  35.540   2.180
42655W        W11018   9.711  32.053   1.451
42656W        W11019  35.373   1.926   2.292
42657W        W11020  15.740  40.900  10.525
42658W        W11021  24.664  32.603  12.522
42659W        W11022  23.147  13.819   4.226
42660W        W11023  10.737  10.360  12.084
42661W        W11024  36.442  21.177   1.911
42662W        W11025  22.128  28.944   4.218
42663W        W11026  11.658  32.612  12.571
42664W        W11027  27.119  11.192  13.413
42665W        W11028   0.959  24.694  14.996
42666W        W11029   4.325  34.580  11.021
42667W        W11030  11.634  29.550   5.231
42668W        W11031  15.639  36.974   3.630
42669W        W11032   8.233  24.677  13.435
42670W        W11033   3.748  35.087   2.405
42671W        W11034  10.274  25.036  13.372
42672W        W11035  28.044   4.944   0.290
42673W        W11036  32.422  32.088   3.838
42674W        W11037  42.299  10.790  11.114
42675W        W11038  22.516  12.165  11.381
42676W        W11039  43.837  20.681   4.739
42677W        W11040   0.368  39.401   4.806
42678W        W11041  37.436   6.810   2.839
42679W        W11042  19.148  35.469  12.918
42680W        W11043   8.361   0.330   4.199
42681W        W11044   7.742  13.702   1.328
42682W        W11045   2.800  19.284  11.517
42683W        W11046  39.001  11.299   2.700
42684W        W11047  41.482  30.907   0.943
42685W        W11048  12.761   1.792  11.979
42686W        W11049  43.902  36.951  14.355
42687W        W11050  41.833  44.493   2.243
42688W        W11051  11.360   6.830   0.771
42689W        W11052  31.904  27.686  12.424
42690W        W11053  39.415   4.274  13.864
42691W        W11054  31.548  37.946  14.434
42692W        W11055   2.348  29.545   3.683
42693W        W11056   3.426  43.314  11.002
42694W        W11057  29.565  21.662   4.732
42695W        W11058  15.154   1.945  12.986
42696W        W11059  37.376  33.888  14.503
42697W        W11060  33.613  36.995   2.871
42698W        W11061   7.754  37.845   2.235
42699W        W11062  35.025  37.088   3.713
42700W        W11063   1.391  16.678  11.105
42701W        W11064  17.290  14.322   5.277
42702W        W11065  28.645  27.984  12.088
42703W        W11066  37.521   9.305   1.934
42704W        W11067  19.624  10.328   1.788
42705W        W11068   1.961  28.096   2.418
42706W        W11069  33.001   7.890   0.774
42707W        W11070  22.539  39.524  14.011
42708W        W11071  22.544  28.681  12.888
42709W        W11072  38.013  34.969  14.831
42710W        W11073  36.545  32.109   2.765
42711W        W11074  23.012  44.262   1.701
42712W        W11075   7.327  31.430  12.972
42713W        W11076   0.832  18.745  14.932
42714W        W11077  24.653  34.965   4.597
42715W        W11078  23.169  15.289  14.341
42716W        W11079  39.828  35.956   2.781
42717W        W11080  25.215  28.093  12.086
42718W        W11081  30.569  17.260   3.378
42719W        W11082  42.397  34.877   0.482
42720W        W11083   5.915  25.994  12.919
42721W        W11084  14.114   3.310  11.385
42722W        W11085  17.098  18.693   0.318
42723W        W11086  42.392  41.297  14.496
42724W        W11087  12.673  38.562   2.671
42725W        W11088  38.829  14.237  12.955
42726W        W11089  32.973  41.873  10.559
42727W        W11090  30.647  27.157   2.326
42728W        W11091  24.649  16.698   3.783
42729W        W11092  28.475  35.110  13.004
42730W        W11093   3.769  23.042   3.147
42731W        W11094   3.370  43.420   4.793
42732W        W11095  33.071  44.328  12.898
42733W        W11096  40.418   2.455   4.347
42734W        W11097  17.587  28.442   3.250
42735W        W11098  15.124  38.006   1.258
42736W        W11099  22.619  39.381   1.214
42737W        W11100  38.892  39.912   9.983
42738W        W11101  13.219  22.651   2.195
42739W        W11102  22.592  32.963   3.760
42740W        W11103  26.533  26.671  12.524
42741W        W11104  40.424  22.213   3.159
42742W        W11105  39.021   7.718   2.802
42743W        W11106   4.223  34.498   3.240
42744W        W11107  19.277   4.406   4.214
42745W        W11108  42.520  37.395   5.320
42746W        W11109  40.053  30.462  14.855
42747W        W11110  25.964  23.527  10.558
42748W        W11111  33.000  44.299  14.505
42749W        W11112  18.623  41.908   4.644
42750W        W11113   3.788  40.535   4.211
42751W        W11114  31.138  17.591  13.544
42752W        W11115  13.607  39.850  12.568
42753W        W11116  32.112  37.062   0.279
42754W        W11117  41.425  39.484   2.294
42755W        W11118  34.496  29.509  13.413
42756W        W11119   9.244   4.335  14.906
42757W        W11120  41.041  20.689   0.474
42758W        W11121  16.124   1.819  10.530
42759W        W11122  26.047  30.062   2.352
42760W        W11123  11.734  18.284   1.864
42761W        W11124  16.749  17.603   0.734
42762W        W11125   2.746  30.965   3.811
42763W        W11126   3.714  18.671  13.883
42764W        W11127   6.344  42.780  14.978
42765W        W11128  43.408  19.091  11.918
42766W        W11129   1.475   6.327  11.899
42767W        W11130  24.530   9.693   2.776
42768W        W11131   0.944   0.270  13.314
42769W        W11132  25.038  19.684   1.919
42770W        W11133  39.467  27.643   4.827
42771W        W11134  44.862  17.563   4.835
42772W        W11135  18.774   1.482  11.865
42773W        W11136  10.634   9.784  10.473
42774W        W11137  16.649  11.687  12.849
42775W        W11138   5.818  19.166   0.932
42776W        W11139   9.889  27.964   0.342
42777W        W11140  10.212   7.807  12.074
42778W        W11141  13.160  34.988  13.407
42779W        W11142   2.226   4.223   3.841
42780W        W11143  16.737  28.950  14.788
42781W        W11144  20.148  13.840   0.874
42782W        W11145  31.017  22.665  13.475
42783W        W11146  34.437  31.063  12.381
42784W        W11147  12.302   9.811  12.826
42785W        W11148  26.523  23.210  12.417
42786W        W11149   4.409  17.593   4.212
42787W        W11150  36.019  42.890   4.294
42788W        W11151  40.053  27.678   4.743
42789W        W11152  37.869  35.911  14.906
42790W        W11153   6.331   5.838   0.747
42791W        W11154   0.766  39.051  14.970
42792W        W11155  41.351  15.296   0.886
42793W        W11156  20.155  15.155  11.052
42794W        W11157  39.955   2.863   1.320
42795W        W11158  35.893  30.099  12.896
42796W        W11159  19.544  24.489  13.814
42797W        W11160  21.087  23.062  13.449
42798W        W11161   3.296   5.408   3.821
42799W        W11162  18.569  23.572  13.401
42800W        W11163  40.390  18.190  11.898
42801W        W11164  40.937  37.055   4.215
42802W        W11165  29.061   9.356  10.544
42803W        W11166  26.611   5.395  14.793
42804W        W11167  26.548   1.313   3.686
42805W        W11168  23.727  13.132   1.782
42806W        W11169  36.074  31.918   2.224
42807W        W11170  19.131  23.495   4.260
42808W        W11171   8.302  28.968   0.305
42809W        W11172  14.304   6.710  13.926
42810W        W11173   5.306  32.501   0.841
42811W        W11174   2.791  39.417  14.471
42812W        W11175   9.255   5.706  12.382
42813W        W11176  28.970  42.826  10.614
42814W        W11177  26.112  10.645   0.740
42815W        W11178  11.334  30.502   4.833
42816W        W11179  17.603  14.240   0.331
42817W        W11180  37.550  18.589  11.581
42818W        W11181  36.522  17.646   3.247
42819W        W11182  36.575  15.759   3.677
42820W        W11183  13.661  17.651  14.498
42821W        W11184  10.815   4.772   0.748
42822W        W11185  43.510  37.920  11.471
42823W        W11186  22.639  25.967   2.412
42824W        W11187  26.031  38.447  13.365
42825W        W11188   7.378  16.187  12.462
42826W        W11189  37.371  15.162  12.039
42827W        W11190  24.523   9.362   3.178
42828W        W11191  21.650   5.219   2.293
42829W        W11192  43.812  29.001  12.387
42830W        W11193  16.608  16.609   1.409
42831W        W11194  29.646  38.949   4.216
42832W        W11195   3.380  13.656  13.434
42833W        W11196  16.256  37.399  10.902
42834W        W11197  39.056   6.427  11.935
42835W        W11198  15.084  10.710   3.336
42836W        W11199   4.821  15.673   2.324
42837W        W11200  41.400  42.368   4.797
42838W        W11201  10.226  21.071  14.024
42839W        W11202  40.470  20.215  11.992
42840W        W11203  15.748  44.277  13.466
42841W        W11204  25.109   9.391  14.516
42842W        W11205  13.706  24.172  12.390
42843W        W11206  36.585  37.556   2.879
42844W        W11207  20.605  36.054   4.726
42845W        W11208  17.279   6.412   0.885
42846W        W11209  19.155  43.832   4.743
42847W        W11210   5.223  38.466   3.647
42848W        W11211   6.729  25.106   3.286
42849W        W11212   1.291   5.713   3.747
42850W        W11213  21.531  21.234  13.979
42851W        W11214  42.342  19.187  14.784
42852W        W11215  44.272  30.946  11.492
42853W        W11216  16.731  37.482  11.924
42854W        W11217   8.668  40.044  10.613
42855W        W11218  17.701  29.171   3.725
42856W        W11219  41.350  28.181  11.385
42857W        W11220  38.331   3.378   0.895
42858W        W11221  11.189  37.541  10.418
42859W        W11222  16.188   8.274   3.729
42860W        W11223  26.568  13.705  11.988
42861W        W11224  21.222  17.190  12.493
42862W        W11225  27.107  11.249   4.173
42863W        W11226  15.231  27.450  10.439
42864W        W11227  16.313   2.745  12.017
42865W        W11228  18.197  30.462  14.385
42866W        W11229   5.811  23.001   4.708
42867W        W11230  14.317  32.629   3.846
42868W        W11231   3.803   4.889  10.592
42869W        W11232   7.315   4.346   0.960
42870W        W11233   9.709  19.698  14.470
42871W        W11234  38.412   9.728   4.832
42872W        W11235  30.060  39.856   1.343
42873W        W11236   2.238  20.159   1.395
42874W        W11237  14.820   9.649   1.396
42875W        W11238  19.727  12.831   2.887
42876W        W11239  33.947   2.419  14.986
42877W        W11240  20.133  18.196   2.340
42878W        W11241  30.004   0.750   4.677
42879W        W11242  11.631  32.006   0.756
42880W        W11243  16.088  15.279  13.053
42881W        W11244  37.891  24.722   1.709
42882W        W11245  34.933  39.348   2.272
42883W        W11246  35.106   2.961  12.008
42884W        W11247  13.682  15.138   2.180
42885W        W11248  31.007  26.473   0.347
42886W        W11249   2.860  35.949  14.316
42887W        W11250  31.945  28.469   3.864
42888W        W11251  42.383   5.262  12.005
42889W        W11252  42.362  13.719  14.983
42890W        W11253   1.400  25.979  14.484
42891W        W11254  31.908  18.165   1.784
42892W        W11255  38.983  11.820  13.454
42893W        W11256  39.331  29.051  11.031
42894W        W11257  18.665  43.395   0.341
42895W        W11258  19.114  21.658   1.348
42896W        W11259  25.549  40.990  12.357
42897W        W11260  44.770   9.263  11.025
42898W        W11261  13.798  32.449  12.859
42899W        W11262   6.381  40.042   3.168
42900W        W11263  22.168  33.969   3.690
42901W        W11264  43.875   5.344   3.207
42902W        W11265   0.867  26.605   0.738
42903W        W11266  38.446  34.536   4.665
42904W        W11267  14.658   6.188   3.751
42905W        W11268  41.898  32.519   2.869
42906W        W11269  10.218  16.721   2.751
42907W        W11270  26.002   3.806  12.854
42908W        W11271  36.469  21.515  13.368
42909W        W11272  42.825  34.520   3.183
42910W        W11273  26.541  13.625   5.665
42911W        W11274  31.600  20.150   3.210
42912W        W11275  36.475  19.569   4.610
42913W        W11276  12.326  44.949   3.829
42914W        W11277  11.668  25.516  14.846
42915W        W11278  22.090  25.696   2.875
42916W        W11279  38.468  41.484  13.043
42917W        W11280  14.633  37.956  13.497
42918W        W11281  34.523  24.036  12.440
42919W        W11282  31.923  34.615  14.458
42920W        W11283   0.323  36.535   5.637
42921W        W11284   9.199  36.447   1.210
42922W        W11285   4.756  38.536   1.898
42923W        W11286  28.563  11.622  12.546
42924W        W11287  30.469   8.276  11.960
42925W        W11288  26.117  30.942  14.871
42926W        W11289  41.432  13.720   0.748
42927W        W11290  10.326   0.823   1.845
42928W        W11291  28.177  17.276  13.059
42929W        W11292  20.045   1.271  11.022
42930W        W11293  29.158   2.817  10.474
42931W        W11294  41.797  26.027  12.454
42932W        W11295  33.594  38.503   2.716
42933W        W11296  36.403  43.293  10.921
42934W        W11297   7.754  12.189   1.867
42935W        W11298  38.003  28.513  13.910
42936W        W11299   2.811  35.385  11.515
42937W        W11300  26.093  12.341   2.253
42938W        W11301  33.619  15.808  10.050
42939W        W11302  34.993  43.486  14.482
42940W        W11303  40.027  12.315  13.800
42941W        W11304  33.098  13.642   4.227
42942W        W11305  41.981   1.309  11.457
42943W        W11306  38.389  38.478   1.324
42944W        W11307  31.042  31.965  12.549
42945W        W11308  24.139  43.397  10.454
42946W        W11309  35.480  41.790  10.427
42947W        W11310  16.114  23.728   3.312
42948W        W11311  12.196  30.152   4.718
42949W        W11312   1.807  40.045   0.250
42950W        W11313  33.539  15.190  12.508
42951W        W11314  19.069  17.756  13.505
42952W        W11315   7.219   6.740  11.415
42953W        W11316   3.392  28.634   1.838
42954W        W11317  30.615  11.314   4.600
42955W        W11318  33.046   3.845  11.928
42956W        W11319   1.773  10.828   0.869
42957W        W11320  30.651  42.785  14.827
42958W        W11321  26.073   8.751   1.900
42959W        W11322  13.346  11.345   4.262
42960W        W11323  22.507   7.277  12.918
42961W        W11324  22.668  44.882  11.520
42962W        W11325   7.235   9.269   3.670
42963W        W11326  23.176  16.706   0.792
42964W        W11327  37.869   3.786   2.698
42965W        W11328  11.243  23.734  10.554
42966W        W11329  13.325   4.285  11.509
42967W        W11330  32.911   6.808   1.378
42968W        W11331  37.403  18.170  13.359
42969W        W11332   7.757  33.460  10.015
42970W        W11333  17.301  34.981   0.469
42971W        W11334  26.495  25.488  11.977
42972W        W11335  26.601  30.916  12.904
42973W        W11336  32.470  14.809  13.384
42974W        W11337  17.694   9.193  10.511
42975W        W11338  23.229  16.706  13.336
42976W        W11339  33.488  38.999  11.961
42977W        W11340  11.290   8.285   2.837
42978W        W11341  36.461   8.661   9.948
42979W        W11342   0.409  10.638  13.452
42980W        W11343   1.242  29.051  14.933
42981W        W11344  27.990  42.332   3.757
42982W        W11345   2.946  32.037  12.358
42983W        W11346  34.068  22.642  13.039
42984W        W11347  35.473   4.450  12.062
42985W        W11348  10.248  36.364   1.232
42986W        W11349  12.310  23.617  13.802
42987W        W11350  19.772  35.907   0.312
42988W        W11351  19.251  27.463   1.355
42989W        W11352  38.543  24.708  12.401
42990W        W11353  17.292   3.859   2.371
42991W        W11354  11.858  11.136   1.344
42992W        W11355  29.978  44.796  13.316
42993W        W11356  13.210  34.479   0.388
42994W        W11357  24.051  39.415   4.128
42995W        W11358  18.706  43.928   3.854
42996W        W11359  40.533  15.622   4.326
42997W        W11360  12.139  13.783  10.987
42998W        W11361   8.890  34.002  12.093
42999W        W11362  10.313  42.453  13.886
43000W        W11363  44.996  14.614  11.541
43001W        W11364  22.156  27.156  14.364
43002W        W11365  14.706   5.249  10.605
43003W        W11366  34.390   0.756   9.927
43004W        W11367   3.919   7.401   5.138
43005W        W11368  23.705  13.832   3.824
43006W        W11369  15.581  24.080  12.851
43007W        W11370  22.524  34.937   2.717
43008W        W11371  38.029  19.207   3.658
43009W        W11372  27.450  32.536   0.283
43010W        W11373  10.361   8.740  14.346
43011W        W11374  10.256   1.252  11.959
43012W        W11375   9.811  26.165  12.916
43013W        W11376  35.604  17.302  14.379
43014W        W11377   4.863  25.687   0.308
43015W        W11378   0.439  37.973   3.757
43016W        W11379  42.851   5.808  13.050
43017W        W11380  15.763  18.770   9.669
43018W        W11381   1.804  25.532  14.920
43019W        W11382   3.796   2.470   1.887
43020W        W11383  21.552   8.668   4.812
43021W        W11384  17.082  18.773  11.012
43022W        W11385   9.678   7.855   4.781
43023W        W11386  27.968  35.016  12.552
43024W        W11387  28.485   0.833  11.009
43025W        W11388  41.320  19.115   2.705
43026W        W11389   1.459  10.705   4.174
43027W        W11390  44.873  12.759  10.411
43028W        W11391  16.107  41.941   2.259
43029W        W11392  14.665   0.432   0.269
43030W        W11393  23.058  15.329   2.307
43031W        W11394  32.901  11.627   2.302
43032W        W11395  34.584  22.607  11.487
43033W        W11396   7.878  15.805   1.915
43034W        W11397  16.268  11.629  11.071
43035W        W11398   6.320  31.585  12.452
43036W        W11399   7.763  44.430  11.082
43037W        W11400  26.997  39.046   3.765
43038W        W11401  15.741  40.533   3.303
43039W        W11402  11.190  40.885   1.348
43040W        W11403  14.211  28.607   0.310
43041W        W11404  21.649  11.688   1.337
43042W        W11405  36.856  20.145   0.329
43043W        W11406  17.619   3.887   4.346
43044W        W11407  22.241  25.167  12.565
43045W        W11408   9.849  19.747   4.597
43046W        W11409  21.643  44.422   3.279
43047W        W11410  26.593  41.826  10.942
43048W        W11411  29.546  12.199   0.433
43049W        W11412  16.174   4.708  10.040
43050W        W11413   4.929   2.236  12.094
43051W        W11414  29.010  42.418   4.189
43052W        W11415  25.540  28.049  10.972
43053W        W11416  36.921  28.169   4.643
43054W        W11417  18.761  28.049   4.748
43055W        W11418  23.193  19.052   0.772
43056W        W11419  39.835  33.961   2.279
43057W        W11420  11.781   6.812  11.886
43058W        W11421   3.936  38.412  14.352
43059W        W11422  29.555   2.425  12.949
43060W        W11423  26.045  32.938   2.817
43061W        W11424  20.745  23.016  11.588
43062W        W11425  28.089  30.944  12.050
43063W        W11426  18.123  36.092  11.535
43064W        W11427  30.966  31.065   0.377
43065W        W11428  41.465  44.410  10.894
43066W        W11429  20.268  43.792   3.838
43067W        W11430  27.452   5.326   2.728
43068W        W11431  16.694  12.201   0.740
43069W        W11432  32.494  23.230  12.022
43070W        W11433  12.767   3.717  14.464
43071W        W11434  15.811   1.265  11.883
43072W        W11435  11.840  32.103   0.437
43073W        W11436  23.219  25.025   4.748
43074W        W11437  24.540  11.370  13.909
43075W        W11438  19.775  28.624  11.976
43076W        W11439   3.732  38.554  12.074
43077W        W11440  13.710  37.857   4.291
43078W        W11441   9.263  30.101  14.509
43079W        W11442  34.401  35.422  11.523
43080W        W11443  36.876  15.230   4.703
43081W        W11444  30.927  18.714   4.119
43082W        W11445  36.993   5.205  11.063
43083W        W11446  20.740   3.257  11.010
43084W        W11447  32.414  22.078   2.873
43085W        W11448  26.962  19.721   1.865
43086W        W11449  28.616   5.306  14.830
43087W        W11450   7.847  18.607   4.169
43088W        W11451   3.373   9.667   2.724
43089W        W11452  12.821  36.064   0.261
43090W        W11453  20.231  41.416   3.823
43091W        W11454  37.915   0.872   3.730
43092W        W11455   6.853  19.555   0.763
43093W        W11456  39.480  39.358  10.970
43094W        W11457  13.638  36.467   3.377
43095W        W11458  24.168  21.114   2.698
43096W        W11459  14.598  30.081   4.765
43097W        W11460  18.774  36.041  13.365
43098W        W11461  29.514  40.883  12.397
43099W        W11462  35.941  13.798   1.696
43100W        W11463  29.549  15.643  12.869
43101W        W11464  36.998  10.166  11.866
43102W        W11465   0.912   6.856   1.884
43103W        W11466  22.176  31.980   3.245
43104W        W11467   8.380  22.578  11.068
43105W        W11468  24.225  11.153   1.846
43106W        W11469   7.851   3.274   1.906
43107W        W11470  14.658   0.884   0.944
43108W        W11471  28.154  32.954   3.251
43109W        W11472  25.193  26.680   4.168
43110W        W11473  21.622  33.382  10.482
43111W        W11474   1.815  42.915  12.510
43112W        W11475  33.437  43.911  10.148
43113W        W11476  31.072   6.406   4.131
43114W        W11477  13.756  19.188   2.734
43115W        W11478   9.844  10.719  12.059
43116W        W11479  33.127  30.633  14.028
43117W        W11480   1.964  24.062  10.422
43118W        W11481  31.910   0.441   4.333
43119W        W11482  16.758  24.580   0.943
43120W        W11483   0.420  43.823  13.058
43121W        W11484  21.162   1.797   4.803
43122W        W11485   4.921   9.196   4.252
43123W        W11486   3.865  24.982  14.824
43124W        W11487  28.606  27.536  11.571
43125W        W11488   6.755  42.982   1.790
43126W        W11489  17.657  22.023   1.840
43127W        W11490   7.899  39.517   1.301
43128W        W11491   1.932  27.151   1.311
43129W        W11492  17.264  21.079  10.895
43130W        W11493  36.382  12.284   2.283
43131W        W11494  36.352  32.138  14.343
43132W        W11495  15.676  27.477   0.933
43133W        W11496  16.743  10.839   3.821
43134W        W11497  17.196  37.951   3.680
43135W        W11498  37.839  27.536   3.223
43136W        W11499  32.053  31.420   3.744
43137W        W11500  33.626  40.385  12.561
43138W        W11501  30.915  14.158   3.225
43139W        W11502  28.063   9.261   2.861
43140W        W11503   4.806  43.395   4.234
43141W        W11504  13.755  25.172   4.775
43142W        W11505  36.923   3.767   0.951
43143W        W11506  27.142   5.699  11.050
43144W        W11507   4.423  31.424   2.743
43145W        W11508  19.685   7.755  12.884
43146W        W11509  22.064  40.840  13.452
43147W        W11510  13.122  41.387  14.818
43148W        W11511  35.014   7.387   2.876
43149W        W11512  17.243  17.275   3.842
43150W        W11513  39.828  12.209   2.762
43151W        W11514  41.026  32.052  11.056
43152W        W11515   4.882  12.814  11.577
43153W        W11516  31.079  32.987   4.800
43154W        W11517  32.963  28.963   5.762
43155W        W11518  37.473  37.470  13.389
43156W        W11519  12.283   8.775   1.765
43157W        W11520  20.084   1.876   2.834
43158W        W11521  26.085   2.241   4.122
43159W        W11522   0.850  23.569   0.371
43160W        W11523  23.655  26.666  14.781
43161W        W11524   2.933  23.046   4.712
43162W        W11525  27.025   1.786   3.225
43163W        W11526  44.408  20.056   2.884
43164W        W11527  38.927  37.351  11.556
43165W        W11528  35.601  12.632  10.921
43166W        W11529   9.807  28.975  14.009
43167W        W11530  32.039  36.962   1.350
43168W        W11531   7.849  14.635  13.950
43169W        W11532  26.475  38.547   0.354
43170W        W11533  11.229  18.177   4.267
43171W        W11534  12.211  41.999  13.990
43172W        W11535   5.812  23.144   0.325
43173W        W11536   8.406  41.816   0.806
43174W        W11537   4.378  27.145  10.917
43175W        W11538  42.496  30.072  10.589
43176W        W11539  31.958  43.902  11.496
43177W        W11540  43.865  37.877  12.889
43178W        W11541  18.765  36.995  13.059
43179W        W11542  20.083  33.031   0.791
43180W        W11543   0.960  42.995   3.150
43181W        W11544   6.196  21.229  13.915
43182W        W11545  30.101  18.575  14.486
43183W        W11546  16.311  11.773   9.976
43184W        W11547  14.251  14.816   1.702
43185W        W11548  20.551   5.898   2.358
43186W        W11549   2.430  44.327  10.152
43187W        W11550  39.940   2.807   2.670
43188W        W11551  17.634  16.254  10.496
43189W        W11552  37.849   8.829  11.906
43190W        W11553  31.905  35.594  13.878
43191W        W11554  37.405  40.419  11.542
43192W        W11555  28.954  34.964   0.322
43193W        W11556  15.083  25.637  10.542
43194W        W11557   5.393  32.996   0.478
43195W        W11558  24.115  43.843  11.409
43196W        W11559  20.225  22.574   2.700
43197W        W11560   9.696  19.582   1.318
43198W        W11561  33.001  13.228   0.326
43199W        W11562  24.201  43.299  13.810
43200W        W11563  34.076  38.547  12.344
43201W        W11564  21.167  17.701  13.048
43202W        W11565   2.352  28.634  13.843
43203W        W11566  31.611  10.825   0.895
43204W        W11567   8.317   6.691   0.457
43205W        W11568  14.246   3.260  10.524
43206W        W11569  29.941   5.260   0.452
43207W        W11570  29.589  42.011  11.929
43208W        W11571  17.684   0.984  10.624
43209W        W11572  29.981  40.979  14.974
43210W        W11573   9.322  20.677   1.839
43211W        W11574  34.570  19.185  11.435
43212W        W11575   5.917  33.927  13.453
43213W        W11576  16.585  41.444   0.412
43214W        W11577  13.606  24.150  10.484
43215W        W11578  33.404  18.076   3.792
43216W        W11579   6.182   8.199  14.943
43217W        W11580  39.880  30.914  13.488
43218W        W11581   2.762  19.732  10.970
43219W        W11582   5.769   5.934  13.498
43220W        W11583  36.402   1.805  10.140
43221W        W11584   7.289   7.266  14.844
43222W        W11585  30.530  31.136   4.705
43223W        W11586   1.274  25.216  10.599
43224W        W11587  21.255  10.661   1.931
43225W        W11588  27.552   7.836   4.196
43226W        W11589  43.329  12.843   0.779
43227W        W11590  19.114  12.802  12.940
43228W        W11591  18.227   8.735  13.405
43229W        W11592   4.911  30.424  12.523
43230W        W11593  30.631  33.455   5.292
43231W        W11594  42.792  38.863   4.181
43232W        W11595  41.041  38.925  14.339
43233W        W11596   4.793  40.388  12.059
43234W        W11597  24.714  34.605   0.854
43235W        W11598  40.921  37.401  11.418
43236W        W11599  26.046  41.965  10.609
43237W        W11600   6.737  36.446  12.430
43238W        W11601  20.235  24.561  14.445
43239W        W11602   7.686  20.598   1.868
43240W        W11603  23.532   9.209  14.467
43241W        W11604  33.887   8.201  13.910
43242W        W11605  17.760   3.950  11.029
43243W        W11606  18.104   4.760   4.151
43244W        W11607  31.647  26.992   2.209
43245W        W11608  17.585  41.415  10.100
43246W        W11609   1.765  11.191  12.494
43247W        W11610  10.231  27.450  11.598
43248W        W11611   6.916   1.763   0.421
43249W        W11612  21.031   3.756  12.538
43250W        W11613  30.156  18.666  10.927
43251W        W11614   6.301  36.951  13.872
43252W        W11615   3.280  34.981   2.226
43253W        W11616  44.274  28.566   0.877
43254W        W11617  19.559  29.076   3.747
43255W        W11618  12.773  30.644  14.796
43256W        W11619  43.274  34.444   3.667
43257W        W11620  10.306  17.153   1.220
43258W        W11621  11.727  20.669   2.710
43259W        W11622  21.251  18.072   1.393
43260W        W11623  15.285   9.387   2.416
43261W        W11624   6.858   5.879   3.197
43262W        W11625  37.447  26.959   1.867
43263W        W11626  34.397  12.768   2.263
43264W        W11627  29.095  44.995   0.283
43265W        W11628  13.186  40.465   0.877
43266W        W11629  15.594   8.189  13.336
43267W        W11630  30.137  43.849   4.815
43268W        W11631  11.861   8.747   1.698
43269W        W11632  39.972  10.205   1.256
43270W        W11633  12.778  11.176   2.352
43271W        W11634  44.427   7.256  11.383
43272W        W11635  20.742  38.346   1.843
43273W        W11636  33.433  40.544   0.779
43274W        W11637  25.636  31.940  13.956
43275W        W11638  33.036   7.178   1.370
43276W        W11639  33.552  17.686   2.682
43277W        W11640  26.009  13.225  11.575
43278W        W11641   2.246  19.615   4.338
43279W        W11642   6.726  33.039   4.657
43280W        W11643  18.602  18.640   0.256
43281W        W11644   1.883   3.812  12.378
43282W        W11645  10.706  12.130  11.082
43283W        W11646  18.734  19.226  12.040
43284W        W11647  11.288   6.760  12.479
43285W        W11648  24.102  20.531  11.602
43286W        W11649   7.775   5.804  12.367
43287W        W11650  43.422  43.494   2.214
43288W        W11651  44.295  41.493  14.451
43289W        W11652  35.390   5.344   2.778
43290W        W11653   9.764  44.278  14.312
43291W        W11654   1.471  41.520   2.332
43292W        W11655   4.250  17.596   0.808
43293W        W11656  34.385  15.210   2.831
43294W        W11657  43.383  34.102   0.264
43295W        W11658   0.926   0.256  12.859
43296W        W11659  33.046  39.363   4.717
43297W        W11660  28.175   2.335   1.390
43298W        W11661  22.502  40.326   0.753
43299W        W11662  34.865  42.307  12.927
43300W        W11663  27.663  14.789  12.999
43301W        W11664  25.023   2.727   0.289
43302W        W11665  38.969  18.706   2.829
43303W        W11666  11.371  10.718   2.670
43304W        W11667  13.826  37.835   3.729
43305W        W11668   5.439   3.235   2.781
43306W        W11669  35.534  38.555   1.382
43307W        W11670  41.319  28.646   0.285
43308W        W11671  15.105  23.700  13.958
43309W        W11672  38.512   0.266   2.749
43310W        W11673   0.464  29.165  12.035
43311W        W11674  19.214  30.654   3.774
43312W        W11675  14.760   7.678   2.888
43313W        W11676  37.916  42.320  13.963
43314W        W11677  24.585  19.658  11.092
43315W        W11678  11.804  30.478  10.639
43316W        W11679  27.664  37.345   4.214
43317W        W11680   2.350  22.996   0.385
43318W        W11681   2.278  43.840   9.474
43319W        W11682   1.454   8.183   4.641
43320W        W11683  32.965  12.684  10.462
43321W        W11684  28.656  18.289  13.844
43322W        W11685  30.413  15.178   2.216
43323W        W11686  38.926  33.058  12.844
43324W        W11687  36.534  35.435   3.148
43325W        W11688  43.001  41.527  13.361
43326W        W11689  16.317  17.756   3.814
43327W        W11690  14.140  14.633  11.028
43328W        W11691   2.777  42.428   4.723
43329W        W11692   3.382   9.210   1.932
43330W        W11693   4.219  35.393   2.811
43331W        W11694   1.356  16.604   1.801
43332W        W11695  12.735  15.321   3.814
43333W        W11696  22.649  38.383  13.051
43334W        W11697   5.378  18.192  12.892
43335W        W11698   7.761  13.683   4.775
43336W        W11699   4.334  20.768  13.372
43337W        W11700  20.229  33.531  11.934
43338W        W11701   6.840   5.377  12.968
43339W        W11702  43.932  13.766   3.360
43340W        W11703  13.793  29.514   3.663
43341W        W11704  27.491  29.147  10.569
43342W        W11705  34.938  40.822  11.086
43343W        W11706  37.553   0.943  13.033
43344W        W11707  36.437  36.353  13.966
43345W        W11708   8.859  30.486  12.016
43346W        W11709  28.046  16.098  10.106
43347W        W11710  11.359  25.051  10.934
43348W        W11711  38.911  37.367   4.329
43349W        W11712  44.933  21.050   4.289
43350W        W11713  33.028  27.118  13.886
43351W        W11714  14.117  38.894   3.684
43352W        W11715  22.545   9.155   0.951
43353W        W11716  26.555  35.894   0.924
43354W        W11717   0.785   2.314  10.523
43355W        W11718  13.182  27.628  13.008
43356W        W11719   6.851  24.630   2.739
43357W        W11720  32.997  15.608   3.769
43358W        W11721  41.847   4.899   1.751
43359W        W11722  29.929  40.545   0.300
43360W        W11723  44.489   0.362   1.815
43361W        W11724   4.305   5.917   3.225
43362W        W11725  35.450   3.412  13.395
43363W        W11726  29.525  15.639   5.276
43364W        W11727   6.402  34.497  11.911
43365W        W11728  14.194  33.083  11.582
43366W        W11729  32.077  29.545   3.326
43367W        W11730  29.979   8.267   4.677
43368W        W11731   2.351  31.474  13.932
43369W        W11732  13.261  44.760   3.868
43370W        W11733  37.051  44.430  13.528
43371W        W11734  19.227  20.649  12.394
43372W        W11735  43.878   4.745  10.587
43373W        W11736  43.417  18.580   1.303
43374W        W11737  24.717  16.318  10.571
43375W        W11738   0.862  14.335   5.144
43376W        W11739  42.992  17.751  14.891
43377W        W11740  20.614   5.766   0.425
43378W        W11741   3.401  30.935   4.252
43379W        W11742  29.485  26.629  13.010
43380W        W11743  31.128  15.243   0.447
43381W        W11744  27.550  12.197  13.992
43382W        W11745   1.266   6.772   0.945
43383W        W11746   7.196  24.710   3.705
43384W        W11747  39.465  20.246   1.346
43385W        W11748  12.611   5.355  12.388
43386W        W11749  22.196   6.306   0.908
43387W        W11750   1.366  22.193   0.924
43388W        W11751   5.868  42.919  13.360
43389W        W11752   4.364   0.943   2.310
43390W        W11753  22.181  29.053   0.354
43391W        W11754  29.056  24.144  13.434
43392W        W11755  17.287   8.327  13.385
43393W        W11756  10.663   0.318   4.200
43394W        W11757  35.001  35.105   0.744
43395W        W11758  17.744  20.736  14.013
43396W        W11759   0.786  43.884   3.377
43397W        W11760  28.623  41.804   1.447
43398W        W11761  38.059  25.194  13.863
43399W        W11762  43.765  36.050   3.339
43400W        W11763  25.526  10.707  11.883
43401W        W11764   4.824   3.814   0.940
43402W        W11765  17.175  13.715  13.003
43403W        W11766   6.411   8.874   0.379
43404W        W11767  35.026   7.688  14.859
43405W        W11768   3.945  34.569  11.886
43406W        W11769  21.055  25.123   1.842
43407W        W11770  31.406  21.522  10.574
43408W        W11771  42.334   9.336  12.527
43409W        W11772  39.330  23.206  12.049
43410W        W11773  25.617   6.824  14.348
43411W        W11774  24.548  34.456   3.669
43412W        W11775  24.662   6.411   1.249
43413W        W11776  13.725  35.004   1.762
43414W        W11777  37.388  25.637  11.874
43415W        W11778  24.060  38.075  11.536
43416W        W11779  44.945  18.210  14.909
43417W        W11780  34.499  30.024   2.268
43418W        W11781  30.491   7.765   1.826
43419W        W11782  14.173  37.984   3.825
43420W        W11783  34.528   4.296  13.518
43421W        W11784  29.928  21.042  10.595
43422W        W11785  22.639   4.829   3.348
43423W        W11786  12.265  40.450   2.236
43424W        W11787  44.861  42.381   4.815
43425W        W11788  21.107   0.845  13.450
43426W        W11789  31.619  19.693  14.940
43427W        W11790   7.831   3.846   3.646
43428W        W11791   9.307  44.964   4.652
43429W        W11792  23.083  26.686   1.248
43430W        W11793  21.045  14.214  10.599
43431W        W11794  18.573  43.019  13.009
43432W        W11795  42.387  40.956   1.876
43433W        W11796  19.185   2.235  10.916
43434W        W11797  16.095   5.425  10.529
43435W        W11798  40.867  42.860   0.861
43436W        W11799  20.159  24.073  10.950
43437W        W11800   9.243  19.170   3.848
43438W        W11801  37.913  34.033   3.303
43439W        W11802   1.437  19.177   2.707
43440W        W11803  39.055  12.305   9.998
43441W        W11804  13.800  43.332  14.302
43442W        W11805  34.938   4.294  12.428
43443W        W11806  12.151  38.452  14.490
43444W        W11807  39.848  31.014   2.309
43445W        W11808   6.729   6.909   2.778
43446W        W11809   9.848  35.595   3.835
43447W        W11810  26.488   0.423  12.348
43448W        W11811  33.571   7.232  10.944
43449W        W11812  11.851  41.926   1.756
43450W        W11813   4.778  40.980  10.581
43451W        W11814  26.524  29.158   3.195
43452W        W11815  19.683  37.347  13.326
43453W        W11816  25.514  41.501   0.817
43454W        W11817  36.043  10.737  11.418
43455W        W11818  25.133   9.700  13.833
43456W        W11819  25.471  22.219   4.211
43457W        W11820  34.082  21.144  13.017
43458W        W11821   6.230  22.564   4.608
43459W        W11822  23.021  10.857  11.470
43460W        W11823  18.731  14.268  12.524
43461W        W11824  38.861  39.538   3.717
43462W        W11825  42.379  32.121   2.811
43463W        W11826  12.838   5.753  13.953
43464W        W11827  11.352   9.733  13.422
43465W        W11828  38.028   0.885  14.402
43466W        W11829   3.442  33.387  13.846
43467W        W11830   0.333   8.270   4.814
43468W        W11831  34.075   7.374   2.865
43469W        W11832   3.233  37.440   4.335
43470W        W11833   3.942   6.779   4.235
43471W        W11834   8.208  42.887  13.438
43472W        W11835   0.406   1.847  10.924
43473W        W11836   4.397  13.665   1.263
43474W        W11837   0.840  22.247   2.401
43475W        W11838  19.686  21.679  13.379
43476W        W11839  44.856  14.316   1.735
43477W        W11840  12.676  31.935   4.701
43478W        W11841  24.160  38.919  12.539
43479W        W11842  21.164  36.969  11.049
43480W        W11843  41.318  38.071  11.962
43481W        W11844  29.166  15.718   0.739
43482W        W11845  20.125  23.601   5.227
43483W        W11846   7.828  21.743  14.926
43484W        W11847  42.495  22.662  10.988
43485W        W11848   6.265   6.256   0.875
43486W        W11849  29.485  32.460  11.456
43487W        W11850  21.670  12.351   3.686
43488W        W11851  25.082  26.655   0.455
43489W        W11852  27.015  13.220  14.840
43490W        W11853  37.552  16.078  11.937
43491W        W11854  35.005  14.784   4.655
43492W        W11855   0.282  16.794   4.601
43493W        W11856   1.311  40.539  12.096
43494W        W11857  17.575  23.166  13.033
43495W        W11858  25.495  11.370   4.342
43496W        W11859  18.251  30.104   4.300
43497W        W11860  44.293  22.560  10.606
43498W        W11861   0.848  39.912   3.363
43499W        W11862  39.330  23.058   2.696
43500W        W11863  40.987   5.713  11.120
43501W        W11864   4.882  39.550  12.852
43502W        W11865   9.675  43.493  11.111
43503W        W11866  10.864  35.010  10.486
43504W        W11867  44.845  40.543  13.862
43505W        W11868   8.717  36.552  12.436
43506W        W11869   7.409  37.037  11.871
43507W        W11870  43.338  19.683  11.896
43508W        W11871  19.700  26.149  11.426
43509W        W11872  10.171  13.154  13.507
43510W        W11873   8.732  38.015   0.761
43511W        W11874  21.655  26.642   4.343
43512W        W11875   1.891  15.674   2.224
43513W        W11876  41.858  13.618   4.777
43514W        W11877   8.330  41.467   4.752
43515W        W11878  35.379  25.540  12.937
43516W        W11879  34.927  40.485   3.199
43517W        W11880  26.053  13.679  13.438
43518W        W11881  13.328  26.464  11.462
43519W        W11882  22.069   9.165   1.759
43520W        W11883  22.063  12.227   0.458
43521W        W11884   3.264   1.372   3.836
43522W        W11885  34.953   0.380  13.324
43523W        W11886   9.807  37.846  12.078
43524W        W11887  13.172   7.196   4.656
43525W        W11888  40.021  33.059   1.420
43526W        W11889  34.038  44.910  10.042
43527W        W11890  26.591  26.004  13.056
43528W        W11891  34.980  14.754   2.276
43529W        W11892  41.013   7.667  12.831
43530W        W11893  19.575  25.010  10.578
43531W        W11894  28.564   4.714   4.621
43532W        W11895  39.061  14.257  14.878
43533W        W11896  20.687  36.089   1.250
43534W        W11897   8.279   9.835   0.911
43535W        W11898   1.939  17.685  13.502
43536W        W11899  44.952   9.690   1.338
43537W        W11900  30.092  16.736  13.860
43538W        W11901  20.150  16.606   1.397
43539W        W11902  44.346   8.874  13.828
43540W        W11903  25.114  36.077  10.971
43541W        W11904   4.852  44.997   5.139
43542W        W11905  13.277  21.722  14.832
43543W        W11906  42.950   3.820  10.645
43544W        W11907  13.777  13.336   1.406
43545W        W11908  12.789  15.587   1.729
43546W        W11909  12.851  42.829  10.960
43547W        W11910  19.160  11.340  14.480
43548W        W11911  29.050   2.324   3.260
43549W        W11912  10.804  27.666   2.327
43550W        W11913  32.942  43.829   4.198
43551W        W11914  33.978   9.178   1.877
43552W        W11915  21.118   3.280  10.000
43553W        W11916  32.072  34.923   3.148
43554W        W11917  13.842  23.163   2.764
43555W        W11918   7.773  38.494   3.833
43556W        W11919  21.513  17.140   2.345
43557W        W11920  39.384  24.643   3.837
43558W        W11921  17.143  27.183   3.380
43559W        W11922   9.323  25.672   4.775
43560W        W11923  37.940  12.808  10.577
43561W        W11924  10.847  27.643   1.334
43562W        W11925  10.245  34.109   3.856
43563W        W11926   7.188  35.390  12.886
43564W        W11927  39.063  38.936  14.904
43565W        W11928   2.952  24.591  12.844
43566W        W11929  31.429  43.902   3.864
43567W        W11930  13.216  21.194   0.404
43568W        W11931  29.617  43.955   4.338
43569W        W11932  19.767  22.227   3.283
43570W        W11933  23.187  38.390   3.369
43571W        W11934   7.816  18.131  11.114
43572W        W11935   0.417   1.743   1.805
43573W        W11936  37.428  17.071   1.715
43574W        W11937  20.746  15.663   1.258
43575W        W11938  30.455  37.065   4.710
43576W        W11939  21.232  12.781   1.400
43577W        W11940  14.306  30.554   3.845
43578W        W11941  44.886   8.386   1.280
43579W        W11942  15.703  16.097   3.215
43580W        W11943  35.070  16.095  12.851
43581W        W11944   6.195  21.561   4.316
43582W        W11945  36.087  33.124   4.714
43583W        W11946  12.714   5.280  10.498
43584W        W11947  39.019  37.978   1.450
43585W        W11948  25.102  37.910  14.017
43586W        W11949  27.524  18.245  14.845
43587W        W11950  32.134  33.382   2.284
43588W        W11951  36.904   4.914  13.002
43589W        W11952  38.405  41.427   4.733
43590W        W11953  18.232  26.547  14.887
43591W        W11954   2.810  25.663  10.500
43592W        W11955  10.862  38.442  10.926
43593W        W11956  26.664   9.255  11.069
43594W        W11957  42.779  20.094   1.450
43595W        W11958  20.547  35.487  12.364
43596W        W11959   8.693  23.030  14.875
43597W        W11960  12.801  26.479  14.922
43598W        W11961   9.348  38.488   4.645
43599W        W11962  14.678   2.795  14.514
43600W        W11963  31.523   3.362  11.512
43601W        W11964  41.839  10.164   2.213
43602W        W11965  42.414  35.425   1.773
43603W        W11966  14.168  33.581   0.745
43604W        W11967  24.976  15.753   3.812
43605W        W11968  39.531   6.339   3.217
43606W        W11969  44.453  40.328  13.969
43607W        W11970  39.539   7.723   0.308
43608W        W11971  23.001  12.305   2.664
43609W        W11972   2.899  16.275  11.925
43610W        W11973  44.268  38.454   5.659
43611W        W11974  17.065  42.879  13.864
43612W        W11975  35.453  39.400   3.257
43613W        W11976   6.901   0.747   1.264
43614W        W11977  10.220  17.771  14.314
43615W        W11978   4.939  20.142   0.929
43616W        W11979  38.487   8.233  12.891
43617W        W11980  15.698   3.813   2.187
43618W        W11981   8.199  39.333  14.985
43619W        W11982   1.754  34.018   4.229
43620W        W11983  42.875   4.851   0.245
43621W        W11984  39.321  12.848  14.468
43622W        W11985  42.356  30.105  14.019
43623W        W11986   6.860  41.913  11.423
43624W        W11987  27.045  17.263  11.016
43625W        W11988   0.809  31.560   2.401
43626W        W11989  30.010   6.678  11.109
43627W        W11990  26.530  26.593   4.749
43628W        W11991  14.225  35.517   0.756
43629W        W11992  33.904  44.946  12.456
43630W        W11993  42.437  41.807   0.794
43631W        W11994   7.286  39.359   1.799
43632W        W11995  13.263  42.855  13.851
43633W        W11996   3.910  22.521  10.054
43634W        W11997   3.794  25.620   1.724
43635W        W11998  26.669  27.007   2.859
43636W        W11999  10.687  26.602   3.360
43637W        W12000  15.785  29.139  10.952
43638W        W12001  36.463   3.735   1.799
43639W        W12002  41.851   3.388   2.785
43640W        W12003  16.588  26.503   2.820
43641W        W12004  16.638   2.314  12.459
43642W        W12005  20.685  13.661  10.888
43643W        W12006  17.563  19.171  11.484
43644W        W12007  24.022  39.519   1.365
43645W        W12008  33.089   3.887   4.325
43646W        W12009  17.242   0.816   3.682
43647W        W12010  36.094  33.925  13.536
43648W        W12011   6.805  29.991  12.539
43649W        W12012  17.131   9.210   3.703
43650W        W12013  20.270   4.234   3.199
43651W        W12014  18.231  28.559  12.456
43652W        W12015  34.386  38.407   2.351
43653W        W12016  21.521  30.946   2.271
43654W        W12017  30.456  19.187   2.413
43655W        W12018  30.073  15.134   1.900
43656W        W12019   1.900  19.718   0.835
43657W        W12020  33.989  25.069   0.383
43658W        W12021  18.283  13.771  10.983
43659W        W12022  15.636  44.869   3.659
43660W        W12023  28.453  42.454  13.813
43661W        W12024  11.315  39.397  13.497
43662W        W12025  28.526  35.427   2.865
43663W        W12026  15.115  17.278  12.938
43664W        W12027  30.588  12.206  12.873
43665W        W12028  26.118  32.060   2.246
43666W        W12029  30.488   8.677   3.763
43667W        W12030   7.175   7.747  13.352
43668W        W12031  38.973  25.538   2.197
43669W        W12032   5.258  21.543  12.366
43670W        W12033  33.120  44.794   9.926
43671W        W12034  27.968   7.755   4.259
43672W        W12035  37.920  13.200  10.445
43673W        W12036  24.116  23.587   4.299
43674W        W12037  10.689  33.460   3.720
43675W        W12038  14.688   6.251  11.567
43676W        W12039   0.751  34.382   0.449
43677W        W12040  18.620  39.011   1.235
43678W        W12041  33.609  13.236   0.431
43679W        W12042  27.690  35.983  14.774
43680W        W12043   2.914  19.237   1.911
43681W        W12044  26.052  16.164  12.007
43682W        W12045  35.502  21.164  11.454
43683W        W12046  37.954  10.215   1.733
43684W        W12047  14.260   2.762   1.315
43685W        W12048  12.805  38.059   1.752
43686W        W12049  26.034  44.489  10.889
43687W        W12050  44.365  23.632   5.195
43688W        W12051  42.406  33.530   3.373
43689W        W12052  35.920  25.056   2.816
43690W        W12053  24.194  40.002   1.357
43691W        W12054  25.144  20.565  12.024
43692W        W12055  17.163  25.992   4.836
43693W        W12056  24.127  11.736  13.405
43694W        W12057  34.564  28.039   2.328
43695W        W12058  10.161  35.586   0.778
43696W        W12059  26.046   3.214  11.502
43697W        W12060  41.992  24.022  13.051
43698W        W12061  29.519  28.993  11.444
43699W        W12062  16.087   6.222   4.796
43700W        W12063   8.338  39.335  13.453
43701W        W12064  38.993  22.564  12.010
43702W        W12065  10.873  13.643   0.345
43703W        W12066  24.084  39.420   0.373
43704W        W12067  43.282   7.698  13.393
43705W        W12068  22.223  37.016  14.798
43706W        W12069   2.277   7.373   3.235
43707W        W12070  28.159  39.002   4.232
43708W        W12071  17.569   1.295   0.443
43709W        W12072  29.542  37.548  14.938
43710W        W12073  14.229   6.812   4.207
43711W        W12074  42.436  15.632   2.292
43712W        W12075   8.670  33.916  13.913
43713W        W12076  10.234  30.650   3.784
43714W        W12077  14.595  24.633  11.492
43715W        W12078  28.960  38.939  14.370
43716W        W12079  30.454  44.754  11.944
43717W        W12080  40.536   7.889   3.277
43718W        W12081  14.785  38.434   3.746
43719W        W12082  40.010  32.906  12.571
43720W        W12083   5.882   9.275   4.211
43721W        W12084  36.962   3.887   1.242
43722W        W12085   4.854  10.728  11.537
43723W        W12086  10.253  32.613   0.850
43724W        W12087  44.436   9.814  13.479
43725W        W12088  23.019  23.231   3.191
43726W        W12089  35.427  19.089  10.429
43727W        W12090  29.003  41.418  12.994
43728W        W12091   6.793  27.506   0.383
43729W        W12092   9.321   0.433   4.260
43730W        W12093  32.503  33.454  12.502
43731W        W12094  44.828   3.737   3.638
43732W        W12095  12.718   8.208  12.057
43733W        W12096  43.772  37.835   4.739
43734W        W12097  38.514  30.944   4.243
43735W        W12098  21.234  40.851   1.358
43736W        W12099  10.357   5.869  14.474
43737W        W12100  30.505  12.772  11.385
43738W        W12101  31.488  19.734  14.006
43739W        W12102  26.688  30.006   4.655
43740W        W12103  22.160  26.497   3.771
43741W        W12104  27.058  16.751  14.975
43742W        W12105   6.268  32.406   0.299
43743W        W12106  31.595  39.482   2.801
43744W        W12107  34.117  24.550   0.442
43745W        W12108   3.716  11.317   1.229
43746W        W12109  37.457   8.291  11.938
43747W        W12110  28.154  20.230   3.689
43748W        W12111   9.382  37.889   3.204
43749W        W12112  26.151   1.275  14.482
43750W        W12113  29.002  17.221  10.600
43751W        W12114   2.398  36.481  13.521
43752W        W12115   6.202  10.748  14.369
43753W        W12116  30.908  20.758  11.878
43754W        W12117   7.359  26.007  11.478
43755W        W12118   2.763   0.748  12.558
43756W        W12119  19.537  24.629  10.488
43757W        W12120  15.290  42.789  12.403
43758W        W12121  13.135  17.247  14.319
43759W        W12122  44.935  28.625   4.328
43760W        W12123  37.839  22.656   2.251
43761W        W12124  27.470   2.876   2.357
43762W        W12125  20.626  25.497  11.020
43763W        W12126  17.182  36.422   3.296
43764W        W12127  41.799  28.131   0.870
43765W        W12128   3.264  25.167   3.842
43766W        W12129  14.329  19.042   2.833
43767W        W12130  15.254   6.342   3.300
43768W        W12131  41.490  36.392  13.039
43769W        W12132  41.308   5.211   3.223
43770W        W12133  13.120  13.253   3.154
43771W        W12134  19.558  14.687   3.165
43772W        W12135  13.287  30.474  10.537
43773W        W12136  12.276  36.098   0.367
43774W        W12137   0.888   2.783  11.909
43775W        W12138  31.109  37.973  10.960
43776W        W12139   7.900  35.921   3.747
43777W        W12140   5.764   0.355   3.777
43778W        W12141   5.767  29.601   0.891
43779W        W12142  36.592  16.762   4.140
43780W        W12143  38.986  10.277   1.343
43781W        W12144  26.039   3.423  10.575
43782W        W12145  26.099  13.823  12.826
43783W        W12146   7.670   2.911  11.979
43784W        W12147  23.708   6.420  13.407
43785W        W12148  34.918  22.622   0.967
43786W        W12149  40.037  12.772   5.715
43787W        W12150  16.194  11.282   1.871
43788W        W12151   2.726  25.615   9.660
43789W        W12152   5.687  22.096   4.698
43790W        W12153  21.031  11.309  11.560
43791W        W12154  25.992  35.550   4.298
43792W        W12155   7.342  18.200  11.869
43793W        W12156  21.531   8.709   1.779
43794W        W12157  44.962   2.788   2.814
43795W        W12158  15.219  36.930   0.778
43796W        W12159  12.794   4.344  13.920
43797W        W12160  43.830  44.279  13.961
43798W        W12161   3.758  16.769  11.573
43799W        W12162  11.805  24.541  14.961
43800W        W12163  21.050   3.355   0.847
43801W        W12164  30.600  24.689  11.095
43802W        W12165  34.942   9.730  14.465
43803W        W12166  32.631  40.472  11.557
43804W        W12167   4.912  38.465  10.613
43805W        W12168  12.698  28.977  14.380
43806W        W12169  38.339  13.209  14.447
43807W        W12170  42.499   7.795  11.486
43808W        W12171  32.971  16.106   2.664
43809W        W12172   0.298  44.919  12.034
43810W        W12173  12.804   2.368  12.957
43811W        W12174  11.861   4.450   0.896
43812W        W12175  42.952  31.053  12.067
43813W        W12176  43.952  35.527   9.934
43814W        W12177  36.879  23.128  11.047
43815W        W12178  37.353  20.133   0.368
43816W        W12179  36.029   9.218   3.318
43817W        W12180  10.266  18.059  11.996
43818W        W12181  14.285   4.715   5.196
43819W        W12182   0.347   3.431   2.824
43820W        W12183  30.634  37.522   3.227
43821W        W12184   4.929  13.157   3.254
43822W        W12185  10.208  33.020  12.413
43823W        W12186  34.071  33.917  10.427
43824W        W12187   7.207  11.721  12.968
43825W        W12188  26.564   3.340   1.242
43826W        W12189  44.843   4.346  11.387
43827W        W12190  34.551  18.725   0.336
43828W        W12191   6.360  28.632  14.337
43829W        W12192   9.782   5.250  14.391
43830W        W12193  16.104  19.084   2.837
43831W        W12194   1.755   6.344   2.663
43832W        W12195  27.505  34.000   4.139
43833W        W12196  29.483  35.083  12.991
43834W        W12197   9.160  11.632  13.934
43835W        W12198   2.956  41.533  14.976
43836W        W12199   0.420  34.945   0.475
43837W        W12200  42.373   3.245   4.290
43838W        W12201   7.699  33.126   1.252
43839W        W12202  42.444  37.946  10.898
43840W        W12203  13.771  14.745   3.631
43841W        W12204  38.848  25.548   4.697
43842W        W12205  34.000  41.793   0.735
43843W        W12206  26.590  32.437  13.483
43844W        W12207  24.570   4.221   2.390
43845W        W12208  15.585  11.315  12.894
43846W        W12209   1.755  11.645   3.718
43847W        W12210  12.803  11.786   0.796
43848W        W12211  20.119  39.537   2.699
43849W        W12212  14.155  33.512   3.341
43850W        W12213  33.048  24.990   0.935
43851W        W12214   6.286   4.760   4.172
43852W        W12215  40.457   5.872   4.318
43853W        W12216  23.695   6.309  10.565
43854W        W12217  27.473  33.469   2.224
43855W        W12218  40.510  10.712   1.722
43856W        W12219  41.806  18.602  12.498
43857W        W12220  29.936  30.101   1.790
43858W        W12221  30.951  38.047   3.819
43859W        W12222  28.498  40.005  14.981
43860W        W12223  19.223  40.018  12.887
43861W        W12224  37.429  19.616   1.327
43862W        W12225  44.856  13.739   4.689
43863W        W12226  32.009  35.109  12.401
43864W        W12227   5.342   0.832   4.768
43865W        W12228  11.832  44.822  11.957
43866W        W12229  39.019  14.754  11.031
43867W        W12230   5.793  33.877   2.895
43868W        W12231   2.769  32.561  12.541
43869W        W12232  17.801  35.022   0.878
43870W        W12233   0.486  17.711   3.772
43871W        W12234  41.462  11.780  10.541
43872W        W12235  21.687  22.501  10.996
43873W        W12236  29.570  31.124  12.070
43874W        W12237  27.150   3.811   3.246
43875W        W12238  21.231  10.816  12.541
43876W        W12239  43.978  18.282  13.914
43877W        W12240   0.902  44.419  11.928
43878W        W12241  36.483  36.469   0.339
43879W        W12242  12.203   5.879  11.077
43880W        W12243  42.822  37.347  13.830
43881W        W12244  10.722  38.503   0.277
43882W        W12245   2.286  16.311   4.320
43883W        W12246  30.452  11.303   4.318
43884W        W12247  17.561   5.243   1.849
43885W        W12248  42.347  25.524   0.257
43886W        W12249  30.953  13.605   3.646
43887W        W12250   4.374  14.825  12.395
43888W        W12251   8.226  21.692  13.063
43889W        W12252  12.849  14.205   3.746
43890W        W12253   7.322  26.126   1.920
43891W        W12254   8.788   1.843   2.815
43892W        W12255  37.930  24.533  13.497
43893W        W12256  24.218  31.576   4.291
43894W        W12257  27.130   8.863  14.311
43895W        W12258  34.527  36.857  11.431
43896W        W12259   6.299  34.467   4.698
43897W        W12260   9.781  44.986   3.835
43898W        W12261  40.327  32.997  11.465
43899W        W12262  35.520   2.925  12.468
43900W        W12263   4.773  22.611  13.886
43901W        W12264  12.356  40.847   3.326
43902W        W12265  21.254  41.848  10.926
43903W        W12266  40.513  27.515  14.956
43904W        W12267  14.278  21.740  13.805
43905W        W12268   1.978  32.471   4.283
43906W        W12269  25.684  23.667  12.987
43907W        W12270   7.729  15.178  13.340
43908W        W12271  42.404  17.213  10.436
43909W        W12272  18.079  14.592   3.792
43910W        W12273   1.788  37.349   1.402
43911W        W12274   7.812   3.725  13.942
43912W        W12275  34.373  27.563  14.020
43913W        W12276  38.455  42.370   4.614
43914W        W12277  37.023   5.740   2.683
43915W        W12278   3.744  39.430  13.368
43916W        W12279  40.368  12.739  14.373
43917W        W12280  34.432   2.901  12.483
43918W        W12281  29.985  22.554  12.826
43919W        W12282  34.027  23.702  12.012
43920W        W12283  25.061  10.342  12.390
43921W        W12284  17.754  12.644  12.343
43922W        W12285  27.605  29.531   4.796
43923W        W12286  42.804   3.428   2.303
43924W        W12287  23.586  42.310   3.359
43925W        W12288   2.915  15.277  11.923
43926W        W12289  23.076  19.069  11.557
43927W        W12290  38.447  18.258  13.454
43928W        W12291  20.552  37.923  14.454
43929W        W12292  40.381  19.545  14.460
43930W        W12293  16.801  10.382  10.940
43931W        W12294  29.475  32.089   3.160
43932W        W12295  20.592  39.351  13.391
43933W        W12296  23.054  22.663   1.740
43934W        W12297  27.553   5.278  14.492
43935W        W12298   3.366  43.289   9.995
43936W        W12299   8.200  22.229  10.631
43937W        W12300  34.509  27.516  11.475
43938W        W12301  24.526  21.648  10.488
43939W        W12302  31.042   3.812   3.858
43940W        W12303  17.614  27.105   0.288
43941W        W12304   3.923   4.878   4.318
43942W        W12305   2.424  34.082   2.802
43943W        W12306  11.194  34.898   2.247
43944W        W12307  21.237  44.284   4.204
43945W        W12308  21.056  40.957  10.435
43946W        W12309  23.016  37.938   2.750
43947W        W12310  43.460  22.629  10.122
43948W        W12311  39.023  37.945  11.989
43949W        W12312  24.182  40.508   4.350
43950W        W12313  19.042   5.352  14.499
43951W        W12314  39.336  24.065   1.807
43952W        W12315  43.306  39.500   4.835
43953W        W12316  43.825  12.296  11.460
43954W        W12317  19.547  21.018  13.331
43955W        W12318  24.654  36.582   0.388
43956W        W12319   2.285  10.792   1.764
43957W        W12320  44.957  42.857  12.471
43958W        W12321  33.603  40.346  11.904
43959W        W12322   1.976  29.669   2.849
43960W        W12323  39.317  14.242  10.576
43961W        W12324  44.791  28.455   3.366
43962W        W12325   6.258  42.362  13.324
43963W        W12326   7.210  14.785  11.508
43964W        W12327  30.575   0.865  13.495
43965W        W12328  15.808   8.315   5.272
43966W        W12329  25.094   6.359   1.275
43967W        W12330   0.839  23.631  10.887
43968W        W12331  20.608  16.204   2.385
43969W        W12332  33.974  11.727  14.433
43970W        W12333  28.454  26.643   0.307
43971W        W12334  14.781  18.632   5.266
43972W        W12335   8.696  14.659  11.582
43973W        W12336  43.483   9.659   1.902
43974W        W12337   9.306   8.172   0.431
43975W        W12338  16.100  20.530   4.614
43976W        W12339  23.728  15.669   0.905
43977W        W12340   0.963  11.211  11.102
43978W        W12341   9.694  39.990  14.943
43979W        W12342  41.422  33.063   0.414
43980W        W12343  43.436  14.332  10.062
43981W        W12344  26.681  37.509  13.315
43982W        W12345   4.417  20.148  14.467
43983W        W12346  32.905  27.580   2.751
43984W        W12347   2.450  25.652   5.257
43985W        W12348   7.397   7.673   4.619
43986W        W12349  33.008  27.629  13.005
43987W        W12350  41.879  23.125   0.935
43988W        W12351   5.421  42.885  14.951
43989W        W12352  36.971  23.088  14.352
43990W        W12353   9.284  40.959  11.499
43991W        W12354  13.315   8.738   0.796
43992W        W12355  42.369  22.192   4.131
43993W        W12356   2.411  40.919  13.532
43994W        W12357  22.688  24.997  11.090
43995W        W12358  13.237   5.915   5.086
43996W        W12359   1.405  31.633   1.882
43997W        W12360  40.993  15.244  14.780
43998W        W12361  19.720  29.165  14.515
43999W        W12362  14.704  11.760   1.891
44000W        W12363  25.644  25.096   1.352
44001W        W12364  40.896  43.359  14.369
44002W        W12365  38.555  12.624  10.023
44003W        W12366   6.223   6.387   3.364
44004W        W12367  28.599  32.021  13.516
44005W        W12368  23.075  16.256  11.459
44006W        W12369  41.427  10.671   4.330
44007W        W12370  13.735  43.278  12.902
44008W        W12371  12.250   7.299   0.752
44009W        W12372  16.692   9.254   3.322
44010W        W12373  23.205   8.170  11.867
44011W        W12374  16.622  43.308   5.115
44012W        W12375  27.521   3.314  10.579
44013W        W12376  29.634  42.926  14.309
44014W        W12377  35.595  17.136  13.325
44015W        W12378  12.344  18.112   4.293
44016W        W12379   8.194  29.921   0.310
44017W        W12380  40.887  22.608   3.365
44018W        W12381   6.391   0.756  13.958
44019W        W12382   4.727  18.080  13.818
44020W        W12383  36.347  15.732   9.957
44021W        W12384  14.203   9.376  12.966
44022W        W12385  37.896   1.282   4.240
44023W        W12386  38.928  32.994  11.484
44024W        W12387   7.409  41.319  13.370
44025W        W12388  30.029  30.412  13.826
44026W        W12389  16.590   9.733  10.631
44027W        W12390   8.331  20.603  12.450
44028W        W12391   4.705  43.325   2.369
44029W        W12392  19.589  12.220  14.469
44030W        W12393  16.157  12.308  12.531
44031W        W12394   9.343   0.880   0.827
44032W        W12395  35.503   3.729  14.911
44033W        W12396  10.374  44.455   4.749
44034W        W12397  41.877   7.393   2.811
44035W        W12398  35.379  40.418   3.175
44036W        W12399  35.052   3.350   9.924
44037W        W12400  36.375  22.081   2.214
44038W        W12401  29.642  33.458   2.358
44039W        W12402  24.187  25.559  12.383
44040W        W12403  23.101   5.435  14.793
44041W        W12404  15.190  21.112  10.944
44042W        W12405  36.427  18.726   0.806
44043W        W12406   2.400  36.566  12.525
44044W        W12407  38.976  43.937  11.076
44045W        W12408  29.997  40.482  10.954
44046W        W12409  43.842   8.334  13.480
44047W        W12410  22.637   0.484   0.768
44048W        W12411  37.439   2.457  14.453
44049W        W12412  44.321  32.124   1.825
44050W        W12413  18.157  28.571   4.693
44051W        W12414  12.152  17.666  14.371
44052W        W12415  33.058   8.704   0.914
44053W        W12416  21.636  34.889   2.812
44054W        W12417  24.135   1.857   1.289
44055W        W12418   5.791  36.892   0.419
44056W        W12419  13.769   0.780   3.205
44057W        W12420  30.450  22.127   0.819
44058W        W12421  42.500  24.634  10.898
44059W        W12422  43.390  23.051   1.353
44060W        W12423  33.103  17.166   4.662
44061W        W12424  16.161   6.354  10.540
44062W        W12425   3.334  22.121   2.269
44063W        W12426  38.021  22.663  10.036
44064W        W12427  23.197  31.553   4.676
44065W        W12428  11.260  10.153   3.671
44066W        W12429   7.358   9.680   0.348
44067W        W12430  21.538  44.885  13.965
44068W        W12431  12.726  12.329  13.364
44069W        W12432  44.957  41.809  11.466
44070W        W12433  18.707  29.570   0.766
44071W        W12434  10.178   6.822   2.274
44072W        W12435  20.029  33.382   5.312
44073W        W12436  13.690  44.459   2.315
44074W        W12437  17.600  31.564  13.944
44075W        W12438  23.637  32.578  14.393
44076W        W12439   2.908  38.050  12.470
44077W        W12440  35.415  25.131   1.295
44078W        W12441   8.764   4.227  11.595
44079W        W12442  18.224  19.595   3.721
44080W        W12443  31.999   9.179   4.224
44081W        W12444  28.044   3.859   2.820
44082W        W12445   3.815  27.973  13.810
44083W        W12446  31.560  10.228  10.446
44084W        W12447  24.612  32.140  12.943
44085W        W12448  11.836  10.840  13.995
44086W        W12449   7.314  20.726   2.267
44087W        W12450  23.683  16.743   4.829
44088W        W12451  26.619   1.779  10.632
44089W        W12452  41.949  43.480   0.949
44090W        W12453   4.410  31.528  14.478
44091W        W12454   3.945  43.381  12.493
44092W        W12455   6.285  44.867   4.715
44093W        W12456  36.450   5.836  11.022
44094W        W12457  12.856  16.236  12.036
44095W        W12458  32.395  14.240  13.359
44096W        W12459  37.007  25.707  14.006
44097W        W12460  26.151  44.800   0.440
44098W        W12461  16.598   7.255   4.319
44099W        W12462  33.598  24.122   1.743
44100W        W12463   4.431   6.384  12.432
44101W        W12464   0.397  19.653   3.251
44102W        W12465  13.327  20.588   2.226
44103W        W12466  34.930  12.624   2.308
44104W        W12467  15.762  43.501  14.910
44105W        W12468  15.220  12.264   1.827
44106W        W12469  38.490  37.862   1.934
44107W        W12470  32.588  37.882   0.837
44108W        W12471  21.624  21.109   2.806
44109W        W12472  38.852  15.308  14.010
44110W        W12473  12.178  15.587  12.963
44111W        W12474  24.228  40.961  14.820
44112W        W12475  41.353  22.103  10.408
44113W        W12476   3.378  24.092  11.908
44114W        W12477  43.857  22.017  14.900
44115W        W12478  39.520   6.904  11.955
44116W        W12479   0.877   0.945   1.895
44117W        W12480  17.727  32.618  12.861
44118W        W12481   3.837  37.414   4.263
44119W        W12482  21.237  11.164  13.928
44120W        W12483   3.430  28.485   4.296
44121W        W12484  43.904  42.979  14.973
44122W        W12485   9.231  44.361   1.321
44123W        W12486  23.641  12.235  10.908
44124W        W12487  40.967  13.258  14.968
44125W        W12488  40.837   8.305   0.958
44126W        W12489  39.485  16.210  14.854
44127W        W12490  23.025  13.340  14.346
44128W        W12491  18.054  13.714  11.463
44129W        W12492  26.203  37.895  13.850
44130W        W12493   6.820  31.018  13.400
44131W        W12494  16.269  44.993   1.884
44132W        W12495  37.508  42.376  14.834
44133W        W12496  15.143   2.308   3.854
44134W        W12497  34.939   5.840  13.841
44135W        W12498   5.795  38.521  14.448
44136W        W12499  25.560  18.616  13.913
44137W        W12500  17.598  36.914   4.741
44138W        W12501   9.882  31.449   2.252
44139W        W12502  18.687  39.349   2.743
44140W        W12503  29.588  41.983  12.478
44141W        W12504  30.014   6.205  14.787
44142W        W12505  13.663  21.152  14.783
44143W        W12506  16.302  18.280  14.934
44144W        W12507  40.914  12.291  13.959
44145W        W12508  13.616   3.454  13.873
44146W        W12509  34.430  41.934   3.162
44147W        W12510  34.118  39.900   2.777
44148W        W12511   9.823  31.151   4.714
44149W        W12512  29.057  28.065  10.966
44150W        W12513  33.064  32.632  12.871
44151W        W12514  39.948  24.974   2.313
44152W        W12515  15.585  20.704  12.489
44153W        W12516   4.276  27.562  12.884
44154W        W12517   3.376  22.023  13.815
44155W        W12518  35.464   7.393   0.795
44156W        W12519  21.567  17.270   4.231
44157W        W12520  32.463   7.229  12.557
44158W        W12521  26.096  37.884  11.000
44159W        W12522   0.825  12.151  11.457
44160W        W12523  37.847  44.882   1.750
44161W        W12524  27.134  39.504   4.165
44162W        W12525  27.513  13.695   4.771
44163W        W12526  18.552  31.503  13.062
44164W        W12527   3.238  12.725   0.935
44165W        W12528  13.246   1.311   3.689
44166W        W12529  23.117  23.509   3.737
44167W        W12530  14.723   4.345  12.088
44168W        W12531   1.877  32.573   3.689
44169W        W12532   5.383   2.809   0.274
44170W        W12533  25.110  37.419  13.469
44171W        W12534  24.490  12.138  13.367
44172W        W12535  10.679  13.328  13.334
44173W        W12536  29.650  43.015  12.017
44174W        W12537  41.333  13.772   3.715
44175W        W12538   6.756  15.228  14.432
44176W        W12539   7.280   8.401   2.672
44177W        W12540  38.366  36.047   4.686
44178W        W12541   1.958  14.288   1.712
44179W        W12542  12.280  24.682   2.315
44180W        W12543   1.922  34.878  11.058
44181W        W12544  16.255  18.169  10.404
44182W        W12545  30.455   5.799   2.763
44183W        W12546   9.771  19.175  12.394
44184W        W12547  30.458  21.119   3.683
44185W        W12548  21.755  17.701  13.390
44186W        W12549  43.447  13.179  11.404
44187W        W12550  14.167  10.315  11.036
44188W        W12551  10.155  38.343   1.758
44189W        W12552  24.118  15.768  10.998
44190W        W12553   3.955  39.888   1.404
44191W        W12554  29.106   9.749   4.302
44192W        W12555  29.140  10.199  14.018
44193W        W12556  41.804  22.556   1.320
44194W        W12557  40.905   2.806   0.323
44195W        W12558   0.429  41.833   0.262
44196W        W12559  24.548  28.117   0.817
44197W        W12560   5.911  27.501   2.340
44198W        W12561  31.639   0.295   3.293
44199W        W12562  21.656  19.619  11.385
44200W        W12563  20.041   6.246  13.982
44201W        W12564  31.624  40.014   2.272
44202W        W12565  21.713  30.618  13.483
44203W        W12566  32.045   7.825   5.219
44204W        W12567  16.211  25.036   5.298
44205W        W12568   8.666  41.371  13.921
44206W        W12569  13.716   9.179  12.975
44207W        W12570  13.663  22.549  11.492
44208W        W12571   7.257  24.988   1.736
44209W        W12572  18.076  30.051  14.502
44210W        W12573  44.891  32.986  11.429
44211W        W12574   3.733  44.451   4.796
44212W        W12575  31.022   1.242  12.050
44213W        W12576  32.548  37.859  12.828
44214W        W12577   1.451  40.020  10.426
44215W        W12578  38.950  19.705   2.363
44216W        W12579  10.759  36.363  13.389
44217W        W12580  20.102  18.647   4.795
44218W        W12581  16.721  42.814  14.000
44219W        W12582   3.420  33.384  14.820
44220W        W12583  41.855   6.751   4.202
44221W        W12584   4.206  19.222   1.749
44222W        W12585  26.103  29.001   1.373
44223W        W12586   8.717  18.157   2.689
44224W        W12587  20.525   2.860  13.944
44225W        W12588  20.030  12.175  12.921
44226W        W12589   4.350  24.035  10.101
44227W        W12590   5.247  23.215  13.952
44228W        W12591  38.994  39.536  14.836
44229W        W12592  44.841  15.733  13.516
44230W        W12593  33.477  24.544   0.793
44231W        W12594  17.579  12.615   4.661
44232W        W12595  35.925   5.332   0.884
44233W        W12596  18.122  27.447  12.070
44234W        W12597  24.158   1.812   0.413
44235W        W12598  13.791   4.890   3.700
44236W        W12599  39.484  21.051   1.696
44237W        W12600   8.389  42.361  11.578
44238W        W12601  20.739  10.850  13.029
44239W        W12602   2.954   0.433  14.470
44240W        W12603   9.313  22.737  14.825
44241W        W12604  30.057  33.404   1.268
44242W        W12605  31.461  38.566  10.417
44243W        W12606  34.461  39.482   1.366
44244W        W12607  38.048   8.256  13.808
44245W        W12608  22.516  44.504  12.430
44246W        W12609  39.019  35.533   5.137
44247W        W12610  19.535  22.589   5.195
44248W        W12611   8.769  27.447  14.301
44249W        W12612  35.393  13.706   0.394
44250W        W12613  20.042  44.766  14.932
44251W        W12614  25.645  37.075   4.219
44252W        W12615  40.855   4.238  13.400
44253W        W12616  36.870  27.555  14.873
44254W        W12617  10.215  38.338  14.991
44255W        W12618  40.474  21.106  11.571
44256W        W12619  15.092  42.962  11.985
44257W        W12620  34.533  15.763   2.237
44258W        W12621  43.352  22.706  14.847
44259W        W12622  30.921  17.247   0.272
44260W        W12623  35.107  18.188   4.703
44261W        W12624  25.039  25.030  10.549
44262W        W12625  23.233  37.920   4.122
44263W        W12626   2.370   1.952  14.817
44264W        W12627  40.493  19.724   1.900
44265W        W12628   1.402  44.459  12.039
44266W        W12629   9.161  17.622  14.385
44267W        W12630  14.154  30.981  10.451
44268W        W12631  28.094   7.733   3.761
44269W        W12632   0.903  24.014   4.627
44270W        W12633   6.911  42.937   3.170
44271W        W12634  27.575  19.202   1.276
44272W        W12635  14.603  20.720  12.049
44273W        W12636  36.563   6.820   0.244
44274W        W12637  20.744  30.446   2.396
44275W        W12638  44.924  13.166   4.317
44276W        W12639  39.503   5.219  13.372
44277W        W12640  17.220  41.796  12.944
44278W        W12641   8.732  31.479   4.190
44279W        W12642  26.617   6.194   0.384
44280W        W12643  21.254   3.762   4.783
44281W        W12644  12.331  39.856  12.956
44282W        W12645  27.576   2.296   0.384
44283W        W12646  33.585  29.542   3.252
44284W        W12647  43.919   5.747  14.495
44285W        W12648   8.235   1.968   4.760
44286W        W12649  35.852   8.298  13.437
44287W        W12650  26.471   3.874   1.344
44288W        W12651  15.111   9.850   4.165
44289W        W12652  39.949  31.100  13.960
44290W        W12653  38.539   6.816   3.313
44291W        W12654  39.396  20.069   1.772
44292W        W12655  27.961  43.388  14.359
44293W        W12656  26.458  15.654   2.412
44294W        W12657   7.846  15.743  11.961
44295W        W12658  32.968  17.112   1.384
44296W        W12659  43.793  14.317   3.279
44297W        W12660  27.667  24.004   2.330
44298W        W12661  32.422  27.951   3.741
44299W        W12662  18.106  31.126  12.937
44300W        W12663   7.740  36.983  12.921
44301W        W12664  43.776   3.757  13.451
44302W        W12665  20.051  19.655  11.008
44303W        W12666  35.859  38.490   3.821
44304W        W12667  30.534   0.972   2.362
44305W        W12668  25.113   7.892  13.455
44306W        W12669   4.447  11.361   2.774
44307W        W12670  44.946  43.903   1.318
44308W        W12671  28.066  34.008   2.795
44309W        W12672  25.029   1.949   4.161
44310W        W12673  28.438  17.798  12.977
44311W        W12674  37.568  14.754   4.730
44312W        W12675   4.707  11.758  10.627
44313W        W12676  42.815  35.027   3.304
44314W        W12677  38.369   2.274  14.354
44315W        W12678  35.105  17.592  14.433
44316W        W12679  16.613  28.025   0.294
44317W        W12680   7.417   3.362   1.912
44318W        W12681  21.183  18.584  14.500
44319W        W12682   8.181   8.336  11.410
44320W        W12683  20.715  38.353   4.297
44321W        W12684  37.022  14.169  14.031
44322W        W12685   2.781  37.898  11.097
44323W        W12686   7.296   6.761   2.806
44324W        W12687  15.204   2.928  14.029
44325W        W12688  31.527  33.413   2.745
44326W        W12689  27.525  25.215  10.968
44327W        W12690  35.362   4.425   2.724
44328W        W12691  35.497  11.736   4.732
44329W        W12692  36.389  19.754  11.473
44330W        W12693   0.374  41.306  10.457
44331W        W12694  24.168   9.660   3.846
44332W        W12695  18.701  26.596   1.754
44333W        W12696   1.769  13.289   0.355
44334W        W12697  12.673  24.995  11.104
44335W        W12698  21.175  30.419  14.021
44336W        W12699  22.217  15.679   4.306
44337W        W12700  41.458  25.671  14.003
44338W        W12701  11.697  10.762  10.920
44339W        W12702  41.895  14.187   4.231
44340W        W12703  38.039   2.769   4.602
44341W        W12704  26.043  20.706  14.811
44342W        W12705   9.154  11.346   3.239
44343W        W12706  36.002   2.811  10.915
44344W        W12707  23.038  20.085  13.509
44345W        W12708  15.251  31.020   0.919
44346W        W12709  19.126   6.892  11.071
44347W        W12710  40.871  36.022   2.234
44348W        W12711  20.549  18.170   4.274
44349W        W12712  42.843  43.968  12.379
44350W        W12713   4.801   9.823  13.402
44351W        W12714  29.047  23.019   4.251
44352W        W12715   2.416  16.259   1.419
44353W        W12716   9.709  42.375   3.232
44354W        W12717  15.203  38.880  14.965
44355W        W12718  18.611  30.458  10.447
44356W        W12719  30.624  22.723  11.413
44357W        W12720  12.705  14.619   0.831
44358W        W12721  27.163   2.336   2.219
44359W        W12722   8.815  25.091   0.732
44360W        W12723  35.925  24.497   2.204
44361W        W12724   3.273  28.086  11.592
44362W        W12725  14.219  28.673  14.956
44363W        W12726  44.383  14.727   4.807
44364W        W12727  29.512  40.344   5.229
44365W        W12728  35.456  30.044  11.869
44366W        W12729  25.186   6.719   1.759
44367W        W12730  38.955  13.813   3.636
44368W        W12731  16.730  34.590   2.214
44369W        W12732  41.363  19.231  13.833
44370W        W12733  28.466  26.995  14.439
44371W        W12734  28.553   5.809   2.188
44372W        W12735  44.308   0.280   2.728
44373W        W12736  32.456   9.854  14.790
44374W        W12737  42.430  29.437   1.420
44375W        W12738   9.745  14.744  11.896
44376W        W12739  13.337  37.490   3.229
44377W        W12740   5.800  20.761  13.983
44378W        W12741  16.227   7.247   5.322
44379W        W12742  38.950  35.403  12.944
44380W        W12743  32.907  34.080  11.858
44381W        W12744  20.240  10.198   4.764
44382W        W12745  11.813   2.763   1.413
44383W        W12746   2.284   7.170   2.895
44384W        W12747  33.483  16.813  11.085
44385W        W12748  12.836  33.504   0.316
44386W        W12749   3.766   2.760   3.277
44387W        W12750  34.510  39.320  13.047
44388W        W12751   9.313   0.260   3.706
44389W        W12752  27.986  32.986  12.407
44390W        W12753  30.621   3.802  14.004
44391W        W12754  32.465  20.722   3.868
44392W        W12755  32.061   6.846  11.082
44393W        W12756  39.949  25.671  13.402
44394W        W12757  20.547  26.046  13.059
44395W        W12758   8.331  35.067  13.957
44396W        W12759  40.533  17.759   4.233
44397W        W12760  40.022   8.285  11.072
44398W        W12761  40.348  36.498   4.289
44399W        W12762  20.246  23.682   3.175
44400W        W12763  29.655  44.800   2.310
44401W        W12764  25.092  37.407   5.160
44402W        W12765  26.130  16.075   1.394
44403W        W12766  17.674  10.285   1.745
44404W        W12767  12.214  34.478  13.492
44405W        W12768  41.807  12.158   1.270
44406W        W12769  26.007  27.509   0.456
44407W        W12770  10.238  38.387  10.911
44408W        W12771  13.843  29.982  10.523
44409W        W12772  17.565   1.751  11.487
44410W        W12773  38.889  22.009  13.024
44411W        W12774  42.776  10.358  13.349
44412W        W12775  18.288  29.638  12.566
44413W        W12776  12.683   3.907  10.458
44414W        W12777  32.079  42.365  13.901
44415W        W12778   9.375  31.478  11.861
44416W        W12779  22.603   2.773   3.674
44417W        W12780  34.091  14.225  13.809
44418W        W12781  39.486  44.808  12.923
44419W        W12782   8.259   6.213   4.165
44420W        W12783  38.492  44.356   3.797
44421W        W12784   8.714  38.895   0.757
44422W        W12785  15.180  15.199   9.532
44423W        W12786  31.034  31.060   9.975
44424W        W12787  19.246   0.845  10.530
44425W        W12788  38.464  20.226   4.255
44426W        W12789  34.526   3.419  12.852
44427W        W12790  41.969  24.532   1.910
44428W        W12791  36.047  33.944  12.949
44429W        W12792  34.480  29.176   4.621
44430W        W12793  44.975  19.208   3.674
44431W        W12794  34.881  32.405  14.462
44432W        W12795  11.169  28.043   2.854
44433W        W12796   7.207   1.906   1.396
44434W        W12797   0.370   0.848   1.928
44435W        W12798   4.429   2.862  13.032
44436W        W12799  22.040  17.148   1.802
44437W        W12800   4.392  23.200  13.345
44438W        W12801  30.079   8.662  11.921
44439W        W12802   9.845   0.830  11.497
44440W        W12803  36.455  16.127   1.283
44441W        W12804  27.651  17.128  14.430
44442W        W12805  19.754  20.247  12.421
44443W        W12806   0.742   6.339  14.946
44444W        W12807  15.265  40.991  11.116
44445W        W12808  42.991  39.821   1.386
44446W        W12809  35.977  43.019  11.001
44447W        W12810  36.568  14.222   0.891
44448W        W12811  22.104   8.277  14.951
44449W        W12812  10.172  15.752   1.246
44450W        W12813  42.836  44.330   3.306
44451W        W12814  36.893  42.450  11.588
44452W        W12815   2.458  42.975   2.877
44453W        W12816  36.974  40.467   2.902
44454W        W12817  42.383  36.516  14.355
44455W        W12818  37.920  40.450   2.219
44456W        W12819  37.542  36.029  13.894
44457W        W12820  10.720   5.785   1.831
44458W        W12821  18.181  31.058  11.975
44459W        W12822  38.422  42.841   3.186
44460W        W12823  18.114  15.209   0.352
44461W        W12824  16.090  22.631   0.344
44462W        W12825   7.174  14.808   2.221
44463W        W12826  32.895  28.600  13.917
44464W        W12827   2.759  14.650   0.861
44465W        W12828  22.252  26.624  11.988
44466W        W12829   6.387  19.640   3.794
44467W        W12830  35.548  27.630  13.521
44468W        W12831  36.386  27.003  14.949
44469W        W12832  18.691  12.616  10.537
44470W        W12833  11.183  16.735   0.367
44471W        W12834  44.282   4.718   5.284
44472W        W12835  10.792  20.719   0.808
44473W        W12836   0.805   0.812  11.578
44474W        W12837  39.823  26.045   3.810
44475W        W12838  15.252  37.085  14.987
44476W        W12839  31.618  11.736   1.769
44477W        W12840  23.072  25.472   1.219
44478W        W12841   0.448  15.685   1.821
44479W        W12842  29.174  13.841   1.385
44480W        W12843  29.543   3.456  13.404
44481W        W12844  43.426  27.117  10.999
44482W        W12845   2.381  27.556   2.674
44483W        W12846  21.113   6.841  12.913
44484W        W12847  44.804  32.049   1.217
44485W        W12848  25.008  14.321  13.474
44486W        W12849  22.076  29.969   1.835
44487W        W12850  32.124   8.333   0.802
44488W        W12851  20.611  25.566   1.697
44489W        W12852  18.770  22.732   1.825
44490W        W12853  37.538  27.535  12.465
44491W        W12854  19.229  19.186   2.825
44492W        W12855  29.541  17.305   4.201
44493W        W12856  43.276  15.722  14.831
44494W        W12857   2.745  25.982   4.136
44495W        W12858   6.815   2.291  13.462
44496W        W12859  18.099  41.511   0.950
44497W        W12860  27.075  17.095   2.381
44498W        W12861  44.338   4.244  13.858
44499W        W12862  20.590  16.110  10.546
44500W        W12863  11.299   7.693  10.618
44501W        W12864  11.243  21.638   0.302
44502W        W12865  29.577  20.211  14.331
44503W        W12866  18.074  40.930   0.965
44504W        W12867  14.190  20.047  12.413
44505W        W12868  44.422   2.794  13.332
44506W        W12869   2.307  30.156   4.834
44507W        W12870  34.966  25.516   1.298
44508W        W12871  12.622  14.296   4.239
44509W        W12872  13.646   7.411  11.870
44510W        W12873  40.372   0.847  11.428
44511W        W12874  38.530   1.304  13.438
44512W        W12875  42.806  14.270   0.778
44513W        W12876   9.264  19.275  10.896
44514W        W12877  30.944  40.933  11.540
44515W        W12878  41.472   1.760   3.202
44516W        W12879  36.424  40.547  12.931
44517W        W12880  24.983  27.165   0.287
44518W        W12881   4.378  20.656  10.548
44519W        W12882   5.754  38.877  14.895
44520W        W12883  36.449  35.865  11.114
44521W        W12884   6.240  24.586  12.845
44522W        W12885  24.579  10.335  13.425
44523W        W12886  10.717  34.041   1.787
44524W        W12887  40.497  12.117   4.115
44525W        W12888   2.934  23.045  14.030
44526W        W12889  30.460  22.538   2.237
44527W        W12890  16.693   0.425  12.417
44528W        W12891  22.622  27.519  13.525
44529W        W12892  33.091  40.397  13.414
44530W        W12893  17.774  27.581  12.876
44531W        W12894  31.570  43.854   2.364
44532W        W12895  44.812  29.936   2.782
44533W        W12896  41.365  13.159   4.148
44534W        W12897  27.604  36.572   0.880
44535W        W12898  42.882  27.955  10.511
44536W        W12899   6.375   0.289   1.858
44537W        W12900  35.460   7.247  12.525
44538W        W12901   7.271  36.500   4.129
44539W        W12902   2.443  27.046   1.238
44540W        W12903  42.994  28.964  13.865
44541W        W12904  33.615  31.122  11.990
44542W        W12905  21.169   6.712  11.382
44543W        W12906  41.922  38.446  13.412
44544W        W12907  43.441  21.552   2.675
44545W        W12908  40.323  41.010   4.234
44546W        W12909  39.878  27.584  13.055
44547W        W12910  15.288   7.698  13.943
44548W        W12911  21.222  42.930  12.058
44549W        W12912  14.607  22.529  12.997
44550W        W12913   0.344  38.871   2.669
44551W        W12914  23.583  31.567   1.871
44552W        W12915  39.866  11.749   4.172
44553W        W12916  10.254  29.048   4.758
44554W        W12917  40.032  11.722  14.970
44555W        W12918  10.315  24.642   2.276
44556W        W12919  13.686  15.171  13.924
44557W        W12920  24.625  14.205   2.257
44558W        W12921  20.234  43.292  10.583
44559W        W12922  30.053  35.872  13.534
44560W        W12923  27.036  43.968  11.499
44561W        W12924   6.850  20.131   1.910
44562W        W12925  24.491   2.729   3.197
44563W        W12926   7.306  41.842   1.293
44564W        W12927  15.626  39.422   0.286
44565W        W12928  12.836   1.835   1.420
44566W        W12929  38.415   5.754   4.348
44567W        W12930   8.772   1.276   4.718
44568W        W12931  24.109  33.592  13.843
44569W        W12932  34.538  42.493   1.868
44570W        W12933  20.172  34.444   2.695
44571W        W12934  42.462  38.410  10.592
44572W        W12935  39.458   3.399   1.266
44573W        W12936  33.491  21.711  12.085
44574W        W12937  36.097   2.947   1.847
44575W        W12938   3.870  43.465   1.790
44576W        W12939   0.980   8.345   3.864
44577W        W12940  15.296  38.930   1.365
44578W        W12941  35.369  33.587  12.495
44579W        W12942  34.012  30.012   2.867
44580W        W12943  41.998  44.991  14.288
44581W        W12944  28.631   4.850   1.384
44582W        W12945  17.259   3.244  10.466
44583W        W12946  17.142  16.244   0.958
44584W        W12947  21.518  40.546  13.925
44585W        W12948  18.144  35.375  13.814
44586W        W12949  26.079  27.081   3.726
44587W        W12950  14.335   9.367  10.468
44588W        W12951  29.946  27.159   3.736
44589W        W12952  22.576  42.488   0.360
44590W        W12953  27.616  26.651   4.776
44591W        W12954  43.502  12.293   0.309
44592W        W12955   8.252  17.287   1.855
44593W        W12956  18.739   2.336  13.317
44594W        W12957  39.419  23.516  12.471
44595W        W12958  12.821  40.817  12.012
44596W        W12959  37.430  28.932  11.043
44597W        W12960  43.385  39.036   1.842
44598W        W12961   9.872  10.183   2.407
44599W        W12962   7.240   2.323  11.607
44600W        W12963  33.058   3.230  13.458
44601W        W12964  39.497  10.305  14.871
44602W        W12965   0.796  22.600   4.749
44603W        W12966  19.747  21.101  10.583
44604W        W12967  37.360  37.572   0.755
44605W        W12968  13.791  44.846   4.798
44606W        W12969  24.620  40.014   0.321
44607W        W12970   6.207  20.658   0.289
44608W        W12971   0.889   1.387   1.694
44609W        W12972  16.800  37.562  13.908
44610W        W12973  34.378  14.251  13.899
44611W        W12974   9.205  24.501  12.445
44612W        W12975  30.153  11.335  12.963
44613W        W12976  17.075  10.848   4.732
44614W        W12977  33.520  18.191  10.137
44615W        W12978  38.042  25.686  10.942
44616W        W12979  20.066  16.629   3.766
44617W        W12980  33.091  34.080  13.494
44618W        W12981  15.271  29.465   0.925
44619W        W12982  32.394   4.446   4.113
44620W        W12983   6.727   5.745  13.063
44621W        W12984  20.048  23.500  11.391
44622W        W12985  29.664   2.918   2.854
44623W        W12986  10.636  11.295   4.696
44624W        W12987   1.973   6.264  13.812
44625W        W12988   3.402  23.626   3.334
44626W        W12989   5.332  32.500  11.443
44627W        W12990   0.464  26.591   0.429
44628W        W12991  23.639  14.641  12.897
44629W        W12992  14.713  44.357  14.969
44630W        W12993  43.420  38.519   4.835
44631W        W12994  23.660  10.701   2.798
44632W        W12995  17.117   9.751   1.812
44633W        W12996  13.119  32.984   3.219
44634W        W12997  34.439  24.044  10.915
44635W        W12998  27.541  37.974   3.309
44636W        W12999   9.736  15.314   4.743
44637W        W13000  12.259  22.741  10.606
44638W        W13001  19.697   1.276   4.599
44639W        W13002  33.566  42.009   4.609
44640W        W13003  26.544  42.880   4.173
44641W        W13004  11.184  37.474   3.300
44642W        W13005  41.865   7.680  14.331
44643W        W13006   1.915  33.026  10.996
44644W        W13007  32.613  37.460  11.112
44645W        W13008   8.699  15.790  13.406
44646W        W13009  24.128   6.415   0.905
44647W        W13010  13.294  32.620  11.068
44648W        W13011  17.754  28.049  10.599
44649W        W13012  29.014  18.073  13.328
44650W        W13013   8.305  15.637   5.203
44651W        W13014   0.962   6.272   2.225
44652W        W13015  18.278  43.925   5.768
44653W        W13016  30.034  29.926   0.306
44654W        W13017  33.515  34.962  11.950
44655W        W13018  38.359  29.524  11.388
44656W        W13019  39.360  25.177   3.225
44657W        W13020  29.010  29.008  14.000
44658W        W13021   9.198  19.113  12.006
44659W        W13022  21.599  22.673   1.443
44660W        W13023  28.514  24.117   3.867
44661W        W13024  31.052  13.164   4.641
44662W        W13025  10.188   0.383  13.809
44663W        W13026  25.070  24.093   2.797
44664W        W13027  14.260   8.859   4.759
44665W        W13028  10.169  16.084   4.274
44666W        W13029  43.321  42.326   3.155
44667W        W13030  24.182   9.157  13.837
44668W        W13031  30.039  39.936  10.413
44669W        W13032   8.306  11.207   1.397
44670W        W13033   8.290  30.588   0.952
44671W        W13034  15.608  42.016   3.686
44672W        W13035   2.367  27.535   3.330
44673W        W13036  40.419  17.753  12.987
44674W        W13037   7.194   8.254  13.324
44675W        W13038  35.512  14.793  11.577
44676W        W13039  42.512   2.814  11.996
44677W        W13040  40.019  44.815  12.363
44678W        W13041  12.825  31.015   3.273
44679W        W13042  36.989  30.659   0.473
44680W        W13043  21.210  33.400   1.754
44681W        W13044  35.006  11.681   2.706
44682W        W13045   3.725  40.409   0.395
44683W        W13046   8.216  41.360   3.700
44684W        W13047  26.472   9.730   3.793
44685W        W13048  13.278   0.441   4.699
44686W        W13049  23.658  12.216   2.361
44687W        W13050   9.323  31.412  12.985
44688W        W13051  37.924  13.232   2.263
44689W        W13052  12.734   3.285   3.249
44690W        W13053  42.894  39.930   3.186
44691W        W13054   6.803  43.806   4.118
44692W        W13055  13.111  25.634  13.835
44693W        W13056  25.516  10.749   2.675
44694W        W13057  41.900  36.048   1.407
44695W        W13058  31.566  27.164   3.847
44696W        W13059  20.272   8.348  14.356
44697W        W13060  31.123  35.891   3.386
44698W        W13061   0.376  36.896  12.955
44699W        W13062  34.069  34.585  10.594
44700W        W13063  29.165   6.329   1.241
44701W        W13064  31.461  16.202   0.921
44702W        W13065  23.606  12.611  10.551
44703W        W13066   8.274  44.347   3.231
44704W        W13067   9.755  10.365   4.178
44705W        W13068  11.853  23.727   2.852
44706W        W13069   5.258   9.243  13.358
44707W        W13070  27.990  42.372  12.970
44708W        W13071  16.190  19.223  14.422
44709W        W13072  15.682   3.801   3.295
44710W        W13073   8.269   1.814  13.358
44711W        W13074  32.586  37.550   3.690
44712W        W13075   4.409  44.272   1.895
44713W        W13076  36.521  30.163   1.355
44714W        W13077  23.122   5.810  10.492
44715W        W13078  44.431  37.895  12.987
44716W        W13079  40.924  31.462   2.689
44717W        W13080  42.781  40.003  13.058
44718W        W13081   8.857  11.765  11.090
44719W        W13082  28.138  36.877   0.393
44720W        W13083  23.096   4.921  12.910
44721W        W13084   1.455  41.894   3.680
44722W        W13085  43.300   5.854  12.390
44723W        W13086  27.450   1.771   0.884
44724W        W13087  22.728   1.779  10.986
44725W        W13088   9.799   1.867  10.574
44726W        W13089  40.518  38.926   4.289
44727W        W13090  42.453  38.450   3.868
44728W        W13091  43.382  38.448  14.932
44729W        W13092   8.181   6.886  13.542
44730W        W13093  40.945  18.720  11.081
44731W        W13094   1.959   4.859  14.791
44732W        W13095  18.590  26.159  13.824
44733W        W13096  24.034   1.258  11.040
44734W        W13097  15.276  40.021   0.299
44735W        W13098  40.052  16.701  11.999
44736W        W13099  38.905   2.353  14.817
44737W        W13100  21.192  20.648   1.722
44738W        W13101   6.216  11.783   3.188
44739W        W13102   0.940  10.850  10.917
44740W        W13103  26.593  31.016   3.727
44741W        W13104   3.265   6.376   3.783
44742W        W13105   2.310  18.645  12.860
44743W        W13106  27.954  25.128  14.356
44744W        W13107  20.153  26.472  12.472
44745W        W13108  37.402  25.082  11.012
44746W        W13109   1.882  29.547   4.703
44747W        W13110   3.723  17.781   3.671
44748W        W13111  35.863  30.481  14.999
44749W        W13112  18.253  36.590  12.856
44750W        W13113  36.369  28.953  10.469
44751W        W13114  13.713  27.015  13.308
44752W        W13115   7.823  12.347   4.638
44753W        W13116  34.076  39.354   2.273
44754W        W13117  18.789  21.674  11.047
44755W        W13118   8.808  24.131   0.476
44756W        W13119  27.066  37.892  12.466
44757W        W13120   4.805   5.700   1.762
44758W        W13121  38.012  22.618  11.008
44759W        W13122  29.015  41.845   3.760
44760W        W13123  17.083  36.857  13.041
44761W        W13124   4.802  12.832   2.282
44762W        W13125   0.432  39.838   4.244
44763W        W13126   8.199  22.654  12.929
44764W        W13127  30.054   5.923  10.971
44765W        W13128  28.559  13.730  14.457
44766W        W13129  27.557  17.631   0.735
44767W        W13130  30.082  15.261  10.486
44768W        W13131  20.203  36.097   1.916
44769W        W13132  22.597  20.264   1.708
44770W        W13133  35.100  17.182  14.891
44771W        W13134  41.535  25.203   0.800
44772W        W13135  17.738   0.764  12.419
44773W        W13136  23.611   7.184  12.006
44774W        W13137  27.019   3.252   2.690
44775W        W13138  32.952  38.506   1.421
44776W        W13139  17.654  19.065   0.827
44777W        W13140  43.460  38.512  11.910
44778W        W13141   9.827  14.606   1.303
44779W        W13142  26.045  24.141  14.853
44780W        W13143  29.920  12.168  14.443
44781W        W13144   4.838   2.291   4.116
44782W        W13145  12.154  17.163   2.833
44783W        W13146  14.822   8.206  14.892
44784W        W13147  43.984  41.969   0.306
44785W        W13148  28.093   6.881   4.170
44786W        W13149   1.779  11.146  13.426
44787W        W13150  19.055  41.969   1.722
44788W        W13151  41.822  10.835  10.951
44789W        W13152   0.871  36.854  11.955
44790W        W13153  42.901  38.455  14.005
44791W        W13154  34.442   0.847  10.446
44792W        W13155  10.355  37.420   0.761
44793W        W13156   4.923   8.355   3.348
44794W        W13157  30.035  12.625   1.773
44795W        W13158  32.589   5.290  11.064
44796W        W13159   3.437  25.140  13.876
44797W        W13160   2.350  13.727   3.719
44798W        W13161  44.293  10.373   0.735
44799W        W13162   8.343  38.982   1.918
44800W        W13163  44.910   7.765  13.439
44801W        W13164  20.266  20.616   4.663
44802W        W13165  26.088   4.353   0.433
44803W        W13166  31.437   3.817   0.361
44804W        W13167  44.419  31.020  14.362
44805W        W13168  38.480  22.069   3.804
44806W        W13169  25.084  39.412   1.903
44807W        W13170   9.728  17.684  12.509
44808W        W13171  32.033   4.807  14.445
44809W        W13172   4.733   6.799   3.677
44810W        W13173   8.250  26.974  14.820
44811W        W13174   7.390  28.939   2.183
44812W        W13175  34.114   9.159  14.992
44813W        W13176  35.068  35.991  14.322
44814W        W13177  15.641  36.846  10.975
44815W        W13178  27.091   9.837  12.952
44816W        W13179  28.484  36.036  13.963
44817W        W13180   3.221  15.743  11.598
44818W        W13181  39.368  34.489   3.313
44819W        W13182  31.605  18.626  11.113
44820W        W13183  25.608  36.858  10.911
44821W        W13184  30.158  22.601  10.503
44822W        W13185   8.240  39.360  12.095
44823W        W13186  38.004  13.616   2.727
44824W        W13187  27.104  31.950  11.045
44825W        W13188  37.538  15.796   2.347
44826W        W13189  39.504   6.712  12.829
44827W        W13190  40.956   2.332  13.379
44828W        W13191   5.382   4.388  11.907
44829W        W13192  35.492  28.116   4.263
44830W        W13193   0.452  20.260   0.906
44831W        W13194  27.521  20.151   1.242
44832W        W13195  11.264  21.078  14.903
44833W        W13196  12.697  43.863   4.151
44834W        W13197  39.879  34.410   3.169
44835W        W13198  12.298  32.558   2.234
44836W        W13199   4.835  23.104   1.769
44837W        W13200   3.809   5.226  13.467
44838W        W13201  12.704   6.777  14.322
44839W        W13202   2.408  23.576   3.321
44840W        W13203  41.010  40.918  11.528
44841W        W13204  33.056   1.931  13.381
44842W        W13205  33.022  42.360  11.401
44843W        W13206  39.377  29.979  13.377
44844W        W13207   0.814  35.396  12.081
44845W        W13208  28.009  10.170   2.742
44846W        W13209   5.733  36.853  10.616
44847W        W13210  25.169  36.393   2.297
44848W        W13211  14.759  32.930   3.633
44849W        W13212  35.460  35.519  11.023
44850W        W13213  42.822   3.817   4.227
44851W        W13214  40.848  12.754  14.393
44852W        W13215   3.415  17.650  14.488
44853W        W13216   9.320  36.582   0.246
44854W        W13217  38.506  22.108  14.974
44855W        W13218  29.432  13.652   0.315
44856W        W13219  42.374  19.587   0.484
44857W        W13220  40.509   5.284   4.645
44858W        W13221  21.192   9.747  13.927
44859W        W13222  29.649  38.497   0.447
44860W        W13223  25.165  10.361   4.599
44861W        W13224  16.303  30.659  12.496
44862W        W13225  10.676   5.860  12.426
44863W        W13226  22.658  20.035   1.439
44864W        W13227  30.072   4.376  12.564
44865W        W13228  16.134  43.400   1.412
44866W        W13229  15.158  12.203  13.805
44867W        W13230  27.961  26.670   3.378
44868W        W13231  38.377  19.113   1.700
44869W        W13232  17.593   3.280  14.493
44870W        W13233  19.197  26.678  14.980
44871W        W13234   3.909  38.327  11.042
44872W        W13235   8.243  22.545   1.883
44873W        W13236  33.904   5.331   4.728
44874W        W13237   4.244  22.531  14.970
44875W        W13238  34.064  16.150  10.444
44876W        W13239  44.810  24.133  13.865
44877W        W13240  29.505  35.018   3.333
44878W        W13241  12.615  28.988   0.243
44879W        W13242   8.389  15.163  14.459
44880W        W13243  38.978  24.517   3.753
44881W        W13244  18.732  33.127   2.711
44882W        W13245  15.175  11.708   2.249
44883W        W13246  12.644  22.136  10.902
44884W        W13247  20.766  24.502  13.794
44885W        W13248  20.033   0.806  14.791
44886W        W13249  36.990  26.474  12.057
44887W        W13250  19.601   8.333   4.704
44888W        W13251  33.053   0.751  10.503
44889W        W13252  13.729   2.274  12.448
44890W        W13253  43.987  28.044  12.071
44891W        W13254  13.270   3.242   2.686
44892W        W13255   7.348  26.191  13.448
44893W        W13256  17.672  11.208  13.972
44894W        W13257   5.838  43.940   3.208
44895W        W13258  33.539  27.612  12.488
44896W        W13259  12.327  42.447  13.473
44897W        W13260   9.180  18.237  13.928
44898W        W13261   2.861  17.579  12.428
44899W        W13262  13.790  35.570   3.813
44900W        W13263   1.443  40.977  14.969
44901W        W13264   7.715  43.875  14.513
44902W        W13265  29.994  40.949  14.412
44903W        W13266  37.076  44.825  13.883
44904W        W13267  40.876  27.011  11.524
44905W        W13268  40.319  20.761  13.892
44906W        W13269  13.225  31.470  13.410
44907W        W13270  12.274  42.407   1.367
44908W        W13271  13.793  37.984  12.088
44909W        W13272   6.268  30.647  14.295
44910W        W13273  30.009   2.771   4.250
44911W        W13274  18.739  33.008   0.790
44912W        W13275  43.932  29.528  13.473
44913W        W13276  37.474  18.264   4.821
44914W        W13277  42.811  25.697  11.435
44915W        W13278  26.613  37.476  10.950
44916W        W13279  39.461  35.018  11.505
44917W        W13280  20.598  23.019   4.348
44918W        W13281  20.247  21.105  12.384
44919W        W13282   6.395  18.075  11.087
44920W        W13283  38.391  26.085   1.894
44921W        W13284   2.725   2.802   2.762
44922W        W13285  17.635  10.725  13.394
44923W        W13286   6.846   3.892   1.388
44924W        W13287  24.031   2.868   3.187
44925W        W13288  34.462  21.216   4.187
44926W        W13289  21.723  34.067  14.900
44927W        W13290  21.629  10.734   3.815
44928W        W13291  25.041  43.382   2.185
44929W        W13292  26.952  28.450  14.801
44930W        W13293  16.136  12.248  10.465
44931W        W13294  33.075  31.598  11.948
44932W        W13295  10.786   5.773   0.272
44933W        W13296   2.821  23.238  14.945
44934W        W13297  41.498  11.669  11.871
44935W        W13298  19.268   1.441   1.229
44936W        W13299  17.728  36.563   0.862
44937W        W13300  44.401   3.742  11.606
44938W        W13301  13.109  17.795   4.758
44939W        W13302  30.020  33.038   1.319
44940W        W13303  37.022   4.833   3.643
44941W        W13304  30.593  40.934  14.309
44942W        W13305  19.098   9.870  12.517
44943W        W13306  32.034  26.528  13.431
44944W        W13307  28.494  12.281  11.971
44945W        W13308   6.212  22.651   0.949
44946W        W13309  16.679  15.591   0.940
44947W        W13310  32.563  14.740  14.766
44948W        W13311  42.445  12.349   0.755
44949W        W13312   9.191  31.936   0.304
44950W        W13313  40.434  12.145   0.417
44951W        W13314  24.508   8.270  10.410
44952W        W13315  19.762   4.332   2.825
44953W        W13316   6.322   7.299   0.243
44954W        W13317  28.663  37.396  12.493
44955W        W13318  20.576  29.972   2.842
44956W        W13319  42.896   1.254   0.858
44957W        W13320  15.111  32.480  14.315
44958W        W13321   6.721  41.982   0.897
44959W        W13322  22.591  10.642   1.380
44960W        W13323  29.489  10.256  14.437
44961W        W13324  14.296  30.164   4.604
44962W        W13325   4.252  14.183   4.715
44963W        W13326  13.842  14.809   2.765
44964W        W13327  23.709   0.867   4.777
44965W        W13328  26.199  14.803  14.343
44966W        W13329   2.912  42.856   4.256
44967W        W13330  28.572  20.073   4.791
44968W        W13331  29.656  39.852  13.870
44969W        W13332  39.390  40.343   1.780
44970W        W13333  26.054  31.918  12.473
44971W        W13334  24.605   4.728   2.677
44972W        W13335  28.094  39.534   2.708
44973W        W13336   0.908  39.931   5.240
44974W        W13337  15.243  21.597   2.212
44975W        W13338   9.657  21.524  13.015
44976W        W13339  30.566  35.412  14.009
44977W        W13340  20.197  32.067  11.034
44978W        W13341  15.775  11.667   4.757
44979W        W13342  22.086  14.321  13.062
44980W        W13343  27.087  35.441   1.315
44981W        W13344  43.956  39.836   3.717
44982W        W13345  29.156  26.560   2.810
44983W        W13346  13.301  13.669   4.834
44984W        W13347   6.427   9.230   3.713
44985W        W13348  15.638  27.507  10.458
44986W        W13349   7.275   2.780   2.357
44987W        W13350  18.274  43.355  12.478
44988W        W13351  37.373  11.216   3.212
44989W        W13352  33.454   0.884  14.949
44990W        W13353  22.218   6.821  12.416
44991W        W13354  23.212  43.499  12.413
44992W        W13355  17.676  12.159  12.971
44993W        W13356  32.113  23.534  13.545
44994W        W13357  24.033  38.946   0.422
44995W        W13358   1.426  28.011  10.932
44996W        W13359  20.106  18.106  11.548
44997W        W13360  41.025  21.734   0.856
44998W        W13361  31.540   0.320   4.157
44999W        W13362  26.180  18.643   2.750
45000W        W13363  18.710  33.027   4.817
45001W        W13364  34.932  38.988  10.450
45002W        W13365   7.796  30.485   2.301
45003W        W13366   6.195  24.634   4.655
45004W        W13367  29.048  42.798  14.823
45005W        W13368   0.788  12.615   4.236
45006W        W13369  32.547  30.076  14.929
45007W        W13370  15.708  24.574   3.289
45008W        W13371  12.309  35.014   2.738
45009W        W13372  11.140  13.766   2.361
45010W        W13373  41.800  26.129   2.251
45011W        W13374  36.444  20.063  12.087
45012W        W13375  13.786   7.671   4.653
45013W        W13376  24.620  35.414   2.874
45014W        W13377  15.296   0.851  14.458
45015W        W13378  14.702  44.983   2.204
45016W        W13379  24.134   9.825  13.482
45017W        W13380  29.630  36.868   2.276
45018W        W13381  15.110  25.573   1.913
45019W        W13382  28.119  15.694  14.437
45020W        W13383   5.355  22.658  12.829
45021W        W13384  23.518  15.091  14.960
45022W        W13385  39.965  11.168   1.750
45023W        W13386  14.184  13.638   0.823
45024W        W13387  33.573  30.468  13.913
45025W        W13388  23.172  43.817  14.376
45026W        W13389  41.032   5.690   2.310
45027W        W13390  16.218  25.219  14.458
45028W        W13391   0.308  11.233  13.843
45029W        W13392  15.230  21.541  13.426
45030W        W13393  37.835  31.462   1.268
45031W        W13394  43.439  42.355   3.732
45032W        W13395  26.524  11.830  11.887
45033W        W13396  13.835  41.333   0.427
45034W        W13397  38.465  15.245   4.117
45035W        W13398   0.975  24.104  14.499
45036W        W13399   0.479   7.371  14.996
45037W        W13400  26.106   7.309  14.814
45038W        W13401  27.981  29.147  13.976
45039W        W13402  10.763  34.112   4.803
45040W        W13403  29.001  20.201   1.401
45041W        W13404  36.941  20.756  14.807
45042W        W13405  30.095  25.665   2.404
45043W        W13406   6.195   7.772   4.623
45044W        W13407   9.753  43.865   0.925
45045W        W13408   0.934  23.528  10.561
45046W        W13409  28.942  19.251  10.611
45047W        W13410  36.573  12.679   3.286
45048W        W13411  23.490  43.346   0.267
45049W        W13412  27.175  27.153   4.233
45050W        W13413  12.126  29.947   0.386
45051W        W13414  31.991  17.104   0.828
45052W        W13415  18.231  32.137   1.872
45053W        W13416  38.335  12.220  14.948
45054W        W13417  31.616  16.725  14.370
45055W        W13418  18.242  31.434   3.773
45056W        W13419   3.777  37.511  12.388
45057W        W13420  31.572  31.006  10.130
45058W        W13421  33.421  26.553   3.762
45059W        W13422  23.993  38.336   0.744
45060W        W13423  16.702  15.634  12.445
45061W        W13424  16.651   5.407  12.048
45062W        W13425  20.060  16.264  11.118
45063W        W13426  40.344  25.968  12.964
45064W        W13427  19.776  12.242   1.372
45065W        W13428  28.946  14.109   4.612
45066W        W13429   6.221  44.763  12.529
45067W        W13430   5.225  31.991   0.763
45068W        W13431   0.847  44.289   1.935
45069W        W13432  37.008  15.707  13.046
45070W        W13433  38.411  27.611  14.506
45071W        W13434  16.118  34.953   3.860
45072W        W13435  22.522   3.775   1.314
45073W        W13436  43.458   8.889  13.468
45074W        W13437  44.317  37.030   3.364
45075W        W13438  17.645   6.697   2.673
45076W        W13439  16.781   3.332   3.715
45077W        W13440   2.370  23.169   4.176
45078W        W13441  25.643  15.106   1.704
45079W        W13442  24.706  24.710   3.355
45080W        W13443  34.061  26.635   4.276
45081W        W13444  29.598  31.126   2.720
45082W        W13445   9.706  40.012   2.668
45083W        W13446  13.636  20.686  11.449
45084W        W13447   9.779  21.237   0.306
45085W        W13448  35.595  12.264   4.269
45086W        W13449  30.536   3.914   3.673
45087W        W13450  23.616  24.034   0.801
45088W        W13451  22.522  15.748   5.317
45089W        W13452   2.935  40.833  10.976
45090W        W13453  26.061  17.787   4.226
45091W        W13454   2.395  34.893   2.798
45092W        W13455  25.697   9.748   4.722
45093W        W13456   0.765  39.450   2.400
45094W        W13457  38.557  22.252   4.763
45095W        W13458  26.493  33.929  12.515
45096W        W13459  43.362  32.563   2.193
45097W        W13460   5.249  39.954  13.504
45098W        W13461  27.118   7.767  10.931
45099W        W13462  13.133  10.843   2.859
45100W        W13463  13.711   5.852   3.315
45101W        W13464  39.470  21.731   3.236
45102W        W13465  29.542  42.997   2.251
45103W        W13466  15.160  36.906  13.007
45104W        W13467  20.593  17.127   2.387
45105W        W13468  36.420  10.186   0.389
45106W        W13469  38.392  32.973   0.804
45107W        W13470  16.709  24.135   3.811
45108W        W13471   9.275  26.676  13.870
45109W        W13472  43.334  32.010   1.303
45110W        W13473  11.257  22.195  13.927
45111W        W13474  31.971  40.400   5.183
45112W        W13475  18.136   4.372  11.991
45113W        W13476  33.593  35.072  12.355
45114W        W13477  10.212  19.700   4.339
45115W        W13478  40.449  12.629   5.154
45116W        W13479   2.240  32.613  10.962
45117W        W13480  15.176  16.683   2.277
45118W        W13481  28.645  40.371   0.838
45119W        W13482  27.623   4.298   3.312
45120W        W13483  27.049  44.391   2.337
45121W        W13484  28.610   4.715  11.536
45122W        W13485  31.547  39.924   3.224
45123W        W13486   9.381   1.901  13.967
45124W        W13487  29.107  28.122   3.234
45125W        W13488  33.024  26.698  14.413
45126W        W13489   4.710  35.008  10.613
45127W        W13490  39.519  21.238  10.998
45128W        W13491  12.338   3.904  11.047
45129W        W13492  35.480  25.986  13.855
45130W        W13493  38.977  10.161   4.349
45131W        W13494  35.567  19.152  13.390
45132W        W13495   8.766   5.917   1.437
45133W        W13496  13.751  31.066  11.861
45134W        W13497  13.220  41.404  11.881
45135W        W13498   7.309   4.789  14.951
45136W        W13499   0.962  34.904  13.972
45137W        W13500  14.202  26.957   3.673
45138W        W13501  21.135  35.502  11.959
45139W        W13502  29.135   8.245   0.441
45140W        W13503  25.171   9.731   0.923
45141W        W13504  30.608   1.767   1.714
45142W        W13505   5.687  24.179   2.186
45143W        W13506  43.834   0.871   2.378
45144W        W13507  10.274  29.643   3.270
45145W        W13508  29.597  38.365   4.676
45146W        W13509  25.492  25.020  12.413
45147W        W13510  11.150  23.581   1.424
45148W        W13511  12.797   3.931  12.397
45149W        W13512  13.277  43.400  12.897
45150W        W13513   5.209  37.581   1.327
45151W        W13514  33.981  28.038  10.505
45152W        W13515  38.957   7.718   1.452
45153W        W13516  25.676  18.781   0.359
45154W        W13517  13.688  20.707   0.730
45155W        W13518  20.638  44.940   2.204
45156W        W13519  16.231  44.957   4.742
45157W        W13520  15.601  19.718  14.450
45158W        W13521  10.232  19.674   1.907
45159W        W13522  36.533  11.694  10.555
45160W        W13523  43.015  35.926   1.437
45161W        W13524  34.930  20.689  14.333
45162W        W13525   1.820  11.343  13.874
45163W        W13526  31.490  41.940   1.271
45164W        W13527  37.981  25.599  14.371
45165W        W13528   3.805   5.704   2.179
45166W        W13529  37.580   6.284  11.603
45167W        W13530  17.184   9.815   3.701
45168W        W13531  16.264  35.855   1.869
45169W        W13532   9.238   7.406   0.344
45170W        W13533  32.628  37.546   4.761
45171W        W13534  39.925  17.672  13.346
45172W        W13535  38.023  19.761   2.375
45173W        W13536   5.847  43.014  14.903
45174W        W13537  43.450  10.741   3.244
45175W        W13538  15.755   3.799   5.159
45176W        W13539  41.989   5.249  10.474
45177W        W13540  18.142  31.068  11.542
45178W        W13541  40.364  32.599   1.760
45179W        W13542  10.842  20.644   4.775
45180W        W13543  36.908  17.208  10.930
45181W        W13544  18.645  35.596  12.563
45182W        W13545  40.030  19.603  11.392
45183W        W13546  44.423  13.690  13.371
45184W        W13547   7.686  27.995  11.055
45185W        W13548  18.193  29.599   4.189
45186W        W13549   9.323  41.877   3.157
45187W        W13550  18.679  10.733   3.327
45188W        W13551   8.318  43.341   3.840
45189W        W13552  36.537  39.946   0.416
45190W        W13553  14.777  11.752   9.921
45191W        W13554   9.862   0.838   3.675
45192W        W13555   2.416  41.924  11.996
45193W        W13556  41.339   4.795   2.839
45194W        W13557  14.115   1.358  13.999
45195W        W13558  39.932  29.925  11.897
45196W        W13559  15.668  17.106  14.452
45197W        W13560   5.745  26.154  11.963
45198W        W13561  29.957  43.340   2.258
45199W        W13562   1.894  10.290  13.433
45200W        W13563  18.191  38.420   2.742
45201W        W13564  34.903   2.744  12.865
45202W        W13565  39.365  32.500   1.879
45203W        W13566   2.412  37.576   3.746
45204W        W13567  29.025  22.249  13.875
45205W        W13568  41.478  11.314  12.494
45206W        W13569  33.520  13.818  13.925
45207W        W13570  28.565  21.707   3.741
45208W        W13571  22.196  43.293   4.802
45209W        W13572   4.861  26.969   3.189
45210W        W13573  18.663  19.284  12.572
45211W        W13574  37.836  16.112  14.012
45212W        W13575  22.534  31.626   4.828
45213W        W13576  36.847  11.654  10.151
45214W        W13577  18.150  20.265  11.553
45215W        W13578   7.910  20.231   4.142
45216W        W13579  26.103  25.154  11.922
45217W        W13580  41.024  23.155   1.382
45218W        W13581   4.730  35.947  11.984
45219W        W13582  19.206  21.668  11.420
45220W        W13583  14.600  31.529   2.801
45221W        W13584  31.952  33.910  14.877
45222W        W13585   0.420   4.772   4.202
45223W        W13586  25.700   3.784   0.877
45224W        W13587  42.300  34.545  12.968
45225W        W13588  15.687  32.937  12.349
45226W        W13589  29.086  30.595  14.910
45227W        W13590   5.915  36.931   3.800
45228W        W13591  39.462  29.572  12.917
45229W        W13592  12.709  18.756  10.631
45230W        W13593  19.682  43.913   5.710
45231W        W13594  19.765  15.607   9.970
45232W        W13595  10.714   3.340  10.566
45233W        W13596  34.869  22.502  10.450
45234W        W13597  30.082  37.078  14.424
45235W        W13598  35.021  17.664   2.810
45236W        W13599  18.131  34.918  11.015
45237W        W13600   7.398  17.201  14.984
45238W        W13601  13.134  26.636   2.709
45239W        W13602  41.310  27.553  10.629
45240W        W13603  24.482   7.203  10.901
45241W        W13604  30.051  17.716   3.309
45242W        W13605   9.236  43.825  10.917
45243W        W13606  43.809  33.458   4.162
45244W        W13607  43.309  14.290  11.943
45245W        W13608   1.289  22.041   1.893
45246W        W13609  38.551   4.839  12.457
45247W        W13610   0.921   3.353   0.930
45248W        W13611  42.494   2.789   2.713
45249W        W13612  38.526  43.402  13.963
45250W        W13613   6.692  30.015  12.973
45251W        W13614  39.415   4.318   3.866
45252W        W13615  34.038   0.972  13.033
45253W        W13616   5.780  27.493   3.237
45254W        W13617   1.816  17.802  14.025
45255W        W13618   5.377  23.129  10.581
45256W        W13619   4.418  18.170   3.850
45257W        W13620  17.129  43.858  14.479
45258W        W13621  38.998  36.547  12.898
45259W        W13622  19.713  17.638  12.078
45260W        W13623  27.031   4.792  12.896
45261W        W13624   2.335  12.614  11.612
45262W        W13625  44.966  31.133   3.850
45263W        W13626  19.097  15.093   4.338
45264W        W13627   0.869  25.579   1.263
45265W        W13628  15.204  22.543  11.047
45266W        W13629  19.717  38.549  14.390
45267W        W13630   4.446   0.745  10.097
45268W        W13631  40.541   5.372   0.479
45269W        W13632  13.257  36.879   4.206
45270W        W13633   6.413  21.159  14.773
45271W        W13634  19.695  18.626   4.281
45272W        W13635  11.814  22.546   2.768
45273W        W13636  39.351  16.735   0.288
45274W        W13637  28.979  29.057   0.269
45275W        W13638   9.337  11.829  14.856
45276W        W13639  21.652  32.478  10.409
45277W        W13640  35.028   0.846   1.365
45278W        W13641  25.013  19.159  14.416
45279W        W13642  26.205   6.694   4.622
45280W        W13643  16.170  15.719   4.775
45281W        W13644  16.075  37.336  12.450
45282W        W13645  35.981  24.635   0.302
45283W        W13646  22.627  41.378  13.953
45284W        W13647  30.972  32.543  13.525
45285W        W13648  10.787   9.369   3.765
45286W        W13649  13.762  17.681   0.730
45287W        W13650  29.664  18.655   4.353
45288W        W13651  35.511   2.867   2.216
45289W        W13652   1.869  32.133  12.550
45290W        W13653  22.712  12.792   3.687
45291W        W13654  44.275  40.024  11.501
45292W        W13655   2.297  14.096  13.313
45293W        W13656   2.410   0.276   2.322
45294W        W13657  23.026  32.004   1.236
45295W        W13658  27.473  21.752   1.258
45296W        W13659  26.572  43.463   0.265
45297W        W13660  14.707  21.093   3.793
45298W        W13661  36.429  32.006   4.258
45299W        W13662  31.079  17.772  10.920
45300W        W13663  38.534  23.508  12.501
45301W        W13664  23.074   5.692  11.505
45302W        W13665  11.302  26.052  13.796
45303W        W13666  28.971  19.195   2.825
45304W        W13667  10.240  19.633  10.073
45305W        W13668  17.163  31.504  14.818
45306W        W13669   7.203  20.243   1.736
45307W        W13670  44.002  20.642  14.974
45308W        W13671  23.711  24.629   4.325
45309W        W13672   7.737  37.955  13.925
45310W        W13673  35.968  37.493   0.481
45311W        W13674  12.123  22.598   0.350
45312W        W13675  30.962  25.650  12.339
45313W        W13676  15.607  22.575   4.287
45314W        W13677   2.365  40.846   0.902
45315W        W13678  39.864  18.194   2.709
45316W        W13679  19.270  29.433  11.470
45317W        W13680  40.515  31.588  10.442
45318W        W13681  37.836  10.370   2.789
45319W        W13682  24.006   5.220  14.344
45320W        W13683  14.628   6.261   4.181
45321W        W13684   1.256  43.340  12.948
45322W        W13685  43.886  25.053   0.463
45323W        W13686  15.632  22.124  10.639
45324W        W13687  22.532  40.997  14.996
45325W        W13688   3.360  31.434   0.938
45326W        W13689   9.266  38.011   3.659
45327W        W13690  35.520   2.768   4.736
45328W        W13691   7.345  44.810   0.418
45329W        W13692  25.187  22.192   4.669
45330W        W13693  10.170  18.278  14.483
45331W        W13694  39.860   6.322   1.357
45332W        W13695  25.183  18.274  13.925
45333W        W13696   7.400  44.498  14.810
45334W        W13697  16.576  23.015   0.419
45335W        W13698   5.422  11.166   2.332
45336W        W13699  25.475  40.892  12.952
45337W        W13700  10.838  35.554  11.896
45338W        W13701  18.092  42.990  10.493
45339W        W13702  13.330  12.671  10.612
45340W        W13703  25.101   8.720   0.257
45341W        W13704  12.287  28.472  13.424
45342W        W13705  10.722  10.864  13.332
45343W        W13706  23.523  27.598   0.959
45344W        W13707  19.634  39.934  10.483
45345W        W13708  43.886  30.525   3.662
45346W        W13709  11.679   3.919  11.864
45347W        W13710  43.427   4.253   4.789
45348W        W13711   3.787  37.080  10.528
45349W        W13712  31.430  31.405   1.800
45350W        W13713  11.680  18.101  12.991
45351W        W13714  17.105  40.033   3.689
45352W        W13715  38.046  31.648   1.769
45353W        W13716   2.416  15.760   1.397
45354W        W13717  33.488  31.451  13.000
45355W        W13718   9.334  31.067   1.780
45356W        W13719  34.923  18.612   3.678
45357W        W13720  42.788   1.790  13.309
45358W        W13721  37.489  35.018   1.421
45359W        W13722  31.516  32.423   4.732
45360W        W13723  21.616  18.282   1.387
45361W        W13724   8.296  12.801   4.237
45362W        W13725  15.713  12.704  14.829
45363W        W13726   7.672  24.565  12.522
45364W        W13727  28.478   8.197   3.200
45365W        W13728   2.780  21.548  12.088
45366W        W13729  20.679  30.035  12.525
45367W        W13730  11.322   6.919  14.833
45368W        W13731  21.258  19.568  10.963
45369W        W13732  42.967  10.683  14.506
45370W        W13733  27.995   5.904  13.039
45371W        W13734  12.263  36.951  10.507
45372W        W13735  19.706  29.025   0.790
45373W        W13736   2.764  20.106  12.557
45374W        W13737  41.350  35.060  12.384
45375W        W13738  20.677   1.792   3.651
45376W        W13739  37.883  31.092   2.774
45377W        W13740  24.610  28.948   4.727
45378W        W13741  37.960  31.896  12.428
45379W        W13742  36.561  36.434   4.823
45380W        W13743  44.939  16.277   2.676
45381W        W13744  13.802  27.576   0.261
45382W        W13745  44.291  36.852  10.616
45383W        W13746   3.298  16.595   1.221
45384W        W13747  28.071  34.535   4.311
45385W        W13748  12.818   9.831   3.720
45386W        W13749  14.589  43.357  10.609
45387W        W13750  32.068  33.071   1.232
45388W        W13751  28.007  34.456   2.279
45389W        W13752  13.138  35.893   4.353
45390W        W13753  18.784  37.482  14.355
45391W        W13754  37.363  39.813   3.663
45392W        W13755  35.983   9.665   3.849
45393W        W13756  36.544   5.211   1.726
45394W        W13757   8.262  30.540  11.396
45395W        W13758  16.691   5.355  13.505
45396W        W13759   2.375   7.684  10.490
45397W        W13760  31.626   6.270   0.282
45398W        W13761  33.098   9.365  13.801
45399W        W13762  21.541   1.330   2.340
45400W        W13763  20.093   2.323   4.342
45401W        W13764  30.503  37.465   0.822
45402W        W13765  14.817   5.314   4.759
45403W        W13766  36.559   7.876   2.208
45404W        W13767  20.527  31.045   0.888
45405W        W13768  32.627  29.645  14.967
45406W        W13769   7.830  36.906  11.055
45407W        W13770   4.749  32.932   4.295
45408W        W13771  17.131  12.803  14.371
45409W        W13772   4.240   8.359  14.788
45410W        W13773  15.147  23.601  13.403
45411W        W13774  13.622   0.742  12.950
45412W        W13775  24.979  17.224  10.550
45413W        W13776   6.386  44.004  11.505
45414W        W13777  28.066  39.885   2.269
45415W        W13778  10.323   2.366  14.978
45416W        W13779  37.031  39.500  14.401
45417W        W13780   1.808  23.494   4.238
45418W        W13781  39.055  25.196   0.447
45419W        W13782  14.264   1.797  14.477
45420W        W13783  19.694   6.223   4.680
45421W        W13784   7.807  43.845   2.199
45422W        W13785  17.707  25.588  14.809
45423W        W13786  15.164  25.655  13.994
45424W        W13787   6.339  18.647  13.830
45425W        W13788  10.640  44.394   4.688
45426W        W13789   8.395  25.543  14.400
45427W        W13790  35.024   2.869   0.331
45428W        W13791  21.690  33.948   4.622
45429W        W13792  26.488   9.320   1.217
45430W        W13793  26.619  18.740   0.828
45431W        W13794  40.509  38.819   1.420
45432W        W13795  12.839  17.160  14.352
45433W        W13796  43.797  44.452   4.622
45434W        W13797  25.470  13.654  13.999
45435W        W13798  15.159  32.486   1.735
45436W        W13799   1.338   5.401   3.699
45437W        W13800  12.167  40.882  12.002
45438W        W13801  17.556  33.541   2.799
45439W        W13802  42.317  28.182  13.322
45440W        W13803  39.914  32.909  11.960
45441W        W13804   6.848  36.088   2.773
45442W        W13805  31.024  28.471   3.719
45443W        W13806  17.307  16.772   1.445
45444W        W13807  36.578  26.581  11.492
45445W        W13808  10.707  22.599   1.222
45446W        W13809  39.325  25.569  13.978
45447W        W13810  19.170  19.761  12.866
45448W        W13811  43.803  21.221  11.101
45449W        W13812  21.127   9.647   3.305
45450W        W13813   7.303  44.494  13.886
45451W        W13814   6.253  25.679  14.005
45452W        W13815   0.809  29.572  14.785
45453W        W13816  12.265  32.910   1.381
45454W        W13817  17.766   7.382   2.359
45455W        W13818  26.563  37.354  12.086
45456W        W13819  29.965  14.128  10.420
45457W        W13820  16.606  37.941   2.693
45458W        W13821  21.208  38.943  10.535
45459W        W13822  38.001   2.469   4.735
45460W        W13823  21.070  25.692  13.953
45461W        W13824  32.417   1.871   4.156
45462W        W13825   0.866  14.284  13.943
45463W        W13826  40.406  24.593  13.356
45464W        W13827  23.986  22.204  12.386
45465W        W13828  21.523  32.434  11.476
45466W        W13829  33.582  32.057   4.721
45467W        W13830  42.999   1.360  12.576
45468W        W13831  16.302  36.936  11.576
45469W        W13832   5.213  34.887  14.007
45470W        W13833  26.016  37.008   0.315
45471W        W13834  43.885  18.602   4.780
45472W        W13835  22.574   6.299   0.907
45473W        W13836   1.949  11.337  11.438
45474W        W13837   6.324  28.514   2.387
45475W        W13838  19.702  34.935   3.208
45476W        W13839  44.344  43.505   1.924
45477W        W13840  12.680   6.288  14.891
45478W        W13841  39.492   6.386  13.821
45479W        W13842  30.469  24.699   3.275
45480W        W13843  25.592  44.917   0.737
45481W        W13844   9.652  33.464  14.978
45482W        W13845  23.203  41.518   2.757
45483W        W13846  18.725  33.425   4.146
45484W        W13847   5.752   7.289   3.734
45485W        W13848  42.792  41.323  12.391
45486W        W13849  35.947  35.086   0.355
45487W        W13850  22.691  22.580  11.449
45488W        W13851  40.934  27.960   4.330
45489W        W13852  34.010   7.673   0.919
45490W        W13853  20.096  43.766  14.923
45491W        W13854  10.233  21.536  14.453
45492W        W13855   4.228  10.334  14.985
45493W        W13856  12.774  34.552   0.934
45494W        W13857  43.405  14.800   0.282
45495W        W13858  31.426  21.059   3.652
45496W        W13859  22.027  26.597   1.883
45497W        W13860  36.875  12.778   1.834
45498W        W13861  34.381  27.621   4.776
45499W        W13862  16.228  41.867  11.063
45500W        W13863   6.389  18.099  13.993
45501W        W13864  10.319  44.359  13.827
45502W        W13865   6.729  17.607   0.400
45503W        W13866  27.631  12.778   5.647
45504W        W13867  22.547  23.640  13.851
45505W        W13868  44.759  17.762  13.019
45506W        W13869  36.497  23.526   3.148
45507W        W13870  34.411  40.997  10.506
45508W        W13871  14.114  25.522   0.243
45509W        W13872  39.933   7.304   0.768
45510W        W13873  15.713  41.499   4.266
45511W        W13874  23.050   2.788  12.093
45512W        W13875  31.904  11.857   1.849
45513W        W13876  37.489  44.502   3.384
45514W        W13877   3.377  24.011  10.641
45515W        W13878  39.829  18.127  12.073
45516W        W13879  29.104  38.345  13.453
45517W        W13880  37.875  35.982  13.485
45518W        W13881   3.434  35.012   1.288
45519W        W13882  16.107   7.414   0.781
45520W        W13883  14.724  19.224  12.911
45521W        W13884  29.593   3.787   3.204
45522W        W13885  11.832  20.063   4.225
45523W        W13886   8.715   1.249   0.964
45524W        W13887  22.628   0.481   4.268
45525W        W13888   6.705  33.073   2.773
45526W        W13889  38.042  32.000  11.585
45527W        W13890  24.974  18.133  12.457
45528W        W13891   2.889  43.893   4.139
45529W        W13892  27.670   7.676   4.600
45530W        W13893  12.121   2.322   0.403
45531W        W13894  13.775  30.579  12.407
45532W        W13895  15.743  17.124  10.958
45533W        W13896  17.710   1.826   0.418
45534W        W13897   0.752   4.375  13.380
45535W        W13898  43.468  36.466  14.361
45536W        W13899  20.685  36.511  12.514
45537W        W13900   0.833  30.107  11.420
45538W        W13901   0.744  44.889  13.350
45539W        W13902  25.689   6.403   4.288
45540W        W13903  40.842   8.356  13.478
45541W        W13904  27.956  41.535   3.284
45542W        W13905  34.002  10.350   1.906
45543W        W13906  20.177  17.236  14.454
45544W        W13907  38.446   1.278   1.244
45545W        W13908   8.743   0.401   1.254
45546W        W13909  14.672  21.097   3.349
45547W        W13910   5.877  38.898  10.076
45548W        W13911  44.447  16.609   1.228
45549W        W13912  28.163  38.411   3.215
45550W        W13913  13.342  39.908   2.402
45551W        W13914  19.716  41.507  11.557
45552W        W13915  23.986   2.795  12.348
45553W        W13916  23.080  37.360   2.677
45554W        W13917   6.876  39.896   2.701
45555W        W13918   9.232  36.435  11.463
45556W        W13919  34.587  21.522   2.870
45557W        W13920  14.596  36.357  12.862
45558W        W13921  20.036   0.404  13.993
45559W        W13922  32.116  35.911  12.519
45560W        W13923  23.541  37.416  10.530
45561W        W13924  26.628   2.402   1.765
45562W        W13925  34.019  21.258   4.656
45563W        W13926  15.232  15.762   0.860
45564W        W13927  29.570  18.272  12.524
45565W        W13928  19.051  33.449  12.917
45566W        W13929  18.051   1.477  13.817
45567W        W13930  11.320  34.956  12.053
45568W        W13931  40.459   5.202  14.976
45569W        W13932  16.570   7.772  12.443
45570W        W13933  17.676   6.836   4.290
45571W        W13934   3.359  24.705   0.894
45572W        W13935  41.997  15.219   4.299
45573W        W13936  37.410  19.538   2.232
45574W        W13937   6.185  14.833   3.679
45575W        W13938  27.133   6.765   0.299
45576W        W13939   1.942  34.536   4.605
45577W        W13940  40.435   4.340   0.926
45578W        W13941  44.414  35.445   3.690
45579W        W13942  44.811   5.269  13.965
45580W        W13943  29.505  39.405   1.227
45581W        W13944   3.838  37.884   0.748
45582W        W13945  36.483  10.232  14.890
45583W        W13946  22.537  31.093  14.491
45584W        W13947  33.425  29.081  11.467
45585W        W13948  26.493  33.483  14.783
45586W        W13949   5.387  40.421   2.179
45587W        W13950  11.699  24.606   1.231
45588W        W13951   7.198   2.443   2.392
45589W        W13952  26.164  34.107   4.740
45590W        W13953  28.147  14.311   1.823
45591W        W13954  41.383  30.651   0.857
45592W        W13955   9.383  17.707  10.983
45593W        W13956   2.894   8.849  12.368
45594W        W13957  17.154  23.205  10.969
45595W        W13958  27.953  35.464   3.386
45596W        W13959  31.459  13.628  14.303
45597W        W13960   5.816  25.963  10.959
45598W        W13961  35.546  27.081  11.925
45599W        W13962  14.207   7.739  12.450
45600W        W13963  40.530  35.069   2.246
45601W        W13964  22.180   4.291  11.917
45602W        W13965  32.393  43.998   4.213
45603W        W13966   8.273  32.048  14.771
45604W        W13967  31.091  41.302   2.223
45605W        W13968  34.968   8.730   3.308
45606W        W13969  11.270  13.192  11.389
45607W        W13970  28.958  36.058  13.382
45608W        W13971   6.344   4.353   0.363
45609W        W13972  11.184  44.351   0.321
45610W        W13973  32.889  20.706   2.663
45611W        W13974  17.264  20.592   1.828
45612W        W13975  14.760  37.496  12.927
45613W        W13976   5.427   2.941   0.864
45614W        W13977   1.880  21.054  13.340
45615W        W13978  21.715  16.750  10.506
45616W        W13979  25.474   3.884  10.416
45617W        W13980  43.842  16.141  11.581
45618W        W13981  34.591  31.079  11.536
45619W        W13982  24.224  17.678  11.602
45620W        W13983  18.158  15.297   1.813
45621W        W13984  27.575  18.773  13.422
45622W        W13985   5.836  12.220   1.787
45623W        W13986   7.823   7.834   5.201
45624W        W13987  16.284  12.247  11.942
45625W        W13988  22.153  38.405  12.341
45626W        W13989   9.649  32.522   0.326
45627W        W13990  38.413  17.193  10.556
45628W        W13991  33.939   1.748   3.763
45629W        W13992   4.787  23.682   9.977
45630W        W13993  26.955  25.498   3.270
45631W        W13994  18.755  13.722   0.438
45632W        W13995  43.382  33.921   4.137
45633W        W13996  41.391  39.920   0.279
45634W        W13997  44.917  29.489   2.379
45635W        W13998   5.314  17.619   1.810
45636W        W13999  39.334  23.004   0.293
45637W        W14000  28.158   8.182  11.974
45638W        W14001  40.953  30.494   1.282
45639W        W14002  26.134  22.999  14.423
45640W        W14003  13.308  24.178  10.583
45641W        W14004  21.023  12.692  14.828
45642W        W14005  34.983  29.556   1.373
45643W        W14006  44.293   5.420  11.593
45644W        W14007   1.942  41.453   4.702
45645W        W14008  20.661  25.180  14.005
45646W        W14009   2.775  19.764   4.791
45647W        W14010  28.931   6.798   0.887
45648W        W14011  12.687   5.251  10.135
45649W        W14012   3.883  19.122   1.375
45650W        W14013  44.840   7.859   4.664
45651W        W14014  41.427  22.130  11.451
45652W        W14015  19.709  22.570   1.710
45653W        W14016  37.909  26.092  12.049
45654W        W14017   7.864  23.610  14.782
45655W        W14018  21.720  34.577  10.481
45656W        W14019  39.317  20.029  12.853
45657W        W14020  35.493  30.433  11.513
45658W        W14021  17.570  16.762  14.474
45659W        W14022   4.763  26.996  11.611
45660W        W14023  15.161  15.695  10.553
45661W        W14024   1.475  33.419   2.669
45662W        W14025   8.311  37.879  12.865
45663W        W14026  34.486   3.281   0.836
45664W        W14027  19.668  43.021  14.383
45665W        W14028  14.631  34.429   2.216
45666W        W14029  23.148   9.743  10.611
45667W        W14030  36.544  18.085  10.909
45668W        W14031  43.887  41.348  13.440
45669W        W14032  33.042   0.772   3.679
45670W        W14033  43.989  29.994  12.063
45671W        W14034   2.237  29.501   0.905
45672W        W14035  28.046  20.096  13.509
45673W        W14036  32.571  20.111   2.334
45674W        W14037  17.125  39.453   0.937
45675W        W14038  11.353  23.106   2.327
45676W        W14039  24.195  12.268   3.785
45677W        W14040   7.193  40.376  11.918
45678W        W14041  16.202  29.990  11.043
45679W        W14042  10.142   7.703   4.672
45680W        W14043  22.550   0.890  10.422
45681W        W14044   9.205  12.144   0.941
45682W        W14045  20.101  31.567  14.384
45683W        W14046  40.053  40.471  11.934
45684W        W14047  39.532  35.977  13.547
45685W        W14048   9.733  27.146   4.655
45686W        W14049   1.329   3.383  13.912
45687W        W14050  12.330  41.808   2.888
45688W        W14051  12.255   2.232   0.759
45689W        W14052  38.346   1.923  11.898
45690W        W14053   7.227  16.810  11.069
45691W        W14054   1.308  12.325   2.885
45692W        W14055  17.802   0.392   4.296
45693W        W14056  41.985  29.123   3.696
45694W        W14057   4.210   5.687   2.387
45695W        W14058  28.605  40.330  11.546
45696W        W14059  39.022   4.795  13.870
45697W        W14060  27.086  41.814   3.768
45698W        W14061  14.780  17.287  11.910
45699W        W14062  26.616  33.555  10.431
45700W        W14063   7.666   6.223  13.928
45701W        W14064  44.879  35.595   0.765
45702W        W14065   2.895   4.275   3.715
45703W        W14066  32.414  29.479  11.530
45704W        W14067   3.355  14.618  13.376
45705W        W14068   2.779  42.834  13.431
45706W        W14069   4.274  14.813  13.912
45707W        W14070  23.994  43.371  11.501
45708W        W14071  41.837  20.571   2.837
45709W        W14072  37.003  36.451  12.496
45710W        W14073   5.762  28.560   2.730
45711W        W14074  30.048  26.632   4.175
45712W        W14075  31.920  29.136  12.362
45713W        W14076  14.129   4.238   3.274
45714W        W14077  31.968  22.996  14.031
45715W        W14078  12.637  19.679   4.218
45716W        W14079  24.586  13.811   4.201
45717W        W14080  25.656  10.695   4.159
45718W        W14081  42.357   5.221  10.535
45719W        W14082  10.777  32.027   0.955
45720W        W14083  14.176  42.284   0.781
45721W        W14084  25.598  37.930  10.579
45722W        W14085  22.143   0.772   2.717
45723W        W14086  14.245  35.042  12.569
45724W        W14087  37.918  20.662  12.534
45725W        W14088  40.408  19.151  13.472
45726W        W14089  27.965   6.409  12.389
45727W        W14090  17.690  39.476  13.317
45728W        W14091   7.291  22.704  14.999
45729W        W14092  26.586  25.675   1.885
45730W        W14093  44.980  44.504   3.643
45731W        W14094  34.431  21.234   5.296
45732W        W14095  43.822  44.402   1.841
45733W        W14096   7.346  27.106   0.900
45734W        W14097  40.932  24.517  10.514
45735W        W14098  22.239  38.354  10.617
45736W        W14099  43.291  16.111   1.406
45737W        W14100  17.211  23.121  14.913
45738W        W14101  22.173   8.676   4.745
45739W        W14102  31.497  17.147   0.912
45740W        W14103  27.491  16.626  12.896
45741W        W14104  28.966  17.079  14.872
45742W        W14105  30.652  18.728  11.926
45743W        W14106   4.383  26.648  14.430
45744W        W14107  39.554  37.487   0.464
45745W        W14108  24.174  27.692  11.876
45746W        W14109   0.313  37.371  11.496
45747W        W14110  44.445  42.495   4.742
45748W        W14111  17.705  17.676   4.792
45749W        W14112  19.212   9.656  11.371
45750W        W14113  17.263  37.936  14.348
45751W        W14114  39.926  38.532   4.818
45752W        W14115  14.631  22.247  12.980
45753W        W14116   1.799  34.953   1.864
45754W        W14117  42.401   0.268   3.665
45755W        W14118  29.584   6.761   3.231
45756W        W14119  13.244  36.937  12.541
45757W        W14120  40.462   8.900   4.838
45758W        W14121  11.212  22.188  10.990
45759W        W14122  16.775  10.652  13.857
45760W        W14123  26.660   8.869  12.043
45761W        W14124  18.637  10.693  12.526
45762W        W14125  20.169   1.972   0.445
45763W        W14126  11.662  44.958  12.505
45764W        W14127  42.512  44.923  12.553
45765W        W14128  12.744   1.450  10.568
45766W        W14129  35.576   8.689  14.285
45767W        W14130  24.050  26.021   4.778
45768W        W14131  24.587  37.552  14.359
45769W        W14132  17.758  29.073   1.439
45770W        W14133  17.599   9.858  13.546
45771W        W14134   0.422  17.198   0.256
45772W        W14135   0.793  43.894   0.362
45773W        W14136  39.884  16.281  12.032
45774W        W14137  15.242  29.449  14.900
45775W        W14138  13.175  24.213   3.736
45776W        W14139  22.566  12.290   4.823
45777W        W14140  34.958  35.469   1.865
45778W        W14141  33.945  44.394  10.105
45779W        W14142   4.358  12.795  14.483
45780W        W14143   5.719  13.768   1.271
45781W        W14144  18.733   1.972  14.889
45782W        W14145  31.588   8.771   1.786
45783W        W14146   0.259  33.084  14.870
45784W        W14147  14.104   1.854   1.230
45785W        W14148  10.145  36.557   3.737
45786W        W14149  33.566  38.554   1.717
45787W        W14150  20.729  33.032  11.936
45788W        W14151  30.159  10.856  12.486
45789W        W14152   5.863  29.167  11.862
45790W        W14153   5.397  41.963   0.428
45791W        W14154   3.360  26.152  10.591
45792W        W14155  35.524  28.958   3.384
45793W        W14156  38.409  12.760   4.837
45794W        W14157  38.050  12.274   2.890
45795W        W14158  15.601  22.164   0.400
45796W        W14159  18.759  23.200   1.297
45797W        W14160  39.390  19.151   2.279
45798W        W14161  43.462  10.709   2.409
45799W        W14162  11.304  12.228   4.149
45800W        W14163  19.163  21.653  14.311
45801W        W14164  42.994  44.986   3.837
45802W        W14165  25.016   5.810   1.924
45803W        W14166   3.339  11.167   4.349
45804W        W14167  13.283  20.710   0.786
45805W        W14168  31.075  24.647   1.896
45806W        W14169  39.396  25.098  13.366
45807W        W14170  21.218  28.544  14.918
45808W        W14171  11.242  33.073   1.888
45809W        W14172  16.256  43.279  11.925
45810W        W14173   4.943  38.887   4.339
45811W        W14174  40.937  44.309   1.735
45812W        W14175  32.594  12.766   0.363
45813W        W14176  39.870  24.716   3.702
45814W        W14177  38.403  16.183  10.488
45815W        W14178  27.463   5.240   0.822
45816W        W14179  33.469  21.669   1.221
45817W        W14180   9.870   2.449   1.749
45818W        W14181   2.328  14.277  12.082
45819W        W14182  31.002  27.113  13.324
45820W        W14183  39.893  30.080   2.410
45821W        W14184  35.598  20.525  11.490
45822W        W14185  16.677  26.160   4.836
45823W        W14186  12.305  10.211   4.634
45824W        W14187  25.478  41.426   4.226
45825W        W14188  10.366   1.439   3.777
45826W        W14189  27.132  26.034  14.330
45827W        W14190  37.412  43.373  10.627
45828W        W14191  42.814  11.630   1.717
45829W        W14192  30.044   9.225   0.759
45830W        W14193  18.191  27.594  10.587
45831W        W14194  10.166   0.901   4.297
45832W        W14195  16.636  12.212  11.597
45833W        W14196  39.404  17.144   9.931
45834W        W14197  33.877   3.354  12.989
45835W        W14198   7.689  33.971   1.921
45836W        W14199   1.326  15.771  12.511
45837W        W14200  14.150  40.979  14.763
45838W        W14201  20.690  23.230  12.569
45839W        W14202  43.493   7.851   1.215
45840W        W14203  25.105  22.628  14.992
45841W        W14204  36.067  35.539  14.988
45842W        W14205  11.318  10.325   0.895
45843W        W14206   5.718   9.321   1.814
45844W        W14207   7.865   4.918  13.345
45845W        W14208  34.614   4.241  10.523
45846W        W14209  28.667   5.747  14.927
45847W        W14210  23.557  37.014   4.831
45848W        W14211  33.097  21.059  11.593
45849W        W14212  43.386   1.241   4.818
45850W        W14213   6.306  23.548   2.351
45851W        W14214  31.514  22.182   4.340
45852W        W14215  31.501  34.606  12.854
45853W        W14216  23.656  32.919  12.378
45854W        W14217  41.844  11.644   2.232
45855W        W14218   2.278  12.760  14.825
45856W        W14219  13.752   6.885  13.821
45857W        W14220  15.585  14.288  13.408
45858W        W14221  38.853  28.170  13.865
45859W        W14222  25.580  30.026   0.401
45860W        W14223  11.696   9.226  14.003
45861W        W14224  36.361  19.665  12.534
45862W        W14225   3.380  11.755  11.578
45863W        W14226  24.640   2.430   4.780
45864W        W14227  24.114  44.328   1.823
45865W        W14228   1.819  14.774   3.309
45866W        W14229  16.708  10.357   0.933
45867W        W14230  11.822  36.939   1.856
45868W        W14231  40.438  42.407   2.314
45869W        W14232  24.110  24.131  14.368
45870W        W14233   9.852  12.654   0.784
45871W        W14234  31.509  39.054  12.022
45872W        W14235  44.851   3.863  13.856
45873W        W14236   8.834  10.648   1.791
45874W        W14237  28.929  15.179  14.821
45875W        W14238  22.180  34.469  10.485
45876W        W14239  11.302  19.592  11.506
45877W        W14240  14.604  32.116  14.294
45878W        W14241   2.914   5.730   2.236
45879W        W14242  27.040  20.086   4.770
45880W        W14243  12.256   2.862  14.815
45881W        W14244   9.685   5.397  12.864
45882W        W14245  10.870  23.495   3.324
45883W        W14246  40.331  37.880   2.825
45884W        W14247  41.836   2.273   2.302
45885W        W14248  24.528  29.032  14.909
45886W        W14249  19.647  27.066   1.234
45887W        W14250  26.567  44.928  13.893
45888W        W14251   0.965   1.904   3.870
45889W        W14252  14.824  41.485  12.885
45890W        W14253  38.475  33.575   2.376
45891W        W14254  12.310  10.215   1.436
45892W        W14255  38.468  16.646  12.086
45893W        W14256  13.208  20.106  10.538
45894W        W14257  34.986  12.357   0.471
45895W        W14258  33.023  38.440   3.650
45896W        W14259  40.896  41.304   3.230
45897W        W14260  39.893  34.977   1.753
45898W        W14261   2.386  11.327  13.501
45899W        W14262  35.970  12.204  11.381
45900W        W14263  34.468   8.217   2.390
45901W        W14264  30.053  35.529  11.980
45902W        W14265  22.713  41.483   0.383
45903W        W14266   0.849  33.536   0.783
45904W        W14267   8.212  42.016   4.682
45905W        W14268  16.076  29.617  10.947
45906W        W14269  44.958   4.312  14.785
45907W        W14270   2.721  18.182   0.400
45908W        W14271  24.638  27.967   4.170
45909W        W14272   1.758  11.289  14.487
45910W        W14273  14.261  34.867   1.867
45911W        W14274  43.838  36.902   4.224
45912W        W14275  31.112  10.348   3.193
45913W        W14276  21.174   3.805   2.208
45914W        W14277   6.905  20.162  10.496
45915W        W14278  42.992   3.216  12.070
45916W        W14279  42.346  38.947  10.564
45917W        W14280  39.397  29.101   2.311
45918W        W14281   8.661  28.509   2.870
45919W        W14282  10.875   3.308  14.806
45920W        W14283  42.335   8.879   4.165
45921W        W14284   0.905  25.996   1.291
45922W        W14285   5.235   1.320  14.430
45923W        W14286  28.087  29.453  12.024
45924W        W14287  32.000   9.808   0.886
45925W        W14288  24.131  44.916   2.769
45926W        W14289  32.036  39.964  12.358
45927W        W14290   6.231   9.280   2.261
45928W        W14291  37.437   0.912   4.692
45929W        W14292  11.319  41.853  11.595
45930W        W14293  36.531  18.753  12.903
45931W        W14294  23.703  35.365  11.941
45932W        W14295  36.407  37.516   1.225
45933W        W14296  42.893  27.608  13.052
45934W        W14297  15.280  23.026   4.152
45935W        W14298  24.543   1.886  12.857
45936W        W14299  40.954  10.856  11.910
45937W        W14300  39.548  18.244   4.788
45938W        W14301  12.778  26.577   4.738
45939W        W14302   9.253  22.098  12.007
45940W        W14303   9.647  35.023  11.498
45941W        W14304  42.410  23.090  10.523
45942W        W14305  11.328  30.118  12.081
45943W        W14306  37.928   6.915  12.010
45944W        W14307  26.468  17.571   1.338
45945W        W14308  35.511  13.790  12.523
45946W        W14309  32.950  39.853  12.905
45947W        W14310  34.471  29.153   3.641
45948W        W14311  34.440   1.434   1.276
45949W        W14312  19.130  43.803   3.172
45950W        W14313  24.676  10.800   1.820
45951W        W14314   2.842   8.257   4.154
45952W        W14315  12.709  23.107   0.955
45953W        W14316  14.672  29.014  12.406
45954W        W14317  19.132  26.674  12.452
45955W        W14318  14.609   3.351  14.001
45956W        W14319  31.915  14.239   1.283
45957W        W14320  40.435  15.134   0.394
45958W        W14321  19.621  13.199  12.469
45959W        W14322  37.353  15.213  10.491
45960W        W14323  39.531  26.671  14.447
45961W        W14324  30.153  39.376  13.354
45962W        W14325  30.133  25.507  11.893
45963W        W14326  23.007  38.405  14.010
45964W        W14327  30.644  39.990   1.901
45965W        W14328  21.735   9.663  10.964
45966W        W14329  24.582  43.305  14.458
45967W        W14330  39.916  19.214   3.749
45968W        W14331   6.223  15.114  13.027
45969W        W14332  43.452  13.824  13.333
45970W        W14333  19.216   4.313  11.478
45971W        W14334   3.799  22.681   3.339
45972W        W14335  10.383  33.958  13.988
45973W        W14336  22.625  27.605  11.587
45974W        W14337  16.276  29.134  11.077
45975W        W14338  39.372  22.032  11.954
45976W        W14339  42.987  38.446   5.737
45977W        W14340  13.696  28.563  12.900
45978W        W14341  44.390  28.559   0.266
45979W        W14342  10.198   5.709  11.859
45980W        W14343  12.283   4.241  12.392
45981W        W14344  34.072  14.783   2.774
45982W        W14345   5.240   7.344   0.355
45983W        W14346   6.908  34.905   3.647
45984W        W14347  38.022   6.847   0.799
45985W        W14348  23.504  36.991  11.088
45986W        W14349  22.199  20.219   3.733
45987W        W14350  28.563  30.657  11.880
45988W        W14351  14.100  30.026   1.703
45989W        W14352  42.417   4.232  11.941
45990W        W14353  11.359  20.580   4.230
45991W        W14354   3.843  36.908  13.351
45992W        W14355   9.821  30.521  13.970
45993W        W14356   9.360  36.555   4.818
45994W        W14357  23.225  36.064   0.780
45995W        W14358  12.189   0.482   0.320
45996W        W14359  42.932  40.872  12.486
45997W        W14360  39.002   6.369  13.953
45998W        W14361  27.670  27.963  11.911
45999W        W14362  42.000  41.474  14.379
46000W        W14363  38.928  11.352  12.557
46001W        W14364  15.324  19.259  10.896
46002W        W14365  44.840   4.770  10.449
46003W        W14366  17.248   6.375   2.857
46004W        W14367  25.060   6.329   0.847
46005W        W14368  32.045  27.489  10.010
46006W        W14369  10.291   9.382  12.876
46007W        W14370  30.465  11.269   0.812
46008W        W14371  35.421  44.504  13.410
46009W        W14372   1.764  25.629   3.855
46010W        W14373   4.449  36.877  12.076
46011W        W14374  43.435  25.488   4.722
46012W        W14375  40.827   4.930   4.191
46013W        W14376   8.337  19.640  14.394
46014W        W14377  36.427  40.305  12.454
46015W        W14378  44.835  28.613  13.877
46016W        W14379  40.312  43.411  12.946
46017W        W14380  44.294   1.474  11.895
46018W        W14381  34.593  24.116  12.852
46019W        W14382  31.993  19.116   0.949
46020W        W14383  20.679  22.740   4.186
46021W        W14384   0.328  32.405   1.830
46022W        W14385   0.937  23.522   5.572
46023W        W14386  18.092  10.724   3.205
46024W        W14387  24.993  36.080   1.870
46025W        W14388  16.121   4.899   1.234
46026W        W14389  26.039  44.346  12.446
46027W        W14390  30.555  26.523   1.706
46028W        W14391  35.589  37.015  11.404
46029W        W14392  36.874   8.873   1.883
46030W        W14393  35.541  41.426   1.382
46031W        W14394  44.420  40.531   0.257
46032W        W14395  26.510  40.520   5.278
46033W        W14396  41.416  27.549  14.841
46034W        W14397  17.185   3.280  12.000
46035W        W14398  15.746  16.317   2.680
46036W        W14399  11.219  23.998   1.922
46037W        W14400  12.270  23.724   1.896
46038W        W14401  19.692  35.540   2.720
46039W        W14402  38.933  26.470   2.231
46040W        W14403   8.305  18.672  12.879
46041W        W14404  13.194  21.141   1.385
46042W        W14405  17.617  14.187  10.512
46043W        W14406  41.377   0.956   4.127
46044W        W14407  16.101  20.762   0.453
46045W        W14408   9.285  31.138   4.344
46046W        W14409   3.917  17.286   1.445
46047W        W14410   3.917  22.027   5.152
46048W        W14411  26.459  34.003   2.815
46049W        W14412  25.592  24.152  12.558
46050W        W14413  31.443  27.599  12.363
46051W        W14414   9.345  21.134   2.850
46052W        W14415  44.273  33.089   2.728
46053W        W14416  18.150   0.979   3.318
46054W        W14417   2.233   2.930   1.738
46055W        W14418  21.035  16.752  10.952
46056W        W14419  22.014  28.615  12.429
46057W        W14420   5.312  32.489   3.288
46058W        W14421  19.138  31.585   1.901
46059W        W14422  18.602  44.765  12.486
46060W        W14423  21.613   5.772  11.108
46061W        W14424  31.434   7.254   1.883
46062W        W14425  29.975  15.142   3.773
46063W        W14426   8.265   5.433  11.560
46064W        W14427  29.670  34.956  11.006
46065W        W14428  31.911   6.384   0.869
46066W        W14429   5.261  27.522  13.426
46067W        W14430  21.159  34.919   0.390
46068W        W14431  40.896  38.835  13.332
46069W        W14432  22.534  18.174   0.281
46070W        W14433  34.945   3.828   3.366
46071W        W14434  16.111  36.358  13.498
46072W        W14435  15.209  20.125  11.483
46073W        W14436  20.699  44.358  11.479
46074W        W14437  29.057  33.005  13.313
46075W        W14438  28.113  31.625   1.894
46076W        W14439  26.623   3.764  11.897
46077W        W14440   1.918  28.633  12.093
46078W        W14441  41.297  43.970  14.816
46079W        W14442  32.569   6.725  14.000
46080W        W14443  39.346  42.919  10.515
46081W        W14444  29.498  31.040  13.832
46082W        W14445  13.200  39.029  12.397
46083W        W14446  35.102  34.466   1.890
46084W        W14447  29.510  11.177   2.850
46085W        W14448  11.350  11.782   1.865
46086W        W14449  10.722   5.886   3.786
46087W        W14450   3.909   5.285  10.574
46088W        W14451  44.918   0.782  13.831
46089W        W14452   3.799   3.446   2.364
46090W        W14453   8.335   1.467  12.418
46091W        W14454  22.249  39.870   3.357
46092W        W14455  19.237  18.585   2.886
46093W        W14456  30.585  40.501   0.318
46094W        W14457  26.584  34.379   2.203
46095W        W14458  13.771  38.472   2.866
46096W        W14459  13.226  21.528  12.511
46097W        W14460   3.907  19.060  12.510
46098W        W14461  38.467  36.992  11.511
46099W        W14462  27.498  25.130   0.246
46100W        W14463  42.419  14.718   2.854
46101W        W14464  41.879   4.737  14.429
46102W        W14465   3.807  43.331   3.258
46103W        W14466  16.154  17.069   5.216
46104W        W14467  20.663  31.522  12.913
46105W        W14468  43.823  10.771   1.358
46106W        W14469  37.878  20.721   1.718
46107W        W14470  14.243   0.346   3.805
46108W        W14471  39.817   3.256   1.225
46109W        W14472  26.572  18.628   2.402
46110W        W14473  36.014   1.331   0.303
46111W        W14474  28.488  19.272   1.269
46112W        W14475  22.066   4.889  13.894
46113W        W14476  44.847  12.284  11.925
46114W        W14477  33.553  32.591   2.183
46115W        W14478  20.087  42.436   5.179
46116W        W14479   7.393  33.956  10.516
46117W        W14480  16.581  19.751   0.927
46118W        W14481   6.702  22.725   0.966
46119W        W14482  43.843  42.945   0.824
46120W        W14483  21.050  19.284  11.495
46121W        W14484  30.037  11.766   0.314
46122W        W14485   4.833  16.250  14.419
46123W        W14486  38.402  42.827   2.376
46124W        W14487   5.422  34.603  10.940
46125W        W14488  26.663  35.358   0.939
46126W        W14489  18.666   0.396   3.162
46127W        W14490  13.290   8.398  13.546
46128W        W14491  18.739  27.537  11.949
46129W        W14492  26.591  43.017   2.829
46130W        W14493   8.262  10.191   3.718
46131W        W14494  34.867  13.704   2.741
46132W        W14495   4.327  10.155   0.259
46133W        W14496   8.257   1.319   2.329
46134W        W14497  29.013  12.621   3.207
46135W        W14498   6.361  19.598  14.514
46136W        W14499   2.301  17.262   0.482
46137W        W14500  37.505  38.478  12.424
46138W        W14501  29.602  22.148   3.677
46139W        W14502  44.864  30.610   0.390
46140W        W14503  44.411  26.515  11.981
46141W        W14504  16.599  21.089   0.450
46142W        W14505   9.373  14.103  10.613
46143W        W14506  10.797  10.324  13.393
46144W        W14507   2.396   6.304   2.361
46145W        W14508   5.919  38.841  13.886
46146W        W14509   7.717  15.805  11.589
46147W        W14510  41.810  11.327  12.381
46148W        W14511   0.842  32.561   3.341
46149W        W14512  41.488  19.255   0.358
46150W        W14513  43.882  22.171  14.454
46151W        W14514  20.261  29.558   0.287
46152W        W14515  33.523  11.252  10.980
46153W        W14516  22.166  10.229  10.619
46154W        W14517   3.253  23.551  13.980
46155W        W14518  10.748   0.751  10.145
46156W        W14519   6.755  37.572  12.929
46157W        W14520   5.307  42.958   2.398
46158W        W14521   4.372  22.586  12.445
46159W        W14522  29.434   1.366  13.058
46160W        W14523   0.904  23.163   4.301
46161W        W14524  30.540  32.084  14.793
46162W        W14525  22.502  33.608  12.357
46163W        W14526   3.227   9.765  12.431
46164W        W14527  43.516  32.472  12.890
46165W        W14528  43.411   2.814  11.916
46166W        W14529  15.125   1.944   0.808
46167W        W14530  37.427  10.749   3.164
46168W        W14531  40.962  10.866   0.421
46169W        W14532   6.685  38.859   4.688
46170W        W14533  22.539  34.456  12.921
46171W        W14534  34.896  27.609   3.655
46172W        W14535  35.906   5.270  12.440
46173W        W14536  37.486  28.477  10.492
46174W        W14537  23.635  14.606  12.082
46175W        W14538  10.814  44.393   1.774
46176W        W14539  37.460   0.837  11.034
46177W        W14540  43.460  41.910   3.822
46178W        W14541  25.044   2.847  12.080
46179W        W14542  43.012  41.417  13.034
46180W        W14543   4.796  19.152  10.912
46181W        W14544  33.553   2.962  12.878
46182W        W14545  34.940   2.254  13.033
46183W        W14546  21.633  20.682   3.320
46184W        W14547  42.355   3.226  10.941
46185W        W14548  31.035  18.766  14.951
46186W        W14549  34.110  40.020  13.321
46187W        W14550   9.199  28.568   4.180
46188W        W14551  40.354  28.982   2.197
46189W        W14552   9.716  35.037   4.198
46190W        W14553  40.016  11.730  13.984
46191W        W14554  25.081  13.641  11.380
46192W        W14555  38.044  35.932   3.647
46193W        W14556  35.888  40.817   3.664
46194W        W14557   5.714  36.926  12.954
46195W        W14558  14.642   0.976  14.834
46196W        W14559  21.046  15.256   3.634
46197W        W14560  44.328   8.899   1.442
46198W        W14561  12.793  13.806  13.543
46199W        W14562   2.414   3.839   0.820
46200W        W14563  18.057  20.267  11.106
46201W        W14564  18.270  35.109  12.054
46202W        W14565  33.466  23.006  10.943
46203W        W14566  38.548  20.743   1.335
46204W        W14567  38.963  25.505   1.250
46205W        W14568  39.830  17.666   3.834
46206W        W14569  22.195  40.525   2.871
46207W        W14570  11.757   2.917  12.032
46208W        W14571   6.363  35.867   1.337
46209W        W14572  43.913  19.261   0.347
46210W        W14573   8.741  26.987   3.813
46211W        W14574  31.525  24.979   2.342
46212W        W14575  10.183  31.554   4.657
46213W        W14576  14.106  22.044   0.896
46214W        W14577  17.300   0.937  13.319
46215W        W14578  34.443   0.922  12.927
46216W        W14579   4.868  17.296  10.631
46217W        W14580  32.043   8.271   2.214
46218W        W14581  16.703  32.504  14.919
46219W        W14582   8.669   8.715   2.215
46220W        W14583  12.633  30.571   0.953
46221W        W14584  13.800  31.447  14.375
46222W        W14585  36.353  25.082  10.007
46223W        W14586  29.625   7.679  12.503
46224W        W14587  13.127  27.566  14.508
46225W        W14588   8.306  44.847   4.822
46226W        W14589  20.729  13.755  12.861
46227W        W14590  12.136  38.842   2.682
46228W        W14591  41.832   6.338  13.037
46229W        W14592   8.201  20.678   2.304
46230W        W14593  10.375  21.132   2.685
46231W        W14594  40.541  41.315   0.968
46232W        W14595  22.747  10.189  14.822
46233W        W14596   7.672  34.377   3.674
46234W        W14597  22.165  41.945  10.503
46235W        W14598  15.772  40.436   4.774
46236W        W14599   3.405   7.877  11.129
46237W        W14600  38.903   9.794  10.499
46238W        W14601  39.444  16.703  11.969
46239W        W14602  13.738   8.721   2.260
46240W        W14603   8.870  35.589   4.300
46241W        W14604  31.963   6.682   2.900
46242W        W14605  22.192  30.070  12.356
46243W        W14606  10.802  18.116   1.754
46244W        W14607   9.164  28.490   1.756
46245W        W14608  19.744   5.751   1.900
46246W        W14609   7.186  36.397   4.775
46247W        W14610  33.026  26.488   4.301
46248W        W14611  29.988   3.216  11.866
46249W        W14612   5.754  15.648   4.752
46250W        W14613  33.917  25.131   0.758
46251W        W14614  32.465  10.770   1.917
46252W        W14615   2.266  22.134   3.272
46253W        W14616  21.123  28.037  12.917
46254W        W14617  19.621  11.339  12.474
46255W        W14618  41.479  13.279  10.414
46256W        W14619  43.944   7.858  12.522
46257W        W14620  41.391  11.362   3.288
46258W        W14621  21.712   2.416  10.454
46259W        W14622  18.726  36.060  14.281
46260W        W14623  31.982  44.756   2.762
46261W        W14624  16.778  21.672  13.318
46262W        W14625   7.804   4.774   5.176
46263W        W14626  14.614  22.182  11.921
46264W        W14627   0.855  15.661  13.497
46265W        W14628   1.867  43.431   4.710
46266W        W14629   3.788  23.095   2.841
46267W        W14630  28.110  15.801  10.570
46268W        W14631  17.763  39.519  10.567
46269W        W14632  22.568  25.132  10.549
46270W        W14633  40.343  36.576  12.515
46271W        W14634  40.050  15.204   4.682
46272W        W14635   1.963  11.695  11.988
46273W        W14636  41.948  30.419  12.087
46274W        W14637   8.346  28.160   0.849
46275W        W14638  32.532  28.672   2.223
46276W        W14639  13.124   6.241  12.455
46277W        W14640  44.846  39.483  13.877
46278W        W14641  42.016  24.194   5.244
46279W        W14642  30.421  18.252   1.740
46280W        W14643  44.368  26.660  11.572
46281W        W14644  41.396  36.857  12.924
46282W        W14645  25.117  44.882  11.373
46283W        W14646   2.910   3.874   0.398
46284W        W14647  41.524  22.218   1.926
46285W        W14648  37.357   4.396   0.784
46286W        W14649  36.069  37.069  13.433
46287W        W14650  18.070  34.898  14.514
46288W        W14651  26.194  19.593  13.493
46289W        W14652   3.322  20.523   3.728
46290W        W14653  23.081  35.002   3.740
46291W        W14654   4.364  22.166   0.387
46292W        W14655  12.655  25.543   3.634
46293W        W14656  25.977  44.996   4.260
46294W        W14657  15.282  20.065   0.431
46295W        W14658  21.660  17.607  12.924
46296W        W14659  15.179  24.504  13.444
46297W        W14660  27.124  30.453   2.314
46298W        W14661  24.178  18.581   1.404
46299W        W14662  31.118  29.113  13.022
46300W        W14663  38.553  35.409  11.877
46301W        W14664  18.747  28.527  10.973
46302W        W14665  34.974  18.716   2.667
46303W        W14666  17.246  16.265  11.553
46304W        W14667  31.457  22.632   2.847
46305W        W14668   1.895  27.004  14.983
46306W        W14669  39.549  16.730   1.371
46307W        W14670  18.130  24.659   4.796
46308W        W14671   8.217  38.545   1.233
46309W        W14672  20.709  41.360   3.368
46310W        W14673  13.179  19.055   3.683
46311W        W14674  17.593  17.801  11.475
46312W        W14675  42.882  16.638  14.981
46313W        W14676  11.304  23.654   3.276
46314W        W14677  26.566  13.696   2.400
46315W        W14678  25.084  40.036  14.309
46316W        W14679  32.565  18.663  11.454
46317W        W14680  29.091  40.304  13.884
46318W        W14681  39.925  13.617  10.483
46319W        W14682  21.674  29.425   3.654
46320W        W14683   4.242  25.497   2.833
46321W        W14684  25.695  22.505  10.110
46322W        W14685  40.910  25.552  13.396
46323W        W14686   0.324  41.449   0.369
46324W        W14687  27.054   0.879   0.416
46325W        W14688   6.411  22.702   5.110
46326W        W14689  25.700  12.334  14.502
46327W        W14690  24.624  39.500  14.285
46328W        W14691  24.141  23.537   2.258
46329W        W14692   7.898  39.386   2.692
46330W        W14693  10.381  23.184   1.358
46331W        W14694  28.136  18.567   0.966
46332W        W14695  26.652  29.942   0.907
46333W        W14696  34.925  26.120   2.871
46334W        W14697  31.096   0.462   1.236
46335W        W14698  41.842  44.394  11.881
46336W        W14699  22.154  13.182   4.797
46337W        W14700  18.201  44.435   5.208
46338W        W14701  32.981   5.349   1.396
46339W        W14702  26.689   3.326  10.010
46340W        W14703   6.299  39.537   1.886
46341W        W14704  29.053  10.743  10.641
46342W        W14705  35.011   8.380  11.875
46343W        W14706  42.863  39.338   0.247
46344W        W14707  44.311   1.877   0.391
46345W        W14708  18.253  21.598  10.897
46346W        W14709  20.147  16.158   2.871
46347W        W14710  37.956   1.843  11.988
46348W        W14711  22.146  40.304   1.745
46349W        W14712  27.600  18.260   0.315
46350W        W14713   7.893  44.918   1.830
46351W        W14714  31.574  44.317  13.446
46352W        W14715  14.201  25.682   3.663
46353W        W14716  38.069  32.577   1.843
46354W        W14717  31.913   0.791  10.572
46355W        W14718  37.918  16.197  13.063
46356W        W14719  27.176  22.234  13.969
46357W        W14720  21.079   4.799   2.366
46358W        W14721  28.137   1.430   0.271
46359W        W14722  36.964   5.888   4.116
46360W        W14723  12.821  38.466  10.630
46361W        W14724  32.045   1.768   0.381
46362W        W14725  42.967  32.888  11.065
46363W        W14726  27.993  13.349   4.118
46364W        W14727  38.952  44.883   4.178
46365W        W14728  27.006  29.093   4.353
46366W        W14729   4.937  13.181   0.845
46367W        W14730   2.965  31.050   1.748
46368W        W14731  18.288  41.405  11.122
46369W        W14732   5.925  35.432  13.893
46370W        W14733  40.957  18.124   3.344
46371W        W14734  22.723  30.132  11.975
46372W        W14735  18.640  25.629   4.630
46373W        W14736  34.902  31.044  10.409
46374W        W14737  36.929  41.817  14.030
46375W        W14738  37.913  35.481  13.010
46376W        W14739  29.444  41.460   5.191
46377W        W14740  35.091  43.492   2.690
46378W        W14741  27.512  25.137   1.814
46379W        W14742   8.218   3.945  12.019
46380W        W14743  15.780   5.844   3.653
46381W        W14744  25.656  42.359   3.263
46382W        W14745   5.851  23.053   3.709
46383W        W14746  21.248   4.357   4.185
46384W        W14747  27.969  12.842  12.840
46385W        W14748   5.868  35.593   2.312
46386W        W14749  39.368  31.476   0.884
46387W        W14750   5.800  32.900   2.810
46388W        W14751  15.201  21.071  10.493
46389W        W14752  10.743  26.070   3.242
46390W        W14753   7.369  35.991   4.213
46391W        W14754  12.338   8.874  11.009
46392W        W14755  17.301  27.615   3.658
46393W        W14756  42.811  42.961   2.733
46394W        W14757  13.117  41.489   1.340
46395W        W14758  39.542  21.687   1.847
46396W        W14759  16.582  23.493   2.188
46397W        W14760  19.710   0.810   1.819
46398W        W14761  33.894  13.825  13.963
46399W        W14762  10.789  33.616  10.426
46400W        W14763  15.189  42.355   1.411
46401W        W14764   8.301  34.522   1.431
46402W        W14765  41.423  39.462   1.870
46403W        W14766  37.380   8.770  12.528
46404W        W14767  42.322  13.147   0.831
46405W        W14768  42.334   3.866   1.382
46406W        W14769   4.236  29.109  13.470
46407W        W14770   5.927  43.431  10.558
46408W        W14771  36.919   5.788  10.491
46409W        W14772  14.714  21.134   1.815
46410W        W14773  22.222  42.961  12.884
46411W        W14774  41.401  21.175   3.633
46412W        W14775   2.257  29.457  12.946
46413W        W14776  36.534  24.042  12.059
46414W        W14777   1.784  29.547   1.760
46415W        W14778   3.762  11.133  12.978
46416W        W14779  42.387  41.399   0.275
46417W        W14780  16.161   3.742   4.836
46418W        W14781  13.185  19.735   9.932
46419W        W14782  30.653  26.978  13.414
46420W        W14783   0.951  38.517   3.637
46421W        W14784  42.478  21.755  11.386
46422W        W14785  24.078   0.803   3.342
46423W        W14786   7.895  37.444   3.661
46424W        W14787   6.702  19.761  13.344
46425W        W14788  29.445  41.412   0.269
46426W        W14789  12.245  20.553  14.866
46427W        W14790  42.474  16.223   1.898
46428W        W14791  27.472  13.760   2.259
46429W        W14792  35.479  14.670  12.571
46430W        W14793  23.624  40.434   4.747
46431W        W14794  25.525  17.741   0.450
46432W        W14795  12.329   3.731   3.842
46433W        W14796  34.078  31.581   3.641
46434W        W14797  42.857  27.543  10.575
46435W        W14798   9.820  43.009   4.145
46436W        W14799   0.829  26.554   1.337
46437W        W14800  14.769  40.479  10.035
46438W        W14801  37.537   2.438   2.838
46439W        W14802   2.853  32.944  12.877
46440W        W14803  11.305  34.369  10.572
46441W        W14804   6.424  11.791  12.340
46442W        W14805  10.801  39.333  11.529
46443W        W14806  40.820  11.706   2.899
46444W        W14807  18.754  10.751   2.271
46445W        W14808  23.042   0.376   3.301
46446W        W14809  37.877  41.017   2.799
46447W        W14810   4.251  28.564   0.828
46448W        W14811  29.041  34.988   0.750
46449W        W14812  35.443  17.559  13.447
46450W        W14813   5.922   6.830   0.911
46451W        W14814  24.707  11.319   4.668
46452W        W14815   1.825  16.790   4.323
46453W        W14816  16.726   1.760  11.090
46454W        W14817  41.474  16.589   2.843
46455W        W14818  38.042   5.774  13.475
46456W        W14819  13.757  18.189   1.810
46457W        W14820  19.563   3.382   5.294
46458W        W14821  31.455  40.962   1.914
46459W        W14822   0.877   4.895  10.109
46460W        W14823  19.042  25.542   1.873
46461W        W14824  28.677   1.317  13.325
46462W        W14825  27.563  44.501  14.383
46463W        W14826   8.340   6.208   4.711
46464W        W14827   3.439  11.707  14.764
46465W        W14828  23.638  32.143  10.132
46466W        W14829   4.821  36.415   0.726
46467W        W14830  33.433  14.274  14.977
46468W        W14831   0.986  29.139   3.815
46469W        W14832  14.140  10.376  14.821
46470W        W14833  17.159  22.244   3.870
46471W        W14834  10.673  22.574  13.320
46472W        W14835  29.427  17.570  12.412
46473W        W14836  43.451  16.703  11.373
46474W        W14837   5.249  25.195  11.018
46475W        W14838  28.545  27.669  11.909
46476W        W14839   6.344  10.308  11.949
46477W        W14840   0.374  32.436   2.885
46478W        W14841  31.999  43.427   0.797
46479W        W14842  25.028  37.962  14.949
46480W        W14843   2.316   5.890  13.885
46481W        W14844  22.207  39.384  10.639
46482W        W14845  38.053  32.423  13.317
46483W        W14846  44.459  34.533   0.929
46484W        W14847  19.635  16.079   1.932
46485W        W14848  15.614  44.367  11.070
46486W        W14849  43.304  12.328   3.250
46487W        W14850  21.169  16.113  14.475
46488W        W14851  38.460  12.612  13.545
46489W        W14852   3.408   5.326   2.369
46490W        W14853  21.091  20.638   3.632
46491W        W14854   3.800   6.762   1.394
46492W        W14855  27.979   4.310   3.663
46493W        W14856  12.793  43.772   2.816
46494W        W14857  13.785  27.034   2.368
46495W        W14858  28.072   6.820  14.351
46496W        W14859  16.296  11.759   2.768
46497W        W14860   8.367  44.001  11.007
46498W        W14861  42.018  14.168   4.754
46499W        W14862   5.759  37.043   0.911
46500W        W14863  22.047  43.329  12.047
46501W        W14864  27.463  32.475  10.575
46502W        W14865  16.115  30.430  11.886
46503W        W14866  20.613   7.188   0.936
46504W        W14867  21.659  44.967   0.818
46505W        W14868  33.563   0.805  13.982
46506W        W14869   6.799  42.894  14.415
46507W        W14870  25.698  21.103  14.768
46508W        W14871   2.832  29.616  12.562
46509W        W14872   7.666  27.952   0.903
46510W        W14873   4.300  20.061   0.892
46511W        W14874  32.957  25.506  11.107
46512W        W14875  11.221  33.106  12.475
46513W        W14876  29.601  33.096   3.792
46514W        W14877   8.794  30.651   2.802
46515W        W14878  26.097  15.693  13.335
46516W        W14879  13.316  34.016  10.530
46517W        W14880   6.923  11.656  14.399
46518W        W14881   5.918  29.958   1.373
46519W        W14882  19.643  29.572   1.724
46520W        W14883  22.081  25.100  14.021
46521W        W14884   4.343  28.468   4.333
46522W        W14885  13.723  34.475   0.759
46523W        W14886  40.513  42.907  10.956
46524W        W14887  19.211  34.609  13.933
46525W        W14888  20.598   5.906  11.464
46526W        W14889   2.783  24.996  13.925
46527W        W14890  11.165  30.576   1.798
46528W        W14891  11.148   6.346  11.498
46529W        W14892   0.746  19.078  11.567
46530W        W14893  43.296  21.056   2.839
46531W        W14894  22.226  24.017   0.316
46532W        W14895  18.097  13.152  12.857
46533W        W14896  20.232   5.912  10.409
46534W        W14897  25.014  25.148  11.540
46535W        W14898  39.861  12.136   4.681
46536W        W14899  27.560  35.473  13.874
46537W        W14900  17.257  14.315   9.979
46538W        W14901  19.755  33.440   1.803
46539W        W14902   8.277  17.291   4.339
46540W        W14903  26.978  38.343   3.751
46541W        W14904   6.384  39.043   0.354
46542W        W14905  40.871   5.322   1.442
46543W        W14906  33.506  17.073  10.422
46544W        W14907  21.198   9.331  13.050
46545W        W14908  29.918  34.547  12.345
46546W        W14909  17.074  39.867   1.800
46547W        W14910   7.723  30.127   1.308
46548W        W14911  31.617   9.866  11.510
46549W        W14912  11.734  35.458  14.402
46550W        W14913  26.560  10.303   0.788
46551W        W14914  14.769  29.604  12.580
46552W        W14915  15.284  14.308   4.230
46553W        W14916  21.635   9.337  13.514
46554W        W14917  15.725  17.163  13.466
46555W        W14918   5.846  11.719   2.279
46556W        W14919   9.797  11.772  12.433
46557W        W14920  31.571  35.387   3.280
46558W        W14921   4.710  25.501  10.986
46559W        W14922   7.669  36.547   1.236
46560W        W14923  21.226  34.376  14.975
46561W        W14924  12.736  34.933  13.412
46562W        W14925  31.492  34.559   4.335
46563W        W14926  28.184  11.623  11.482
46564W        W14927   1.242  23.681  14.765
46565W        W14928  41.027  32.523   1.742
46566W        W14929  40.836   4.802  13.314
46567W        W14930  40.528  28.985  11.971
46568W        W14931  18.235  22.182  11.470
46569W        W14932  28.565  30.597   2.325
46570W        W14933  29.557   6.404  14.016
46571W        W14934  21.662  14.332  14.351
46572W        W14935  23.230  29.657   1.264
46573W        W14936  43.823   2.780   3.379
46574W        W14937  32.971  28.442  12.523
46575W        W14938   9.195  19.682   4.151
46576W        W14939  12.195   7.907   0.732
46577W        W14940  40.036  21.049  13.049
46578W        W14941  28.502  30.044  12.026
46579W        W14942  33.071  23.591  13.921
46580W        W14943  44.393  29.662  14.031
46581W        W14944  34.980  17.156   3.861
46582W        W14945   6.799   9.781   3.171
46583W        W14946  26.079  30.106   1.869
46584W        W14947  30.638  38.876  13.464
46585W        W14948  32.105   2.427   3.810
46586W        W14949   1.868   0.958  13.529
46587W        W14950   2.761  25.182   2.902
46588W        W14951  38.007   4.348   3.746
46589W        W14952   6.329   7.290  14.891
46590W        W14953  30.083  10.376   3.169
46591W        W14954  32.972  25.529  12.351
46592W        W14955   8.719  14.823  13.906
46593W        W14956  35.859  15.598  12.088
46594W        W14957  10.148  23.730   3.309
46595W        W14958  12.192   7.350   2.818
46596W        W14959   1.377  25.015   0.359
46597W        W14960  38.512  24.540  13.828
46598W        W14961  22.999   6.364  14.507
46599W        W14962  30.163  10.686   4.691
46600W        W14963   6.740  16.631  12.887
46601W        W14964  42.970   7.328   2.264
46602W        W14965   4.304  39.814  11.414
46603W        W14966  32.123  39.024  13.855
46604W        W14967  23.159  42.347  12.410
46605W        W14968  25.571  34.566  13.014
46606W        W14969   7.818  44.839  10.453
46607W        W14970   4.382   8.161  12.887
46608W        W14971  21.676   9.844   4.326
46609W        W14972   6.338   2.382  11.865
46610W        W14973   6.851  23.155  13.479
46611W        W14974  11.711  44.339   5.157
46612W        W14975  23.151  13.113   4.692
46613W        W14976   5.200  27.070   3.686
46614W        W14977  37.855  41.987  10.638
46615W        W14978  21.549  27.146   3.763
46616W        W14979  11.840  26.964   0.291
46617W        W14980   3.738  15.273   0.378
46618W        W14981  31.484  23.662   3.260
46619W        W14982  31.018  31.055  12.086
46620W        W14983  15.149  39.506   1.384
46621W        W14984  34.552  33.597  14.346
46622W        W14985   6.350  36.871  12.084
46623W        W14986   9.784  25.477   2.222
46624W        W14987  24.144  31.570  11.986
46625W        W14988  42.002  19.282   3.323
46626W        W14989  10.232  31.989   3.173
46627W        W14990  40.008  23.610   0.443
46628W        W14991  25.523  12.362  14.986
46629W        W14992  13.716  31.500   0.889
46630W        W14993  10.153  10.717  14.466
46631W        W14994  40.834  13.133  11.966
46632W        W14995  38.487  33.931   4.209
46633W        W14996   7.347   5.409  10.440
46634W        W14997   5.924  24.064   4.276
46635W        W14998  13.337  10.846  10.942
46636W        W14999  23.129  12.346   1.758
46637W        W15000  31.113  22.593   2.818
46638W        W15001  29.476  44.833   4.807
46639W        W15002  21.127  21.572   3.159
46640W        W15003  27.182  30.590  13.869
46641W        W15004  17.218   3.869  12.496
46642W        W15005  10.643  25.963   3.659
46643W        W15006  21.061  36.886  14.404
46644W        W15007  43.992  16.126  10.615
46645W        W15008  36.445  18.634   1.266
46646W        W15009   5.221  12.720   2.860
46647W        W15010  31.116  16.793  14.012
46648W        W15011  30.522  25.103   3.662
46649W        W15012   8.282   9.679  12.382
46650W        W15013  19.256   1.337  10.599
46651W        W15014  42.997  21.568  11.006
46652W        W15015   1.367  16.256  10.457
46653W        W15016  12.679   1.841   3.209
46654W        W15017  41.848  35.079  11.971
46655W        W15018   2.919  11.192  11.540
46656W        W15019  43.339  20.538   2.831
46657W        W15020   6.313  13.794  11.927
46658W        W15021  16.664  16.746   4.240
46659W        W15022  42.945  29.145   0.350
46660W        W15023  28.658   0.789   2.349
46661W        W15024  34.403   6.227   0.350
46662W        W15025  10.226  40.410  11.420
46663W        W15026   2.941  33.960  14.027
46664W        W15027  21.650  28.093   0.313
46665W        W15028   2.900  11.759   0.254
46666W        W15029  16.186  35.437  10.494
46667W        W15030  33.506  30.612  11.548
46668W        W15031  30.499  38.070  13.511
46669W        W15032   7.395  25.577   1.733
46670W        W15033  20.566  44.266   4.694
46671W        W15034  41.937  21.570   2.347
46672W        W15035  41.839  41.368  11.024
46673W        W15036  21.239   5.340  10.563
46674W        W15037  16.265  23.209   0.740
46675W        W15038  22.086  31.151  11.103
46676W        W15039  29.478   6.884   4.733
46677W        W15040  34.531   3.304  11.572
46678W        W15041   3.737   8.737   0.309
46679W        W15042  20.637   9.745  12.926
46680W        W15043  32.008  36.506   5.258
46681W        W15044  14.785  11.284   4.144
46682W        W15045  36.028  10.773   0.947
46683W        W15046  12.622   4.260   1.698
46684W        W15047  29.061   1.810   0.854
46685W        W15048  30.659   0.766   1.210
46686W        W15049  17.124   7.321  13.946
46687W        W15050  14.612   1.976   2.261
46688W        W15051  24.644   2.328  13.491
46689W        W15052  18.571  12.176  10.573
46690W        W15053  21.614  15.753  10.565
46691W        W15054  30.439  27.619  14.956
46692W        W15055  27.600   7.202   3.764
46693W        W15056  13.263  34.580   1.419
46694W        W15057  12.662  23.081   3.639
46695W        W15058   9.863  15.293   4.172
46696W        W15059  43.335   3.427  14.334
46697W        W15060   3.843  42.449  13.346
46698W        W15061  36.936  25.154   1.861
46699W        W15062  35.969  34.374  12.975
46700W        W15063  24.678  24.559  10.603
46701W        W15064   0.319  31.899   1.931
46702W        W15065  31.153  40.398  13.371
46703W        W15066  34.091  35.395  11.976
46704W        W15067  33.932  14.165  11.977
46705W        W15068  21.596  22.120   2.411
46706W        W15069  23.647  32.515   4.332
46707W        W15070  41.883  32.131  11.434
46708W        W15071  30.940  37.082   4.742
46709W        W15072  24.651  24.134   1.385
46710W        W15073  31.494  20.716   2.843
46711W        W15074  24.008  32.546   2.408
46712W        W15075  26.054  10.698  11.008
46713W        W15076  42.014  38.423  14.789
46714W        W15077  19.140  40.433  14.785
46715W        W15078  16.758  43.797   9.441
46716W        W15079   8.862  40.832   1.268
46717W        W15080   0.988  10.229  14.309
46718W        W15081  24.181  25.623  13.395
46719W        W15082   7.805   9.670   4.757
46720W        W15083  16.589  34.577   4.238
46721W        W15084  11.249  36.407  13.507
46722W        W15085  37.893  27.638  13.959
46723W        W15086  21.215  31.947   5.267
46724W        W15087  21.543  22.570   4.726
46725W        W15088  17.758  12.317   1.285
46726W        W15089  44.274  44.483   2.350
46727W        W15090  10.868  28.070  13.480
46728W        W15091  34.114   7.909  14.435
46729W        W15092  43.787  23.719   1.431
46730W        W15093   4.709  34.972   0.879
46731W        W15094  41.814   8.874   2.800
46732W        W15095  30.098  15.743  11.439
46733W        W15096  12.191   5.786   0.431
46734W        W15097  14.675  34.591   4.832
46735W        W15098  20.620  25.039  12.360
46736W        W15099  30.423  10.663   2.874
46737W        W15100  20.559   2.748  12.989
46738W        W15101  24.579   0.384   4.296
46739W        W15102   0.385  20.045   1.313
46740W        W15103  29.036   0.428   4.195
46741W        W15104  39.398  10.874   5.141
46742W        W15105  32.601  28.456   3.639
46743W        W15106  11.215  31.583  11.097
46744W        W15107  26.955  11.742   0.427
46745W        W15108  39.469   6.765  10.433
46746W        W15109  14.330  25.128   0.768
46747W        W15110  27.561  21.721   2.750
46748W        W15111   0.944  36.589  10.047
46749W        W15112  26.578  42.865   5.245
46750W        W15113  23.610  38.937  13.818
46751W        W15114  14.697  10.268  14.917
46752W        W15115   2.340   1.473   0.786
46753W        W15116  35.442  34.502  14.481
46754W        W15117   4.249  21.562  13.832
46755W        W15118  42.320  36.558  11.545
46756W        W15119  23.054  34.397   0.332
46757W        W15120   0.875  21.207  12.060
46758W        W15121  15.767  11.156   0.332
46759W        W15122  14.818  30.493   4.633
46760W        W15123  39.831  26.095   4.262
46761W        W15124  15.614  32.102   2.820
46762W        W15125  13.799  31.574  13.987
46763W        W15126  16.302  29.579   1.749
46764W        W15127  40.955  19.271   4.163
46765W        W15128  12.825   2.384   3.217
46766W        W15129  17.149  31.081   4.681
46767W        W15130  41.418  14.229  10.900
46768W        W15131   5.424  14.280   0.964
46769W        W15132  28.135  17.630   2.407
46770W        W15133   0.888  27.955  10.612
46771W        W15134  33.619  23.152  13.385
46772W        W15135  40.400  27.160  10.979
46773W        W15136   7.222  38.824  14.318
46774W        W15137  43.803   8.352   3.776
46775W        W15138  10.322  13.284   1.444
46776W        W15139   1.265   2.426   3.348
46777W        W15140  25.082  37.942   0.373
46778W        W15141  43.980   7.204   3.800
46779W        W15142  16.318   2.864  12.358
46780W        W15143  36.034   9.868  11.547
46781W        W15144  23.033  30.008  14.497
46782W        W15145  42.329  20.232  10.431
46783W        W15146  40.468  39.413  10.491
46784W        W15147  30.443  29.470   1.843
46785W        W15148  12.131  34.403  13.877
46786W        W15149  17.572  42.365  10.584
46787W        W15150  41.379   2.803  14.953
46788W        W15151  16.782  41.873   3.279
46789W        W15152  21.171  13.154   5.169
46790W        W15153  37.436   0.470  11.544
46791W        W15154  26.083  23.685  13.042
46792W        W15155  23.639  32.570  12.918
46793W        W15156   1.963  21.049  10.580
46794W        W15157  20.091   9.753   1.775
46795W        W15158  28.597  27.491   2.790
46796W        W15159  13.659  37.524   0.286
46797W        W15160  42.817  22.728  13.793
46798W        W15161   1.757  30.489   4.707
46799W        W15162   8.171   7.222   2.201
46800W        W15163  28.499  20.604   1.329
46801W        W15164  18.191   5.753  13.930
46802W        W15165   8.860  17.285  13.827
46803W        W15166  38.387  30.445  12.880
46804W        W15167  12.262   0.827   1.410
46805W        W15168  31.918  21.599  13.964
46806W        W15169  40.442   2.915  13.461
46807W        W15170  37.984   4.223   4.330
46808W        W15171  29.101  28.988   4.217
46809W        W15172   6.351  12.249   4.753
46810W        W15173  12.644   3.725  12.875
46811W        W15174  25.632  30.413   2.798
46812W        W15175  38.357  27.085  11.397
46813W        W15176  24.614  23.565  10.547
46814W        W15177  11.752  21.692   4.640
46815W        W15178  33.050  26.027   3.177
46816W        W15179   3.822  31.010   1.818
46817W        W15180   8.252   6.786   2.385
46818W        W15181  21.092  44.779   1.253
46819W        W15182   8.757  35.469  11.535
46820W        W15183  21.646  38.867  11.939
46821W        W15184   2.778  28.112   2.729
46822W        W15185  43.288  11.753  12.413
46823W        W15186  24.148  28.179  11.078
46824W        W15187  16.164  38.836   4.288
46825W        W15188  17.570  11.187   1.756
46826W        W15189  10.829  22.731   3.828
46827W        W15190  28.144  35.576  12.873
46828W        W15191  42.335  10.347   2.901
46829W        W15192  33.967  44.417  14.792
46830W        W15193  13.160  18.708   2.850
46831W        W15194  27.150  36.519   1.429
46832W        W15195   6.819  36.956  12.853
46833W        W15196   5.721  42.854   3.814
46834W        W15197  40.364  21.531  11.546
46835W        W15198  26.469  43.913   0.784
46836W        W15199   1.770  44.807   0.266
46837W        W15200  16.195   6.297  12.900
46838W        W15201   5.373  41.895   3.237
46839W        W15202  26.085   5.241  12.000
46840W        W15203  17.204  10.352  12.383
46841W        W15204  22.693  30.929  11.019
46842W        W15205  26.625  34.574  11.075
46843W        W15206  36.903  31.068   1.219
46844W        W15207  43.828  37.834   5.116
46845W        W15208  12.147  13.802   4.349
46846W        W15209   4.937   0.395  11.875
46847W        W15210  21.712   7.186   3.336
46848W        W15211  39.476   0.832   4.280
46849W        W15212  30.503   1.739   4.652
46850W        W15213  42.019  32.924  11.377
46851W        W15214  41.473  19.121   1.413
46852W        W15215  28.999  15.323   5.244
46853W        W15216  21.220  18.691  13.492
46854W        W15217  16.714  22.111  10.411
46855W        W15218   4.367  15.697   1.879
46856W        W15219  41.019  12.790   2.303
46857W        W15220  40.448  16.726   1.724
46858W        W15221  44.349  28.665  11.881
46859W        W15222   2.420  36.055  14.352
46860W        W15223  11.274  20.253   3.632
46861W        W15224  23.703  11.322   4.127
46862W        W15225  33.925  16.770  14.308
46863W        W15226   0.918  33.055  11.015
46864W        W15227  40.806  23.145  13.992
46865W        W15228  41.444   9.861  11.559
46866W        W15229  44.888  35.935   3.237
46867W        W15230  30.966  39.007   0.843
46868W        W15231  14.102  12.343   1.709
46869W        W15232  26.483  19.187  13.923
46870W        W15233   8.734  24.561   0.732
46871W        W15234   9.309  25.204   5.250
46872W        W15235  17.736  22.996   4.278
46873W        W15236  33.569  31.431   2.706
46874W        W15237  31.402  39.959   3.673
46875W        W15238  23.081  37.341   0.327
46876W        W15239  13.651  39.504  11.947
46877W        W15240  33.066  22.243   2.897
46878W        W15241   3.782   4.784   2.777
46879W        W15242  34.447  37.895   4.678
46880W        W15243  15.192  16.277   1.929
46881W        W15244  12.296  41.409   1.339
46882W        W15245  19.571  16.751  14.849
46883W        W15246  15.652  24.546   4.690
46884W        W15247  34.070  13.189   4.640
46885W        W15248  26.627  19.215   0.366
46886W        W15249  17.617  29.043  14.928
46887W        W15250  39.924  36.892   4.270
46888W        W15251  30.482   1.799  12.446
46889W        W15252  22.702  25.063   0.756
46890W        W15253   5.892   0.366   3.238
46891W        W15254  11.843  38.963  13.367
46892W        W15255   9.885  31.101  10.513
46893W        W15256  28.606  33.569   1.769
46894W        W15257  15.102   0.379   0.474
46895W        W15258  33.492  44.833   0.902
46896W        W15259  34.580  34.552  11.966
46897W        W15260  13.265  41.791   3.666
46898W        W15261   4.411   5.858  13.468
46899W        W15262  15.281  38.497  11.587
46900W        W15263   0.400   3.740   1.927
46901W        W15264  22.530  31.934  11.520
46902W        W15265  38.374  18.639   4.249
46903W        W15266  29.001  28.184  14.012
46904W        W15267  42.923   7.312  13.853
46905W        W15268  26.620  42.317  14.466
46906W        W15269  21.544   8.862   0.356
46907W        W15270   0.775  27.580   2.804
46908W        W15271   8.766  17.603   4.709
46909W        W15272  21.732  16.760  13.958
46910W        W15273   3.818  29.939   1.745
46911W        W15274  39.848  17.264   4.250
46912W        W15275   8.260   9.336  11.031
46913W        W15276  40.918  20.044   2.746
46914W        W15277  15.312  41.304  12.048
46915W        W15278  32.944  18.550  12.979
46916W        W15279  13.798  42.940   2.796
46917W        W15280  39.466  24.042  13.441
46918W        W15281   9.754  15.681   0.901
46919W        W15282  22.517  29.542  12.048
46920W        W15283  25.499  21.139   0.418
46921W        W15284  17.265   4.833   2.722
46922W        W15285  32.446  36.353  11.570
46923W        W15286  16.808  11.643  12.432
46924W        W15287  28.612  16.798   5.676
46925W        W15288  36.999  24.605  14.889
46926W        W15289  14.171  28.117  10.413
46927W        W15290  36.387  28.515   1.810
46928W        W15291  35.908  10.869  10.559
46929W        W15292  34.523  33.441  12.057
46930W        W15293   6.681  30.914  10.450
46931W        W15294  13.220  15.744   1.794
46932W        W15295  36.578   9.737  13.927
46933W        W15296  20.553  35.084  13.961
46934W        W15297  23.606   6.703  13.913
46935W        W15298  36.554   0.749   3.244
46936W        W15299  29.436  42.999  12.919
46937W        W15300   0.887  26.184  10.969
46938W        W15301  29.071   3.362  14.987
46939W        W15302   1.368  42.953  14.965
46940W        W15303   1.307  10.147   2.185
46941W        W15304  44.431   3.885  10.916
46942W        W15305  30.993  37.985  12.525
46943W        W15306  44.398  33.076  10.902
46944W        W15307  32.605  36.442  11.978
46945W        W15308   3.919  24.513   2.837
46946W        W15309  42.028  17.623  14.807
46947W        W15310  17.288  44.266   1.231
46948W        W15311  14.748  21.053   2.831
46949W        W15312   6.907  25.526   2.896
46950W        W15313  15.819   1.349   1.238
46951W        W15314  42.881  19.133   4.204
46952W        W15315  27.940  41.298   2.358
46953W        W15316  43.337  12.190  12.418
46954W        W15317   6.411  41.807  12.021
46955W        W15318   9.821  40.504  14.946
46956W        W15319  32.973  19.654  13.798
46957W        W15320  24.204  21.599   2.294
46958W        W15321  26.579   7.290  10.641
46959W        W15322  28.616  39.808  11.979
46960W        W15323  18.222  13.740   2.759
46961W        W15324  24.713  22.662   0.853
46962W        W15325  43.764  44.966  13.314
46963W        W15326  15.764  43.838   0.381
46964W        W15327  39.470  38.469   0.801
46965W        W15328  42.401   3.406  12.939
46966W        W15329  43.022  37.429   0.778
46967W        W15330  28.998  24.707  14.370
46968W        W15331  27.096  12.752  11.906
46969W        W15332   4.209   2.961   4.768
46970W        W15333   9.855  33.598   2.249
46971W        W15334   3.218   4.902  10.590
46972W        W15335  13.657  17.285  14.438
46973W        W15336  12.278  28.553   4.665
46974W        W15337  43.387  13.330   4.615
46975W        W15338  29.128  23.516  11.060
46976W        W15339  43.340  40.494  12.981
46977W        W15340  19.048  32.527   1.293
46978W        W15341  28.110  18.153   4.315
46979W        W15342  33.094  25.472   0.401
46980W        W15343  24.627  39.438  11.572
46981W        W15344  14.737   7.254  12.951
46982W        W15345   2.439  29.598  14.355
46983W        W15346  44.959  18.709  14.884
46984W        W15347  22.571  38.488   0.322
46985W        W15348  26.633  41.323  12.835
46986W        W15349  36.530  32.637   3.341
46987W        W15350  41.956   8.370  12.004
46988W        W15351  16.587   0.410  12.872
46989W        W15352  43.298  16.196  12.476
46990W        W15353  13.684  19.255  14.506
46991W        W15354  43.766  12.161   2.338
46992W        W15355  40.868  29.601   0.817
46993W        W15356  23.987  21.231   1.426
46994W        W15357   9.321  18.221  11.405
46995W        W15358  25.589   5.747  10.405
46996W        W15359  22.562  27.159   0.295
46997W        W15360   5.822  30.032   2.280
46998W        W15361   3.719  33.506  14.020
46999W        W15362   6.358  21.218   0.418
47000W        W15363  28.934  38.832   3.239
47001W        W15364  37.907  21.017   2.853
47002W        W15365  25.496  38.472   0.815
47003W        W15366  31.496  21.216  11.993
47004W        W15367   4.434  43.422  14.962
47005W        W15368  42.356   3.751   2.672
47006W        W15369   9.782   8.214   3.311
47007W        W15370   2.867  20.617   4.660
47008W        W15371  27.181  23.733  12.838
47009W        W15372  43.942  41.798  13.500
47010W        W15373  11.690  16.297  14.482
47011W        W15374  11.780  18.093  10.003
47012W        W15375   7.196  18.551   2.736
47013W        W15376  13.289  35.104   0.398
47014W        W15377  18.291   2.898  12.515
47015W        W15378  40.303  19.732   3.311
47016W        W15379   8.264  29.657   2.667
47017W        W15380  14.602  33.562  14.822
47018W        W15381  34.983  19.233   1.334
47019W        W15382  10.183  16.801  13.993
47020W        W15383   8.271  10.223   0.261
47021W        W15384  29.124  19.276   1.334
47022W        W15385  27.491  20.621   2.348
47023W        W15386  34.453  28.176  10.500
47024W        W15387  10.264  38.364  12.892
47025W        W15388  16.647  37.002  13.935
47026W        W15389   0.839   1.283   4.685
47027W        W15390   0.350  36.399  14.316
47028W        W15391  40.335  41.321  10.522
47029W        W15392   5.383  41.036  11.943
47030W        W15393  10.161   7.737  14.309
47031W        W15394   2.935  14.771  12.491
47032W        W15395  11.160  22.618   3.188
47033W        W15396  24.172  35.469   2.806
47034W        W15397  38.027  19.189   1.351
47035W        W15398   2.846  38.968  13.006
47036W        W15399  14.183  24.150  13.057
47037W        W15400  29.507  32.939   2.745
47038W        W15401  31.976  12.325   0.838
47039W        W15402  33.452  14.698  12.087
47040W        W15403  43.826  44.333  10.501
47041W        W15404  13.712  10.202  12.517
47042W        W15405  32.934  12.813  11.413
47043W        W15406   5.335  18.118  12.430
47044W        W15407  16.260  33.995   3.312
47045W        W15408  22.722  26.185  13.860
47046W        W15409  26.539   0.810  10.631
47047W        W15410  13.255  35.968  10.023
47048W        W15411  29.460   2.262   4.642
47049W        W15412  15.130  40.028  14.000
47050W        W15413  23.076  10.304   4.793
47051W        W15414  24.592  19.568   4.792
47052W        W15415  26.179  41.523  14.766
47053W        W15416  19.579   5.240  10.523
47054W        W15417  27.611  34.454   2.763
47055W        W15418  36.449  40.891   2.234
47056W        W15419  18.272   6.408   0.959
47057W        W15420  23.708  28.483   3.267
47058W        W15421  13.214   0.296   2.805
47059W        W15422  11.800   8.366   0.898
47060W        W15423   3.249  23.117   2.253
47061W        W15424  40.352  30.416   4.705
47062W        W15425  26.988   7.785   3.811
47063W        W15426  43.344  17.705   3.833
47064W        W15427  18.234   6.281  10.978
47065W        W15428  27.024  39.909   4.204
47066W        W15429  44.500  15.219  11.897
47067W        W15430  43.827  27.671  14.964
47068W        W15431   8.384  15.700   1.422
47069W        W15432  19.186  43.329  11.978
47070W        W15433  43.488  42.415   2.380
47071W        W15434  10.299  17.570   4.268
47072W        W15435  33.932  23.202   2.729
47073W        W15436  13.265  34.104   2.338
47074W        W15437  18.296  21.137   4.113
47075W        W15438   4.218  16.571  13.515
47076W        W15439  33.584  43.802   4.638
47077W        W15440  21.200   0.389   3.678
47078W        W15441  28.496  31.960   5.205
47079W        W15442   9.251  23.129   1.715
47080W        W15443  30.483  32.058   1.825
47081W        W15444   1.457   6.407   3.733
47082W        W15445  29.502   1.334   1.327
47083W        W15446  21.690   6.685  10.644
47084W        W15447  44.840  25.124   5.096
47085W        W15448   2.891   1.371  12.484
47086W        W15449  42.792  37.008  13.052
47087W        W15450   1.912  39.971   0.859
47088W        W15451  34.572  31.075   4.295
47089W        W15452  34.477  18.153   0.245
47090W        W15453  32.612   2.823   3.204
47091W        W15454  35.460  31.954  11.037
47092W        W15455  15.313  15.237   2.782
47093W        W15456  36.535  13.619  13.822
47094W        W15457  28.487  15.221   0.318
47095W        W15458  12.269  23.208  14.975
47096W        W15459  28.681  42.513  11.902
47097W        W15460  27.639  14.614  13.333
47098W        W15461  24.606  11.713  10.420
47099W        W15462  33.893  23.998  10.482
47100W        W15463  11.736   0.784   2.304
47101W        W15464   6.364   9.788  14.877
47102W        W15465   2.867  22.018  12.383
47103W        W15466  10.211  30.560   2.286
47104W        W15467  27.661  27.446  11.398
47105W        W15468  28.528  15.151  11.475
47106W        W15469  44.831   6.876   4.329
47107W        W15470  33.465  27.517  10.943
47108W        W15471  35.567  26.129   2.334
47109W        W15472  23.632  44.400  12.347
47110W        W15473  13.834  22.586   2.349
47111W        W15474  21.747  10.774  11.531
47112W        W15475  12.728  23.085  12.359
47113W        W15476  27.989  13.187  14.471
47114W        W15477   2.264  23.221  10.478
47115W        W15478  34.420   4.225   2.726
47116W        W15479  38.056  15.290  13.912
47117W        W15480  42.841  41.937  12.863
47118W        W15481   9.874  23.576  13.907
47119W        W15482  26.461  36.478  10.984
47120W        W15483  42.014  18.235   0.444
47121W        W15484  41.041   9.282   2.715
47122W        W15485  26.556   2.437   1.410
47123W        W15486  17.711  29.972  13.806
47124W        W15487   2.411  22.738  12.031
47125W        W15488  44.759   9.185   3.309
47126W        W15489  19.254  17.582   0.397
47127W        W15490  38.432  33.899  13.827
47128W        W15491  39.829   5.436   2.707
47129W        W15492  33.053  36.428   0.783
47130W        W15493  24.978  42.462   3.215
47131W        W15494   7.196  26.674   0.855
47132W        W15495  36.920   5.367  14.349
47133W        W15496  40.433  34.046   1.725
47134W        W15497  11.695  22.592   3.284
47135W        W15498   8.249   2.924   1.883
47136W        W15499  32.577  12.294   1.753
47137W        W15500   4.801  12.790  12.833
47138W        W15501  34.037  19.553   3.162
47139W        W15502  29.528  21.515  14.866
47140W        W15503  26.183  15.157   2.901
47141W        W15504  38.463  29.988   3.146
47142W        W15505  34.908   1.430  12.933
47143W        W15506  31.014  25.055   4.170
47144W        W15507  36.969  18.726   4.621
47145W        W15508  23.045  24.704  13.480
47146W        W15509  40.352  39.908   1.232
47147W        W15510  44.443  32.622   3.237
47148W        W15511  29.146  10.636   1.255
47149W        W15512  38.949  32.933  14.854
47150W        W15513  18.169  37.519   4.691
47151W        W15514  27.138  37.065  13.338
47152W        W15515  20.181  29.121  13.930
47153W        W15516  10.811  36.577  12.453
47154W        W15517  10.157   5.766  14.857
47155W        W15518  25.569  38.505   3.347
47156W        W15519  44.754  22.640  14.281
47157W        W15520  29.044  38.946  13.320
47158W        W15521   6.911  44.497  13.473
47159W        W15522   6.318  32.975   3.856
47160W        W15523  16.649  40.947   2.893
47161W        W15524   4.366  28.044   4.254
47162W        W15525  18.577  16.200  10.437
47163W        W15526  24.088   9.237  10.457
47164W        W15527  11.167  38.981   4.651
47165W        W15528  19.716  28.181   3.863
47166W        W15529  27.180  39.393  14.868
47167W        W15530  12.626  40.360  12.525
47168W        W15531  13.826  30.105   4.747
47169W        W15532   2.834   2.804   1.791
47170W        W15533  42.802  20.141   2.367
47171W        W15534  33.047  34.062   0.460
47172W        W15535  11.318   7.313  10.581
47173W        W15536  11.210  40.818  13.987
47174W        W15537  33.066  31.559  11.076
47175W        W15538  14.145  29.930   4.338
47176W        W15539  43.791   2.320   1.275
47177W        W15540  24.623  44.885  12.034
47178W        W15541   2.957  13.666  13.333
47179W        W15542  29.974  25.491  11.592
47180W        W15543  17.582  11.750  10.599
47181W        W15544  22.247  31.518  12.875
47182W        W15545  31.044   7.855   1.318
47183W        W15546  29.142  13.754   2.178
47184W        W15547  34.011  13.794   0.862
47185W        W15548  34.407  24.230   0.347
47186W        W15549  13.114  28.630  13.528
47187W        W15550  38.375  26.576  10.145
47188W        W15551   3.832   0.490  12.923
47189W        W15552   4.347  14.827   1.285
47190W        W15553  24.655   1.789  10.481
47191W        W15554  10.373   6.769  14.857
47192W        W15555  40.373   8.397   3.351
47193W        W15556  28.100  37.395   4.793
47194W        W15557   0.339  25.538   3.151
47195W        W15558  31.979  21.684   3.359
47196W        W15559  40.505  39.376   4.632
47197W        W15560  23.059  29.445  10.978
47198W        W15561  13.259  43.482   4.183
47199W        W15562  24.086  15.788  13.544
47200W        W15563  38.830   8.807  12.921
47201W        W15564   5.837  44.435  11.454
47202W        W15565  44.909  33.471   1.329
47203W        W15566  40.018  14.719   4.599
47204W        W15567  17.077  26.966  14.017
47205W        W15568  37.467  16.295  11.027
47206W        W15569  42.409  43.410  13.847
47207W        W15570  31.942   6.279  13.395
47208W        W15571   1.474   5.412  10.913
47209W        W15572  18.724  30.092   1.832
47210W        W15573  30.488  12.361  13.438
47211W        W15574  40.547  18.230  11.471
47212W        W15575  10.324  30.643  13.402
47213W        W15576  35.446  34.927  12.442
47214W        W15577  17.272  30.633  12.991
47215W        W15578  30.132  15.181   2.212
47216W        W15579  24.151  12.817   3.848
47217W        W15580  25.577  42.010   2.863
47218W        W15581   2.440  44.866   3.235
47219W        W15582  18.640  13.168   0.259
47220W        W15583  25.643  37.463  10.012
47221W        W15584   0.306  18.079   0.254
47222W        W15585  13.740  42.851  10.970
47223W        W15586   6.204  14.247   4.243
47224W        W15587  32.004  35.585   4.179
47225W        W15588   3.450  24.721   1.254
47226W        W15589  35.941   1.921   0.388
47227W        W15590  22.720  41.811   4.127
47228W        W15591  26.504  29.978  13.429
47229W        W15592  37.020  29.648   0.394
47230W        W15593  31.058  33.071   4.182
47231W        W15594   8.867  28.635  14.409
47232W        W15595  28.955  12.148   0.244
47233W        W15596   4.313  36.909   1.766
47234W        W15597  19.601   7.348   0.843
47235W        W15598  11.269  16.692  12.389
47236W        W15599  37.952  34.072   2.272
47237W        W15600   2.725   3.336  14.829
47238W        W15601   5.415  43.993   2.182
47239W        W15602  35.536  28.677  12.342
47240W        W15603  28.439  13.755   1.917
47241W        W15604  41.920  35.884  13.526
47242W        W15605  21.542  16.754  11.573
47243W        W15606  26.501  12.752  10.592
47244W        W15607  23.673  41.369   2.253
47245W        W15608  18.177   2.334  11.445
47246W        W15609  14.215   4.330   3.638
47247W        W15610  29.640   8.278   3.795
47248W        W15611   9.276  40.974  13.802
47249W        W15612  39.429  27.090   1.849
47250W        W15613  36.542  15.724  10.450
47251W        W15614   6.377  39.978   5.233
47252W        W15615  37.386  17.121   3.842
47253W        W15616  26.604   7.854   2.785
47254W        W15617  34.498  40.003  10.967
47255W        W15618  10.728   6.192  10.946
47256W        W15619  35.011  43.930  13.351
47257W        W15620   6.792  11.325  12.378
47258W        W15621  18.712   5.301  13.444
47259W        W15622  44.953  28.976  13.408
47260W        W15623  29.088  28.591  13.540
47261W        W15624  41.924  14.167  11.938
47262W        W15625  38.054  14.267  12.835
47263W        W15626  15.223  19.550  13.450
47264W        W15627  26.697  35.558   4.256
47265W        W15628  34.087  24.598  10.963
47266W        W15629  37.885  44.915   2.410
47267W        W15630   1.430  29.483   0.331
47268W        W15631   2.429  14.707  10.497
47269W        W15632   1.327   0.986   3.251
47270W        W15633  24.707  26.573  12.521
47271W        W15634  34.422  35.060  12.564
47272W        W15635  11.290   3.407   1.447
47273W        W15636  36.479  23.572  12.018
47274W        W15637  25.514  41.825   3.356
47275W        W15638  38.507  32.919  13.422
47276W        W15639  25.593  27.681   2.228
47277W        W15640  26.648  15.267  11.124
47278W        W15641   3.266  14.329  11.558
47279W        W15642  39.928  25.017   3.857
47280W        W15643   9.877  12.743  11.566
47281W        W15644  40.894  27.645   2.298
47282W        W15645  24.701   9.645   4.838
47283W        W15646  43.298  23.211  11.531
47284W        W15647  44.333   8.885  11.568
47285W        W15648  13.779  33.049  11.525
47286W        W15649  33.418  44.764   4.247
47287W        W15650  38.347   4.404   0.845
47288W        W15651  24.015  41.034  14.290
47289W        W15652  39.988   9.719   4.742
47290W        W15653  31.563  26.506  11.523
47291W        W15654  28.110  21.183   3.725
47292W        W15655   8.286  44.402  12.344
47293W        W15656  27.060   9.257   1.818
47294W        W15657  40.896  38.389   0.339
47295W        W15658   5.829  44.390   0.247
47296W        W15659  11.172  17.199  11.459
47297W        W15660  44.312   2.827  11.983
47298W        W15661  18.270   6.407   2.765
47299W        W15662  22.589  44.756  11.966
47300W        W15663  21.738  34.936   1.319
47301W        W15664  36.564   6.237  14.013
47302W        W15665  37.063  31.545  10.998
47303W        W15666  41.962  43.437   4.198
47304W        W15667   3.861   1.959   2.875
47305W        W15668  38.869  39.376  10.577
47306W        W15669  10.755  25.204  13.960
47307W        W15670  15.661   5.798   9.544
47308W        W15671  19.238   7.849   0.738
47309W        W15672   2.801  18.739  11.997
47310W        W15673  19.244  42.434   2.270
47311W        W15674  29.084  31.011   1.346
47312W        W15675  41.796  11.647  14.869
47313W        W15676  10.268  10.243  11.549
47314W        W15677  36.863  32.913   1.378
47315W        W15678  20.174  36.524   0.772
47316W        W15679  44.786  43.982  12.960
47317W        W15680  26.555   7.735   5.282
47318W        W15681  12.255  30.072  14.992
47319W        W15682   3.437   3.271  10.571
47320W        W15683  35.567  30.484   2.880
47321W        W15684  40.549  16.729   4.744
47322W        W15685  15.735  23.653  11.537
47323W        W15686  13.316  36.008  12.403
47324W        W15687  23.625  44.472   3.652
47325W        W15688  37.860   9.876  13.314
47326W        W15689   9.882  39.825   4.635
47327W        W15690  35.077  39.476  11.387
47328W        W15691   9.173  12.253   0.448
47329W        W15692   0.400  43.284   4.815
47330W        W15693   1.386  38.525  13.459
47331W        W15694  25.162   4.926   1.734
47332W        W15695   4.699  26.586   1.748
47333W        W15696   3.793  43.463  13.519
47334W        W15697   7.364  43.017  12.527
47335W        W15698  19.268  34.390   0.307
47336W        W15699  21.107  18.244  13.490
47337W        W15700   1.366  24.664  12.505
47338W        W15701  40.868  13.693  13.902
47339W        W15702  12.230  12.287   4.815
47340W        W15703  36.014  42.292  11.518
47341W        W15704  18.552  29.947  13.063
47342W        W15705  15.583  35.536  10.407
47343W        W15706  11.829   3.841  13.438
47344W        W15707   0.938  40.053   0.858
47345W        W15708  40.500  40.370  12.953
47346W        W15709   4.213  23.684   3.677
47347W        W15710  11.137  15.736   1.449
47348W        W15711  15.241  33.583  12.538
47349W        W15712  25.618   3.372  12.016
47350W        W15713  25.087   0.931  12.423
47351W        W15714   8.862  27.596   4.203
47352W        W15715  31.475  12.715   4.233
47353W        W15716  39.511  15.679  14.032
47354W        W15717  44.876   6.228  10.592
47355W        W15718  30.560   5.713   2.348
47356W        W15719  25.687   4.944  13.904
47357W        W15720  32.525  35.436  12.882
47358W        W15721   5.336  18.735  10.444
47359W        W15722  35.563  18.291   0.783
47360W        W15723  40.045  39.049   1.246
47361W        W15724  11.322  11.293  12.545
47362W        W15725   7.854   2.891   4.276
47363W        W15726  18.155  16.181   1.831
47364W        W15727  11.651   0.412   0.845
47365W        W15728   4.215  22.998  14.399
47366W        W15729   7.369  30.606   3.227
47367W        W15730  21.717  42.309   1.447
47368W        W15731  15.241  17.072  13.431
47369W        W15732  12.257  13.256   1.242
47370W        W15733   8.698  34.510   2.317
47371W        W15734  43.400  12.244  13.062
47372W        W15735  42.317   8.795  14.461
47373W        W15736  16.301  11.306  13.401
47374W        W15737  15.626  18.112   2.289
47375W        W15738  37.073  37.474  10.530
47376W        W15739  11.184  12.298  14.348
47377W        W15740  30.416  42.401   2.783
47378W        W15741  35.505  11.714  10.948
47379W        W15742  41.810  11.827   0.329
47380W        W15743   0.445  43.440  11.895
47381W        W15744  44.886   2.884  13.029
47382W        W15745  25.537  28.509  12.077
47383W        W15746  40.511  17.103  11.589
47384W        W15747  37.507  18.105  11.960
47385W        W15748  41.489   0.379  12.946
47386W        W15749  43.399  22.541   1.262
47387W        W15750  42.960   1.342   2.862
47388W        W15751  16.278   6.386   0.901
47389W        W15752  27.633  36.993   1.927
47390W        W15753   9.232   8.880   3.833
47391W        W15754  32.015  44.397  14.953
47392W        W15755  29.652   9.208   4.745
47393W        W15756  38.870   1.837   2.702
47394W        W15757  19.648   8.356  10.537
47395W        W15758  24.483   0.290  11.997
47396W        W15759  14.820  28.653  11.489
47397W        W15760  15.788  38.873  11.094
47398W        W15761  38.890  41.458  13.465
47399W        W15762  37.503  18.587   0.916
47400W        W15763  12.722  37.552  14.828
47401W        W15764  29.625   0.789  13.868
47402W        W15765  14.722  19.558   2.371
47403W        W15766  10.159  10.320  14.280
47404W        W15767   5.917   0.920   3.640
47405W        W15768  35.601  24.693  12.406
47406W        W15769   2.326  37.953   0.837
47407W        W15770   7.197  11.152  13.335
47408W        W15771  14.095  35.012   5.296
47409W        W15772  20.226  20.146  11.129
47410W        W15773  40.399  39.864  14.847
47411W        W15774  30.912  29.150  10.556
47412W        W15775  28.555   4.342  13.432
47413W        W15776  20.031  44.989  13.017
47414W        W15777  23.239  31.931  14.770
47415W        W15778  38.931  36.392  14.850
47416W        W15779  42.982   0.400  10.942
47417W        W15780  19.597  13.259   4.622
47418W        W15781  30.635  15.792  11.556
47419W        W15782  28.643  36.847  12.384
47420W        W15783   6.392  19.192   0.419
47421W        W15784   6.421   2.763  13.358
47422W        W15785  15.183   1.426   1.253
47423W        W15786  37.902  28.133  13.922
47424W        W15787  11.782   2.766  12.950
47425W        W15788  15.718  10.325   0.797
47426W        W15789  35.483  25.643  13.485
47427W        W15790  25.550  18.252  14.876
47428W        W15791  17.570   6.894  10.544
47429W        W15792   6.296  18.782   4.284
47430W        W15793  19.122  24.698  11.498
47431W        W15794  43.334  24.215   0.946
47432W        W15795  43.323  39.469   2.831
47433W        W15796  25.508  12.215   0.762
47434W        W15797  36.530  19.639  13.883
47435W        W15798   9.299  32.606   4.741
47436W        W15799  11.730  30.033   2.874
47437W        W15800  27.123  21.229   0.812
47438W        W15801   5.429  31.980  12.971
47439W        W15802   3.373  15.730   4.313
47440W        W15803  39.833  22.626   1.752
47441W        W15804  19.575  34.084  10.619
47442W        W15805  11.255  12.203  10.562
47443W        W15806   0.264   4.921   2.274
47444W        W15807  21.139   0.434  10.473
47445W        W15808   3.266  38.820   5.135
47446W        W15809  15.227  20.172   1.398
47447W        W15810  19.614  23.172   4.619
47448W        W15811   3.308   0.317  13.936
47449W        W15812  36.885  19.075   3.714
47450W        W15813  24.055  28.097   1.344
47451W        W15814   9.275  39.389   0.384
47452W        W15815  23.519   3.265  14.928
47453W        W15816   2.802  32.545   2.770
47454W        W15817  13.770   5.819  12.034
47455W        W15818  13.328  22.149   3.700
47456W        W15819  33.592   8.668  12.015
47457W        W15820  41.894  25.091   2.343
47458W        W15821  32.425  14.095  14.885
47459W        W15822  31.110   1.740  10.029
47460W        W15823  28.465  34.004   2.722
47461W        W15824  43.371  40.874  13.327
47462W        W15825  44.431   1.794   4.195
47463W        W15826   0.906  29.597   4.160
47464W        W15827  39.366  18.742   4.199
47465W        W15828  36.413  18.649   4.338
47466W        W15829   0.794  29.936   4.161
47467W        W15830  41.311  42.962  11.512
47468W        W15831  36.077  30.469   1.872
47469W        W15832  40.965  35.894  10.969
47470W        W15833   2.234  29.978   3.320
47471W        W15834  23.061  38.964  11.870
47472W        W15835   1.900  10.159  13.980
47473W        W15836  40.829  18.191  12.836
47474W        W15837  22.161  16.132  10.908
47475W        W15838  37.989  34.489  14.915
47476W        W15839  17.235  18.759   9.964
47477W        W15840   5.736   3.929  14.492
47478W        W15841  25.579  41.450  12.397
47479W        W15842  31.462  31.933   0.933
47480W        W15843  26.956   9.326  12.386
47481W        W15844  30.059  25.707  12.507
47482W        W15845  24.490   6.321  14.993
47483W        W15846   9.742  36.399  11.869
47484W        W15847  31.512   3.439  10.505
47485W        W15848  21.071  15.808  14.484
47486W        W15849   1.410  18.128  11.110
47487W        W15850  42.921  25.628   2.259
47488W        W15851  14.706  25.007   3.385
47489W        W15852  22.593   1.928  12.954
47490W        W15853  23.200  31.549  11.984
47491W        W15854  44.426   7.172  10.422
47492W        W15855   7.257  16.781  12.462
47493W        W15856  24.510   2.803  11.939
47494W        W15857   6.419  22.062  10.538
47495W        W15858  40.829  42.413  10.467
47496W        W15859  20.177  44.392  14.769
47497W        W15860  14.811   3.296  12.405
47498W        W15861  32.013  25.524  13.011
47499W        W15862  27.542  24.061   0.377
47500W        W15863  21.514  23.022   2.705
47501W        W15864   0.320   6.791  14.778
47502W        W15865   0.847  35.418   2.706
47503W        W15866   0.441  25.179  13.847
47504W        W15867  29.166  14.335   5.601
47505W        W15868  11.681  30.929  10.642
47506W        W15869  21.704  25.635   4.213
47507W        W15870  35.548   1.865   1.887
47508W        W15871   6.362  32.012   3.376
47509W        W15872   5.255  35.862   1.928
47510W        W15873  24.658  30.072   3.269
47511W        W15874  18.729  28.082   4.339
47512W        W15875  37.483  25.652  12.926
47513W        W15876   6.741  35.974   1.847
47514W        W15877  22.741  26.611  11.903
47515W        W15878  29.987   3.266  11.050
47516W        W15879  36.024  24.179   0.468
47517W        W15880  36.449  42.893  12.844
47518W        W15881   3.930  24.695  12.428
47519W        W15882  15.135  31.002  13.518
47520W        W15883  25.180  18.766  11.899
47521W        W15884  18.545  32.398   2.698
47522W        W15885  31.098  28.597   0.359
47523W        W15886  21.671  24.157   3.184
47524W        W15887  33.012   6.726  13.826
47525W        W15888  23.632   4.246   1.307
47526W        W15889  18.102  40.312   2.876
47527W        W15890  28.957  13.827   4.796
47528W        W15891  27.056  29.506  11.969
47529W        W15892  17.638  39.038  14.006
47530W        W15893   6.235  27.603  14.465
47531W        W15894  40.360  40.384  11.412
47532W        W15895  18.588  16.299   1.294
47533W        W15896   6.377  12.136  14.432
47534W        W15897   1.847  41.961  14.005
47535W        W15898  38.828  42.845   5.262
47536W        W15899  42.957  11.788   2.880
47537W        W15900  25.032  24.652   2.333
47538W        W15901  29.094  22.745   2.306
47539W        W15902  14.700  33.956  12.878
47540W        W15903  44.850  22.625   2.818
47541W        W15904  13.825  29.504  14.949
47542W        W15905  11.294  14.733   0.391
47543W        W15906  16.097  29.478   0.737
47544W        W15907  44.795  37.370   0.743
47545W        W15908  13.223  44.001   3.206
47546W        W15909  30.001   6.883   2.234
47547W        W15910   0.278  35.995  12.564
47548W        W15911  39.395  43.955  12.368
47549W        W15912  36.037  16.603   0.883
47550W        W15913  10.691  29.506  10.895
47551W        W15914  38.549  28.614  13.547
47552W        W15915  23.673  12.242  10.507
47553W        W15916  18.161  33.502  12.003
47554W        W15917  16.637   4.377  11.582
47555W        W15918  39.380  28.101  11.467
47556W        W15919  12.258  14.822   2.276
47557W        W15920  35.016  23.616   1.393
47558W        W15921  40.424  24.670   3.237
47559W        W15922  20.638  37.937  12.069
47560W        W15923  34.120  17.261  10.494
47561W        W15924  41.314  15.708  13.817
47562W        W15925  21.624  34.585   0.458
47563W        W15926  34.422  12.750  14.858
47564W        W15927   2.866  19.698  10.572
47565W        W15928   7.851  12.156  12.905
47566W        W15929   6.421  42.844   4.119
47567W        W15930  32.073  11.146  10.910
47568W        W15931  34.462  21.665   3.180
47569W        W15932   7.824  42.340  10.474
47570W        W15933  37.915  38.075   2.708
47571W        W15934  32.438  26.648   2.680
47572W        W15935  15.691  12.739  10.574
47573W        W15936  19.084  43.849  12.861
47574W        W15937  22.684  10.182  13.002
47575W        W15938  28.474  35.106  13.369
47576W        W15939  35.591  10.343   4.664
47577W        W15940  39.493  10.788   3.633
47578W        W15941  20.572  39.008  14.932
47579W        W15942  24.655   6.754  12.998
47580W        W15943  38.511  13.663  13.541
47581W        W15944   4.763  44.372   3.199
47582W        W15945  27.655  11.744  14.454
47583W        W15946   3.354  29.136   1.257
47584W        W15947  10.666  11.225   4.129
47585W        W15948  36.985  21.158   3.805
47586W        W15949  44.967  14.290   0.398
47587W        W15950  44.838  36.382   2.288
47588W        W15951  23.530   2.866  14.503
47589W        W15952  23.186  35.909  11.062
47590W        W15953  32.566  30.139   9.675
47591W        W15954   2.250  15.262   3.852
47592W        W15955   9.199  41.392   0.857
47593W        W15956  21.129  10.351   1.336
47594W        W15957   4.450  16.303  12.047
47595W        W15958   4.830  44.444   5.271
47596W        W15959   0.826   3.273  14.928
47597W        W15960   2.741  17.755  11.378
47598W        W15961   4.381   9.159   2.765
47599W        W15962  40.047   1.259  11.072
47600W        W15963  29.009  28.151   4.330
47601W        W15964  19.284   5.200  13.796
47602W        W15965  17.676  23.195   3.799
47603W        W15966  28.459  32.436  13.055
47604W        W15967  15.694   4.320   5.196
47605W        W15968  40.894   3.865   1.237
47606W        W15969  20.767  44.932   2.769
47607W        W15970   6.917   3.942   3.805
47608W        W15971  37.357  40.518   3.717
47609W        W15972  29.099  24.135   4.606
47610W        W15973  15.769  37.988   0.733
47611W        W15974   7.279  16.714   4.668
47612W        W15975  33.946  38.075   4.141
47613W        W15976  26.200  16.157  12.907
47614W        W15977  41.947  34.068  14.868
47615W        W15978  13.185  25.097  12.982
47616W        W15979  20.107  12.243  11.600
47617W        W15980  29.603  13.746  10.527
47618W        W15981  39.538  19.583  14.981
47619W        W15982  18.247  42.855   0.414
47620W        W15983  19.224   5.343   2.734
47621W        W15984  25.476  37.064   1.400
47622W        W15985  12.732  27.056   1.917
47623W        W15986  30.554  35.440  12.014
47624W        W15987  26.061  38.832   3.285
47625W        W15988  39.415  11.264  10.144
47626W        W15989   2.276   1.449  10.511
47627W        W15990  43.331  38.009  11.013
47628W        W15991  44.412   7.864  14.877
47629W        W15992  18.578   6.276  13.352
47630W        W15993  28.179  29.087   1.726
47631W        W15994  30.624  35.870   0.258
47632W        W15995  15.734   3.939  10.547
47633W        W15996  16.075  43.818  10.108
47634W        W15997  19.168   4.260  12.852
47635W        W15998  18.614  33.559  10.093
47636W        W15999  39.978   9.825   0.961
47637W        W16000  17.141  21.620  12.434
47638W        W16001  11.757   0.978  11.980
47639W        W16002   4.863  14.203  12.877
47640W        W16003  33.951  37.951  11.529
47641W        W16004  36.520  35.902   9.985
47642W        W16005  37.540   3.322  10.506
47643W        W16006  38.820  27.125  10.928
47644W        W16007  42.791   9.154  11.017
47645W        W16008  32.618   1.259   0.449
47646W        W16009  32.907  31.413  13.377
47647W        W16010  13.620  19.047  12.493
47648W        W16011  28.455  24.478   4.154
47649W        W16012  18.082  13.319   1.694
47650W        W16013  20.724  32.938   0.777
47651W        W16014   1.792  26.081   2.268
47652W        W16015  43.788  26.560  13.984
47653W        W16016  37.939  14.765   1.215
47654W        W16017  27.507  37.575  14.969
47655W        W16018   7.326  13.654   2.789
47656W        W16019   0.482   9.752   4.775
47657W        W16020  28.172  24.109  14.015
47658W        W16021  26.641  20.588   4.245
47659W        W16022  41.513  31.073   2.721
47660W        W16023  12.147  26.592   2.276
47661W        W16024  28.993  24.514   1.873
47662W        W16025  43.885  20.134  12.447
47663W        W16026  14.222  10.148   3.852
47664W        W16027  27.681  41.395   0.269
47665W        W16028  31.511  11.790   1.288
47666W        W16029  43.379  41.464  13.009
47667W        W16030  33.419   7.364  14.336
47668W        W16031  28.128  16.682  12.408
47669W        W16032   6.802  30.110  10.631
47670W        W16033  15.293  20.177   3.242
47671W        W16034  31.068  28.507  10.568
47672W        W16035   8.371  22.136   4.628
47673W        W16036  30.911  34.613  13.973
47674W        W16037  42.328   6.725   2.760
47675W        W16038   2.275  13.329  11.495
47676W        W16039  35.384   2.906  14.453
47677W        W16040  33.583   7.778  13.458
47678W        W16041   8.771  15.212   4.789
47679W        W16042  14.332  22.690  12.968
47680W        W16043  36.915  32.910  14.343
47681W        W16044  22.218  21.260   2.862
47682W        W16045  32.127   4.218   4.154
47683W        W16046  31.143   0.827  12.544
47684W        W16047  27.042  35.859   4.659
47685W        W16048  33.402  14.758  11.042
47686W        W16049  40.379  12.660   2.273
47687W        W16050  24.511   2.945   2.299
47688W        W16051  27.154   1.737  10.900
47689W        W16052  14.095   0.328  13.008
47690W        W16053  34.385  27.677  12.014
47691W        W16054  31.534  38.923   2.899
47692W        W16055  16.110   8.257   2.279
47693W        W16056   8.671  38.912  12.916
47694W        W16057   1.260  33.104   0.909
47695W        W16058  24.529   7.811   1.837
47696W        W16059  12.827   6.780   3.296
47697W        W16060   6.872  16.301   4.689
47698W        W16061  14.146  37.544  14.508
47699W        W16062  34.047  38.479  13.002
47700W        W16063  17.135  40.513  11.959
47701W        W16064  18.284  14.764   2.226
47702W        W16065  14.241   3.813  11.412
47703W        W16066  24.637  15.243   2.331
47704W        W16067  12.227  21.231  10.435
47705W        W16068   1.355  27.120  11.017
47706W        W16069  43.907  32.056   1.399
47707W        W16070  26.467  30.009   4.263
47708W        W16071  28.104  24.184  11.590
47709W        W16072  24.097  44.915   4.669
47710W        W16073  43.303  29.562   1.419
47711W        W16074  11.621  24.131  13.851
47712W        W16075  26.547   4.932   3.685
47713W        W16076   3.260  36.975   3.147
47714W        W16077  42.776  12.243   3.334
47715W        W16078  43.822   1.380   2.885
47716W        W16079  18.733  17.562  14.408
47717W        W16080  34.499  23.173  12.902
47718W        W16081  30.613  14.633  12.036
47719W        W16082  13.148  44.301  14.875
47720W        W16083  36.947  14.117   5.082
47721W        W16084  34.920  19.692   2.704
47722W        W16085   3.272  28.461  13.422
47723W        W16086   9.251   9.682   3.351
47724W        W16087   5.888  36.087  13.820
47725W        W16088   2.304  20.213  11.475
47726W        W16089  33.064  39.353  14.468
47727W        W16090  34.946  36.045   3.782
47728W        W16091  20.627  20.220  11.100
47729W        W16092  17.699   6.898  14.965
47730W        W16093  31.524  17.080   2.887
47731W        W16094  24.017   9.887   2.357
47732W        W16095  40.888  40.009  14.449
47733W        W16096  44.289  27.979  13.863
47734W        W16097  22.088  42.031  12.494
47735W        W16098  44.986  26.488  13.391
47736W        W16099   9.346  32.536   0.875
47737W        W16100  34.890  26.480  12.941
47738W        W16101   9.346  15.306  14.872
47739W        W16102  40.845   3.332  10.502
47740W        W16103  29.985  37.574   2.410
47741W        W16104  23.230  39.953  11.117
47742W        W16105  39.048   8.274   0.754
47743W        W16106  38.473  18.089   2.292
47744W        W16107  19.662  17.202   2.286
47745W        W16108   0.821  27.062   1.343
47746W        W16109   1.755  33.020   4.116
47747W        W16110  43.855  43.449  14.463
47748W        W16111  32.459  29.643   0.943
47749W        W16112  43.898  28.664   3.638
47750W        W16113  43.863   2.360  12.873
47751W        W16114  19.634  38.451   1.725
47752W        W16115  37.851  14.822   4.598
47753W        W16116  29.998   7.782  10.645
47754W        W16117   0.964   7.308  14.447
47755W        W16118  32.951  18.114  10.449
47756W        W16119  44.936   1.359  14.334
47757W        W16120  32.111  40.476   0.397
47758W        W16121  39.932  19.777  10.425
47759W        W16122  26.189  10.810   3.733
47760W        W16123   5.400  13.656   4.318
47761W        W16124  21.066  20.176  13.328
47762W        W16125   6.760  14.141   3.664
47763W        W16126  36.956  14.172   1.832
47764W        W16127  27.662   3.226   4.609
47765W        W16128  17.116  43.807  11.590
47766W        W16129  41.005  12.630   4.835
47767W        W16130   6.413  35.988   2.352
47768W        W16131  13.779  29.069  12.494
47769W        W16132   9.680  27.522  11.860
47770W        W16133  25.563   2.299  14.294
47771W        W16134  13.226  26.640   4.771
47772W        W16135  33.930  17.256   2.243
47773W        W16136   0.761  18.267   0.278
47774W        W16137  15.791   2.801   2.419
47775W        W16138  15.725   5.872   5.317
47776W        W16139  18.213  20.709  10.418
47777W        W16140   4.338   4.820   0.913
47778W        W16141  25.129   0.465   4.209
47779W        W16142  11.317  24.068  13.540
47780W        W16143  31.132  32.886   1.257
47781W        W16144  17.195  23.080   0.310
47782W        W16145  30.616  35.395   0.359
47783W        W16146  36.493  44.411   4.338
47784W        W16147  44.905   1.906  13.962
47785W        W16148  11.795  29.054   1.713
47786W        W16149  21.055  35.576  14.429
47787W        W16150  24.565  22.502   4.240
47788W        W16151   7.910  19.073   4.261
47789W        W16152  41.923  41.385  13.546
47790W        W16153  14.253  16.085  13.932
47791W        W16154  20.705   6.293   3.209
47792W        W16155   6.370  26.153   4.295
47793W        W16156  22.529  14.269   5.107
47794W        W16157  13.739  15.734  13.979
47795W        W16158  15.268  21.107   3.729
47796W        W16159  10.342   9.748   2.363
47797W        W16160  36.492  36.363  12.969
47798W        W16161  30.510   3.756  11.084
47799W        W16162   9.312  43.868  13.800
47800W        W16163  38.020   4.895   0.732
47801W        W16164  42.831  23.710  13.359
47802W        W16165   7.893  12.853  11.963
47803W        W16166  33.010   6.875   4.629
47804W        W16167  31.121  31.439   4.347
47805W        W16168  40.523  27.448  13.331
47806W        W16169  21.049   9.329  14.511
47807W        W16170   0.839  39.825  14.275
47808W        W16171  43.502  18.235   0.813
47809W        W16172  39.469  31.615  14.956
47810W        W16173  26.516  36.427   0.853
47811W        W16174  29.644  32.138   0.888
47812W        W16175  36.472  11.291   2.182
47813W        W16176  26.168  43.987   3.818
47814W        W16177  10.244  12.285  13.966
47815W        W16178   6.697  26.151  13.520
47816W        W16179   2.444  22.099   1.768
47817W        W16180  25.670  39.010  14.994
47818W        W16181  22.135  33.878   1.300
47819W        W16182   1.241   7.799   4.337
47820W        W16183  33.881  38.414   2.256
47821W        W16184  42.873   7.178  10.618
47822W        W16185   4.710  22.186   3.367
47823W        W16186   8.262  34.480   3.248
47824W        W16187  32.452  23.018   0.428
47825W        W16188  42.301   0.947   1.335
47826W        W16189  15.639   3.837   0.934
47827W        W16190  16.625  16.749  10.405
47828W        W16191   8.273  29.931  10.412
47829W        W16192  38.406  44.410   2.334
47830W        W16193  28.133   0.357   5.212
47831W        W16194   6.725  42.963   4.734
47832W        W16195  10.658  14.717   3.357
47833W        W16196  17.302  21.063  13.477
47834W        W16197  37.456  26.197   4.352
47835W        W16198  37.002   3.394   4.315
47836W        W16199  20.246  30.997   1.360
47837W        W16200   1.749  25.063  12.554
47838W        W16201  34.546  34.965   4.621
47839W        W16202  41.426  24.195   4.612
47840W        W16203   5.263  35.933  10.567
47841W        W16204  15.769  19.546  13.007
47842W        W16205   7.908   4.757   2.374
47843W        W16206  44.323  38.398   3.846
47844W        W16207   2.782  25.670  13.832
47845W        W16208  19.730   9.882   2.741
47846W        W16209  24.680  28.162  11.090
47847W        W16210  37.556  42.336  10.441
47848W        W16211  44.331  41.925   0.368
47849W        W16212  39.013  34.052   4.204
47850W        W16213  13.180   9.657  13.460
47851W        W16214  21.590  27.173  11.540
47852W        W16215  25.579   5.330  11.570
47853W        W16216   1.411  33.914  14.887
47854W        W16217  22.716  40.481   4.604
47855W        W16218   5.929  37.510  13.429
47856W        W16219  20.741   0.792   3.194
47857W        W16220  44.300   4.215   1.418
47858W        W16221  44.809  23.156  12.508
47859W        W16222  44.814  15.202  11.964
47860W        W16223  27.002  26.003  10.537
47861W        W16224   6.230  38.016  12.378
47862W        W16225   4.371  32.044  13.014
47863W        W16226  24.077   0.377  13.049
47864W        W16227  23.726  44.839  14.281
47865W        W16228   6.783   0.413  11.382
47866W        W16229  12.144  17.772  12.012
47867W        W16230  13.744  30.417  10.497
47868W        W16231  39.968   9.759  10.427
47869W        W16232  39.509  11.157   0.833
47870W        W16233  13.209   4.318   2.823
47871W        W16234  44.407  43.494   3.257
47872W        W16235  23.015  37.890  13.911
47873W        W16236  33.068  34.962   0.913
47874W        W16237  15.788  33.953   0.298
47875W        W16238  16.188   7.231   0.320
47876W        W16239   4.441  22.639  10.478
47877W        W16240  44.261  37.336  12.414
47878W        W16241  30.507   1.952  14.406
47879W        W16242  22.681  18.665   4.722
47880W        W16243  19.764  25.052   3.865
47881W        W16244  33.916  14.132  14.871
47882W        W16245  19.082  39.935  12.539
47883W        W16246  18.243  23.010   4.242
47884W        W16247  34.055  30.611   0.255
47885W        W16248  37.418  36.418  11.083
47886W        W16249  16.273   6.186  11.892
47887W        W16250  26.960   4.800   1.832
47888W        W16251   4.904  43.333   1.229
47889W        W16252   7.814  19.221  10.961
47890W        W16253  41.416  28.986  12.037
47891W        W16254  13.347  18.284   2.269
47892W        W16255  37.502  28.939   2.897
47893W        W16256  14.835   1.875   0.449
47894W        W16257  16.586   4.781   0.803
47895W        W16258  12.233  38.014  13.533
47896W        W16259  31.998  30.052   9.930
47897W        W16260  37.839   4.355  10.907
47898W        W16261   0.406  38.976   1.745
47899W        W16262   0.800  10.235   1.790
47900W        W16263  29.043   6.331  12.553
47901W        W16264  30.493  18.644   2.184
47902W        W16265   6.259  23.995  12.523
47903W        W16266  39.060   7.228   0.753
47904W        W16267  20.641  32.493  14.413
47905W        W16268   3.304  19.162  11.388
47906W        W16269  25.582   5.325   3.799
47907W        W16270   4.925   0.914   4.330
47908W        W16271  34.537   5.257  13.507
47909W        W16272  26.037  23.532   3.173
47910W        W16273  33.907   5.879  13.874
47911W        W16274  25.157  27.172   1.793
47912W        W16275  12.846  36.044  13.792
47913W        W16276  24.598   7.277  14.321
47914W        W16277  28.647   9.813  10.933
47915W        W16278  10.276  34.494  13.846
47916W        W16279  29.015  22.103  14.282
47917W        W16280  11.250  30.520  12.553
47918W        W16281  24.115  24.052  12.874
47919W        W16282  43.346   2.890  11.033
47920W        W16283   1.413   9.149  10.567
47921W        W16284  22.557  22.612   1.765
47922W        W16285  21.575  30.965   3.866
47923W        W16286  17.238   2.815   2.397
47924W        W16287  27.192  34.402  14.870
47925W        W16288  28.071  36.045  14.843
47926W        W16289  11.259  36.476  13.835
47927W        W16290  30.506  40.900  13.424
47928W        W16291   1.279  10.360  12.960
47929W        W16292  44.367   0.279   2.383
47930W        W16293  34.018  39.049  14.335
47931W        W16294  25.169  43.927   3.759
47932W        W16295  15.254   0.947   4.185
47933W        W16296  18.761  26.135   1.248
47934W        W16297  42.967  20.060  10.542
47935W        W16298  12.181   5.818   1.786
47936W        W16299   1.835  16.243   1.214
47937W        W16300  40.485  23.090  10.619
47938W        W16301  12.703  14.266  12.823
47939W        W16302  28.473  12.618  13.929
47940W        W16303   5.832  25.630   4.352
47941W        W16304  10.838  21.638  11.958
47942W        W16305  31.140  33.600  11.417
47943W        W16306  14.194  17.261  10.121
47944W        W16307  26.590   3.252   4.743
47945W        W16308  12.217  15.201   4.671
47946W        W16309  31.013   9.713   4.744
47947W        W16310  13.188  29.055   3.215
47948W        W16311  26.587  36.365  12.823
47949W        W16312  33.420  38.447  12.350
47950W        W16313  44.937  37.884  13.541
47951W        W16314   0.745  29.919  12.831
47952W        W16315   0.287  28.121   3.811
47953W        W16316  16.261  22.091   3.699
47954W        W16317  35.076  11.255  11.010
47955W        W16318  21.122  32.621   3.185
47956W        W16319  15.753  12.843  12.461
47957W        W16320  42.513  43.501   2.236
47958W        W16321  26.702  29.454  14.411
47959W        W16322  34.448  39.882   0.448
47960W        W16323   9.189  32.446   4.177
47961W        W16324  33.120   2.730  13.518
47962W        W16325  38.916  10.323   3.275
47963W        W16326   6.752  34.458   4.808
47964W        W16327  24.072   4.342   1.731
47965W        W16328  29.009  18.577   0.812
47966W        W16329  30.995   3.449  10.590
47967W        W16330  40.487  43.281  13.935
47968W        W16331  31.963   5.841   1.776
47969W        W16332  42.003  16.162  10.539
47970W        W16333   5.761  41.385   1.279
47971W        W16334  43.486  33.514   1.351
47972W        W16335   6.187  20.111  13.451
47973W        W16336   6.734   1.735   4.219
47974W        W16337  40.860  27.158  14.910
47975W        W16338  29.592  27.179   2.665
47976W        W16339  44.418  16.088  11.860
47977W        W16340  31.441  15.289  10.933
47978W        W16341  27.187   0.428  11.460
47979W        W16342   1.268  28.175  11.390
47980W        W16343  33.892  20.532  14.344
47981W        W16344  28.051  20.525  11.997
47982W        W16345   9.817  21.126  11.602
47983W        W16346  35.599   0.822  12.409
47984W        W16347   2.963   9.873  11.011
47985W        W16348  17.091  38.886  11.989
47986W        W16349  20.209  41.301  14.467
47987W        W16350  36.009  35.920   1.408
47988W        W16351  24.158  13.628   4.667
47989W        W16352  15.248  42.330   3.841
47990W        W16353  27.639  44.451   0.911
47991W        W16354   3.413  12.123   4.285
47992W        W16355  41.946  43.487   3.263
47993W        W16356   7.776  33.027  12.525
47994W        W16357   5.413  15.184   3.677
47995W        W16358  21.554  18.621  12.556
47996W        W16359  35.420   8.295   1.846
47997W        W16360   0.424  38.870  14.476
47998W        W16361  16.285  36.849  12.476
47999W        W16362  16.794  24.707   2.333
48000W        W16363  36.514  23.060   2.843
48001W        W16364  42.345  32.013   0.384
48002W        W16365  18.636  28.510  12.356
48003W        W16366  26.111  28.080   1.934
48004W        W16367   8.723  24.147  13.401
48005W        W16368  14.629  23.190  13.828
48006W        W16369  26.168  11.128   2.213
48007W        W16370  33.425   1.430   0.746
48008W        W16371   2.893   9.357   1.351
48009W        W16372   4.257  25.141   2.250
48010W        W16373   5.424  35.578   2.359
48011W        W16374  40.418   6.273   3.178
48012W        W16375  18.292  18.712  13.318
48013W        W16376  31.537  42.383  10.612
48014W        W16377  34.992   6.758   4.314
48015W        W16378  25.068  11.226  13.989
48016W        W16379  25.513  16.607  14.919
48017W        W16380   9.180  23.688   2.700
48018W        W16381  19.589  40.878  13.381
48019W        W16382  41.360  25.032  13.880
48020W        W16383  36.963  16.723   1.805
48021W        W16384  33.441  32.129  14.513
48022W        W16385  27.131   1.307   0.295
48023W        W16386  18.157   0.396  12.470
48024W        W16387  30.029  40.811  11.467
48025W        W16388   5.877  35.380   0.470
48026W        W16389  18.641  14.121   4.736
48027W        W16390  31.471  33.382  10.635
48028W        W16391   6.702   0.973   0.778
48029W        W16392   6.388  11.341   1.259
48030W        W16393  39.408  39.914   4.258
48031W        W16394  10.230  15.116   2.831
48032W        W16395  10.254  24.080   3.847
48033W        W16396   4.281   7.685  11.377
48034W        W16397  14.203  37.432   1.234
48035W        W16398   9.649   2.332  13.002
48036W        W16399   6.223  16.247   2.778
48037W        W16400  15.631  38.393   4.838
48038W        W16401  35.859  34.456   0.755
48039W        W16402  19.203   5.362  14.971
48040W        W16403  38.954   7.273  11.081
48041W        W16404  12.201   3.392  12.888
48042W        W16405  26.665  27.197   4.297
48043W        W16406  33.891  15.670   0.283
48044W        W16407  24.702  15.324  14.813
48045W        W16408  32.982  14.287   4.345
48046W        W16409   4.208  39.316   4.285
48047W        W16410  10.342   2.793   4.810
48048W        W16411  10.640   9.780  11.091
48049W        W16412  37.433  39.949   2.870
48050W        W16413  41.485  19.757   3.302
48051W        W16414  42.975  41.465   1.256
48052W        W16415  32.592  29.549  11.968
48053W        W16416   1.476  44.482   0.359
48054W        W16417  29.047  27.638  10.033
48055W        W16418  21.582  23.159   1.916
48056W        W16419  16.795   3.240  10.998
48057W        W16420  31.454   4.773  13.389
48058W        W16421  28.001  21.039   0.437
48059W        W16422  21.075  38.449   2.785
48060W        W16423   5.717  36.081   3.699
48061W        W16424  31.020   1.764  14.380
48062W        W16425  44.863  33.016   4.711
48063W        W16426  29.999  34.075  14.346
48064W        W16427  39.372  23.085   4.771
48065W        W16428  40.864  28.543  12.383
48066W        W16429  43.315  23.613  13.400
48067W        W16430   1.916  24.085  12.556
48068W        W16431  38.398  22.647   1.241
48069W        W16432  13.788  24.174  14.983
48070W        W16433  21.749  30.097  12.084
48071W        W16434  27.640  12.335   2.798
48072W        W16435  11.268   0.984   1.923
48073W        W16436  12.116   1.762   4.618
48074W        W16437   5.901  30.938  13.026
48075W        W16438  34.446  39.446  11.525
48076W        W16439  43.928  41.789  14.360
48077W        W16440  18.285  16.279   4.285
48078W        W16441  18.115  15.649  11.957
48079W        W16442  42.920  34.418   0.281
48080W        W16443  17.658  36.999  13.520
48081W        W16444  34.086  37.566   2.292
48082W        W16445  18.257  23.656  14.423
48083W        W16446  22.594  10.257   0.417
48084W        W16447  27.663  24.049   4.346
48085W        W16448  19.114   0.931  13.878
48086W        W16449   1.765  38.426  12.378
48087W        W16450   4.393   7.195   2.694
48088W        W16451  36.862   8.251  12.471
48089W        W16452   4.930  22.156   4.290
48090W        W16453  10.191  17.749   4.772
48091W        W16454   9.747  27.133   0.357
48092W        W16455  35.384  14.163  10.488
48093W        W16456  19.712  38.522   4.796
48094W        W16457  37.433  38.002   3.284
48095W        W16458  39.353  43.367  14.949
48096W        W16459  15.776  19.128   3.170
48097W        W16460  44.392  35.002   4.136
48098W        W16461  18.711  34.934  10.582
48099W        W16462  40.881   7.903  11.035
48100W        W16463  16.757  15.785  12.900
48101W        W16464  26.688  15.140   4.321
48102W        W16465   3.337   9.714  14.851
48103W        W16466  32.598  18.273  13.954
48104W        W16467  16.142   5.906  10.427
48105W        W16468  19.240   2.438   0.968
48106W        W16469  44.944  36.959  14.399
48107W        W16470  23.173  18.123   4.825
48108W        W16471  29.453  41.910   1.289
48109W        W16472  28.569  31.954  10.036
48110W        W16473  43.847  35.079  10.926
48111W        W16474  38.920  16.643   4.121
48112W        W16475  11.823  18.719  10.536
48113W        W16476   6.350  13.195   4.810
48114W        W16477   8.703  37.400  14.015
48115W        W16478   4.788  42.920  12.474
48116W        W16479  31.614  25.144  13.501
48117W        W16480  17.086  19.754   4.255
48118W        W16481  30.642   5.369  11.465
48119W        W16482  10.192  11.759   2.698
48120W        W16483   0.830  44.302  12.550
48121W        W16484  34.914  44.340   0.940
48122W        W16485   4.266  40.385   1.831
48123W        W16486   0.289  16.290  12.927
48124W        W16487  15.633  11.833  14.024
48125W        W16488  22.569   0.332  11.104
48126W        W16489  15.094  13.631   2.251
48127W        W16490  31.966  26.000  11.599
48128W        W16491  31.619   1.464   3.373
48129W        W16492  38.404   0.349   2.272
48130W        W16493   7.280  33.494   0.466
48131W        W16494   9.374  33.451   2.731
48132W        W16495   4.294  44.457   3.798
48133W        W16496  10.713  43.290   1.756
48134W        W16497  17.621  17.185   5.236
48135W        W16498   4.830  13.636  11.886
48136W        W16499  43.981  34.101  12.476
48137W        W16500  36.086  42.466  14.767
48138W        W16501  17.069   0.825  14.964
48139W        W16502   0.467  35.931  10.919
48140W        W16503   5.837  41.041  11.125
48141W        W16504  40.864  19.140   0.873
48142W        W16505   7.341  10.662  13.964
48143W        W16506  29.028  22.713  14.363
48144W        W16507  29.553  41.489  10.903
48145W        W16508  41.315  36.478   0.410
48146W        W16509  33.028  30.922   0.766
48147W        W16510  29.080  13.648   0.949
48148W        W16511   4.936  39.422   2.194
48149W        W16512   9.341   0.786  13.313
48150W        W16513  34.927  21.587   0.728
48151W        W16514   9.646   1.972   0.398
48152W        W16515  12.698  20.218  11.578
48153W        W16516  42.456  20.167   3.350
48154W        W16517  23.685  16.103   1.449
48155W        W16518   3.877   0.868   1.713
48156W        W16519  41.370  15.277   4.691
48157W        W16520  15.119   3.305  12.346
48158W        W16521  10.191   4.306   0.272
48159W        W16522   5.295   3.942  10.903
48160W        W16523  43.414  14.183   3.376
48161W        W16524  35.526  17.244  11.417
48162W        W16525  11.626  15.815   0.823
48163W        W16526  10.702   8.659  14.318
48164W        W16527  21.541   7.853   4.286
48165W        W16528   8.840  20.141  10.422
48166W        W16529   8.355  10.300  13.979
48167W        W16530  19.668  22.091   3.730
48168W        W16531  40.887  44.791  11.575
48169W        W16532  36.539  25.011   3.838
48170W        W16533   7.891  27.129   0.478
48171W        W16534  33.123  29.105   1.446
48172W        W16535  36.426  33.516  14.019
48173W        W16536  38.835   1.362  10.501
48174W        W16537  23.027   9.171   3.191
48175W        W16538  34.476  43.344   0.887
48176W        W16539  33.048  14.819   3.643
48177W        W16540  34.534  44.433  12.496
48178W        W16541  26.961  28.007   3.232
48179W        W16542  18.117   2.462   0.422
48180W        W16543  22.170  39.485  14.995
48181W        W16544  14.267  40.825   4.158
48182W        W16545  13.812  18.258   3.784
48183W        W16546  20.728  20.045   4.342
48184W        W16547  19.129  12.140   4.810
48185W        W16548  14.735  12.848   2.672
48186W        W16549  19.600  42.799  14.851
48187W        W16550   8.840  30.936  13.880
48188W        W16551  17.558  23.030   4.821
48189W        W16552  28.080  44.289  10.642
48190W        W16553  14.233  24.680  12.092
48191W        W16554  21.070   3.370   3.723
48192W        W16555  38.505   3.357   4.630
48193W        W16556   5.360  40.898   1.917
48194W        W16557  11.823   7.803   2.900
48195W        W16558  15.279  14.656  14.492
48196W        W16559   8.796  24.200   2.254
48197W        W16560  43.492  28.103   1.382
48198W        W16561  24.491  44.762  11.554
48199W        W16562  18.576  29.614  11.121
48200W        W16563  33.542   7.747  10.574
48201W        W16564  20.189  30.157  11.125
48202W        W16565   2.839  37.846  11.539
48203W        W16566   0.780  20.115   2.807
48204W        W16567  37.358  18.062   1.337
48205W        W16568  14.337  17.097  11.396
48206W        W16569  31.616  15.698   0.242
48207W        W16570  23.130  39.046  12.568
48208W        W16571  12.831  19.547   1.307
48209W        W16572   1.864  32.449  13.809
48210W        W16573  12.148   6.789  14.940
48211W        W16574  35.387  25.583   3.687
48212W        W16575   0.305  23.723  14.763
48213W        W16576   9.881  29.657  11.908
48214W        W16577  36.540  32.570  14.777
48215W        W16578  32.017   5.239  14.357
48216W        W16579   5.284  40.826  12.507
48217W        W16580  27.628  31.015  10.473
48218W        W16581  38.876  11.176   3.354
48219W        W16582  43.922  18.134  14.400
48220W        W16583  38.414   2.946   0.908
48221W        W16584  30.640  41.025   2.799
48222W        W16585  28.523  26.680  13.361
48223W        W16586   9.708   4.398  11.474
48224W        W16587  27.469  26.465   5.188
48225W        W16588  25.084   3.320   0.347
48226W        W16589   1.781  36.925   1.745
48227W        W16590  29.552  34.101   0.808
48228W        W16591  40.509  15.667  12.422
48229W        W16592  36.555   6.193  12.981
48230W        W16593  30.122  31.482  13.888
48231W        W16594  14.198   6.794  13.402
48232W        W16595  22.712  39.340  14.508
48233W        W16596  11.264  43.422   2.389
48234W        W16597  33.981   3.872  12.081
48235W        W16598   1.739  41.411  13.501
48236W        W16599  43.825   9.711  11.565
48237W        W16600   9.222  21.608  10.899
48238W        W16601   9.667   2.415   2.291
48239W        W16602  40.861  20.665   2.291
48240W        W16603  14.613  23.582   5.256
48241W        W16604   9.675   1.853  14.831
48242W        W16605  22.205   8.817   2.727
48243W        W16606  30.007  38.336  11.487
48244W        W16607  27.172  25.217   1.743
48245W        W16608  14.149  22.634  13.957
48246W        W16609  22.073  29.588   0.263
48247W        W16610  36.933  23.112  13.937
48248W        W16611  10.360  13.306  13.063
48249W        W16612  24.013  41.504   2.206
48250W        W16613  33.558   4.941   0.316
48251W        W16614  36.986  30.114  11.475
48252W        W16615   9.352  24.161  14.859
48253W        W16616   3.285  42.951  13.963
48254W        W16617  41.380   3.303   1.375
48255W        W16618   1.907   3.423   3.710
48256W        W16619  41.468  18.726   4.795
48257W        W16620   3.910  37.579  13.445
48258W        W16621   8.685  15.701   3.351
48259W        W16622  36.541  31.550   1.390
48260W        W16623   8.834   8.364  11.586
48261W        W16624  14.292  32.562  12.503
48262W        W16625   7.337  28.003  11.552
48263W        W16626   3.909  21.719  14.497
48264W        W16627  15.748  27.955  11.609
48265W        W16628  23.171  38.465  10.534
48266W        W16629  27.462   9.669   4.746
48267W        W16630  17.167   1.796  10.928
48268W        W16631  34.549  43.337   1.698
48269W        W16632  22.594  19.636  13.856
48270W        W16633  18.594  30.083  13.455
48271W        W16634  17.707  13.615  10.946
48272W        W16635  12.360  31.634   4.787
48273W        W16636  17.258  27.940   3.289
48274W        W16637   4.884  36.851   4.324
48275W        W16638  13.296   7.784   2.688
48276W        W16639  11.769  39.823   3.656
48277W        W16640   3.449  11.280   3.368
48278W        W16641   1.326  21.141   4.159
48279W        W16642   9.651  25.998   3.358
48280W        W16643   7.312   4.939  11.442
48281W        W16644  44.811  33.500  14.017
48282W        W16645  42.385  22.058  13.387
48283W        W16646  24.511   9.255  13.022
48284W        W16647  11.760   2.777  10.998
48285W        W16648  13.680  42.397   2.776
48286W        W16649   7.393  33.123   2.326
48287W        W16650  32.588  27.051  11.487
48288W        W16651   4.903   4.741   0.440
48289W        W16652   8.705  15.273  13.865
48290W        W16653  20.159  10.800   2.257
48291W        W16654  25.628  11.630   2.211
48292W        W16655  37.027  19.125   1.450
48293W        W16656   4.447  19.637  13.901
48294W        W16657   3.241  30.945  14.429
48295W        W16658  26.142  19.263  11.579
48296W        W16659   0.985  30.006  12.444
48297W        W16660  20.162  28.621   1.227
48298W        W16661  20.633  25.153  14.402
48299W        W16662  19.638  20.536   4.641
48300W        W16663  28.673  40.398  11.052
48301W        W16664  36.953  39.903  12.974
48302W        W16665   3.954  29.523   3.359
48303W        W16666  32.888  10.374  11.603
48304W        W16667  26.058  35.973  13.419
48305W        W16668  35.542   6.371  12.066
48306W        W16669  32.637  41.015  13.528
48307W        W16670   4.328  27.045  11.374
48308W        W16671  29.017  27.558  14.490
48309W        W16672   1.908  12.318   1.899
48310W        W16673  15.721  34.460  11.064
48311W        W16674  19.613  34.589  11.083
48312W        W16675  14.661  12.283  13.427
48313W        W16676  38.443  44.936  12.390
48314W        W16677  31.071   4.429   4.201
48315W        W16678  15.817  40.989  10.919
48316W        W16679  13.635  27.562   2.181
48317W        W16680  25.697  21.613   2.666
48318W        W16681  15.716  31.988  13.908
48319W        W16682   6.194  37.897   4.598
48320W        W16683  18.757  44.275  12.951
48321W        W16684  14.312  44.485   3.176
48322W        W16685  43.399   4.716   1.234
48323W        W16686   5.210  27.657  14.954
48324W        W16687  16.611   5.328  12.525
48325W        W16688  37.481  43.918  13.545
48326W        W16689   7.180   0.764  11.929
48327W        W16690  42.963  23.503  14.783
48328W        W16691  12.656  26.632  13.341
48329W        W16692   5.272  41.374  11.862
48330W        W16693  23.689   2.427  14.317
48331W        W16694  10.803  41.015  11.086
48332W        W16695   1.291  34.930   3.254
48333W        W16696  39.358  14.222  12.877
48334W        W16697  23.229  29.653  12.888
48335W        W16698  27.677  17.661   3.718
48336W        W16699  13.290  28.080  12.020
48337W        W16700  13.225   8.719   1.408
48338W        W16701  20.070  20.727   2.857
48339W        W16702  10.661  29.136   1.437
48340W        W16703  20.631  10.272   3.773
48341W        W16704  44.814  12.838   0.433
48342W        W16705  43.776  11.699   1.826
48343W        W16706  23.652  15.270   4.632
48344W        W16707  44.782   5.889   3.690
48345W        W16708  44.340  14.660  10.906
48346W        W16709  14.201  40.832   2.350
48347W        W16710  20.041  26.606   3.181
48348W        W16711  23.572  16.627   3.205
48349W        W16712  37.471  38.525  12.029
48350W        W16713  39.051  12.649  13.432
48351W        W16714  14.603  16.217   9.971
48352W        W16715  18.709  14.128   2.747
48353W        W16716  29.661   7.756   3.657
48354W        W16717  33.888   9.670  12.991
48355W        W16718  43.917   3.331  10.951
48356W        W16719   9.841   4.895   0.429
48357W        W16720   5.194  32.975  12.512
48358W        W16721   9.713  35.910   1.781
48359W        W16722   2.250   9.780  10.556
48360W        W16723  20.152  30.992  10.966
48361W        W16724  41.405  22.519   1.403
48362W        W16725  17.557  11.638   1.300
48363W        W16726  14.198  24.055   5.197
48364W        W16727  27.032   0.800  13.820
48365W        W16728  41.937  15.673  11.408
48366W        W16729   7.287  14.119  13.890
48367W        W16730   3.879  40.404  12.340
48368W        W16731   8.394  35.394   2.306
48369W        W16732  43.976  36.946   0.334
48370W        W16733  25.581  18.744   2.712
48371W        W16734  30.083  12.290  11.957
48372W        W16735  27.969  32.531   0.382
48373W        W16736  16.786  36.851   2.255
48374W        W16737  39.853  37.397  12.971
48375W        W16738  20.665  24.167   1.711
48376W        W16739  43.494  36.855   2.398
48377W        W16740  11.163  16.273  11.388
48378W        W16741   5.318  42.924   3.783
48379W        W16742  19.138  42.904   9.966
48380W        W16743  40.434  25.103  14.839
48381W        W16744  38.067  35.573   2.190
48382W        W16745   4.319  42.783   3.374
48383W        W16746  29.549  31.917   1.218
48384W        W16747   4.740  37.457   2.221
48385W        W16748   8.763  28.443   0.816
48386W        W16749  40.971  40.022  13.876
48387W        W16750  23.097  17.670  12.918
48388W        W16751  32.636   0.870  11.065
48389W        W16752  36.438   0.879   0.345
48390W        W16753  13.729  28.957  13.396
48391W        W16754  36.410   3.870   3.257
48392W        W16755  14.214  15.590  14.283
48393W        W16756  10.325  43.280  13.314
48394W        W16757   1.291  22.224   9.662
48395W        W16758  23.576  31.516   2.699
48396W        W16759  27.681  31.580   1.766
48397W        W16760  30.132  22.681  14.964
48398W        W16761   0.474  33.091  13.915
48399W        W16762  35.102  11.166  14.902
48400W        W16763  11.796  31.632   1.815
48401W        W16764  23.128  41.358   0.439
48402W        W16765   2.317   7.888   1.849
48403W        W16766  11.346  37.041   4.149
48404W        W16767  43.430   5.317  13.472
48405W        W16768  15.178   6.858  13.992
48406W        W16769  41.982   3.345   4.738
48407W        W16770   6.247  33.515  13.379
48408W        W16771   8.655  26.475   0.862
48409W        W16772  37.950  32.109   1.435
48410W        W16773   0.410  20.531  10.576
48411W        W16774  19.278  36.866   2.793
48412W        W16775  18.550  43.386   1.394
48413W        W16776  19.056  23.550   1.879
48414W        W16777  39.925  11.198  11.591
48415W        W16778  31.442  39.062   2.249
48416W        W16779  19.541  20.555  10.575
48417W        W16780  17.082   6.281   0.362
48418W        W16781   9.878  20.037  14.404
48419W        W16782   5.412  31.413   3.226
48420W        W16783   7.761   5.276   0.349
48421W        W16784  13.276  43.017  11.913
48422W        W16785  44.875  36.057   4.763
48423W        W16786  25.166  12.264  14.934
48424W        W16787   9.814  30.951  14.312
48425W        W16788  37.899  33.581  10.426
48426W        W16789  16.680   2.832  14.452
48427W        W16790  21.688  14.254   1.718
48428W        W16791  37.371  37.924  11.998
48429W        W16792   3.330   7.908  13.352
48430W        W16793  21.063   4.919   1.766
48431W        W16794  32.930  19.108   0.332
48432W        W16795  12.297  22.713  11.888
48433W        W16796  42.292  10.684  13.484
48434W        W16797  41.512  17.284   4.294
48435W        W16798   7.217  33.027   3.865
48436W        W16799  30.561  35.055   1.774
48437W        W16800  37.573  38.372  10.533
48438W        W16801   5.388   7.744   3.238
48439W        W16802  34.594  15.736  13.913
48440W        W16803  32.141  29.928   5.131
48441W        W16804  40.323  25.050  13.349
48442W        W16805   3.326  15.263   0.765
48443W        W16806  35.503  36.507   1.288
48444W        W16807  24.011   8.354   3.822
48445W        W16808  35.957  28.146   0.459
48446W        W16809   1.357  21.021   3.347
48447W        W16810  19.576  27.624  13.329
48448W        W16811  39.518  10.639  11.949
48449W        W16812  18.168   8.273  11.948
48450W        W16813  40.929  25.168  13.946
48451W        W16814  34.605  24.614   1.807
48452W        W16815   6.710  13.794   2.257
48453W        W16816   3.385  31.493  13.349
48454W        W16817  24.705  16.271  14.973
48455W        W16818  24.053   5.328  12.380
48456W        W16819  43.310  16.734  12.977
48457W        W16820  29.601  34.944   9.986
48458W        W16821  31.916  23.088  12.065
48459W        W16822   5.317  44.290  10.958
48460W        W16823  37.400  35.997   3.869
48461W        W16824  42.384  33.065   1.739
48462W        W16825  19.565  15.822   1.229
48463W        W16826  38.554  30.968  14.458
48464W        W16827  36.996  14.172  10.906
48465W        W16828  42.334  40.489   2.245
48466W        W16829  43.386   5.742  14.427
48467W        W16830  12.193  44.484   0.463
48468W        W16831  19.600  10.847   2.270
48469W        W16832  12.251  24.165  13.390
48470W        W16833  15.177  41.301   4.764
48471W        W16834  41.018  17.084  10.524
48472W        W16835  32.951  30.026   4.668
48473W        W16836  40.395   2.467  13.349
48474W        W16837  15.806  27.683   2.744
48475W        W16838  26.966  31.609  11.535
48476W        W16839  39.465  32.472   0.802
48477W        W16840  27.141  15.252  13.445
48478W        W16841  13.709  43.401  10.902
48479W        W16842  42.419   7.707   1.892
48480W        W16843  18.602  23.519   3.261
48481W        W16844  29.512   5.732   0.243
48482W        W16845  34.056  23.229   0.839
48483W        W16846  18.211  38.397   3.741
48484W        W16847  27.151  20.185  14.457
48485W        W16848  40.988  27.994   0.266
48486W        W16849  39.485   6.747   0.292
48487W        W16850   4.835   5.814  12.087
48488W        W16851  39.927  27.005  13.440
48489W        W16852  25.670   2.794  10.463
48490W        W16853   3.950  38.997   4.319
48491W        W16854  10.761  28.111   1.423
48492W        W16855  17.600   7.297  11.561
48493W        W16856  23.149  29.629  10.617
48494W        W16857  25.613   8.731   3.661
48495W        W16858   1.766  13.673   2.714
48496W        W16859  33.014  44.393  11.897
48497W        W16860   0.807  43.483   1.801
48498W        W16861   9.649  21.585   4.839
48499W        W16862  21.200  34.518  13.030
48500W        W16863  10.662  30.566  13.893
48501W        W16864  22.746  29.606  10.535
48502W        W16865  39.506  42.787   0.312
48503W        W16866   0.817  18.234   3.216
48504W        W16867  37.080   0.492   3.190
48505W        W16868   5.766   5.295  10.440
48506W        W16869  22.604  19.111  12.413
48507W        W16870  11.818  41.822   2.372
48508W        W16871  10.339   5.692   4.760
48509W        W16872  43.436   0.254   3.793
48510W        W16873  33.114   0.394  13.393
48511W        W16874   9.793  30.126  13.345
48512W        W16875   9.796  11.830   4.647
48513W        W16876  11.635  18.111   5.127
48514W        W16877  33.075  25.560   1.438
48515W        W16878  31.451  28.468   4.201
48516W        W16879  23.214   9.302  10.486
48517W        W16880  32.596  13.844  10.612
48518W        W16881  14.175   3.367  12.460
48519W        W16882   1.438  38.339  11.540
48520W        W16883  28.519   8.882   2.837
48521W        W16884  43.768  32.028  10.456
48522W        W16885  42.975  38.860   0.901
48523W        W16886   0.777  32.137  13.917
48524W        W16887   0.339  23.649   2.212
48525W        W16888  17.179  24.704   4.793
48526W        W16889  15.229  32.610   3.240
48527W        W16890  39.990  33.986  13.986
48528W        W16891   6.790   4.445  12.508
48529W        W16892  20.031  11.731   0.938
48530W        W16893  26.020  21.034  11.603
48531W        W16894  35.509  12.694  12.409
48532W        W16895  44.397   5.750   0.913
48533W        W16896  28.562  28.989  13.841
48534W        W16897   8.349  27.004  11.018
48535W        W16898   9.662  23.081   3.821
48536W        W16899  28.961  19.659   0.359
48537W        W16900  35.540   9.311   0.347
48538W        W16901   4.730  18.737   2.757
48539W        W16902  44.352  29.475   2.336
48540W        W16903  13.694   4.869   5.299
48541W        W16904  35.597  26.163  12.000
48542W        W16905   3.848  12.296   3.722
48543W        W16906   0.417  34.940  12.913
48544W        W16907  20.561  39.883   2.291
48545W        W16908  16.632  22.250  13.543
48546W        W16909   3.803  22.702   2.329
48547W        W16910  24.015  25.489  13.035
48548W        W16911  44.278  18.292   3.337
48549W        W16912   1.878  11.363   1.800
48550W        W16913  40.823  36.421  10.449
48551W        W16914  27.187  39.892   3.225
48552W        W16915  21.055  34.896  11.373
48553W        W16916  10.280  16.178   2.351
48554W        W16917  10.782  42.421  12.521
48555W        W16918  11.706  44.425   2.851
48556W        W16919   7.895  25.579   1.235
48557W        W16920  30.516   5.836   4.160
48558W        W16921  11.733  14.117  11.124
48559W        W16922  14.662  34.120   4.605
48560W        W16923   0.325  36.845   1.259
48561W        W16924  34.046  20.151   1.348
48562W        W16925   2.797   3.236  14.296
48563W        W16926  33.464  41.421  13.064
48564W        W16927   4.416   5.764  11.933
48565W        W16928  44.357  33.954  12.504
48566W        W16929  31.053  14.623   3.664
48567W        W16930  32.029  20.049   0.838
48568W        W16931  42.899  40.050   1.792
48569W        W16932   1.338  38.450  14.867
48570W        W16933  29.572  41.935   1.761
48571W        W16934  24.680  37.386  10.082
48572W        W16935   3.740  33.012   2.899
48573W        W16936  15.803  44.996   0.295
48574W        W16937   8.159  13.691  12.861
48575W        W16938  13.206  19.639  11.562
48576W        W16939  34.930  14.727  12.841
48577W        W16940  36.037  42.315   4.728
48578W        W16941  18.606  36.455   4.785
48579W        W16942  44.387  28.511  14.762
48580W        W16943  14.268   2.385  13.790
48581W        W16944   0.822  24.140  10.111
48582W        W16945  16.696  19.189   4.318
48583W        W16946  31.597  17.794   2.868
48584W        W16947  14.223   5.908   2.308
48585W        W16948  11.285  39.461  12.833
48586W        W16949  26.678   5.208   2.323
48587W        W16950  35.546  13.191  13.355
48588W        W16951  32.574  31.496  11.377
48589W        W16952   5.275  12.300  11.537
48590W        W16953   4.935  34.590  14.799
48591W        W16954  33.057  31.635   4.825
48592W        W16955  39.329   9.385  10.967
48593W        W16956  41.830   8.668  13.514
48594W        W16957  24.171  31.593   0.266
48595W        W16958  10.347  32.446  11.044
48596W        W16959  13.604  43.875  10.911
48597W        W16960  36.424  19.098  14.014
48598W        W16961  23.039   0.780  11.519
48599W        W16962  16.619  17.242   5.198
48600W        W16963  41.339   8.718   1.354
48601W        W16964  32.564  12.797   3.225
48602W        W16965  18.286  32.951   3.699
48603W        W16966  16.811   7.782  12.886
48604W        W16967  31.993  37.565  13.858
48605W        W16968  44.377  14.121   1.722
48606W        W16969  26.463  39.815  10.913
48607W        W16970  11.277  34.096  10.557
48608W        W16971   9.716  13.817  13.865
48609W        W16972  43.298  25.124   1.395
48610W        W16973  32.542  16.579   4.682
48611W        W16974  40.528  33.114   2.214
48612W        W16975  33.985  38.059  10.426
48613W        W16976  44.288  10.161  14.861
48614W        W16977  18.677  41.489  12.055
48615W        W16978  38.906  18.050  12.574
48616W        W16979  22.559  40.386  13.475
48617W        W16980  18.093  28.462  10.998
48618W        W16981   6.856  31.932  10.552
48619W        W16982   9.743  18.063  14.378
48620W        W16983  13.339  33.054  11.443
48621W        W16984  37.582  26.960  12.530
48622W        W16985  39.855  42.837   1.914
48623W        W16986  12.790  19.140   2.223
48624W        W16987  16.681  12.682  11.868
48625W        W16988  27.534  19.650   4.345
48626W        W16989  19.736  31.643  14.861
48627W        W16990   6.214  42.857  12.354
48628W        W16991  33.111  24.140   0.274
48629W        W16992  17.621  27.619  10.935
48630W        W16993  14.698  35.424  14.770
48631W        W16994   5.336  23.170   4.208
48632W        W16995  39.410  19.129   0.424
48633W        W16996  26.556  35.517  11.996
48634W        W16997  16.081  22.079  12.039
48635W        W16998  27.447  32.516  12.503
48636W        W16999  31.023  28.059  11.563
48637W        W17000  35.589  24.614  13.876
48638W        W17001  16.146  24.176   3.768
48639W        W17002  10.710  14.795   1.248
48640W        W17003  42.380  22.618  14.501
48641W        W17004  36.375   2.247  10.432
48642W        W17005  30.948  15.737   5.282
48643W        W17006   2.383  17.180   2.746
48644W        W17007  32.035  25.669   4.293
48645W        W17008  44.763  12.651  13.337
48646W        W17009   1.284  10.355   2.703
48647W        W17010  23.724  12.277  12.853
48648W        W17011  14.247  32.421  10.910
48649W        W17012   9.786  28.537  10.430
48650W        W17013  10.310  10.237   0.804
48651W        W17014  24.142  20.582  12.455
48652W        W17015  37.484  24.709   2.377
48653W        W17016   3.257  10.141   4.242
48654W        W17017  33.386  10.854  10.585
48655W        W17018  13.256   7.676  12.408
48656W        W17019   2.309  23.014  13.918
48657W        W17020  37.569   3.312   2.696
48658W        W17021  39.407  13.714  10.961
48659W        W17022  29.666  40.358  12.881
48660W        W17023  20.551  41.439   4.163
48661W        W17024  17.720  35.917   0.459
48662W        W17025  26.525  37.572  14.958
48663W        W17026  14.195  31.013  12.514
48664W        W17027   4.334  42.513   1.932
48665W        W17028  11.778  19.669  14.878
48666W        W17029  32.549  15.178   0.266
48667W        W17030  16.223  10.778  14.474
48668W        W17031  25.594  34.369  14.439
48669W        W17032  39.535  25.030   0.253
48670W        W17033  44.347   1.943   3.694
48671W        W17034  19.566  29.616  10.618
48672W        W17035   8.755  31.127  13.417
48673W        W17036  16.779  10.315  14.875
48674W        W17037  42.843  34.005   3.752
48675W        W17038  31.445  38.982  11.579
48676W        W17039  17.247  14.785   2.745
48677W        W17040  34.400   0.918   0.324
48678W        W17041  44.809  44.866   2.784
48679W        W17042   2.835  20.165  14.343
48680W        W17043   5.922  19.273   1.241
48681W        W17044   6.791  37.472  13.858
48682W        W17045  16.629  34.890   0.957
48683W        W17046  24.201   8.790  13.411
48684W        W17047  23.570  34.615  10.576
48685W        W17048  33.615  37.549  11.473
48686W        W17049  35.017  44.834  12.342
48687W        W17050  15.261  42.450  11.441
48688W        W17051  21.590  13.674  10.518
48689W        W17052  44.974  42.888  11.032
48690W        W17053  26.159  20.094  11.863
48691W        W17054  26.965  44.391   4.211
48692W        W17055  15.179  16.682   3.267
48693W        W17056  13.721  33.534   0.734
48694W        W17057  25.513  17.084  14.406
48695W        W17058  40.038  41.924   3.276
48696W        W17059  44.383   0.833   3.337
48697W        W17060  21.552  16.741  14.436
48698W        W17061  21.746  42.910   2.183
48699W        W17062  44.868   8.713  13.942
48700W        W17063   7.305  40.317   0.801
48701W        W17064  43.850  37.901  10.049
48702W        W17065   0.750  21.102   3.725
48703W        W17066   2.806  25.474   4.617
48704W        W17067  24.622  11.667  13.839
48705W        W17068  21.187  17.230   4.235
48706W        W17069  13.635  26.575   1.249
48707W        W17070  39.949   4.212   1.750
48708W        W17071   6.421  22.181   0.826
48709W        W17072  25.163   9.185   0.765
48710W        W17073  12.276  10.266  14.878
48711W        W17074  43.466   6.826   3.842
48712W        W17075   1.738   9.716  10.422
48713W        W17076  27.484  17.198   2.721
48714W        W17077   7.183   7.684  12.382
48715W        W17078  11.842  11.622   3.300
48716W        W17079  37.531  19.694   2.668
48717W        W17080  43.938  18.730  12.532
48718W        W17081  18.609  26.596  14.949
48719W        W17082  27.947   0.482  13.830
48720W        W17083  41.990  39.944  12.379
48721W        W17084  33.955   4.341   4.201
48722W        W17085  36.373  23.184  14.911
48723W        W17086  27.575  11.858  12.900
48724W        W17087  44.486   4.432   0.396
48725W        W17088  29.081  16.690  12.993
48726W        W17089  35.486  41.515   3.339
48727W        W17090  35.076  23.564  14.422
48728W        W17091  27.641  41.796  11.604
48729W        W17092  16.274   2.821   0.277
48730W        W17093   0.762  40.456  13.348
48731W        W17094  16.769  26.978  13.438
48732W        W17095  15.599  32.923   0.439
48733W        W17096  38.460  31.414  11.960
48734W        W17097  20.084  31.532  13.027
48735W        W17098  40.352  43.380  10.574
48736W        W17099  20.616   1.867   0.874
48737W        W17100  31.151   6.195   3.767
48738W        W17101   7.267  34.484  13.346
48739W        W17102  43.884  40.911  14.976
48740W        W17103   6.702   0.383   0.400
48741W        W17104  31.582   1.790  13.879
48742W        W17105  12.261  23.587   0.927
48743W        W17106  11.696  27.550  14.819
48744W        W17107  35.440   2.450  13.952
48745W        W17108  11.730  14.827   2.703
48746W        W17109  14.161  21.716   3.813
48747W        W17110  36.379   2.814   3.801
48748W        W17111  42.839  39.949   4.732
48749W        W17112  37.843   4.839  11.476
48750W        W17113  12.715  13.316  12.389
48751W        W17114  10.363   3.832  10.642
48752W        W17115   7.372  13.348  13.937
48753W        W17116  15.209  23.067   1.426
48754W        W17117   1.297  31.622   2.684
48755W        W17118   4.780  39.341   0.964
48756W        W17119  35.571  34.404  12.048
48757W        W17120  14.200  21.042  13.907
48758W        W17121  22.101  41.450  13.949
48759W        W17122  18.211  19.160   1.733
48760W        W17123  27.676  16.722   3.339
48761W        W17124  24.672   7.299   0.332
48762W        W17125  25.019  43.888  12.940
48763W        W17126  26.020  12.812  13.974
48764W        W17127  37.844   2.853  11.057
48765W        W17128  27.188  30.159  11.477
48766W        W17129  43.010  29.459  14.954
48767W        W17130   8.357  37.434   0.287
48768W        W17131  44.291  28.970  12.553
48769W        W17132  28.496   9.650   4.724
48770W        W17133  24.534  41.433   4.178
48771W        W17134  30.502  30.529  12.490
48772W        W17135  29.989  28.478   3.339
48773W        W17136  41.971   7.233   1.273
48774W        W17137   1.748   2.847  14.471
48775W        W17138  10.735   3.795   2.796
48776W        W17139  39.413  31.022   0.409
48777W        W17140  11.339  24.006   0.774
48778W        W17141   8.798  27.089   4.670
48779W        W17142  22.713  31.110   4.185
48780W        W17143  32.016  42.839   5.156
48781W        W17144  39.386  36.393  10.892
48782W        W17145  29.446  43.866   4.708
48783W        W17146  18.713  10.655  11.859
48784W        W17147  23.048  13.767   1.340
48785W        W17148  43.996  27.125   3.668
48786W        W17149  20.709  22.535   2.203
48787W        W17150  16.184  31.492   3.821
48788W        W17151  32.534  31.632  14.440
48789W        W17152  33.443  18.073   1.365
48790W        W17153  37.457  41.848  14.981
48791W        W17154   3.800   8.833   3.273
48792W        W17155  25.198  31.487  14.830
48793W        W17156  28.057  34.968   5.194
48794W        W17157  39.822   6.732  14.876
48795W        W17158  35.386  11.352   3.732
48796W        W17159  43.449  17.092  12.881
48797W        W17160  22.220   8.363   3.714
48798W        W17161   0.318  26.028   2.276
48799W        W17162   7.855  30.049   4.197
48800W        W17163   0.802  31.641   4.632
48801W        W17164   8.723   9.684   2.802
48802W        W17165  31.086   6.262  14.507
48803W        W17166  24.547  26.186  13.411
48804W        W17167  27.984  41.910  13.336
48805W        W17168  28.009  32.470  13.815
48806W        W17169  14.591  19.571   4.271
48807W        W17170  44.753  26.167   0.418
48808W        W17171   4.380  12.267   2.191
48809W        W17172   2.916  19.733   2.357
48810W        W17173  33.920  35.865  13.040
48811W        W17174  18.558  17.792  12.396
48812W        W17175  39.507  31.620   0.345
48813W        W17176  20.092  10.313   2.199
48814W        W17177  28.974  40.848   3.384
48815W        W17178  27.650  44.316   2.719
48816W        W17179  38.455   3.782  10.484
48817W        W17180  12.704  44.954  11.876
48818W        W17181  32.059  23.218   4.256
48819W        W17182   2.348  37.051   0.353
48820W        W17183  20.192  18.206  13.512
48821W        W17184  21.727  13.309   3.315
48822W        W17185  35.023  42.998  11.542
48823W        W17186   8.703   2.413  11.606
48824W        W17187  13.670  20.576  14.960
48825W        W17188  19.115  32.989   0.867
48826W        W17189  19.755  16.705   2.675
48827W        W17190  14.159  31.435  12.966
48828W        W17191  38.895  10.779  10.410
48829W        W17192  12.195  17.298  14.347
48830W        W17193  36.846  40.899   4.725
48831W        W17194   5.338  38.502   2.756
48832W        W17195  33.008  20.552   3.756
48833W        W17196  18.273   6.236  13.955
48834W        W17197  40.995   4.860  14.514
48835W        W17198  37.472  38.861  14.853
48836W        W17199  27.016  23.531   0.764
48837W        W17200  25.060   9.179  13.004
48838W        W17201  39.824  12.330   9.957
48839W        W17202  36.970  26.145  14.799
48840W        W17203  39.875   5.907  13.911
48841W        W17204  37.832  33.503   2.821
48842W        W17205  22.638  10.368   3.731
48843W        W17206  41.791  32.959   0.244
48844W        W17207  21.145  31.634  13.361
48845W        W17208  17.194   4.843   2.369
48846W        W17209  19.156  17.594   3.746
48847W        W17210  19.644   8.775   3.767
48848W        W17211   5.287  20.740  13.425
48849W        W17212  31.413  10.721  12.550
48850W        W17213  30.437  20.727  14.305
48851W        W17214  25.655   5.856  14.357
48852W        W17215  25.579   6.291   2.343
48853W        W17216  16.746  22.699  13.323
48854W        W17217  14.753   4.761   1.252
48855W        W17218  30.104   4.764  14.476
48856W        W17219  38.055  41.850   2.891
48857W        W17220   7.670  33.424  11.953
48858W        W17221  22.687  43.432   2.869
48859W        W17222  15.688  30.650  13.991
48860W        W17223  38.347  20.758  13.991
48861W        W17224  32.511  39.326  12.828
48862W        W17225  28.966  14.811   9.628
48863W        W17226  37.565  26.492  12.092
48864W        W17227  43.289   0.941  10.421
48865W        W17228  32.114  31.958   0.771
48866W        W17229  38.559   4.227  12.834
48867W        W17230  26.662  26.514  14.823
48868W        W17231   8.187  18.098   0.419
48869W        W17232  40.536  19.711  13.974
48870W        W17233  29.509  28.114  13.892
48871W        W17234   8.400  21.654   3.285
48872W        W17235  29.061  23.693   2.316
48873W        W17236  44.402  40.939   4.346
48874W        W17237  14.682   8.175  11.963
48875W        W17238  13.641   1.877   1.708
48876W        W17239  44.931  27.054  11.459
48877W        W17240   1.259   5.361  14.339
48878W        W17241   6.275  18.653  14.841
48879W        W17242   8.755  41.947  11.986
48880W        W17243   8.819   5.835  11.891
48881W        W17244   8.216   7.761   0.916
48882W        W17245  40.915  43.884  12.347
48883W        W17246  34.557  37.564   0.462
48884W        W17247   4.766  34.108  10.562
48885W        W17248   5.797   6.243   0.825
48886W        W17249   8.708  42.020   4.738
48887W        W17250   0.833  36.463  11.926
48888W        W17251  43.331  42.340  10.605
48889W        W17252   0.334  37.380   0.954
48890W        W17253  43.867   6.711   3.747
48891W        W17254   8.267  42.524  14.927
48892W        W17255   3.884  30.920   4.334
48893W        W17256  14.300  26.490   3.288
48894W        W17257  20.650  15.178  14.319
48895W        W17258   7.683  14.341  10.607
48896W        W17259  32.626  18.174  10.574
48897W        W17260  23.128  30.416  13.371
48898W        W17261  40.522  27.567  14.406
48899W        W17262  30.939  31.928   2.196
48900W        W17263   4.251  25.643  14.335
48901W        W17264  18.561  10.273  11.411
48902W        W17265   6.339  36.914  11.480
48903W        W17266  17.075   6.316   4.281
48904W        W17267   6.829  41.438   2.225
48905W        W17268  44.378  27.977   5.187
48906W        W17269  23.119  39.036  13.046
48907W        W17270  33.519  22.718  11.045
48908W        W17271  39.873   9.889   1.743
48909W        W17272  19.776  42.922   1.840
48910W        W17273  35.001  32.075   4.322
48911W        W17274  25.190   0.939  13.946
48912W        W17275   1.913  23.046  12.388
48913W        W17276   6.309  12.716   1.827
48914W        W17277  16.734  37.467   4.122
48915W        W17278  29.610   8.387  14.456
48916W        W17279  19.225   3.248  10.450
48917W        W17280  31.045  20.528   1.918
48918W        W17281  18.107  39.375   3.146
48919W        W17282  27.488  35.474  11.986
48920W        W17283  20.583   8.898  11.972
48921W        W17284  18.763  34.511  12.019
48922W        W17285   3.750  40.989  12.355
48923W        W17286  17.744  37.409  10.442
48924W        W17287  12.718  29.634   2.189
48925W        W17288   3.798  16.617  13.383
48926W        W17289  40.902  10.139  11.417
48927W        W17290  31.139   7.750   3.243
48928W        W17291  18.226   3.912   1.829
48929W        W17292  18.133  41.788  12.907
48930W        W17293  37.838  26.979   1.845
48931W        W17294  31.129   1.821   3.774
48932W        W17295  41.038  12.795  13.045
48933W        W17296  35.500  44.853   0.816
48934W        W17297  12.741  25.012   1.394
48935W        W17298  12.283  19.750   0.399
48936W        W17299  41.999  40.851   1.303
48937W        W17300  43.836  24.562   4.627
48938W        W17301   4.251  37.492   1.355
48939W        W17302   8.871  26.498   4.725
48940W        W17303   4.866  31.461   4.219
48941W        W17304   5.397   1.942   2.280
48942W        W17305  13.264  31.998  14.444
48943W        W17306   5.893  31.611   1.301
48944W        W17307  11.234  39.423   3.667
48945W        W17308  13.725  35.884  10.528
48946W        W17309  12.697  37.380  10.529
48947W        W17310  18.095  24.019   2.375
48948W        W17311  39.926  10.212   4.257
48949W        W17312  18.063   5.806   0.285
48950W        W17313  17.091  26.177   0.960
48951W        W17314  29.097  26.201   0.477
48952W        W17315  24.984   5.325  10.637
48953W        W17316  29.923   7.903   3.807
48954W        W17317  40.966   1.363  13.511
48955W        W17318  35.562   3.763  11.885
48956W        W17319  33.968  32.592  13.803
48957W        W17320  33.600  33.047   1.844
48958W        W17321   4.937   0.761  11.933
48959W        W17322  13.787  23.181   2.353
48960W        W17323  15.167  32.569   4.154
48961W        W17324  11.326  43.777  10.948
48962W        W17325  17.753  10.362  12.833
48963W        W17326  41.017  38.403  14.910
48964W        W17327   1.942  24.066   2.183
48965W        W17328  17.559   0.918  11.869
48966W        W17329  30.450   1.464   2.819
48967W        W17330   0.836  42.800   0.467
48968W        W17331  20.227  44.391  10.985
48969W        W17332   9.308  17.240   0.943
48970W        W17333  28.679   2.301   2.714
48971W        W17334   1.970  17.781  11.474
48972W        W17335  17.740  19.626  12.849
48973W        W17336  36.048  39.362   3.866
48974W        W17337  33.465  35.909  10.080
48975W        W17338  26.603  16.791   4.778
48976W        W17339  18.567  39.508  13.854
48977W        W17340  23.051  38.057  14.794
48978W        W17341  40.964  20.091   0.814
48979W        W17342  21.618  30.098   3.805
48980W        W17343  43.512  43.476  10.440
48981W        W17344  34.429  27.013   0.351
48982W        W17345   0.898   6.881   0.950
48983W        W17346  12.247  30.995  10.908
48984W        W17347   0.874  44.827  13.005
48985W        W17348   0.837  41.419  13.395
48986W        W17349  11.805  38.076  14.951
48987W        W17350  22.587  10.152   3.299
48988W        W17351  41.517  34.499   4.125
48989W        W17352  18.689  41.022  12.895
48990W        W17353  21.577  43.459  10.580
48991W        W17354   5.753  24.227   3.825
48992W        W17355   0.275  42.786  12.872
48993W        W17356  21.065   6.699  14.443
48994W        W17357  11.645  24.039  13.010
48995W        W17358  40.870   0.905   3.217
48996W        W17359  11.832  32.923  13.347
48997W        W17360  11.691  20.723   3.773
48998W        W17361   7.385  21.665  13.990
48999W        W17362  27.460   6.352   0.458
49000W        W17363  20.192  43.928  12.897
49001W        W17364  43.292  28.568   4.660
49002W        W17365  17.719   8.690   3.204
49003W        W17366  28.045  17.692   2.839
49004W        W17367  20.732  14.716   4.639
49005W        W17368  32.905   2.232   1.752
49006W        W17369  26.012  44.011  12.866
49007W        W17370  39.486  37.851  13.803
49008W        W17371  18.646  38.956   5.082
49009W        W17372  10.292  27.052   4.827
49010W        W17373   8.847  37.425  12.398
49011W        W17374  42.459  29.963   0.901
49012W        W17375   7.238  15.732  12.978
49013W        W17376  36.860  28.038  13.965
49014W        W17377  29.670  10.871   0.956
49015W        W17378  42.777   6.767   1.880
49016W        W17379  20.157   2.821   1.348
49017W        W17380  13.343  40.985  11.942
49018W        W17381  26.179  23.665   0.312
49019W        W17382  42.422  38.847  10.106
49020W        W17383   4.436  22.675   5.780
49021W        W17384  42.470  31.520  11.434
49022W        W17385  43.347  13.831   1.443
49023W        W17386  31.027   8.762  13.950
49024W        W17387  38.965  27.137   4.816
49025W        W17388  16.144  34.865  11.006
49026W        W17389  20.190  24.633  10.923
49027W        W17390  40.468  24.081   4.743
49028W        W17391  18.262  41.027   1.354
49029W        W17392  36.910  27.538  10.897
49030W        W17393  20.146  34.092  12.835
49031W        W17394  23.692  12.722  14.839
49032W        W17395  39.878  36.023   4.770
49033W        W17396  20.593   7.356  11.089
49034W        W17397  25.468  38.565  11.515
49035W        W17398   8.691  31.611   1.887
49036W        W17399  13.693  38.487  14.764
49037W        W17400  27.119  33.905  11.452
49038W        W17401  28.968  21.173  10.572
49039W        W17402  42.488  19.743   5.111
49040W        W17403  29.078  16.239  14.824
49041W        W17404  11.223   2.280   0.267
49042W        W17405  41.799  18.157   4.809
49043W        W17406  40.548  25.688  10.552
49044W        W17407  13.182   3.711   9.493
49045W        W17408  37.577   6.680   0.318
49046W        W17409  33.571   4.731   2.282
49047W        W17410  22.744  33.544   3.752
49048W        W17411  16.736  27.486  14.294
49049W        W17412  22.548  36.484   4.747
49050W        W17413  17.075  32.524  11.590
49051W        W17414   5.822  22.709   2.893
49052W        W17415  14.136  30.984   1.386
49053W        W17416  19.545  20.228  11.952
49054W        W17417  32.908   3.789   2.261
49055W        W17418   5.370  35.437   3.215
49056W        W17419  14.771   0.407  13.796
49057W        W17420  14.334  24.986   3.275
49058W        W17421  34.065  39.511  13.878
49059W        W17422  21.101  43.318  14.785
49060W        W17423  11.173  38.464  14.770
49061W        W17424   4.313  36.444   2.861
49062W        W17425  27.617  23.000  10.890
49063W        W17426  33.394  15.732   2.897
49064W        W17427   2.878  44.870   3.239
49065W        W17428  34.909  27.532  12.949
49066W        W17429  30.942  27.616  14.399
49067W        W17430   1.282  43.883   5.571
49068W        W17431   5.407  22.024   4.724
49069W        W17432  15.201  12.810  12.563
49070W        W17433  10.171  33.497  10.404
49071W        W17434   1.851   9.739   1.887
49072W        W17435  27.166   5.435   1.271
49073W        W17436  26.495  38.560   2.696
49074W        W17437  17.195   8.810   1.726
49075W        W17438  13.604   6.185   3.328
49076W        W17439  15.201  30.616  10.573
49077W        W17440  23.644  17.168   1.758
49078W        W17441   4.270  21.675   1.435
49079W        W17442  24.538   7.771  10.405
49080W        W17443  17.581   5.227  13.365
49081W        W17444  12.653  15.150   0.430
49082W        W17445  23.156  38.571   0.786
49083W        W17446  41.795  14.704   1.320
49084W        W17447  15.588  11.721   3.292
49085W        W17448  44.951   8.741  13.454
49086W        W17449   0.302  35.585  13.512
49087W        W17450  41.477   2.387  11.965
49088W        W17451  16.202  41.450  11.867
49089W        W17452  33.561   3.775  12.517
49090W        W17453   2.954  15.595  11.939
49091W        W17454  36.999  12.736   4.132
49092W        W17455  27.069  25.697  14.322
49093W        W17456  39.964  38.563  14.456
49094W        W17457   5.903  19.162  12.958
49095W        W17458  26.542   7.244   4.321
49096W        W17459  21.636  26.038  14.015
49097W        W17460  10.708  12.700  10.977
49098W        W17461  34.987  28.037   2.360
49099W        W17462  33.979  19.694   2.219
49100W        W17463  37.015   4.338  11.874
49101W        W17464  36.529  42.798   1.792
49102W        W17465  22.072  43.309  14.896
49103W        W17466  17.576   4.284  11.947
49104W        W17467  41.955  22.599  12.571
49105W        W17468  25.694   4.941  13.365
49106W        W17469  42.306  27.121  12.997
49107W        W17470  23.033  15.585   4.787
49108W        W17471  18.291  15.677  14.423
49109W        W17472  28.561  18.290  13.356
49110W        W17473  43.483  26.624  14.831
49111W        W17474  40.987  42.848   5.122
49112W        W17475   3.867  10.767  10.991
49113W        W17476  40.928  30.628   4.612
49114W        W17477  30.455  12.307   4.227
49115W        W17478  26.644  39.865   0.247
49116W        W17479  12.626  15.670   3.271
49117W        W17480  42.924  25.659   5.197
49118W        W17481  12.832  14.593  11.112
49119W        W17482  29.579  10.769   0.354
49120W        W17483  17.300   6.821   3.796
49121W        W17484  26.151  14.818  12.474
49122W        W17485   1.955   8.356  10.522
49123W        W17486  19.594  10.634  11.074
49124W        W17487   1.475  37.552   1.701
49125W        W17488  30.593  22.022   1.827
49126W        W17489  43.515  21.263   2.419
49127W        W17490  40.046   6.723  14.317
49128W        W17491  16.108   1.289  12.009
49129W        W17492  31.438   5.888   0.394
49130W        W17493  15.698  22.134   1.428
49131W        W17494  24.007  12.301  13.387
49132W        W17495  14.678  24.567  11.014
49133W        W17496   3.858  18.704  12.011
49134W        W17497   5.239   9.271   0.330
49135W        W17498  33.939  26.490   2.677
49136W        W17499  13.737  42.777  14.865
49137W        W17500  34.106  15.231  14.771
49138W        W17501  27.474  16.127  13.352
49139W        W17502  22.247  24.102  10.442
49140W        W17503  17.234  27.004   2.271
49141W        W17504  17.242   9.882  10.964
49142W        W17505   6.418  13.276  12.419
49143W        W17506  40.949   8.817  12.907
49144W        W17507  31.116  30.636  13.013
49145W        W17508  37.068  37.575   4.198
49146W        W17509  16.260  36.462  12.481
49147W        W17510  16.108  31.563  12.085
49148W        W17511  37.547  15.154   2.738
49149W        W17512   1.426  10.186   1.406
49150W        W17513  23.557   5.884   2.349
49151W        W17514  26.205  41.853  13.453
49152W        W17515  23.703  20.668   4.261
49153W        W17516   5.213  43.373  14.918
49154W        W17517  27.048  38.065   2.210
49155W        W17518  25.478  42.422   0.482
49156W        W17519  42.347  10.817  13.020
49157W        W17520  42.392  40.360   1.916
49158W        W17521  22.707  39.045   4.186
49159W        W17522  43.838  13.654  13.817
49160W        W17523  34.074  20.683  12.909
49161W        W17524  28.095  10.143   4.718
49162W        W17525  30.933   9.857   2.709
49163W        W17526   2.893  27.173   0.381
49164W        W17527  19.198  22.651   4.706
49165W        W17528  17.771  14.330   0.861
49166W        W17529   2.237  42.446   1.898
49167W        W17530  36.963  36.917   0.355
49168W        W17531  36.441  27.466  13.955
49169W        W17532  19.571  19.770   2.843
49170W        W17533  28.164   8.161  14.287
49171W        W17534  33.997  15.822   0.928
49172W        W17535  25.013  35.522   0.811
49173W        W17536  39.470   0.366   2.903
49174W        W17537  19.126  23.208   3.183
49175W        W17538  10.798  33.584   0.346
49176W        W17539  43.881  35.904   1.703
49177W        W17540  10.800   5.703  13.349
49178W        W17541  16.310   3.756   3.744
49179W        W17542  22.162  43.389  10.624
49180W        W17543   2.387   2.376   0.253
49181W        W17544  15.625   4.885   1.737
49182W        W17545  12.754  12.257   0.402
49183W        W17546  18.175  17.585   2.881
49184W        W17547  43.348  31.946   0.870
49185W        W17548   4.313  44.486  14.514
49186W        W17549   3.721   3.713  13.528
49187W        W17550   4.905  13.761   3.344
49188W        W17551  42.015  31.496   1.381
49189W        W17552  12.195   5.710   1.214
49190W        W17553   8.184   5.694  11.549
49191W        W17554  37.343  22.109  11.606
49192W        W17555  33.060  38.874  10.566
49193W        W17556  15.201  17.266  14.315
49194W        W17557  21.140   3.726  14.016
49195W        W17558   6.294  28.947   2.219
49196W        W17559   3.894  32.090   1.320
49197W        W17560  39.481   3.905  11.591
49198W        W17561  35.887  31.081  13.461
49199W        W17562  34.085  11.689   0.959
49200W        W17563  40.860   4.275  11.419
49201W        W17564  44.860   0.257  13.388
49202W        W17565  15.188  27.571   3.786
49203W        W17566  35.602  27.048   2.372
49204W        W17567  29.615  25.528  11.571
49205W        W17568  36.576  43.343   1.422
49206W        W17569  24.979  22.602  12.025
49207W        W17570  21.239  33.111  12.055
49208W        W17571  10.370  20.698   3.837
49209W        W17572  38.037  12.344   4.740
49210W        W17573  31.909   9.847   3.191
49211W        W17574  41.969  22.093  11.120
49212W        W17575  28.470   9.674  11.903
49213W        W17576  10.653  41.900   1.311
49214W        W17577  27.020  41.342   3.729
49215W        W17578  19.709   0.813   5.310
49216W        W17579  34.445  17.738  11.887
49217W        W17580  35.419   4.296   3.638
49218W        W17581   8.220   1.949   0.441
49219W        W17582  36.460  18.668  14.513
49220W        W17583   3.949  11.691  11.124
49221W        W17584  42.285  34.893  13.468
49222W        W17585   9.338  22.091  13.843
49223W        W17586  10.780  13.149  12.032
49224W        W17587   8.310  44.788  14.381
49225W        W17588  36.894  17.208  12.824
49226W        W17589   7.674   9.889  10.644
49227W        W17590  41.411  20.658  11.544
49228W        W17591  22.530  33.888  11.945
49229W        W17592  10.320  43.783  10.425
49230W        W17593   7.691  25.011  10.476
49231W        W17594  43.270  25.610   2.747
49232W        W17595  19.633   7.740   0.750
49233W        W17596  15.648  23.008   3.851
49234W        W17597  37.388  31.510   0.768
49235W        W17598  10.819  16.166   3.197
49236W        W17599  25.471   0.776  11.988
49237W        W17600  12.627  18.679   3.836
49238W        W17601  16.280  14.203   0.890
49239W        W17602  22.528   9.220   4.160
49240W        W17603  18.072  12.353   4.251
49241W        W17604  36.390  34.588  12.948
49242W        W17605  27.651  43.309   4.155
49243W        W17606  32.937  37.549   1.872
49244W        W17607  34.471  44.790   0.396
49245W        W17608   1.749   8.712  11.104
49246W        W17609  44.768   2.873   0.337
49247W        W17610  30.935  30.040   0.282
49248W        W17611  24.224  43.411   1.903
49249W        W17612  18.214  26.585  10.955
49250W        W17613  19.058  42.926  10.524
49251W        W17614   7.183  21.234  13.040
49252W        W17615  30.964  19.725   2.186
49253W        W17616  34.062  10.310   0.276
49254W        W17617  20.661   2.376   2.278
49255W        W17618   0.808  17.605   9.949
49256W        W17619  21.120  26.203  11.032
49257W        W17620  12.698  10.790   3.172
49258W        W17621  17.635   7.187  10.908
49259W        W17622  39.912  33.618   1.927
49260W        W17623  39.382  13.641  11.532
49261W        W17624  39.834  33.384   4.113
49262W        W17625   5.398   7.756  14.933
49263W        W17626   5.393   3.348   0.386
49264W        W17627   6.806  10.866  11.536
49265W        W17628   7.333  40.355   1.907
49266W        W17629  11.194  35.369  12.526
49267W        W17630   2.387   4.886  10.942
49268W        W17631  15.749  30.413  13.509
49269W        W17632  31.922  34.504  12.854
49270W        W17633  36.536  26.646  10.064
49271W        W17634  22.601  39.038  10.503
49272W        W17635  22.567  20.134  11.871
49273W        W17636  35.091   2.752  13.909
49274W        W17637  14.136  28.086   4.178
49275W        W17638  30.010   3.830  11.531
49276W        W17639  33.993  31.907  12.864
49277W        W17640  13.833  44.976   2.686
49278W        W17641   1.240  37.842  14.981
49279W        W17642  32.022  25.163  11.471
49280W        W17643   5.844  18.215   1.263
49281W        W17644  17.193  26.140  10.963
49282W        W17645  39.523  25.963  10.479
49283W        W17646  14.790  22.045   4.616
49284W        W17647  38.883  12.709  13.006
49285W        W17648  33.535  16.241   4.666
49286W        W17649  33.494  12.772  14.879
49287W        W17650  37.534  38.968   2.251
49288W        W17651   6.249   5.241  13.809
49289W        W17652  13.201  31.641   0.903
49290W        W17653  12.629  22.033  13.454
49291W        W17654  42.480  39.934   3.682
49292W        W17655  11.833  37.489   3.224
49293W        W17656  38.540  43.360   2.191
49294W        W17657  35.474   0.895   4.789
49295W        W17658  43.778  10.328   3.161
49296W        W17659   7.273   8.243  12.380
49297W        W17660  44.272  16.786   3.204
49298W        W17661  22.158   6.888   2.827
49299W        W17662  22.541   9.286  14.782
49300W        W17663  25.656  13.646   3.220
49301W        W17664   8.818  41.958   2.875
49302W        W17665  40.354  34.113  14.897
49303W        W17666   0.972   2.281   0.853
49304W        W17667  16.734  15.221  12.037
49305W        W17668  44.887  39.552  11.016
49306W        W17669  29.105  19.752   1.331
49307W        W17670   8.260  11.246   4.312
49308W        W17671  11.170   8.882   0.380
49309W        W17672   5.926  16.131  12.340
49310W        W17673  21.614  30.123  14.925
49311W        W17674  31.472  12.799  14.938
49312W        W17675  32.635  31.446  10.565
49313W        W17676  43.857   6.844  14.288
49314W        W17677  18.160   2.889  14.833
49315W        W17678  27.647  11.309   2.844
49316W        W17679  17.216  27.145   0.448
49317W        W17680   6.372  27.467   2.672
49318W        W17681  27.994  13.337  14.835
49319W        W17682  44.007   1.254  14.412
49320W        W17683  23.168   1.297  11.103
49321W        W17684   5.815  27.116   0.256
49322W        W17685  15.687  34.940   2.197
49323W        W17686  41.815  40.993   0.418
49324W        W17687  32.576   4.826  12.464
49325W        W17688   3.950  34.012  11.041
49326W        W17689  43.499  37.500   2.798
49327W        W17690  27.001  35.975   5.292
49328W        W17691  20.680  17.701  14.760
49329W        W17692  12.642  38.401  11.442
49330W        W17693   1.460  31.923  14.780
49331W        W17694  11.633   6.278   4.673
49332W        W17695  41.959  10.217  13.534
49333W        W17696  18.637   8.314   2.405
49334W        W17697   8.813  11.665   2.305
49335W        W17698  16.664  34.063   2.261
49336W        W17699  18.733  37.510   4.736
49337W        W17700  36.363   9.770  14.459
49338W        W17701   9.348  16.726   1.760
49339W        W17702  34.002   1.466   0.312
49340W        W17703  22.696  35.105   1.229
49341W        W17704  40.390  17.307   0.831
49342W        W17705   5.285  21.155   2.391
49343W        W17706  41.952  11.320   0.880
49344W        W17707  34.054  11.374  10.643
49345W        W17708  40.033  15.763  11.871
49346W        W17709  36.954  11.291  10.928
49347W        W17710  35.409  25.504  11.001
49348W        W17711  17.567  21.672   4.747
49349W        W17712  13.663  27.963  10.937
49350W        W17713  10.668  25.977   2.690
49351W        W17714  41.458  42.999  14.504
49352W        W17715  12.176  17.271  10.528
49353W        W17716  43.918  34.982  11.893
49354W        W17717  39.525   5.409  10.913
49355W        W17718  30.480  30.960   1.774
49356W        W17719  22.510  25.640  13.485
49357W        W17720  13.343  32.010  11.417
49358W        W17721  44.994  41.457  13.986
49359W        W17722  31.104  21.687  11.022
49360W        W17723  29.115  41.849  11.036
49361W        W17724   1.461  13.127  13.035
49362W        W17725   9.152  37.348  11.982
49363W        W17726  15.686   3.319  13.003
49364W        W17727  28.110  20.707  10.982
49365W        W17728  25.139  44.822   4.810
49366W        W17729   1.937  24.569   3.711
49367W        W17730   4.706  33.914   3.668
49368W        W17731  27.167  29.161   1.235
49369W        W17732  10.798   6.368   0.281
49370W        W17733   7.283  43.842   2.666
49371W        W17734  30.007  29.433  14.319
49372W        W17735  35.082  18.178   0.926
49373W        W17736  20.658  39.974  12.421
49374W        W17737  44.504  14.277  14.854
49375W        W17738  41.459  30.099   0.793
49376W        W17739  24.478  32.080  14.838
49377W        W17740   8.695   2.358  13.973
49378W        W17741  33.060  40.359   2.374
49379W        W17742  33.997  13.323   1.309
49380W        W17743  25.998  44.825  14.399
49381W        W17744  20.239   7.705  10.476
49382W        W17745  27.005  38.994  12.361
49383W        W17746  14.253  17.247   4.267
49384W        W17747  25.696  37.958  10.918
49385W        W17748  32.955  17.787  12.431
49386W        W17749  30.566   5.785   0.476
49387W        W17750  29.582  26.507   3.218
49388W        W17751  17.646  25.575   0.438
49389W        W17752  19.558  38.561   0.377
49390W        W17753  38.556  23.165  13.887
49391W        W17754   6.692  15.209   1.273
49392W        W17755  39.961   3.759   2.690
49393W        W17756  37.917  37.922  13.539
49394W        W17757  15.265  14.610   3.310
49395W        W17758   7.708   0.901  11.525
49396W        W17759  15.582  32.029   1.753
49397W        W17760  42.781  12.698   3.649
49398W        W17761   8.879   0.903   2.242
49399W        W17762  10.633  23.200  13.861
49400W        W17763  40.548  18.220   0.728
49401W        W17764   7.389   4.917   2.711
49402W        W17765  43.401   3.284  12.461
49403W        W17766  12.338  15.817   1.877
49404W        W17767   9.667  41.512   3.151
49405W        W17768  19.555  28.591  11.402
49406W        W17769  28.134  20.525  10.592
49407W        W17770  27.952   9.283  11.026
49408W        W17771  39.418  35.514  11.023
49409W        W17772  28.643  41.829   2.751
49410W        W17773   2.963  23.607   3.659
49411W        W17774  36.899  15.649   2.708
49412W        W17775  33.485  30.911   4.286
49413W        W17776  42.408  36.541  10.133
49414W        W17777  27.140  32.398   1.784
49415W        W17778  43.324  35.587  11.587
49416W        W17779  12.742  19.086   3.171
49417W        W17780  36.563  36.466  14.902
49418W        W17781   5.368  38.366   4.821
49419W        W17782  43.362  23.989  11.465
49420W        W17783  32.433   4.353   4.640
49421W        W17784  30.499  40.405  14.783
49422W        W17785  26.580   8.192  14.448
49423W        W17786  10.658  42.991   4.226
49424W        W17787   7.401  20.609  11.475
49425W        W17788  18.129   9.702   4.695
49426W        W17789   0.409  42.396  12.907
49427W        W17790   9.719  26.979   1.747
49428W        W17791  18.692  41.968  12.851
49429W        W17792  15.296  42.331   4.163
49430W        W17793   6.195  16.257  10.625
49431W        W17794   6.280  19.103   0.733
49432W        W17795  13.205  36.071   0.350
49433W        W17796  23.007  10.801  13.879
49434W        W17797  32.085  39.008  11.428
49435W        W17798  31.593   7.294   4.631
49436W        W17799  43.452  21.251  12.576
49437W        W17800  24.552  25.125   1.729
49438W        W17801  25.108  30.157   3.791
49439W        W17802  11.641  23.220   0.379
49440W        W17803  21.601  41.328  13.481
49441W        W17804  11.167  39.933  10.578
49442W        W17805   8.848  20.193   0.283
49443W        W17806   8.856  34.875   4.218
49444W        W17807  33.520  25.201   0.328
49445W        W17808  37.342  44.880  12.469
49446W        W17809   8.819   0.966  12.499
49447W        W17810  32.507  22.565  14.452
49448W        W17811  18.589  37.004   0.305
49449W        W17812  33.411   8.362   0.411
49450W        W17813   3.355   6.377  13.411
49451W        W17814  30.911  17.200   1.898
49452W        W17815  38.918  19.133   0.391
49453W        W17816   1.476  26.699  14.395
49454W        W17817  31.023  29.451  12.965
49455W        W17818   2.811  14.757  14.423
49456W        W17819  39.836   5.754   0.787
49457W        W17820  35.965  19.046  11.953
49458W        W17821  26.584   7.247  13.009
49459W        W17822  22.733  20.729  12.055
49460W        W17823  34.573  41.881  14.341
49461W        W17824  43.912  26.666   5.107
49462W        W17825  29.071  22.666   0.458
49463W        W17826  15.327  18.681   4.300
49464W        W17827   3.323  41.000  14.861
49465W        W17828  36.082  28.634  12.463
49466W        W17829  31.458  12.226   1.742
49467W        W17830  39.048  40.976   2.381
49468W        W17831   0.433  18.695   2.725
49469W        W17832  32.964   3.296   5.120
49470W        W17833  18.666  30.109  10.985
49471W        W17834  16.080  36.040  12.986
49472W        W17835  37.565  28.587   2.382
49473W        W17836   3.284  26.515   2.860
49474W        W17837  22.586  16.613   1.267
49475W        W17838  19.055  43.422   4.317
49476W        W17839  29.057  20.748  12.399
49477W        W17840  30.098   1.394   3.287
49478W        W17841  30.509  31.413  14.991
49479W        W17842  26.470  32.117   1.349
49480W        W17843  15.112  24.655  14.866
49481W        W17844  13.718   4.210   5.139
49482W        W17845   5.910  19.645  13.477
49483W        W17846  23.520  32.526   3.828
49484W        W17847  25.673   4.781   3.773
49485W        W17848  33.897  44.311  14.375
49486W        W17849  22.743   3.361  11.023
49487W        W17850  14.662   1.913  10.157
49488W        W17851  41.977  22.187  13.321
49489W        W17852  32.924  31.910  13.842
49490W        W17853   3.451  21.706   1.353
49491W        W17854  18.207  23.064   1.292
49492W        W17855  25.008  19.661  14.280
49493W        W17856  18.130  11.235   1.441
49494W        W17857  23.688  17.097   2.889
49495W        W17858   6.312  18.662   1.408
49496W        W17859   4.902  31.561   3.701
49497W        W17860  13.144  17.610  12.535
49498W        W17861  26.024   2.961  11.539
49499W        W17862  11.632  18.120   3.184
49500W        W17863  18.100   0.480   3.660
49501W        W17864   2.314  18.060  10.607
49502W        W17865  13.837  19.566   2.270
49503W        W17866  36.030  38.865  11.986
49504W        W17867  35.427   3.825  10.629
49505W        W17868  24.184  43.328   0.300
49506W        W17869  31.978   9.251  11.544
49507W        W17870   8.803  13.642  14.791
49508W        W17871  27.969  30.647  14.396
49509W        W17872  30.653  21.123  12.047
49510W        W17873  18.090  23.993  10.542
49511W        W17874  39.517  44.476   1.298
49512W        W17875  30.469  34.071   3.680
49513W        W17876  43.917  42.399   2.861
49514W        W17877  16.292  18.243   0.906
49515W        W17878  10.276  13.163  14.357
49516W        W17879  29.569  35.859  10.010
49517W        W17880  12.687  43.001  12.909
49518W        W17881  25.582  43.458  12.434
49519W        W17882  43.772  40.925  14.329
49520W        W17883  13.274  13.625  11.891
49521W        W17884   3.442  13.125   2.225
49522W        W17885  35.929  33.393   0.778
49523W        W17886  34.900   3.925   3.700
49524W        W17887   1.288   6.752   3.272
49525W        W17888  18.286  12.746  12.859
49526W        W17889   6.262  39.993   4.131
49527W        W17890  42.424  37.836   1.711
49528W        W17891  30.143   9.753   3.827
49529W        W17892  39.423  29.144  13.466
49530W        W17893  36.457  27.087   4.729
49531W        W17894  39.391  37.546  10.476
49532W        W17895  29.662   4.934   1.358
49533W        W17896  14.164   6.853   1.846
49534W        W17897  25.027  29.097   1.750
49535W        W17898  20.611  26.004   2.699
49536W        W17899  37.530  21.607   2.835
49537W        W17900  24.577  11.163  11.576
49538W        W17901  25.617   5.875   3.191
49539W        W17902  40.477  17.746   3.386
49540W        W17903  34.445  34.071  11.452
49541W        W17904  35.495  32.053   0.351
49542W        W17905  30.930  15.607  11.946
49543W        W17906  37.543   0.480  13.802
49544W        W17907   6.772  25.517   0.862
49545W        W17908  14.804  27.954   3.240
49546W        W17909   7.747  10.852  13.320
49547W        W17910  26.131  41.433   3.271
49548W        W17911   8.789  38.428  10.414
49549W        W17912  10.738  21.157  10.093
49550W        W17913  29.577  37.496  10.642
49551W        W17914   1.385  37.900  10.528
49552W        W17915  39.439  26.113   2.236
49553W        W17916  21.231   6.903   0.767
49554W        W17917  44.428   2.249   2.371
49555W        W17918  23.223  31.908   0.756
49556W        W17919  24.048  42.516  11.395
49557W        W17920  26.036  37.456  12.072
49558W        W17921  14.312   3.282   1.908
49559W        W17922   1.877  40.014   4.131
49560W        W17923  17.598  20.197   0.270
49561W        W17924  10.866   6.677  10.538
49562W        W17925  41.976  43.997   0.807
49563W        W17926  25.035  23.625  11.116
49564W        W17927  20.133   6.252   2.663
49565W        W17928   7.262  20.249  14.371
49566W        W17929  26.630  13.722  14.877
49567W        W17930  28.477  27.137   2.378
49568W        W17931   3.769  14.768   3.346
49569W        W17932  39.830  16.654  11.124
49570W        W17933  13.282   6.689  12.558
49571W        W17934   5.743   0.260  13.544
49572W        W17935  13.188  38.561   4.152
49573W        W17936  17.108  15.742  10.959
49574W        W17937   0.337  16.170   1.367
49575W        W17938   2.381  11.217   0.296
49576W        W17939   3.812  21.069  10.072
49577W        W17940  35.087  14.698  10.427
49578W        W17941   0.803   6.827  14.436
49579W        W17942   3.739  43.301  11.541
49580W        W17943  38.358  24.672  14.368
49581W        W17944   8.842  40.020  14.001
49582W        W17945  32.985  39.487  12.568
49583W        W17946   0.845  25.116   4.801
49584W        W17947  13.710  24.977   1.416
49585W        W17948  20.156  19.742   0.800
49586W        W17949   0.375   4.905   4.694
49587W        W17950   2.399  16.587  13.059
49588W        W17951  10.831  36.848   3.168
49589W        W17952  33.021  11.289  10.442
49590W        W17953   8.742  21.056  14.434
49591W        W17954  43.457  26.504  10.521
49592W        W17955  35.555  32.554  12.522
49593W        W17956  23.688  43.903  10.472
49594W        W17957  22.560   8.829   4.777
49595W        W17958  34.071  18.111   4.637
49596W        W17959  41.503  15.657  10.523
49597W        W17960  30.563  10.730  12.528
49598W        W17961  31.068   7.205   4.255
49599W        W17962  38.433  40.839  13.312
49600W        W17963  42.365  43.831   1.701
49601W        W17964  11.674  33.556  13.481
49602W        W17965  37.557   4.221  14.405
49603W        W17966  14.638  42.822  13.950
49604W        W17967  29.550  13.183  11.970
49605W        W17968  22.539  30.604  10.548
49606W        W17969  43.308  15.154  12.373
49607W        W17970  36.084  20.586  14.457
49608W        W17971  36.923  10.679  14.370
49609W        W17972  13.288  11.717   4.810
49610W        W17973  36.553  12.273  14.914
49611W        W17974  18.626  15.641   2.843
49612W        W17975  36.508  24.178   1.439
49613W        W17976   2.781  17.609  12.096
49614W        W17977  24.707  29.172   2.664
49615W        W17978  31.451  34.891  14.993
49616W        W17979   9.299  42.855  10.488
49617W        W17980  29.945  26.561  11.934
49618W        W17981  35.545  34.611  14.027
49619W        W17982  16.119  29.666  12.959
49620W        W17983   1.940   9.803  14.986
49621W        W17984  17.657  36.868   0.936
49622W        W17985   4.305  34.905  13.498
49623W        W17986  33.459  10.144  12.436
49624W        W17987  22.022  10.218   3.360
49625W        W17988  14.770   3.402   0.346
49626W        W17989  20.177   0.296   2.765
49627W        W17990  33.004  29.664   5.104
49628W        W17991  19.537   1.902  14.964
49629W        W17992  32.592  44.944   2.798
49630W        W17993  17.227  16.767   3.818
49631W        W17994  40.009  34.867  13.826
49632W        W17995  30.627  35.456   3.276
49633W        W17996  11.725  25.989   0.391
49634W        W17997   0.873  21.062   4.620
49635W        W17998   7.285  24.984  11.451
49636W        W17999  31.037  12.154   0.909
49637W        W18000  19.140  16.113   2.185
49638W        W18001  19.227   8.794   0.246
49639W        W18002   1.919  35.377   1.385
49640W        W18003  16.287  27.985  12.466
49641W        W18004  33.433  13.772  14.830
49642W        W18005  31.089  20.233  11.397
49643W        W18006  37.516  29.481  11.372
49644W        W18007   7.859  36.461  10.583
49645W        W18008   8.310   2.352  14.821
49646W        W18009  26.969  24.691  12.033
49647W        W18010   3.941  13.829  12.932
49648W        W18011  25.078  21.564   3.703
49649W        W18012  36.438  41.395   0.368
49650W        W18013   5.918  34.428  14.920
49651W        W18014  11.370  22.141   1.932
49652W        W18015  16.313   0.980  10.546
49653W        W18016  43.804  27.506   0.961
49654W        W18017  26.096  26.598   2.851
49655W        W18018  30.133  32.916  12.962
49656W        W18019   9.295  36.532  14.979
49657W        W18020  12.802  21.047  14.502
49658W        W18021  40.967  21.601   1.860
49659W        W18022  27.067  16.282   9.508
49660W        W18023  24.629   9.839   3.292
49661W        W18024  34.112  17.685   1.733
49662W        W18025  33.410  30.089   3.731
49663W        W18026  38.540  43.401  11.541
49664W        W18027  13.639  19.166   1.780
49665W        W18028  19.601  43.279   4.274
49666W        W18029  27.185  38.513   0.395
49667W        W18030  37.420  11.168   5.274
49668W        W18031  17.150  34.957  12.935
49669W        W18032  38.430  23.703   4.325
49670W        W18033  37.549   1.894   3.720
49671W        W18034  17.269  39.405  13.509
49672W        W18035   8.888  18.553  12.464
49673W        W18036   5.439  16.710   0.926
49674W        W18037  24.117  17.618  14.876
49675W        W18038   7.386  16.147   2.737
49676W        W18039  10.788   0.247  13.528
49677W        W18040  18.217  25.131  11.454
49678W        W18041  30.648   1.249   3.221
49679W        W18042  21.245   7.699  12.983
49680W        W18043  28.948   2.908   3.189
49681W        W18044  18.109  41.011  10.909
49682W        W18045  41.981  13.824   1.371
49683W        W18046  40.923  30.497  13.820
49684W        W18047  33.544   4.783   1.382
49685W        W18048  37.909  20.698  11.962
49686W        W18049   0.937   3.797  13.404
49687W        W18050  11.718   2.252   4.746
49688W        W18051  22.146  13.805  11.076
49689W        W18052  25.468  17.600  14.026
49690W        W18053  37.378  22.515   1.287
49691W        W18054   2.340  10.361   2.857
49692W        W18055  29.928  17.756   1.751
49693W        W18056  25.509  34.100  11.465
49694W        W18057  33.930  11.625   3.194
49695W        W18058  26.033  42.508  12.967
49696W        W18059  39.903   9.707  11.979
49697W        W18060   8.713  23.118   1.230
49698W        W18061   0.467  36.918   3.755
49699W        W18062  35.964  22.674  11.106
49700W        W18063  41.505  23.589  12.488
49701W        W18064  31.927  36.903  11.978
49702W        W18065  17.240  15.662   3.659
49703W        W18066  18.103  37.423   5.191
49704W        W18067   2.293   5.768   0.437
49705W        W18068   9.676   8.171  13.987
49706W        W18069  12.632  19.715  11.094
49707W        W18070  25.531  21.038  10.525
49708W        W18071  25.515  36.416  12.540
49709W        W18072  28.965  29.136  10.454
49710W        W18073  43.943  21.751  12.857
49711W        W18074  21.753   5.876  13.007
49712W        W18075  25.019  19.690  11.931
49713W        W18076  42.475  18.195   3.305
49714W        W18077  33.388  15.280   1.254
49715W        W18078  12.758  44.333   0.471
49716W        W18079   4.804   8.776   3.317
49717W        W18080  19.722   7.756   4.679
49718W        W18081  22.034   2.241  14.001
49719W        W18082  30.517  41.448  12.852
49720W        W18083  30.560  44.386  13.387
49721W        W18084   6.309  12.149  13.023
49722W        W18085  14.603  32.110   3.341
49723W        W18086  35.955  35.062  11.556
49724W        W18087  10.737  39.367  14.842
49725W        W18088  31.001  15.259   4.153
49726W        W18089   9.183  24.678  13.321
49727W        W18090  30.931  18.236  10.082
49728W        W18091   4.942   0.918   0.941
49729W        W18092  26.477  24.600   3.336
49730W        W18093  44.444  29.952   1.257
49731W        W18094  33.493  41.371   1.211
49732W        W18095  24.119  14.236   3.165
49733W        W18096  39.994   5.688  12.940
49734W        W18097  41.388  32.614   0.367
49735W        W18098  27.535  11.248   0.903
49736W        W18099  33.037  22.064   0.261
49737W        W18100  38.545  34.004   0.280
49738W        W18101  16.661  12.135  10.638
49739W        W18102  20.262  36.396  14.448
49740W        W18103  28.504  14.827   2.681
49741W        W18104  18.581  31.493   4.637
49742W        W18105  35.010  11.728  10.977
49743W        W18106  40.394  22.744  13.492
49744W        W18107  43.925  38.462  12.467
49745W        W18108  40.981  33.995   3.237
49746W        W18109  28.000  10.662  13.918
49747W        W18110  18.179  21.162   1.252
49748W        W18111   5.733  28.082   4.142
49749W        W18112  41.481  36.361   2.275
49750W        W18113  21.169   4.328   3.648
49751W        W18114  37.990  41.889  12.499
49752W        W18115  31.911   1.855  12.892
49753W        W18116  38.055  33.060  12.384
49754W        W18117  32.024  37.984  10.643
49755W        W18118  35.412  15.693  11.875
49756W        W18119  42.302  38.509  14.766
49757W        W18120   7.746   3.271   4.692
49758W        W18121   7.817  39.851   2.727
49759W        W18122  43.864  15.613  12.377
49760W        W18123  10.159  25.040  11.936
49761W        W18124  25.618  31.469  11.953
49762W        W18125  29.973  42.480  11.951
49763W        W18126   3.927  27.084   3.211
49764W        W18127  40.546   5.872  14.463
49765W        W18128  33.099  32.890   4.714
49766W        W18129  15.294   6.766   1.300
49767W        W18130  41.880  15.085  11.010
49768W        W18131  15.151   0.854   0.769
49769W        W18132  14.761   2.410  14.986
49770W        W18133  13.640  42.402   1.786
49771W        W18134  18.730  10.170   3.785
49772W        W18135   3.864  16.091  14.851
49773W        W18136   7.344  43.396   3.345
49774W        W18137   4.360   8.753   2.816
49775W        W18138  23.693  22.615   1.353
49776W        W18139  33.457  27.535   2.339
49777W        W18140  25.594  19.690  10.639
49778W        W18141  12.142   0.949  14.027
49779W        W18142  18.623  31.978  13.039
49780W        W18143  30.492  43.427   4.302
49781W        W18144  42.993  32.890  11.998
49782W        W18145  36.960  44.442   0.473
49783W        W18146  28.019   8.794  13.541
49784W        W18147  43.815  15.623   4.760
49785W        W18148   1.280   5.918  14.284
49786W        W18149  17.657  19.721  14.813
49787W        W18150  38.870  12.163   0.406
49788W        W18151  29.112  12.179   4.294
49789W        W18152  22.223  15.274  14.321
49790W        W18153  29.664  15.604   1.790
49791W        W18154  38.453  19.556   2.307
49792W        W18155   7.300   8.279  10.548
49793W        W18156  37.922  21.017   0.380
49794W        W18157   5.402  26.522  14.307
49795W        W18158  26.466  33.081   0.465
49796W        W18159  30.633  20.144  14.381
49797W        W18160  42.336  28.106  14.777
49798W        W18161  14.709  41.823  11.054
49799W        W18162   0.811  11.730   3.643
49800W        W18163  32.454  20.172   0.293
49801W        W18164  27.116   9.778  13.500
49802W        W18165  30.003  44.913  13.920
49803W        W18166  38.389   1.835   1.223
49804W        W18167  10.158  30.592   0.340
49805W        W18168  26.501  40.432  13.031
49806W        W18169  21.675  21.695   1.312
49807W        W18170  23.631  14.730  11.576
49808W        W18171  31.598   3.911  11.981
49809W        W18172  18.192  16.658  14.374
49810W        W18173   0.779   6.801   3.203
49811W        W18174   6.823  25.626  12.077
49812W        W18175   4.327   9.294  14.431
49813W        W18176  42.891  12.853   2.252
49814W        W18177  32.907  25.545   3.263
49815W        W18178  34.059  36.394  14.883
49816W        W18179   0.465  26.000  11.463
49817W        W18180  29.569  37.035  12.562
49818W        W18181  14.775  19.702   3.716
49819W        W18182  27.513  24.121   3.236
49820W        W18183  16.239   1.249  10.445
49821W        W18184  44.778  19.738  14.939
49822W        W18185  36.534   1.824  12.827
49823W        W18186  18.599   1.894   1.378
49824W        W18187  11.681  32.889  11.873
49825W        W18188  19.277  40.466  11.873
49826W        W18189  16.198  39.462  12.857
49827W        W18190  15.218  22.563   2.333
49828W        W18191  38.385  25.587  11.065
49829W        W18192  12.748  28.017  11.932
49830W        W18193  19.777  38.017  13.407
49831W        W18194  21.638   3.227  13.981
49832W        W18195   0.374  40.457   3.842
49833W        W18196  16.183  30.464  12.988
49834W        W18197   4.705  14.315  11.596
49835W        W18198  43.909   2.458  10.560
49836W        W18199  42.820  38.467   1.274
49837W        W18200  15.652   2.252   0.728
49838W        W18201  11.216   6.772  11.573
49839W        W18202   4.265  14.174  10.424
49840W        W18203  12.804  43.010   3.809
49841W        W18204  32.559  42.834  13.471
49842W        W18205  34.901  21.148   0.481
49843W        W18206   2.847   5.868   1.385
49844W        W18207  22.073  15.718   3.847
49845W        W18208   5.209  31.602   3.686
49846W        W18209   5.432  13.145  14.019
49847W        W18210  12.741   7.416  11.956
49848W        W18211  30.095  44.906   3.856
49849W        W18212  43.989  24.200   2.354
49850W        W18213  39.467   8.875  11.445
49851W        W18214  11.332  16.107  14.838
49852W        W18215  33.622   0.461   2.298
49853W        W18216   6.838  26.632  11.402
49854W        W18217  15.249  18.147   0.854
49855W        W18218  35.873  39.486   1.771
49856W        W18219   2.399  30.958   4.737
49857W        W18220   2.355  17.618  14.890
49858W        W18221  44.969  16.165  12.839
49859W        W18222   0.380  29.549   2.742
49860W        W18223  35.392  29.563   1.899
49861W        W18224  25.687  44.861  11.126
49862W        W18225  36.917  29.981   4.257
49863W        W18226  28.587   1.318  12.443
49864W        W18227  42.955   8.791  13.394
49865W        W18228  33.556   5.919  11.593
49866W        W18229  25.510  35.911  14.337
49867W        W18230  23.122   3.888   0.351
49868W        W18231  12.191   4.418   5.691
49869W        W18232   0.450   8.857  11.053
49870W        W18233  14.121  33.934  14.511
49871W        W18234  27.536  33.891   0.961
49872W        W18235  31.591  36.868  12.482
49873W        W18236  43.783  37.452  13.368
49874W        W18237  37.447  38.973  11.374
49875W        W18238  12.794  17.657   4.700
49876W        W18239  38.968  12.199  12.526
49877W        W18240  28.170  11.748   5.159
49878W        W18241   6.409   1.889   3.866
49879W        W18242  39.999  27.550   0.759
49880W        W18243  30.635  36.955  13.434
49881W        W18244  36.084  36.480   1.857
49882W        W18245  36.045  35.078  13.822
49883W        W18246  18.263   7.868  14.302
49884W        W18247  24.098  36.386  11.115
49885W        W18248  28.158  28.676  13.846
49886W        W18249  12.305  29.514  13.951
49887W        W18250  42.426  29.131  12.432
49888W        W18251  19.571  43.956   9.568
49889W        W18252   7.746  38.532   4.199
49890W        W18253   0.410  24.565  13.815
49891W        W18254  14.806  23.710  10.601
49892W        W18255   2.402  13.689  11.944
49893W        W18256  25.478   1.399  12.859
49894W        W18257   0.781  35.981  12.417
49895W        W18258  22.664  42.432  11.443
49896W        W18259  35.049  14.190   5.223
49897W        W18260  34.066  27.536  13.858
49898W        W18261  26.497  10.873   4.623
49899W        W18262   4.302  44.882   3.719
49900W        W18263   2.949  21.246   0.744
49901W        W18264  38.481  36.515   1.841
49902W        W18265  39.875   0.366  14.831
49903W        W18266  22.036  32.925  13.365
49904W        W18267  37.017   9.794  14.777
49905W        W18268  20.538   0.328  14.302
49906W        W18269  37.405  19.122  11.433
49907W        W18270  12.323  17.081   2.355
49908W        W18271  13.346  26.103   2.271
49909W        W18272  22.177  10.699  12.393
49910W        W18273  23.989  43.833   1.219
49911W        W18274   6.384  38.051   3.642
49912W        W18275  19.772  32.043  13.487
49913W        W18276   8.317  23.094   3.786
49914W        W18277  28.496  21.142  14.473
49915W        W18278  38.044   7.687  14.360
49916W        W18279  17.298  11.742  14.963
49917W        W18280   1.779   2.810   3.845
49918W        W18281  42.465  13.704   0.324
49919W        W18282  24.525   0.267   3.821
49920W        W18283  36.974  12.210  11.079
49921W        W18284  25.524   1.818  14.500
49922W        W18285  24.610  22.223   0.796
49923W        W18286   1.401   4.708  11.573
49924W        W18287   6.253  15.772  10.012
49925W        W18288  10.171  25.575  13.513
49926W        W18289  36.020  17.663   3.726
49927W        W18290  18.726  13.312   0.916
49928W        W18291  37.977   1.774   3.224
49929W        W18292  43.969  21.619  12.500
49930W        W18293  23.556  39.854   4.147
49931W        W18294  16.608  41.914   4.175
49932W        W18295  31.080   4.282  13.855
49933W        W18296  44.364  27.592  14.459
49934W        W18297  30.989  18.628   1.731
49935W        W18298  22.041  12.701  10.432
49936W        W18299  36.450  39.993   2.709
49937W        W18300   1.476  37.066  10.516
49938W        W18301   4.253  21.045   2.196
49939W        W18302   5.434  16.616   2.353
49940W        W18303  12.780  31.532   3.265
49941W        W18304  36.359   1.378  13.008
49942W        W18305  11.738   9.759   1.817
49943W        W18306  39.413  21.598  10.449
49944W        W18307  24.698  17.798  10.933
49945W        W18308  14.230  31.000   2.410
49946W        W18309   2.450  19.643  10.156
49947W        W18310   4.872  42.387  11.105
49948W        W18311   9.827  39.508   0.773
49949W        W18312  41.335  17.609  11.882
49950W        W18313  15.286  10.140  10.624
49951W        W18314  35.364   2.462   1.415
49952W        W18315  32.415  13.240  13.998
49953W        W18316   0.849   1.417   1.394
49954W        W18317  34.959  38.460  11.863
49955W        W18318  11.206  13.776  11.015
49956W        W18319   8.671  26.169   1.241
49957W        W18320  15.579  17.076   0.428
49958W        W18321   4.284  17.772  10.587
49959W        W18322  12.293  34.982  13.448
49960W        W18323  26.989  28.614   3.358
49961W        W18324  38.512  42.870   5.165
49962W        W18325  41.002   1.833   1.890
49963W        W18326   1.359   5.242  14.942
49964W        W18327  36.499  31.954   0.882
49965W        W18328  27.511  32.026   4.277
49966W        W18329  31.074  42.366   0.400
49967W        W18330  41.380   2.807   1.359
49968W        W18331  11.646  10.736   4.187
49969W        W18332  15.729  19.206   0.905
49970W        W18333  13.732   1.437   0.295
49971W        W18334  15.582   0.897   1.268
49972W        W18335  42.377  24.184  11.008
49973W        W18336  37.550  41.487   2.272
49974W        W18337  33.043   3.373  11.960
49975W        W18338   1.778  27.570  12.387
49976W        W18339  10.848  27.022  11.981
49977W        W18340  42.456  37.904  12.894
49978W        W18341  31.947  22.534   4.615
49979W        W18342  32.035  23.207   1.325
49980W        W18343   8.894   7.226  14.894
49981W        W18344   0.382   7.361  10.929
49982W        W18345   4.742  33.500   5.107
49983W        W18346  12.846  40.917  13.403
49984W        W18347  16.618  23.661  10.599
49985W        W18348  42.784  34.442   4.781
49986W        W18349  31.585  19.247  11.460
49987W        W18350  39.546  12.259  11.058
49988W        W18351  33.117  27.124  11.075
49989W        W18352  29.118  42.777   3.723
49990W        W18353  37.992  39.475  12.926
49991W        W18354  20.617  18.770   4.779
49992W        W18355  42.966  10.640   4.179
49993W        W18356   5.228  33.385  10.906
49994W        W18357  12.228  36.079   2.706
49995W        W18358  30.540  31.142   2.675
49996W        W18359   4.374   1.261   4.259
49997W        W18360  17.138   4.355   0.478
49998W        W18361  14.671   3.298   3.870
49999W        W18362   0.467  24.157   5.219
50000W        W18363  36.097  41.504   4.322
50001W        W18364  33.588  35.854   2.685
50002W        W18365  36.542  26.018  13.869
50003W        W18366  40.899  33.427   0.265
50004W        W18367  22.195   8.232  10.946
50005W        W18368  18.251  12.766   4.211
50006W        W18369  18.622  21.093   4.328
50007W        W18370   4.741  33.930   1.361
50008W        W18371  33.520   4.702  13.368
50009W        W18372  19.054  25.697  11.409
50010W        W18373  27.472  14.101   3.239
50011W        W18374   7.224  23.512  10.607
50012W        W18375   9.700  21.149  13.802
50013W        W18376   5.386   7.746   0.940
50014W        W18377  18.172  24.997   3.636
50015W        W18378  31.023  17.185   4.702
50016W        W18379  16.664  35.937   1.904
50017W        W18380  20.228  27.600   0.453
50018W        W18381   5.243   3.940  10.477
50019W        W18382  41.965  13.167   5.290
50020W        W18383  28.439  16.745   1.235
50021W        W18384  25.572  33.562  10.438
50022W        W18385  36.346  33.024  14.489
50023W        W18386  37.493  10.771   1.861
50024W        W18387  32.493  26.012  13.961
50025W        W18388  41.485  40.351   2.752
50026W        W18389  20.529  26.630  14.326
50027W        W18390  35.884  28.162  11.040
50028W        W18391   2.253   5.879   3.322
50029W        W18392   0.451  27.505   4.783
50030W        W18393   2.823  17.267  12.046
50031W        W18394   6.837   1.904  13.455
50032W        W18395  23.523  19.651   2.236
50033W        W18396  29.425  37.023   0.371
50034W        W18397  17.736  31.606  13.336
50035W        W18398  34.935  36.078  11.108
50036W        W18399  21.617   3.328  13.037
50037W        W18400  38.977   2.423  13.991
50038W        W18401   8.845  26.056   0.389
50039W        W18402   9.356  20.236   0.402
50040W        W18403  16.196  18.606  11.541
50041W        W18404   6.781   2.860  12.531
50042W        W18405   3.284  11.186  13.876
50043W        W18406   3.800   7.296   0.366
50044W        W18407  32.097  26.688  14.461
50045W        W18408  41.531  34.592   4.741
50046W        W18409   6.386  17.632  12.891
50047W        W18410   0.462  41.491   1.763
50048W        W18411   3.435  25.128  11.107
50049W        W18412  44.503  19.726   4.270
50050W        W18413  23.045  26.640   2.396
50051W        W18414  33.609  44.338  11.499
50052W        W18415  28.663   9.853  13.865
50053W        W18416  14.815  43.516  14.391
50054W        W18417  37.989  29.059  13.055
50055W        W18418  36.482  34.978  10.614
50056W        W18419  25.601  30.451  14.328
50057W        W18420  35.857   0.907   4.142
50058W        W18421   4.928  25.158   2.804
50059W        W18422  13.817  40.849  14.371
50060W        W18423  14.675  16.262  12.947
50061W        W18424  15.765   1.390  12.476
50062W        W18425  17.677  21.113   1.372
50063W        W18426  34.379  15.141  12.399
50064W        W18427  19.057  20.656   1.714
50065W        W18428  40.023  29.560  11.081
50066W        W18429  34.070   9.314  10.961
50067W        W18430  14.119  38.889   4.810
50068W        W18431  24.672  14.263   3.765
50069W        W18432  27.139  37.420  13.397
50070W        W18433  44.947  20.695  11.932
50071W        W18434  31.150   3.433   0.327
50072W        W18435   2.397   2.910   1.401
50073W        W18436  10.280  42.902   4.630
50074W        W18437  18.666  24.541   3.632
50075W        W18438  22.173  19.693   3.250
50076W        W18439  40.382  30.630  10.888
50077W        W18440  33.047  29.158   5.303
50078W        W18441  43.853  21.122  11.924
50079W        W18442  34.423  22.642   1.447
50080W        W18443  27.957  18.203  11.446
50081W        W18444  28.173   4.209   0.816
50082W        W18445   4.428   4.208   2.376
50083W        W18446  20.571  16.091  14.883
50084W        W18447  11.711  27.692   3.183
50085W        W18448  21.754  44.354  10.047
50086W        W18449  35.522  39.003  12.863
50087W        W18450  14.750  20.090  11.523
50088W        W18451  10.210  16.089  11.888
50089W        W18452  33.403  28.604   0.889
50090W        W18453  19.229  27.585  10.928
50091W        W18454  11.693   1.749  13.819
50092W        W18455  24.650   8.219   0.330
50093W        W18456   2.753  20.523  14.329
50094W        W18457  17.751  31.640   1.216
50095W        W18458  13.702   7.186  12.962
50096W        W18459   8.221   3.264  12.837
50097W        W18460   4.763  24.602   4.203
50098W        W18461  21.176  21.664   1.304
50099W        W18462  34.881  40.528  10.022
50100W        W18463  23.082  16.211  12.903
50101W        W18464  39.522   4.723  11.553
50102W        W18465   6.820  13.231  10.644
50103W        W18466  28.096  30.918  11.500
50104W        W18467  10.757   1.842  10.602
50105W        W18468  24.525   3.444   3.238
50106W        W18469  30.549  27.603   0.962
50107W        W18470  34.574   4.814  12.876
50108W        W18471  30.582  44.009  14.360
50109W        W18472  24.975  28.013   4.117
50110W        W18473  31.070  34.540   0.835
50111W        W18474  31.486  29.971   4.217
50112W        W18475  33.924  23.151   0.299
50113W        W18476  18.761  23.121   0.341
50114W        W18477  40.532  42.486  13.358
50115W        W18478   9.851  38.428   4.686
50116W        W18479   2.881  43.783   2.264
50117W        W18480  38.535  13.735   4.602
50118W        W18481  20.197  23.489   4.297
50119W        W18482   4.299  27.684   0.298
50120W        W18483  31.938   0.916   1.325
50121W        W18484  15.177  12.847   2.232
50122W        W18485  19.064  29.502   2.774
50123W        W18486  43.001  26.097  13.829
50124W        W18487   0.367  41.988   0.726
50125W        W18488  27.641  15.587   0.800
50126W        W18489  13.145  19.657  14.803
50127W        W18490  14.231  27.476  10.929
50128W        W18491  36.450  28.173  13.838
50129W        W18492  31.645   8.721   4.325
50130W        W18493  14.300   6.225   2.724
50131W        W18494  34.027  39.034   2.239
50132W        W18495  19.189  11.260  11.112
50133W        W18496  19.044  25.219   3.261
50134W        W18497  43.947  28.646   0.820
50135W        W18498  19.175  16.630  13.878
50136W        W18499  20.562  41.880  13.484
50137W        W18500  26.560  12.349  14.823
50138W        W18501   9.647   5.899   0.819
50139W        W18502  42.949  18.653  14.948
50140W        W18503  44.801   2.929   0.798
50141W        W18504  44.429  23.586   0.282
50142W        W18505   3.432  37.943   3.154
50143W        W18506   7.317   3.797  12.081
50144W        W18507  37.929  30.580   1.766
50145W        W18508  39.385  13.138   2.374
50146W        W18509  32.959  37.004  12.523
50147W        W18510  12.653  29.474  11.551
50148W        W18511  37.552   1.409  10.620
50149W        W18512  19.151  43.441   3.725
50150W        W18513  33.893  27.570  10.964
50151W        W18514  15.761  31.030  13.025
50152W        W18515  31.036   5.836  14.399
50153W        W18516  13.303   3.952  10.135
50154W        W18517  18.667  22.217  10.640
50155W        W18518  19.721  31.042  13.983
50156W        W18519  38.831  33.596   4.638
50157W        W18520  14.146  31.048  13.054
50158W        W18521  42.439  44.452   0.847
50159W        W18522  29.141  19.240  14.030
50160W        W18523  44.958  17.294   3.809
50161W        W18524  41.377   7.689   1.270
50162W        W18525   8.327   2.839   2.202
50163W        W18526  41.794  13.835  10.529
50164W        W18527   4.915  39.889   2.417
50165W        W18528  40.870  21.683  12.864
50166W        W18529  42.849  28.071  14.856
50167W        W18530   3.884  44.374   1.820
50168W        W18531   3.458  17.087  10.934
50169W        W18532   3.741  31.558  13.507
50170W        W18533  11.138  35.565  13.048
50171W        W18534  27.998  25.642   0.254
50172W        W18535  10.173  26.484  11.431
50173W        W18536  13.818  37.081  13.051
50174W        W18537   2.251  28.037   1.309
50175W        W18538  17.279   8.339   0.918
50176W        W18539  19.555  38.371  13.035
50177W        W18540   6.290  33.878   2.711
50178W        W18541  43.007   5.370   1.832
50179W        W18542  21.554  21.258  12.526
50180W        W18543   3.336   8.660   3.285
50181W        W18544  16.142   4.397  10.496
50182W        W18545   2.915   1.362   4.157
50183W        W18546  18.054  27.581   3.656
50184W        W18547  21.141   0.285  11.856
50185W        W18548  10.777  14.753   1.902
50186W        W18549  21.116   1.427  12.408
50187W        W18550  19.247  10.797  13.869
50188W        W18551  12.225  15.731   0.321
50189W        W18552  34.369  22.636  12.979
50190W        W18553  42.776   4.391  11.522
50191W        W18554  10.300   2.379   4.260
50192W        W18555  38.064  31.934  14.762
50193W        W18556  28.025  20.052   1.330
50194W        W18557   7.865  27.498   3.843
50195W        W18558  21.203  27.620   3.807
50196W        W18559  31.134  23.646  12.550
50197W        W18560  32.412   4.214   0.336
50198W        W18561  28.030  12.360   4.752
50199W        W18562  17.575  11.757   4.303
50200W        W18563   2.233  32.080  12.442
50201W        W18564  19.141  42.520   5.291
50202W        W18565  21.027   6.202   2.853
50203W        W18566  13.182  18.274   3.737
50204W        W18567  23.188  25.060  12.445
50205W        W18568  28.488  30.083  14.945
50206W        W18569   5.211  10.303   3.208
50207W        W18570  34.450  19.599  11.003
50208W        W18571  15.325  44.894  12.483
50209W        W18572  32.532  20.665  14.961
50210W        W18573   7.404  39.355   0.461
50211W        W18574   9.726  13.330  11.440
50212W        W18575  34.396  11.219   0.941
50213W        W18576  19.095  18.296   4.758
50214W        W18577  22.657  14.165   0.262
50215W        W18578   9.302  33.424  11.505
50216W        W18579  25.474  21.187  11.401
50217W        W18580  27.003   5.755   2.419
50218W        W18581  42.803  40.804   0.888
50219W        W18582  28.666  33.082  13.847
50220W        W18583  26.201  42.449  14.896
50221W        W18584  12.710  36.512   2.406
50222W        W18585  42.334  14.145  12.459
50223W        W18586  44.272  25.621  13.894
50224W        W18587  39.366  26.972  12.442
50225W        W18588  34.027  15.771  10.071
50226W        W18589  10.870  19.219  11.511
50227W        W18590  10.216   5.723   2.710
50228W        W18591  34.574  31.001   0.471
50229W        W18592  16.654  28.589   1.240
50230W        W18593   6.902  12.696   0.312
50231W        W18594  10.156  11.304   3.183
50232W        W18595  28.600  18.555  10.448
50233W        W18596  11.220  35.488  10.548
50234W        W18597  26.115  12.310   1.316
50235W        W18598  43.816  29.533   0.464
50236W        W18599  43.277  24.193  10.604
50237W        W18600  44.758  38.460   1.912
50238W        W18601  21.051  18.165   2.879
50239W        W18602  19.133  32.060  14.838
50240W        W18603  43.495   1.827   2.343
50241W        W18604  22.120  18.550  11.405
50242W        W18605  21.559  17.627   1.360
50243W        W18606   7.870  36.011   3.180
50244W        W18607  13.169  23.495  11.502
50245W        W18608   7.823  44.358   4.292
50246W        W18609  10.225  37.558  12.469
50247W        W18610   2.943  41.415   4.331
50248W        W18611  19.752  13.748  12.901
50249W        W18612  12.643   3.261   2.333
50250W        W18613  31.019  43.927   0.385
50251W        W18614   1.973   3.869   3.224
50252W        W18615  37.889  15.643   1.748
50253W        W18616   3.714  31.613   2.413
50254W        W18617   7.800  35.041  14.346
50255W        W18618  35.543  34.469  12.975
50256W        W18619  41.993  18.688  11.463
50257W        W18620   1.420  26.194   2.192
50258W        W18621  15.268  14.779   1.244
50259W        W18622  42.339  23.017   1.739
50260W        W18623  35.922  40.021   4.675
50261W        W18624  27.501  32.982   2.874
50262W        W18625   9.880  36.892  13.381
50263W        W18626  11.252  38.483  11.426
50264W        W18627  38.920  19.613   3.821
50265W        W18628  26.504  26.085  11.010
50266W        W18629  17.292   0.358  14.440
50267W        W18630  30.502   8.334  14.817
50268W        W18631  40.020   3.339   1.757
50269W        W18632  33.891   3.287   4.326
50270W        W18633  41.005  37.892   4.269
50271W        W18634  33.476  28.538   2.663
50272W        W18635  13.744  21.531   0.816
50273W        W18636  41.479  21.643  12.938
50274W        W18637   8.237  28.544  12.407
50275W        W18638  19.155  25.665  10.929
50276W        W18639  33.459  12.123   3.770
50277W        W18640  41.534   2.776  12.093
50278W        W18641  41.412  19.631   2.295
50279W        W18642  15.236  23.138   2.323
50280W        W18643  40.877  34.958   2.832
50281W        W18644  43.852  19.203   4.300
50282W        W18645   2.889  39.846  10.499
50283W        W18646  33.437  32.108  14.813
50284W        W18647  29.642  11.768   3.631
50285W        W18648  27.494   2.835   1.895
50286W        W18649  35.406  42.998  10.641
50287W        W18650  34.062  24.707  11.566
50288W        W18651  26.504  13.652   9.497
50289W        W18652  42.455  24.177   2.815
50290W        W18653  37.346  23.155  11.863
50291W        W18654   2.723  43.869   3.182
50292W        W18655   1.838  20.120  13.498
50293W        W18656   1.856  22.063  14.797
50294W        W18657   0.958  17.152   2.245
50295W        W18658  42.794  42.317   0.792
50296W        W18659  16.115   0.849  14.017
50297W        W18660  15.324  33.405   4.672
50298W        W18661   1.270  13.197  11.915
50299W        W18662  14.157   8.392  11.536
50300W        W18663  32.432  22.619  12.476
50301W        W18664   6.696   3.906  11.046
50302W        W18665  28.099  26.550   3.796
50303W        W18666  33.562  35.359  12.413
50304W        W18667  26.158  24.520  14.876
50305W        W18668  30.977  44.873   0.957
50306W        W18669  23.690  24.203  14.802
50307W        W18670  27.506  12.216  12.935
50308W        W18671  34.428  14.298  13.038
50309W        W18672  10.336   1.773  12.545
50310W        W18673  27.606  24.091  14.902
50311W        W18674  41.864   0.394  13.351
50312W        W18675  24.648  26.660   2.833
50313W        W18676   2.397   9.664   2.246
50314W        W18677  37.372   7.822  11.039
50315W        W18678  30.022   4.358  14.287
50316W        W18679  23.995  10.170  10.641
50317W        W18680   6.736  16.079   3.222
50318W        W18681   4.377  30.531  11.375
50319W        W18682   2.282  13.843   0.797
50320W        W18683   8.287  26.471  11.997
50321W        W18684  32.393   6.308  12.561
50322W        W18685  11.313  24.152  13.055
50323W        W18686  39.912  36.538  14.821
50324W        W18687   3.271  23.705   1.217
50325W        W18688  23.648  32.039   2.731
50326W        W18689  17.145  34.605   1.300
50327W        W18690  39.029   8.737   3.159
50328W        W18691  22.713  15.641  11.936
50329W        W18692  33.549  13.602  10.892
50330W        W18693  28.001  15.247  10.055
50331W        W18694   7.213  32.119   1.331
50332W        W18695  15.582  42.400   3.675
50333W        W18696  16.201  32.075   1.342
50334W        W18697   8.874  18.158  14.437
50335W        W18698  42.412  28.033  12.838
50336W        W18699  10.739   1.438   3.653
50337W        W18700  40.996   2.323  10.497
50338W        W18701  23.185  23.674  10.941
50339W        W18702  41.951  10.159   2.699
50340W        W18703   7.667  33.108   4.780
50341W        W18704  16.171  22.009  13.851
50342W        W18705  31.551  27.672  10.146
50343W        W18706  36.474  19.087   0.957
50344W        W18707  38.867  22.017  13.866
50345W        W18708  40.927  44.997   0.913
50346W        W18709  16.679   6.401  12.535
50347W        W18710  34.024  28.479   3.171
50348W        W18711  31.060  38.012   1.779
50349W        W18712  14.225  10.302   5.090
50350W        W18713  15.805  22.654  10.490
50351W        W18714  22.733   6.913   4.346
50352W        W18715  27.140  38.913   3.362
50353W        W18716  24.173  13.283   3.278
50354W        W18717   3.364   1.241  10.130
50355W        W18718  11.267   6.248  13.456
50356W        W18719  42.328   8.309   0.390
50357W        W18720  14.828   7.357  13.537
50358W        W18721  38.006  17.069   2.773
50359W        W18722  12.830   0.430  12.423
50360W        W18723  36.982   8.749   4.149
50361W        W18724  10.260   9.385  14.321
50362W        W18725   3.831   2.887  12.036
50363W        W18726  24.044  31.445   2.671
50364W        W18727  42.387  17.567   0.953
50365W        W18728  32.452   5.333  13.495
50366W        W18729  27.004  15.733   2.415
50367W        W18730   7.814  34.488  12.890
50368W        W18731  31.100   6.839   1.305
50369W        W18732  38.419  12.138  11.959
50370W        W18733   2.299  13.672   2.271
50371W        W18734  39.489  38.461  11.503
50372W        W18735  31.571   3.382   0.284
50373W        W18736  19.281  37.501   1.273
50374W        W18737  25.155  12.146   0.790
50375W        W18738   9.868  32.001  11.949
50376W        W18739   8.348  29.629  11.031
50377W        W18740   4.337   7.911  14.384
50378W        W18741   6.266  37.908  10.445
50379W        W18742  29.011  13.170  13.942
50380W        W18743   4.349  43.899  13.334
50381W        W18744  11.261  43.815   0.302
50382W        W18745  29.610  17.085   5.081
50383W        W18746  26.015  38.374  12.917
50384W        W18747  29.095  21.113  13.042
50385W        W18748  31.140  35.515   0.443
50386W        W18749  33.621  26.657   0.338
50387W        W18750  20.723  25.583  14.975
50388W        W18751  40.480  32.517   3.684
50389W        W18752  35.996  25.087   1.775
50390W        W18753  11.345  20.636  12.423
50391W        W18754   3.410  14.607  10.906
50392W        W18755  21.673  25.580  14.478
50393W        W18756  40.473  31.045   0.421
50394W        W18757  28.656  44.770   4.114
50395W        W18758  27.068  16.170   1.216
50396W        W18759  41.370  27.609   0.291
50397W        W18760  21.638  20.130   0.741
50398W        W18761  13.226  38.567  10.549
50399W        W18762  36.993  34.612  12.961
50400W        W18763  29.630   8.265   0.898
50401W        W18764  40.471   1.966   5.165
50402W        W18765  39.337  41.988   2.285
50403W        W18766  22.239  25.668   0.384
50404W        W18767   0.808  21.144  13.945
50405W        W18768  11.811  38.564   3.376
50406W        W18769  42.797  14.152   3.238
50407W        W18770  11.783  16.698  14.844
50408W        W18771  43.884   8.298   4.307
50409W        W18772   4.328   1.384   5.302
50410W        W18773  22.122  33.501   4.218
50411W        W18774  39.823  35.856  13.545
50412W        W18775  34.027  29.919   1.377
50413W        W18776   0.862   9.286  12.364
50414W        W18777   4.719  43.963  10.567
50415W        W18778   9.670  21.192  12.370
50416W        W18779   8.175  40.838  12.918
50417W        W18780  30.478  25.068   2.842
50418W        W18781  26.195   2.889  11.972
50419W        W18782  27.618  17.080   1.265
50420W        W18783  44.483   9.330  10.579
50421W        W18784  14.142  22.602  10.583
50422W        W18785   7.788  39.860  12.391
50423W        W18786  28.104  37.408   2.742
50424W        W18787   4.893   1.424   1.444
50425W        W18788  25.177  22.209   0.901
50426W        W18789  26.146  15.316  13.964
50427W        W18790  43.858   1.827   4.205
50428W        W18791   4.935   9.872  14.458
50429W        W18792  25.045  44.274   1.846
50430W        W18793  19.051  43.353   9.466
50431W        W18794  15.307  29.936  12.061
50432W        W18795  17.691   6.783  11.052
50433W        W18796  43.460   3.311  12.916
50434W        W18797  25.680   5.818   0.769
50435W        W18798  22.056  40.024  14.014
50436W        W18799  21.156  41.480   2.718
50437W        W18800  25.679  15.808   3.290
50438W        W18801  10.352   3.342  13.434
50439W        W18802  24.211  38.419   4.318
50440W        W18803   7.719  38.402  13.397
50441W        W18804  18.641  20.525   4.260
50442W        W18805   1.415  20.623  14.953
50443W        W18806  14.698  40.402  11.873
50444W        W18807  23.110   6.861   0.859
50445W        W18808  36.519  25.130   2.310
50446W        W18809   2.822  40.548  14.305
50447W        W18810  18.673  35.554   1.698
50448W        W18811   0.270  23.583  12.470
50449W        W18812  21.658  26.669   1.824
50450W        W18813  16.317  28.118  10.593
50451W        W18814  39.059  12.811   0.276
50452W        W18815  33.051  41.897   3.150
50453W        W18816  19.198   2.792   4.269
50454W        W18817  29.142  33.056   0.420
50455W        W18818  10.146  28.938  14.775
50456W        W18819  38.913   2.747   4.240
50457W        W18820  24.021  14.252   2.869
50458W        W18821   3.365  38.822  11.424
50459W        W18822   9.693  40.937   2.418
50460W        W18823  44.440  31.462   2.294
50461W        W18824  29.560  12.203   4.126
50462W        W18825  43.767  19.628   4.817
50463W        W18826  14.315  24.204  12.389
50464W        W18827  13.699  32.079  12.047
50465W        W18828   1.262  25.972   3.769
50466W        W18829  29.576   4.865  13.418
50467W        W18830  27.661  22.595  11.048
50468W        W18831  10.821  19.123   4.249
50469W        W18832   3.823  39.891   3.723
50470W        W18833  23.513  41.386  10.949
50471W        W18834  33.029   0.458   3.640
50472W        W18835   7.799  11.190  10.499
50473W        W18836   1.909   0.355  14.840
50474W        W18837  32.061  11.864   1.245
50475W        W18838   4.244  36.469  12.452
50476W        W18839  41.869   8.874  12.450
50477W        W18840  39.560   0.383  14.432
50478W        W18841   0.873  17.663  11.891
50479W        W18842  39.483  13.620   0.309
50480W        W18843  14.761  15.250   1.723
50481W        W18844  25.972  17.221  10.023
50482W        W18845  20.164  13.349   0.930
50483W        W18846   5.197  43.850  10.551
50484W        W18847   6.903  38.859  11.529
50485W        W18848   1.868   0.371  10.988
50486W        W18849  25.714  19.610  10.889
50487W        W18850   1.908   9.792   3.697
50488W        W18851  11.252  38.561   2.415
50489W        W18852  18.733  25.132   2.411
50490W        W18853  21.660  14.614   0.928
50491W        W18854  28.939  30.465   1.221
50492W        W18855  32.528  24.064  13.002
50493W        W18856  18.188  41.881  11.988
50494W        W18857  17.145  34.047  14.771
50495W        W18858  38.515  39.845   3.221
50496W        W18859  34.103  20.535   4.624
50497W        W18860  14.273  40.825  11.436
50498W        W18861   1.879  38.057   3.682
50499W        W18862  33.477  32.048   2.267
50500W        W18863  37.343  14.203  14.445
50501W        W18864  39.432  30.537  14.499
50502W        W18865  16.122  15.089   2.287
50503W        W18866  23.991  30.562   3.237
50504W        W18867  29.171  38.542   4.198
50505W        W18868  11.766  21.705   1.297
50506W        W18869   8.405  44.416   3.730
50507W        W18870  20.537  33.970   0.299
50508W        W18871  43.007  14.277  10.944
50509W        W18872   9.768  28.469   0.877
50510W        W18873  21.584  21.698  12.446
50511W        W18874  11.352  34.875   4.742
50512W        W18875  21.024  28.086  13.843
50513W        W18876   8.788  19.555   0.792
50514W        W18877  42.951   6.358   3.784
50515W        W18878   0.972  36.557   1.326
50516W        W18879  44.814   3.807  14.453
50517W        W18880  37.443  15.756  14.936
50518W        W18881  40.546  11.321  12.502
50519W        W18882  21.563  40.467  10.609
50520W        W18883  29.115  33.928  13.442
50521W        W18884  31.473  10.216   1.881
50522W        W18885  31.549  34.516   4.720
50523W        W18886  14.738  36.381  12.553
50524W        W18887   0.947   7.207  10.048
50525W        W18888  30.628   8.877   1.866
50526W        W18889  38.823  24.504  14.020
50527W        W18890  35.977  29.111   2.679
50528W        W18891  28.649  35.566   0.864
50529W        W18892  17.195  40.380  13.982
50530W        W18893   9.378  14.779  14.768
50531W        W18894  32.029  14.776  12.909
50532W        W18895   6.808  24.118   2.721
50533W        W18896  36.850  41.537  14.986
50534W        W18897  44.867   5.728  10.960
50535W        W18898  37.480  41.406  13.972
50536W        W18899  23.593  37.832  14.763
50537W        W18900  35.514  42.026   3.846
50538W        W18901  38.826  42.788   4.598
50539W        W18902  43.879  12.843  11.949
50540W        W18903  43.857  35.368   3.287
50541W        W18904  10.867   7.191  12.941
50542W        W18905  10.213   3.286   0.732
50543W        W18906   0.346  31.555  13.879
50544W        W18907  42.949  44.399  12.931
50545W        W18908  44.769  25.135   0.445
50546W        W18909  31.013  25.020  13.442
50547W        W18910  17.595   3.841   1.376
50548W        W18911  32.486   3.405  12.379
50549W        W18912   5.929  25.124  12.446
50550W        W18913  44.798   0.961   4.597
50551W        W18914  30.515  39.499   1.358
50552W        W18915  18.695  10.290   1.363
50553W        W18916   6.923  20.081   3.847
50554W        W18917  38.552  16.763   1.328
50555W        W18918  12.839  21.159   3.709
50556W        W18919  16.288  23.168  14.481
50557W        W18920  14.314   3.926   4.277
50558W        W18921  22.664   9.336   3.631
50559W        W18922  17.275  10.384  13.940
50560W        W18923  31.624  27.460   4.751
50561W        W18924  44.001  25.126   2.250
50562W        W18925  23.173  30.945   3.671
50563W        W18926   3.251   2.451   3.773
50564W        W18927  28.475  38.369  12.417
50565W        W18928  35.094  31.567   2.335
50566W        W18929  24.648   0.818  13.818
50567W        W18930   4.880  16.650   3.169
50568W        W18931  28.512  17.565  13.867
50569W        W18932  27.488  29.171   1.871
50570W        W18933   0.359  32.570   1.388
50571W        W18934  30.935  40.936  11.001
50572W        W18935  32.421  36.883  14.418
50573W        W18936  17.229  44.787   5.771
50574W        W18937   5.435  43.361   3.852
50575W        W18938  30.574   0.787  12.398
50576W        W18939  25.990  13.194   3.371
50577W        W18940  26.995   8.727   1.872
50578W        W18941  15.678  12.146   4.633
50579W        W18942  42.336   7.796  13.357
50580W        W18943  31.002  25.964  13.518
50581W        W18944  12.209  11.770   4.212
50582W        W18945  13.821  26.650  10.447
50583W        W18946  43.359   5.764   1.814
50584W        W18947  19.248  24.207   4.731
50585W        W18948  23.172  34.615  13.798
50586W        W18949  39.044  44.393  13.897
50587W        W18950   0.769   9.377   3.630
50588W        W18951  27.188  29.127   0.762
50589W        W18952  26.061  44.897  12.569
50590W        W18953  30.537  37.909  10.972
50591W        W18954   3.339  23.045   4.199
50592W        W18955  25.693  15.615  11.030
50593W        W18956  36.847  18.116   0.372
50594W        W18957  21.168  33.108   3.245
50595W        W18958   7.892  34.871  11.866
50596W        W18959  13.659   1.310  11.526
50597W        W18960  44.389   6.905  14.006
50598W        W18961  13.659  21.620   2.245
50599W        W18962  26.016   1.245   1.752
50600W        W18963  18.068  27.035  12.851
50601W        W18964  10.280  14.640   1.308
50602W        W18965  16.739  36.943  14.807
50603W        W18966  11.134   9.663   1.344
50604W        W18967   7.876  15.592  12.450
50605W        W18968  20.071  43.859   1.929
50606W        W18969  15.244  43.298  12.439
50607W        W18970  10.213  33.003  14.030
50608W        W18971  14.761  28.183   2.228
50609W        W18972  27.483  35.604   0.811
50610W        W18973  19.778  39.913  13.051
50611W        W18974  11.764   0.486  13.837
50612W        W18975  25.486  37.368  11.522
50613W        W18976   0.925  22.063  10.612
50614W        W18977  42.835  31.577  10.496
50615W        W18978  17.681   0.345  12.040
50616W        W18979  36.399   6.391  10.118
50617W        W18980  43.481  44.504   4.838
50618W        W18981  29.073  34.038  14.342
50619W        W18982  41.856  39.496  10.620
50620W        W18983   5.788   4.911   2.767
50621W        W18984  35.382   7.860  11.403
50622W        W18985   2.957  20.161  11.020
50623W        W18986  26.071  35.043   2.770
50624W        W18987  33.405  37.516   2.349
50625W        W18988  44.385  11.697   4.695
50626W        W18989  36.008  25.152  12.414
50627W        W18990  30.634  16.715  14.896
50628W        W18991  42.921  17.576   1.223
50629W        W18992  14.304  12.806   4.815
50630W        W18993   9.237  44.854  12.890
50631W        W18994  28.544  24.177   2.205
50632W        W18995  14.263  18.138  12.061
50633W        W18996   9.386  32.560   3.785
50634W        W18997  27.466  30.609   2.761
50635W        W18998  43.776  26.492  14.300
50636W        W18999  23.679   4.265  12.947
50637W        W19000   4.874  33.527  12.982
50638W        W19001  11.298  19.280   3.744
50639W        W19002  31.951  12.641   1.239
50640W        W19003  18.789  14.139  10.538
50641W        W19004  40.946  43.801   0.859
50642W        W19005  36.448  16.291  14.384
50643W        W19006  12.803  32.074   1.891
50644W        W19007  32.918   7.842   3.372
50645W        W19008  36.558  41.994  10.429
50646W        W19009  28.503  23.704  10.513
50647W        W19010  38.893   0.763   4.741
50648W        W19011   8.389  10.366  12.564
50649W        W19012  42.390  32.589  11.598
50650W        W19013  26.693  25.565  11.087
50651W        W19014  17.078  28.140   3.664
50652W        W19015  17.584  18.634  12.503
50653W        W19016   4.808  44.993  11.540
50654W        W19017  15.776   2.338   2.383
50655W        W19018  32.395  30.001  10.040
50656W        W19019  23.734  14.769  12.465
50657W        W19020  30.969  26.191  12.051
50658W        W19021  27.187  20.649   1.309
50659W        W19022  28.095  11.863  14.308
50660W        W19023  20.186  19.211   0.469
50661W        W19024  21.194  28.176  12.383
50662W        W19025   3.280  19.760   2.803
50663W        W19026   8.346  43.269   2.818
50664W        W19027   0.825  14.266  10.500
50665W        W19028   2.459  42.011  11.442
50666W        W19029  42.400  21.686  10.458
50667W        W19030  23.703   2.881   4.197
50668W        W19031  31.988   7.818  10.904
50669W        W19032  16.613  20.037  13.882
50670W        W19033  25.985   1.257   0.289
50671W        W19034  14.213  41.843  11.062
50672W        W19035  23.073  39.392   3.273
50673W        W19036  18.245  17.680   4.633
50674W        W19037  38.538   1.402   4.166
50675W        W19038   8.833  40.548  12.853
50676W        W19039  16.100  24.085  11.119
50677W        W19040   9.352   0.769   3.712
50678W        W19041  34.906  37.872   3.849
50679W        W19042  19.222  25.690  11.903
50680W        W19043  44.788  22.176  10.482
50681W        W19044   7.686  36.469  13.473
50682W        W19045  38.483  13.269   4.726
50683W        W19046  39.487   5.262  14.397
50684W        W19047  13.838  30.982  11.496
50685W        W19048  13.743  12.690  13.488
50686W        W19049  22.617  42.828   2.317
50687W        W19050   1.775  37.581  10.549
50688W        W19051  11.142  40.541   4.783
50689W        W19052   7.339  43.408  11.092
50690W        W19053  33.131  42.795  10.537
50691W        W19054   9.856  24.683   0.950
50692W        W19055  23.012   2.396  14.480
50693W        W19056  40.990  38.000  14.028
50694W        W19057  14.204  40.934   3.194
50695W        W19058  11.757   3.921  12.384
50696W        W19059   2.361   9.394   2.328
50697W        W19060   1.468  33.501   4.630
50698W        W19061  18.110  43.448   0.425
50699W        W19062  42.484  11.166  11.550
50700W        W19063  37.907   2.911  11.467
50701W        W19064  14.619  26.130   1.274
50702W        W19065   8.394   0.970  12.425
50703W        W19066  39.324  42.835   1.726
50704W        W19067  23.071  20.169   0.461
50705W        W19068   5.325  19.040   2.881
50706W        W19069  26.980  23.550  10.905
50707W        W19070  12.171  18.606  11.885
50708W        W19071  26.644  37.006  14.471
50709W        W19072  18.135   1.262  12.047
50710W        W19073  13.274  28.140   0.797
50711W        W19074  41.042  15.763   0.913
50712W        W19075  42.359  13.141   0.440
50713W        W19076   4.255  26.108   0.453
50714W        W19077  35.394  27.553  10.981
50715W        W19078  14.168  44.987  12.058
50716W        W19079  27.634  38.394   4.158
50717W        W19080  25.151  24.483  11.441
50718W        W19081  32.040  39.976   4.280
50719W        W19082   0.416  41.398   4.688
50720W        W19083  29.448  30.614  10.603
50721W        W19084  37.016  42.422  10.438
50722W        W19085  15.146  32.092   4.114
50723W        W19086  42.323  26.088  11.083
50724W        W19087  14.683   2.344  11.397
50725W        W19088  20.137   2.726  10.987
50726W        W19089  33.952  40.364  12.405
50727W        W19090  33.513   0.766  10.478
50728W        W19091   9.302  14.109   2.843
50729W        W19092  20.185  42.829   0.438
50730W        W19093   4.372  43.900   5.198
50731W        W19094  42.332  15.622   3.212
50732W        W19095  44.854  30.952  14.761
50733W        W19096  34.911  33.047   0.912
50734W        W19097  31.083  25.666  11.932
50735W        W19098   7.220  10.782  11.061
50736W        W19099   6.741   5.326   0.902
50737W        W19100  22.148   7.365  11.015
50738W        W19101  28.097   0.952  11.506
50739W        W19102  29.581  19.673   3.668
50740W        W19103  31.103  31.975   0.950
50741W        W19104  42.448  18.273  11.997
50742W        W19105  32.999  42.448  14.840
50743W        W19106  24.541  17.220   1.842
50744W        W19107  26.203  42.333   3.151
50745W        W19108  16.716  39.011   4.767
50746W        W19109  33.596  38.521   9.989
50747W        W19110  11.736  27.975  10.069
50748W        W19111  11.173   2.799   0.905
50749W        W19112  14.588  15.815   3.266
50750W        W19113  39.401  33.912   0.286
50751W        W19114  19.613   8.706   4.746
50752W        W19115  24.222  15.294  14.918
50753W        W19116  35.565  26.985  13.340
50754W        W19117  44.427  43.271  12.514
50755W        W19118   0.944  20.101   1.442
50756W        W19119  22.747  11.788   1.744
50757W        W19120  43.893  23.997   3.271
50758W        W19121  10.150  43.494  11.465
50759W        W19122  26.575  35.060   1.780
50760W        W19123  19.157  24.551   2.202
50761W        W19124  34.477   4.912   2.721
50762W        W19125  41.043  31.921   5.264
50763W        W19126  14.250  20.707   1.424
50764W        W19127  20.610   9.177   4.313
50765W        W19128  31.511  19.263  13.005
50766W        W19129  29.614  38.471  10.456
50767W        W19130  19.206  42.024  13.841
50768W        W19131  17.237   7.411   3.830
50769W        W19132  20.217  17.285  13.890
50770W        W19133   1.343  10.781   0.910
50771W        W19134   9.829  19.108   2.212
50772W        W19135   9.696  42.334  13.993
50773W        W19136  24.545   7.274  14.994
50774W        W19137  31.531  17.104  13.546
50775W        W19138  25.522   6.414   2.798
50776W        W19139  36.013  26.180   2.742
50777W        W19140  40.011  20.180  14.438
50778W        W19141   0.773   2.910   3.317
50779W        W19142  40.325  40.847  11.463
50780W        W19143  25.485   0.879  10.020
50781W        W19144   5.742  39.330  10.543
50782W        W19145  11.679  11.257  10.635
50783W        W19146  20.259   6.800   3.634
50784W        W19147  32.088  33.978   2.715
50785W        W19148   1.943   7.323   1.328
50786W        W19149  16.229  20.216   4.264
50787W        W19150  43.972  25.122   0.748
50788W        W19151  27.197  39.809  11.404
50789W        W19152  25.634  28.107   0.807
50790W        W19153  43.515  18.221  14.002
50791W        W19154  16.654   8.814   3.791
50792W        W19155  12.757  36.956  13.337
50793W        W19156  36.370  32.910  11.970
50794W        W19157  20.122  34.968  12.385
50795W        W19158  42.498   6.753   3.222
50796W        W19159  25.195   2.829  14.972
50797W        W19160  42.943  11.626  12.948
50798W        W19161  41.919  38.058  11.575
50799W        W19162  14.189   7.319   2.708
50800W        W19163   9.673  19.081   3.305
50801W        W19164   8.244  32.938   1.240
50802W        W19165  22.618  27.152  11.583
50803W        W19166  34.482  26.171  11.412
50804W        W19167  19.110  23.083   4.784
50805W        W19168  16.226   7.415  10.941
50806W        W19169  10.685  37.906   1.694
50807W        W19170  16.745  20.743   2.827
50808W        W19171  43.970  34.069   3.233
50809W        W19172  28.040   6.267   4.678
50810W        W19173  22.076  31.470   4.243
50811W        W19174   6.223  21.236   3.676
50812W        W19175  36.420  18.770  14.026
50813W        W19176  24.702   7.677  14.459
50814W        W19177  14.164  25.588  10.441
50815W        W19178  37.439  39.552   0.730
50816W        W19179   2.452  24.632   2.664
50817W        W19180   9.345  26.100  13.005
50818W        W19181  41.865  37.910   9.574
50819W        W19182  28.014  11.182   3.303
50820W        W19183  42.830  32.577  13.810
50821W        W19184  28.167  21.755  13.058
50822W        W19185  10.308  29.055   0.941
50823W        W19186  20.680   3.388  14.816
50824W        W19187  20.213  38.893  12.050
50825W        W19188  43.385  22.249   0.771
50826W        W19189   5.262  31.631  13.417
50827W        W19190  37.933   3.871   3.867
50828W        W19191  40.357  39.899   0.831
50829W        W19192  42.298  10.370  14.880
50830W        W19193  31.618  21.032   0.921
50831W        W19194  11.241   0.309  14.313
50832W        W19195  39.915   9.769   3.839
50833W        W19196  18.121  42.320  14.466
50834W        W19197  38.864  40.836  14.391
50835W        W19198  25.641  25.676   3.340
50836W        W19199  31.634   7.896  14.439
50837W        W19200  27.065  22.220  12.026
50838W        W19201   1.389   9.227   0.766
50839W        W19202   6.747  35.027  13.027
50840W        W19203  29.434  18.734   3.181
50841W        W19204  22.595  22.208  12.978
50842W        W19205  28.514  44.400   4.702
50843W        W19206  29.667  31.418  12.379
50844W        W19207  18.165   9.789  13.308
50845W        W19208  21.664  28.549  10.492
50846W        W19209  35.039  30.534  10.004
50847W        W19210  41.371   2.441   1.697
50848W        W19211   1.301   9.877   2.217
50849W        W19212  41.001  30.412   3.702
50850W        W19213  28.177  15.821   1.292
50851W        W19214  41.811  19.044   0.941
50852W        W19215  34.893  33.976  11.564
50853W        W19216   0.487   2.818  11.087
50854W        W19217   7.283  20.184   3.845
50855W        W19218  15.684  30.595   2.773
50856W        W19219  15.244   2.842  10.937
50857W        W19220  43.284  22.141   4.764
50858W        W19221  17.223  15.590   1.883
50859W        W19222   0.852  30.628   0.385
50860W        W19223  43.377  31.528  12.896
50861W        W19224   5.805  26.172   0.358
50862W        W19225   0.325  26.193   0.391
50863W        W19226  40.968  38.571  10.468
50864W        W19227  23.684  31.059  10.629
50865W        W19228  28.504  21.065  12.061
50866W        W19229  34.081  11.160   2.799
50867W        W19230  31.078   1.292   9.964
50868W        W19231  40.889   5.322   1.750
50869W        W19232   7.328  11.216   1.379
50870W        W19233  37.940  15.313   4.315
50871W        W19234  19.132  32.532   3.194
50872W        W19235   1.899   5.706   2.296
50873W        W19236   1.317  13.722   0.888
50874W        W19237   8.332  36.018   1.272
50875W        W19238  42.865   5.716  11.866
50876W        W19239  38.421  42.909  12.573
50877W        W19240  43.870  23.548   4.249
50878W        W19241  35.515   5.916   1.919
50879W        W19242  21.068   8.663   4.208
50880W        W19243  22.175  16.224  12.873
50881W        W19244  30.989  11.159  11.421
50882W        W19245  36.394  43.779  11.556
50883W        W19246  23.098  20.596  13.424
50884W        W19247   9.161  28.594  12.407
50885W        W19248   7.334  35.084   0.382
50886W        W19249  26.062  23.163  11.502
50887W        W19250  29.440  43.462   4.644
50888W        W19251  21.129  20.606  10.585
50889W        W19252  36.574  35.068   3.365
50890W        W19253  33.944  12.745   3.784
50891W        W19254  14.801  40.519  14.456
50892W        W19255  10.380  13.804   1.382
50893W        W19256  12.800  19.555  14.860
50894W        W19257  19.590  21.060  12.530
50895W        W19258  40.050  30.561  12.568
50896W        W19259  33.953  37.871   3.783
50897W        W19260   7.910  12.245  12.488
50898W        W19261  28.002  14.629  14.369
50899W        W19262  40.346  40.373  10.897
50900W        W19263  29.654  37.388  11.128
50901W        W19264   7.338   4.267   4.155
50902W        W19265  28.541  21.517   4.662
50903W        W19266  16.121  16.100   2.259
50904W        W19267  34.894  34.990  14.779
50905W        W19268  11.342   4.852  13.927
50906W        W19269  26.567  42.526   1.437
50907W        W19270  25.515   1.759   0.402
50908W        W19271  32.034  13.339   4.722
50909W        W19272  25.076  41.903  14.951
50910W        W19273   4.294  30.059   0.481
50911W        W19274  22.579  29.026  12.397
50912W        W19275   4.788  24.116  12.350
50913W        W19276  35.967   7.192   4.832
50914W        W19277  17.091  16.152   5.295
50915W        W19278  43.395   2.932   3.763
50916W        W19279  36.453  42.983   5.137
50917W        W19280  30.507  11.817   0.332
50918W        W19281  29.602  33.913   3.866
50919W        W19282  33.456  28.564   4.142
50920W        W19283  25.591  23.159   0.920
50921W        W19284  36.397  30.432   1.301
50922W        W19285   3.300  27.622   2.245
50923W        W19286  19.077   4.886  14.806
50924W        W19287  38.047  14.749  11.471
50925W        W19288  29.576  17.096   0.422
50926W        W19289  22.122  20.238  12.881
50927W        W19290   9.877   7.292  11.478
50928W        W19291  34.109  18.169  13.328
50929W        W19292  40.874  41.460   1.748
50930W        W19293  14.609  37.064  11.531
50931W        W19294  23.619  22.202   2.306
50932W        W19295   6.904  33.064  11.477
50933W        W19296  10.187  26.533  14.764
50934W        W19297  24.113  27.530  13.052
50935W        W19298  31.510  34.594  13.946
50936W        W19299  33.524  12.160   4.599
50937W        W19300  14.633  43.818   1.795
50938W        W19301  43.960   3.759  12.908
50939W        W19302  40.394  15.656  13.524
50940W        W19303  35.520  34.014  12.538
50941W        W19304  14.156  32.621   3.172
50942W        W19305  22.238   8.878  13.419
50943W        W19306   7.682  20.640   4.284
50944W        W19307  29.050  43.878  10.554
50945W        W19308  33.919   8.860  13.477
50946W        W19309  35.946  13.203   4.268
50947W        W19310  28.574   6.313  14.992
50948W        W19311  40.363  20.552  11.039
50949W        W19312  30.072  17.275  14.922
50950W        W19313  26.591   7.184  11.519
50951W        W19314  33.932  26.702   0.788
50952W        W19315  18.114  26.127  14.018
50953W        W19316  44.953  16.271   3.227
50954W        W19317  13.639  33.433   3.186
50955W        W19318   6.737  11.775   3.252
50956W        W19319   9.204  20.160  14.792
50957W        W19320  42.821  34.983  14.344
50958W        W19321  31.640  15.184   0.269
50959W        W19322   0.393  19.090  14.382
50960W        W19323   2.307  29.447   2.376
50961W        W19324  21.090  42.510  12.489
50962W        W19325  40.839  22.243   0.272
50963W        W19326   8.247  15.681   0.900
50964W        W19327   4.757  11.712  14.306
50965W        W19328  36.908  20.670   0.305
50966W        W19329  18.104   2.226   4.303
50967W        W19330  23.116  33.074   3.347
50968W        W19331  30.046  18.075   2.197
50969W        W19332  11.765  25.161   0.307
50970W        W19333   6.319  21.538  12.077
50971W        W19334  37.444  33.422  13.497
50972W        W19335   9.349  34.460  14.350
50973W        W19336  33.897  19.606   1.296
50974W        W19337   9.299  32.061  14.990
50975W        W19338   1.283   0.842   4.277
50976W        W19339  16.120  13.817   3.147
50977W        W19340  23.612  33.560  10.442
50978W        W19341   5.829  20.042   4.332
50979W        W19342  31.945  16.315  14.308
50980W        W19343  20.080   7.309   2.900
50981W        W19344   0.483  21.602   1.449
50982W        W19345  14.202  20.174   2.419
50983W        W19346   7.732  17.743  14.499
50984W        W19347  34.456   3.876  14.507
50985W        W19348  11.696  22.122  14.441
50986W        W19349  38.473  34.868   1.716
50987W        W19350   2.767  33.513  12.395
50988W        W19351  36.370   0.275   1.827
50989W        W19352  10.284  42.938  12.885
50990W        W19353  41.942  39.507  12.410
50991W        W19354  43.013  39.025  10.059
50992W        W19355  21.241  12.317  14.982
50993W        W19356  34.991  23.190  11.475
50994W        W19357   8.719   7.691   1.816
50995W        W19358  33.948   2.297   1.867
50996W        W19359  10.753  40.010   4.608
50997W        W19360  21.694  27.521   3.701
50998W        W19361  42.427  43.767  12.970
50999W        W19362   1.922   5.389  12.941
51000W        W19363  22.562  18.238  14.503
51001W        W19364  15.258  25.558   1.273
51002W        W19365  42.295  36.437   5.084
51003W        W19366  21.588  36.085  14.964
51004W        W19367  31.619  30.027  12.055
51005W        W19368  31.957  22.168  14.868
51006W        W19369  14.112  15.140   1.315
51007W        W19370  18.673  40.865  14.364
51008W        W19371  38.506   4.317   1.362
51009W        W19372  34.925  33.390   2.263
51010W        W19373  25.163  17.126   1.372
51011W        W19374  18.575  30.080   3.702
51012W        W19375  12.701  27.484  13.341
51013W        W19376  20.645  36.943  14.281
51014W        W19377  37.923  15.595   4.645
51015W        W19378   7.696  28.486   3.364
51016W        W19379   5.902   4.365   3.757
51017W        W19380  14.650   9.788   4.141
51018W        W19381  38.491  21.154  10.420
51019W        W19382  43.440  19.175  14.989
51020W        W19383  39.453  29.109  11.465
51021W        W19384  41.848  36.558  10.130
51022W        W19385  32.050   0.420  13.927
51023W        W19386  15.192   4.865   4.308
51024W        W19387  37.056   1.360   4.598
51025W        W19388  40.913  43.952  11.402
51026W        W19389  24.130  14.201   1.356
51027W        W19390   4.752  27.653  12.049
51028W        W19391   3.302  18.637  13.397
51029W        W19392  44.388  24.662   1.923
51030W        W19393  28.088  28.645  10.963
51031W        W19394  27.120  15.604  13.027
51032W        W19395  10.682  43.325  10.499
51033W        W19396  21.583  20.668  10.530
51034W        W19397  24.991  31.905   4.662
51035W        W19398  16.231  31.590   3.265
51036W        W19399  11.169  35.004   0.732
51037W        W19400  37.861   0.287  11.936
51038W        W19401   4.700  28.114   0.828
51039W        W19402  23.989  41.292  12.827
51040W        W19403  28.014   3.846   0.884
51041W        W19404  28.154  35.070  10.111
51042W        W19405   3.785  22.046   1.831
51043W        W19406  26.537  41.502  14.867
51044W        W19407  21.116   0.305   0.284
51045W        W19408  18.704  23.732   0.959
51046W        W19409   6.800   6.410   4.154
51047W        W19410  24.610  13.287   2.261
51048W        W19411  41.846  41.899   1.763
51049W        W19412  20.198   1.792  12.451
51050W        W19413  32.632  43.011  12.379
51051W        W19414  43.812  34.101  14.010
51052W        W19415  25.060   6.699  13.355
51053W        W19416  39.829  23.136   1.336
51054W        W19417  22.113   9.331   2.886
51055W        W19418   2.456  23.577   0.357
51056W        W19419   9.161   2.307   1.297
51057W        W19420  22.066  15.660  12.007
51058W        W19421  25.582  37.940   3.317
51059W        W19422  20.097   2.747  14.500
51060W        W19423  37.957  41.890  11.988
51061W        W19424  10.636  11.815   2.887
51062W        W19425   7.299  19.151  11.986
51063W        W19426  10.269  21.690  10.946
51064W        W19427   0.830  23.156   3.277
51065W        W19428  26.684  41.327   1.706
51066W        W19429  15.823  23.102  14.020
51067W        W19430  18.549   4.266  14.787
51068W        W19431  20.676   9.788   2.824
51069W        W19432  11.790   6.737   4.835
51070W        W19433  14.619  19.764   1.717
51071W        W19434   2.936  22.512  14.383
51072W        W19435  21.673  25.185  10.948
51073W        W19436  17.076  20.041  11.024
51074W        W19437   3.748  22.608  10.614
51075W        W19438  37.543  27.509   1.812
51076W        W19439  21.728  43.999  12.487
51077W        W19440  36.387  17.251   3.190
51078W        W19441  21.605  28.058   1.320
51079W        W19442   4.307  24.497  12.578
51080W        W19443  30.016  20.605  11.030
51081W        W19444  13.715  13.671   1.725
51082W        W19445  14.646  18.234  14.402
51083W        W19446  27.491  29.930  12.981
51084W        W19447  19.776   5.786   3.336
51085W        W19448   2.377  21.193  12.494
51086W        W19449  26.533  34.380  10.447
51087W        W19450  38.852  13.631  13.439
51088W        W19451  22.693   1.338  14.868
51089W        W19452  32.563  10.230   4.275
51090W        W19453   1.245  34.089   2.841
51091W        W19454  14.237  11.793  11.869
51092W        W19455  33.519  30.126   1.778
51093W        W19456  35.039  43.460   1.912
51094W        W19457  30.059   1.929  14.989
51095W        W19458   9.201  35.593   3.185
51096W        W19459  16.187  23.071  12.369
51097W        W19460  31.472  15.199  11.475
51098W        W19461   1.942   7.904  14.953
51099W        W19462  33.940   0.493   3.339
51100W        W19463  25.557   8.752  10.943
51101W        W19464   4.374  13.672  13.459
51102W        W19465  22.168  39.950   3.792
51103W        W19466  18.769  26.074   3.794
51104W        W19467  41.382  10.139   3.681
51105W        W19468   5.246  40.436   3.636
51106W        W19469  43.886   9.828  14.793
51107W        W19470   6.812  25.039  10.462
51108W        W19471  35.014  19.269   4.189
51109W        W19472  22.016  33.396   0.447
51110W        W19473  19.761  24.215   3.733
51111W        W19474  26.168  21.648   4.704
51112W        W19475  19.195   7.310   3.360
51113W        W19476   8.771  28.115  12.895
51114W        W19477  16.763  24.584  12.343
51115W        W19478   1.293   2.919   1.218
51116W        W19479  35.935  30.642  10.489
51117W        W19480  16.283  44.866  14.840
51118W        W19481  42.391  37.869  10.542
51119W        W19482  17.729  25.052  12.972
51120W        W19483   7.752  30.624  11.099
51121W        W19484  20.649  37.027   4.823
51122W        W19485  32.100  38.066  11.416
51123W        W19486   8.176  30.123   1.803
51124W        W19487  16.079  44.425  12.356
51125W        W19488  10.851  23.192  12.408
51126W        W19489  23.042  33.996  13.445
51127W        W19490  15.595  34.423  11.475
51128W        W19491   0.392   3.931   0.967
51129W        W19492  26.121  41.840   2.319
51130W        W19493   3.839   2.934  12.531
51131W        W19494  33.470   7.191  12.883
51132W        W19495  38.457   9.179   2.761
51133W        W19496   2.366   9.686  13.423
51134W        W19497  12.317   4.845  11.111
51135W        W19498  23.505  40.429   0.786
51136W        W19499   9.270  31.107  13.546
51137W        W19500   1.435   0.346   5.220
51138W        W19501  41.470  21.172  14.796
51139W        W19502   2.334  34.445   9.989
51140W        W19503  22.021   2.369   4.778
51141W        W19504   4.785   7.865  11.924
51142W        W19505  13.766  34.471   3.262
51143W        W19506  18.648   5.711   1.438
51144W        W19507  44.793  34.482  11.121
51145W        W19508   5.815  36.453   1.760
51146W        W19509  12.633  40.364   3.176
51147W        W19510  30.004   0.821   2.790
51148W        W19511  30.152  24.101  14.429
51149W        W19512   2.954  43.006  14.488
51150W        W19513  15.169  33.057  13.541
51151W        W19514   9.385  20.186   1.423
51152W        W19515  28.570  12.649  10.968
51153W        W19516  43.424  19.693  12.997
51154W        W19517   1.741  31.623   0.409
51155W        W19518   0.894  38.350  13.898
51156W        W19519   8.811   8.324  11.041
51157W        W19520  43.515  31.922   4.191
51158W        W19521  41.315  10.740  11.872
51159W        W19522  43.408  26.963  13.537
51160W        W19523  27.454   0.809  11.578
51161W        W19524  13.772  10.258  11.571
51162W        W19525  25.094  43.301  12.346
51163W        W19526  36.842  17.170   1.425
51164W        W19527   4.280  32.531   2.227
51165W        W19528  11.727  27.486   4.147
51166W        W19529  17.276  39.488   4.762
51167W        W19530  42.499  25.567  14.865
51168W        W19531   9.250  21.607  13.829
51169W        W19532  24.210  32.567   0.781
51170W        W19533  32.431  12.738   2.205
51171W        W19534  11.700  18.622   0.369
51172W        W19535   1.328   3.403  11.064
51173W        W19536  12.761  15.803  14.800
51174W        W19537  33.602  22.109   2.333
51175W        W19538  17.801  37.050   2.271
51176W        W19539   1.474  20.729   2.860
51177W        W19540  33.925  18.731   3.704
51178W        W19541   1.479  20.141   2.418
51179W        W19542  40.000  20.049   3.824
51180W        W19543   1.236  29.971  11.068
51181W        W19544  22.042  16.649  14.776
51182W        W19545  11.146  24.047   2.391
51183W        W19546   8.339  27.688   4.265
51184W        W19547  40.505  19.158  10.438
51185W        W19548  21.199   1.741   1.440
51186W        W19549   8.705  20.768  11.447
51187W        W19550   8.292  26.957   3.679
51188W        W19551  23.148   2.280  10.955
51189W        W19552   2.433  28.042   0.305
51190W        W19553  11.328   9.229  11.869
51191W        W19554  31.534   6.283  11.601
51192W        W19555  36.861  13.276   1.885
51193W        W19556  42.859  44.985  14.867
51194W        W19557  38.405  25.605   3.372
51195W        W19558  14.716  21.663  10.902
51196W        W19559   4.896  44.454  11.492
51197W        W19560  32.019  42.891  12.394
51198W        W19561   5.412  37.566   4.259
51199W        W19562  31.942  14.318   0.323
51200W        W19563   9.376   8.790  14.513
51201W        W19564  13.246   7.336   3.269
51202W        W19565  31.459  13.265  13.405
51203W        W19566  43.443   3.945  11.535
51204W        W19567  42.780  17.727  13.013
51205W        W19568  38.565  29.072  13.349
51206W        W19569  40.010  13.325   0.738
51207W        W19570  44.305   8.272   2.361
51208W        W19571   9.889  41.986   2.265
51209W        W19572   3.234   3.821   1.382
51210W        W19573  32.454   6.205   4.262
51211W        W19574  32.556  25.132  10.426
51212W        W19575  17.749   7.867  11.374
51213W        W19576  15.589  15.812   0.477
51214W        W19577  17.162   7.353   4.281
51215W        W19578   6.206  11.256   3.152
51216W        W19579  14.185  30.430  12.354
51217W        W19580   8.814   8.212   2.880
51218W        W19581  16.568   1.766  14.895
51219W        W19582  39.874  40.322   0.282
51220W        W19583  19.738   3.944   4.641
51221W        W19584  12.152  26.095   1.281
51222W        W19585  19.719  10.205   2.335
51223W        W19586  29.039  35.387  12.072
51224W        W19587   5.916  22.069  10.925
51225W        W19588  21.675  35.492  14.315
51226W        W19589  33.918   1.853  14.480
51227W        W19590  28.131  44.499   1.417
51228W        W19591   8.163  30.148   3.200
51229W        W19592  36.873   2.296   4.136
51230W        W19593  39.359  25.203  11.961
51231W        W19594  35.372  42.516   1.743
51232W        W19595  16.175  19.189   5.214
51233W        W19596  17.137   5.300  12.960
51234W        W19597  15.688  14.246  10.638
51235W        W19598  16.148  39.476   0.791
51236W        W19599  23.659  41.029   3.777
51237W        W19600  20.196  33.571  10.101
51238W        W19601  15.633  25.187   3.837
51239W        W19602  24.597   1.286   0.750
51240W        W19603  29.962  42.506  12.479
51241W        W19604  32.895  37.501   4.179
51242W        W19605  33.410  23.111  12.349
51243W        W19606  41.905  25.470   0.967
51244W        W19607  16.574  41.496  12.467
51245W        W19608   1.415  23.019   0.347
51246W        W19609  11.663  39.397   0.952
51247W        W19610  23.599  32.465   2.849
51248W        W19611  25.501  16.101   1.402
51249W        W19612  42.777  38.350  13.465
51250W        W19613  19.198  37.485   1.855
51251W        W19614  24.185  44.488   2.381
51252W        W19615  44.275  32.069  13.918
51253W        W19616  13.766   8.760  12.458
51254W        W19617  14.133  29.448   4.635
51255W        W19618  40.028  26.457   3.374
51256W        W19619   5.252  14.731   3.295
51257W        W19620  29.497  21.170   4.188
51258W        W19621  24.082  10.255   2.818
51259W        W19622  25.054  36.397   3.815
51260W        W19623  43.315  16.789  13.877
51261W        W19624  36.914   4.250   3.746
51262W        W19625   5.225  29.497   3.659
51263W        W19626   2.255  37.945   3.276
51264W        W19627  29.083  27.672  10.493
51265W        W19628  30.493  28.469  12.419
51266W        W19629  18.244   5.752   4.190
51267W        W19630  12.655  40.334   4.700
51268W        W19631  34.478  34.448   3.223
51269W        W19632  25.692  39.502   2.707
51270W        W19633  33.454  38.335   4.204
51271W        W19634  23.702  34.587  13.538
51272W        W19635  25.702  13.323   5.154
51273W        W19636  10.640  12.259   2.791
51274W        W19637  30.021   1.926   1.364
51275W        W19638  21.056  13.161  13.826
51276W        W19639   4.921  21.577  12.349
51277W        W19640  43.456  44.483   4.294
51278W        W19641  26.478  25.016  10.509
51279W        W19642  21.019   2.873   3.321
51280W        W19643  30.626  10.354  11.874
51281W        W19644   6.229  36.000  10.154
51282W        W19645  28.059  13.789   5.158
51283W        W19646  25.059  40.419   3.833
51284W        W19647  22.158  44.505   4.307
51285W        W19648  35.097   7.744  11.391
51286W        W19649  23.669  29.123   1.713
51287W        W19650  28.094  39.507  12.968
51288W        W19651  37.030   1.392   3.162
51289W        W19652  32.530  24.619  11.593
51290W        W19653  35.982  37.466   3.336
51291W        W19654  38.466  32.992  14.797
51292W        W19655  19.646  36.881   1.818
51293W        W19656   5.922  28.945  13.846
51294W        W19657  18.658  41.346  12.873
51295W        W19658   8.799   6.403   0.871
51296W        W19659   3.730  17.131  11.885
51297W        W19660  15.203   5.868   2.872
51298W        W19661  22.587  39.893  11.501
51299W        W19662  22.120  16.678   1.930
51300W        W19663  34.463   4.910   4.768
51301W        W19664  32.028   7.693  13.488
51302W        W19665   5.255   9.221   3.644
51303W        W19666  17.766  30.984   2.901
51304W        W19667  15.174  32.056   0.762
51305W        W19668  38.952  13.140   0.354
51306W        W19669  26.610  39.857   2.663
51307W        W19670  35.929  43.811   0.334
51308W        W19671  43.900   4.362   0.793
51309W        W19672  26.535  44.798   4.702
51310W        W19673  31.108  32.400   1.788
51311W        W19674  27.520  18.208  12.048
51312W        W19675  35.055  33.990   0.737
51313W        W19676  43.829   0.428   4.210
51314W        W19677   7.855   3.759  10.996
51315W        W19678   1.276  17.123   1.906
51316W        W19679  36.912  44.399  13.798
51317W        W19680  26.097  27.599  14.823
51318W        W19681   3.833  21.017  12.024
51319W        W19682   2.764   5.887  12.828
51320W        W19683   8.285   9.292   4.603
51321W        W19684  35.590  10.373   3.243
51322W        W19685   5.694   2.384   3.633
51323W        W19686  21.609  37.470  10.945
51324W        W19687   6.739  12.306   4.655
51325W        W19688   9.246  23.734  13.908
51326W        W19689  34.867   4.718  14.512
51327W        W19690  43.982  15.803  13.949
51328W        W19691  30.543  25.177   1.349
51329W        W19692  30.427  31.482   2.702
51330W        W19693   9.728  28.986   0.392
51331W        W19694   4.329  14.206  12.003
51332W        W19695  18.577  12.328  14.513
51333W        W19696  25.206  19.137   1.242
51334W        W19697  35.942   6.240  14.958
51335W        W19698  20.136  24.023   2.680
51336W        W19699  33.025   7.362   4.291
51337W        W19700  39.502  33.537   0.310
51338W        W19701  28.637  16.753   9.973
51339W        W19702  38.482   0.924  12.050
51340W        W19703   4.833  20.188   1.223
51341W        W19704  24.133  16.758  10.591
51342W        W19705  34.443  16.112   2.223
51343W        W19706   4.407  24.649  14.466
51344W        W19707  30.952  19.256   4.137
51345W        W19708  32.468  17.675  12.880
51346W        W19709  12.760  22.180   2.853
51347W        W19710  36.845   1.833   0.940
51348W        W19711  25.078   3.938  13.911
51349W        W19712   2.886  39.827   0.338
51350W        W19713  32.556   6.757  13.408
51351W        W19714   4.370  34.960  14.392
51352W        W19715  36.972   9.207   2.719
51353W        W19716  33.891   8.405   0.367
51354W        W19717  27.517  18.172   1.401
51355W        W19718   4.938  18.201  10.022
51356W        W19719  18.240  44.500  13.997
51357W        W19720  40.014   6.290   1.853
51358W        W19721  37.932  21.692  10.523
51359W        W19722  10.203   5.270  13.487
51360W        W19723   1.813  39.008   1.865
51361W        W19724  44.902  35.104   4.600
51362W        W19725  27.016   7.849   4.200
51363W        W19726  34.099  34.032   4.347
51364W        W19727   3.342  10.760  13.985
51365W        W19728   7.283   0.336   0.923
51366W        W19729  34.536  10.168  13.379
51367W        W19730  13.202  20.222   4.746
51368W        W19731  31.062  43.380   0.312
51369W        W19732  42.421  15.128   0.370
51370W        W19733  21.692  13.231  14.006
51371W        W19734  27.534  37.881  12.933
51372W        W19735   6.312  25.701   0.906
51373W        W19736  22.642  26.597   5.246
51374W        W19737  10.704  36.034   3.332
51375W        W19738  18.701  36.987   0.777
51376W        W19739  23.533  23.058   2.824
51377W        W19740  31.958  27.488   5.786
51378W        W19741   9.815  15.300  13.417
51379W        W19742  42.850   4.771  10.552
51380W        W19743  21.572  38.883   1.389
51381W        W19744  32.895  27.447  10.555
51382W        W19745  22.706   9.664   1.776
51383W        W19746  42.358   5.329  12.940
51384W        W19747  21.682  39.005   4.751
51385W        W19748  30.124  31.532  14.496
51386W        W19749  20.665   8.807  14.018
51387W        W19750  44.401   3.864  13.922
51388W        W19751  12.116  37.516   1.709
51389W        W19752  41.848  10.292  10.142
51390W        W19753  27.618  43.344  11.442
51391W        W19754  30.087   1.850   3.757
51392W        W19755  26.106  24.194   4.248
51393W        W19756  20.551   5.863  13.860
51394W        W19757  31.115   0.977   1.297
51395W        W19758   6.399  13.812   0.843
51396W        W19759  16.766  35.013   1.360
51397W        W19760  14.607  13.333  10.508
51398W        W19761  18.151  14.693  12.029
51399W        W19762  41.961  20.095   4.809
51400W        W19763  43.822  27.086   4.353
51401W        W19764  17.232  36.004   3.732
51402W        W19765  40.465  35.532  13.380
51403W        W19766  18.293  12.320  14.428
51404W        W19767  38.497  12.686   3.777
51405W        W19768  19.725   9.859  11.431
51406W        W19769  39.369  13.731  10.071
51407W        W19770   4.897  26.599  14.404
51408W        W19771  28.583  22.120  14.499
51409W        W19772  41.519   4.790   2.199
51410W        W19773   2.454  37.404  14.000
51411W        W19774  13.284  28.116  11.486
51412W        W19775  36.939  28.147   4.123
51413W        W19776   4.883   8.706   3.809
51414W        W19777  29.555  15.212  14.376
51415W        W19778  13.352   7.757  14.875
51416W        W19779   5.908  19.162   3.152
51417W        W19780   8.847   4.311   0.781
51418W        W19781  22.739  17.147  13.937
51419W        W19782  20.142   0.948  11.074
51420W        W19783  11.704  37.051   4.266
51421W        W19784  13.199  14.140   3.370
51422W        W19785   9.833  41.861  11.538
51423W        W19786  31.015  40.384  14.397
51424W        W19787  18.691  15.191  14.506
51425W        W19788  39.485  32.925  13.405
51426W        W19789  16.793  34.968   2.385
51427W        W19790  37.355   3.217   0.943
51428W        W19791  22.166  30.112  14.833
51429W        W19792  24.038  33.901   0.327
51430W        W19793  26.088  18.168   4.309
51431W        W19794  29.573  44.885  14.358
51432W        W19795  24.976  14.155   0.243
51433W        W19796  41.383  28.045   0.371
51434W        W19797  19.680  22.032   4.267
51435W        W19798  44.875  43.795  13.815
51436W        W19799   8.723  24.221   1.425
51437W        W19800  42.923  30.959  12.954
51438W        W19801  14.613  13.837   0.438
51439W        W19802  16.238  12.671   2.903
51440W        W19803  31.423   1.960   0.335
51441W        W19804  40.455   3.937  12.900
51442W        W19805  12.199  42.858   5.128
51443W        W19806  22.521  42.461   4.814
51444W        W19807  40.485   3.331  14.977
51445W        W19808   0.773  43.890   1.345
51446W        W19809   1.736  27.538   2.722
51447W        W19810  19.101  38.861   1.248
51448W        W19811  21.069  21.098  10.124
51449W        W19812  25.680  16.745  12.924
51450W        W19813  16.086  37.966   3.188
51451W        W19814  44.777  24.087   0.870
51452W        W19815  16.575  16.758   0.962
51453W        W19816   4.739  43.016  11.054
51454W        W19817  26.467   7.247  14.979
51455W        W19818  41.319   5.288  13.797
51456W        W19819  11.662  36.023  11.518
51457W        W19820  38.364  26.100  12.028
51458W        W19821   4.446  40.871   4.354
51459W        W19822  11.195   7.890  12.509
51460W        W19823   1.819   5.819   0.308
51461W        W19824   4.402  34.527   2.753
51462W        W19825  26.168  32.402   3.148
51463W        W19826  34.029   2.297   3.204
51464W        W19827  19.664   9.839  10.984
51465W        W19828  28.074   2.826  10.423
51466W        W19829  28.612  22.729   0.300
51467W        W19830  12.165   6.381  14.837
51468W        W19831   1.409  42.023  10.582
51469W        W19832  39.958  26.545  14.807
51470W        W19833  25.160  22.706   0.329
51471W        W19834  26.584   0.899  11.105
51472W        W19835   5.758   0.962  10.618
51473W        W19836   7.176   7.172  11.123
51474W        W19837  17.215  18.623   1.759
51475W        W19838  36.056   3.797  12.922
51476W        W19839  23.723  34.419   2.769
51477W        W19840  33.115  16.131  12.825
51478W        W19841  40.510   6.418   0.935
51479W        W19842  40.519   6.219  14.490
51480W        W19843   4.746  28.138  13.415
51481W        W19844  34.104  20.543   3.640
51482W        W19845  37.950  10.871   0.951
51483W        W19846  18.765   5.270  12.018
51484W        W19847  17.714   2.393   2.278
51485W        W19848  22.236  34.394   1.741
51486W        W19849  12.295   2.447   3.773
51487W        W19850  32.979  37.386   3.783
51488W        W19851  20.593  17.240   1.851
51489W        W19852   5.738   6.329   3.167
51490W        W19853  16.794  22.192  12.532
51491W        W19854  40.996  33.040   2.850
51492W        W19855  26.972  36.365  12.386
51493W        W19856   7.789  20.251   0.799
51494W        W19857  36.878  19.648  10.438
51495W        W19858  24.644  12.127   2.788
51496W        W19859  25.211  19.691  14.007
51497W        W19860  16.626   3.235  11.520
51498W        W19861  17.759  20.639  14.909
51499W        W19862  20.181   7.209   2.250
51500W        W19863  18.293  21.580   3.338
51501W        W19864   6.416  29.152   3.655
51502W        W19865  10.669  12.338   0.793
51503W        W19866  29.603   3.335  10.951
51504W        W19867  23.115   8.289  11.592
51505W        W19868  38.003  31.599   2.388
51506W        W19869  32.944  32.077   1.211
51507W        W19870   9.395  23.538   4.272
51508W        W19871  25.609  10.273   2.764
51509W        W19872  28.129  30.103  14.307
51510W        W19873  20.192  40.880   4.788
51511W        W19874  19.085   9.300   4.276
51512W        W19875  32.136  23.197  12.553
51513W        W19876   2.751  34.417   4.804
51514W        W19877  36.580  22.611  14.514
51515W        W19878  11.718  16.314   3.272
51516W        W19879  20.626  19.654   5.199
51517W        W19880  10.381  42.791   0.362
51518W        W19881  13.684  42.960  11.936
51519W        W19882  11.736  20.034   3.776
51520W        W19883  30.031   9.786   1.369
51521W        W19884  18.645  15.743  10.560
51522W        W19885  19.196  35.039  12.838
51523W        W19886  43.441  35.548   3.168
51524W        W19887  15.255   1.307   4.129
51525W        W19888  36.568  21.555   2.747
51526W        W19889   4.708  11.237  13.979
51527W        W19890   4.413   2.815  10.602
51528W        W19891  28.058  37.464  13.915
51529W        W19892  27.151  39.512  10.623
51530W        W19893   9.814  29.571   2.843
51531W        W19894   0.446  23.224   1.423
51532W        W19895   0.798  43.779  12.012
51533W        W19896  37.521   9.246  13.514
51534W        W19897  37.904  15.291  12.916
51535W        W19898   9.716  34.008   2.407
51536W        W19899  16.075  19.185   1.314
51537W        W19900  41.786  22.235   0.756
51538W        W19901   4.806  19.076  11.458
51539W        W19902  29.974  33.000   0.474
51540W        W19903   9.254  30.450   1.743
51541W        W19904  25.035  38.897  14.011
51542W        W19905  20.653  24.605   2.872
51543W        W19906  22.209  26.094   3.817
51544W        W19907  38.376  17.074  12.833
51545W        W19908  23.714  26.093  14.447
51546W        W19909  26.701  25.501  13.516
51547W        W19910  39.847  15.089   1.315
51548W        W19911  24.117   9.805   4.150
51549W        W19912  43.926   0.451   3.771
51550W        W19913  15.578   1.434   3.792
51551W        W19914   2.361  19.154  14.982
51552W        W19915  21.247  35.525   3.238
51553W        W19916  14.278  32.899   3.783
51554W        W19917  38.849  30.579   1.238
51555W        W19918   4.717  13.180   1.419
51556W        W19919  18.153  40.458  14.949
51557W        W19920  34.544  12.362   0.907
51558W        W19921  11.709  42.485   2.690
51559W        W19922  32.993   8.712  13.055
51560W        W19923   2.445  21.658   5.683
51561W        W19924  18.754  43.797  12.383
51562W        W19925  10.216  13.730  13.462
51563W        W19926  40.008  10.734   0.337
51564W        W19927  44.280  36.422   2.302
51565W        W19928  29.565  40.472   2.817
51566W        W19929  43.379  13.669   2.218
51567W        W19930  41.939  13.315   1.812
51568W        W19931   3.445   1.914  12.339
51569W        W19932  32.058   6.190   1.258
51570W        W19933  25.629  14.135  14.796
51571W        W19934   5.375  39.063  10.906
51572W        W19935   4.367  20.596  14.468
51573W        W19936  28.073  20.603   2.857
51574W        W19937  36.066  19.723  13.950
51575W        W19938   3.785   5.839   1.809
51576W        W19939  27.592   0.969   2.296
51577W        W19940   7.293  16.075   4.336
51578W        W19941  36.885  38.400  11.389
51579W        W19942  31.073   2.467  14.790
51580W        W19943   6.819   0.329  10.973
51581W        W19944  13.637  22.734  12.937
51582W        W19945  35.359  16.597   4.220
51583W        W19946  40.351   2.305   0.246
51584W        W19947  32.579  10.746   4.798
51585W        W19948   5.727   2.812   1.245
51586W        W19949  17.224   4.276   1.231
51587W        W19950  30.537  19.239   2.714
51588W        W19951  31.007  39.325  10.955
51589W        W19952  11.845  28.635   2.218
51590W        W19953   0.454  36.411  12.918
51591W        W19954  15.280  25.208  14.764
51592W        W19955  15.194   4.211  12.421
51593W        W19956  17.649   0.268  12.530
51594W        W19957  16.762  10.747   4.132
51595W        W19958  24.194   6.826   1.354
51596W        W19959  40.312  13.681  14.479
51597W        W19960   8.846  11.278   9.926
51598W        W19961   3.908  29.555   4.779
51599W        W19962  14.144   0.796   4.637
51600W        W19963  44.766   4.313  14.300
51601W        W19964  28.609  16.297   0.738
51602W        W19965  13.146  42.434  11.107
51603W        W19966   6.730  30.447  11.477
51604W        W19967  17.793  26.488   0.861
51605W        W19968  22.107   7.907   2.283
51606W        W19969   0.486  41.422  13.509
51607W        W19970   3.878   0.795   9.487
51608W        W19971  18.164   3.404  13.333
51609W        W19972   6.194   0.360  14.847
51610W        W19973  24.650  16.622   3.162
51611W        W19974  44.475  30.531   1.815
51612W        W19975  42.919  19.719  14.446
51613W        W19976  43.845  34.442   9.938
51614W        W19977  22.157  19.063  14.322
51615W        W19978  39.542  23.627   2.893
51616W        W19979  43.338  41.419  10.633
51617W        W19980   7.221  22.601   1.775
51618W        W19981   4.864  33.914   1.912
51619W        W19982  28.078  16.640   4.749
51620W        W19983  20.755  42.921  12.540
51621W        W19984  11.155   0.460  12.520
51622W        W19985  26.483  35.475   3.344
51623W        W19986   0.796  43.274  11.510
51624W        W19987  25.105   5.855  12.869
51625W        W19988  32.532  11.164  12.377
51626W        W19989  20.647  44.891  10.595
51627W        W19990  20.177   8.252  11.519
51628W        W19991  14.098  28.444  13.517
51629W        W19992   6.202   9.782  10.973
51630W        W19993   8.254  42.003  13.332
51631W        W19994  15.314  37.410   4.205
51632W        W19995  22.697  13.186   1.327
51633W        W19996  23.046  24.021   4.639
51634W        W19997  16.586  26.565   0.333
51635W        W19998   1.892  34.405  10.604
51636W        W19999  29.505   5.255   1.843
51637W        W20000  35.419  39.344   2.357
51638W        W20001  30.439  22.029  11.576
51639W        W20002   8.380  17.186   2.265
51640W        W20003  36.486  24.528   3.629
51641W        W20004  22.501   5.886   1.387
51642W        W20005  19.285  38.069  10.466
51643W        W20006  33.516  38.457  12.826
51644W        W20007  39.522  31.122   4.618
51645W        W20008  37.971  26.190  10.604
51646W        W20009  17.683  10.331  14.420
51647W        W20010  29.436  34.415  12.889
51648W        W20011  39.879  22.078  11.543
51649W        W20012  17.723  43.509   5.798
51650W        W20013   5.743  37.550   4.207
51651W        W20014  18.265   3.742  11.096
51652W        W20015   5.718  28.506   3.174
51653W        W20016  17.773   2.307  10.617
51654W        W20017   6.683  39.398  10.470
51655W        W20018  14.292  26.109   3.679
51656W        W20019  18.690  20.543   4.661
51657W        W20020  34.562  31.428  14.293
51658W        W20021  12.758  26.953   0.758
51659W        W20022  39.845  18.600  14.990
51660W        W20023  30.060  34.982   2.876
51661W        W20024  27.977  26.560   0.472
51662W        W20025  43.352  35.105  11.455
51663W        W20026  31.494  39.468   4.693
51664W        W20027  19.188  12.278  11.571
51665W        W20028  22.224  12.313   1.337
51666W        W20029  23.662  11.862  12.913
51667W        W20030  36.474   8.166   1.774
51668W        W20031  42.934   4.381  13.058
51669W        W20032  28.621  38.453   0.900
51670W        W20033  19.591  17.144   3.700
51671W        W20034  25.138  12.240  11.896
51672W        W20035  35.573  18.629   2.779
51673W        W20036  40.905  37.996   2.734
51674W        W20037  39.531   4.261   0.832
51675W        W20038  39.478  24.051  11.425
51676W        W20039  33.543  26.533  11.026
51677W        W20040   3.956  44.489  14.850
51678W        W20041  31.488  29.109  10.906
51679W        W20042   2.799  16.124   1.230
51680W        W20043  42.461  44.785   1.230
51681W        W20044  10.785   2.254  11.505
51682W        W20045  30.541  10.812  12.052
51683W        W20046   7.796  26.498   9.955
51684W        W20047   9.295  26.204  11.065
51685W        W20048   5.841  34.890   4.761
51686W        W20049  21.689  32.424   4.807
51687W        W20050   6.274  29.937   0.407
51688W        W20051  18.618  22.570  14.352
51689W        W20052  14.675  17.120   0.396
51690W        W20053  37.580   9.237  10.528
51691W        W20054   0.433  18.613   4.739
51692W        W20055  29.960  27.447  12.421
51693W        W20056   2.961  40.494   2.782
51694W        W20057   9.208  28.638  13.034
51695W        W20058  32.462  28.152   0.794
51696W        W20059  16.217   3.803  14.459
51697W        W20060   6.252  15.207   2.242
51698W        W20061   5.853  12.227   1.353
51699W        W20062  27.615  31.068   1.930
51700W        W20063  21.204  20.136   5.202
51701W        W20064  19.227  38.918  13.919
51702W        W20065  22.532  40.003   1.871
51703W        W20066  37.400  25.153   3.369
51704W        W20067  37.885  16.129  12.382
51705W        W20068   7.394  29.488   0.774
51706W        W20069   6.899  27.990  14.357
51707W        W20070  23.645   8.804   3.150
51708W        W20071  37.576  13.770   4.761
51709W        W20072   1.373  21.201  12.510
51710W        W20073  11.282  14.654  14.323
51711W        W20074  25.567  21.627   4.690
51712W        W20075  44.310   1.941   2.783
51713W        W20076   2.246  20.030  10.891
51714W        W20077  43.332  42.363   1.694
51715W        W20078  28.607  24.044   1.330
51716W        W20079   0.883   1.731  13.905
51717W        W20080  13.775   6.399  11.970
51718W        W20081  25.586   3.268   2.190
51719W        W20082  36.542   4.334  11.869
51720W        W20083   8.754  30.516   1.386
51721W        W20084  40.012  32.987  14.429
51722W        W20085   5.811  21.693  13.368
51723W        W20086   8.364  40.422  10.437
51724W        W20087  15.759   8.299   4.815
51725W        W20088   9.727  34.518   2.664
51726W        W20089   3.383  23.687   2.308
51727W        W20090  25.623  10.774  12.509
51728W        W20091  31.072  28.070   2.414
51729W        W20092  40.465  38.965   0.257
51730W        W20093   2.329  31.931   3.253
51731W        W20094  12.688   8.754  12.963
51732W        W20095  42.517  37.398  14.413
51733W        W20096  25.096  19.067  10.644
51734W        W20097   5.748  29.924  13.933
51735W        W20098   4.907  40.451   3.660
51736W        W20099  11.750  32.391  10.970
51737W        W20100  33.008   4.402  11.932
51738W        W20101  17.674  27.189   1.902
51739W        W20102  10.257   4.368  13.531
51740W        W20103  40.863  24.006   3.728
51741W        W20104  22.685  38.407   4.335
51742W        W20105  27.451  28.175   4.144
51743W        W20106  37.525  42.021   0.940
51744W        W20107  13.718  40.393   2.807
51745W        W20108  36.079  39.871  14.031
51746W        W20109  17.138  18.694  13.904
51747W        W20110  31.574  39.859   2.870
51748W        W20111  31.984  23.052  11.054
51749W        W20112  18.225  24.030  12.034
51750W        W20113   7.697  37.033   1.318
51751W        W20114  30.013  34.112   2.402
51752W        W20115   2.927  24.010  12.823
51753W        W20116  11.178  36.874   3.173
51754W        W20117   8.737  30.044  12.043
51755W        W20118   4.408  33.582   2.816
51756W        W20119  36.975  16.636  14.390
51757W        W20120   4.907   9.307  11.450
51758W        W20121  28.002  34.571   3.250
51759W        W20122  11.357   3.437  12.474
51760W        W20123   0.471   0.940  10.545
51761W        W20124  16.779  21.101   2.252
51762W        W20125  24.555  30.159   1.236
51763W        W20126  23.527  26.519  12.560
51764W        W20127  30.929  41.497  10.961
51765W        W20128  26.693  24.141   0.742
51766W        W20129   3.349   8.288  13.463
51767W        W20130  41.860   5.916   3.382
51768W        W20131  16.297   7.175  14.406
51769W        W20132  24.487  15.085   4.224
51770W        W20133   6.766   8.294  12.370
51771W        W20134  14.143  41.437   3.801
51772W        W20135  37.492   0.746  12.367
51773W        W20136  30.455   4.317  11.386
51774W        W20137  36.895  24.180  14.317
51775W        W20138  24.528  37.075   2.360
51776W        W20139  21.186  19.053  14.903
51777W        W20140  26.521  33.103   1.797
51778W        W20141  44.774   5.279   2.884
51779W        W20142  12.711  40.448  11.941
51780W        W20143   5.345  12.767   2.184
51781W        W20144  28.118  14.325  13.883
51782W        W20145  34.492  34.571  13.041
51783W        W20146  15.778  18.749   1.925
51784W        W20147  41.912  11.168   0.460
51785W        W20148   2.889  29.647  12.886
51786W        W20149  18.723  20.082  13.953
51787W        W20150  32.547  44.977  13.340
51788W        W20151   7.885  21.226   0.945
51789W        W20152  28.172  26.692  13.019
51790W        W20153  41.954  32.624  11.464
51791W        W20154  36.572  23.217   4.799
51792W        W20155  13.605  42.496  14.332
51793W        W20156   0.978  40.494   4.821
51794W        W20157  39.811  33.994  13.002
51795W        W20158  13.790  25.150   2.185
51796W        W20159  24.516  12.327  11.888
51797W        W20160  39.051  30.163  12.568
51798W        W20161   7.365   8.253   3.676
51799W        W20162  30.961  43.893  13.910
51800W        W20163  13.746   3.795   0.916
51801W        W20164  28.639  29.631  11.883
51802W        W20165  31.024  20.530   3.657
51803W        W20166  41.810   6.839   1.738
51804W        W20167  44.806  38.985   2.367
51805W        W20168  16.711  43.786   1.434
51806W        W20169  38.330  22.197   0.376
51807W        W20170  28.115  39.476   1.353
51808W        W20171   6.308  39.485   4.804
51809W        W20172  31.101  15.145   3.216
51810W        W20173  34.496  10.162   1.348
51811W        W20174  22.170  17.151  13.826
51812W        W20175  34.037  31.489  14.500
51813W        W20176   5.320  29.551  12.019
51814W        W20177  18.196  39.814  14.506
51815W        W20178   4.248  25.198  14.815
51816W        W20179  11.705   8.219  13.352
51817W        W20180  18.689  23.626   5.279
51818W        W20181   8.798  27.552  11.555
51819W        W20182  28.084  26.644   2.663
51820W        W20183  37.368  18.274  13.876
51821W        W20184  12.763   8.780   3.853
51822W        W20185  17.253  19.764   2.369
51823W        W20186   7.833  15.286   3.344
51824W        W20187  22.608  11.756   5.103
51825W        W20188  43.325  41.958  14.444
51826W        W20189  44.407  14.199   1.337
51827W        W20190  32.985   9.392   3.297
51828W        W20191  38.516  30.073   0.949
51829W        W20192  12.650   2.852   1.234
51830W        W20193  28.491  11.828  12.075
51831W        W20194  12.775  39.435  12.362
51832W        W20195  29.103  15.218   9.527
51833W        W20196   5.870  15.636   1.348
51834W        W20197  19.701  31.904  13.053
51835W        W20198   7.748  33.003   0.287
51836W        W20199   2.452  35.058   3.149
51837W        W20200  36.914  11.733  12.460
51838W        W20201   7.679  38.422  14.907
51839W        W20202  41.373  36.462   0.793
51840W        W20203  30.646  28.966  11.856
51841W        W20204   0.322  27.979   0.736
51842W        W20205  13.225  25.132  10.525
51843W        W20206  33.529  22.076  11.115
51844W        W20207  17.259  12.716  14.893
51845W        W20208  13.172  18.090  13.882
51846W        W20209  41.044  32.566   0.403
51847W        W20210  20.075  30.943  13.368
51848W        W20211  30.505  38.405   0.276
51849W        W20212   6.753  23.061  12.828
51850W        W20213  25.156  38.410  11.920
51851W        W20214  22.105  32.115   0.885
51852W        W20215  18.638   9.179  10.895
51853W        W20216  39.011   6.869   3.807
51854W        W20217  30.453   2.461  10.443
51855W        W20218  39.961  30.509   3.258
51856W        W20219  11.708  42.370  13.545
51857W        W20220   0.464  35.384   4.788
51858W        W20221  31.933  24.545  11.479
51859W        W20222  19.649  30.594  14.306
51860W        W20223  13.787  17.241   4.198
51861W        W20224  16.759  18.075   2.187
51862W        W20225  15.140  20.240  11.100
51863W        W20226  39.437  23.025  12.920
51864W        W20227  12.119  32.431   0.844
51865W        W20228  29.546  30.110  12.504
51866W        W20229  26.070  29.063  12.917
51867W        W20230  44.801  13.272   1.803
51868W        W20231  43.835  29.443   0.753
51869W        W20232  38.520  16.603  14.848
51870W        W20233  39.938   1.424   1.397
51871W        W20234  11.190   9.344   2.813
51872W        W20235  38.951  18.272   2.310
51873W        W20236  18.726  29.028  11.474
51874W        W20237   2.416  23.142  12.086
51875W        W20238  14.261  29.666  11.092
51876W        W20239  11.254   4.884   3.153
51877W        W20240  32.924  23.133  10.534
51878W        W20241  39.388  40.433   2.371
51879W        W20242  33.492  41.843   5.183
51880W        W20243  13.126  36.406   4.337
51881W        W20244  43.943   7.219   1.296
51882W        W20245  36.862  25.622   2.785
51883W        W20246  44.853  16.075   4.599
51884W        W20247   7.786  30.129   2.813
51885W        W20248  34.008  42.950   0.930
51886W        W20249  43.452  19.655   4.606
51887W        W20250  35.106  16.136   1.786
51888W        W20251  41.402  12.677  10.461
51889W        W20252  38.077  12.729   0.809
51890W        W20253  21.530  27.502   1.355
51891W        W20254  12.196  31.427   3.316
51892W        W20255  24.621   5.846   2.395
51893W        W20256  15.691  26.956  14.030
51894W        W20257  33.080   3.747   1.338
51895W        W20258  23.503  35.428   3.352
51896W        W20259  24.169  40.501   4.685
51897W        W20260  42.314  44.392   2.868
51898W        W20261  19.284   0.894   2.225
51899W        W20262  38.936  23.622  13.489
51900W        W20263  31.089  23.986  12.545
51901W        W20264  18.716  11.282  11.984
51902W        W20265  38.888   2.410   1.764
51903W        W20266  12.765  36.374  12.501
51904W        W20267  26.131  38.534   4.613
51905W        W20268  13.150  15.311   0.738
51906W        W20269  28.592  20.544  14.401
51907W        W20270  12.207  24.670  12.410
51908W        W20271  16.568  11.307  12.055
51909W        W20272  11.358  44.307  12.537
51910W        W20273   7.194   3.405  14.276
51911W        W20274   0.264  24.060  11.026
51912W        W20275  10.714  41.899   4.682
51913W        W20276  29.546  24.018  11.066
51914W        W20277   8.178  25.549   2.334
51915W        W20278  23.207  37.907   0.436
51916W        W20279   8.238   8.397  10.407
51917W        W20280  27.006   3.948   0.406
51918W        W20281  29.574  28.491  10.639
51919W        W20282  40.803   6.829  12.491
51920W        W20283  33.128  38.523  12.967
51921W        W20284  10.644  12.719   2.773
51922W        W20285   9.874  33.460   2.742
51923W        W20286  32.086  13.695  11.568
51924W        W20287  27.581  28.509  12.975
51925W        W20288  18.197  28.131  12.356
51926W        W20289  11.833   6.864   0.377
51927W        W20290  21.525   8.753   3.177
51928W        W20291  30.585  37.893   3.681
51929W        W20292  19.108  27.061   3.169
51930W        W20293  42.865  34.576  12.368
51931W        W20294  27.611  12.156   4.691
51932W        W20295  32.597  22.053   3.688
51933W        W20296  26.110  33.435   0.848
51934W        W20297  33.567   4.829  11.975
51935W        W20298  44.282   0.743  13.422
51936W        W20299  43.460  22.577   0.335
51937W        W20300  32.111  42.524  13.534
51938W        W20301  24.092   7.868   0.334
51939W        W20302  42.497  29.572  14.835
51940W        W20303   2.260  26.185  13.548
51941W        W20304  26.596  11.227  13.507
51942W        W20305   7.232   6.294   0.777
51943W        W20306  25.196  19.645   4.262
51944W        W20307  24.630  21.530  12.425
51945W        W20308  32.483  32.992   0.408
51946W        W20309  16.302  23.195   1.292
51947W        W20310   0.370   7.811   0.730
51948W        W20311  42.390   2.868  14.359
51949W        W20312  31.638  26.092  12.069
51950W        W20313  34.114  26.608  11.042
51951W        W20314  12.324  24.003   2.712
51952W        W20315   4.715   4.828  12.006
51953W        W20316  35.979   3.807   1.321
51954W        W20317  27.038   1.298  11.384
51955W        W20318  43.272   7.906  12.071
51956W        W20319  39.963  33.448  10.454
51957W        W20320  20.076  10.852  13.402
51958W        W20321  33.013  39.560  11.907
51959W        W20322  25.473  31.404  13.867
51960W        W20323   0.935  15.314  14.865
51961W        W20324  22.166   0.436  12.349
51962W        W20325  34.512  35.483   1.865
51963W        W20326  43.004  16.698  13.445
51964W        W20327  27.612  31.527  14.778
51965W        W20328  36.514  26.518  12.461
51966W        W20329  20.144  12.155   3.699
51967W        W20330  36.095  35.895  14.762
51968W        W20331  25.494   4.754   4.769
51969W        W20332  43.360   2.747   2.857
51970W        W20333  32.563  38.901   4.174
51971W        W20334  14.259  34.476   0.400
51972W        W20335  24.490   3.927   0.351
51973W        W20336  43.933  42.447  12.560
51974W        W20337  31.903  16.592  11.885
51975W        W20338  29.539  38.377   0.921
51976W        W20339   4.814  33.455  11.997
51977W        W20340  34.087  39.486   4.810
51978W        W20341  39.965  31.066  10.953
51979W        W20342  26.160  28.177   4.785
51980W        W20343  27.500   6.758   4.672
51981W        W20344  21.687  29.102  14.824
51982W        W20345  20.245  44.324   0.951
51983W        W20346  24.687  34.063  12.079
51984W        W20347  21.060  16.765   1.722
51985W        W20348  19.210   8.812  12.495
51986W        W20349  38.848   1.269  12.924
51987W        W20350  19.690  23.196  11.478
51988W        W20351  38.999  13.252  14.824
51989W        W20352  17.557  42.325   0.455
51990W        W20353   4.898  29.955  13.911
51991W        W20354  44.461  22.612  11.968
51992W        W20355   0.863  23.002   2.343
51993W        W20356  37.414  25.601   4.782
51994W        W20357   2.832  10.850  12.892
51995W        W20358   2.944  29.657  11.913
51996W        W20359  23.142  14.210  12.493
51997W        W20360  24.208   1.275   0.898
51998W        W20361  39.456  43.783  10.947
51999W        W20362  26.125   1.750  12.505
52000W        W20363  42.867  31.103   3.332
52001W        W20364  25.658  11.808   4.183
52002W        W20365  22.561  25.113  12.865
52003W        W20366  20.071   6.677   2.407
52004W        W20367  28.473  17.299  14.766
52005W        W20368   9.257   0.439  14.964
52006W        W20369  34.864  26.684  13.851
52007W        W20370  11.745   2.251  14.971
52008W        W20371   8.857  19.250  13.870
52009W        W20372  39.034  32.995  10.914
52010W        W20373  41.819  34.019   4.809
52011W        W20374  15.699  38.362   0.269
52012W        W20375  36.468  31.075   2.706
52013W        W20376   6.748  35.528   2.760
52014W        W20377  30.157   8.728   1.397
52015W        W20378  14.169  41.811   3.733
52016W        W20379   6.189  14.331  11.010
52017W        W20380  28.182  22.641  13.854
52018W        W20381   7.783   3.305   5.102
52019W        W20382  32.545  40.806   3.730
52020W        W20383  14.130  34.574  10.928
52021W        W20384   4.943   0.456  13.891
52022W        W20385  42.473   2.470  11.429
52023W        W20386   2.376   9.150  14.917
52024W        W20387   6.788  16.645  14.285
52025W        W20388  27.127   4.934   2.805
52026W        W20389  40.042   7.912  10.572
52027W        W20390   9.239  35.991  13.021
52028W        W20391  27.179  27.969  10.044
52029W        W20392  33.570   3.356  10.517
52030W        W20393  14.684  38.872   1.298
52031W        W20394  27.156   9.647  11.861
52032W        W20395  36.984  26.979  13.064
52033W        W20396  25.200  20.198   2.402
52034W        W20397   2.300   3.434   4.731
52035W        W20398  13.697  15.128  13.328
52036W        W20399  33.443   6.897  10.937
52037W        W20400  25.011  28.003  10.969
52038W        W20401   6.236  29.024   1.391
52039W        W20402   0.364  20.202   0.376
52040W        W20403   6.786   3.738   1.852
52041W        W20404  17.096   5.881  14.782
52042W        W20405   8.263  40.942  11.012
52043W        W20406   5.912   3.891   3.651
52044W        W20407  39.326   9.248  10.475
52045W        W20408  39.868  15.328   0.393
52046W        W20409  43.810  14.317  11.913
52047W        W20410  16.796  13.242   3.268
52048W        W20411  22.561  40.925   1.762
52049W        W20412  17.143   3.228  13.033
52050W        W20413   7.196  16.726  12.966
52051W        W20414  20.626  30.657   3.783
52052W        W20415  42.848  32.011   0.425
52053W        W20416  39.824  26.069  13.937
52054W        W20417  38.448  29.141   1.447
52055W        W20418   3.305  42.018   3.737
52056W        W20419  39.442  44.936  11.946
52057W        W20420   1.423  14.097   3.387
52058W        W20421  23.566  15.803   1.370
52059W        W20422  16.750  25.552  11.396
52060W        W20423   1.270  30.463   4.715
52061W        W20424  10.795  30.464  10.992
52062W        W20425  32.548   2.963   1.829
52063W        W20426  18.783  43.881   3.205
52064W        W20427  23.617  21.560   2.769
52065W        W20428  40.463  30.464   2.280
52066W        W20429  24.214  10.728   4.622
52067W        W20430   9.206  12.228  14.841
52068W        W20431  22.076   7.365   3.722
52069W        W20432  37.837  24.008   1.837
52070W        W20433  25.568   5.910  11.460
52071W        W20434   1.375  44.921  12.452
52072W        W20435  23.523  41.911   0.799
52073W        W20436  29.499  21.561   0.330
52074W        W20437  11.694  11.177   3.207
52075W        W20438   8.770  28.451   1.839
52076W        W20439  41.449  12.132   3.213
52077W        W20440  21.212  32.579  12.493
52078W        W20441  32.120  16.268  10.572
52079W        W20442  22.590  28.607   3.748
52080W        W20443  39.461   9.838   3.717
52081W        W20444  39.379   0.303   3.857
52082W        W20445   0.278  34.048  12.874
52083W        W20446   2.411  14.218  10.138
52084W        W20447  28.048  11.772  10.077
52085W        W20448  29.011  43.913   0.790
52086W        W20449  36.373   8.255   1.357
52087W        W20450  43.822  21.515   4.142
52088W        W20451  24.487   7.725   1.392
52089W        W20452  37.850  29.629  14.913
52090W        W20453  12.616  20.054  12.344
52091W        W20454  21.264   9.859   4.170
52092W        W20455  34.505   1.394   9.952
52093W        W20456  26.466  21.582   4.227
52094W        W20457  30.454   1.749  13.011
52095W        W20458  21.728   4.383   2.804
52096W        W20459  10.255  20.126   1.895
52097W        W20460  18.150   1.817   0.369
52098W        W20461  39.508   4.789   2.860
52099W        W20462  41.353   9.285   1.267
52100W        W20463   5.902   3.315  14.434
52101W        W20464  32.425  26.516  11.433
52102W        W20465  35.067  10.233  11.027
52103W        W20466   3.736   0.786  13.795
52104W        W20467  18.102  26.463  11.866
52105W        W20468  43.801  22.686  10.955
52106W        W20469  36.885  28.930   4.297
52107W        W20470  11.270  13.201   4.743
52108W        W20471   9.668  38.425  12.986
52109W        W20472  18.074  36.023   3.755
52110W        W20473   1.280  33.928  11.895
52111W        W20474  12.276  24.974  14.967
52112W        W20475  30.634  28.663  12.065
52113W        W20476   8.307  23.241  14.974
52114W        W20477  26.037  38.894  11.925
52115W        W20478  21.248  13.842   4.297
52116W        W20479   8.217  19.671  13.900
52117W        W20480  33.993  26.177   4.626
52118W        W20481  10.224  29.116  14.463
52119W        W20482   1.777  22.652  10.937
52120W        W20483  14.272   8.693  10.892
52121W        W20484  44.301  21.206  14.005
52122W        W20485  16.706  41.820   2.202
52123W        W20486  36.973  16.239  12.932
52124W        W20487  29.941  23.189   2.318
52125W        W20488  42.866  15.672  11.536
52126W        W20489   8.821   3.277   3.757
52127W        W20490  16.208  20.180  13.479
52128W        W20491   5.201  44.440  10.542
52129W        W20492  41.463  41.903  11.548
52130W        W20493  36.042  43.862  13.349
52131W        W20494   2.323  27.135   3.285
52132W        W20495  12.620  37.892   2.230
52133W        W20496  10.381  13.840  10.408
52134W        W20497  13.238  37.435   2.354
52135W        W20498   3.423   3.878  13.841
52136W        W20499  23.022  35.459  11.095
52137W        W20500  41.296  33.911  11.519
52138W        W20501  37.048  40.850  13.425
52139W        W20502  27.483  44.797  11.979
52140W        W20503  42.991  23.550   1.775
52141W        W20504  13.671  30.523   1.882
52142W        W20505  22.735  34.412   4.789
52143W        W20506  20.274  18.197  10.136
52144W        W20507  29.559   0.463   4.747
52145W        W20508  41.437  24.090  11.990
52146W        W20509  32.051  10.770   1.742
52147W        W20510  40.027  25.516   1.913
52148W        W20511  38.416  35.453  14.462
52149W        W20512   9.215  42.486   0.351
52150W        W20513  26.186  18.161  13.043
52151W        W20514  21.096   6.916  14.888
52152W        W20515  29.149  31.896   4.318
52153W        W20516  37.060   4.706   2.692
52154W        W20517  11.317   3.351  13.453
52155W        W20518   5.397  31.592   2.866
52156W        W20519  18.617   7.720  12.906
52157W        W20520  19.573  17.159  14.839
52158W        W20521   1.308  17.652  10.907
52159W        W20522  11.331  43.963  10.602
52160W        W20523  28.463  25.983   4.156
52161W        W20524   6.734  38.463  14.969
52162W        W20525  33.920  41.361   3.767
52163W        W20526  39.499  11.253   2.319
52164W        W20527  35.456  26.973  13.847
52165W        W20528  40.917   4.378  14.969
52166W        W20529  17.600   9.837   2.704
52167W        W20530  37.933  34.576   0.948
52168W        W20531   0.950   2.886  13.324
52169W        W20532  20.071  34.106  14.425
52170W        W20533  15.635  25.693   4.125
52171W        W20534  35.404  14.325   1.341
52172W        W20535  41.893   4.804   4.300
52173W        W20536  32.975   8.836   5.155
52174W        W20537  31.530  17.659  12.363
52175W        W20538  21.128  11.772   2.770
52176W        W20539  43.952   3.432   0.471
52177W        W20540   0.373  12.329   1.391
52178W        W20541  33.623  18.751   3.386
52179W        W20542  18.217  12.330   2.331
52180W        W20543   2.330  36.505   2.224
52181W        W20544  19.535  32.611   3.180
52182W        W20545  11.197  40.996  14.904
52183W        W20546   4.247  36.932  10.932
52184W        W20547  14.619  10.316   1.444
52185W        W20548  17.584  31.007  10.448
52186W        W20549   9.351  31.009   0.754
52187W        W20550   5.337  31.070  11.033
52188W        W20551  32.610  20.099  12.013
52189W        W20552  18.764  21.682  11.611
52190W        W20553  41.399  29.060  13.873
52191W        W20554  37.083  36.412   2.311
52192W        W20555  16.132  44.804  10.434
52193W        W20556  33.922   7.726  12.035
52194W        W20557  31.105  14.142  11.612
52195W        W20558  42.458  16.128  12.533
52196W        W20559  20.042  42.026  14.288
52197W        W20560   4.833  29.529  14.343
52198W        W20561  29.543  38.056  10.462
52199W        W20562  35.406  20.120  14.832
52200W        W20563  40.521  33.403  12.499
52201W        W20564  43.834  42.933   4.241
52202W        W20565  20.546  43.356  10.581
52203W        W20566  31.953  27.090   1.248
52204W        W20567  39.997  37.373  13.517
52205W        W20568  15.246   7.258  10.546
52206W        W20569  34.510  15.815  14.924
52207W        W20570   2.264  16.240   0.775
52208W        W20571  43.923  32.089  11.962
52209W        W20572  15.601  28.440  11.899
52210W        W20573   9.221  25.585   0.293
52211W        W20574  21.529  35.039  10.555
52212W        W20575  22.251  19.734  10.976
52213W        W20576  36.576  31.925  13.004
52214W        W20577  34.397  37.968   3.347
52215W        W20578  39.920  20.763   2.711
52216W        W20579  35.938  32.420   3.261
52217W        W20580  38.819  23.691   1.434
52218W        W20581  32.029  43.345   4.615
52219W        W20582  11.322  38.361   4.257
52220W        W20583   9.782   2.888   4.618
52221W        W20584  23.701   2.249   1.767
52222W        W20585  23.039  29.955   0.452
52223W        W20586   3.904  11.818  13.307
52224W        W20587  41.528  30.516  10.613
52225W        W20588  40.818  30.072  12.859
52226W        W20589  17.662  37.347   1.695
52227W        W20590  41.511  21.149  14.383
52228W        W20591  17.119   3.952   3.192
52229W        W20592  29.638   6.279   1.722
52230W        W20593  27.554   8.285  12.424
52231W        W20594  18.606  16.727  13.313
52232W        W20595  22.106  12.160  14.335
52233W        W20596  33.586  15.715   3.705
52234W        W20597  32.401  43.878  12.342
52235W        W20598   3.386  22.109  14.444
52236W        W20599  40.860  12.194   0.812
52237W        W20600  13.195  13.632   3.853
52238W        W20601  19.198  27.150  14.466
52239W        W20602   1.778  30.611  13.334
52240W        W20603  22.197  42.954   2.846
52241W        W20604  24.215  31.607  14.836
52242W        W20605  14.781  12.824  12.938
52243W        W20606  18.122  19.772  14.806
52244W        W20607  34.374  32.116  14.372
52245W        W20608  41.410   7.257  12.902
52246W        W20609  33.388  19.535  13.943
52247W        W20610  12.210  42.408   2.318
52248W        W20611  38.375  44.393  10.408
52249W        W20612  27.634  33.448  12.962
52250W        W20613  36.073  43.327  13.491
52251W        W20614  10.832  27.489   3.343
52252W        W20615  29.118  31.943  12.447
52253W        W20616  41.359   8.683  10.918
52254W        W20617  18.186  36.977   2.310
52255W        W20618  25.976   7.298  13.856
52256W        W20619  25.185  24.170  14.858
52257W        W20620  29.117  28.635   4.132
52258W        W20621  13.649   7.333  14.974
52259W        W20622  13.259  23.018  12.445
52260W        W20623  36.965  15.612  10.090
52261W        W20624  13.287  19.551   3.693
52262W        W20625   6.200   2.267   3.842
52263W        W20626  42.961  27.060   1.229
52264W        W20627  40.985  19.183  10.941
52265W        W20628  16.096  29.142   4.627
52266W        W20629  12.776  13.321   0.884
52267W        W20630  27.982  16.178   2.196
52268W        W20631  18.289  13.784  14.812
52269W        W20632  41.903  44.755  13.940
52270W        W20633  23.686   1.469  14.830
52271W        W20634  14.230  11.283  14.006
52272W        W20635  43.976  41.506   2.866
52273W        W20636  43.900  14.610   4.727
52274W        W20637  42.997  10.229  13.930
52275W        W20638   4.450   3.802   1.822
52276W        W20639  30.499  32.534  13.465
52277W        W20640  12.716  31.063   2.898
52278W        W20641  35.583  31.564  14.021
52279W        W20642  13.293  28.958  14.328
52280W        W20643  30.455  14.589   3.858
52281W        W20644  29.160   5.780   0.919
52282W        W20645  30.150  20.195  12.963
52283W        W20646  35.429   8.747   4.302
52284W        W20647  28.506  40.443  12.408
52285W        W20648   5.352  24.489   4.826
52286W        W20649  39.823  13.829   2.729
52287W        W20650  14.710  40.861  14.344
52288W        W20651  38.414  11.163  11.875
52289W        W20652  10.310  18.572  10.055
52290W        W20653   1.807   6.754   0.889
52291W        W20654  19.770  26.466  13.321
52292W        W20655  21.043  44.459   5.094
52293W        W20656   1.364   1.440   4.659
52294W        W20657  17.731  44.950  10.900
52295W        W20658   3.887  39.409  14.455
52296W        W20659  23.671  27.953  13.527
52297W        W20660  13.338  39.434  13.873
52298W        W20661   6.381  28.990   0.347
52299W        W20662  39.389   2.271  14.964
52300W        W20663  37.937  33.015  13.372
52301W        W20664  37.946   7.209   1.870
52302W        W20665  41.954  16.200   4.675
52303W        W20666  32.490  28.148  13.954
52304W        W20667   1.471  26.096   1.747
52305W        W20668  12.670   3.375  11.947
52306W        W20669  37.470  44.453  11.501
52307W        W20670   8.739  14.206  10.065
52308W        W20671  14.780  20.681   0.892
52309W        W20672  29.974  25.624   1.427
52310W        W20673  13.133  15.147   4.753
52311W        W20674  34.001  33.382   3.791
52312W        W20675  32.391   9.685   2.745
52313W        W20676  42.000   9.883  14.989
52314W        W20677  30.921  41.846   1.331
52315W        W20678  20.656  34.589  10.466
52316W        W20679   3.759  27.473   3.147
52317W        W20680  27.065  16.081  10.984
52318W        W20681   2.957  42.345  11.989
52319W        W20682  39.034   3.366   4.748
52320W        W20683   4.803  22.518  13.542
52321W        W20684  10.329  22.161   2.297
52322W        W20685  37.984  19.050   0.370
52323W        W20686  43.377  20.053  11.486
52324W        W20687   6.825  23.154  14.992
52325W        W20688   8.230  31.041  12.886
52326W        W20689   6.241  10.281  11.604
52327W        W20690  30.654  44.776  11.524
52328W        W20691  33.400  43.334  10.511
52329W        W20692   8.249   5.719   0.388
52330W        W20693  34.020  34.478   1.314
52331W        W20694  28.125  21.130  13.944
52332W        W20695  20.184  31.407  11.047
52333W        W20696   9.180  37.990   4.268
52334W        W20697  24.571   3.359   0.434
52335W        W20698  31.620  26.622  14.957
52336W        W20699  29.932  24.705   2.293
52337W        W20700  29.060  41.898   1.260
52338W        W20701   8.689   1.966   0.786
52339W        W20702  27.179  17.587  14.014
52340W        W20703  22.063  27.989  12.575
52341W        W20704  41.438  34.893   2.297
52342W        W20705   1.875  13.621  11.527
52343W        W20706  32.111  39.325  13.049
52344W        W20707  23.196  33.046   2.698
52345W        W20708   7.335  23.664  12.071
52346W        W20709   1.849   9.829   0.872
52347W        W20710   3.765  34.509   0.762
52348W        W20711  14.285  20.162   0.834
52349W        W20712  38.561  32.130   1.405
52350W        W20713  29.478   1.436   4.195
52351W        W20714  19.744   8.208  12.025
52352W        W20715  15.726   9.331  13.961
52353W        W20716  20.028  30.544   4.340
52354W        W20717  13.846  37.939  14.342
52355W        W20718  38.459  41.422  10.509
52356W        W20719  35.468  35.996  11.958
52357W        W20720  28.941  15.324   2.770
52358W        W20721  10.362  34.044   0.876
52359W        W20722  19.088   4.306   2.769
52360W        W20723  27.522  26.492  12.514
52361W        W20724  41.956  26.669   0.415
52362W        W20725  14.331  15.636   2.814
52363W        W20726   1.483   7.212  12.441
52364W        W20727  25.679  20.204  11.129
52365W        W20728   3.734  16.157   0.412
52366W        W20729  19.774  26.675   2.725
52367W        W20730  30.470  13.599  14.905
52368W        W20731   6.397   3.399  14.940
52369W        W20732   0.977  20.740  12.972
52370W        W20733   6.747  35.025   1.404
52371W        W20734  18.572  14.612   2.861
52372W        W20735  22.173  17.066   3.170
52373W        W20736  29.498   7.743   0.821
52374W        W20737   6.308  19.230   1.334
52375W        W20738   1.370  16.780  10.502
52376W        W20739  43.345  29.523  13.468
52377W        W20740  24.501  16.186   1.346
52378W        W20741   6.862  39.038   2.407
52379W        W20742  15.791  38.880  12.377
52380W        W20743  15.667  32.887   3.717
52381W        W20744  34.954   8.835   3.700
52382W        W20745  41.788  34.595   0.318
52383W        W20746  39.913  13.632  13.351
52384W        W20747  11.631  33.129   3.670
52385W        W20748  15.598  16.700   2.683
52386W        W20749  42.973  37.453  13.046
52387W        W20750  34.074   2.800   1.422
52388W        W20751  10.316   9.792   1.427
52389W        W20752  27.590  44.925  12.558
52390W        W20753  42.825  22.066  13.994
52391W        W20754  31.603  40.049  10.404
52392W        W20755  22.627  34.558  14.490
52393W        W20756   8.378  10.180   4.699
52394W        W20757  42.009  38.434   1.331
52395W        W20758  13.324  38.410   0.779
52396W        W20759  18.653  25.518  14.946
52397W        W20760   1.472  29.599   4.157
52398W        W20761   9.789  18.592  10.530
52399W        W20762  34.972  33.986  12.039
52400W        W20763  27.612  14.705   1.323
52401W        W20764   9.207   5.214   0.374
52402W        W20765  31.966  21.113  12.448
52403W        W20766  29.639  14.206  11.921
52404W        W20767  18.552  44.346  10.086
52405W        W20768  29.164  26.024   4.152
52406W        W20769  27.662  43.332   2.196
52407W        W20770   7.175  25.502  14.791
52408W        W20771   8.211  37.999  11.876
52409W        W20772  19.641  22.056   0.293
52410W        W20773   0.822  36.444  12.452
52411W        W20774  10.645   0.774   1.822
52412W        W20775  37.010  37.539   0.748
52413W        W20776  34.924   7.730   0.826
52414W        W20777  19.597  25.590  11.884
52415W        W20778  44.813  17.193  14.336
52416W        W20779   8.347  10.819   0.911
52417W        W20780   3.292  36.888  13.328
52418W        W20781   9.180  33.943  12.972
52419W        W20782   4.872  13.276  13.408
52420W        W20783   3.909  27.046   4.177
52421W        W20784   4.320  43.404   1.356
52422W        W20785  11.310  42.838  14.497
52423W        W20786  31.900  44.346   3.355
52424W        W20787  39.973  30.593  10.995
52425W        W20788  21.649  25.581  13.413
52426W        W20789  28.177   3.325   5.236
52427W        W20790  17.599  21.729   0.844
52428W        W20791  25.584  36.427  10.545
52429W        W20792   7.754   0.968  12.511
52430W        W20793  34.387  44.498  12.057
52431W        W20794   0.462  19.040  13.933
52432W        W20795   1.412  31.541   0.390
52433W        W20796  42.326   9.205  11.438
52434W        W20797  30.546  28.435  11.578
52435W        W20798  33.964  16.678   4.349
52436W        W20799  38.061  40.962  13.815
52437W        W20800  26.596   3.883   1.878
52438W        W20801  44.267   6.865  11.108
52439W        W20802  28.961  25.480   0.871
52440W        W20803  11.783  28.170  11.081
52441W        W20804  16.221  32.523   1.360
52442W        W20805  12.691  24.665  11.886
52443W        W20806  29.924   2.725   0.923
52444W        W20807  35.093   0.928   0.739
52445W        W20808   0.332  20.740  12.829
52446W        W20809  42.964  10.249   3.249
52447W        W20810  26.142  27.954  12.539
52448W        W20811  28.102  29.566  10.454
52449W        W20812   2.814  32.557   0.854
52450W        W20813  28.087  35.463  11.428
52451W        W20814  21.735  37.924   1.386
52452W        W20815  35.416  33.076   2.780
52453W        W20816  44.973   8.815   4.713
52454W        W20817  43.472  33.029   1.890
52455W        W20818  17.725  25.152   1.755
52456W        W20819   7.861  37.371   0.800
52457W        W20820   6.274  19.638   4.800
52458W        W20821  16.668  34.600  13.344
52459W        W20822  13.620  32.958   2.712
52460W        W20823  29.611   4.288  11.108
52461W        W20824  31.983  25.548  12.524
52462W        W20825  28.450  36.537  12.855
52463W        W20826  35.009   8.805  13.856
52464W        W20827  25.075  29.004   4.763
52465W        W20828  23.186   7.862  12.900
52466W        W20829  25.662   0.472  11.007
52467W        W20830  18.562  19.089   4.147
52468W        W20831  34.472  19.537   0.765
52469W        W20832  19.275  44.299  10.605
52470W        W20833  44.472  22.706  11.503
52471W        W20834  35.522  28.491   0.372
52472W        W20835  10.827  31.505   4.172
52473W        W20836  41.019  21.256  11.489
52474W        W20837   8.210  21.212   1.839
52475W        W20838   5.237  35.926  12.470
52476W        W20839  22.208  36.557   4.263
52477W        W20840  12.252  24.524   2.788
52478W        W20841  36.591  34.470   4.342
52479W        W20842  31.614  38.426   4.167
52480W        W20843  29.957  16.187   4.645
52481W        W20844  39.484  15.668  11.887
52482W        W20845  34.607   2.244   4.159
52483W        W20846  35.556  14.756   3.771
52484W        W20847   9.688  28.008  10.486
52485W        W20848   1.942  22.224   0.865
52486W        W20849   7.774  40.410   4.791
52487W        W20850  31.531  20.105   2.871
52488W        W20851  38.517   0.399  11.574
52489W        W20852   8.377  32.953  13.977
52490W        W20853  36.984  12.778   9.479
52491W        W20854   8.704  32.584  11.921
52492W        W20855  24.667  14.153  13.519
52493W        W20856  17.633  27.509  13.500
52494W        W20857  38.483  29.478  10.618
52495W        W20858   1.868  40.386   0.463
52496W        W20859  28.482  22.172  11.409
52497W        W20860  30.541   3.864   3.342
52498W        W20861  36.004  44.473   1.852
52499W        W20862  38.403  29.460   3.853
52500W        W20863  40.466  32.942  10.412
52501W        W20864  32.494  19.538   0.747
52502W        W20865  19.544  20.594   0.758
52503W        W20866  43.962  14.827  12.341
52504W        W20867  13.731  14.690   4.613
52505W        W20868  40.453  30.532  13.323
52506W        W20869  30.959  22.627   9.984
52507W        W20870  26.167   4.744  11.388
52508W        W20871  35.384  44.788   2.217
52509W        W20872  36.083  25.591  13.927
52510W        W20873  23.078  17.632  10.978
52511W        W20874  27.970   6.278  11.550
52512W        W20875  12.782  38.345   4.247
52513W        W20876  14.112  43.863  14.507
52514W        W20877   8.390   3.867   2.279
52515W        W20878  37.387  37.421   2.870
52516W        W20879  17.748  39.033  10.551
52517W        W20880  27.097  40.413   1.336
52518W        W20881   5.395  12.125   2.351
52519W        W20882  21.533  44.942   1.364
52520W        W20883  41.444  23.165   1.873
52521W        W20884  39.538   3.221  12.448
52522W        W20885  22.167  25.020   3.722
52523W        W20886  25.059  35.063   1.869
52524W        W20887  38.923  44.309   0.901
52525W        W20888  11.763  22.672  13.054
52526W        W20889  29.130  31.027   3.188
52527W        W20890  17.686  10.148  13.860
52528W        W20891  31.937  29.919  14.363
52529W        W20892  39.548  35.403   1.273
52530W        W20893  23.236  40.853   3.701
52531W        W20894  43.470   0.941   1.709
52532W        W20895  34.907  38.052  14.938
52533W        W20896  43.984   5.265  11.914
52534W        W20897  26.972  39.515  11.087
52535W        W20898   8.835  31.975   0.471
52536W        W20899  12.261  16.161  14.780
52537W        W20900   6.694  35.942  13.380
52538W        W20901  39.829  24.624   4.269
52539W        W20902   6.246  35.369   2.710
52540W        W20903   5.873  37.398   3.260
52541W        W20904  27.039  38.010   2.788
52542W        W20905  35.592  30.483  14.954
52543W        W20906  33.452  15.253  14.835
52544W        W20907  16.662  25.072   0.859
52545W        W20908  25.556  35.916   1.704
52546W        W20909  44.505   2.401   2.811
52547W        W20910  16.631  25.708   3.652
52548W        W20911  40.052  13.267   3.233
52549W        W20912   9.251  13.306   2.397
52550W        W20913   6.689   6.384   2.880
52551W        W20914  24.978  24.681   3.757
52552W        W20915  41.977  28.537   2.269
52553W        W20916  42.454  18.568   1.235
52554W        W20917  21.748  32.991   4.146
52555W        W20918  23.108  17.156  12.888
52556W        W20919  40.048  16.310  14.398
52557W        W20920  14.130  18.109   5.117
52558W        W20921   2.784   8.855   4.808
52559W        W20922  30.601  34.869   0.381
52560W        W20923  43.855  34.533  11.006
52561W        W20924   6.846   0.876   4.681
52562W        W20925  15.744  44.291  12.832
52563W        W20926  14.738  40.970   0.727
52564W        W20927  14.100  39.489  10.923
52565W        W20928  30.094   4.714  14.899
52566W        W20929  10.741  21.534   1.755
52567W        W20930  40.528  18.049  14.292
52568W        W20931  30.105  28.452   5.130
52569W        W20932  29.648  28.152   4.220
52570W        W20933  24.502  21.073  11.389
52571W        W20934  20.562  10.712  12.527
52572W        W20935  32.066  35.602  10.481
52573W        W20936  28.662  28.595   3.358
52574W        W20937  25.655  26.137  14.295
52575W        W20938  35.358  11.837  13.866
52576W        W20939  20.106   6.683  14.915
52577W        W20940   8.801  21.524   1.810
52578W        W20941  40.960  34.494   2.262
52579W        W20942  27.518  23.213  12.930
52580W        W20943  19.227   2.773   2.226
52581W        W20944  18.563  40.010  14.303
52582W        W20945  30.536   1.306   4.657
52583W        W20946   9.705  44.429   0.334
52584W        W20947  26.989  43.005   4.738
52585W        W20948   0.358   8.207   2.211
52586W        W20949  22.618  44.800  13.056
52587W        W20950  39.842  44.400   0.301
52588W        W20951  28.039  16.225  13.315
52589W        W20952   3.229  42.849   4.733
52590W        W20953   4.869  39.872  14.776
52591W        W20954  18.238  24.149   0.962
52592W        W20955  28.528   6.242  12.524
52593W        W20956  43.949  26.129  14.511
52594W        W20957  22.511   4.279  14.444
52595W        W20958  36.088  17.144  11.551
52596W        W20959   0.488  41.908  12.997
52597W        W20960  25.181  32.906  14.355
52598W        W20961  15.156  43.397  11.938
52599W        W20962  33.431  32.947   0.905
52600W        W20963   5.821  10.639   4.137
52601W        W20964   9.341   4.384  13.902
52602W        W20965   1.799  20.686   1.382
52603W        W20966  21.037  22.571  14.918
52604W        W20967  33.119  25.658  14.301
52605W        W20968  31.428  37.387  10.598
52606W        W20969  21.655  27.645  14.506
52607W        W20970  19.197  27.941   2.724
52608W        W20971  25.971   1.449   3.312
52609W        W20972  38.900  44.263   5.268
52610W        W20973  34.968   4.317   4.308
52611W        W20974  27.510  35.601   0.277
52612W        W20975   8.838  30.630  13.355
52613W        W20976  28.175  35.560  14.388
52614W        W20977   8.229  33.419   1.448
52615W        W20978  32.933   4.273   2.361
52616W        W20979  37.345  43.365  14.311
52617W        W20980  29.561  40.487  14.875
52618W        W20981  24.984  43.945  10.500
52619W        W20982  22.688   2.349   3.310
52620W        W20983  22.564  28.514   1.385
52621W        W20984  28.129  30.477   5.242
52622W        W20985  22.117   9.852  11.950
52623W        W20986  39.861  44.937   4.724
52624W        W20987   3.262  36.925   0.812
52625W        W20988  41.871  24.993  12.572
52626W        W20989  33.429  15.672  14.888
52627W        W20990  28.947  35.388  10.426
52628W        W20991  27.470  20.072  11.053
52629W        W20992  15.150  32.129   5.110
52630W        W20993  18.560   4.208   3.163
52631W        W20994  42.511  40.538   3.800
52632W        W20995   5.393  42.345   1.730
52633W        W20996  30.530  33.567  11.544
52634W        W20997  28.975  31.936  14.408
52635W        W20998  13.131  42.031  12.888
52636W        W20999  31.573  22.027  14.859
52637W        W21000  38.035   6.788  13.999
52638W        W21001  17.741   3.897  11.887
52639W        W21002  21.264  41.003  13.835
52640W        W21003  19.548  24.621   3.213
52641W        W21004  25.033  11.268   3.160
52642W        W21005  40.447  23.605   2.801
52643W        W21006  34.532  19.552   2.759
52644W        W21007  34.970  22.223   1.838
52645W        W21008  44.998  19.552  12.073
52646W        W21009  44.858  40.391   0.267
52647W        W21010  21.544  38.074  12.478
52648W        W21011  44.818  13.285   3.317
52649W        W21012   3.738  15.814  13.848
52650W        W21013   4.879   3.944  11.980
52651W        W21014  25.133  43.482   2.754
52652W        W21015  13.165  27.945   1.293
52653W        W21016  32.007  41.452  13.373
52654W        W21017  17.786  16.314   4.153
52655W        W21018  22.069  18.263  11.597
52656W        W21019  10.237  15.799  10.557
52657W        W21020  21.667  34.392   2.883
52658W        W21021  44.973  41.303   3.322
52659W        W21022  11.318  13.765   0.751
52660W        W21023  23.990  34.897   1.922
52661W        W21024  10.859   7.404  13.334
52662W        W21025   5.843   0.308  13.856
52663W        W21026  26.953  33.029   0.819
52664W        W21027   2.823  37.066   3.785
52665W        W21028  18.747   3.837  13.388
52666W        W21029  40.312  44.878  10.446
52667W        W21030  23.729  30.163  11.110
52668W        W21031  30.551  22.631   1.245
52669W        W21032   7.275   5.786  14.307
52670W        W21033  41.529  39.003   1.231
52671W        W21034  10.707   2.833  13.370
52672W        W21035  43.903  26.179  13.023
52673W        W21036  19.616  23.028   0.903
52674W        W21037  39.551  39.918   2.672
52675W        W21038  31.979   3.309  11.484
52676W        W21039   0.298  44.465  11.499
52677W        W21040  31.946  37.504   4.821
52678W        W21041  37.537  14.700   3.383
52679W        W21042  12.137  18.286  11.989
52680W        W21043  32.511  11.812  14.476
52681W        W21044  23.034  16.685  11.099
52682W        W21045  12.786  25.617  10.438
52683W        W21046  26.655  23.536   3.654
52684W        W21047  19.770  19.608   0.894
52685W        W21048  34.871  43.397  13.897
52686W        W21049   8.313  35.010   1.379
52687W        W21050  16.241  40.844   2.892
52688W        W21051  33.932   5.838   2.666
52689W        W21052   8.691  28.120   0.782
52690W        W21053   3.288   2.342  14.439
52691W        W21054  15.672  43.803  11.042
52692W        W21055  23.652   3.742  14.335
52693W        W21056  37.984  13.233  12.553
52694W        W21057   1.958  10.287  14.335
52695W        W21058   0.886  12.622   9.946
52696W        W21059  14.832  14.626   0.455
52697W        W21060   7.309  34.930   3.805
52698W        W21061  37.934  35.889  12.084
52699W        W21062   7.762  13.331   0.808
52700W        W21063  34.553  32.987  13.467
52701W        W21064  13.134   6.748  13.998
52702W        W21065  31.112   2.727   2.739
52703W        W21066  21.101   6.374  11.910
52704W        W21067  29.441  12.798  13.051
52705W        W21068  43.860  36.024   1.355
52706W        W21069  17.689   7.196   4.185
52707W        W21070  27.093   1.773   5.147
52708W        W21071  39.923  39.381   0.258
52709W        W21072  29.003  14.691  10.526
52710W        W21073  24.209  40.858  13.434
52711W        W21074  17.644  36.378  11.003
52712W        W21075  25.985  26.194   1.217
52713W        W21076  34.392  40.534   4.159
52714W        W21077   4.249   1.847   0.743
52715W        W21078   2.842  44.288  13.468
52716W        W21079  34.885   5.434   0.472
52717W        W21080  39.402   0.467   0.819
52718W        W21081  31.971   4.248   3.244
52719W        W21082  19.185   4.437   3.184
52720W        W21083  22.999   7.880  12.029
52721W        W21084   4.409  31.984  14.462
52722W        W21085  41.493   3.895  10.438
52723W        W21086  34.398  28.972  11.897
52724W        W21087  37.541  24.208   3.823
52725W        W21088   5.830  13.788   4.285
52726W        W21089  22.728  13.845  12.491
52727W        W21090  25.193  19.542   2.778
52728W        W21091  19.533   3.785   3.708
52729W        W21092   2.902  24.509   1.371
52730W        W21093  42.304  39.489   3.314
52731W        W21094  31.907  39.823  14.473
52732W        W21095   4.904  38.467  10.078
52733W        W21096  14.220  28.048   3.783
52734W        W21097  17.168  14.695  13.393
52735W        W21098  36.583  21.632   4.145
52736W        W21099  38.041  20.243   0.335
52737W        W21100  10.751  29.577   3.686
52738W        W21101   2.405  39.457  10.993
52739W        W21102  43.006  23.583  10.511
52740W        W21103   4.831  20.244   5.293
52741W        W21104  22.163  38.382   2.688
52742W        W21105  17.305  43.962  11.991
52743W        W21106  14.207   3.749  14.883
52744W        W21107  23.215  13.207   3.765
52745W        W21108  43.484   7.709  12.997
52746W        W21109  24.186  15.668  12.022
52747W        W21110  33.498  14.755   2.803
52748W        W21111   0.951   6.389  10.062
52749W        W21112  40.989   3.797  11.399
52750W        W21113  27.102  42.400   2.234
52751W        W21114  28.045   8.821   0.347
52752W        W21115  44.468  44.886   1.373
52753W        W21116   6.818  29.618   4.129
52754W        W21117  37.863  22.529   0.844
52755W        W21118  18.217  11.846  10.626
52756W        W21119  38.988  22.236  14.994
52757W        W21120   0.757  15.824  14.770
52758W        W21121  16.180  30.497  14.437
52759W        W21122  36.349   9.838  13.481
52760W        W21123  26.168   9.208   0.820
52761W        W21124  30.471   5.269   0.350
52762W        W21125  17.799  24.180   3.280
52763W        W21126  41.826  13.110  11.585
52764W        W21127  17.212  19.607  14.505
52765W        W21128  23.568  41.015   1.828
52766W        W21129  11.200  26.669   5.117
52767W        W21130  40.821  32.972  14.332
52768W        W21131  17.290  26.581   2.242
52769W        W21132  29.118   8.747  11.996
52770W        W21133  17.636   6.768  12.511
52771W        W21134  20.067   4.732   3.796
52772W        W21135  35.528  29.426  10.531
52773W        W21136  21.672  27.976  11.514
52774W        W21137  16.755   8.699   1.360
52775W        W21138  19.557  37.055  10.426
52776W        W21139  22.572   0.855  12.989
52777W        W21140  17.125  13.644   2.272
52778W        W21141  17.188  32.955  11.038
52779W        W21142  29.139  20.198   0.347
52780W        W21143  25.497  44.290  13.059
52781W        W21144  20.627  16.724  10.435
52782W        W21145  17.763  11.243  10.926
52783W        W21146  22.249  28.989  14.330
52784W        W21147  35.914  13.105   3.812
52785W        W21148  11.672   0.790  12.415
52786W        W21149  15.710  42.812  11.554
52787W        W21150  22.737  12.192  11.902
52788W        W21151  22.094  21.690   4.175
52789W        W21152   2.270   6.710  12.552
52790W        W21153  27.613  28.171   3.729
52791W        W21154  31.055  20.202   2.264
52792W        W21155  10.364  28.506  10.642
52793W        W21156   3.459  11.804   2.730
52794W        W21157  29.632  20.031  10.527
52795W        W21158   5.209  33.498   4.601
52796W        W21159   4.228  36.366  14.473
52797W        W21160  39.922  39.899  10.580
52798W        W21161  26.198  26.506   1.316
52799W        W21162  16.250  39.387   1.912
52800W        W21163  29.100   4.845   0.319
52801W        W21164  26.522  36.467  12.017
52802W        W21165  17.636   2.811  11.128
52803W        W21166  34.420  44.958   2.307
52804W        W21167  25.669  21.155  11.104
52805W        W21168   8.786  35.394  12.013
52806W        W21169   4.226  24.700   3.160
52807W        W21170  29.535  33.504   3.322
52808W        W21171   4.207  25.025  12.093
52809W        W21172  11.344  21.554   3.197
52810W        W21173  44.415  36.367   1.352
52811W        W21174  40.854  18.068  11.912
52812W        W21175  23.594  34.396  13.814
52813W        W21176  14.751  31.539   3.254
52814W        W21177  39.952   9.708   1.411
52815W        W21178  27.648  33.389  12.439
52816W        W21179  13.136   0.926   1.932
52817W        W21180  35.551  19.537  13.815
52818W        W21181  43.013  35.413  11.531
52819W        W21182   5.875  16.084  11.434
52820W        W21183  13.834  43.389   4.672
52821W        W21184  38.527   0.326  12.969
52822W        W21185  36.979  10.242   0.966
52823W        W21186  14.120  10.830   3.648
52824W        W21187   9.776  38.357   2.826
52825W        W21188   7.312  32.071  13.999
52826W        W21189  24.148  35.009  11.558
52827W        W21190  12.826  22.124  12.409
52828W        W21191  37.912  31.611  14.771
52829W        W21192  27.487  44.937   2.393
52830W        W21193   6.914  36.479  11.609
52831W        W21194  14.189  31.956  14.840
52832W        W21195  25.192   0.913  14.436
52833W        W21196  37.832  28.004  14.949
52834W        W21197  41.838  14.104  10.548
52835W        W21198  27.977   5.870  11.553
52836W        W21199   9.780   3.955  10.552
52837W        W21200  41.517  40.383   0.869
52838W        W21201  21.193  39.552  13.838
52839W        W21202  44.982  13.236  13.022
52840W        W21203  35.567  21.647   3.322
52841W        W21204  43.369  14.633   4.829
52842W        W21205  43.789   3.725   4.303
52843W        W21206  25.539  43.861  13.450
52844W        W21207  26.676  32.624  11.588
52845W        W21208  39.898  29.566   1.919
52846W        W21209  14.293  20.750   2.831
52847W        W21210  17.298  16.085  10.509
52848W        W21211  43.928  35.011  10.618
52849W        W21212  27.607  10.214   0.403
52850W        W21213  34.055  24.073  11.923
52851W        W21214   8.251  30.465   5.230
52852W        W21215  17.257   9.741   0.751
52853W        W21216   8.241  42.780  11.550
52854W        W21217  33.474  20.626  11.983
52855W        W21218  43.846  37.366   2.840
52856W        W21219   5.914  10.686   0.429
52857W        W21220   8.358  35.388  10.509
52858W        W21221   0.792  24.197   2.238
52859W        W21222  25.092  26.175  11.437
52860W        W21223  19.733  15.775  13.937
52861W        W21224  28.039  20.543   1.347
52862W        W21225  34.118  31.637  10.565
52863W        W21226  41.016  27.500   3.348
52864W        W21227   3.843  15.258  10.483
52865W        W21228  35.900   5.394  10.473
52866W        W21229  22.559  31.411  13.349
52867W        W21230  29.632  14.604   5.311
52868W        W21231  43.400  36.945  12.996
52869W        W21232   7.720  41.451  11.053
52870W        W21233  20.648  43.415   1.855
52871W        W21234  44.005  28.159  10.983
52872W        W21235   2.868  34.963  11.099
52873W        W21236  38.560  35.032   3.851
52874W        W21237   5.343  20.168   1.853
52875W        W21238  23.140  42.325  12.831
52876W        W21239  19.198   5.416   4.799
52877W        W21240  14.784   0.430  13.536
52878W        W21241   6.873  12.773   0.896
52879W        W21242  38.998  22.249   3.754
52880W        W21243  34.430   2.447   2.338
52881W        W21244  42.521   6.711   1.236
52882W        W21245  33.532   3.955  13.059
52883W        W21246  28.536  16.225   9.936
52884W        W21247  30.932  44.429  13.487
52885W        W21248  19.198  17.174   0.466
52886W        W21249  38.495  43.453   4.779
52887W        W21250   5.710  18.119  12.088
52888W        W21251  13.770  40.899   1.928
52889W        W21252  14.102   1.939   0.378
52890W        W21253   2.802  22.127  12.065
52891W        W21254  34.012  13.263  10.890
52892W        W21255   2.270  15.619  14.843
52893W        W21256  22.540  35.481  12.052
52894W        W21257  12.639  22.224  10.585
52895W        W21258  26.081  20.723   2.712
52896W        W21259  13.751  21.086   4.198
52897W        W21260  23.007  12.613   3.859
52898W        W21261  16.574   3.296   4.779
52899W        W21262  17.608  41.976  13.479
52900W        W21263  37.343  28.676  13.926
52901W        W21264  41.332  38.071  10.108
52902W        W21265  43.893  15.314  14.275
52903W        W21266  35.561  21.045  11.912
52904W        W21267  19.245   8.300   2.299
52905W        W21268  25.545   7.210   0.396
52906W        W21269   5.266  32.027  10.916
52907W        W21270  34.560  24.707  12.017
52908W        W21271  36.440  13.144   3.200
52909W        W21272  30.428  23.621  13.921
52910W        W21273   0.314  37.978   0.885
52911W        W21274  35.888  22.681  10.507
52912W        W21275  38.879  39.997   2.232
52913W        W21276  43.276   9.846   3.342
52914W        W21277  37.918  28.558  14.350
52915W        W21278  40.315  21.618   1.871
52916W        W21279   5.873   6.197  13.902
52917W        W21280   3.338  37.559  11.899
52918W        W21281  27.519  20.708  12.093
52919W        W21282   5.412  27.660   4.769
52920W        W21283  23.054   9.866  12.059
52921W        W21284  18.754  17.065   1.256
52922W        W21285  19.728  42.422  13.385
52923W        W21286  42.912  40.962   2.212
52924W        W21287  38.930   3.348  12.387
52925W        W21288  13.348  35.390   2.333
52926W        W21289  15.747  23.173  12.005
52927W        W21290   8.895  34.880   1.422
52928W        W21291   0.263  43.781   4.177
52929W        W21292  17.259  33.563  10.537
52930W        W21293  25.010  25.562  13.543
52931W        W21294  38.933  22.225   3.333
52932W        W21295   4.285  32.436  11.542
52933W        W21296  37.390  35.995   0.427
52934W        W21297  20.645  25.536   0.840
52935W        W21298   6.679  44.393  14.948
52936W        W21299  34.607   0.396   3.275
52937W        W21300   0.271   2.441  13.469
52938W        W21301  28.611  41.424  12.851
52939W        W21302   6.699  14.590   1.881
52940W        W21303  30.061  11.854   0.810
52941W        W21304  27.529  41.341  12.347
52942W        W21305  10.788  41.799  11.964
52943W        W21306   8.378  24.039   2.875
52944W        W21307  40.411   2.758  12.403
52945W        W21308  22.181   2.229  13.341
52946W        W21309  20.044  38.954   9.929
52947W        W21310   7.767  30.448   1.378
52948W        W21311  10.852  34.925  12.998
52949W        W21312  24.209  44.286   2.747
52950W        W21313  21.573   7.294  10.937
52951W        W21314  19.234  30.629   3.158
52952W        W21315  39.826  43.385  14.960
52953W        W21316  24.223   6.837  10.892
52954W        W21317  26.035  31.976  13.486
52955W        W21318  12.659  29.593  10.941
52956W        W21319  16.276  10.739   0.748
52957W        W21320  16.584   9.151  13.418
52958W        W21321  38.348  17.641  12.447
52959W        W21322  44.881  36.429   0.459
52960W        W21323  32.059  27.131   0.761
52961W        W21324  32.051  28.563   4.746
52962W        W21325  43.918  28.651   2.813
52963W        W21326  12.717  33.948   2.865
52964W        W21327  29.661  18.152   2.720
52965W        W21328  26.094   7.387   2.224
52966W        W21329  41.839  21.183  12.073
52967W        W21330  43.431  37.985   2.339
52968W        W21331  26.116  28.953  10.461
52969W        W21332  22.057  43.865  13.939
52970W        W21333  16.755  26.190  12.385
52971W        W21334  35.395  42.976  14.991
52972W        W21335  38.922  14.666  12.097
52973W        W21336  31.449  36.458   1.865
52974W        W21337  13.833  28.486   2.382
52975W        W21338   8.368  21.536   0.793
52976W        W21339  14.728  13.122   0.890
52977W        W21340   4.245  33.944   3.702
52978W        W21341  43.369  33.019   0.246
52979W        W21342  19.707  10.288   0.414
52980W        W21343  39.926  31.630   4.707
52981W        W21344  41.412  40.797  11.073
52982W        W21345  21.101  20.712   1.417
52983W        W21346  23.663  32.027  12.991
52984W        W21347  42.001  33.940  10.561
52985W        W21348   3.773  27.616   2.288
52986W        W21349  37.042  30.483  14.917
52987W        W21350  11.224  15.736   3.856
52988W        W21351  18.652  30.492   4.692
52989W        W21352  40.549   3.832   0.935
52990W        W21353  43.458  43.502  14.292
52991W        W21354  31.947  35.884   9.998
52992W        W21355  19.702  10.308  11.461
52993W        W21356  30.451  18.169   3.336
52994W        W21357   4.238   3.908   0.430
52995W        W21358  34.528   9.204   4.769
52996W        W21359  32.489   6.780  10.925
52997W        W21360  20.658  37.576  14.891
52998W        W21361  31.477  10.178   3.867
52999W        W21362   6.892  36.547   1.443
53000W        W21363   0.366  35.574   3.679
53001W        W21364   8.365  29.999  12.999
53002W        W21365   9.804   3.384  14.935
53003W        W21366  17.734  23.174  14.806
53004W        W21367  10.698   9.327  12.395
53005W        W21368   7.726  32.959  13.932
53006W        W21369  28.112  20.114   4.179
53007W        W21370  21.119   7.349  14.001
53008W        W21371  22.189  29.622   1.751
53009W        W21372  42.960  19.599   0.742
53010W        W21373  38.986  34.982  11.896
53011W        W21374  16.313  36.894  13.005
53012W        W21375  25.060  19.688   0.326
53013W        W21376   4.325   8.688  13.526
53014W        W21377  15.812  21.050   4.158
53015W        W21378  17.628  22.668   4.739
53016W        W21379  28.673  31.096  11.946
53017W        W21380  15.700  34.885   1.897
53018W        W21381  17.203  21.757  14.931
53019W        W21382   3.915   8.874  10.970
53020W        W21383  38.861  34.467   0.774
53021W        W21384  38.993   7.417   1.293
53022W        W21385  18.056  29.154   2.202
53023W        W21386  15.232  22.103  14.011
53024W        W21387  41.961  37.557  10.000
53025W        W21388  16.697  10.769   2.851
53026W        W21389  36.933  44.841   3.760
53027W        W21390   9.800   2.750  11.537
53028W        W21391   2.949   3.766  13.975
53029W        W21392   6.284  30.056   1.829
53030W        W21393   9.358   3.746   4.153
53031W        W21394  25.573  20.600  14.443
53032W        W21395  10.213   7.288  12.355
53033W        W21396  43.826  14.715   4.261
53034W        W21397  21.567  27.552   1.847
53035W        W21398  17.192   7.754   2.188
53036W        W21399  44.978   0.309  13.825
53037W        W21400  28.950  26.032   1.712
53038W        W21401  24.074  38.045  14.379
53039W        W21402  27.584  34.569   0.361
53040W        W21403  32.402  20.717   2.222
53041W        W21404   1.238   2.297  10.572
53042W        W21405  38.556  22.025  11.907
53043W        W21406  22.537  23.201  10.125
53044W        W21407   5.416  36.052  12.883
53045W        W21408   4.266  32.093  10.955
53046W        W21409  40.800  32.621  11.077
53047W        W21410  36.035  10.736  14.771
53048W        W21411  41.380  16.273  12.516
53049W        W21412  18.753  40.371  12.356
53050W        W21413  31.451  26.162   1.891
53051W        W21414  29.991  42.819   0.448
53052W        W21415  21.632  24.091   4.713
53053W        W21416  20.529  38.525  11.452
53054W        W21417  31.423  38.825   0.726
53055W        W21418  31.059  21.057   1.715
53056W        W21419  14.187  40.963  14.017
53057W        W21420  14.334   3.873   3.846
53058W        W21421  38.464  19.559   2.896
53059W        W21422   6.409  23.986   2.684
53060W        W21423  37.481  13.702   2.716
53061W        W21424  14.696  14.671   1.310
53062W        W21425   8.701  31.534   3.664
53063W        W21426  31.982   1.238   0.895
53064W        W21427   2.354  44.840  11.056
53065W        W21428  27.547  26.991   2.407
53066W        W21429  14.604  42.023   4.323
53067W        W21430  36.470   2.272   0.359
53068W        W21431   5.241  12.132   3.167
53069W        W21432  25.553  43.782   2.395
53070W        W21433  31.443  13.169   4.816
53071W        W21434  35.092  37.444  10.150
53072W        W21435  31.431  38.521   2.233
53073W        W21436  16.652   7.323   1.864
53074W        W21437   0.348  15.782  12.439
53075W        W21438  11.307  44.786   0.318
53076W        W21439   9.179  21.606  12.856
53077W        W21440  21.684  25.016  13.480
53078W        W21441  11.175  41.518  14.957
53079W        W21442  12.284  33.123  11.939
53080W        W21443  12.719   2.925  14.863
53081W        W21444  17.791  11.757  14.448
53082W        W21445  41.862  21.661   4.350
53083W        W21446  25.986  21.555   1.843
53084W        W21447   7.394  42.358   1.922
53085W        W21448  19.146  23.683  11.406
53086W        W21449  41.452  42.390  11.440
53087W        W21450  29.957  21.123   1.435
53088W        W21451  24.225  23.537   4.726
53089W        W21452  41.897  44.271  10.105
53090W        W21453  27.982  31.098   0.476
53091W        W21454  31.602  39.382  12.530
53092W        W21455  38.325  35.443  12.352
53093W        W21456   7.172  21.072   0.280
53094W        W21457  31.471   8.244   0.457
53095W        W21458  26.059  13.133  13.000
53096W        W21459   6.259  36.497  12.429
53097W        W21460  43.806  30.518   0.752
53098W        W21461   4.873  34.918   0.256
53099W        W21462  22.709  31.038   4.644
53100W        W21463  23.690   7.726   4.163
53101W        W21464  26.164   4.441  13.927
53102W        W21465  21.671  38.485   4.264
53103W        W21466  44.461   1.437  13.853
53104W        W21467  33.570  16.232  10.104
53105W        W21468  32.461  10.146  10.936
53106W        W21469   9.860  18.173   1.847
53107W        W21470   4.213  30.440   2.370
53108W        W21471  35.405  33.094   2.181
53109W        W21472  15.267   4.321   1.925
53110W        W21473   2.298   6.195   0.902
53111W        W21474  21.097  21.220   4.255
53112W        W21475  26.645  13.760   5.106
53113W        W21476  23.625  11.725  13.386
53114W        W21477   1.371  34.516  10.635
53115W        W21478  20.694  41.904   4.650
53116W        W21479  25.560  27.145   3.774
53117W        W21480  18.725  24.550   2.774
53118W        W21481  40.025  11.721   0.878
53119W        W21482  32.950  44.360   5.606
53120W        W21483  27.604  43.326  12.083
53121W        W21484   2.442  30.556  10.580
53122W        W21485   8.225  19.222  13.807
53123W        W21486  12.336   0.970   0.245
53124W        W21487  28.540   5.705  13.798
53125W        W21488  32.552  34.085  12.540
53126W        W21489  12.183  40.487   4.139
53127W        W21490  31.996  39.870  10.085
53128W        W21491  34.416  40.872  11.512
53129W        W21492  25.134  12.675   3.764
53130W        W21493  44.856  25.967  14.329
53131W        W21494  40.535  12.849  13.446
53132W        W21495  23.007  15.634  13.997
53133W        W21496  24.688  12.825   2.226
53134W        W21497   3.366  12.702  11.121
53135W        W21498  44.349  39.049   2.787
53136W        W21499   3.387  34.118  14.928
53137W        W21500  37.084  43.436  11.030
53138W        W21501  38.338  34.905  12.445
53139W        W21502  36.053  18.180  11.585
53140W        W21503   5.752  33.047  12.988
53141W        W21504   8.399  42.348   0.912
53142W        W21505  12.807  33.906   0.800
53143W        W21506   4.894  42.994  13.360
53144W        W21507  44.360  17.654   3.358
53145W        W21508  14.190  30.650  10.023
53146W        W21509  38.906  35.405  10.923
53147W        W21510  18.202  37.919  11.001
53148W        W21511  17.708  32.074   1.421
53149W        W21512  33.490   7.176  11.378
53150W        W21513  30.968  30.503   2.418
53151W        W21514  27.681  37.067   2.352
53152W        W21515  38.874  26.006   1.862
53153W        W21516  10.678   7.203   0.437
53154W        W21517  42.918  16.088   0.753
53155W        W21518  41.301   8.229   3.780
53156W        W21519  28.531   0.971  13.444
53157W        W21520  25.212  41.868  12.397
53158W        W21521  39.036  30.044   0.338
53159W        W21522  40.447   2.266  10.907
53160W        W21523  19.272   8.189  11.558
53161W        W21524  27.115  41.413  11.128
53162W        W21525  27.971  18.194  13.049
53163W        W21526  20.108  25.577  12.959
53164W        W21527  18.230   9.265   4.131
53165W        W21528   0.362  34.886   1.424
53166W        W21529  30.569  15.630  11.899
53167W        W21530  28.999  37.977  13.522
53168W        W21531  33.995  37.341  10.556
53169W        W21532  25.477  34.461   4.302
53170W        W21533  31.626  42.936   3.176
53171W        W21534  42.822  36.064   2.688
53172W        W21535  35.585  35.536  13.490
53173W        W21536  29.074  27.624  11.906
53174W        W21537  11.181  16.785   3.754
53175W        W21538  27.030  38.365  11.558
53176W        W21539  41.947  35.565   4.208
53177W        W21540  42.974  32.960  14.315
53178W        W21541  23.172   9.658  11.410
53179W        W21542  31.440  18.252  14.331
53180W        W21543  10.649  32.109  10.407
53181W        W21544   2.726   5.294  11.415
53182W        W21545  41.294  40.472  11.390
53183W        W21546   8.869  20.045   4.650
53184W        W21547  24.072  17.263  13.835
53185W        W21548   0.267  27.195  10.521
53186W        W21549  23.239  30.078   4.194
53187W        W21550  44.448   9.673   9.983
53188W        W21551   0.281  43.511   1.754
53189W        W21552  17.585  41.514   1.917
53190W        W21553  17.683  36.478  11.484
53191W        W21554  27.968  40.394  11.097
53192W        W21555  31.903  41.343  10.951
53193W        W21556  30.658   1.940   0.922
53194W        W21557  43.777  37.844  13.531
53195W        W21558   6.732  31.488  11.889
53196W        W21559  34.951   8.877  10.157
53197W        W21560  13.341  26.627  10.979
53198W        W21561  16.100   7.675   3.150
53199W        W21562   6.250  16.235  13.310
53200W        W21563  39.939   0.964   3.161
53201W        W21564   1.333  43.419  14.003
53202W        W21565  15.304  15.611  11.871
53203W        W21566  37.048  42.866   1.864
53204W        W21567  11.836  24.004   0.869
53205W        W21568  13.684  31.072  12.375
53206W        W21569  16.193  11.192   0.334
53207W        W21570  33.059  40.856   2.403
53208W        W21571  12.318  20.036  12.035
53209W        W21572  29.569  15.763   2.784
53210W        W21573  33.898  10.230  12.845
53211W        W21574  11.730  15.157  14.763
53212W        W21575  44.456  21.537   2.826
53213W        W21576  14.141   0.970   1.716
53214W        W21577  27.590  44.437   1.382
53215W        W21578  34.891   8.674   4.122
53216W        W21579  32.558  42.810  14.459
53217W        W21580  37.455  30.932  14.483
53218W        W21581  10.149  26.160  13.818
53219W        W21582  38.890  16.802  12.520
53220W        W21583  29.527  28.589   2.668
53221W        W21584   3.346   6.835   4.202
53222W        W21585   1.289  19.134   2.401
53223W        W21586  22.174   8.341   0.943
53224W        W21587   1.315   3.944   1.365
53225W        W21588   2.440  32.070  10.116
53226W        W21589   4.734  14.171   4.234
53227W        W21590  16.599  12.682  10.638
53228W        W21591  16.313  28.154  13.443
53229W        W21592  16.625  43.386   0.330
53230W        W21593  11.650  10.240  12.542
53231W        W21594  42.002   1.769  14.838
53232W        W21595  13.163   4.772  10.577
53233W        W21596  22.068  43.887   1.738
53234W        W21597  28.625  43.813   3.858
53235W        W21598  37.412  24.983  13.374
53236W        W21599  31.939  16.608   1.893
53237W        W21600  29.988  36.873  13.860
53238W        W21601  21.174  25.086   4.817
53239W        W21602  23.022   9.771   3.651
53240W        W21603  24.147  22.196   1.791
53241W        W21604  32.442  39.560   2.870
53242W        W21605  26.146  23.527   2.252
53243W        W21606  27.944   3.871   4.655
53244W        W21607  41.023   8.375  12.829
53245W        W21608   2.790  41.821  13.908
53246W        W21609  16.101  24.217  13.432
53247W        W21610  35.063   0.859   0.421
53248W        W21611  38.427  16.625  13.472
53249W        W21612  38.933  43.792  11.388
53250W        W21613   7.239  40.505  13.397
53251W        W21614  30.160  32.405   2.845
53252W        W21615  10.374  11.141   1.290
53253W        W21616  35.028  19.651   3.197
53254W        W21617  30.985   2.432   4.281
53255W        W21618   1.381  16.654  11.988
53256W        W21619  40.798  10.702  10.490
53257W        W21620  29.932   1.351  14.970
53258W        W21621  13.289  23.717   2.691
53259W        W21622  34.093  34.468  12.545
53260W        W21623  38.056  43.425   4.752
53261W        W21624  20.088  25.532  14.325
53262W        W21625   3.934  35.022   2.870
53263W        W21626  18.617  43.502   5.096
53264W        W21627  43.881  19.575   3.314
53265W        W21628   8.776   8.819  11.067
53266W        W21629   1.359  30.604  11.959
53267W        W21630  23.646   0.256  11.528
53268W        W21631   4.711  44.501  14.512
53269W        W21632  22.176  37.889  14.970
53270W        W21633   0.476  40.996  13.010
53271W        W21634   9.210   9.386   4.835
53272W        W21635  28.175  10.251  11.522
53273W        W21636  15.640  44.430   0.371
53274W        W21637  35.441  32.507   1.901
53275W        W21638   8.355  28.097   4.343
53276W        W21639  26.476  28.041  10.465
53277W        W21640   5.300  26.195  14.354
53278W        W21641  39.827   3.894  12.087
53279W        W21642  17.198  15.717  11.421
53280W        W21643  10.349  38.543   0.903
53281W        W21644   0.448  36.488   4.820
53282W        W21645  30.916  40.394   1.392
53283W        W21646  32.007  13.843  11.967
53284W        W21647  43.908  31.427   4.625
53285W        W21648   5.768  14.628   3.788
53286W        W21649  41.034   0.981  11.094
53287W        W21650  10.381  26.068  12.050
53288W        W21651  36.489  40.366   3.322
53289W        W21652  28.670  38.892   3.831
53290W        W21653   3.362  14.716  11.605
53291W        W21654  44.311  16.657   2.748
53292W        W21655  36.457  12.172   2.725
53293W        W21656  20.594  21.059   3.708
53294W        W21657  25.110  22.183  12.933
53295W        W21658  17.100  14.607  13.859
53296W        W21659   5.425   1.810   2.835
53297W        W21660  34.441  35.925   0.364
53298W        W21661   0.793  30.955   3.318
53299W        W21662  20.109  26.992  14.361
53300W        W21663  30.951  27.540   3.804
53301W        W21664  27.982  25.516   1.923
53302W        W21665  39.025  35.428  14.501
53303W        W21666   2.453  32.529  13.940
53304W        W21667  28.571  18.241  14.947
53305W        W21668  13.119  35.997   5.307
53306W        W21669  21.225  39.814  14.458
53307W        W21670  29.579  24.099  14.921
53308W        W21671  25.535  44.876   4.814
53309W        W21672  32.886  14.685   0.853
53310W        W21673   7.279   9.809  11.535
53311W        W21674   8.296  31.141   2.245
53312W        W21675  19.241  39.961   0.740
53313W        W21676  35.496   0.282  14.913
53314W        W21677   9.189  24.231   1.738
53315W        W21678  41.002  24.013  13.360
53316W        W21679  36.593  38.335   0.928
53317W        W21680   3.435   5.906  11.909
53318W        W21681   9.155  28.942  10.581
53319W        W21682  33.055  22.535  14.457
53320W        W21683  20.668  40.440  12.537
53321W        W21684  28.980  31.942  14.799
53322W        W21685  11.631   4.866  10.077
53323W        W21686   6.394   9.391   4.754
53324W        W21687  27.121   8.257  14.975
53325W        W21688   6.273   7.820   0.400
53326W        W21689  19.167  21.754  14.016
53327W        W21690  35.997  44.270   0.458
53328W        W21691  15.613  13.634  10.979
53329W        W21692   6.715   4.393   3.235
53330W        W21693  24.661  29.591  14.430
53331W        W21694  20.599  37.480  11.945
53332W        W21695  18.726  41.846   2.868
53333W        W21696  21.058  16.681   4.815
53334W        W21697  25.604  29.110  14.780
53335W        W21698  36.368  25.123   1.711
53336W        W21699  18.082  19.641  12.062
53337W        W21700   6.364  41.829   3.839
53338W        W21701  10.872  20.107  11.055
53339W        W21702   9.265  17.592  10.624
53340W        W21703  30.131  32.452   1.373
53341W        W21704   9.194   8.697   5.320
53342W        W21705  44.771  32.598  11.892
53343W        W21706  32.100  32.454   1.291
53344W        W21707  33.053  21.564  13.367
53345W        W21708  11.738  31.626  11.416
53346W        W21709  24.626   4.931  10.464
53347W        W21710  42.996  25.674   0.946
53348W        W21711  22.566   0.405   9.928
53349W        W21712   6.766  27.118   2.737
53350W        W21713  20.091  34.054  14.802
53351W        W21714  25.170  24.701   0.436
53352W        W21715  34.556  43.460  12.070
53353W        W21716  31.058  40.037  14.290
53354W        W21717  22.127  11.241   0.813
53355W        W21718  41.970  37.981  14.298
53356W        W21719  38.570  38.385   4.142
53357W        W21720  36.961  40.308   4.643
53358W        W21721  41.538  26.175   4.287
53359W        W21722  21.748  28.994   4.822
53360W        W21723  27.068  13.734  11.088
53361W        W21724  17.633  39.028  11.042
53362W        W21725  21.160   7.328  11.558
53363W        W21726  26.506  14.818  14.337
53364W        W21727  25.505   0.355  13.796
53365W        W21728   2.438  13.809  10.409
53366W        W21729  22.718  10.166  10.642
53367W        W21730   8.221   7.709  14.510
53368W        W21731  36.061  14.095   0.748
53369W        W21732  11.139  17.204   3.186
53370W        W21733  31.532  27.566  14.763
53371W        W21734  21.228   4.795   2.840
53372W        W21735  14.160  37.376  13.975
53373W        W21736  16.212  12.357   0.334
53374W        W21737  40.040  17.772   4.235
53375W        W21738  18.586  15.791  14.792
53376W        W21739   9.748  32.469  14.965
53377W        W21740  42.885  16.651  11.107
53378W        W21741  19.656   3.831  13.892
53379W        W21742  42.374  25.484  12.548
53380W        W21743  13.703  39.053  14.309
53381W        W21744  16.580  17.785  13.918
53382W        W21745   3.301  11.325   0.371
53383W        W21746  23.588  35.364  10.473
53384W        W21747  39.903  44.436  10.941
53385W        W21748  35.400   7.676  12.844
53386W        W21749  33.556  26.033   0.837
53387W        W21750   8.777   2.330   2.885
53388W        W21751  20.666  33.428   4.769
53389W        W21752  37.359  29.470   0.351
53390W        W21753  27.146  18.725   0.824
53391W        W21754  43.492  33.024  12.399
53392W        W21755  20.261   8.688  13.838
53393W        W21756  34.875   9.698   3.744
53394W        W21757  27.126  34.868   1.433
53395W        W21758  26.062   5.850  11.521
53396W        W21759   4.828  27.194   2.880
53397W        W21760   2.263  14.201   5.116
53398W        W21761  13.659   7.894  13.351
53399W        W21762  25.546  10.151   0.260
53400W        W21763  20.238  40.840   1.894
53401W        W21764  20.736  41.787   2.229
53402W        W21765  30.489  10.860   4.835
53403W        W21766  41.330  38.864  11.494
53404W        W21767  38.550   2.865   2.860
53405W        W21768  37.516   2.812  10.619
53406W        W21769  15.820  20.728   3.309
53407W        W21770  19.069  36.416  14.348
53408W        W21771  38.416  43.770  13.938
53409W        W21772  18.742  33.393  11.428
53410W        W21773  16.773  22.996   2.246
53411W        W21774  14.617  13.846   3.731
53412W        W21775  43.493  32.946   4.336
53413W        W21776   8.677  38.967   3.847
53414W        W21777  26.174   3.431  13.796
53415W        W21778  28.164   1.420   1.334
53416W        W21779  15.315  22.104   0.802
53417W        W21780  27.962  33.965   4.315
53418W        W21781  29.569  20.236   3.156
53419W        W21782  10.686  10.664   3.828
53420W        W21783   2.231  36.042  12.984
53421W        W21784   1.922  10.241   1.761
53422W        W21785  30.915  32.478   2.719
53423W        W21786  30.055  19.064  12.479
53424W        W21787   8.705  14.819  10.533
53425W        W21788  39.056   4.255   0.892
53426W        W21789  17.184  15.804  11.961
53427W        W21790   7.848  35.583   3.229
53428W        W21791   3.810  36.421   0.727
53429W        W21792   3.264  19.773   3.697
53430W        W21793  40.354  39.934  11.890
53431W        W21794   8.389  35.097   0.339
53432W        W21795  27.057  38.993  14.328
53433W        W21796  37.995  25.661  10.524
53434W        W21797  27.970   7.375  11.531
53435W        W21798  12.300  42.501   4.640
53436W        W21799  27.021  40.942  10.964
53437W        W21800   5.370   9.393  11.947
53438W        W21801  12.765  14.121  11.516
53439W        W21802   4.362  28.561   0.281
53440W        W21803  43.766   5.717   2.399
53441W        W21804  34.064   6.372  14.806
53442W        W21805   8.825  25.057  10.576
53443W        W21806  43.810  21.596   1.896
53444W        W21807  32.131  24.564  12.573
53445W        W21808  13.105  31.012  11.425
53446W        W21809  33.603  26.109  11.493
53447W        W21810  22.998  24.626   4.345
53448W        W21811  23.493  33.122  10.431
53449W        W21812  19.580  21.224  10.002
53450W        W21813  10.778  33.427   1.384
53451W        W21814   8.883   6.883   2.708
53452W        W21815  32.923  33.469   4.347
53453W        W21816  10.666  36.486  10.567
53454W        W21817  15.756  41.506  12.888
53455W        W21818  19.702  26.595   3.165
53456W        W21819   8.233  34.394   2.215
53457W        W21820  11.794  40.951  12.060
53458W        W21821  19.239  22.091   1.744
53459W        W21822  31.489  11.631   2.178
53460W        W21823  10.643  10.824   0.347
53461W        W21824   8.675  20.162  13.476
53462W        W21825  40.411  29.067  14.871
53463W        W21826  11.183   3.941  12.445
53464W        W21827   4.795  41.003  10.904
53465W        W21828  35.867  39.977   3.297
53466W        W21829   4.394  36.096   1.848
53467W        W21830  23.984  22.534  10.994
53468W        W21831  34.056  14.811   3.633
53469W        W21832  36.358  22.149  10.553
53470W        W21833  43.448  21.647   3.192
53471W        W21834   8.855   2.814  14.332
53472W        W21835  28.645  11.863   3.812
53473W        W21836  22.122   3.840  14.988
53474W        W21837  44.774  14.290  13.487
53475W        W21838  24.218  28.127   3.805
53476W        W21839  19.688  17.134   1.788
53477W        W21840  38.525  31.411   4.342
53478W        W21841  22.613  28.054  11.602
53479W        W21842  41.958  19.234   2.872
53480W        W21843  24.589  26.674   4.278
53481W        W21844  34.872  14.334  10.097
53482W        W21845  10.825   7.911   2.821
53483W        W21846   9.264  32.981  14.473
53484W        W21847   7.788  13.677   2.393
53485W        W21848  41.965  41.797   3.720
53486W        W21849  11.332   7.246  13.514
53487W        W21850   7.807  37.456  11.861
53488W        W21851  30.539  19.767   3.764
53489W        W21852   3.282   8.254   3.775
53490W        W21853  28.995  39.001   2.230
53491W        W21854   5.761  18.160  11.474
53492W        W21855   9.341  23.567  14.905
53493W        W21856  42.519   4.883  14.765
53494W        W21857  17.711  36.489   4.798
53495W        W21858  34.903   0.269   2.199
53496W        W21859  20.209  14.629  13.800
53497W        W21860   7.224  44.426   1.800
53498W        W21861   1.332  25.975   4.267
53499W        W21862  33.997   6.211  14.012
53500W        W21863  13.211  13.733  11.383
53501W        W21864  40.007  37.500   2.672
53502W        W21865   6.845  44.438  13.845
53503W        W21866  30.070  36.525  12.083
53504W        W21867  24.144  32.956   4.706
53505W        W21868  12.311  19.161   0.767
53506W        W21869   0.321  29.104  13.394
53507W        W21870   0.882  25.052  11.499
53508W        W21871   4.221  35.360   1.317
53509W        W21872  25.120   4.249   2.361
53510W        W21873  19.707  44.308  11.584
53511W        W21874  38.376   3.282   4.289
53512W        W21875  15.196  32.614  10.991
53513W        W21876  35.439   2.464   3.837
53514W        W21877  31.939  44.981   4.760
53515W        W21878  39.372  39.536  13.875
53516W        W21879  13.304  10.340  14.801
53517W        W21880  37.994  28.595  14.832
53518W        W21881  15.745  28.445   0.273
53519W        W21882   1.451  17.726  11.998
53520W        W21883  34.079  40.426  14.438
53521W        W21884  39.838  14.301   3.345
53522W        W21885   9.217  37.069  11.970
53523W        W21886  41.928  15.163   0.771
53524W        W21887   7.246   2.870   3.698
53525W        W21888  23.504  11.723  11.485
53526W        W21889  13.319  12.149  12.903
53527W        W21890  24.555  15.205   1.394
53528W        W21891  32.062  29.167  13.529
53529W        W21892  33.016  34.932   1.754
53530W        W21893  37.902   8.317  13.016
53531W        W21894  44.865  24.973   2.692
53532W        W21895  38.398  34.907  13.971
53533W        W21896  26.546  30.544  10.956
53534W        W21897  40.412  27.045  14.899
53535W        W21898  11.272  25.543   4.355
53536W        W21899  29.537  15.663   4.128
53537W        W21900   3.727  20.673   0.257
53538W        W21901   4.449  33.564  13.904
53539W        W21902  12.281  25.097   3.367
53540W        W21903  17.219   0.412  10.562
53541W        W21904  25.626  18.258  12.468
53542W        W21905  41.309  21.078  12.491
53543W        W21906   4.279  41.421  11.423
53544W        W21907  22.695  26.027   2.902
53545W        W21908  18.058  16.126   0.422
53546W        W21909  16.144  23.180   4.292
53547W        W21910  44.983  13.742   0.281
53548W        W21911  29.624  33.536  13.795
53549W        W21912  43.764  23.182   3.243
53550W        W21913  40.531  39.868  14.017
53551W        W21914  32.987  22.178  12.994
53552W        W21915  42.433  21.751  13.015
53553W        W21916   8.829  44.876  12.825
53554W        W21917   5.893   5.382   3.739
53555W        W21918  26.528   4.347   9.963
53556W        W21919  20.069  30.545   2.387
53557W        W21920  44.773   1.791   1.269
53558W        W21921  14.119   8.681  13.465
53559W        W21922  34.979  20.028   1.339
53560W        W21923  16.680  20.649   3.747
53561W        W21924   4.395   4.277   0.435
53562W        W21925  18.135   7.172  10.888
53563W        W21926  34.092  12.617   1.267
53564W        W21927  18.241  20.094   4.317
53565W        W21928  24.688  42.962   3.671
53566W        W21929  10.756   8.732  14.006
53567W        W21930  38.426  25.521   2.720
53568W        W21931  12.351  11.288   4.752
53569W        W21932  15.819  30.597  10.591
53570W        W21933  38.967   8.357   4.682
53571W        W21934   5.334  25.709  14.879
53572W        W21935   4.413  37.393   3.807
53573W        W21936  11.359  38.065   1.699
53574W        W21937   4.427  31.421   4.311
53575W        W21938   8.699   5.922  14.909
53576W        W21939  30.561  31.438  10.894
53577W        W21940  16.119  27.105  14.332
53578W        W21941  42.980  25.525   4.291
53579W        W21942  28.449   1.749  11.047
53580W        W21943  25.614   6.880  12.402
53581W        W21944  19.241  30.063   0.814
53582W        W21945  33.624  40.846   2.383
53583W        W21946  11.309  29.498   2.277
53584W        W21947   3.864  21.517  11.380
53585W        W21948  32.513  16.801  13.866
53586W        W21949  26.159   3.912   1.838
53587W        W21950  17.262  38.823   0.874
53588W        W21951  15.206  25.031   0.842
53589W        W21952  43.014  40.012  12.386
53590W        W21953  10.859   6.913   3.810
53591W        W21954  16.770  42.823  10.932
53592W        W21955  39.023  17.297   2.354
53593W        W21956   2.826  40.887  11.559
53594W        W21957   7.362  33.077  14.427
53595W        W21958  21.722  17.117  14.443
53596W        W21959  14.164   6.185  10.639
53597W        W21960  12.769  26.464  14.462
53598W        W21961  38.415  21.223  11.592
53599W        W21962  37.981  42.383   1.431
53600W        W21963  11.741  12.163   0.888
53601W        W21964  21.743  10.144   4.799
53602W        W21965  28.483  29.075  11.515
53603W        W21966  26.679  24.718   1.916
53604W        W21967  26.524  21.228  14.776
53605W        W21968  22.115  37.541  12.000
53606W        W21969  15.140  13.664   3.277
53607W        W21970  41.017  32.393   3.332
53608W        W21971  40.322  28.554   1.713
53609W        W21972   0.427  25.487   1.741
53610W        W21973  44.450  22.609  14.428
53611W        W21974  33.379  42.332   3.295
53612W        W21975   7.816  17.251   0.859
53613W        W21976  15.679  40.523  10.485
53614W        W21977  29.612  26.616  14.003
53615W        W21978  42.015  27.008   2.335
53616W        W21979  44.376  44.976  13.534
53617W        W21980  14.825  28.931  13.481
53618W        W21981  28.948   8.848   1.236
53619W        W21982  10.272  14.630  13.442
53620W        W21983  11.236  24.684   2.366
53621W        W21984  31.562  30.007  13.883
53622W        W21985   7.359  40.327  10.496
53623W        W21986  30.005  22.192  10.482
53624W        W21987  24.048   9.326   2.813
53625W        W21988  29.960  10.338   2.879
53626W        W21989   9.239   8.659  11.992
53627W        W21990  34.879  24.161  11.117
53628W        W21991  35.506  26.178  12.896
53629W        W21992   0.781   8.703  11.940
53630W        W21993  10.361  14.175   1.409
53631W        W21994  38.462  16.807   0.412
53632W        W21995  41.987  29.168  14.822
53633W        W21996  17.080   9.748   2.756
53634W        W21997  14.763   4.944  13.025
53635W        W21998  13.632  15.745   3.774
53636W        W21999  37.355  15.581   1.731
53637W        W22000  39.815  39.478   3.308
53638W        W22001  12.137  33.059   4.242
53639W        W22002  15.701  37.008  12.439
53640W        W22003   6.686   7.407  12.053
53641W        W22004  24.663   1.865  13.427
53642W        W22005  30.527  21.191   5.305
53643W        W22006  35.107   4.803   2.224
53644W        W22007  43.011   0.481  13.853
53645W        W22008   4.428  42.454  14.826
53646W        W22009   6.752  24.004  13.009
53647W        W22010  35.958  11.748   0.794
53648W        W22011  31.543  12.221   4.195
53649W        W22012   5.903  30.557   2.753
53650W        W22013  19.281   0.494   3.242
53651W        W22014  39.958   6.874  11.550
53652W        W22015  37.565  29.947   4.786
53653W        W22016  11.798  26.691  10.915
53654W        W22017  28.529  24.216  11.979
53655W        W22018  36.474  39.986  12.841
53656W        W22019   7.196  15.235  11.585
53657W        W22020  20.147  11.340   0.473
53658W        W22021  29.134  20.037  14.303
53659W        W22022  10.785  34.033   1.392
53660W        W22023  30.934  41.294   5.272
53661W        W22024  18.199  21.039  12.365
53662W        W22025  11.194  26.974  10.908
53663W        W22026  42.394   3.363  14.892
53664W        W22027   5.823  35.362  11.555
53665W        W22028  44.902  11.823  10.974
53666W        W22029  37.049  26.163  13.375
53667W        W22030  28.471   7.782  11.075
53668W        W22031   1.461  23.225   4.147
53669W        W22032   2.256  16.790   2.401
53670W        W22033  35.925  15.802   4.734
53671W        W22034  32.432   6.921   4.704
53672W        W22035  30.987   9.831   2.406
53673W        W22036  40.499   7.729  13.984
53674W        W22037  28.984  40.415  11.426
53675W        W22038   0.329  23.214  14.384
53676W        W22039  37.880  44.963  13.383
53677W        W22040  11.312  34.587  12.440
53678W        W22041  19.591  36.063  13.380
53679W        W22042  19.751  34.422   2.665
53680W        W22043   8.391  21.215   1.256
53681W        W22044  24.721  15.764   2.405
53682W        W22045  25.125  26.584   0.926
53683W        W22046  26.051  22.068   2.868
53684W        W22047  16.716  29.464  12.978
53685W        W22048  14.231  32.927  13.850
53686W        W22049  19.178  16.082   0.274
53687W        W22050  29.173  16.670  12.481
53688W        W22051  23.139  11.152  13.955
53689W        W22052   4.347   8.271  14.322
53690W        W22053  44.475   8.889   4.807
53691W        W22054  41.014   6.245   0.737
53692W        W22055  42.432   2.963  13.939
53693W        W22056  12.739   5.265   4.610
53694W        W22057  14.123  19.727   2.312
53695W        W22058  40.008   4.203   3.634
53696W        W22059   2.407   3.381   0.376
53697W        W22060  11.666  23.579   4.789
53698W        W22061  36.058  12.357  12.384
53699W        W22062  31.020  25.517   1.872
53700W        W22063  39.866  38.038   3.815
53701W        W22064   0.374  41.322  10.973
53702W        W22065   3.242  17.752   2.806
53703W        W22066  35.500  24.618  14.285
53704W        W22067  16.583  35.539   0.874
53705W        W22068  28.037  33.547  14.299
53706W        W22069  44.387  19.544  13.381
53707W        W22070  23.027  18.726   3.195
53708W        W22071  19.055  30.587   0.864
53709W        W22072  43.857  39.977   0.481
53710W        W22073  23.209   7.836  13.868
53711W        W22074  13.677  37.454   4.289
53712W        W22075  19.053  33.923  11.039
53713W        W22076  16.085  37.902  14.852
53714W        W22077  37.947  13.805  13.873
53715W        W22078   7.903  34.555   4.721
53716W        W22079   3.884  28.112   1.257
53717W        W22080  18.700  24.580  12.446
53718W        W22081   7.782   6.687   0.323
53719W        W22082   4.219   5.346   1.878
53720W        W22083  41.509  34.369  14.783
53721W        W22084  24.180  23.195   2.295
53722W        W22085   5.221  25.974   1.780
53723W        W22086  32.943  41.462   3.819
53724W        W22087  28.490  34.868   4.141
53725W        W22088   0.321  15.715   0.433
53726W        W22089   1.919  33.899  12.860
53727W        W22090  23.603   0.412  13.987
53728W        W22091  31.453   4.862  13.852
53729W        W22092  11.202  25.085  10.512
53730W        W22093  27.968  19.209   4.348
53731W        W22094  12.840  26.043   2.249
53732W        W22095  19.533   4.445  10.642
53733W        W22096   6.252   4.750  13.889
53734W        W22097  18.584   8.865   2.227
53735W        W22098  11.640  35.875  14.951
53736W        W22099   3.771   1.453   5.219
53737W        W22100  15.218  30.150  10.890
53738W        W22101   1.819  30.080  10.495
53739W        W22102  42.989   6.723   3.311
53740W        W22103   0.897  30.579  11.863
53741W        W22104  16.126   6.309  12.385
53742W        W22105  41.933  29.432  13.036
53743W        W22106  36.554  10.277   2.240
53744W        W22107   2.246  40.347  10.445
53745W        W22108  29.507  22.189   4.804
53746W        W22109  35.525  29.118  12.097
53747W        W22110   7.266  19.762  13.389
53748W        W22111  22.648  13.319   2.858
53749W        W22112  10.331  32.050  12.913
53750W        W22113  16.761  22.528  11.041
53751W        W22114  28.626  31.422  13.421
53752W        W22115  44.823  11.162  12.554
53753W        W22116  33.578  38.922   3.834
53754W        W22117  40.883  29.036   3.355
53755W        W22118  39.551   0.887  11.054
53756W        W22119   6.350   1.453  12.941
53757W        W22120  41.869  34.077  14.438
53758W        W22121  26.573  34.519   4.349
53759W        W22122  29.643  12.356  12.966
53760W        W22123   4.206  15.279   2.388
53761W        W22124  31.986   7.377   2.412
53762W        W22125  36.082   6.799   0.311
53763W        W22126  38.983  19.184   2.811
53764W        W22127  31.491   8.330  11.079
53765W        W22128  25.984  13.707   0.250
53766W        W22129  22.082  10.248   1.701
53767W        W22130  36.437  23.204   3.830
53768W        W22131  29.957  31.632  14.963
53769W        W22132  36.990   1.792   2.901
53770W        W22133  41.455  18.691   0.739
53771W        W22134  37.393   1.313  11.397
53772W        W22135  15.649  31.113  10.918
53773W        W22136  32.418  10.274  10.429
53774W        W22137  12.738  32.977  13.044
53775W        W22138  42.437   7.205   1.727
53776W        W22139  20.710  38.913   3.841
53777W        W22140  18.577  16.624   4.350
53778W        W22141  26.098  30.937   1.790
53779W        W22142  33.447   4.877   1.823
53780W        W22143  42.303  24.546   4.210
53781W        W22144  12.140  27.539  11.411
53782W        W22145  25.208   6.351  13.336
53783W        W22146  37.481  39.057   3.326
53784W        W22147  24.133   7.357   4.337
53785W        W22148  27.476  38.427   2.409
53786W        W22149  33.907  26.103   2.416
53787W        W22150   9.686  12.247   2.394
53788W        W22151  13.292  38.451  13.369
53789W        W22152  18.100   5.877   3.673
53790W        W22153  42.454  37.462  10.496
53791W        W22154  42.319  36.847  10.072
53792W        W22155  37.386  23.240   1.271
53793W        W22156  43.860   2.471   3.655
53794W        W22157  32.114  17.134   4.770
53795W        W22158   7.901  22.214   4.283
53796W        W22159  40.344   1.390  12.478
53797W        W22160  39.999  23.119   0.300
53798W        W22161  33.087  40.393   1.715
53799W        W22162  23.000   3.332  14.986
53800W        W22163  13.222  40.866   4.295
53801W        W22164   5.743  20.131   0.832
53802W        W22165   4.796  41.375  11.893
53803W        W22166   4.940  28.061   4.720
53804W        W22167  41.977  41.474  12.975
53805W        W22168  27.051   7.860   0.954
53806W        W22169   6.188  21.042   2.251
53807W        W22170  10.764  36.021  12.932
53808W        W22171  30.068  29.000   2.258
53809W        W22172   6.401  20.573  12.087
53810W        W22173  42.915  13.282   4.719
53811W        W22174  27.531  39.482   1.847
53812W        W22175  18.251  42.967  14.472
53813W        W22176   4.214   5.354   2.356
53814W        W22177   7.682  32.069   4.213
53815W        W22178  34.597   3.432  13.370
53816W        W22179  34.037  10.231  11.056
53817W        W22180  13.793   5.895  11.108
53818W        W22181  40.356  31.067  12.956
53819W        W22182  16.587  16.306  10.074
53820W        W22183  13.642   7.309  11.405
53821W        W22184  12.219  43.845  11.042
53822W        W22185  27.668  37.982   1.338
53823W        W22186  32.907  26.180  11.591
53824W        W22187   3.774  23.605  10.967
53825W        W22188   9.314  42.944   0.362
53826W        W22189  42.935   1.810  11.413
53827W        W22190  41.931  21.126  12.447
53828W        W22191  16.288  10.222  12.017
53829W        W22192  20.678  25.103   2.696
53830W        W22193  30.928  24.173  10.940
53831W        W22194  25.705  22.124   3.646
53832W        W22195  33.600  29.096   0.354
53833W        W22196  39.029  23.219  14.897
53834W        W22197  36.513  22.566  10.024
53835W        W22198   5.304  24.091  12.396
53836W        W22199  26.104  31.979  11.894
53837W        W22200  13.820  43.399  12.057
53838W        W22201  28.934  28.603  11.480
53839W        W22202  21.070  25.499   4.706
53840W        W22203  36.411  11.337  12.388
53841W        W22204   9.155  14.615  12.851
53842W        W22205  26.644  15.777   9.950
53843W        W22206  12.687  30.023  12.354
53844W        W22207  21.638  23.078  13.046
53845W        W22208  20.624   6.246  13.405
53846W        W22209  43.904  32.072   3.231
53847W        W22210  36.018  41.968   2.192
53848W        W22211  37.973  16.644   4.784
53849W        W22212  12.235  27.510   4.238
53850W        W22213  39.417  32.522  11.572
53851W        W22214  26.531   7.837  13.376
53852W        W22215   5.228  26.123  14.987
53853W        W22216   0.786  38.921   5.112
53854W        W22217   6.273  20.028  11.585
53855W        W22218  36.094  19.729   0.727
53856W        W22219  33.095   9.671  13.429
53857W        W22220  17.737  27.540   1.430
53858W        W22221   2.301   7.248   0.819
53859W        W22222  37.396   5.385   4.281
53860W        W22223  42.397  30.598   1.804
53861W        W22224  40.538  42.859   1.318
53862W        W22225  25.575  23.221   3.208
53863W        W22226  22.105  17.141   4.640
53864W        W22227   3.901  37.510  11.380
53865W        W22228   8.192  15.136  11.989
53866W        W22229  19.100  37.571   2.756
53867W        W22230  15.587  40.861  12.390
53868W        W22231  28.479  37.082  12.835
53869W        W22232  21.202  20.736   4.669
53870W        W22233  32.440  27.992   5.254
53871W        W22234   5.812  18.160  10.601
53872W        W22235  34.921  39.993  12.540
53873W        W22236  31.615  32.891  12.065
53874W        W22237  41.387   4.400   0.837
53875W        W22238   3.741   3.899  11.930
53876W        W22239  18.761  43.921   4.608
53877W        W22240  11.150  12.133  13.912
53878W        W22241  18.680  18.224  10.494
53879W        W22242  29.449   0.291  11.399
53880W        W22243  11.358  41.474   1.420
53881W        W22244  14.112  12.240  12.384
53882W        W22245  30.975   2.866   0.752
53883W        W22246  26.139  27.138   4.830
53884W        W22247  23.521  19.153   0.443
53885W        W22248  18.165  44.872   0.802
53886W        W22249   9.750   4.698   3.633
53887W        W22250  39.414  41.913  12.000
53888W        W22251  43.331  37.970   3.330
53889W        W22252   1.877  33.442   0.917
53890W        W22253  32.919  38.452  10.528
53891W        W22254  44.262  29.084   1.219
53892W        W22255  44.788  43.312   3.634
53893W        W22256  34.459   9.812  12.972
53894W        W22257  14.824  20.588   3.805
53895W        W22258  42.841   4.716   1.285
53896W        W22259  39.811  29.554   3.685
53897W        W22260  17.148   1.795  11.466
53898W        W22261   2.381   0.391   4.189
53899W        W22262   9.152  14.720   1.308
53900W        W22263   3.947  14.259   4.707
53901W        W22264  25.192   2.786   3.326
53902W        W22265   3.861  33.938   4.291
53903W        W22266  20.583  12.264  12.872
53904W        W22267  18.087  27.969   3.240
53905W        W22268  42.021  36.360   3.728
53906W        W22269  29.584   1.876   2.763
53907W        W22270  44.772  23.700  10.999
53908W        W22271   2.950  21.605  14.855
53909W        W22272  36.585   3.899  14.281
53910W        W22273  34.983   0.964   3.178
53911W        W22274  31.421  33.431  11.510
53912W        W22275  42.388  32.444   1.264
53913W        W22276   8.883   7.325   3.323
53914W        W22277   4.943  18.204   0.343
53915W        W22278  37.874  20.693  13.356
53916W        W22279   1.892   5.925  12.953
53917W        W22280   7.744  28.459   4.125
53918W        W22281  29.072   0.835   4.174
53919W        W22282  40.480  31.974  11.001
53920W        W22283   3.948   1.969  14.989
53921W        W22284  14.795  12.215  12.002
53922W        W22285   6.411   4.841   0.891
53923W        W22286  23.112   6.365   4.773
53924W        W22287  22.167  25.088   3.169
53925W        W22288  40.474  10.305   0.936
53926W        W22289  27.172  19.617   1.251
53927W        W22290   8.209  41.360   2.336
53928W        W22291  39.925  42.859  12.917
53929W        W22292  19.545  18.648  13.482
53930W        W22293  30.992  36.593   2.784
53931W        W22294  16.802  16.148   3.233
53932W        W22295  33.508   3.348  11.498
53933W        W22296  37.390   8.781  12.049
53934W        W22297  36.890  44.915   1.856
53935W        W22298  16.742  15.288   2.891
53936W        W22299  30.127  43.018  14.292
53937W        W22300  16.636  43.367  13.436
53938W        W22301  38.898  17.143  12.841
53939W        W22302  16.100  20.226   0.854
53940W        W22303  33.393  13.703  10.480
53941W        W22304  38.341  13.756  11.032
53942W        W22305   2.836  14.230   1.435
53943W        W22306   0.475  33.048   4.666
53944W        W22307   9.394   1.374  12.379
53945W        W22308  21.611  22.010   1.819
53946W        W22309  35.374  41.429  12.555
53947W        W22310  13.728  25.510  10.496
53948W        W22311  11.662  33.450   4.139
53949W        W22312   3.819   8.764   5.206
53950W        W22313   5.392  44.009   0.805
53951W        W22314   1.359  21.133  13.417
53952W        W22315  18.691  29.965  14.511
53953W        W22316  14.782  44.409  11.402
53954W        W22317  44.758  25.654  12.397
53955W        W22318  26.527  15.716  13.463
53956W        W22319  23.664  21.209  10.938
53957W        W22320  25.145  24.006   2.377
53958W        W22321  32.951  29.448   1.353
53959W        W22322  31.550  25.629   2.307
53960W        W22323   2.455  38.928  12.903
53961W        W22324  29.968  44.378   4.770
53962W        W22325  25.637  35.448   2.207
53963W        W22326   5.406   7.827  13.334
53964W        W22327   9.361  12.362   2.716
53965W        W22328  29.107  43.462  10.608
53966W        W22329  39.991  40.882  11.429
53967W        W22330  18.684  26.091   2.188
53968W        W22331  40.840  34.903   1.697
53969W        W22332  31.561  37.031  13.478
53970W        W22333  18.245  34.950   3.717
53971W        W22334  29.943   5.881   4.155
53972W        W22335  35.896  17.270   1.889
53973W        W22336  26.205  17.776  14.345
53974W        W22337  38.505  42.854   1.365
53975W        W22338   5.328  28.098   4.763
53976W        W22339  29.540  44.816  11.010
53977W        W22340  25.660   9.871  14.474
53978W        W22341  38.051  41.404  11.047
53979W        W22342  36.075  24.089   2.298
53980W        W22343  39.922  38.831  11.471
53981W        W22344  39.048   2.898   3.215
53982W        W22345  42.295  42.860   1.342
53983W        W22346  13.670  32.393  10.629
53984W        W22347  41.392  22.577  12.034
53985W        W22348   1.901  18.561   2.756
53986W        W22349  25.123  25.996  12.051
53987W        W22350  25.671  21.551   3.827
53988W        W22351  17.075  17.646   4.835
53989W        W22352  42.827  31.011   5.227
53990W        W22353  12.726  19.065  12.873
53991W        W22354  29.167  35.572   3.147
53992W        W22355  35.032  18.126  14.899
53993W        W22356   5.738   8.708   3.248
53994W        W22357  33.098  33.547   2.677
53995W        W22358  24.084   6.703   2.351
53996W        W22359  41.399  20.086   1.749
53997W        W22360   8.867  41.352  13.505
53998W        W22361   2.923  16.078   0.426
53999W        W22362  24.043   9.789   3.193
54000W        W22363  35.446  24.013  13.326
54001W        W22364  12.302  16.804  13.904
54002W        W22365   6.247   6.903  11.551
54003W        W22366  31.914  43.003  11.611
54004W        W22367  24.208   5.854  12.532
54005W        W22368  24.136  38.569  14.406
54006W        W22369  16.652  39.014  14.514
54007W        W22370   9.329   0.951  14.791
54008W        W22371  40.842  32.629  14.827
54009W        W22372  37.973  23.035   4.117
54010W        W22373  30.145  26.627   0.370
54011W        W22374   0.424   6.370  12.484
54012W        W22375  24.017  27.614   3.321
54013W        W22376  12.285   0.880  11.578
54014W        W22377  14.300  39.912  14.023
54015W        W22378   9.802   5.399   3.814
54016W        W22379  11.814  27.023   2.778
54017W        W22380  19.083  32.487  10.453
54018W        W22381  12.220  40.017   3.145
54019W        W22382  44.284  11.243   4.139
54020W        W22383  17.087  43.367   1.304
54021W        W22384  17.582  43.778   0.757
54022W        W22385  28.944   9.655   3.244
54023W        W22386  16.733  33.111  14.030
54024W        W22387  19.568  10.163   5.269
54025W        W22388  23.168  26.011   0.445
54026W        W22389  26.496  29.945   3.248
54027W        W22390   1.342  38.428  11.125
54028W        W22391   5.766  44.870   2.744
54029W        W22392  36.509  21.552   3.824
54030W        W22393  22.600  10.878   1.699
54031W        W22394  23.551   1.928  13.502
54032W        W22395  31.563  20.175   0.257
54033W        W22396   4.786  26.953  10.914
54034W        W22397  14.708  44.880  10.566
54035W        W22398  36.022  13.635  13.363
54036W        W22399   3.345  10.723  11.964
54037W        W22400  34.058   4.334   0.416
54038W        W22401  31.499  17.281  10.474
54039W        W22402  22.570  19.047  12.069
54040W        W22403  18.784   2.723   1.859
54041W        W22404  30.466   6.919  12.463
54042W        W22405  31.005   1.418   5.306
54043W        W22406   7.407  40.812  14.433
54044W        W22407  22.232  10.776   3.842
54045W        W22408   7.789  24.154   1.419
54046W        W22409  24.591  33.613  12.563
54047W        W22410  15.185   3.372   4.637
54048W        W22411   5.824  19.056  13.418
54049W        W22412   9.803  41.916   0.292
54050W        W22413  38.912  14.660  11.397
54051W        W22414  20.725  15.764  14.027
54052W        W22415  32.952  10.733   0.912
54053W        W22416  35.533  26.662   0.359
54054W        W22417  24.544  33.603  11.530
54055W        W22418  37.578   0.958   2.286
54056W        W22419  26.520  19.694   5.152
54057W        W22420  15.822  24.579   2.894
54058W        W22421   5.427  23.600   1.267
54059W        W22422  17.162  13.804  13.362
54060W        W22423  16.811  15.093  14.298
54061W        W22424  42.830  10.175  14.290
54062W        W22425  14.806   5.708   1.798
54063W        W22426  16.574   3.765  11.425
54064W        W22427  12.793  38.841   4.148
54065W        W22428  18.091  16.657  14.827
54066W        W22429  31.490  33.931   0.308
54067W        W22430  39.389   2.410   1.770
54068W        W22431  32.448  28.986   0.443
54069W        W22432  24.518   7.200   2.816
54070W        W22433  10.164  32.458   3.652
54071W        W22434  30.504  44.954   2.895
54072W        W22435  11.758  36.060   9.947
54073W        W22436   7.285  43.922  10.977
54074W        W22437  20.132  23.509   4.710
54075W        W22438  20.145  24.029  11.415
54076W        W22439  12.254  26.523   3.256
54077W        W22440   8.332  41.987   3.163
54078W        W22441  42.899   6.330  14.457
54079W        W22442  30.120  20.191   4.339
54080W        W22443  11.838  38.381   2.753
54081W        W22444  10.360  12.280  14.976
54082W        W22445   0.770  41.341  10.934
54083W        W22446  37.522  15.263   4.200
54084W        W22447  40.341  10.663   4.638
54085W        W22448  39.415  38.332   2.380
54086W        W22449  21.715  33.108   0.433
54087W        W22450  37.341  25.496   2.770
54088W        W22451  25.639  11.845  14.433
54089W        W22452  34.110  38.428  11.876
54090W        W22453  26.062  10.233  13.380
54091W        W22454  33.591   0.924  13.427
54092W        W22455  44.480  44.970  11.043
54093W        W22456  15.088  17.602   1.905
54094W        W22457  32.999  35.557   3.675
54095W        W22458   5.725  32.526  11.895
54096W        W22459   5.288  23.150   3.317
54097W        W22460  19.699   0.902   3.295
54098W        W22461  39.853  20.528   0.847
54099W        W22462  42.006  39.954   1.244
54100W        W22463   1.449  31.519   2.372
54101W        W22464  36.055  15.617   1.824
54102W        W22465  40.509   9.237   2.393
54103W        W22466  19.556  34.998   3.714
54104W        W22467   5.806   2.776  13.471
54105W        W22468  36.067  12.267  12.010
54106W        W22469  39.399   5.794  12.398
54107W        W22470  23.072  25.145   2.363
54108W        W22471  19.636  20.715   3.156
54109W        W22472  33.103  34.517  12.508
54110W        W22473  14.199  20.148  13.835
54111W        W22474   8.900   0.456  13.821
54112W        W22475  34.898  42.791  10.090
54113W        W22476  36.574  33.102  10.549
54114W        W22477  12.697  12.144  11.903
54115W        W22478  32.098  34.062  14.433
54116W        W22479  39.470   3.871  12.996
54117W        W22480   8.253  37.036  10.511
54118W        W22481  28.112  24.563   2.393
54119W        W22482   5.789  21.690   4.626
54120W        W22483  13.613  36.576  14.838
54121W        W22484  24.593  42.314  11.047
54122W        W22485  40.392   2.232   3.370
54123W        W22486  37.040  30.996   3.717
54124W        W22487   5.785  34.891  11.888
54125W        W22488  42.799  26.048  11.064
54126W        W22489   1.837  44.316   0.339
54127W        W22490   1.818  38.944  12.513
54128W        W22491   4.706  42.386   4.781
54129W        W22492  30.538   0.279  13.473
54130W        W22493  28.068  12.670   4.807
54131W        W22494  34.043  34.027  13.385
54132W        W22495   8.732  28.138  14.469
54133W        W22496   4.444   9.312   1.803
54134W        W22497  11.355   4.431  14.347
54135W        W22498   0.266   7.724  14.924
54136W        W22499  12.717  40.050  13.003
54137W        W22500  13.657  26.061   0.452
54138W        W22501  11.862   2.949   2.287
54139W        W22502   9.196   8.899   4.634
54140W        W22503  25.558  41.000   2.674
54141W        W22504  13.774   9.778   0.887
54142W        W22505   6.869  37.027   4.171
54143W        W22506  14.182  16.678   0.262
54144W        W22507   8.244  41.863  14.320
54145W        W22508  24.137   3.724   4.830
54146W        W22509   8.661  37.494   0.819
54147W        W22510  27.455  21.602   0.447
54148W        W22511  30.114   1.348   0.482
54149W        W22512  35.998  44.264  12.094
54150W        W22513  13.695  10.636  10.501
54151W        W22514  27.043  20.564   1.924
54152W        W22515  36.881  20.100   3.704
54153W        W22516  37.432  44.940   4.670
54154W        W22517   0.974  12.205  11.040
54155W        W22518  35.428  12.623   1.224
54156W        W22519  34.419  16.301   1.733
54157W        W22520  41.314  22.238  13.968
54158W        W22521  29.115  34.539   0.430
54159W        W22522  21.038  37.480   1.401
54160W        W22523  11.128  35.425  10.974
54161W        W22524  24.536  34.614  14.855
54162W        W22525  42.827  19.276  11.105
54163W        W22526  23.625  28.134   0.774
54164W        W22527   0.761  40.331  14.964
54165W        W22528  36.408  29.572   0.829
54166W        W22529  30.079  13.736   3.672
54167W        W22530  44.315   6.897  12.528
54168W        W22531  35.055  38.994   1.243
54169W        W22532   2.876  15.256   4.691
54170W        W22533  43.972   2.953   4.770
54171W        W22534   0.892  37.456  13.944
54172W        W22535   9.362  37.043  14.884
54173W        W22536  36.978  32.599  14.406
54174W        W22537  19.086  23.217  14.445
54175W        W22538  28.163  19.223  13.496
54176W        W22539   3.401  32.009  14.964
54177W        W22540  28.987  22.229  11.924
54178W        W22541  36.053  28.438  10.469
54179W        W22542   9.836  12.350   0.421
54180W        W22543  15.583  19.264  11.375
54181W        W22544  11.352  44.473   4.790
54182W        W22545  35.443  14.311  12.062
54183W        W22546  29.474  31.960   2.700
54184W        W22547   7.738  20.046  14.508
54185W        W22548  31.026   2.287  10.609
54186W        W22549  15.623  35.966   4.194
54187W        W22550   8.683   6.331  12.012
54188W        W22551  33.403  39.006  14.275
54189W        W22552   7.840  22.090  14.920
54190W        W22553   5.273  24.584  11.425
54191W        W22554  29.933  35.499  13.861
54192W        W22555  31.896  22.233   0.945
54193W        W22556  37.497  44.376  11.981
54194W        W22557  13.144  44.371   4.775
54195W        W22558  21.550  25.985  11.013
54196W        W22559  41.522  32.119   4.751
54197W        W22560   1.970  31.050   1.304
54198W        W22561  14.317  38.015  13.999
54199W        W22562   8.346   0.354  12.406
54200W        W22563  21.208  43.021   2.841
54201W        W22564   8.894  20.218   5.300
54202W        W22565  30.536  41.994  14.852
54203W        W22566   3.224  38.357  14.845
54204W        W22567  28.977  39.065   4.652
54205W        W22568   6.204   4.349   1.877
54206W        W22569  16.126  36.995   2.329
54207W        W22570  10.709   6.258   1.447
54208W        W22571  10.638  40.539   0.935
54209W        W22572  20.271   5.328  12.519
54210W        W22573   1.876  43.801   9.448
54211W        W22574   7.251  33.094  10.979
54212W        W22575  17.195  11.222  13.378
54213W        W22576  36.500  11.666   4.321
54214W        W22577  37.354   2.407   3.816
54215W        W22578   6.797  15.654  14.275
54216W        W22579   3.448  20.209   1.904
54217W        W22580  40.972   7.396   3.331
54218W        W22581  42.459  19.688  14.848
54219W        W22582  17.132  12.359  14.374
54220W        W22583  41.968  31.055   2.191
54221W        W22584  16.789   1.790  10.504
54222W        W22585  37.944  26.188  12.931
54223W        W22586  43.427   1.362  11.981
54224W        W22587  13.173  26.129   3.195
54225W        W22588   4.862  43.871  13.832
54226W        W22589  27.949  24.506   4.711
54227W        W22590  39.977  12.321   4.236
54228W        W22591  35.517   6.189  14.864
54229W        W22592  39.936  12.307   0.353
54230W        W22593  20.225  22.710  10.462
54231W        W22594  10.302  36.984  12.386
54232W        W22595  17.607   5.301  11.402
54233W        W22596   8.689  10.339  11.051
54234W        W22597  43.489  39.354   2.359
54235W        W22598  27.515  28.106   4.630
54236W        W22599  17.648  13.321   1.285
54237W        W22600   1.904  43.940   0.806
54238W        W22601  34.611  38.338  13.871
54239W        W22602   8.364  10.820   4.349
54240W        W22603   3.930  14.634  13.484
54241W        W22604  19.261  41.314   1.768
54242W        W22605  25.712   6.794   1.439
54243W        W22606  18.650  17.654  13.440
54244W        W22607  43.322   5.273  14.875
54245W        W22608  38.456  29.426   0.826
54246W        W22609  35.446  12.730   0.250
54247W        W22610   7.744  11.187   1.805
54248W        W22611   5.758  34.066   1.780
54249W        W22612  31.457  15.303   2.183
54250W        W22613  21.018   6.333  10.578
54251W        W22614  25.182  16.731   0.886
54252W        W22615  13.712  44.258   1.846
54253W        W22616  38.449  15.739   3.731
54254W        W22617   2.759  32.009   9.959
54255W        W22618  10.844  34.414   0.887
54256W        W22619  27.975  29.479   1.329
54257W        W22620  24.083  16.736   4.239
54258W        W22621  21.024  29.976  13.048
54259W        W22622  33.626  29.442  10.608
54260W        W22623   1.806  13.630   1.913
54261W        W22624  20.174  32.459  11.932
54262W        W22625  10.864  14.120  12.563
54263W        W22626  33.001   9.172  13.029
54264W        W22627  24.149  25.991  14.826
54265W        W22628   6.758  18.567   0.855
54266W        W22629  30.983  40.370  12.399
54267W        W22630  29.011  22.154   3.180
54268W        W22631  23.552  12.626   3.853
54269W        W22632  31.627  29.518   1.251
54270W        W22633  31.932  37.556   0.419
54271W        W22634  25.687   9.181   0.474
54272W        W22635  27.495  13.246  11.087
54273W        W22636  20.271  44.442   4.818
54274W        W22637  36.985  40.835   0.752
54275W        W22638   7.327   2.841  14.461
54276W        W22639   1.945  21.177  11.407
54277W        W22640  36.946   3.260   3.245
54278W        W22641   6.238  42.371   0.865
54279W        W22642  18.598  12.223   2.864
54280W        W22643  41.929  11.708   3.362
54281W        W22644  29.442   7.335   5.119
54282W        W22645  25.586  30.623  12.080
54283W        W22646  25.541  41.508   3.679
54284W        W22647  41.479  36.574  14.944
54285W        W22648  35.900  17.234   0.307
54286W        W22649   0.770   2.252   4.784
54287W        W22650  31.007   5.343  13.534
54288W        W22651  37.888  43.443   1.227
54289W        W22652  39.998  35.412   3.330
54290W        W22653  25.147  16.304  14.460
54291W        W22654  33.429  43.948   0.886
54292W        W22655   7.742  27.645  10.999
54293W        W22656  34.389  38.379  12.450
54294W        W22657  21.542  34.502  12.345
54295W        W22658  16.175  27.626  12.862
54296W        W22659   2.885  42.309  11.510
54297W        W22660  28.992  35.991  13.812
54298W        W22661  28.979   4.837   0.854
54299W        W22662  42.995  35.404   4.117
54300W        W22663   1.394  14.177  11.006
54301W        W22664   4.343  34.539  11.501
54302W        W22665  39.446  11.202   4.804
54303W        W22666  13.241  27.568   0.340
54304W        W22667  31.006  37.944  13.331
54305W        W22668   5.877   5.788  12.466
54306W        W22669  24.106  39.433   2.802
54307W        W22670  40.845  26.184   1.741
54308W        W22671  12.658  32.475  11.107
54309W        W22672  19.610  36.412   1.285
54310W        W22673  27.001   1.743  12.940
54311W        W22674  42.432  38.904   0.447
54312W        W22675  16.627  10.868  11.439
54313W        W22676  11.714  23.733   3.191
54314W        W22677   0.444   7.678   3.838
54315W        W22678   7.329   1.437  14.303
54316W        W22679  42.830  34.034  11.531
54317W        W22680  31.991  40.511  14.784
54318W        W22681   2.919   5.789  13.443
54319W        W22682   3.723  14.779   3.670
54320W        W22683  15.166   9.174   1.714
54321W        W22684  18.163  39.856   4.827
54322W        W22685   6.723   4.929  14.902
54323W        W22686   2.855  24.200   4.619
54324W        W22687  29.062  44.408   0.843
54325W        W22688  38.459  26.153   0.940
54326W        W22689  38.019  20.717  12.926
54327W        W22690  37.060  42.814  11.513
54328W        W22691   1.431  20.111  14.401
54329W        W22692  29.967  40.046  14.895
54330W        W22693  37.845  23.690  13.901
54331W        W22694  18.752   5.774   3.709
54332W        W22695  10.290   9.377   4.780
54333W        W22696   0.865  14.106   1.403
54334W        W22697  24.112  26.677  11.423
54335W        W22698  26.495  43.485  13.506
54336W        W22699  25.680  28.618  10.596
54337W        W22700  12.653  15.757  12.948
54338W        W22701  38.548  28.538  12.839
54339W        W22702   2.774  30.020   0.821
54340W        W22703  23.697  16.076  12.041
54341W        W22704   9.299  11.817   0.340
54342W        W22705   5.307   1.738  13.839
54343W        W22706  17.712  22.668  14.397
54344W        W22707  26.696   2.358   0.960
54345W        W22708  12.648  39.558   2.841
54346W        W22709  35.579  28.062   2.418
54347W        W22710  32.459  40.461   4.685
54348W        W22711  11.180  40.447  14.403
54349W        W22712  15.293   4.387  14.429
54350W        W22713  25.195  11.217   2.231
54351W        W22714   2.417  43.378   3.153
54352W        W22715  29.479   0.799   3.805
54353W        W22716  34.970  16.576   0.276
54354W        W22717  25.030   8.896  11.990
54355W        W22718   3.236  37.873  12.095
54356W        W22719  44.312  14.799  13.018
54357W        W22720   9.221  15.800  13.505
54358W        W22721  28.619  19.138  13.870
54359W        W22722  16.780  38.834   1.286
54360W        W22723  42.359  38.038   4.737
54361W        W22724  32.539   6.209   2.207
54362W        W22725   6.719   2.724  14.993
54363W        W22726  11.372  34.872  10.526
54364W        W22727  20.053  12.815   1.880
54365W        W22728  26.503  34.488   3.203
54366W        W22729  14.644  38.906  13.035
54367W        W22730  42.342  33.386  10.418
54368W        W22731  24.561  28.499   3.842
54369W        W22732   8.872  40.544   4.144
54370W        W22733  26.113  44.299  12.926
54371W        W22734  20.170  25.556   2.259
54372W        W22735  19.074  44.384   1.823
54373W        W22736  29.120  43.837  13.041
54374W        W22737   4.706  12.788  13.836
54375W        W22738  22.685  30.955   1.840
54376W        W22739  19.196   9.809  13.056
54377W        W22740  18.188  21.566   0.273
54378W        W22741  43.271   0.437   1.896
54379W        W22742  12.706  24.486  12.916
54380W        W22743  12.333   9.328  11.030
54381W        W22744  30.931  20.754   4.827
54382W        W22745  26.081  33.518  11.439
54383W        W22746  38.819  15.297  11.401
54384W        W22747  26.129  35.514   3.772
54385W        W22748  16.575  17.574  11.470
54386W        W22749  21.025  13.812  12.868
54387W        W22750   7.812  15.180  12.509
54388W        W22751  34.094   4.329   1.416
54389W        W22752  30.081  27.488   3.658
54390W        W22753  39.389  12.174   3.658
54391W        W22754  26.696  11.821  11.428
54392W        W22755   6.278  40.532  13.037
54393W        W22756  27.157  39.055  13.914
54394W        W22757   5.372  11.850  10.467
54395W        W22758  41.794  36.963   1.227
54396W        W22759   5.719  19.645   3.350
54397W        W22760  21.658  32.953  14.316
54398W        W22761  16.074   4.258   5.627
54399W        W22762   5.233  15.672   2.350
54400W        W22763  12.131  37.458   3.638
54401W        W22764   4.248  23.640  10.909
54402W        W22765  29.166  35.394   2.392
54403W        W22766  21.255   1.342  10.559
54404W        W22767  19.715  36.065  13.802
54405W        W22768  17.623  35.866  13.925
54406W        W22769  11.789  34.926  14.866
54407W        W22770  42.435  37.546   3.804
54408W        W22771   8.320  42.990   3.720
54409W        W22772   7.798   5.917   0.413
54410W        W22773   8.400  20.768  13.544
54411W        W22774  43.273   1.805  14.945
54412W        W22775  39.928  26.649   4.663
54413W        W22776   1.385  37.856  12.937
54414W        W22777  32.951   2.916   1.720
54415W        W22778  44.475  40.506  12.992
54416W        W22779  14.759  19.545   0.448
54417W        W22780  31.432  21.246   5.208
54418W        W22781  41.951  38.443  12.966
54419W        W22782  23.501   6.727   3.854
54420W        W22783  44.419  23.107  14.935
54421W        W22784  17.171  25.625  10.979
54422W        W22785   0.911  32.610  14.829
54423W        W22786  39.519  42.487  10.571
54424W        W22787  10.803   6.762   1.403
54425W        W22788  34.052  26.622  11.416
54426W        W22789  35.093   4.707  13.387
54427W        W22790   4.803  15.234   1.878
54428W        W22791  14.804  20.213  12.437
54429W        W22792   0.888  33.502   3.186
54430W        W22793   4.242  35.451  11.905
54431W        W22794  35.584  27.016  12.453
54432W        W22795  39.873  35.948  14.761
54433W        W22796  15.234  37.920   3.282
54434W        W22797   1.253  22.516  12.489
54435W        W22798   9.364  16.614   3.863
54436W        W22799  28.485  36.469   4.220
54437W        W22800   0.914  39.369   1.258
54438W        W22801  39.403  28.440   0.359
54439W        W22802  25.643  10.253  10.503
54440W        W22803  38.547  30.546  10.434
54441W        W22804  21.739  30.998   1.749
54442W        W22805  30.123  42.492  14.348
54443W        W22806  31.532  33.115  13.822
54444W        W22807  21.610  35.517   2.795
54445W        W22808   5.281  44.465   4.322
54446W        W22809  37.855  10.672   9.650
54447W        W22810  13.826  10.827   2.868
54448W        W22811   3.227  34.428  13.415
54449W        W22812  34.530  34.110   2.408
54450W        W22813  25.645  15.699  13.474
54451W        W22814  27.043  19.170  14.867
54452W        W22815  31.488  25.204   0.881
54453W        W22816  36.554  34.960   1.744
54454W        W22817  14.681  29.436   2.762
54455W        W22818  44.301  14.667  11.865
54456W        W22819  26.957  10.150  14.003
54457W        W22820  40.823  11.221   2.207
54458W        W22821   3.916  27.118  11.063
54459W        W22822  28.973  13.709   3.738
54460W        W22823  35.427   2.428  11.922
54461W        W22824  37.566  17.274   2.315
54462W        W22825   5.228   8.701  14.390
54463W        W22826  33.605  34.868   0.297
54464W        W22827   4.881  34.594  11.043
54465W        W22828  32.439   6.314  11.950
54466W        W22829  30.023  32.438  13.794
54467W        W22830  42.799   5.831   3.648
54468W        W22831   0.910  29.138   1.820
54469W        W22832  44.810   0.261  11.119
54470W        W22833  29.640  18.747   1.374
54471W        W22834  30.150  44.950   3.201
54472W        W22835  44.332  32.537  14.513
54473W        W22836  39.331  27.118  11.552
54474W        W22837  44.372   4.780   4.115
54475W        W22838  29.087  17.676  13.320
54476W        W22839   6.341  13.740   1.890
54477W        W22840  15.660   5.828  10.556
54478W        W22841  30.530   8.871  10.411
54479W        W22842  17.204  16.696   0.338
54480W        W22843  35.449  21.113   3.643
54481W        W22844  10.869   1.852  11.105
54482W        W22845   3.880  11.364  13.967
54483W        W22846  14.670   3.718   0.260
54484W        W22847  40.422  18.612   0.763
54485W        W22848   1.892  15.134  10.950
54486W        W22849  25.157  26.601   5.290
54487W        W22850  11.656   8.859   5.231
54488W        W22851  17.275  16.090   4.232
54489W        W22852  10.209  41.945  14.910
54490W        W22853  34.057  37.578   0.391
54491W        W22854  40.818   3.341   1.832
54492W        W22855   2.800  27.949  11.090
54493W        W22856  36.994  42.386   2.692
54494W        W22857   0.844  16.275  14.487
54495W        W22858  29.985  40.378  13.390
54496W        W22859  43.302  21.099  13.889
54497W        W22860  21.079  27.567  13.377
54498W        W22861   0.428  11.779   2.701
54499W        W22862   3.806  17.110  13.431
54500W        W22863  24.661  43.946  13.432
54501W        W22864  28.447  37.863  10.467
54502W        W22865  44.264   2.864   3.379
54503W        W22866  23.579  20.586  10.631
54504W        W22867  28.481  39.837   1.407
54505W        W22868  29.553  40.005  14.791
54506W        W22869  16.115  41.962  13.976
54507W        W22870  37.530  11.336  11.041
54508W        W22871   4.264  29.451  12.383
54509W        W22872  39.047  34.574   4.319
54510W        W22873  44.344  19.148   0.836
54511W        W22874  44.495   7.293   4.336
54512W        W22875  31.907   2.775  13.885
54513W        W22876  20.193  24.602  11.489
54514W        W22877  13.788  37.930   1.349
54515W        W22878  29.648  39.415   3.236
54516W        W22879  20.759  27.643  11.070
54517W        W22880  44.815  24.176  11.398
54518W        W22881  31.471  12.655   2.341
54519W        W22882  24.108  20.184   4.684
54520W        W22883  19.092  13.238  11.957
54521W        W22884  37.018  38.894  12.860
54522W        W22885  30.483  15.167  14.962
54523W        W22886   6.890   5.390  10.625
54524W        W22887   3.333  27.952   2.900
54525W        W22888  27.471  14.230  14.836
54526W        W22889  21.113  44.965  13.043
54527W        W22890  40.014   4.846  11.013
54528W        W22891  16.587  44.856  12.951
54529W        W22892  23.543   7.781   3.808
54530W        W22893  34.530  40.913  14.892
54531W        W22894  11.680  19.273   4.726
54532W        W22895   5.387  15.083  12.855
54533W        W22896  43.276  39.334  12.034
54534W        W22897  32.970   1.858   4.754
54535W        W22898  21.729  43.005  10.574
54536W        W22899   4.728  30.109  14.833
54537W        W22900  14.768   4.401  10.503
54538W        W22901  29.036   7.855   2.226
54539W        W22902  34.477  11.363  13.524
54540W        W22903   7.373  11.203   4.248
54541W        W22904  16.288   8.780   2.693
54542W        W22905   0.466  24.490  12.029
54543W        W22906  38.503  10.183  13.979
54544W        W22907   3.392   6.272   2.811
54545W        W22908  42.510  30.936   3.275
54546W        W22909  43.020   8.399  10.494
54547W        W22910  36.994   5.766  14.476
54548W        W22911  43.850  41.493   1.723
54549W        W22912  24.602  34.964  13.972
54550W        W22913  22.678  38.955  14.444
54551W        W22914  24.493  14.120  11.952
54552W        W22915  31.951  19.091  14.383
54553W        W22916  31.493  32.571  14.354
54554W        W22917  25.548   1.400  14.912
54555W        W22918  10.165  39.037   1.398
54556W        W22919  15.755  14.811   1.223
54557W        W22920  14.686   1.412   4.744
54558W        W22921  34.061   6.386  10.641
54559W        W22922  36.880   3.829  13.822
54560W        W22923  21.678  41.791   2.790
54561W        W22924  41.535  37.511   4.280
54562W        W22925   5.403  24.652  12.438
54563W        W22926   5.219  29.475  14.958
54564W        W22927   0.751  14.622  11.392
54565W        W22928  15.770  39.939   0.479
54566W        W22929  16.592  15.694   4.333
54567W        W22930   8.388  44.321  13.030
54568W        W22931  36.011  38.359   0.437
54569W        W22932  19.114  42.886   1.274
54570W        W22933  29.969  15.599  12.516
54571W        W22934  25.088   2.878   2.236
54572W        W22935  16.147   5.758   0.362
54573W        W22936  27.976  15.098  14.846
54574W        W22937  24.637  26.542  12.944
54575W        W22938   4.385  11.760  13.872
54576W        W22939  44.333   5.374   1.915
54577W        W22940  30.489  32.041  14.512
54578W        W22941  35.105  38.328   4.727
54579W        W22942   1.912  44.756  14.987
54580W        W22943  35.455   7.779  14.459
54581W        W22944  39.048  15.244  10.887
54582W        W22945  40.409   4.250   1.863
54583W        W22946  26.560   4.896  14.380
54584W        W22947  43.880   5.864   1.905
54585W        W22948  35.869  17.673  11.996
54586W        W22949  44.980  17.740  10.463
54587W        W22950  12.135  11.720  11.558
54588W        W22951  39.007   6.714   3.200
54589W        W22952  21.742  14.629  12.547
54590W        W22953  37.860  30.002  14.809
54591W        W22954  24.539  12.238   3.847
54592W        W22955  29.622  14.830   4.712
54593W        W22956  27.004  15.677  12.068
54594W        W22957   8.882  34.109  12.897
54595W        W22958  13.184  32.006   2.821
54596W        W22959   6.807  43.300   4.205
54597W        W22960  36.377  30.094  14.768
54598W        W22961   3.224  23.688   3.842
54599W        W22962   2.905   6.919   1.851
54600W        W22963  34.550   2.401  13.996
54601W        W22964   5.892  21.146   1.418
54602W        W22965  31.029   0.318   1.828
54603W        W22966   0.395  12.664   4.637
54604W        W22967  27.006   0.348  13.905
54605W        W22968   5.360  17.677  14.991
54606W        W22969   8.766  23.625   4.711
54607W        W22970  34.066  17.241   4.257
54608W        W22971  43.332  12.682   1.418
54609W        W22972  22.140  31.444   0.910
54610W        W22973  39.969  29.934  12.431
54611W        W22974  40.533  43.901   0.747
54612W        W22975  42.956  35.941  10.634
54613W        W22976  23.134   0.486  14.289
54614W        W22977  10.171  13.273   2.400
54615W        W22978  10.138   2.271  11.933
54616W        W22979  31.550  27.601  13.872
54617W        W22980  40.337  32.417   0.964
54618W        W22981   1.467  10.288  10.605
54619W        W22982  23.515  12.781  13.909
54620W        W22983  30.127  28.548   2.854
54621W        W22984  18.185  40.806  11.893
54622W        W22985   9.757  21.545   2.868
54623W        W22986  26.073  38.031  14.490
54624W        W22987  38.493  32.118   3.292
54625W        W22988  25.200  23.219  13.963
54626W        W22989  35.382  15.686   9.949
54627W        W22990  43.793  26.605   0.463
54628W        W22991  24.483  12.670  13.984
54629W        W22992  18.784  25.132   1.416
54630W        W22993  40.840  16.745   0.875
54631W        W22994  17.581   3.809  12.518
54632W        W22995  25.516  27.147  13.325
54633W        W22996  29.429  38.470   1.765
54634W        W22997  11.783  17.206   1.734
54635W        W22998  33.032  43.323   4.606
54636W        W22999  34.558  39.033  11.028
54637W        W23000  35.547  32.491  13.364
54638W        W23001   6.786  42.836   5.122
54639W        W23002  23.692   1.759   4.650
54640W        W23003   3.255  38.503  14.309
54641W        W23004   4.841  10.298  10.905
54642W        W23005  34.977  41.945   4.335
54643W        W23006  24.047  10.817  11.574
54644W        W23007   2.286   5.894  11.975
54645W        W23008   7.258  10.726  11.448
54646W        W23009  29.111  28.450   4.774
54647W        W23010  33.431  29.153   2.267
54648W        W23011  27.128   8.224   0.250
54649W        W23012  17.302  21.716  11.032
54650W        W23013   4.262  43.772  12.998
54651W        W23014  24.720  12.187   4.130
54652W        W23015  16.779   5.786   3.819
54653W        W23016  28.520  19.230   1.843
54654W        W23017  19.692  15.181  14.384
54655W        W23018  44.947  35.865  10.980
54656W        W23019  44.335  25.195   3.772
54657W        W23020  15.785  34.451   1.738
54658W        W23021  15.648   2.280  12.482
54659W        W23022  16.133  14.113   1.423
54660W        W23023  38.456  21.548   4.653
54661W        W23024  23.567  26.645   4.254
54662W        W23025  29.112  27.143   1.341
54663W        W23026   7.309   9.212  11.027
54664W        W23027  19.603   2.246   1.358
54665W        W23028  38.875  37.471  10.534
54666W        W23029   8.295   4.825   2.809
54667W        W23030  13.337  41.011  12.993
54668W        W23031  27.626  26.025  11.936
54669W        W23032   2.438  14.677   4.639
54670W        W23033  31.116  20.626   2.774
54671W        W23034   7.864  28.999  11.572
54672W        W23035  23.988  41.842  14.466
54673W        W23036  36.092  29.051   0.392
54674W        W23037  13.714  31.114   4.607
54675W        W23038   6.905  18.132  13.000
54676W        W23039  13.665   0.270   4.671
54677W        W23040  12.671  16.137  13.462
54678W        W23041   6.846  39.849  14.915
54679W        W23042  19.570  36.519  11.542
54680W        W23043  23.991  14.635   4.748
54681W        W23044   6.198  37.508   2.278
54682W        W23045  18.597   9.747  13.973
54683W        W23046  15.752  17.555   2.749
54684W        W23047  12.710  25.522   4.732
54685W        W23048  12.282  29.101  14.804
54686W        W23049  22.132   5.885  12.905
54687W        W23050  40.935  21.662   0.347
54688W        W23051  29.578  16.762  10.569
54689W        W23052  39.833  14.158   0.297
54690W        W23053  15.727  41.865  13.054
54691W        W23054   1.937  43.328   5.316
54692W        W23055  40.430  21.707  13.873
54693W        W23056   2.933  10.244   2.414
54694W        W23057  31.528  28.633   3.719
54695W        W23058   2.284   6.395   2.706
54696W        W23059  26.670  24.678   3.649
54697W        W23060  27.039  14.162   9.536
54698W        W23061  33.112   0.398  14.487
54699W        W23062  42.447  37.506  13.398
54700W        W23063   4.891   5.306  12.063
54701W        W23064  22.037   4.269   0.332
54702W        W23065   3.906  39.446   4.346
54703W        W23066  37.831  16.085   2.238
54704W        W23067   5.326  33.025  11.127
54705W        W23068  31.447  25.150  11.963
54706W        W23069   6.221   3.874   4.820
54707W        W23070  40.011  16.674  12.526
54708W        W23071  41.413  14.262  13.937
54709W        W23072  21.203  19.620  14.026
54710W        W23073  23.721  23.102  12.900
54711W        W23074  13.222  23.191   4.354
54712W        W23075  22.224  27.557   3.789
54713W        W23076  27.674  34.404  11.028
54714W        W23077   3.219  34.561  13.926
54715W        W23078  12.336   0.847   3.796
54716W        W23079  12.241  33.117   1.785
54717W        W23080  14.600  22.210  10.979
54718W        W23081  20.238  35.589   3.160
54719W        W23082  40.800  16.677   2.192
54720W        W23083  39.960  32.077  11.095
54721W        W23084  12.792  21.532   0.368
54722W        W23085  44.935  35.868   5.678
54723W        W23086  42.446  39.424  11.026
54724W        W23087  37.372  13.290  10.996
54725W        W23088   3.785  17.123   0.435
54726W        W23089  13.633  32.107   3.657
54727W        W23090  18.644  24.134   3.799
54728W        W23091   3.766   4.234  10.994
54729W        W23092  14.692   5.204   4.283
54730W        W23093   1.439  39.018  12.887
54731W        W23094   1.324  17.198   0.312
54732W        W23095  40.881  41.449  14.511
54733W        W23096   5.382  42.811   0.297
54734W        W23097  40.543  44.326   0.877
54735W        W23098  14.733  19.766   0.959
54736W        W23099  12.176  19.189  14.890
54737W        W23100  36.578  31.045   4.208
54738W        W23101   5.922  36.887   1.756
54739W        W23102  12.260  15.625  10.561
54740W        W23103  43.907  21.065  11.532
54741W        W23104   3.299  20.769  10.941
54742W        W23105  36.917  10.742   5.185
54743W        W23106  25.535   5.697   3.660
54744W        W23107   5.376   3.883  14.018
54745W        W23108   4.708  17.605  13.847
54746W        W23109  13.712  27.497  13.361
54747W        W23110  16.640  33.448  14.000
54748W        W23111  16.139  28.509   4.268
54749W        W23112   4.286  15.096  14.847
54750W        W23113  26.634  29.661   5.240
54751W        W23114  31.604   4.283  11.562
54752W        W23115  35.564  12.185   4.830
54753W        W23116  27.013   2.293  13.942
54754W        W23117  22.010  14.699  10.987
54755W        W23118  34.883   5.898  13.339
54756W        W23119  19.159  24.058  11.040
54757W        W23120   1.897   0.819  12.383
54758W        W23121  28.042  15.722  10.994
54759W        W23122  11.315  14.178  12.536
54760W        W23123  44.462  36.860   2.199
54761W        W23124  21.719  28.081   4.752
54762W        W23125  44.800  36.521   1.334
54763W        W23126  10.143  31.435   2.282
54764W        W23127  38.957  38.864   4.126
54765W        W23128  38.859   0.395   4.770
54766W        W23129  11.225  40.355   0.878
54767W        W23130   9.669  33.905   1.292
54768W        W23131  34.007  33.956   3.154
54769W        W23132   0.429  41.993   1.755
54770W        W23133  14.122  42.368   4.627
54771W        W23134  35.070  38.950   2.792
54772W        W23135   1.807  27.578   3.207
54773W        W23136   9.303  10.799  14.027
54774W        W23137  36.973  30.926   1.864
54775W        W23138   2.723  38.960  11.527
54776W        W23139  43.021   7.788  14.816
54777W        W23140   7.698  20.695   1.214
54778W        W23141  11.363  28.622  13.814
54779W        W23142  34.469  10.671   0.376
54780W        W23143  27.606   0.390  11.513
54781W        W23144  43.905  25.039  13.883
54782W        W23145  19.215  12.337  14.827
54783W        W23146  18.693  15.258   1.881
54784W        W23147   7.833  43.963   1.921
54785W        W23148  20.174   3.458  12.342
54786W        W23149  25.660  18.286  13.400
54787W        W23150  16.085  21.256  10.966
54788W        W23151  22.998  37.415   3.250
54789W        W23152  16.309  35.102  12.918
54790W        W23153  35.960  16.686  10.550
54791W        W23154  35.374   9.206   0.937
54792W        W23155  24.225  20.117   0.816
54793W        W23156  36.039  18.142  14.005
54794W        W23157  25.156  38.851  11.932
54795W        W23158  28.658  34.497  12.970
54796W        W23159  18.185  39.041  12.388
54797W        W23160  31.421   5.882  14.396
54798W        W23161  31.556  23.579   2.724
54799W        W23162   7.351  19.726   0.875
54800W        W23163   6.866   9.822   2.853
54801W        W23164   0.354  41.988   4.229
54802W        W23165   8.854  30.052   0.325
54803W        W23166  37.437  24.543  11.431
54804W        W23167  26.134  42.797   4.235
54805W        W23168  40.929  22.661   0.909
54806W        W23169  37.462  17.704  10.891
54807W        W23170  30.009  36.418  13.332
54808W        W23171  35.931  27.678  12.013
54809W        W23172  36.534  40.400   2.388
54810W        W23173   0.322  40.385   0.260
54811W        W23174  43.777  37.510   5.316
54812W        W23175  26.509   8.792  12.925
54813W        W23176  40.398   1.796  11.446
54814W        W23177  37.877  11.698   2.204
54815W        W23178   5.703  16.088  14.903
54816W        W23179   2.886  41.518  14.328
54817W        W23180   6.907  13.266   3.355
54818W        W23181  17.115  21.057  11.488
54819W        W23182   4.228  17.794   1.705
54820W        W23183  29.571  20.201   0.269
54821W        W23184  25.137  34.556   3.299
54822W        W23185  21.675  35.388  10.501
54823W        W23186   2.423  37.547   2.707
54824W        W23187   6.396  39.985  12.924
54825W        W23188   7.360  40.953   4.617
54826W        W23189  34.019  27.096  12.031
54827W        W23190  20.674  21.145   4.325
54828W        W23191  19.536   9.741   3.823
54829W        W23192  20.681  31.606   4.338
54830W        W23193  20.594   4.942  11.968
54831W        W23194   7.877  39.529  11.124
54832W        W23195   4.388  16.619   4.168
54833W        W23196  14.618  25.635  12.022
54834W        W23197   0.431  15.712  10.448
54835W        W23198  40.407  24.202  14.795
54836W        W23199  24.040   5.255  11.922
54837W        W23200   6.414  32.973  13.464
54838W        W23201  41.299   4.862   1.885
54839W        W23202  13.655  39.986  11.571
54840W        W23203   6.816  32.128  11.487
54841W        W23204  25.150  16.783   2.839
54842W        W23205  37.371  12.778   1.356
54843W        W23206  38.010   8.843  10.916
54844W        W23207  39.830  24.974  11.431
54845W        W23208  41.897  36.533   4.688
54846W        W23209  26.655  23.559  11.537
54847W        W23210  30.556  14.736   1.743
54848W        W23211  29.938   4.352   3.223
54849W        W23212  15.089  35.509  12.862
54850W        W23213  42.444  41.432   4.331
54851W        W23214  11.736  21.119  14.286
54852W        W23215   1.817  33.037   3.227
54853W        W23216  24.005  28.087   1.877
54854W        W23217  32.031   2.873  13.026
54855W        W23218  21.124  43.414  13.959
54856W        W23219   7.881  12.803   3.675
54857W        W23220  16.766  26.491  10.479
54858W        W23221  32.563  43.408   2.829
54859W        W23222  18.567  25.072   1.738
54860W        W23223  42.292  10.272   4.713
54861W        W23224  37.841   6.262  13.368
54862W        W23225   3.837  27.194   2.225
54863W        W23226  36.375  42.460   2.735
54864W        W23227  29.619  37.546   3.297
54865W        W23228  26.066  29.478  11.013
54866W        W23229  20.137  21.212  10.425
54867W        W23230  38.383  40.848   1.412
54868W        W23231  34.028  41.934   1.218
54869W        W23232  28.649  24.721   0.855
54870W        W23233  13.251   9.225   2.257
54871W        W23234  22.535  36.477   4.318
54872W        W23235  22.710   5.817   4.257
54873W        W23236  35.578  39.459  14.967
54874W        W23237   2.378  37.860  13.355
54875W        W23238  24.710  30.424  14.864
54876W        W23239  14.680   5.907   0.747
54877W        W23240   5.208  24.719  14.873
54878W        W23241   7.851   1.764  12.429
54879W        W23242  21.164  27.113   3.791
54880W        W23243  19.141  20.769  11.951
54881W        W23244  17.701   4.324   4.319
54882W        W23245   2.245  33.970  10.487
54883W        W23246  28.620  33.028   3.765
54884W        W23247  28.644  17.712   2.315
54885W        W23248  19.691  17.302  13.307
54886W        W23249  28.957  35.527   0.928
54887W        W23250  20.734  27.682   3.639
54888W        W23251  37.438  30.066  10.580
54889W        W23252  42.511  42.508  14.790
54890W        W23253  13.735  11.643   3.663
54891W        W23254  35.424   1.341   0.827
54892W        W23255  16.312  27.985   2.352
54893W        W23256  17.632  28.059  13.323
54894W        W23257  12.811  34.386  13.998
54895W        W23258  16.082  41.521   2.295
54896W        W23259   1.374  38.924   1.393
54897W        W23260   9.667   4.425   3.835
54898W        W23261  21.512  11.780  12.880
54899W        W23262  20.169  27.024   4.218
54900W        W23263   4.718  25.541   1.442
54901W        W23264  41.832  24.588   4.601
54902W        W23265  19.614   8.687  14.394
54903W        W23266  38.838   7.275   5.226
54904W        W23267  38.330  10.259   5.208
54905W        W23268  37.873  29.033  11.372
54906W        W23269  25.658  19.168   4.811
54907W        W23270  37.869   1.901  11.128
54908W        W23271  38.479  31.145  13.960
54909W        W23272  43.876   9.797  10.475
54910W        W23273  26.696  17.753   3.293
54911W        W23274  19.760  25.594  13.929
54912W        W23275   0.386  10.788   1.318
54913W        W23276  31.597  15.198  12.437
54914W        W23277  43.499  44.863  11.962
54915W        W23278   5.827  42.510  13.458
54916W        W23279   9.653  19.654  14.869
54917W        W23280   1.796   0.772  10.991
54918W        W23281  18.564  37.468   2.739
54919W        W23282  23.022  36.438   3.355
54920W        W23283  29.979  23.723  14.840
54921W        W23284   6.288   8.238   2.366
54922W        W23285  23.061   3.771   3.235
54923W        W23286  35.567  41.372   2.249
54924W        W23287  43.484  11.284   1.236
54925W        W23288  43.474   8.379   0.249
54926W        W23289  31.004  38.829   4.686
54927W        W23290  44.857   7.245   3.772
54928W        W23291  16.232  23.527   2.205
54929W        W23292  34.379  33.912  10.457
54930W        W23293  37.016  32.063  11.864
54931W        W23294  34.507  10.798  14.951
54932W        W23295  21.168   8.257  14.499
54933W        W23296  38.519   2.943   3.653
54934W        W23297  14.166  19.730  12.077
54935W        W23298  34.045  25.978   0.935
54936W        W23299  43.512  17.626   1.886
54937W        W23300  24.152  12.807  10.143
54938W        W23301  33.927   1.284  13.021
54939W        W23302   3.376   9.793  13.404
54940W        W23303   0.390  32.590  13.814
54941W        W23304  16.299  22.014  10.552
54942W        W23305  42.356  11.833   3.708
54943W        W23306  21.261  22.029  10.065
54944W        W23307  23.026  40.366  10.415
54945W        W23308  17.079  12.224   2.365
54946W        W23309  19.710  41.463   2.753
54947W        W23310  37.462   1.859  11.425
54948W        W23311  25.600  23.500   3.195
54949W        W23312  39.433   2.798   1.254
54950W        W23313  28.486  42.003  11.559
54951W        W23314  41.909   9.794   0.258
54952W        W23315   3.328  32.135   0.959
54953W        W23316  40.812   4.253   4.122
54954W        W23317  19.122  25.120  10.579
54955W        W23318  14.259   0.453  11.956
54956W        W23319  41.340   1.974   1.748
54957W        W23320  20.572  43.003   4.196
54958W        W23321   5.770   1.289   4.235
54959W        W23322  39.542   1.308  14.407
54960W        W23323   6.708  24.523  13.381
54961W        W23324  21.684  29.038   3.811
54962W        W23325  34.070  25.985   3.847
54963W        W23326   3.832  24.027   0.367
54964W        W23327  35.923  11.784   1.740
54965W        W23328  42.300  11.192   0.300
54966W        W23329  41.308  17.087   0.808
54967W        W23330  30.470  14.113   1.719
54968W        W23331   7.676   0.743   2.685
54969W        W23332  16.160  40.995   3.781
54970W        W23333  32.079  34.887  11.927
54971W        W23334  20.642   1.872   4.791
54972W        W23335  32.993   3.280   0.383
54973W        W23336  31.625  10.351  13.025
54974W        W23337  30.915  20.272  10.967
54975W        W23338  42.298  26.113   3.197
54976W        W23339  24.670   5.246   3.683
54977W        W23340  30.086  31.988  11.504
54978W        W23341  31.425  10.768   4.705
54979W        W23342  39.814  19.081   4.765
54980W        W23343  25.097  34.603   2.348
54981W        W23344   7.698   1.870  10.600
54982W        W23345  22.130  25.991  14.386
54983W        W23346  31.067  19.176   4.727
54984W        W23347  15.234  16.105  12.946
54985W        W23348  18.667  34.527   0.315
54986W        W23349  30.960   0.354   3.656
54987W        W23350  34.955  32.629  10.593
54988W        W23351  35.422  39.850   3.357
54989W        W23352  41.870  15.142  11.380
54990W        W23353  42.350   9.670  12.435
54991W        W23354  27.546   4.410  14.897
54992W        W23355  21.048  25.058  13.401
54993W        W23356  28.457   7.884  10.519
54994W        W23357  29.966  28.030  14.905
54995W        W23358   3.878  30.985  13.896
54996W        W23359  28.089   7.825  14.460
54997W        W23360   8.258  24.065   3.726
54998W        W23361  27.676  43.424  14.957
54999W        W23362  25.677  44.495   3.664
55000W        W23363  14.223  25.179  12.881
55001W        W23364  19.693  10.355  11.971
55002W        W23365   2.329  22.213   9.994
55003W        W23366   4.371  13.154   4.129
55004W        W23367  30.595  14.117  11.982
55005W        W23368  34.569  22.127  12.086
55006W        W23369  41.979  35.951   3.268
55007W        W23370  22.611  43.395  13.923
55008W        W23371  39.869   1.273   1.855
55009W        W23372   3.266  40.465   1.290
55010W        W23373  42.790  30.014  11.864
55011W        W23374  23.112  37.967  13.362
55012W        W23375  35.872  35.435  11.969
55013W        W23376  31.616   4.277   4.696
55014W        W23377   3.434  24.126   0.880
55015W        W23378   3.910   2.342  12.885
55016W        W23379  16.115  12.706  11.946
55017W        W23380  27.140  19.258   4.265
55018W        W23381  25.632  21.590  11.516
55019W        W23382  42.005  18.730   2.401
55020W        W23383  28.036  42.988  13.422
55021W        W23384  14.595   9.810  10.419
55022W        W23385  15.604   4.907  13.434
55023W        W23386   9.847  26.654  13.026
55024W        W23387  15.652  15.786  13.525
55025W        W23388   8.191  31.511  11.126
55026W        W23389   4.796  12.743   1.793
55027W        W23390  28.518  27.976  12.340
55028W        W23391  14.765  10.281  10.117
55029W        W23392  19.098  23.119   1.931
55030W        W23393  40.445  19.575   2.895
55031W        W23394  42.998  44.327   5.243
55032W        W23395  22.718  12.738   1.257
55033W        W23396  11.354  16.243  12.452
55034W        W23397  31.520  11.229  10.971
55035W        W23398  21.568   5.371  10.980
55036W        W23399   7.287  43.880  14.371
55037W        W23400  36.463  37.018  13.958
55038W        W23401  23.044   6.823   1.917
55039W        W23402  38.853  21.737   3.268
55040W        W23403  42.897  30.067  12.950
55041W        W23404   8.830  28.628   3.306
55042W        W23405  21.065  29.461   2.897
55043W        W23406  18.240   0.301   1.931
55044W        W23407   0.975   1.977   0.874
55045W        W23408  30.054  37.420  12.410
55046W        W23409  43.366  38.467  13.434
55047W        W23410   8.304  25.107   0.831
55048W        W23411   5.294  31.989   2.255
55049W        W23412  16.171   4.264   9.932
55050W        W23413   8.856  21.517  13.022
55051W        W23414  21.700  31.418   4.161
55052W        W23415  32.435  27.186  10.626
55053W        W23416  40.026   3.951  13.811
55054W        W23417  22.581  12.220  14.801
55055W        W23418  30.509  29.007   4.819
55056W        W23419   7.687  40.546  10.426
55057W        W23420   6.820   4.701   0.318
55058W        W23421  27.996  39.524  13.907
55059W        W23422  18.728   8.360  14.852
55060W        W23423  14.116  22.535   0.429
55061W        W23424  35.432   8.780  11.438
55062W        W23425  29.574  32.972  10.982
55063W        W23426   5.245  35.484  13.959
55064W        W23427   1.289  24.509   9.946
55065W        W23428  19.172  16.120   1.867
55066W        W23429   9.737  18.177  11.931
55067W        W23430  12.209  38.897   1.789
55068W        W23431  22.680  38.483  13.338
55069W        W23432  41.441  37.546   2.819
55070W        W23433   9.805  30.089   0.356
55071W        W23434  28.513  18.635  10.920
55072W        W23435  27.130  21.737   3.765
55073W        W23436   3.793  30.578   0.466
55074W        W23437   2.308  33.612   3.167
55075W        W23438  34.978   3.774   4.331
55076W        W23439   2.258  44.361  12.983
55077W        W23440  16.099   2.265  13.905
55078W        W23441   6.411  44.424  10.916
55079W        W23442  24.215  31.123   2.325
55080W        W23443  40.926  14.145  12.053
55081W        W23444  31.135   3.434   4.323
55082W        W23445  21.689  43.988  14.400
55083W        W23446  42.868  35.472   0.967
55084W        W23447  22.745  36.571  13.373
55085W        W23448   4.380  32.927  14.888
55086W        W23449  18.627  12.222   4.695
55087W        W23450  32.598  19.217   1.283
55088W        W23451   1.448  19.588   1.736
55089W        W23452  24.092  14.636   1.343
55090W        W23453  27.066   4.317  11.010
55091W        W23454  21.109  27.649   4.114
55092W        W23455  26.075  23.061   1.259
55093W        W23456   1.946   6.802  12.856
55094W        W23457  33.944   1.775   0.876
55095W        W23458  26.099   9.747  11.936
55096W        W23459  10.201  43.412   2.312
55097W        W23460   7.729  23.648   2.775
55098W        W23461  27.446  31.584  12.432
55099W        W23462  25.079   4.924   4.773
55100W        W23463  27.978  26.609  11.403
55101W        W23464   9.847  28.075   1.807
55102W        W23465  36.546  28.549  11.432
55103W        W23466  35.000   9.271  13.449
55104W        W23467  30.522  16.218  12.564
55105W        W23468   2.296  30.486   4.140
55106W        W23469  33.545   8.165   2.288
55107W        W23470  29.465  32.556  11.881
55108W        W23471  31.950   4.848  12.050
55109W        W23472  13.773  18.127  10.591
55110W        W23473  12.170  41.880   3.696
55111W        W23474  16.702   6.758   2.202
55112W        W23475  23.614   4.395   3.160
55113W        W23476  29.136   6.860   1.770
55114W        W23477  35.439   1.335   4.196
55115W        W23478  42.894  39.459  10.592
55116W        W23479  44.852  26.171  12.464
55117W        W23480  35.877  37.530  10.507
55118W        W23481  26.569  40.304  14.276
55119W        W23482  23.997  40.031  14.277
55120W        W23483  36.361  39.544  14.300
55121W        W23484   2.276  29.006   4.230
55122W        W23485  44.268  32.940  13.527
55123W        W23486   1.776  26.572  10.564
55124W        W23487  30.027  13.284  12.576
55125W        W23488  21.604   0.767   2.759
55126W        W23489  34.551  34.386   4.317
55127W        W23490  35.873  40.490  12.380
55128W        W23491  13.794  44.392   3.190
55129W        W23492  23.632   1.753  12.546
55130W        W23493  28.999  10.855  13.024
55131W        W23494  43.872  11.356  11.443
55132W        W23495  41.875  40.928  11.121
55133W        W23496  35.946   5.235   4.272
55134W        W23497   8.736  37.462  10.117
55135W        W23498  21.551  10.202  12.511
55136W        W23499  11.765   2.837  13.531
55137W        W23500  14.621  33.954   4.113
55138W        W23501   0.867  17.628   0.962
55139W        W23502   9.860  30.470  12.544
55140W        W23503  12.134  37.945  12.058
55141W        W23504  44.424  43.918  12.418
55142W        W23505  17.106  35.093   4.131
55143W        W23506  29.577  35.071  11.566
55144W        W23507  29.449  26.024   1.886
55145W        W23508  37.356  16.152   1.282
55146W        W23509   9.250   7.384  11.403
55147W        W23510  30.986  21.684  14.335
55148W        W23511  21.554  23.142   0.928
55149W        W23512  18.161   1.458   2.374
55150W        W23513   7.671  12.321  11.538
55151W        W23514  12.254  30.516   2.762
55152W        W23515  12.766  10.291  14.466
55153W        W23516  37.866  10.185  11.966
55154W        W23517  12.736  32.124  14.435
55155W        W23518  19.146  27.087   3.703
55156W        W23519   9.280   4.823  13.329
55157W        W23520  30.641  31.589   4.636
55158W        W23521  21.596  24.725   1.314
55159W        W23522  21.514  40.529   2.764
55160W        W23523   8.858  34.863  11.444
55161W        W23524   6.820   9.874  10.464
55162W        W23525   5.362  19.216  10.420
55163W        W23526  12.703   3.362   0.447
55164W        W23527  10.349  17.088  12.498
55165W        W23528  20.263  10.808  14.962
55166W        W23529   0.925   1.389   3.662
55167W        W23530  33.527  14.208   4.150
55168W        W23531  17.099   3.308   5.111
55169W        W23532  35.060  30.005  11.116
55170W        W23533  33.536  29.497   2.398
55171W        W23534  24.661  18.729   4.319
55172W        W23535  44.353  43.915  14.464
55173W        W23536  18.646  36.393   2.211
55174W        W23537  28.172  25.658  12.430
55175W        W23538  41.040  11.138  10.429
55176W        W23539  18.690  25.107   3.733
55177W        W23540  12.773  33.965   0.416
55178W        W23541  44.874  31.546   3.721
55179W        W23542  16.072   7.780  13.799
55180W        W23543  42.470   4.380  12.349
55181W        W23544   2.865  25.653   5.631
55182W        W23545  30.640   5.327  10.989
55183W        W23546  10.308   1.887   2.248
55184W        W23547  33.930  25.558   1.839
55185W        W23548  21.218  23.143  11.597
55186W        W23549   0.937  17.257  14.770
55187W        W23550   0.874   5.431   1.814
55188W        W23551  37.937  29.975   3.316
55189W        W23552  42.833  24.610   3.343
55190W        W23553  18.244   5.222  14.891
55191W        W23554  27.622  27.510   2.350
55192W        W23555   3.402  39.987  11.063
55193W        W23556  37.875   9.338  12.861
55194W        W23557  38.455   3.225  11.613
55195W        W23558   5.291  16.235   4.333
55196W        W23559   8.893   0.258  12.373
55197W        W23560   8.689   0.746   4.718
55198W        W23561   8.167  35.562   4.172
55199W        W23562  24.576  17.081  13.351
55200W        W23563  20.702   4.885   0.408
55201W        W23564  27.019  29.618   2.828
55202W        W23565   3.253  11.742  13.309
55203W        W23566   6.412  37.063   4.700
55204W        W23567   4.885   6.898  13.827
55205W        W23568   5.863  37.861   4.294
55206W        W23569  17.609   2.358   4.646
55207W        W23570  18.713  38.411  11.012
55208W        W23571  23.155  40.013  13.899
55209W        W23572   5.293  29.612   3.357
55210W        W23573  22.595  37.984  14.436
55211W        W23574  18.120   5.330  11.449
55212W        W23575  16.771  20.221   1.421
55213W        W23576  41.292   2.746   2.750
55214W        W23577   7.272   2.429   0.764
55215W        W23578  30.054  35.941   3.775
55216W        W23579   4.431  41.352  11.086
55217W        W23580   3.903   2.413   3.362
55218W        W23581  19.699  14.799  11.077
55219W        W23582   9.714  14.162   1.714
55220W        W23583  17.594   6.187   3.667
55221W        W23584  23.529  23.203  13.325
55222W        W23585  36.047  24.561   3.686
55223W        W23586  16.785  14.116  13.898
55224W        W23587  40.377  35.371   3.780
55225W        W23588  39.913  41.421   3.273
55226W        W23589  40.428  38.977  11.602
55227W        W23590  19.651  43.295   4.752
55228W        W23591   4.216  33.528   0.279
55229W        W23592  15.651   8.741  13.954
55230W        W23593  11.840  14.157   1.261
55231W        W23594   1.367  17.116  14.849
55232W        W23595   9.792  30.097   2.789
55233W        W23596  25.041  42.357   1.389
55234W        W23597  34.436  28.666  14.867
55235W        W23598  42.397   4.737  12.380
55236W        W23599  38.932  43.348  13.055
55237W        W23600  42.347  15.124  13.454
55238W        W23601  39.918  43.797  13.985
55239W        W23602  28.940  26.581  14.993
55240W        W23603  38.054  34.908   1.893
55241W        W23604  31.113  26.183   4.181
55242W        W23605  19.749  27.008   3.698
55243W        W23606  20.259   9.205   2.666
55244W        W23607  19.212  23.712   1.403
55245W        W23608  22.074   3.808   2.188
55246W        W23609  29.947  15.776   3.822
55247W        W23610  37.546  36.905   1.711
55248W        W23611   5.798   1.338   2.694
55249W        W23612  16.749  20.526  14.960
55250W        W23613  25.529  42.027  11.899
55251W        W23614   8.257  25.637   0.762
55252W        W23615  18.211  36.885  13.033
55253W        W23616   0.799   0.748  13.046
55254W        W23617  43.300  22.224  12.870
55255W        W23618   0.439  10.196   3.321
55256W        W23619  28.626   3.289   3.357
55257W        W23620  20.588   2.739   0.354
55258W        W23621  11.243   4.719   0.849
55259W        W23622  36.571  24.115  14.920
55260W        W23623  19.049  20.710  11.407
55261W        W23624  32.093  18.133  11.500
55262W        W23625   5.424   6.414  12.546
55263W        W23626   7.729   5.858   2.271
55264W        W23627  11.628   7.803   0.947
55265W        W23628  12.634  33.994  11.067
55266W        W23629  11.667  31.404  11.979
55267W        W23630   4.795  21.073   3.269
55268W        W23631  27.488   9.829   3.750
55269W        W23632  15.165   2.872  14.911
55270W        W23633  20.595   8.347  12.505
55271W        W23634   8.889  39.376   2.815
55272W        W23635  22.249   8.206  13.519
55273W        W23636  15.251  24.699   4.163
55274W        W23637   3.396  34.557  12.444
55275W        W23638  10.763  22.045   1.935
55276W        W23639  12.768  33.928  12.838
55277W        W23640  29.089  42.520  11.455
55278W        W23641  24.015  24.173   2.867
55279W        W23642  18.759  15.618   4.257
55280W        W23643  21.519   4.918  12.083
55281W        W23644  40.922   3.778  10.645
55282W        W23645   6.382  15.122   3.783
55283W        W23646   2.311  28.971   0.939
55284W        W23647  28.154  38.385   2.756
55285W        W23648   7.901  20.571  12.010
55286W        W23649   5.311  24.107   4.218
55287W        W23650  22.197   8.780   1.392
55288W        W23651   1.856   6.324   3.320
55289W        W23652  11.172  24.621   0.424
55290W        W23653  18.145  17.578   0.385
55291W        W23654  24.030  26.522  12.476
55292W        W23655  36.440   5.715  10.594
55293W        W23656  18.224  27.970  13.831
55294W        W23657  39.444  32.009  13.064
55295W        W23658   6.838  10.861   0.864
55296W        W23659  23.195  20.695   2.874
55297W        W23660  11.218  25.967  10.441
55298W        W23661  37.942   0.922   2.398
55299W        W23662  43.809  30.631   0.385
55300W        W23663   9.654  33.428   3.744
55301W        W23664  30.516  29.111   3.218
55302W        W23665   7.224   6.823   4.218
55303W        W23666  21.745  24.627  12.414
55304W        W23667  10.850  29.540  13.920
55305W        W23668  32.103  13.609  13.401
55306W        W23669  17.278  36.858   3.307
55307W        W23670  36.484  23.149  10.518
55308W        W23671  14.109  41.305  11.480
55309W        W23672   1.375  35.494  11.503
55310W        W23673  16.160  15.678  11.537
55311W        W23674  23.585   1.453   0.936
55312W        W23675  32.886   1.466   5.251
55313W        W23676  30.484  37.986   1.321
55314W        W23677  20.172  17.608  11.421
55315W        W23678  13.284  43.899  13.522
55316W        W23679   5.868  29.010  11.590
55317W        W23680  34.955  43.785  10.412
55318W        W23681  30.148  20.531   0.860
55319W        W23682   2.310  33.915   0.327
55320W        W23683  27.660  10.759   2.332
55321W        W23684  28.473  10.875   1.747
55322W        W23685  44.904  37.033   4.175
55323W        W23686  29.581  23.585  11.064
55324W        W23687   4.215   6.745  12.428
55325W        W23688  27.944   2.805  12.354
55326W        W23689  42.394  16.591   4.315
55327W        W23690  33.579   1.738  13.503
55328W        W23691  27.063  40.970   1.865
55329W        W23692   7.343  17.738  12.993
55330W        W23693  34.074  40.977   4.626
55331W        W23694  38.442  32.128  11.540
55332W        W23695   2.460  11.251  10.633
55333W        W23696  18.625  14.278  14.859
55334W        W23697  22.515  26.159  11.075
55335W        W23698  30.031  34.079   0.866
55336W        W23699  14.261   4.722  10.591
55337W        W23700  18.722   9.225   1.731
55338W        W23701   5.255   5.922  11.597
55339W        W23702  41.322   5.737   3.321
55340W        W23703  41.472  23.028   2.399
55341W        W23704  25.683   9.363  11.562
55342W        W23705  42.374  13.110  13.445
55343W        W23706  17.800  20.137  13.011
55344W        W23707  37.999   6.242  11.855
55345W        W23708  26.199   9.802   2.737
55346W        W23709  26.463   5.728  14.509
55347W        W23710  43.333  26.570  11.465
55348W        W23711  41.316  37.062   4.318
55349W        W23712   6.232  37.973   3.273
55350W        W23713  15.759  28.941   4.270
55351W        W23714  10.182  34.604  10.924
55352W        W23715  38.930  42.364   2.257
55353W        W23716  15.594   9.783   3.829
55354W        W23717  29.959   5.332   1.872
55355W        W23718  21.044  39.405   2.201
55356W        W23719  28.461  14.763   0.350
55357W        W23720   6.201   3.783   2.293
55358W        W23721  19.547  42.781   4.712
55359W        W23722  10.272  43.783  11.375
55360W        W23723  43.372  36.450   2.343
55361W        W23724  34.581  10.185  11.565
55362W        W23725  10.755  37.456   4.127
55363W        W23726   0.865  28.005   1.712
55364W        W23727  32.516  27.062   0.260
55365W        W23728   1.750  24.166  11.599
55366W        W23729  32.042  40.504   3.772
55367W        W23730  13.620  34.567  11.511
55368W        W23731  27.979  12.767   2.409
55369W        W23732  23.189  16.244   2.716
55370W        W23733  23.192  23.662   0.428
55371W        W23734  27.447  34.988  10.546
55372W        W23735  26.626  17.141   2.884
55373W        W23736  41.535  42.289   3.732
55374W        W23737   8.810  10.180   4.610
55375W        W23738  17.142  10.818   1.844
55376W        W23739  24.658  44.759  14.015
55377W        W23740   4.269  43.772  11.441
55378W        W23741  15.151   4.335   5.310
55379W        W23742   8.740  24.024  14.470
55380W        W23743  36.006  10.664  12.002
55381W        W23744  16.577  38.513   0.920
55382W        W23745   5.704  37.923   1.439
55383W        W23746  34.865  39.936  11.535
55384W        W23747  23.200   4.832   0.940
55385W        W23748  26.499  10.690  11.982
55386W        W23749  17.087   0.927  10.987
55387W        W23750  14.802  31.074   0.890
55388W        W23751  43.430  36.937  10.598
55389W        W23752   1.434  14.636  14.310
55390W        W23753  19.086  31.559  13.396
55391W        W23754  20.232  10.139   1.437
55392W        W23755  23.530  34.591   2.362
55393W        W23756  43.272   2.232   0.378
55394W        W23757   5.368  14.786   4.330
55395W        W23758   5.329   8.847  11.407
55396W        W23759  36.035  23.180   4.797
55397W        W23760  39.465  21.639   4.682
55398W        W23761   4.827  36.567  11.956
55399W        W23762  38.473  23.098   4.824
55400W        W23763  41.982  36.530   0.943
55401W        W23764   6.802  41.863  12.871
55402W        W23765  44.961  12.329   4.332
55403W        W23766   7.212  12.137   1.890
55404W        W23767  21.641  32.137  14.795
55405W        W23768  22.101   9.855   2.690
55406W        W23769  38.340  24.478   1.333
55407W        W23770  22.570   8.285  11.575
55408W        W23771  10.728  26.658   2.762
55409W        W23772  42.812  34.004   3.241
55410W        W23773  31.631  43.942  10.993
55411W        W23774   2.340   5.867  11.504
55412W        W23775  16.228  14.228  13.899
55413W        W23776  13.151  41.987   1.391
55414W        W23777  19.197  18.593   0.394
55415W        W23778  30.932  10.195   2.287
55416W        W23779  33.022   4.349  13.518
55417W        W23780  33.107  18.295   2.886
55418W        W23781  38.951   3.940  10.989
55419W        W23782   0.934  10.304   0.745
55420W        W23783   5.742   1.741  11.604
55421W        W23784  41.961  19.580   2.269
55422W        W23785  26.189  32.609  14.824
55423W        W23786   9.165  32.588  13.429
55424W        W23787  16.232  44.482  11.115
55425W        W23788  25.203  32.568   2.783
55426W        W23789  20.084  17.080   3.238
55427W        W23790  35.594   1.337   4.676
55428W        W23791  13.697  14.740   4.193
55429W        W23792  17.667  41.529  14.029
55430W        W23793   5.219  35.864   0.400
55431W        W23794  37.451  24.724  10.611
55432W        W23795  28.461   2.467  14.295
55433W        W23796   1.274  20.170   1.776
55434W        W23797  44.454   7.889  13.408
55435W        W23798  20.076  16.297   1.730
55436W        W23799  19.694   8.805   4.350
55437W        W23800   8.877  20.553  14.369
55438W        W23801  23.186  28.027   2.284
55439W        W23802   1.759  33.876   3.827
55440W        W23803  18.614  40.360   9.945
55441W        W23804   1.371  15.626   4.238
55442W        W23805   0.379   0.880  12.992
55443W        W23806  21.222  34.371   1.711
55444W        W23807  17.182  37.358  12.470
55445W        W23808  21.207  35.099   4.117
55446W        W23809  20.098  21.060   4.657
55447W        W23810  35.873   2.813  13.545
55448W        W23811  31.607   4.828  14.820
55449W        W23812   2.368   0.465  10.035
55450W        W23813  19.764   1.931   2.744
55451W        W23814  21.735  23.178   3.797
55452W        W23815  11.199  10.669   4.243
55453W        W23816  33.538  34.455   0.318
55454W        W23817  29.457   0.416   1.363
55455W        W23818  38.046  33.610   3.669
55456W        W23819  34.402  32.561   3.146
55457W        W23820  14.267  34.101   2.679
55458W        W23821   8.814  40.806   2.390
55459W        W23822  23.199  41.808  12.425
55460W        W23823  37.530   9.647  14.935
55461W        W23824  28.667   1.813   0.789
55462W        W23825  29.169  15.300  14.324
55463W        W23826  42.020  13.644   3.787
55464W        W23827   0.416   1.246   0.280
55465W        W23828  21.038  35.986  12.403
55466W        W23829  41.530  42.422   2.746
55467W        W23830  12.355   1.385  12.934
55468W        W23831   4.374   8.171  12.067
55469W        W23832  36.015  12.724   4.739
55470W        W23833  21.700  13.813   4.828
55471W        W23834  12.830   3.394   2.758
55472W        W23835   5.737   2.248  13.350
55473W        W23836  27.663  37.945  14.881
55474W        W23837  39.390  43.933  14.478
55475W        W23838  13.771  43.774   2.362
55476W        W23839  15.595  19.166  13.957
55477W        W23840   8.824  18.593  14.373
55478W        W23841  33.467  31.942   3.276
55479W        W23842  31.579  14.308  10.944
55480W        W23843  32.446  26.031  12.989
55481W        W23844  26.139  21.110   2.302
55482W        W23845  11.291  31.923  14.354
55483W        W23846   4.861  42.411   3.668
55484W        W23847  28.080  32.548  13.530
55485W        W23848  24.517  16.649  11.961
55486W        W23849  44.870  14.778  10.533
55487W        W23850  41.002  10.380  10.947
55488W        W23851  20.095  18.148   3.667
55489W        W23852  33.011  28.667   4.649
55490W        W23853  18.684  11.661   0.751
55491W        W23854   7.211  11.788  14.876
55492W        W23855  19.651   8.350  12.937
55493W        W23856  10.252  39.426  11.018
55494W        W23857   0.477   0.291  10.488
55495W        W23858   6.717   2.942   3.346
55496W        W23859  26.993  37.842  11.046
55497W        W23860  43.873  16.682   1.860
55498W        W23861  30.035   2.341   0.878
55499W        W23862  35.957  41.867  12.567
55500W        W23863   0.772   9.655  10.967
55501W        W23864  31.480  22.509  11.467
55502W        W23865  15.638  10.772  12.410
55503W        W23866  14.781  27.659   0.411
55504W        W23867  27.506  42.484  14.968
55505W        W23868  15.321  15.627  14.353
55506W        W23869  11.213  15.816   0.828
55507W        W23870  44.404  39.041   1.733
55508W        W23871  29.059  32.098  11.082
55509W        W23872  16.257  28.671   3.657
55510W        W23873  25.159   1.871  11.484
55511W        W23874  31.498  17.175   3.630
55512W        W23875   3.726  35.534  13.489
55513W        W23876   4.877   3.241  13.046
55514W        W23877  10.862  41.039   3.196
55515W        W23878   3.426  31.582   4.197
55516W        W23879  26.053  25.044  14.317
55517W        W23880  39.456   3.838  14.021
55518W        W23881   3.797   2.854   0.862
55519W        W23882  33.584   1.248   3.860
55520W        W23883  43.915  27.573  12.062
55521W        W23884  27.646   0.829   2.669
55522W        W23885  34.115  40.307  10.520
55523W        W23886  44.815  24.120  10.970
55524W        W23887  39.958   1.336   4.149
55525W        W23888  29.606   1.430   2.310
55526W        W23889   6.910   4.447  12.911
55527W        W23890  34.394   1.961  10.418
55528W        W23891  27.107  36.434  14.325
55529W        W23892  42.841  28.000   1.848
55530W        W23893  17.775  32.090   2.780
55531W        W23894   7.776  11.180  14.459
55532W        W23895  42.454  41.517   3.302
55533W        W23896  40.490   5.753   9.984
55534W        W23897  35.476   9.890   4.346
55535W        W23898  35.928  18.722   2.299
55536W        W23899  17.140   8.842   5.259
55537W        W23900  18.754  11.364  14.321
55538W        W23901  17.793  37.563  12.343
55539W        W23902  14.752   9.659  14.478
55540W        W23903  41.515  35.011   3.306
55541W        W23904  14.134  11.274   1.368
55542W        W23905  21.751  13.621  12.557
55543W        W23906   4.366   4.335  14.767
55544W        W23907  36.933  24.144  13.936
55545W        W23908  10.152  25.475  11.870
55546W        W23909  10.297  38.550  12.374
55547W        W23910  24.085   7.409   2.370
55548W        W23911  23.690  33.098  10.897
55549W        W23912  38.883  34.416  14.869
55550W        W23913   6.229  15.651  12.412
55551W        W23914  30.089   5.238  12.881
55552W        W23915  42.430   2.903   1.441
55553W        W23916  36.431  18.235   4.135
55554W        W23917   0.914  16.135  13.051
55555W        W23918   5.771  30.543  11.938
55556W        W23919  12.686  42.967   4.619
55557W        W23920   2.810  34.601  12.886
55558W        W23921   4.798   0.958  14.419
55559W        W23922  31.151  17.786  14.010
55560W        W23923   8.844  22.629  13.814
55561W        W23924  43.977  17.092   3.310
55562W        W23925  44.262  36.588  12.963
55563W        W23926  20.097  12.668   2.258
55564W        W23927   0.904  44.303   5.094
55565W        W23928   4.940   3.903  10.578
55566W        W23929  37.343  15.592   5.221
55567W        W23930  13.233  27.161  11.466
55568W        W23931  42.013  41.982  11.967
55569W        W23932  11.191  38.911   3.742
55570W        W23933   3.375  35.601  11.609
55571W        W23934  17.667   5.776  12.964
55572W        W23935  22.730   0.266   3.307
55573W        W23936  41.964  22.198  11.522
55574W        W23937  22.566  30.486  14.387
55575W        W23938  18.789  22.123   3.250
55576W        W23939  24.547   6.229   2.826
55577W        W23940  13.185  15.711  14.380
55578W        W23941  20.087   6.893  12.025
55579W        W23942  19.268   6.769   2.737
55580W        W23943  26.598  41.304   9.939
55581W        W23944  30.051   7.832   2.235
55582W        W23945  42.845  23.059  11.005
55583W        W23946   9.823  25.628  10.607
55584W        W23947  25.579  11.810  11.083
55585W        W23948  31.450   2.845   0.301
55586W        W23949  21.061  12.793   4.763
55587W        W23950  10.690  37.552  11.601
55588W        W23951  39.973  23.604   3.860
55589W        W23952  30.600   2.957   4.278
55590W        W23953  18.661  37.511  10.031
55591W        W23954  35.007   7.184   3.236
55592W        W23955   2.860   7.292  12.024
55593W        W23956  24.073  18.644   1.738
55594W        W23957  12.189   4.295   5.187
55595W        W23958  27.150  16.589  11.129
55596W        W23959  20.644  13.267   3.797
55597W        W23960  35.601   9.691   4.765
55598W        W23961  17.752  34.477  11.880
55599W        W23962  26.014   8.836  13.542
55600W        W23963  32.403  26.589  10.485
55601W        W23964  18.283  28.953  12.888
55602W        W23965   3.242  15.757   2.894
55603W        W23966  19.184  29.499   2.285
55604W        W23967  32.963   5.796  13.983
55605W        W23968  31.041  39.389   3.198
55606W        W23969  13.641  36.929  14.937
55607W        W23970  25.059  11.258   4.699
55608W        W23971  37.870  36.865  14.982
55609W        W23972  21.137  38.562   4.757
55610W        W23973   7.725  26.162   2.234
55611W        W23974  27.544  16.614   4.329
55612W        W23975  33.023  13.117  14.436
55613W        W23976   8.790  35.071   3.718
55614W        W23977   8.260   5.724   3.731
55615W        W23978  31.511   9.779  12.495
55616W        W23979  12.303   2.400   2.229
55617W        W23980   2.274  12.625   5.301
55618W        W23981  36.504  23.128  14.375
55619W        W23982  36.555  35.441  12.538
55620W        W23983  43.975  11.632  12.052
55621W        W23984  24.651  23.625   0.943
55622W        W23985  29.169  15.177   0.471
55623W        W23986  40.955  16.658   1.326
55624W        W23987   1.789  23.628  14.842
55625W        W23988  31.642  42.809   4.780
55626W        W23989  18.194  31.935  11.372
55627W        W23990  27.458  30.012  11.116
55628W        W23991  41.398   9.697  14.857
55629W        W23992  27.574  31.133  12.573
55630W        W23993   3.850  25.075  12.402
55631W        W23994   1.360  42.013  13.036
55632W        W23995  26.578  14.137   4.245
55633W        W23996  11.332   2.407   1.256
55634W        W23997  33.505   3.830  14.933
55635W        W23998  21.185  23.544   2.221
55636W        W23999   3.938   7.837  14.859
55637W        W24000  14.715  26.457  14.764
55638W        W24001  44.901  16.759  13.039
55639W        W24002  23.987  37.363   2.757
55640W        W24003  15.645   1.972   0.865
55641W        W24004  33.920  40.451  11.439
55642W        W24005  41.973  15.682   0.377
55643W        W24006  22.521  35.946   2.346
55644W        W24007  42.788  24.199   3.301
55645W        W24008  24.199   8.161   4.665
55646W        W24009  44.295  37.011  14.896
55647W        W24010  16.298  27.594   1.715
55648W        W24011  14.791  12.849  13.896
55649W        W24012  14.631  25.050   1.385
55650W        W24013   6.262  40.973   1.922
55651W        W24014  42.858  13.794  13.495
55652W        W24015   3.894  29.073   0.855
55653W        W24016   0.404  44.890  13.521
55654W        W24017  29.153  14.204  13.471
55655W        W24018  14.245  39.967  10.117
55656W        W24019   0.490  37.429   1.261
55657W        W24020  14.248   8.766  12.076
55658W        W24021  27.161   9.369  11.112
55659W        W24022  12.159   7.859  12.001
55660W        W24023  17.099  38.563  13.834
55661W        W24024  35.504  42.790   5.168
55662W        W24025  13.271  35.864  11.088
55663W        W24026  27.518  15.146   2.802
55664W        W24027  26.001  22.538  12.096
55665W        W24028  11.785  30.549  14.919
55666W        W24029  32.948  21.219   1.363
55667W        W24030  30.091   4.386   4.243
55668W        W24031  31.614  37.538  12.415
55669W        W24032  32.421   4.346   0.914
55670W        W24033  32.937  15.665  12.462
55671W        W24034  40.953  12.129   1.333
55672W        W24035  22.229  19.713   4.248
55673W        W24036  10.670  19.238  13.513
55674W        W24037  27.196   4.215   0.923
55675W        W24038   7.211   7.255   3.638
55676W        W24039  44.386  33.509   1.427
55677W        W24040  25.568   9.835   3.309
55678W        W24041  34.009  41.878  10.932
55679W        W24042   4.238  42.873  14.017
55680W        W24043  44.417  38.843  14.890
55681W        W24044  19.668   5.746   9.966
55682W        W24045  39.955  27.615  10.976
55683W        W24046  41.514  14.239  13.049
55684W        W24047   2.802  41.407   3.236
55685W        W24048  42.287  39.352  14.983
55686W        W24049  31.981  23.602   0.262
55687W        W24050   3.719  12.741  13.854
55688W        W24051  43.911  22.622  11.473
55689W        W24052  38.973  24.224   2.723
55690W        W24053  44.387  13.169   2.411
55691W        W24054  34.029  13.282  14.349
55692W        W24055  37.860  18.655   0.466
55693W        W24056  17.224   6.741   4.600
55694W        W24057  27.559  16.147  10.422
55695W        W24058  38.416  44.367  13.450
55696W        W24059  18.078   8.900  10.993
55697W        W24060  23.691  15.814   4.775
55698W        W24061  13.846  29.061   4.601
55699W        W24062  37.041  16.730  13.486
55700W        W24063  37.960  22.730  11.888
55701W        W24064  27.490  32.522   4.336
55702W        W24065   0.777  19.233   4.261
55703W        W24066  42.881   2.874  14.012
55704W        W24067  13.699   7.409   0.337
55705W        W24068  23.529   2.773  13.533
55706W        W24069  35.404  17.606   2.860
55707W        W24070   8.893   7.807  13.367
55708W        W24071  30.522  30.152   3.199
55709W        W24072  12.277  23.031  12.394
55710W        W24073   7.871  34.376  12.415
55711W        W24074  16.743  44.938  10.046
55712W        W24075  33.533   9.764   3.287
55713W        W24076  21.750  41.040   0.933
55714W        W24077  17.672  44.990  14.815
55715W        W24078   2.292  18.057   3.682
55716W        W24079  28.606  11.193  12.539
55717W        W24080  16.096  15.105   3.246
55718W        W24081  38.825  43.923   4.118
55719W        W24082  29.138  39.828  14.796
55720W        W24083  43.481  23.495   2.352
55721W        W24084   3.827  15.707   2.808
55722W        W24085  40.843  17.597   1.857
55723W        W24086  15.088  31.479   3.288
55724W        W24087   5.871  25.160   2.260
55725W        W24088   2.749  33.379   2.717
55726W        W24089  31.634  11.368   2.276
55727W        W24090  41.412  34.605   1.314
55728W        W24091  25.562  43.824   2.773
55729W        W24092   4.332  35.089  12.527
55730W        W24093   2.281   1.750   0.434
55731W        W24094  40.362   7.874   0.826
55732W        W24095  12.613  28.184   1.891
55733W        W24096  35.504  10.850  10.456
55734W        W24097  27.056   9.390  10.418
55735W        W24098   4.211   2.242   4.794
55736W        W24099  40.933  25.090   4.803
55737W        W24100   6.313  27.594   1.451
55738W        W24101  25.962  33.949  10.523
55739W        W24102  36.983   8.186  11.070
55740W        W24103   2.728   8.389  13.940
55741W        W24104  36.448  36.566   1.248
55742W        W24105  28.630  43.367  11.898
55743W        W24106  16.291   9.362  12.925
55744W        W24107  37.913  44.973  13.968
55745W        W24108  25.219  19.622   1.418
55746W        W24109  27.574  29.966  13.924
55747W        W24110  40.506  43.303   3.387
55748W        W24111  11.344  41.850   2.274
55749W        W24112  26.686  40.327  10.463
55750W        W24113  44.997   4.380  11.883
55751W        W24114   8.179  38.411   3.147
55752W        W24115  44.407  18.692  13.039
55753W        W24116  19.263  36.894  11.985
55754W        W24117   1.913  41.858   2.683
55755W        W24118  35.429  17.588  12.530
55756W        W24119  13.184  14.162   2.295
55757W        W24120  41.945   4.745   2.859
55758W        W24121  28.580  16.078   2.350
55759W        W24122  43.330  16.787   3.742
55760W        W24123  30.919   4.910   1.735
55761W        W24124   0.923  29.508   2.779
55762W        W24125   7.797  38.071  11.393
55763W        W24126  40.946  28.513   0.845
55764W        W24127  27.009  19.659  12.383
55765W        W24128  43.836  12.771  11.018
55766W        W24129  32.561  13.631   1.926
55767W        W24130  30.032  20.092  10.598
55768W        W24131  36.362  33.878  10.618
55769W        W24132  17.141   9.764  13.808
55770W        W24133  13.811  43.789  14.449
55771W        W24134  44.341  24.117   1.286
55772W        W24135  18.600  17.696  10.458
55773W        W24136   3.294  38.513  12.926
55774W        W24137  42.360  33.507   1.396
55775W        W24138  39.415  13.746  13.016
55776W        W24139  29.927  20.267  13.518
55777W        W24140  19.766   9.190  11.491
55778W        W24141  18.100  39.974  12.359
55779W        W24142  14.203  23.232  12.930
55780W        W24143   3.754  36.082   4.224
55781W        W24144   1.894  26.649  13.412
55782W        W24145  38.398  11.191   4.315
55783W        W24146   1.328  44.932   2.667
55784W        W24147  22.515  41.973  13.469
55785W        W24148   7.263  37.467   1.359
55786W        W24149  24.691  17.205   3.350
55787W        W24150   7.224  13.604   0.380
55788W        W24151  31.050  32.575  12.981
55789W        W24152   5.756  36.005  14.998
55790W        W24153  41.945  26.680  10.625
55791W        W24154  18.230  21.174   2.805
55792W        W24155  31.645  38.386   1.786
55793W        W24156  22.211  16.261   0.859
55794W        W24157  17.561  27.069   4.757
55795W        W24158  41.309   8.331  10.517
55796W        W24159  36.567  13.691   1.926
55797W        W24160  29.122   5.693   2.262
55798W        W24161   9.803   5.853  12.948
55799W        W24162  18.784  19.095  11.408
55800W        W24163  33.991  23.136  11.019
55801W        W24164  16.761  15.326   0.447
55802W        W24165  18.662  32.068   3.304
55803W        W24166  31.414   9.223   1.287
55804W        W24167  30.430  32.115   2.784
55805W        W24168  23.093  36.933  14.907
55806W        W24169  35.044  38.553   1.839
55807W        W24170   4.417  26.136  11.443
55808W        W24171  16.588   0.450   3.351
55809W        W24172  26.597  34.990  11.513
55810W        W24173  31.474  27.689   1.844
55811W        W24174  27.161  35.920  13.891
55812W        W24175  29.147   5.740   4.743
55813W        W24176  27.602  44.262  12.556
55814W        W24177  16.671  34.573   3.864
55815W        W24178  19.672  26.120   1.332
55816W        W24179  41.007   6.681  12.967
55817W        W24180  36.350   4.795  12.073
55818W        W24181   5.765   3.246   1.348
55819W        W24182  39.384  19.069   3.226
55820W        W24183   6.302  28.530   1.843
55821W        W24184  17.764  12.219   0.843
55822W        W24185  26.125   4.806  13.334
55823W        W24186   0.927  19.086   1.880
55824W        W24187   7.391  38.388   1.812
55825W        W24188   0.966   9.758  14.921
55826W        W24189  15.788  26.965  14.307
55827W        W24190  44.390  35.525  12.918
55828W        W24191  37.349  18.187  11.571
55829W        W24192  21.122  24.642   4.281
55830W        W24193  31.012   1.325  13.385
55831W        W24194  27.988  28.989   4.221
55832W        W24195   0.257  17.570  13.904
55833W        W24196  27.590  34.380   1.294
55834W        W24197  31.987   2.292  11.925
55835W        W24198  34.942  30.625   2.667
55836W        W24199  18.711  44.904   3.741
55837W        W24200  16.749  35.566   3.746
55838W        W24201  20.031  28.492  14.968
55839W        W24202  29.531   8.244  12.921
55840W        W24203  15.161  26.959  14.760
55841W        W24204   5.842  38.494  11.083
55842W        W24205  14.232   4.879  10.124
55843W        W24206  43.988  29.948  14.780
55844W        W24207  44.993  42.291   2.698
55845W        W24208  15.675   5.421  10.485
55846W        W24209  14.099  42.283  11.042
55847W        W24210   2.794   7.351  14.025
55848W        W24211  27.031  23.493   3.247
55849W        W24212  21.571  42.288  13.309
55850W        W24213  34.993  16.282   3.293
55851W        W24214   2.808  44.825  14.492
55852W        W24215   9.264  36.354   4.334
55853W        W24216  34.428   2.775  13.404
55854W        W24217  21.189  28.677   0.342
55855W        W24218  32.092  40.018   1.286
55856W        W24219   7.825  34.082   2.816
55857W        W24220  35.050  28.152   9.938
55858W        W24221   6.240  31.479  13.394
55859W        W24222  14.818  27.013  11.430
55860W        W24223  24.131  16.292   3.268
55861W        W24224   3.912   1.259   0.843
55862W        W24225  35.464  35.406   2.897
55863W        W24226  10.310  39.326   4.704
55864W        W24227  39.403  22.746  11.914
55865W        W24228  28.979  11.239  12.937
55866W        W24229  31.922  18.099  14.008
55867W        W24230  37.545  36.365  10.623
55868W        W24231  27.121   1.476  14.912
55869W        W24232  43.473  11.134  14.437
55870W        W24233  13.807  35.054  14.983
55871W        W24234   3.731  32.524  13.425
55872W        W24235  10.296  13.640  11.475
55873W        W24236  20.639   8.401   3.819
55874W        W24237  14.320  10.766   0.343
55875W        W24238  32.938  30.619   3.343
55876W        W24239  43.475   2.298   1.282
55877W        W24240  24.512  34.375  10.933
55878W        W24241   0.297  33.460  14.422
55879W        W24242  43.394  33.995   1.280
55880W        W24243  28.032  36.029  13.833
55881W        W24244  21.533  20.617  12.041
55882W        W24245  18.590  12.651   1.801
55883W        W24246   3.320  29.978  12.410
55884W        W24247  12.220  24.709  11.905
55885W        W24248  27.195  24.561   4.273
55886W        W24249  29.083  33.946   0.796
55887W        W24250  41.336  10.682   3.259
55888W        W24251   1.263  13.832   4.605
55889W        W24252  15.634  27.112  10.972
55890W        W24253  13.144  31.566  12.009
55891W        W24254  35.519  44.304  14.512
55892W        W24255  17.741  33.023   1.355
55893W        W24256  34.379  17.737   1.369
55894W        W24257  26.505  21.167  10.495
55895W        W24258  19.131  30.000  15.000
55896W        W24259  29.443  24.017  14.030
55897W        W24260  15.267  28.112   2.773
55898W        W24261  33.482   2.801  10.453
55899W        W24262  28.614   4.816  14.309
55900W        W24263  40.853   4.700  11.877
55901W        W24264  37.436  36.463   0.920
55902W        W24265  31.984   3.865   1.729
55903W        W24266  39.333   2.800  14.301
55904W        W24267  18.638  41.801   0.246
55905W        W24268  13.274  24.636   0.298
55906W        W24269  10.199  14.697   2.360
55907W        W24270   3.733  40.037   0.307
55908W        W24271  36.869  22.250  14.514
55909W        W24272  28.630  41.795  12.006
55910W        W24273  27.572  36.885  12.352
55911W        W24274  44.783  43.492   2.877
55912W        W24275   5.270  26.016  10.931
55913W        W24276  43.997  44.946   0.343
55914W        W24277  17.190  29.488  14.012
55915W        W24278  28.502   4.328   1.350
55916W        W24279  25.114  10.303   1.708
55917W        W24280   3.398  23.126   0.792
55918W        W24281  44.339  22.162   0.460
55919W        W24282   6.255  34.975  13.417
55920W        W24283  28.595  10.656  12.067
55921W        W24284  43.417  30.461  12.980
55922W        W24285  36.062   2.895  10.477
55923W        W24286  24.015  17.240   1.793
55924W        W24287  40.449  34.945  11.403
55925W        W24288  23.080   8.900   4.626
55926W        W24289  38.853  28.492  12.950
55927W        W24290  28.468  44.418   2.223
55928W        W24291  34.474  11.640  14.012
55929W        W24292   8.825  13.654  11.917
55930W        W24293  17.659  13.630   1.278
55931W        W24294  24.488  39.024   3.351
55932W        W24295  17.698  44.901   2.723
55933W        W24296  23.618   1.920   2.372
55934W        W24297  19.639  14.148  13.848
55935W        W24298   5.270  41.364  12.389
55936W        W24299  13.178  16.082  13.912
55937W        W24300  25.622  16.131  10.005
55938W        W24301  29.441  21.122  11.592
55939W        W24302   1.889  42.932   1.847
55940W        W24303  40.384  26.196   1.795
55941W        W24304   2.236   0.758   2.281
55942W        W24305  28.493  11.729   0.403
55943W        W24306  33.420  35.477   4.349
55944W        W24307  11.667  37.441  11.593
55945W        W24308  26.702  29.510  14.832
55946W        W24309  41.895  14.117   3.309
55947W        W24310  28.072   7.219  12.893
55948W        W24311  28.442  18.719   2.333
55949W        W24312  37.469  10.760  13.033
55950W        W24313  39.927   0.488  10.492
55951W        W24314  11.134   2.796   3.849
55952W        W24315  28.462   3.739   0.369
55953W        W24316  41.933  13.648  14.300
55954W        W24317  29.932  29.072  11.535
55955W        W24318   6.687   3.874  13.856
55956W        W24319  16.090  38.929   2.784
55957W        W24320  26.083   5.200  14.941
55958W        W24321  28.658   3.364   0.357
55959W        W24322   7.868  13.812   1.773
55960W        W24323  27.945  16.208  12.925
55961W        W24324  10.195  18.600  13.931
55962W        W24325  27.043   6.302  12.096
55963W        W24326  19.210  35.047  11.063
55964W        W24327   1.388  21.630  13.062
55965W        W24328  19.283   7.738  13.543
55966W        W24329  12.652   2.893  14.462
55967W        W24330  43.387  32.142  10.529
55968W        W24331  15.284  15.636  13.454
55969W        W24332  30.513  19.228   1.802
55970W        W24333   3.258  20.056  12.942
55971W        W24334  39.545  16.305  12.950
55972W        W24335  36.496   1.324   1.812
55973W        W24336  18.789  32.478   1.234
55974W        W24337  44.308   5.410  12.376
55975W        W24338  17.565  15.637   1.400
55976W        W24339   8.276  39.830  14.307
55977W        W24340  11.644   7.767   4.612
55978W        W24341  20.135  21.200  10.159
55979W        W24342  44.866  19.764   2.773
55980W        W24343  17.076  37.833   2.754
55981W        W24344   3.877  35.574   1.826
55982W        W24345  10.827  10.188   4.640
55983W        W24346   2.839  22.633   4.291
55984W        W24347  39.474  27.481   1.920
55985W        W24348  44.380  30.986   1.281
55986W        W24349  20.070  19.743  13.421
55987W        W24350  12.231  21.669  12.541
55988W        W24351  17.237  16.303   3.857
55989W        W24352  14.748  40.936  13.924
55990W        W24353   4.719  10.270   1.427
55991W        W24354  15.251  26.117   4.822
55992W        W24355  35.432  34.466   3.382
55993W        W24356  41.466  43.433  12.422
55994W        W24357  35.388   6.803   4.779
55995W        W24358  32.126   1.351  14.019
55996W        W24359  17.674  33.087  11.975
55997W        W24360  39.320   4.807  11.071
55998W        W24361  43.962   4.398  12.437
55999W        W24362  34.441  37.409  13.430
56000W        W24363  20.617  32.525   4.698
56001W        W24364  44.348  23.129   3.760
56002W        W24365  44.376  41.991  14.476
56003W        W24366  31.436   4.217  12.085
56004W        W24367  29.982  17.086   4.272
56005W        W24368   8.847   8.827   5.181
56006W        W24369  16.176  27.640   0.901
56007W        W24370  15.786  42.982  10.448
56008W        W24371  20.552  18.742   0.782
56009W        W24372  26.599  37.940  12.924
56010W        W24373   3.220  40.973   2.212
56011W        W24374  41.472  40.337  12.363
56012W        W24375  14.795  14.673  11.555
56013W        W24376  33.435  16.630  14.966
56014W        W24377   9.822  12.757   3.768
56015W        W24378  31.104   9.820  13.347
56016W        W24379  26.189  31.634  12.010
56017W        W24380  22.159  25.616   1.402
56018W        W24381  17.568  37.386   4.733
56019W        W24382  29.432  16.085   4.285
56020W        W24383   4.724  26.547   1.437
56021W        W24384  16.192  10.701   1.712
56022W        W24385  41.003  38.065   3.800
56023W        W24386  20.112  43.011  14.370
56024W        W24387  29.593  33.935   0.405
56025W        W24388   3.775   4.748  14.509
56026W        W24389   5.838  21.655   2.815
56027W        W24390  35.012  20.154   3.690
56028W        W24391  40.355  36.098   0.881
56029W        W24392  27.991   9.688   2.900
56030W        W24393   8.300  23.115  11.014
56031W        W24394  35.561  16.272  11.120
56032W        W24395  21.162  16.778   2.787
56033W        W24396  28.003  27.168   2.403
56034W        W24397  17.299  11.657  13.423
56035W        W24398  34.377  34.081   4.285
56036W        W24399  42.872   4.424  12.018
56037W        W24400  13.778  20.037  10.979
56038W        W24401  23.706  30.545  10.404
56039W        W24402  16.671  41.328   3.329
56040W        W24403  36.532  16.722   4.704
56041W        W24404   9.252  25.563  14.322
56042W        W24405  21.249  25.039  12.996
56043W        W24406   0.814  42.315  14.470
56044W        W24407   4.268   1.375   4.664
56045W        W24408  10.709   1.482   4.120
56046W        W24409  27.600  39.403  10.478
56047W        W24410  33.449  22.710  14.819
56048W        W24411  11.298   3.384  14.983
56049W        W24412   0.980   9.386  10.611
56050W        W24413  24.613  22.027  13.846
56051W        W24414  34.463  13.844   0.873
56052W        W24415  18.285  14.141   4.305
56053W        W24416   8.324  21.710   2.265
56054W        W24417  19.690  14.305  11.865
56055W        W24418  37.071   3.453  12.858
56056W        W24419  27.510   5.834  14.400
56057W        W24420  41.968   7.674  10.960
56058W        W24421  39.023  16.733  14.489
56059W        W24422  17.713  41.536  13.396
56060W        W24423  11.751  17.268   3.224
56061W        W24424   7.356   6.906  14.450
56062W        W24425  41.891  24.516  11.527
56063W        W24426  14.738  22.696  10.509
56064W        W24427  33.081  36.097   1.287
56065W        W24428  34.495  20.746  12.895
56066W        W24429  19.274  30.974  12.362
56067W        W24430  42.946  24.974  14.021
56068W        W24431   2.758  26.689  14.453
56069W        W24432   4.897  19.255  14.989
56070W        W24433  43.436   6.211   4.207
56071W        W24434  11.621  24.665   0.797
56072W        W24435  27.082  26.165  12.091
56073W        W24436   6.225  31.089   3.868
56074W        W24437  35.989  14.795  10.610
56075W        W24438   5.207   4.864   2.895
56076W        W24439  44.482   5.207  11.940
56077W        W24440  11.835  23.048   2.804
56078W        W24441  13.265  43.510   1.873
56079W        W24442  16.123  11.286  14.025
56080W        W24443  20.031   6.298  12.057
56081W        W24444  41.981  26.032   2.855
56082W        W24445  32.472  31.416  10.935
56083W        W24446  25.497  32.584   3.725
56084W        W24447  11.689   0.475   1.407
56085W        W24448  41.817  27.979   4.641
56086W        W24449  34.591  44.800  13.922
56087W        W24450  22.144  13.278  14.027
56088W        W24451  17.660  11.695   0.242
56089W        W24452  42.328  12.247   1.781
56090W        W24453   0.984   9.781  14.477
56091W        W24454   2.400   6.185  13.533
56092W        W24455  40.408  21.029   3.287
56093W        W24456  25.612  27.070   1.896
56094W        W24457  41.880  16.566  13.052
56095W        W24458   5.208   6.685  10.948
56096W        W24459  31.504  41.004   1.404
56097W        W24460  23.679  29.582   0.852
56098W        W24461  37.513   8.738   3.644
56099W        W24462  36.587  41.819   1.869
56100W        W24463  10.293  32.572   1.342
56101W        W24464  24.205   2.319  14.018
56102W        W24465  27.141  25.682  12.507
56103W        W24466  15.738  17.075   1.412
56104W        W24467  41.855  31.007  10.475
56105W        W24468  33.436   5.318   2.796
56106W        W24469   5.791   0.849  13.891
56107W        W24470  36.964  27.193   3.709
56108W        W24471  30.609  20.037   2.367
56109W        W24472   5.399  38.554  12.373
56110W        W24473  11.728  36.012   0.898
56111W        W24474   4.778   2.319   3.281
56112W        W24475  25.511  40.378   5.115
56113W        W24476  22.632  13.605   0.453
56114W        W24477   8.884  24.026  10.968
56115W        W24478  32.422  18.586  14.501
56116W        W24479   0.368  22.630   5.191
56117W        W24480  31.066  31.142   1.822
56118W        W24481   0.909  43.362  10.540
56119W        W24482  11.796  23.527   4.182
56120W        W24483  42.397  31.606   0.898
56121W        W24484  19.081  39.545   2.734
56122W        W24485  16.657   9.292   3.829
56123W        W24486  16.121   2.461   3.686
56124W        W24487  11.370  15.651  12.569
56125W        W24488  11.166  12.217   0.259
56126W        W24489   2.856  34.041   3.800
56127W        W24490  37.055  10.190   3.360
56128W        W24491  42.523  17.599   4.233
56129W        W24492  33.518  37.459   5.167
56130W        W24493  24.158  32.082  14.392
56131W        W24494  13.168  22.202  13.519
56132W        W24495  34.395   1.275   3.146
56133W        W24496  37.038  19.175   4.789
56134W        W24497  31.586  10.874  14.951
56135W        W24498  24.591   8.739   0.264
56136W        W24499  21.019  37.371  12.938
56137W        W24500  37.496  31.559  10.586
56138W        W24501  42.472  28.587  10.487
56139W        W24502  30.429  40.341  14.294
56140W        W24503  44.474  23.070   2.674
56141W        W24504  16.661  12.273   4.319
56142W        W24505  43.276  15.267  11.930
56143W        W24506   0.882  19.660  10.586
56144W        W24507  28.096  39.904   1.369
56145W        W24508  21.753  10.269  13.378
56146W        W24509  27.627  13.701  14.972
56147W        W24510  17.096  12.714   0.865
56148W        W24511  18.712   0.927   3.631
56149W        W24512   4.432  38.404  14.942
56150W        W24513  28.178   9.870   3.718
56151W        W24514  20.638   8.277   4.737
56152W        W24515  43.325  41.807  14.845
56153W        W24516  33.493  28.600  14.022
56154W        W24517  20.583  24.523   0.436
56155W        W24518  36.448  26.038   1.776
56156W        W24519  21.557  24.654  14.286
56157W        W24520  40.337  11.677  14.771
56158W        W24521  35.872  38.475   4.316
56159W        W24522  28.652  24.540   1.310
56160W        W24523   6.191   3.904  14.293
56161W        W24524   2.453  11.861   4.287
56162W        W24525  29.469  14.227   0.353
56163W        W24526  35.926  24.211  14.887
56164W        W24527  43.325   8.730  11.083
56165W        W24528  32.406   5.326  14.989
56166W        W24529  18.289  27.128  11.455
56167W        W24530  25.658   5.433  14.818
56168W        W24531   0.464  35.584   2.733
56169W        W24532  21.081  43.904   2.242
56170W        W24533   0.883  22.123   5.189
56171W        W24534  29.430  11.242   4.267
56172W        W24535   1.319  29.981  11.906
56173W        W24536  18.788  21.575  13.397
56174W        W24537  15.280  20.618  11.052
56175W        W24538  43.823  19.047  14.911
56176W        W24539   9.707  17.304   3.771
56177W        W24540  22.069  21.158   0.341
56178W        W24541   3.745   1.889   5.226
56179W        W24542   8.279  13.701  10.585
56180W        W24543  24.157  28.019  13.513
56181W        W24544  12.340  40.918   0.467
56182W        W24545  15.590  29.150  13.996
56183W        W24546  17.706  31.916   2.311
56184W        W24547  20.748  22.559   1.258
56185W        W24548   9.807  37.074  12.563
56186W        W24549  38.391  40.892  11.087
56187W        W24550   3.308  29.104   3.270
56188W        W24551  15.298  22.162  14.877
56189W        W24552   7.758   4.788  12.879
56190W        W24553  40.347  42.915   4.804
56191W        W24554  25.191  30.451   3.735
56192W        W24555  33.457  11.648  11.000
56193W        W24556  12.229  25.628   1.918
56194W        W24557   0.487  29.502   3.257
56195W        W24558  21.163   8.857   3.227
56196W        W24559  19.724  37.556  11.394
56197W        W24560   7.911  17.768   3.280
56198W        W24561   5.780  34.037   0.447
56199W        W24562  21.721   8.343  11.984
56200W        W24563  22.051  11.675  12.028
56201W        W24564  44.365  12.353   4.764
56202W        W24565  40.016  41.010   4.328
56203W        W24566  30.466  32.532   3.284
56204W        W24567  43.942  39.046  13.535
56205W        W24568  38.834  12.237   0.898
56206W        W24569   6.417   1.823   4.710
56207W        W24570  10.377  36.889  10.018
56208W        W24571  14.271   8.265   2.243
56209W        W24572  35.413  37.390  14.850
56210W        W24573  25.499   9.783  11.451
56211W        W24574   8.359  31.606  13.027
56212W        W24575  15.760  44.397   2.803
56213W        W24576   2.357   3.419  11.057
56214W        W24577   4.422  37.475  11.081
56215W        W24578   3.235  42.446   4.669
56216W        W24579  36.017   2.770   1.427
56217W        W24580  28.951  19.649  11.088
56218W        W24581  20.739   8.794   1.234
56219W        W24582  39.351  28.579  11.564
56220W        W24583  41.894  27.057  12.484
56221W        W24584  33.417  39.350  14.885
56222W        W24585  30.651  37.352   4.332
56223W        W24586  29.168  10.306  11.998
56224W        W24587   6.421  15.192  11.096
56225W        W24588   0.476  15.111  11.891
56226W        W24589  19.666  24.992   2.749
56227W        W24590  43.395  42.825   4.197
56228W        W24591  14.304  24.051  13.500
56229W        W24592  31.503  11.671  13.438
56230W        W24593  39.379  10.835  14.410
56231W        W24594   5.402  36.545  12.470
56232W        W24595  36.465  40.928   1.719
56233W        W24596  42.805  10.865   4.713
56234W        W24597  36.065  32.405   4.781
56235W        W24598  18.116  40.531  14.013
56236W        W24599  42.796  29.495   1.394
56237W        W24600  15.771   4.715  10.890
56238W        W24601  22.703  30.082   1.733
56239W        W24602  25.161  32.537  13.010
56240W        W24603  25.494  16.569   2.237
56241W        W24604  30.034   5.718  14.326
56242W        W24605   3.425  41.426  13.001
56243W        W24606  15.650  41.474   0.822
56244W        W24607  41.996   1.452   1.761
56245W        W24608  30.628   3.246   3.861
56246W        W24609   9.162  40.515  14.892
56247W        W24610  23.150   3.336  14.020
56248W        W24611   4.877  32.443   1.885
56249W        W24612  35.477  24.978  14.315
56250W        W24613  21.206  19.677   0.343
56251W        W24614  11.802   5.376   0.345
56252W        W24615  35.910  21.041   1.742
56253W        W24616  25.218  12.314   0.344
56254W        W24617  36.868  21.612   1.347
56255W        W24618  17.269  36.398   1.253
56256W        W24619  37.478  24.557   1.333
56257W        W24620  42.826   4.377   0.439
56258W        W24621  34.539  13.734  13.981
56259W        W24622   2.415  39.545  11.525
56260W        W24623  12.158  28.993  11.035
56261W        W24624  26.053  18.271   3.367
56262W        W24625   9.215   4.884   1.429
56263W        W24626  30.534  35.935  11.373
56264W        W24627  10.871  32.631  11.533
56265W        W24628   5.382  43.819   0.391
56266W        W24629   7.197  24.206  10.552
56267W        W24630  35.396   8.324   4.307
56268W        W24631  21.063  22.017   4.265
56269W        W24632  32.947  40.527  13.956
56270W        W24633  18.290  23.112   2.326
56271W        W24634  16.597   8.327  10.446
56272W        W24635   5.298  13.313  12.065
56273W        W24636   8.675  41.342   3.247
56274W        W24637  18.674  33.127   0.331
56275W        W24638  22.570   8.383  13.969
56276W        W24639  44.958  23.505  12.533
56277W        W24640  35.517   2.291   4.241
56278W        W24641  14.281  37.373   2.316
56279W        W24642  16.157  25.095   4.713
56280W        W24643   9.333   8.254   0.927
56281W        W24644  25.988  22.179  14.849
56282W        W24645   7.878  10.173  13.499
56283W        W24646  31.468  24.072  14.483
56284W        W24647  10.255   8.332   1.856
56285W        W24648  42.320   0.917   2.236
56286W        W24649  31.591  14.671  11.426
56287W        W24650  38.460  37.516   2.834
56288W        W24651  20.167  14.214  11.867
56289W        W24652  20.067  23.052   2.179
56290W        W24653  14.664  12.670  12.484
56291W        W24654  29.091  24.596   1.368
56292W        W24655   1.807  20.759  14.803
56293W        W24656  36.055   0.347  12.490
56294W        W24657  24.668  26.533   0.262
56295W        W24658  27.025  23.035  12.910
56296W        W24659  35.004  27.055  14.459
56297W        W24660   1.268  28.626   1.335
56298W        W24661   8.826  17.262  10.598
56299W        W24662  39.997  42.949  12.339
56300W        W24663  15.261   9.310  10.623
56301W        W24664  22.588   6.676  14.294
56302W        W24665  21.706  18.181   3.327
56303W        W24666   4.809   4.208  10.956
56304W        W24667   0.968   0.974  14.433
56305W        W24668   4.374  16.142   1.247
56306W        W24669   3.730   0.343   2.373
56307W        W24670  32.983  12.799  13.898
56308W        W24671  15.100  24.124  12.971
56309W        W24672  39.357  42.338  14.032
56310W        W24673   7.883   1.954  11.043
56311W        W24674  10.690   3.740  11.058
56312W        W24675   3.325  34.108   0.775
56313W        W24676   2.438  17.106  14.775
56314W        W24677  14.105   6.253   1.258
56315W        W24678  21.017  23.219   4.817
56316W        W24679   1.917  27.683   1.890
56317W        W24680  23.687  13.347  14.388
56318W        W24681  22.526  34.026   2.746
56319W        W24682  22.020   9.811   0.890
56320W        W24683  15.698  11.196   1.231
56321W        W24684  27.513  27.037   4.788
56322W        W24685  13.122  39.822  13.353
56323W        W24686  42.458  42.790  12.953
56324W        W24687  11.215  21.750   2.870
56325W        W24688  20.556  24.146  12.395
56326W        W24689  29.010  27.676   0.312
56327W        W24690  10.318  24.621   4.152
56328W        W24691  32.108  17.266   3.726
56329W        W24692   7.846  25.542  11.028
56330W        W24693  39.925  28.510   4.658
56331W        W24694   4.779  13.166  13.991
56332W        W24695  14.662  42.793   3.654
56333W        W24696   1.868  16.671  10.635
56334W        W24697   8.783  27.676   1.269
56335W        W24698  21.715  23.629   2.864
56336W        W24699  32.468  35.003  14.324
56337W        W24700   7.302   0.787   1.834
56338W        W24701  39.927  24.717  13.040
56339W        W24702  42.293  38.482   1.735
56340W        W24703  15.190   8.769   4.622
56341W        W24704  31.085  33.592   1.809
56342W        W24705   9.790   4.379   3.321
56343W        W24706  11.267  11.299   4.120
56344W        W24707  31.091  43.773  13.326
56345W        W24708  44.764  22.173   1.897
56346W        W24709  20.184  14.265   1.791
56347W        W24710   7.255  19.260   3.262
56348W        W24711  13.745  13.231   2.682
56349W        W24712  32.588  14.304   3.695
56350W        W24713  32.091  33.084  10.440
56351W        W24714  29.465   1.941  12.001
56352W        W24715  39.015  43.850  12.394
56353W        W24716  23.652  20.542  12.060
56354W        W24717  20.257  12.779  11.411
56355W        W24718  36.479  30.498   0.902
56356W        W24719  17.674  26.180   1.227
56357W        W24720  16.730  24.644  14.820
56358W        W24721  13.287  42.462   0.930
56359W        W24722  29.503  17.178  13.397
56360W        W24723  35.001   9.216   0.931
56361W        W24724  26.675   1.760   2.901
56362W        W24725  36.982  10.719  13.821
56363W        W24726   5.306  22.727   2.299
56364W        W24727   6.904  31.625  13.984
56365W        W24728  29.116  29.543  11.385
56366W        W24729  10.742   2.738   1.393
56367W        W24730   8.224  35.006   2.226
56368W        W24731  36.028   4.279   1.794
56369W        W24732  16.086  34.963  11.383
56370W        W24733  20.201  29.639  10.114
56371W        W24734  29.635  32.997   3.153
56372W        W24735  31.979  36.358  14.417
56373W        W24736   4.920  19.675  12.390
56374W        W24737  34.439  44.931   2.727
56375W        W24738  41.909  24.135  10.471
56376W        W24739   1.737  44.779   3.384
56377W        W24740  10.261  36.519   2.307
56378W        W24741  16.659  31.153  12.492
56379W        W24742   8.895   9.667  14.968
56380W        W24743  23.019  28.127  10.628
56381W        W24744   7.270  30.430   3.851
56382W        W24745  38.503  41.043  13.831
56383W        W24746  26.632  13.664   1.819
56384W        W24747   8.662  37.954   2.783
56385W        W24748  10.871  24.055   0.906
56386W        W24749  16.808   8.365   3.657
56387W        W24750  34.067  32.056   4.788
56388W        W24751   3.405  26.590   1.383
56389W        W24752  33.910  11.207  14.980
56390W        W24753  35.482  41.812   1.447
56391W        W24754   1.310  32.440   1.399
56392W        W24755  33.520  11.256   0.481
56393W        W24756  37.516   3.447   4.246
56394W        W24757  28.132  42.954   4.152
56395W        W24758  14.165  43.001  12.539
56396W        W24759   3.400   1.412  11.570
56397W        W24760  15.809  34.960  10.511
56398W        W24761  36.910  43.786   0.328
56399W        W24762  25.157   8.278   0.799
56400W        W24763  19.642  23.075  12.445
56401W        W24764  38.368  29.171  10.906
56402W        W24765  26.017  15.208  12.849
56403W        W24766  35.046  40.906  12.852
56404W        W24767  21.556   7.876  14.416
56405W        W24768  43.438  19.132  13.961
56406W        W24769   0.438   8.743  14.983
56407W        W24770   7.799  42.437   4.666
56408W        W24771   5.368  22.067  13.912
56409W        W24772  24.169  17.191   3.301
56410W        W24773  10.340  28.618  10.931
56411W        W24774  16.648  32.116  13.309
56412W        W24775  33.434  18.197   4.169
56413W        W24776  12.272  18.752   3.315
56414W        W24777  12.349   2.335  11.877
56415W        W24778  35.894  24.650  11.403
56416W        W24779  27.055   4.926   2.275
56417W        W24780  19.114   6.812   0.317
56418W        W24781  44.262  38.044   1.391
56419W        W24782   3.402  25.691  11.988
56420W        W24783  35.073  31.085  14.505
56421W        W24784   4.382   1.734  10.441
56422W        W24785  10.148  19.233  10.548
56423W        W24786  15.251  42.968   0.267
56424W        W24787  43.902  30.626   2.277
56425W        W24788  32.447  14.133   0.849
56426W        W24789  44.919  27.026  14.301
56427W        W24790   5.724  26.558   3.744
56428W        W24791  17.191  26.577  10.923
56429W        W24792  36.020   0.770  14.822
56430W        W24793  12.334   3.945   3.248
56431W        W24794   8.368  36.493   2.329
56432W        W24795  37.068   2.416   3.809
56433W        W24796  17.801   6.776   3.161
56434W        W24797  29.074  25.515  10.475
56435W        W24798   5.762  23.686   0.352
56436W        W24799  19.605  37.388   4.830
56437W        W24800  37.521  26.640   2.281
56438W        W24801  40.519  11.859  13.475
56439W        W24802  13.187  30.051  12.379
56440W        W24803  37.484   4.901   2.334
56441W        W24804   9.726  16.665   3.690
56442W        W24805  34.895  20.255   4.342
56443W        W24806  18.756  18.752   4.681
56444W        W24807  32.571   5.801   3.733
56445W        W24808  10.347   4.926   3.158
56446W        W24809   0.441  23.226   4.663
56447W        W24810  26.137  34.963  14.792
56448W        W24811  28.661  16.188  10.968
56449W        W24812  35.904  33.454  13.860
56450W        W24813  18.242  39.504   4.239
56451W        W24814   6.890   1.925   2.788
56452W        W24815   0.476  29.504   1.931
56453W        W24816   6.867  33.918   1.373
56454W        W24817  38.030  16.255   3.714
56455W        W24818  35.899  40.933  14.399
56456W        W24819  18.765  11.276  10.918
56457W        W24820  15.113  12.274  11.983
56458W        W24821  24.170  40.960   1.244
56459W        W24822  14.103  27.605  11.506
56460W        W24823  42.417  15.266   1.762
56461W        W24824  26.505   5.226   1.765
56462W        W24825  28.941  39.871   1.416
56463W        W24826  18.161  33.082  13.950
56464W        W24827  10.273  19.613   3.657
56465W        W24828  12.325  38.333   1.875
56466W        W24829   2.935   2.885   3.845
56467W        W24830  34.117  36.370  11.453
56468W        W24831  27.051   3.809   1.719
56469W        W24832  31.508  33.105   2.834
56470W        W24833  15.126  11.175   0.380
56471W        W24834  14.808  22.141   0.447
56472W        W24835  29.567  40.955   4.636
56473W        W24836   6.241   3.283  12.391
56474W        W24837  39.909  32.462   2.884
56475W        W24838  41.317  25.215  13.483
56476W        W24839  37.546  40.355   1.362
56477W        W24840  38.370  33.977   3.651
56478W        W24841  40.367  21.116  12.434
56479W        W24842   4.327  28.975  12.045
56480W        W24843  24.209  18.659   3.181
56481W        W24844  22.542   5.381  13.837
56482W        W24845   3.944  27.667  10.553
56483W        W24846  27.173  15.732   0.919
56484W        W24847  34.428   3.834   2.773
56485W        W24848  43.773   3.428  11.465
56486W        W24849   4.699  15.821  13.918
56487W        W24850   2.228  13.216  13.409
56488W        W24851  13.792   1.892  10.611
56489W        W24852  21.149  16.614   0.795
56490W        W24853  38.923  13.281   0.769
56491W        W24854  41.512  41.363   1.695
56492W        W24855  32.980  25.152  14.880
56493W        W24856  20.746   3.866   4.755
56494W        W24857  32.117  15.768  10.898
56495W        W24858   3.879  39.027   2.273
56496W        W24859  33.007  29.666  13.311
56497W        W24860  21.518  44.886   0.449
56498W        W24861  35.513  42.506  12.053
56499W        W24862  23.732  14.221   4.741
56500W        W24863  17.283  33.460  13.063
56501W        W24864   6.720  23.578   3.667
56502W        W24865  14.597  24.060  12.945
56503W        W24866  16.767  28.608  11.596
56504W        W24867  10.311  19.284  12.839
56505W        W24868   5.751  19.278  13.823
56506W        W24869  32.569  13.193  10.559
56507W        W24870  31.614  20.666   2.231
56508W        W24871   6.252  37.081  10.443
56509W        W24872  26.190  30.954   0.903
56510W        W24873  26.502  33.431   4.194
56511W        W24874  31.103  25.214  13.980
56512W        W24875  20.235   6.902   1.716
56513W        W24876  10.250   7.837  13.314
56514W        W24877  36.462  40.452  11.938
56515W        W24878  21.654   2.741   3.715
56516W        W24879  33.429  25.990  12.947
56517W        W24880  19.100  11.289  11.502
56518W        W24881  42.477   5.758  14.367
56519W        W24882  26.160  16.695  12.960
56520W        W24883  13.137   5.799   3.679
56521W        W24884  14.630  22.567   4.610
56522W        W24885  15.786  37.351  12.928
56523W        W24886   7.874   8.762   0.774
56524W        W24887  33.104  26.641   0.316
56525W        W24888  39.354  26.490  12.009
56526W        W24889  34.469  14.314   1.730
56527W        W24890  27.148  27.609  14.465
56528W        W24891  39.855  10.647   2.785
56529W        W24892  41.914  42.012  13.344
56530W        W24893  29.047  21.022  12.377
56531W        W24894   4.235   1.922  12.446
56532W        W24895   1.977  33.492   4.219
56533W        W24896  38.434  39.345  11.885
56534W        W24897  23.696  38.545   2.868
56535W        W24898  25.976   6.850   3.730
56536W        W24899  27.525  35.000  14.318
56537W        W24900  24.578  27.661  12.033
56538W        W24901   5.775  19.672   1.933
56539W        W24902   6.678  27.171  13.392
56540W        W24903  43.488  35.897  12.345
56541W        W24904  11.148   9.828   0.291
56542W        W24905  20.694  39.051   3.251
56543W        W24906  18.201  29.637  11.005
56544W        W24907   6.816  39.982   0.776
56545W        W24908  43.770  36.448  10.960
56546W        W24909   9.872  24.518  10.479
56547W        W24910   6.360  42.386   3.226
56548W        W24911   9.878   7.285   2.849
56549W        W24912   6.832  36.392   1.913
56550W        W24913  36.946  18.633  12.484
56551W        W24914  11.673  16.581  14.446
56552W        W24915   9.310  16.583  14.355
56553W        W24916   6.350  14.758  14.377
56554W        W24917  21.146  13.659   1.302
56555W        W24918  31.046  35.951   0.929
56556W        W24919  38.985   5.234  10.953
56557W        W24920   9.384  19.113  11.488
56558W        W24921  43.901  32.430   3.686
56559W        W24922  42.955  26.635   2.885
56560W        W24923  24.719  26.047   2.221
56561W        W24924  32.109  18.703  10.991
56562W        W24925  26.085  23.178  12.861
56563W        W24926  43.870  24.694   2.354
56564W        W24927   9.330  29.000   3.757
56565W        W24928  20.081  29.456  10.941
56566W        W24929   3.722  19.172  12.029
56567W        W24930  13.788  11.207   4.750
56568W        W24931  10.795  41.018  14.387
56569W        W24932  21.040  18.121  13.951
56570W        W24933  39.463  36.564   2.852
56571W        W24934  35.060   9.151   1.331
56572W        W24935  42.385   8.899  11.440
56573W        W24936  21.128  25.187   3.384
56574W        W24937  30.089  25.677   3.795
56575W        W24938  24.136  16.689   2.886
56576W        W24939  44.829   3.915   2.288
56577W        W24940  31.640  26.583   3.668
56578W        W24941  11.330  17.280   4.785
56579W        W24942   4.323  29.429  13.953
56580W        W24943  21.177  19.709   2.716
56581W        W24944  39.544  37.399  12.928
56582W        W24945  39.471   6.876   2.307
56583W        W24946  39.452  13.788   9.564
56584W        W24947  22.620  12.135  14.485
56585W        W24948  44.881  20.624   1.446
56586W        W24949   0.826  18.725   2.702
56587W        W24950  38.876  35.568  10.621
56588W        W24951  38.842  11.651  14.467
56589W        W24952  13.739  26.108  11.956
56590W        W24953  30.077   7.347  10.994
56591W        W24954   2.938   0.842  14.933
56592W        W24955  18.287  26.643  14.472
56593W        W24956  38.332  10.152   2.358
56594W        W24957  37.448  12.192  14.021
56595W        W24958  24.500   2.838  14.307
56596W        W24959  15.710  22.066   2.217
56597W        W24960  42.355  24.165   0.968
56598W        W24961  35.604  28.077   4.702
56599W        W24962   7.206   4.208   4.613
56600W        W24963  13.202   3.448   5.153
56601W        W24964   1.240  19.214  11.968
56602W        W24965  38.981  11.785  13.900
56603W        W24966  10.189   6.841  10.895
56604W        W24967   6.355  33.998  12.897
56605W        W24968   1.292  38.947   2.808
56606W        W24969  15.819   3.717   3.843
56607W        W24970  29.488  15.602   0.762
56608W        W24971  11.689  28.674  14.913
56609W        W24972  23.106  39.981   1.724
56610W        W24973  39.382  30.423   1.356
56611W        W24974  21.687  36.355   0.299
56612W        W24975  21.581  10.778  10.597
56613W        W24976   6.845  16.104   3.827
56614W        W24977   7.407  40.049   2.407
56615W        W24978  29.466  43.957   1.368
56616W        W24979  17.663  10.839  12.892
56617W        W24980  15.713   2.274   4.782
56618W        W24981  42.964  16.245   4.789
56619W        W24982  32.510  37.454  11.511
56620W        W24983  14.100  44.479   4.804
56621W        W24984  14.768  26.560   4.260
56622W        W24985  19.653  31.090   3.784
56623W        W24986  18.705  30.980   2.204
56624W        W24987  17.616   8.818   4.678
56625W        W24988  25.601   8.268  13.453
56626W        W24989  32.041  16.768   0.846
56627W        W24990  42.355  26.539  12.496
56628W        W24991   6.380  21.247  11.473
56629W        W24992   6.383  40.007  13.452
56630W        W24993  32.100  35.018   1.865
56631W        W24994  39.511  12.632  12.927
56632W        W24995   5.892  19.180   2.697
56633W        W24996  28.507  27.634   4.269
56634W        W24997  15.626  35.469  11.919
56635W        W24998  32.427  31.444   1.413
56636W        W24999   5.395  15.226  14.353
56637W        W25000  38.440  32.915   0.350
56638W        W25001  30.045  30.524  10.418
56639W        W25002  28.469  12.771   4.317
56640W        W25003   9.357  22.097   2.850
56641W        W25004  19.080  12.192  13.415
56642W        W25005  31.546   7.235   4.304
56643W        W25006   8.677   1.894   3.630
56644W        W25007  44.836  18.191  11.888
56645W        W25008  24.645   0.761   4.197
56646W        W25009  22.626   1.975   1.771
56647W        W25010   2.855   7.766  12.907
56648W        W25011  24.176  18.111  13.365
56649W        W25012  16.284  35.411  12.386
56650W        W25013  25.016  36.484   3.175
56651W        W25014  35.430  22.242  12.466
56652W        W25015  41.953   3.329   1.744
56653W        W25016  26.640  42.919  13.507
56654W        W25017  21.633  32.074   0.402
56655W        W25018  44.301  38.512   4.147
56656W        W25019  34.036  18.088   1.262
56657W        W25020   0.868  39.872   3.810
56658W        W25021  23.093  28.583  14.388
56659W        W25022  22.226  19.685   1.908
56660W        W25023  42.285   1.740  14.983
56661W        W25024  23.620  22.620   4.683
56662W        W25025  13.257  25.689  10.448
56663W        W25026   4.727  44.314  13.492
56664W        W25027  44.345   8.395   0.729
56665W        W25028  43.271  19.058  12.917
56666W        W25029  43.503   8.878   0.406
56667W        W25030   7.673  10.669   3.272
56668W        W25031  23.061  22.742  13.942
56669W        W25032  26.117  41.978  14.461
56670W        W25033  34.971  38.015   4.668
56671W        W25034   2.951   0.831  12.880
56672W        W25035  22.147  37.468  10.982
56673W        W25036  10.369  13.121  11.422
56674W        W25037  25.700  32.503   4.663
56675W        W25038   8.827  22.127   1.857
56676W        W25039  13.186   1.480  14.282
56677W        W25040  12.714  33.578  11.446
56678W        W25041  32.957  18.215   1.283
56679W        W25042  44.475  38.003   3.222
56680W        W25043  30.959  40.826  11.895
56681W        W25044   9.358  14.313   0.394
56682W        W25045  40.898  13.235   4.183
56683W        W25046  37.527  44.900   3.194
56684W        W25047  42.384  43.919   3.850
56685W        W25048   0.478  40.834   2.832
56686W        W25049   6.355  25.055  13.320
56687W        W25050  34.872  27.690  13.467
56688W        W25051  43.387  29.021  14.886
56689W        W25052  15.818  33.385   0.780
56690W        W25053  33.576  30.953   0.413
56691W        W25054  34.026  10.855  14.910
56692W        W25055   6.705  23.066  10.436
56693W        W25056   4.923   6.248  11.908
56694W        W25057  29.054  28.563   0.411
56695W        W25058  26.612  10.313   1.304
56696W        W25059  14.202  24.013  14.314
56697W        W25060  11.775  40.472  11.391
56698W        W25061  39.030   5.720  14.831
56699W        W25062  37.958  23.187   2.260
56700W        W25063  21.115  36.357  12.343
56701W        W25064  17.562  27.680  14.809
56702W        W25065  31.569   2.931  11.948
56703W        W25066  16.167   3.754  11.607
56704W        W25067  19.739   0.390  11.475
56705W        W25068   9.232  38.354  12.009
56706W        W25069  21.041  26.185  13.523
56707W        W25070   4.784   5.919   0.784
56708W        W25071  39.389  28.567   1.451
56709W        W25072   1.768  40.391  10.627
56710W        W25073  32.028  30.981  11.385
56711W        W25074  18.700  10.158  11.929
56712W        W25075   8.658  39.377   1.782
56713W        W25076  23.613   8.672   3.871
56714W        W25077  39.456   1.804  11.074
56715W        W25078  27.172  22.675  13.800
56716W        W25079  21.682  13.823   1.858
56717W        W25080  14.612  38.904   4.266
56718W        W25081   3.351   4.814   5.202
56719W        W25082  22.703   7.412  11.608
56720W        W25083   1.371  11.211   1.343
56721W        W25084   0.434  34.869  14.404
56722W        W25085   5.217  23.986  12.878
56723W        W25086  40.304  12.234  12.472
56724W        W25087   6.316  29.020   4.197
56725W        W25088  41.818  30.153  13.388
56726W        W25089   1.396  32.596  13.450
56727W        W25090  39.809  44.834   0.834
56728W        W25091  25.637   7.869  12.390
56729W        W25092  31.427   6.418  12.380
56730W        W25093  26.662  44.830  14.421
56731W        W25094  12.715  35.895  11.114
56732W        W25095  18.088  11.262  14.305
56733W        W25096  35.925   0.464   0.775
56734W        W25097  32.076  11.833   2.317
56735W        W25098  41.017  16.224  14.444
56736W        W25099  29.655  22.521  13.393
56737W        W25100  42.292  35.862   5.761
56738W        W25101  24.992  11.335  12.344
56739W        W25102   4.720  24.705   2.862
56740W        W25103  35.940   4.881  12.971
56741W        W25104  28.962  16.617   1.375
56742W        W25105  31.596   0.905  13.469
56743W        W25106  19.098   9.369  12.920
56744W        W25107   8.833  24.213  10.619
56745W        W25108  40.822  35.444   0.399
56746W        W25109  17.651  42.837   2.189
56747W        W25110  29.130  11.358  13.315
56748W        W25111  19.205  22.704   4.280
56749W        W25112  24.023  13.182   4.713
56750W        W25113   9.706  27.631  13.436
56751W        W25114  40.917  42.446   1.870
56752W        W25115  39.390  24.630  13.375
56753W        W25116  15.813  17.187  10.421
56754W        W25117  16.116   3.222  13.382
56755W        W25118  16.578  25.675  10.435
56756W        W25119   1.308   3.928  14.458
56757W        W25120  12.157  21.173  11.438
56758W        W25121   6.414  28.068   3.722
56759W        W25122  20.079  13.192  13.005
56760W        W25123  33.100  33.984   2.849
56761W        W25124  30.642   5.876  13.528
56762W        W25125  11.349   0.468  14.894
56763W        W25126   5.338   5.392   3.851
56764W        W25127  13.289  24.075   0.860
56765W        W25128  44.869  39.536  14.858
56766W        W25129  32.569  37.434   4.178
56767W        W25130  10.810  23.707  14.321
56768W        W25131   4.863  37.576  13.845
56769W        W25132  22.159  24.053   1.283
56770W        W25133  19.607  21.071  14.940
56771W        W25134   6.783  23.184   1.695
56772W        W25135   7.180  40.321  11.481
56773W        W25136  15.152   6.347  10.961
56774W        W25137  36.075  18.269   2.867
56775W        W25138  18.159  29.944  11.973
56776W        W25139  29.918  11.728   3.697
56777W        W25140  15.716  19.054  14.938
56778W        W25141  39.360  39.896   3.840
56779W        W25142  21.639  17.260  14.942
56780W        W25143  14.160  39.820  12.433
56781W        W25144  21.128  10.249  10.489
56782W        W25145  44.434  18.139  12.056
56783W        W25146  18.630  30.983   1.263
56784W        W25147  42.475  41.933  13.054
56785W        W25148  31.590   0.475   0.346
56786W        W25149  19.698   3.236  12.056
56787W        W25150  21.718  10.352   2.754
56788W        W25151  14.107  36.510   2.748
56789W        W25152  11.318  41.881   0.791
56790W        W25153   2.932   3.885  11.936
56791W        W25154  28.539  16.670   3.670
56792W        W25155  39.340  32.094  10.613
56793W        W25156  32.560   6.902  12.545
56794W        W25157  32.915   4.851  11.443
56795W        W25158   1.908   0.471  12.093
56796W        W25159  25.605  18.728   0.931
56797W        W25160  39.866  26.087   4.706
56798W        W25161  24.688  13.749   3.249
56799W        W25162   8.736  20.047   3.666
56800W        W25163  27.617   6.754   1.694
56801W        W25164  10.836   9.338  12.874
56802W        W25165  11.334   0.870   0.740
56803W        W25166  13.256  31.465   4.829
56804W        W25167  30.971   9.820  13.801
56805W        W25168   5.713  23.707   1.874
56806W        W25169  29.459  24.707   2.339
56807W        W25170  30.977  18.169   3.705
56808W        W25171  31.919   0.482   3.705
56809W        W25172  29.532  22.636   2.800
56810W        W25173  26.507  41.424   3.728
56811W        W25174  25.689   5.276   1.344
56812W        W25175  21.585  41.976  14.982
56813W        W25176   0.414   3.792  10.627
56814W        W25177   5.749  31.597   4.836
56815W        W25178  37.073  28.503   3.823
56816W        W25179  21.156  18.683   2.269
56817W        W25180  16.787   2.465  13.838
56818W        W25181  20.229   3.277   4.254
56819W        W25182  28.497   8.790   0.744
56820W        W25183  27.137  29.029   2.715
56821W        W25184   0.845   2.232  10.964
56822W        W25185   5.381  14.316  12.467
56823W        W25186  36.544  20.761  10.930
56824W        W25187  22.656  30.430  13.993
56825W        W25188  41.993  43.959  12.068
56826W        W25189   2.295  33.426   4.116
56827W        W25190  13.115   8.833  14.417
56828W        W25191  30.542  36.855   1.902
56829W        W25192  20.699  16.658  12.082
56830W        W25193   3.838  21.065   4.825
56831W        W25194  38.430  38.933   1.919
56832W        W25195  10.162  35.361   4.189
56833W        W25196   4.911  17.659   1.753
56834W        W25197  27.060  32.988  13.033
56835W        W25198   1.765   2.343  11.575
56836W        W25199  14.693   8.738  11.092
56837W        W25200  18.594  24.038  13.060
56838W        W25201  32.082  17.284  12.356
56839W        W25202  11.359  19.049  12.873
56840W        W25203  10.275  31.470   0.375
56841W        W25204  34.043  17.779   2.769
56842W        W25205   9.717  38.069  12.945
56843W        W25206  27.106   0.762  10.409
56844W        W25207   7.893  16.162  11.989
56845W        W25208  26.107  28.604   2.866
56846W        W25209  37.479  14.157   4.190
56847W        W25210  43.276  29.928   4.241
56848W        W25211  41.980  19.565  10.615
56849W        W25212  31.624   4.915  14.333
56850W        W25213   7.200   3.242   4.745
56851W        W25214  20.575   6.232  11.916
56852W        W25215   2.778  10.693  14.000
56853W        W25216  11.706  19.095   0.481
56854W        W25217  41.822  13.120  12.073
56855W        W25218  19.754  37.484   0.363
56856W        W25219  22.721  14.152  13.440
56857W        W25220  42.837  20.098  12.045
56858W        W25221   7.378  31.450   3.184
56859W        W25222  39.002   5.746   2.735
56860W        W25223  21.613  35.508  14.774
56861W        W25224   8.250  32.015   0.455
56862W        W25225   5.843   8.274  10.409
56863W        W25226   0.419  37.891   5.202
56864W        W25227   3.941  30.946  13.490
56865W        W25228  44.885  37.957   2.312
56866W        W25229  16.118  13.168   1.282
56867W        W25230  25.000  34.059  11.932
56868W        W25231   0.279   3.831  13.903
56869W        W25232  24.143   2.268   2.695
56870W        W25233   9.762   1.826   3.168
56871W        W25234  14.722   4.285  14.339
56872W        W25235   9.737  43.983  14.480
56873W        W25236   1.413  28.644   2.821
56874W        W25237  10.255  34.109   4.155
56875W        W25238   2.927  20.627   4.199
56876W        W25239  36.529  21.034   4.165
56877W        W25240  11.649  37.914   2.308
56878W        W25241  29.134   3.928  13.366
56879W        W25242  40.439  36.378  12.928
56880W        W25243  32.495  24.552   4.196
56881W        W25244   9.688  25.029   0.481
56882W        W25245  44.978  24.083  14.383
56883W        W25246   1.851  17.289   0.735
56884W        W25247  39.005   7.340   0.280
56885W        W25248  26.667  30.949  11.910
56886W        W25249  31.938   7.379  14.330
56887W        W25250  14.703   9.832  11.578
56888W        W25251  41.869  29.573  12.060
56889W        W25252  21.250  26.080  12.873
56890W        W25253   4.406  18.763   0.952
56891W        W25254   5.221  27.466  11.988
56892W        W25255  11.317  29.124  10.573
56893W        W25256  28.176  33.875   1.818
56894W        W25257  21.188   0.492   0.783
56895W        W25258  13.659  39.545  14.297
56896W        W25259  29.100   3.420  13.311
56897W        W25260  36.359  37.055  11.873
56898W        W25261  15.795  24.096   3.202
56899W        W25262  44.317  34.604   3.826
56900W        W25263  34.462  25.600  12.453
56901W        W25264  15.797   6.382   9.931
56902W        W25265  24.156  22.624  13.923
56903W        W25266  38.482  18.620  14.467
56904W        W25267  29.989  27.040   0.244
56905W        W25268  15.252  32.484  14.763
56906W        W25269   7.209  21.211   4.316
56907W        W25270   7.174  28.058  11.907
56908W        W25271  40.487  30.966   1.261
56909W        W25272  20.574  11.277  12.059
56910W        W25273  31.637  41.497  14.900
56911W        W25274   9.800  15.329  10.937
56912W        W25275  28.081   5.886   0.293
56913W        W25276   0.482  25.135  12.823
56914W        W25277  44.291   3.265  11.118
56915W        W25278  15.167  21.674   1.320
56916W        W25279  23.084  22.630  10.893
56917W        W25280  23.143   5.695  13.461
56918W        W25281  33.459  32.891   0.438
56919W        W25282  14.643  37.983  12.080
56920W        W25283  25.701  13.609  11.051
56921W        W25284  38.539   4.866   4.740
56922W        W25285  32.578  35.944   0.337
56923W        W25286  13.619  24.042   4.623
56924W        W25287  30.104  37.418   0.473
56925W        W25288   6.820  31.597   1.312
56926W        W25289  36.502  24.064   0.927
56927W        W25290  44.823   6.714   3.696
56928W        W25291  19.218  37.996  13.489
56929W        W25292  32.948  32.490  12.578
56930W        W25293  43.864   1.242  10.487
56931W        W25294  35.516  43.353   4.764
56932W        W25295  14.810   3.264  10.408
56933W        W25296   0.270  40.359  14.325
56934W        W25297  13.326   9.251  10.458
56935W        W25298  19.730  21.057   5.098
56936W        W25299  17.731  43.368   0.251
56937W        W25300   2.792  30.524   3.823
56938W        W25301  18.584  27.480   3.666
56939W        W25302  41.948   3.451  12.008
56940W        W25303  16.142  22.551   1.395
56941W        W25304   4.428   7.329   0.852
56942W        W25305   2.787   1.447   2.335
56943W        W25306  38.899  35.525   4.723
56944W        W25307  27.572  28.053   2.788
56945W        W25308  13.233  21.560  12.923
56946W        W25309   3.316   0.464  13.468
56947W        W25310  13.340  25.479   1.341
56948W        W25311  35.892   6.911  12.967
56949W        W25312   2.290  16.076   4.699
56950W        W25313  28.146  31.511  14.446
56951W        W25314  27.053  23.003   1.933
56952W        W25315  16.772   3.939  12.557
56953W        W25316  15.191  28.502   0.459
56954W        W25317  27.127  42.348  13.800
56955W        W25318  44.341  11.171  12.900
56956W        W25319  22.187   9.272  14.979
56957W        W25320   0.931  25.674   3.770
56958W        W25321  39.485   8.655  12.994
56959W        W25322  40.538  20.579   3.344
56960W        W25323  31.425  22.158   0.249
56961W        W25324  43.302  11.732   2.388
56962W        W25325  39.551  11.163  14.762
56963W        W25326   6.880  10.645  14.823
56964W        W25327  19.122   3.897   0.776
56965W        W25328  19.102  16.315   3.685
56966W        W25329  39.357  35.382   4.826
56967W        W25330  18.697   8.197  14.466
56968W        W25331  41.424   3.393   3.640
56969W        W25332  27.663  22.021   0.405
56970W        W25333  31.925  28.962  14.782
56971W        W25334   1.971  21.070   0.741
56972W        W25335   2.941  13.207  11.560
56973W        W25336  31.018   7.240  13.380
56974W        W25337  28.948   1.758  13.498
56975W        W25338  37.336  40.877   4.338
56976W        W25339  23.073   3.814  13.876
56977W        W25340  36.966  28.008  11.013
56978W        W25341  34.928   4.385  10.944
56979W        W25342  27.126   1.813   4.183
56980W        W25343   1.423  37.566  12.548
56981W        W25344  38.868  30.043  10.967
56982W        W25345  18.296  10.812  14.381
56983W        W25346  23.050   2.755   1.797
56984W        W25347  38.418  27.446  14.765
56985W        W25348  25.202   5.417   2.271
56986W        W25349   6.362  37.517   4.258
56987W        W25350  25.600  17.114   1.301
56988W        W25351  29.585  35.973   2.266
56989W        W25352  32.943  26.094  10.517
56990W        W25353  30.938  11.712   1.275
56991W        W25354  10.272  28.113  12.856
56992W        W25355  13.306   7.790   1.291
56993W        W25356  43.925  11.864  12.878
56994W        W25357  15.634   2.315   3.247
56995W        W25358  25.996   2.870  14.400
56996W        W25359  37.879  40.375   3.786
56997W        W25360  28.573  14.130   3.209
56998W        W25361  29.170   9.885  10.896
56999W        W25362  30.043   7.879  12.569
57000W        W25363  25.180  11.309   0.875
57001W        W25364  20.540  14.645   0.812
57002W        W25365   7.375  34.534  10.428
57003W        W25366   1.377  23.631   0.808
57004W        W25367  26.182  20.730   4.786
57005W        W25368  35.996   5.374  11.579
57006W        W25369  16.606  16.268  12.907
57007W        W25370  29.457  17.739   2.343
57008W        W25371  25.013  40.813  14.959
57009W        W25372  15.268  11.777   0.273
57010W        W25373  39.450  22.032  11.490
57011W        W25374  44.304   1.327   3.818
57012W        W25375  30.522   5.788  12.441
57013W        W25376  39.460   0.436  13.452
57014W        W25377  37.960  18.742  14.359
57015W        W25378  11.638  30.912   4.115
57016W        W25379  22.700  35.427  14.013
57017W        W25380  34.514   4.264  12.989
57018W        W25381   1.960  26.102  11.442
57019W        W25382  25.493  23.607   1.286
57020W        W25383   2.383  39.857   5.308
57021W        W25384  39.995  10.329   0.473
57022W        W25385   1.942  30.926   1.765
57023W        W25386  44.321   5.343   4.155
57024W        W25387   7.719  36.037   5.165
57025W        W25388   3.952  29.608  14.943
57026W        W25389  19.073  19.687   4.643
57027W        W25390   4.742  44.315  12.909
57028W        W25391   2.322  10.793   4.343
57029W        W25392  43.389  19.717   2.891
57030W        W25393  24.201   0.937  10.070
57031W        W25394  37.835  27.990   0.365
57032W        W25395  18.747   7.397  10.994
57033W        W25396  20.767  16.074  14.350
57034W        W25397  16.275  43.483  13.904
57035W        W25398  41.858  14.632   1.827
57036W        W25399  22.175  34.932   2.903
57037W        W25400  40.017   2.793  10.420
57038W        W25401  23.984  19.727  12.924
57039W        W25402  42.337   9.884  13.320
57040W        W25403  20.061  30.473   2.717
57041W        W25404  31.635  17.700  14.440
57042W        W25405  39.318  40.928   1.291
57043W        W25406  38.034   9.206   3.250
57044W        W25407  23.568  44.988   1.264
57045W        W25408  17.125  44.794  10.072
57046W        W25409  33.970  28.150  12.466
57047W        W25410   2.921  12.178  14.009
57048W        W25411   1.349  43.793   2.717
57049W        W25412  17.282  13.268  13.944
57050W        W25413   4.810  34.380   2.871
57051W        W25414  43.387   2.874  13.331
57052W        W25415  23.674  31.956   5.219
57053W        W25416   2.260  15.170   0.773
57054W        W25417  41.324  28.539  14.494
57055W        W25418  40.330  25.569  14.291
57056W        W25419   0.775  27.480  10.917
57057W        W25420  25.629  22.068   0.315
57058W        W25421  31.934  30.484  12.004
57059W        W25422  38.914  33.088   5.140
57060W        W25423  13.214  22.725  13.942
57061W        W25424  21.233  21.204   1.266
57062W        W25425  36.914   3.441   0.820
57063W        W25426  28.934  39.916   2.757
57064W        W25427  36.007  21.579   0.741
57065W        W25428  22.084  23.573  13.467
57066W        W25429  42.822   9.185   0.819
57067W        W25430   5.873  39.559   2.361
57068W        W25431   2.428  30.642   0.895
57069W        W25432   8.404  18.106  14.455
57070W        W25433  39.941  44.414   2.197
57071W        W25434   1.458  18.567   1.392
57072W        W25435  44.809  29.145  14.361
57073W        W25436  13.261  35.986  14.381
57074W        W25437   9.383  39.816   0.313
57075W        W25438  29.090  42.298  12.844
57076W        W25439  38.490  22.746  14.873
57077W        W25440   1.740  17.148  11.083
57078W        W25441  26.661  30.917   2.277
57079W        W25442   5.344  19.568   3.784
57080W        W25443   8.274  19.232  11.888
57081W        W25444  30.004  18.745  12.358
57082W        W25445  41.802  24.565   3.178
57083W        W25446  32.476   4.262  14.457
57084W        W25447  27.477  32.506  14.817
57085W        W25448  27.528  19.067  10.538
57086W        W25449  25.008  22.697  13.512
57087W        W25450  20.726   5.763   2.790
57088W        W25451   4.923  28.130  12.526
57089W        W25452  11.844  10.864  11.571
57090W        W25453  36.551  30.559   4.622
57091W        W25454  26.098  38.881   0.763
57092W        W25455  41.526  24.596   3.321
57093W        W25456   3.940  19.726   1.920
57094W        W25457  31.562  33.540  11.969
57095W        W25458  36.073  44.917  10.568
57096W        W25459  24.976  30.914   0.937
57097W        W25460  35.598   8.249   3.331
57098W        W25461  37.831  16.595   2.376
57099W        W25462  20.207  23.028   2.750
57100W        W25463  30.033  32.526   4.186
57101W        W25464  18.607   6.766  13.364
57102W        W25465   5.392  28.139  13.019
57103W        W25466  27.011  40.041   5.137
57104W        W25467  14.819   1.480  11.977
57105W        W25468  33.583   6.698   4.719
57106W        W25469   5.363  19.112  11.575
57107W        W25470   9.849  16.110   4.201
57108W        W25471  32.560  12.183   2.849
57109W        W25472  20.086   9.199  13.309
57110W        W25473   3.794  44.772   3.821
57111W        W25474  17.134   1.826  13.990
57112W        W25475   0.809  25.103  10.915
57113W        W25476   8.352  19.740  11.392
57114W        W25477  38.949   9.651   5.321
57115W        W25478  13.204  25.186   0.850
57116W        W25479  12.260   5.731   2.388
57117W        W25480   8.807   6.224  11.104
57118W        W25481  43.393  40.347   0.345
57119W        W25482   7.236  12.323   0.356
57120W        W25483  39.340  28.155   0.283
57121W        W25484  12.646  33.000  12.089
57122W        W25485  24.149  36.359   1.894
57123W        W25486  27.692  13.155   0.308
57124W        W25487  31.484  41.838  12.455
57125W        W25488   8.295   4.718  14.903
57126W        W25489  18.200  11.641  13.356
57127W        W25490  44.892   2.447   0.865
57128W        W25491   7.399   9.838  14.900
57129W        W25492   5.903  24.626   0.957
57130W        W25493   6.232  23.010  10.999
57131W        W25494  42.399   0.896  12.408
57132W        W25495   2.841  23.029  12.530
57133W        W25496  31.079  16.232   1.928
57134W        W25497   9.375  17.605  13.854
57135W        W25498  13.641  33.616  10.490
57136W        W25499  23.568  14.776   3.844
57137W        W25500  28.966  42.293   3.334
57138W        W25501  43.840  32.900   3.834
57139W        W25502  12.696   7.375   3.164
57140W        W25503  31.614  16.669   2.770
57141W        W25504  27.689  36.393  10.937
57142W        W25505  22.512  16.735  12.856
57143W        W25506  31.078  20.030  13.891
57144W        W25507  18.081  26.063  12.408
57145W        W25508  37.878  37.975  14.379
57146W        W25509  27.045  17.561   1.707
57147W        W25510  36.965  11.257   0.908
57148W        W25511  18.178  36.902  14.777
57149W        W25512  28.677  39.958  10.491
57150W        W25513  34.955  17.656   1.415
57151W        W25514   8.734  13.189  13.535
57152W        W25515  19.551  11.681  14.958
57153W        W25516   4.245  40.408  13.967
57154W        W25517  15.792   8.236  12.024
57155W        W25518  12.610   5.832   2.707
57156W        W25519  40.998  30.615  13.433
57157W        W25520  40.507  37.995  14.917
57158W        W25521  21.675   4.930   2.185
57159W        W25522  19.676   6.339  11.590
57160W        W25523   6.808  22.134  11.385
57161W        W25524  24.661  28.013  13.839
57162W        W25525   9.269  16.759   0.932
57163W        W25526  19.205  25.565  10.527
57164W        W25527  42.406  20.210  13.816
57165W        W25528  21.593  21.072  11.930
57166W        W25529  10.205  24.668  12.056
57167W        W25530  25.539  11.637   0.395
57168W        W25531   1.777  18.584   1.924
57169W        W25532  34.056  34.513   0.892
57170W        W25533  38.976   6.186   2.886
57171W        W25534  32.522   0.357   0.441
57172W        W25535  40.439  15.264  11.613
57173W        W25536   9.814  33.074  12.829
57174W        W25537   7.270  22.528   3.742
57175W        W25538  14.136  15.806   1.774
57176W        W25539  26.100  41.025   2.765
57177W        W25540  20.627   9.774  11.001
57178W        W25541  17.243  14.327   3.246
57179W        W25542   6.827   2.244  12.544
57180W        W25543  35.019   6.292   2.235
57181W        W25544   9.368  38.444  14.371
57182W        W25545  10.706   3.930  14.898
57183W        W25546  10.231  43.472  14.811
57184W        W25547  13.643  26.687  11.988
57185W        W25548  18.265  39.940   2.866
57186W        W25549   3.902  36.474  10.516
57187W        W25550  31.492  43.377   2.781
57188W        W25551  39.440   0.808   3.177
57189W        W25552  25.972  19.282   0.321
57190W        W25553  27.995   7.171   0.758
57191W        W25554  20.041  24.078  14.454
57192W        W25555   9.187  31.065  10.457
57193W        W25556  29.606  27.981  10.536
57194W        W25557  36.539   1.834  13.546
57195W        W25558  27.031  22.171  14.428
57196W        W25559  40.891  43.383  11.866
57197W        W25560  31.927  33.507  12.387
57198W        W25561  15.709  23.188  10.582
57199W        W25562   0.773   3.732   4.217
57200W        W25563  44.392  33.876  14.796
57201W        W25564  27.094   8.693   2.263
57202W        W25565  38.872  25.606   3.733
57203W        W25566  31.149  35.490  14.291
57204W        W25567  33.574  23.582   5.181
57205W        W25568  18.688  16.071   2.898
57206W        W25569   7.282   2.287  13.792
57207W        W25570  22.591  10.874   2.754
57208W        W25571  34.486  40.884   4.674
57209W        W25572  11.197   9.166   0.245
57210W        W25573   3.233  39.857  14.371
57211W        W25574  13.242   0.838   1.387
57212W        W25575  12.234  11.305  14.877
57213W        W25576   3.939  15.182   4.342
57214W        W25577  25.547  31.154  13.411
57215W        W25578  34.484   9.202  14.344
57216W        W25579  20.209  11.255  13.920
57217W        W25580   0.287  37.995  14.489
57218W        W25581   5.857  30.627  11.540
57219W        W25582  12.851  18.747   1.414
57220W        W25583  27.084   9.314  13.988
57221W        W25584  40.381  40.838  13.883
57222W        W25585  29.546   4.424  14.922
57223W        W25586   3.401  44.983  11.595
57224W        W25587  15.686  27.494  13.028
57225W        W25588   8.403  29.073  13.013
57226W        W25589  40.870   7.232  11.604
57227W        W25590  19.628  13.766   0.896
57228W        W25591  43.361  37.015  12.528
57229W        W25592  22.676  23.581   0.901
57230W        W25593  35.935  40.840  11.889
57231W        W25594  34.911  30.026   1.758
57232W        W25595   3.442  24.488  10.636
57233W        W25596  12.677  36.487  14.781
57234W        W25597  15.088  36.469   3.238
57235W        W25598   1.369  18.593  12.040
57236W        W25599  26.656   1.860   4.203
57237W        W25600   8.241  19.663   3.821
57238W        W25601  40.003  18.059   2.370
57239W        W25602   2.373  19.650   3.669
57240W        W25603  35.489  29.101  14.436
57241W        W25604  13.621  12.185  14.404
57242W        W25605   7.903  16.263  14.355
57243W        W25606  24.719   5.404  11.390
57244W        W25607  31.945  16.246   2.759
57245W        W25608  21.612  35.569   4.678
57246W        W25609  43.317  34.509   5.760
57247W        W25610  43.845  43.951  11.978
57248W        W25611   8.177  16.111   0.755
57249W        W25612  17.196  41.457   2.312
57250W        W25613  16.272  21.537  13.524
57251W        W25614  25.495  29.046  10.143
57252W        W25615  38.346   6.863   2.270
57253W        W25616   1.911  39.489   1.278
57254W        W25617  25.603  40.488  14.766
57255W        W25618  29.972   8.813   2.709
57256W        W25619  19.236  25.663  12.541
57257W        W25620  30.155  27.197  11.018
57258W        W25621  40.804   9.742   2.375
57259W        W25622  10.676  15.149   2.405
57260W        W25623   2.368   6.392   9.987
57261W        W25624   4.221  31.124  13.509
57262W        W25625  40.477   2.396   2.395
57263W        W25626  32.062  20.183   2.693
57264W        W25627   2.898  13.617  12.026
57265W        W25628  18.284   5.789   1.263
57266W        W25629  39.008  31.461   2.405
57267W        W25630  20.709  33.035  12.963
57268W        W25631  16.209  34.013   1.736
57269W        W25632  11.210  32.422   2.196
57270W        W25633  16.716   4.329  12.434
57271W        W25634  40.918  37.014  10.406
57272W        W25635  38.369  42.943   0.412
57273W        W25636  22.068  29.095   3.161
57274W        W25637  32.137  12.670   4.765
57275W        W25638  24.983   9.842  10.462
57276W        W25639  41.445  14.589  13.824
57277W        W25640  42.889  26.645   1.295
57278W        W25641  36.023   6.682   4.615
57279W        W25642  30.005  24.539  11.401
57280W        W25643  43.799   6.745   3.216
57281W        W25644   8.209  30.587  11.916
57282W        W25645  15.261   1.257   0.854
57283W        W25646  37.464  40.426  11.917
57284W        W25647  31.621  23.080   1.370
57285W        W25648  34.518   8.860   1.874
57286W        W25649  18.265  30.996  14.480
57287W        W25650  11.862  39.917   1.803
57288W        W25651  12.143  17.198  14.832
57289W        W25652  26.138  24.014  13.874
57290W        W25653  11.848  28.168  13.870
57291W        W25654  16.090  13.294   4.762
57292W        W25655  10.156  13.813  14.386
57293W        W25656   1.293  10.803   3.184
57294W        W25657  32.507  14.721   2.863
57295W        W25658  42.862  13.351  14.847
57296W        W25659  34.105  11.694  14.005
57297W        W25660  29.470  35.891   3.802
57298W        W25661   8.279   4.366  14.374
57299W        W25662  32.444  30.101  10.486
57300W        W25663  12.785  18.077   1.932
57301W        W25664  30.060  30.654  12.409
57302W        W25665  22.190  13.741   2.834
57303W        W25666   3.393  32.050  11.565
57304W        W25667   5.245  16.312  14.331
57305W        W25668  17.730  28.454   4.649
57306W        W25669   3.443  35.094  11.507
57307W        W25670  21.687  32.064   4.230
57308W        W25671  10.678  23.143  10.997
57309W        W25672  21.598   4.321   4.627
57310W        W25673  29.054   5.434  12.394
57311W        W25674  12.845  27.017   4.271
57312W        W25675  42.428  13.326  14.848
57313W        W25676  27.189   6.795  12.566
57314W        W25677  35.967  22.104   1.736
57315W        W25678   6.285  10.690  11.547
57316W        W25679  36.431   7.768  13.477
57317W        W25680   2.350  19.539   5.318
57318W        W25681  40.441  11.649   2.667
57319W        W25682  17.705   1.925   3.771
57320W        W25683   2.751  39.818   2.303
57321W        W25684  31.645  38.842  13.369
57322W        W25685  21.196  37.513   3.234
57323W        W25686  37.063  18.287   4.144
57324W        W25687   0.867  33.443  11.091
57325W        W25688  20.218  20.260   0.359
57326W        W25689  12.856  33.124  13.472
57327W        W25690  32.489  30.101   3.147
57328W        W25691  25.043  29.607   0.463
57329W        W25692  33.007  11.708  10.918
57330W        W25693   1.388  24.572  14.369
57331W        W25694  12.739  14.104  12.065
57332W        W25695  30.529   2.417   2.779
57333W        W25696  40.033  24.504  12.515
57334W        W25697   8.837  17.128  14.304
57335W        W25698   1.429  11.354  11.015
57336W        W25699  11.236  29.918   0.735
57337W        W25700  12.351  19.543   1.804
57338W        W25701  22.102  22.517   2.836
57339W        W25702  24.142  11.841  14.466
57340W        W25703  34.070  38.423  10.955
57341W        W25704  11.670   5.434   1.773
57342W        W25705  22.180  40.801  12.037
57343W        W25706  20.649  40.866  10.920
57344W        W25707   0.971  30.059   1.391
57345W        W25708   4.341  34.909  11.428
57346W        W25709  25.710  22.217  11.572
57347W        W25710  13.630  31.919  12.949
57348W        W25711   2.354  31.075   2.777
57349W        W25712   9.316  43.914   3.233
57350W        W25713  17.116  31.409  11.036
57351W        W25714  11.700  19.630  11.087
57352W        W25715  38.892  16.168  10.918
57353W        W25716  42.925  29.644   4.126
57354W        W25717  17.572  41.383  11.518
57355W        W25718  15.154  18.707   0.825
57356W        W25719   9.259   8.316  12.421
57357W        W25720  38.051  16.787   0.924
57358W        W25721  34.100   8.754  11.002
57359W        W25722  44.494  31.619   3.270
57360W        W25723  10.227  21.254  12.942
57361W        W25724   5.700  44.811  10.601
57362W        W25725  10.353  11.231  14.912
57363W        W25726  21.054   1.446   1.218
57364W        W25727   3.335  26.155  11.907
57365W        W25728  43.446  11.319   3.220
57366W        W25729  41.028  16.157   0.279
57367W        W25730  14.659   1.414  14.913
57368W        W25731  21.757  14.692   3.802
57369W        W25732  29.621  29.452   3.655
57370W        W25733  37.906  40.462  11.951
57371W        W25734  38.026   1.318   3.742
57372W        W25735  28.118  17.564   3.186
57373W        W25736  42.026   5.229  10.970
57374W        W25737   6.319  11.309  14.449
57375W        W25738  25.656  12.664  11.492
57376W        W25739  44.387   3.748   0.351
57377W        W25740   3.807  28.171   4.782
57378W        W25741  16.313  41.032   4.597
57379W        W25742  31.946  12.323   3.740
57380W        W25743  12.240  19.638  10.922
57381W        W25744  15.196  43.766   0.339
57382W        W25745   2.309  20.118  14.379
57383W        W25746  42.291  14.643   3.216
57384W        W25747   0.863  39.864  11.543
57385W        W25748  19.157  20.108  12.365
57386W        W25749  18.558  37.062   1.286
57387W        W25750  33.390   8.225  11.471
57388W        W25751  21.069  39.335  10.583
57389W        W25752  26.022  13.344  11.992
57390W        W25753  17.687  43.022   0.731
57391W        W25754   1.821  26.591  10.007
57392W        W25755  40.849  20.155   4.333
57393W        W25756  23.034  28.972   3.747
57394W        W25757  23.667  28.018   0.481
57395W        W25758  24.708   0.843  10.967
57396W        W25759  27.108  36.844   3.683
57397W        W25760   9.833  20.242  12.379
57398W        W25761  10.693  13.268   0.398
57399W        W25762  16.202  15.673   4.157
57400W        W25763  20.684  39.447  14.960
57401W        W25764  33.401   9.768  12.832
57402W        W25765  10.256  12.203  10.450
57403W        W25766  37.484  30.158  12.926
57404W        W25767  34.875   8.372  14.275
57405W        W25768  40.897  38.449   2.391
57406W        W25769  42.986  19.064  13.448
57407W        W25770  18.202   7.201  13.326
57408W        W25771  43.879   0.472   0.369
57409W        W25772  34.614   2.305  12.957
57410W        W25773  35.026  26.169  12.442
57411W        W25774  19.726  32.391   1.296
57412W        W25775  11.649   5.914   0.360
57413W        W25776  17.122  33.940  11.432
57414W        W25777  25.542  18.708   1.290
57415W        W25778  11.749  23.124   3.868
57416W        W25779  33.932  12.360  10.502
57417W        W25780  26.688  14.316  11.901
57418W        W25781   1.270  34.604   4.266
57419W        W25782  32.105  36.890  11.016
57420W        W25783  15.714  20.087   1.814
57421W        W25784   5.750  37.396   4.748
57422W        W25785  34.926  22.145  12.474
57423W        W25786   6.785  18.263   3.303
57424W        W25787  37.912  30.967   1.264
57425W        W25788  15.245   5.344  14.495
57426W        W25789  36.500  28.109  14.321
57427W        W25790   2.390  35.477   4.259
57428W        W25791  40.979  26.665   0.817
57429W        W25792  33.980  16.780   0.465
57430W        W25793   8.826  13.330   4.255
57431W        W25794   1.273  44.434  10.949
57432W        W25795   7.218  16.270  11.910
57433W        W25796   6.903   1.308   0.907
57434W        W25797   6.260  20.745   3.385
57435W        W25798  40.309  20.540   4.114
57436W        W25799  28.133  18.265   1.263
57437W        W25800  23.552   7.341   2.390
57438W        W25801  42.513  16.667  12.966
57439W        W25802  26.652  25.623  12.849
57440W        W25803  26.094   0.784  13.482
57441W        W25804  23.490  31.103  12.442
57442W        W25805  35.470  15.194   3.181
57443W        W25806  42.941  37.833  10.609
57444W        W25807  43.468  10.666   1.887
57445W        W25808  10.232  29.668  13.383
57446W        W25809  10.324  43.426   0.271
57447W        W25810  22.599  33.944   4.710
57448W        W25811  34.956  42.425  10.407
57449W        W25812  32.550  41.015  14.905
57450W        W25813  24.041  20.587   4.615
57451W        W25814  15.281  16.604  12.013
57452W        W25815  37.980  31.921   2.757
57453W        W25816  19.248   0.882   1.444
57454W        W25817  24.578  22.204  12.893
57455W        W25818  17.722  14.726   0.309
57456W        W25819  33.395   9.300   4.224
57457W        W25820  31.961  28.489  14.504
57458W        W25821  42.830   0.970  14.990
57459W        W25822  22.658  40.984  13.437
57460W        W25823  17.087   2.886  12.570
57461W        W25824  39.944  26.530  13.354
57462W        W25825   9.373  14.682  10.582
57463W        W25826  26.066  28.020   1.227
57464W        W25827   4.853  30.429  12.088
57465W        W25828  37.510  19.620  14.516
57466W        W25829  13.269  14.188  14.440
57467W        W25830  35.528  13.279  11.076
57468W        W25831  28.010  34.535   0.906
57469W        W25832  16.650   4.752   2.682
57470W        W25833   4.321  12.676  13.796
57471W        W25834   7.246  36.490  10.500
57472W        W25835  44.928  32.081  11.566
57473W        W25836   5.761  40.496  13.452
57474W        W25837   9.789  33.045  12.439
57475W        W25838   4.272   5.738   0.745
57476W        W25839  28.988   1.274   3.704
57477W        W25840  20.634   0.781  10.568
57478W        W25841  38.549  14.167  14.354
57479W        W25842   4.704  40.852   4.323
57480W        W25843  28.519  44.365  10.922
57481W        W25844   7.735  28.501   3.724
57482W        W25845  41.530  27.176   2.222
57483W        W25846  12.187   1.316   0.433
57484W        W25847  28.465  26.117  14.968
57485W        W25848  41.879  12.296   0.250
57486W        W25849  36.380  21.112   0.445
57487W        W25850  25.062  18.714   0.356
57488W        W25851  36.908  41.382   4.314
57489W        W25852  11.728  11.644  12.348
57490W        W25853  39.413  35.922   2.386
57491W        W25854   4.747  32.480   2.881
57492W        W25855   9.316  22.111  13.516
57493W        W25856  32.100  41.381   3.857
57494W        W25857  25.650  37.410  13.876
57495W        W25858   7.707  30.639  10.503
57496W        W25859  17.656  42.341  11.483
57497W        W25860  12.315  26.167   2.707
57498W        W25861   1.784  15.242   3.669
57499W        W25862  30.141  38.498  10.477
57500W        W25863   1.300  12.780  14.913
57501W        W25864  24.520  37.999   4.653
57502W        W25865  18.731  35.934   4.130
57503W        W25866   5.708  18.263  12.932
57504W        W25867  43.441  34.999   2.676
57505W        W25868  44.437  24.009  13.848
57506W        W25869  11.356  38.378  13.032
57507W        W25870   9.849   6.396  11.878
57508W        W25871   4.874  14.757  10.630
57509W        W25872  24.003   3.863  14.471
57510W        W25873  11.147  24.988  12.347
57511W        W25874   3.933   3.895   2.692
57512W        W25875  37.078   8.177  11.450
57513W        W25876  10.669  26.608  12.876
57514W        W25877  31.447  28.930  14.386
57515W        W25878  11.353  18.769  10.927
57516W        W25879  16.107  44.782   1.411
57517W        W25880  21.552  40.002  10.499
57518W        W25881  42.490  16.674  10.630
57519W        W25882  26.603   0.766   4.686
57520W        W25883  10.255  36.450  10.610
57521W        W25884  15.170  33.444   3.250
57522W        W25885   6.271   2.755   0.323
57523W        W25886  25.472  41.359  10.498
57524W        W25887  30.638   7.683   3.334
57525W        W25888  27.551   2.882  12.515
57526W        W25889  34.918  24.685  13.942
57527W        W25890  24.981  37.553  14.930
57528W        W25891   7.191  38.018   2.196
57529W        W25892  22.137  26.528  10.411
57530W        W25893  16.678   1.899  14.471
57531W        W25894  23.680  19.612   4.125
57532W        W25895  34.924  31.523   4.343
57533W        W25896  31.979  27.662   9.589
57534W        W25897  27.185   6.381  14.957
57535W        W25898  18.595   6.289  11.418
57536W        W25899   7.706  23.237   1.378
57537W        W25900  18.720  32.950   1.743
57538W        W25901  31.040  39.406   1.828
57539W        W25902   8.375  38.467   2.829
57540W        W25903  18.050  19.135   1.219
57541W        W25904  42.328  33.609  14.427
57542W        W25905  11.712  43.447  12.993
57543W        W25906   5.848  19.668   2.805
57544W        W25907  42.312   6.334   4.736
57545W        W25908  11.835  39.522  11.981
57546W        W25909  10.171   5.280  12.434
57547W        W25910   6.355  19.080  12.497
57548W        W25911  16.700  30.007   0.303
57549W        W25912  34.943  39.376   0.759
57550W        W25913  20.207  33.927   2.363
57551W        W25914  36.842  12.330   3.681
57552W        W25915   3.900   2.451  11.577
57553W        W25916  37.911   7.799  14.811
57554W        W25917   0.784   1.444  14.305
57555W        W25918  10.661   7.849  10.464
57556W        W25919  28.568  30.443   2.836
57557W        W25920   6.369  15.696   2.743
57558W        W25921  44.462  23.187  12.509
57559W        W25922  22.732  29.510  12.533
57560W        W25923   1.968  14.113   0.865
57561W        W25924   2.374  43.786   0.312
57562W        W25925   5.319  21.216  12.826
57563W        W25926  11.849  11.804  13.821
57564W        W25927  30.559  10.837  10.582
57565W        W25928  19.730   7.790   1.809
57566W        W25929   2.845   1.949  13.392
57567W        W25930  16.158   1.354   1.260
57568W        W25931  35.039  34.392   2.767
57569W        W25932  42.428  12.228  12.024
57570W        W25933  37.554  11.208   4.692
57571W        W25934   6.685  34.552  13.325
57572W        W25935  25.648  22.702   0.803
57573W        W25936  27.636  25.703   3.835
57574W        W25937  26.136  10.698  14.019
57575W        W25938  15.098   9.376  14.496
57576W        W25939  17.799  38.536   3.233
57577W        W25940  31.004  36.556   0.785
57578W        W25941  15.739  44.889  14.782
57579W        W25942  23.112  18.130   2.758
57580W        W25943  38.886   2.806   1.711
57581W        W25944  36.023  32.561  14.957
57582W        W25945  25.632  23.600   4.323
57583W        W25946  40.509   0.382   4.738
57584W        W25947  34.460  30.162   0.822
57585W        W25948   1.358  21.087  10.524
57586W        W25949  29.446   7.212   3.198
57587W        W25950  29.171  24.178  11.374
57588W        W25951  30.921  19.089   0.246
57589W        W25952  39.813  23.610  14.852
57590W        W25953  37.958   1.795  10.517
57591W        W25954  36.966  23.609   0.455
57592W        W25955  25.601  12.616   1.247
57593W        W25956  16.178  29.474  11.492
57594W        W25957  41.464  11.697   3.336
57595W        W25958  30.041  15.288   1.408
57596W        W25959  20.730   1.447  10.967
57597W        W25960  14.244  14.329   4.729
57598W        W25961   2.829  29.078   1.736
57599W        W25962   5.710  22.050   3.236
57600W        W25963  37.085  37.007  11.864
57601W        W25964  42.293   7.807  10.956
57602W        W25965   0.781   4.319   1.226
57603W        W25966  18.106  27.591   0.468
57604W        W25967  36.948  13.131  13.822
57605W        W25968  21.146  27.622   2.686
57606W        W25969   2.892   5.401   3.866
57607W        W25970   3.912  18.066  13.440
57608W        W25971   8.820   3.910  11.454
57609W        W25972   0.897  40.544   2.855
57610W        W25973  38.051  14.282   3.251
57611W        W25974  13.716  36.453   4.240
57612W        W25975  19.772  29.428   1.233
57613W        W25976  40.546  20.075   1.391
57614W        W25977   4.880  35.030   2.282
57615W        W25978   2.450  40.328  13.354
57616W        W25979  23.019   1.794   2.203
57617W        W25980  27.109   1.975  10.484
57618W        W25981   2.792  26.002   3.342
57619W        W25982  11.351   7.379   0.914
57620W        W25983  38.338  26.117  10.985
57621W        W25984  13.693   5.369  11.495
57622W        W25985  37.389   1.462   3.700
57623W        W25986  31.141   4.252  14.896
57624W        W25987  43.491  22.044   1.899
57625W        W25988  35.994   7.384  14.395
57626W        W25989   7.683  35.038   2.888
57627W        W25990  40.936  29.552  12.963
57628W        W25991  18.288  11.321   4.181
57629W        W25992  18.763  42.379   1.338
57630W        W25993   0.900  23.708   3.357
57631W        W25994  12.348   8.880  14.023
57632W        W25995  38.826  34.431  11.020
57633W        W25996  21.148  28.491  12.890
57634W        W25997  15.312  28.507   0.859
57635W        W25998  23.619  31.551  10.640
57636W        W25999  23.632  33.457  11.563
57637W        W26000  19.127  19.069   1.269
57638W        W26001  27.542  21.115  12.367
57639W        W26002  32.925  41.985  12.491
57640W        W26003  39.826   6.889  10.948
57641W        W26004   1.478  27.061  11.439
57642W        W26005  23.223  38.377   4.791
57643W        W26006  25.972  12.337   0.312
57644W        W26007  32.438  42.906   4.793
57645W        W26008  31.566  11.630  14.414
57646W        W26009   8.780  22.711   4.644
57647W        W26010  29.449  19.585  14.969
57648W        W26011  40.362   0.395   2.815
57649W        W26012  10.252  23.039   2.882
57650W        W26013   3.294  28.626   0.441
57651W        W26014  24.582  34.556   2.813
57652W        W26015  43.800  44.790  10.558
57653W        W26016  35.513  42.973  12.919
57654W        W26017   8.168  21.546   4.736
57655W        W26018  40.528  43.963   1.696
57656W        W26019  42.412   3.794  13.308
57657W        W26020  18.693  24.052   0.766
57658W        W26021  27.170  27.077  13.506
57659W        W26022   9.860   3.918   0.811
57660W        W26023  12.294  18.191  11.426
57661W        W26024  28.959  28.550   1.437
57662W        W26025  38.956  35.488  11.407
57663W        W26026  37.944  10.366  13.885
57664W        W26027  20.582  36.969   3.644
57665W        W26028  34.003  21.247   2.875
57666W        W26029  41.802  40.981   0.901
57667W        W26030  33.891  42.998   0.351
57668W        W26031   9.757  43.947  13.341
57669W        W26032   4.888  43.324  13.911
57670W        W26033  12.819  11.652   2.216
57671W        W26034  37.363  21.184  14.868
57672W        W26035  18.108  40.312  11.125
57673W        W26036  31.511  19.716   2.817
57674W        W26037  36.461  35.968   1.253
57675W        W26038  42.401   5.918   4.669
57676W        W26039  36.553  38.435  10.579
57677W        W26040  30.090  29.569  12.995
57678W        W26041  29.050  36.940   0.442
57679W        W26042  20.108  35.587   4.654
57680W        W26043   3.764   4.437  11.994
57681W        W26044  20.675  16.780   2.363
57682W        W26045  19.261   6.917  13.993
57683W        W26046   1.305   5.878   3.333
57684W        W26047   2.226  27.954  14.305
57685W        W26048  40.946   3.913  12.475
57686W        W26049  10.313  41.426   1.390
57687W        W26050  40.966   4.219  14.499
57688W        W26051  27.492   9.289  13.009
57689W        W26052  42.919  20.675  11.038
57690W        W26053   5.817   1.424  12.898
57691W        W26054  17.716   7.883   3.154
57692W        W26055   9.225   3.352   3.630
57693W        W26056  30.052   8.860   4.716
57694W        W26057  39.954  29.491  13.862
57695W        W26058  37.476   9.666  13.999
57696W        W26059  10.730  31.446   0.890
57697W        W26060   2.366  17.073  10.964
57698W        W26061  21.017  34.601  13.876
57699W        W26062  30.106  25.608   4.661
57700W        W26063  36.575  27.969   0.763
57701W        W26064   3.315  24.162   2.189
57702W        W26065  44.381  27.509  13.540
57703W        W26066  41.866  12.353  13.854
57704W        W26067  28.540  15.795   3.302
57705W        W26068  30.957  43.359  11.505
57706W        W26069  21.732  34.427   0.775
57707W        W26070  15.627  25.474   4.814
57708W        W26071   6.361   7.406   3.725
57709W        W26072   1.310  19.144   4.114
57710W        W26073  18.051  40.541  10.408
57711W        W26074  17.670  42.953  13.420
57712W        W26075  35.103   4.925   1.379
57713W        W26076  43.918  33.423   1.828
57714W        W26077  40.315   4.914   0.317
57715W        W26078  26.209   2.795   1.259
57716W        W26079  22.521  24.034  13.478
57717W        W26080  13.167  10.822  14.490
57718W        W26081  36.918  42.446  12.486
57719W        W26082  42.876  19.595  10.908
57720W        W26083  12.849  21.099  14.816
57721W        W26084  30.437  20.560  13.402
57722W        W26085  11.336  13.835  12.449
57723W        W26086  17.561  11.284   4.717
57724W        W26087  20.602   1.377   0.770
57725W        W26088  21.165  44.385  10.508
57726W        W26089  38.364   1.409   1.774
57727W        W26090  24.219  32.423  14.386
57728W        W26091   6.241  34.591   1.744
57729W        W26092   0.305  32.030   4.134
57730W        W26093  11.725  36.366  14.511
57731W        W26094  43.943  10.702  13.383
57732W        W26095  11.733  28.024   4.125
57733W        W26096  20.099  10.190  13.424
57734W        W26097  13.731  10.784  11.037
57735W        W26098  14.602  17.287  12.909
57736W        W26099  22.085   4.777  10.476
57737W        W26100  21.548  34.408   1.261
57738W        W26101  12.321  32.562   3.843
57739W        W26102  19.282  11.732   0.316
57740W        W26103  15.151  12.268   0.295
57741W        W26104  16.222  27.483  13.930
57742W        W26105   1.860  39.988   3.359
57743W        W26106  32.561  17.101   0.885
57744W        W26107  34.026  40.434   4.738
57745W        W26108  42.958  32.956   3.328
57746W        W26109  39.895   5.869   1.436
57747W        W26110  44.390  43.877  12.046
57748W        W26111  26.105  33.994   2.851
57749W        W26112   9.237  15.619  11.411
57750W        W26113  21.615   2.900   0.465
57751W        W26114  39.949  28.944  13.937
57752W        W26115   0.248  12.195   1.921
57753W        W26116   1.944  43.891   2.228
57754W        W26117  14.739  35.430  14.370
57755W        W26118  28.930   1.384  10.582
57756W        W26119  36.982  44.798  14.997
57757W        W26120  26.986   7.705   2.713
57758W        W26121  43.349  14.335  13.815
57759W        W26122  19.621  14.286   0.415
57760W        W26123   5.401  38.398   2.275
57761W        W26124  35.492  39.526  13.915
57762W        W26125  15.275   4.702  13.870
57763W        W26126  24.193  31.516  12.538
57764W        W26127  32.119  25.062   3.194
57765W        W26128  23.602  40.845  14.778
57766W        W26129   3.753  41.932   0.946
57767W        W26130  32.632  17.614   0.852
57768W        W26131   2.288  36.458  11.028
57769W        W26132  38.048  30.082  12.002
57770W        W26133  33.521  32.585  11.116
57771W        W26134  44.402  24.975   1.247
57772W        W26135  19.678  15.586  13.326
57773W        W26136  19.207  37.839  14.279
57774W        W26137   6.848  10.140  14.771
57775W        W26138  14.633   4.349  10.953
57776W        W26139   5.414  11.720  11.558
57777W        W26140  19.664  28.132   2.195
57778W        W26141  39.553  11.316  10.480
57779W        W26142  15.323   2.881  10.480
57780W        W26143  41.305  14.749   0.845
57781W        W26144  16.195  40.524  11.483
57782W        W26145  44.928  28.523  11.109
57783W        W26146   1.824  44.304   2.784
57784W        W26147  39.016  10.260  10.428
57785W        W26148  28.128  15.578  12.914
57786W        W26149  26.045  22.582  13.546
57787W        W26150   8.833  31.109   3.858
57788W        W26151  33.083  18.179   3.287
57789W        W26152  39.858  31.932   4.203
57790W        W26153   9.308  41.373   1.414
57791W        W26154   4.789   1.873  12.344
57792W        W26155   1.275  17.270  12.381
57793W        W26156   1.458  37.341  10.483
57794W        W26157  44.946  11.301  14.473
57795W        W26158  33.383  18.221  10.521
57796W        W26159  15.714  16.806   5.320
57797W        W26160  37.479  40.928   4.734
57798W        W26161   2.757   7.183   4.270
57799W        W26162  21.587   8.894  14.851
57800W        W26163   5.826  20.096  14.872
57801W        W26164   0.781  31.131   3.868
57802W        W26165  20.558  23.643   2.217
57803W        W26166  30.954  22.231  11.075
57804W        W26167  18.277  21.130   3.665
57805W        W26168   4.741   1.278  13.327
57806W        W26169   3.392  39.470   2.316
57807W        W26170  26.970  24.188   1.723
57808W        W26171   9.349   2.963  14.413
57809W        W26172  43.796  23.168  11.938
57810W        W26173   3.743  27.634  10.929
57811W        W26174   5.706  25.713  12.508
57812W        W26175  35.959  37.852   4.347
57813W        W26176   0.788  28.136  11.893
57814W        W26177  30.543  41.013  10.577
57815W        W26178  22.033  40.541   2.285
57816W        W26179  11.708  33.992  13.438
57817W        W26180  41.872   0.969   1.359
57818W        W26181  44.334  13.609   4.127
57819W        W26182  26.632  27.600  12.377
57820W        W26183  32.107  31.413   2.871
57821W        W26184  41.926  41.519   0.415
57822W        W26185  31.925  27.604   2.806
57823W        W26186  23.102  14.751   2.737
57824W        W26187  34.463  40.948   2.672
57825W        W26188  44.316  32.520   3.847
57826W        W26189  41.918  25.605   2.186
57827W        W26190  43.770  35.484   1.226
57828W        W26191  22.713  18.270  11.459
57829W        W26192   5.284  13.777   2.218
57830W        W26193  31.622  25.676  13.018
57831W        W26194   8.271   7.854   3.728
57832W        W26195  27.662  11.685   2.385
57833W        W26196   1.289  43.398   3.259
57834W        W26197  15.265   5.889  10.609
57835W        W26198   4.846   9.875   5.136
57836W        W26199  16.692  23.650  12.920
57837W        W26200  25.636  11.741  11.891
57838W        W26201  21.018  19.155  14.470
57839W        W26202  18.209   7.897  11.951
57840W        W26203  18.577  17.122   2.308
57841W        W26204  44.950   6.277  11.409
57842W        W26205  41.349  27.645  12.853
57843W        W26206  13.160  38.066   4.144
57844W        W26207  28.958  16.647  10.980
57845W        W26208   2.953  26.556   1.219
57846W        W26209  38.994   8.337  12.561
57847W        W26210  16.808  31.538   3.865
57848W        W26211   2.876  42.362   2.312
57849W        W26212  27.568  37.463  10.455
57850W        W26213   5.886  34.558   0.322
57851W        W26214  42.796  14.674   0.920
57852W        W26215  19.702  25.599   1.778
57853W        W26216  36.394   6.680  13.030
57854W        W26217  13.333  11.683  11.404
57855W        W26218   7.910  31.976  11.477
57856W        W26219  37.447  24.122   1.932
57857W        W26220   2.395   8.711   0.852
57858W        W26221  27.469  35.567  10.443
57859W        W26222  25.182  15.670   1.847
57860W        W26223  38.879  39.917   3.386
57861W        W26224  35.591  40.339  12.532
57862W        W26225   1.303  12.630  13.422
57863W        W26226  25.011  32.411   2.294
57864W        W26227  34.415  29.937   3.304
57865W        W26228  37.536  18.747  14.367
57866W        W26229  29.545  38.031   2.722
57867W        W26230  33.414  15.733   4.177
57868W        W26231  33.403  36.078  12.538
57869W        W26232  14.680  29.440  13.428
57870W        W26233  21.596  41.374   0.424
57871W        W26234  13.161  38.024   0.876
57872W        W26235  38.401  39.489   3.848
57873W        W26236  34.985  40.957  11.560
57874W        W26237   3.215   2.270   4.819
57875W        W26238  25.687  39.849   4.271
57876W        W26239  21.566  44.953  12.500
57877W        W26240  26.968   0.480  10.892
57878W        W26241   9.336  35.914  12.050
57879W        W26242  33.519  24.552   2.817
57880W        W26243   6.744  30.649  12.880
57881W        W26244  24.979  20.631   0.759
57882W        W26245  35.070  44.893   2.215
57883W        W26246  24.567  43.985   4.135
57884W        W26247   9.774  32.976   0.299
57885W        W26248  42.850  13.763   2.316
57886W        W26249  39.920  19.672   0.261
57887W        W26250  31.423   3.842   0.760
57888W        W26251  28.052  16.719  10.641
57889W        W26252  10.171  30.011  12.405
57890W        W26253  29.606  44.952  11.998
57891W        W26254  39.808  44.447  12.368
57892W        W26255  27.646  37.383  14.441
57893W        W26256   2.809   6.699  13.999
57894W        W26257  23.230  17.163  13.501
57895W        W26258   4.304  20.580  11.458
57896W        W26259  35.448  35.456  12.033
57897W        W26260  38.040  24.543   2.299
57898W        W26261  26.530  26.540   5.301
57899W        W26262  13.677  28.135   4.184
57900W        W26263   2.270  17.738   0.777
57901W        W26264  11.800  10.307  14.441
57902W        W26265  29.077  12.752   4.349
57903W        W26266  43.993  18.763  13.446
57904W        W26267  44.273   2.772   4.779
57905W        W26268  38.358   6.324  14.862
57906W        W26269   0.784  19.245  12.851
57907W        W26270  18.214  36.019   3.252
57908W        W26271   8.241  37.459  14.298
57909W        W26272  19.087  44.259  13.926
57910W        W26273  39.948   3.830  14.286
57911W        W26274   3.328  33.975   3.711
57912W        W26275   4.345   7.697   2.217
57913W        W26276  10.658  18.643  10.926
57914W        W26277  23.211  42.834  12.058
57915W        W26278  33.938  41.383   4.602
57916W        W26279  33.562  13.278  10.459
57917W        W26280  40.385  25.652  14.017
57918W        W26281  28.594  10.644  11.116
57919W        W26282  13.621  28.524   4.768
57920W        W26283  41.359  25.530   1.247
57921W        W26284   0.854   3.325  12.536
57922W        W26285  42.356   9.382  13.435
57923W        W26286   6.892  38.037   1.448
57924W        W26287  40.325   6.265  13.989
57925W        W26288  39.383  17.180   3.165
57926W        W26289   1.834  22.597  12.881
57927W        W26290  39.983  15.152  10.551
57928W        W26291   7.866   2.897   3.832
57929W        W26292  11.662   7.828  11.511
57930W        W26293  44.327   4.236  10.095
57931W        W26294  25.211  19.058  13.507
57932W        W26295  36.905  41.426   2.224
57933W        W26296  44.439  25.045   2.372
57934W        W26297  22.567   8.673   0.844
57935W        W26298  32.066  30.969   1.268
57936W        W26299  36.477  15.231  11.593
57937W        W26300   6.387  30.146  14.305
57938W        W26301  39.430   1.393   0.735
57939W        W26302  28.967  37.837   3.276
57940W        W26303  16.643  22.653   4.217
57941W        W26304  13.821  28.162   0.965
57942W        W26305  14.094  38.015   2.403
57943W        W26306  32.621  28.959   2.340
57944W        W26307   2.280   0.265   0.432
57945W        W26308  16.190  13.345  13.528
57946W        W26309  44.368   5.854   4.765
57947W        W26310   8.735   7.271   3.858
57948W        W26311  19.178  41.347  13.810
57949W        W26312  28.478  19.140  13.344
57950W        W26313   9.347   4.439   4.820
57951W        W26314   2.336   4.291  14.006
57952W        W26315   2.301  17.571  13.863
57953W        W26316  36.098   4.442  11.494
57954W        W26317   4.264  17.248  13.370
57955W        W26318   9.806  30.002   3.253
57956W        W26319   8.315   7.373   0.416
57957W        W26320  37.526  14.772  14.844
57958W        W26321   8.278  11.807  10.498
57959W        W26322  22.534   2.750  10.440
57960W        W26323  26.524   6.796   0.452
57961W        W26324  12.186  12.836  11.093
57962W        W26325  19.647  25.561   1.420
57963W        W26326   2.226  26.565   3.318
57964W        W26327  20.688  30.452  11.079
57965W        W26328   6.883  13.264  13.382
57966W        W26329  29.055   3.794   1.809
57967W        W26330  35.992  27.984  12.417
57968W        W26331  28.480  21.240  13.936
57969W        W26332  15.201  30.034  13.925
57970W        W26333  39.976  41.804  12.548
57971W        W26334  16.088  31.450   4.208
57972W        W26335  29.467  33.533  14.788
57973W        W26336  20.628  15.578   2.790
57974W        W26337  34.003  34.009   1.260
57975W        W26338  33.055  35.393  13.892
57976W        W26339  16.211  16.587  14.813
57977W        W26340  44.786  15.312   4.741
57978W        W26341   5.250  17.558  10.512
57979W        W26342  24.560  36.863  11.463
57980W        W26343  31.467   4.416   3.669
57981W        W26344  21.065  31.646  10.623
57982W        W26345  29.526  35.359   1.309
57983W        W26346  28.466  20.107  11.559
57984W        W26347  10.169  13.251  11.066
57985W        W26348  24.004  34.096  11.385
57986W        W26349  37.432  25.991   4.831
57987W        W26350   8.847  33.500   3.674
57988W        W26351  35.906  22.189   4.288
57989W        W26352  25.523  21.529  14.806
57990W        W26353  24.595   5.229  14.976
57991W        W26354  12.695   2.778   3.647
57992W        W26355  26.954  31.561  12.914
57993W        W26356  37.442  44.926  13.843
57994W        W26357  22.724  23.016   1.338
57995W        W26358  34.464  21.021  13.355
57996W        W26359  44.938  36.871   2.842
57997W        W26360  28.015  31.910   5.296
57998W        W26361   6.894  36.896   1.329
57999W        W26362  35.591   4.328   1.887
58000W        W26363  19.215  11.167   2.410
58001W        W26364  36.347   2.880   0.741
58002W        W26365   6.419  24.695   2.252
58003W        W26366  25.645   3.239   4.659
58004W        W26367  27.647  36.373  11.904
58005W        W26368  27.530   5.372  11.882
58006W        W26369  22.161  13.806   2.335
58007W        W26370  28.998   3.813   1.410
58008W        W26371   6.710  16.262  13.402
58009W        W26372  19.588  28.046  10.444
58010W        W26373   9.750  20.034  11.545
58011W        W26374  35.433  38.549   4.275
58012W        W26375   4.254  16.658  14.333
58013W        W26376   2.443  38.930   4.326
58014W        W26377  16.151  28.556   1.419
58015W        W26378  32.525   2.432   1.223
58016W        W26379  23.046   8.336  13.456
58017W        W26380  23.714  17.296  12.998
58018W        W26381  21.624  17.666   0.905
58019W        W26382   2.864  29.067  10.428
58020W        W26383  10.269  19.071  13.805
58021W        W26384  25.685  42.907  13.381
58022W        W26385   2.249  10.193   5.143
58023W        W26386  26.656   8.783   4.690
58024W        W26387  17.649  40.413   1.385
58025W        W26388  27.567  13.296   9.977
58026W        W26389  17.245  21.715   2.369
58027W        W26390  18.774  17.680  13.818
58028W        W26391  14.716   7.886   0.914
58029W        W26392  44.484  31.990   4.249
58030W        W26393  33.060   6.880   0.351
58031W        W26394  34.098  16.616   2.352
58032W        W26395  26.631  43.772   0.446
58033W        W26396  24.629  14.794  12.478
58034W        W26397   3.709  21.030  11.490
58035W        W26398  31.639  18.251   0.870
58036W        W26399  15.320   3.351  10.903
58037W        W26400  42.013   2.316   1.832
58038W        W26401  34.547  31.622   1.711
58039W        W26402  38.488  16.151   2.772
58040W        W26403  40.482  14.247  11.502
58041W        W26404   6.807  28.184  11.952
58042W        W26405  12.315   6.867  12.996
58043W        W26406  41.444  14.171  11.497
58044W        W26407  22.092  42.389  12.522
58045W        W26408  16.698  39.875   0.267
58046W        W26409  22.712  25.561   4.340
58047W        W26410  10.729  28.161   1.913
58048W        W26411  40.333  14.628   1.341
58049W        W26412   0.914  35.389   3.192
58050W        W26413  29.041   7.263   2.374
58051W        W26414  22.252  13.315  14.278
58052W        W26415  37.565  31.136  10.548
58053W        W26416   2.322  41.900  12.884
58054W        W26417  25.076  18.606   2.714
58055W        W26418  42.367   3.829  12.567
58056W        W26419  18.066  22.106  12.399
58057W        W26420   0.810   3.758  12.876
58058W        W26421   9.366   6.250  11.091
58059W        W26422  43.904  27.477  14.425
58060W        W26423  33.918  36.547   0.337
58061W        W26424  39.379  11.242  12.923
58062W        W26425  10.744  29.474   0.952
58063W        W26426  14.637  22.077  11.466
58064W        W26427   0.831  39.036  13.859
58065W        W26428   0.423  25.510   2.743
58066W        W26429  26.677  37.972  13.961
58067W        W26430  20.174  36.909   2.353
58068W        W26431  28.574  37.409  14.392
58069W        W26432  38.357   5.205  10.433
58070W        W26433  22.673  34.525   1.742
58071W        W26434  12.809  12.261  10.565
58072W        W26435  13.315  37.983   0.308
58073W        W26436  38.863  43.858  10.559
58074W        W26437  42.870  20.190   3.324
58075W        W26438  16.308  40.043  11.873
58076W        W26439  20.566  44.362   2.243
58077W        W26440  32.936   8.836   2.831
58078W        W26441  28.610   5.289  13.873
58079W        W26442  21.021  44.951   2.739
58080W        W26443   2.904  32.929  14.494
58081W        W26444  14.827  13.331   3.769
58082W        W26445  42.001  35.911   9.998
58083W        W26446  15.202  35.414   4.172
58084W        W26447  23.138  27.011   1.287
58085W        W26448   2.282  27.526   4.724
58086W        W26449  12.294  35.528   4.240
58087W        W26450  27.182   2.319  10.596
58088W        W26451  12.291   4.854   2.775
58089W        W26452  24.161  41.313   0.341
58090W        W26453  19.074  40.031   1.790
58091W        W26454  38.837  43.809  11.885
58092W        W26455  11.236  11.193  11.457
58093W        W26456  24.981  19.125   4.320
58094W        W26457  35.486  20.623  11.098
58095W        W26458  18.774  41.376  13.825
58096W        W26459   1.865  38.515  13.878
58097W        W26460  33.943  30.425   4.325
58098W        W26461   7.878  42.922  13.827
58099W        W26462  22.117  42.864  12.015
58100W        W26463  10.878  33.025   2.679
58101W        W26464  37.081   6.771   1.886
58102W        W26465  36.849  35.066   3.231
58103W        W26466  15.289  24.020   1.714
58104W        W26467  19.060  37.840   1.916
58105W        W26468  44.363  11.192  13.334
58106W        W26469   3.927   1.453  13.913
58107W        W26470  17.672  32.981  14.941
58108W        W26471   0.375   6.405   4.239
58109W        W26472   4.444  34.918  14.760
58110W        W26473  11.812  43.301  11.948
58111W        W26474  35.096   0.461  14.016
58112W        W26475   1.773   3.948   0.336
58113W        W26476  36.097  32.055   4.804
58114W        W26477  27.078  40.870   4.808
58115W        W26478  19.108  35.418  12.518
58116W        W26479   2.901  41.293   4.737
58117W        W26480  20.247  14.106   3.720
58118W        W26481   5.331  30.156   0.481
58119W        W26482  43.962   8.815   3.713
58120W        W26483  34.117  32.903  11.595
58121W        W26484  10.379  24.032  12.845
58122W        W26485  10.669   2.724  10.980
58123W        W26486  22.018  17.223   2.293
58124W        W26487  31.017   9.199   0.820
58125W        W26488  28.946  36.005  12.075
58126W        W26489  41.900  10.168  11.420
58127W        W26490  42.984  40.830   3.370
58128W        W26491   9.785  16.197   3.787
58129W        W26492  20.646  10.788  10.542
58130W        W26493   5.256  42.910  14.483
58131W        W26494  30.093  33.598   0.938
58132W        W26495   2.737  42.900   4.598
58133W        W26496  40.378   4.791   3.222
58134W        W26497  24.662   3.740  13.791
58135W        W26498   1.323  10.656  14.364
58136W        W26499   9.756  38.394  12.573
58137W        W26500  43.834  25.179  14.505
58138W        W26501  31.107  42.442  14.948
58139W        W26502  42.398  32.408  13.930
58140W        W26503  34.594  37.562   1.850
58141W        W26504   9.314  24.127   4.778
58142W        W26505  39.969  29.067  12.513
58143W        W26506  42.797  33.930  12.358
58144W        W26507  38.821  13.726  12.884
58145W        W26508   9.643   6.737   1.369
58146W        W26509  28.936  23.985   4.170
58147W        W26510  31.536  36.556  13.855
58148W        W26511  13.238   6.702   0.915
58149W        W26512  20.748  24.580  12.864
58150W        W26513  44.918  27.510  14.760
58151W        W26514  19.582   3.837   1.360
58152W        W26515  22.671  40.438  14.896
58153W        W26516  26.464  35.101   5.315
58154W        W26517   6.187  28.569  11.592
58155W        W26518  29.163  12.642   2.739
58156W        W26519  12.753  17.648   2.227
58157W        W26520  12.661  24.088   4.783
58158W        W26521  17.663  33.068   1.922
58159W        W26522  20.069  43.383  11.536
58160W        W26523   9.743  25.106   1.732
58161W        W26524   3.940  32.929   2.398
58162W        W26525  31.920  15.283  10.573
58163W        W26526   9.215  13.730  10.425
58164W        W26527  36.488  26.037   3.762
58165W        W26528  18.633  22.171  12.897
58166W        W26529  33.050  12.319  12.831
58167W        W26530  31.622  20.583   3.376
58168W        W26531  36.941  13.741  13.055
58169W        W26532  14.737  42.400   2.856
58170W        W26533   5.307  21.704  11.491
58171W        W26534  24.698  20.748   0.325
58172W        W26535  36.425  44.384  10.084
58173W        W26536  26.184   4.873   0.846
58174W        W26537  17.683  20.152   4.236
58175W        W26538  29.472  37.023  13.967
58176W        W26539  26.541  42.526  13.391
58177W        W26540  41.400   9.329   4.346
58178W        W26541  38.957  11.842   0.474
58179W        W26542  30.577  25.678  12.866
58180W        W26543  40.475  42.828  14.985
58181W        W26544  10.141  12.675   4.628
58182W        W26545   5.400  25.586  11.080
58183W        W26546  37.065  25.482  14.481
58184W        W26547   7.417  38.455   0.415
58185W        W26548   7.785  28.950   4.650
58186W        W26549  13.612  15.662  14.401
58187W        W26550   6.720  34.504  12.533
58188W        W26551   4.411  40.457   2.416
58189W        W26552  30.581  44.394   0.780
58190W        W26553  34.108  29.994  14.949
58191W        W26554  10.203  32.469   4.792
58192W        W26555  42.444  35.539   0.861
58193W        W26556  34.598  31.499   4.808
58194W        W26557  28.025  30.035  10.942
58195W        W26558  34.890  31.437  13.826
58196W        W26559   0.249  26.161   1.784
58197W        W26560  29.972  21.598   2.666
58198W        W26561  37.473  35.858   1.401
58199W        W26562  44.782  20.768   0.312
58200W        W26563  44.347  21.028  11.429
58201W        W26564   7.241  42.956   1.240
58202W        W26565  11.797  34.454   3.151
58203W        W26566   4.313  24.206  14.933
58204W        W26567  37.433   5.844   4.322
58205W        W26568  14.810  29.156  10.917
58206W        W26569   1.955  15.134  12.894
58207W        W26570  36.095  12.205  11.080
58208W        W26571   0.898  37.462  12.557
58209W        W26572  41.802  10.374   0.881
58210W        W26573  23.730  12.356   0.471
58211W        W26574  30.928   4.445  13.509
58212W        W26575  37.926  12.781   2.870
58213W        W26576  16.156  26.987  14.881
58214W        W26577  22.628  29.102   3.250
58215W        W26578  36.402  33.526  13.348
58216W        W26579  33.874  28.573   0.342
58217W        W26580   3.459  17.728   1.815
58218W        W26581  37.082  22.029  13.852
58219W        W26582   4.277   0.412   2.867
58220W        W26583  31.507  11.791   0.423
58221W        W26584  23.640  11.272  14.324
58222W        W26585  16.666   2.889  13.347
58223W        W26586  37.418   9.370   2.289
58224W        W26587   5.912  13.249   2.735
58225W        W26588  34.923  33.976   4.237
58226W        W26589  37.370   4.824   3.169
58227W        W26590  16.111  12.259  12.915
58228W        W26591  17.797  41.040  11.470
58229W        W26592  42.388   4.925   2.239
58230W        W26593  33.600  27.506   3.215
58231W        W26594  30.019  41.342   3.382
58232W        W26595  16.606  27.164   4.152
58233W        W26596  39.022  38.532   1.768
58234W        W26597  34.467  32.582  13.822
58235W        W26598   5.196   7.394  11.436
58236W        W26599  24.069  18.274  14.985
58237W        W26600  44.279  36.927   4.680
58238W        W26601  44.816  42.350   2.184
58239W        W26602  33.476   6.836   0.814
58240W        W26603  44.315  38.921  14.320
58241W        W26604  43.493  28.613  10.619
58242W        W26605  11.799   7.337   4.704
58243W        W26606  24.540  19.079  10.951
58244W        W26607  13.625  36.510   3.639
58245W        W26608  42.415  43.424  11.550
58246W        W26609  39.448  37.383   0.768
58247W        W26610   3.890  35.856   0.792
58248W        W26611   6.745   0.256  14.973
58249W        W26612  20.192   7.784   4.263
58250W        W26613  38.862  44.810  11.433
58251W        W26614   7.895  35.869  10.479
58252W        W26615  24.114   4.430   2.668
58253W        W26616  28.579  43.386  12.898
58254W        W26617  16.687  30.434   3.773
58255W        W26618   7.777  39.048  10.053
58256W        W26619  28.111  24.102  12.435
58257W        W26620   6.310  41.917  14.506
58258W        W26621  12.659  29.985   3.846
58259W        W26622  27.080  19.194  11.043
58260W        W26623  38.025   4.212  11.860
58261W        W26624  23.512  37.998  12.376
58262W        W26625  11.787   0.272   4.723
58263W        W26626  27.128  40.962  12.088
58264W        W26627  10.205  33.962   2.399
58265W        W26628  20.103  23.204  14.406
58266W        W26629   2.753  27.512  10.909
58267W        W26630  40.393  40.996  10.576
58268W        W26631  24.094   8.259  10.405
58269W        W26632  34.105  39.340  10.546
58270W        W26633  26.541   0.360   3.363
58271W        W26634  22.610  40.988  12.420
58272W        W26635  33.524  25.705   0.731
58273W        W26636  27.175  23.523   3.753
58274W        W26637  30.052  17.685   1.221
58275W        W26638  21.028  13.777   0.414
58276W        W26639  40.989  16.704   3.386
58277W        W26640   9.204  24.109   2.337
58278W        W26641  30.073  29.610   1.828
58279W        W26642  22.012  37.067   0.811
58280W        W26643  33.608  25.478   1.212
58281W        W26644  14.255  35.479  12.903
58282W        W26645  29.660  23.698   5.087
58283W        W26646  20.134  27.453  11.449
58284W        W26647  31.938  20.246  12.475
58285W        W26648  11.134  41.872   3.865
58286W        W26649   3.761   2.409   2.231
58287W        W26650  23.010  14.689  12.384
58288W        W26651   1.482  38.537  12.452
58289W        W26652  27.064  27.581   2.288
58290W        W26653  21.185  42.486   3.271
58291W        W26654  21.242  40.024  11.552
58292W        W26655   3.447  41.426  11.108
58293W        W26656   5.326  28.043  12.574
58294W        W26657   0.840  14.816   4.814
58295W        W26658   5.835  34.872   3.806
58296W        W26659  11.202  15.662   5.302
58297W        W26660  32.112  27.942   0.285
58298W        W26661  35.960  20.105  11.475
58299W        W26662  10.240  18.153  13.831
58300W        W26663   3.788  31.587  12.444
58301W        W26664  28.616   2.792  13.486
58302W        W26665   3.218  20.631  13.854
58303W        W26666  18.284  38.936  10.643
58304W        W26667  42.939   9.657  13.463
58305W        W26668  21.027  14.197   4.661
58306W        W26669  13.842  21.629   3.697
58307W        W26670  20.155  19.576   4.785
58308W        W26671  20.142  24.039   0.953
58309W        W26672  34.042  23.061  13.959
58310W        W26673  26.181   0.902   0.325
58311W        W26674   8.656  36.558   3.283
58312W        W26675  16.224  27.195  12.023
58313W        W26676  32.117  28.037   5.151
58314W        W26677   7.224  25.582   0.460
58315W        W26678  30.440  38.833   1.367
58316W        W26679  33.517  10.687   3.270
58317W        W26680  16.707  31.003   2.291
58318W        W26681  14.697   1.437   0.932
58319W        W26682  19.566  21.754   3.812
58320W        W26683  25.146  26.154  10.637
58321W        W26684   0.432  26.049  14.018
58322W        W26685  16.132  43.008   0.944
58323W        W26686  29.540   0.856  14.340
58324W        W26687  12.341  12.315  12.505
58325W        W26688  34.509  15.136  14.974
58326W        W26689   1.834  22.053   4.141
58327W        W26690  39.941  24.000   3.854
58328W        W26691   0.809  39.975  11.066
58329W        W26692  26.656  32.103  14.339
58330W        W26693  16.796  27.455  11.484
58331W        W26694   7.730  21.523  14.304
58332W        W26695  37.837   7.833  11.108
58333W        W26696  13.842  12.151   3.294
58334W        W26697  17.762  42.893   2.875
58335W        W26698  11.623  44.496   1.219
58336W        W26699  41.800  42.491   0.365
58337W        W26700  18.265   8.755   4.123
58338W        W26701   1.460  30.124   2.230
58339W        W26702   9.185  19.653  11.610
58340W        W26703  19.073  30.154  13.836
58341W        W26704  16.287   7.213   2.882
58342W        W26705  32.509   9.342   0.762
58343W        W26706   0.809  41.821  14.506
58344W        W26707   9.786  35.374   4.698
58345W        W26708   7.747  14.279  11.596
58346W        W26709  11.709  22.162   4.804
58347W        W26710   1.791   0.784   1.789
58348W        W26711  26.684  21.036   4.765
58349W        W26712   6.273  33.432   5.147
58350W        W26713  21.536  40.498  12.029
58351W        W26714  26.539  23.182  14.959
58352W        W26715   9.176   7.171  10.951
58353W        W26716  30.657  19.553   4.179
58354W        W26717  18.233  23.496  10.471
58355W        W26718   2.290   9.872  14.413
58356W        W26719  20.581   8.807   2.321
58357W        W26720  21.179  33.012  12.915
58358W        W26721  21.112  44.461  13.506
58359W        W26722  11.708  37.407  13.326
58360W        W26723  37.992  21.027  10.144
58361W        W26724  24.044  19.592  13.804
58362W        W26725  15.154  37.904  14.963
58363W        W26726  38.971  36.521  11.991
58364W        W26727  19.711  35.513  13.874
58365W        W26728   2.436  24.695   0.316
58366W        W26729  35.415  29.506   2.189
58367W        W26730  34.077  13.111   4.293
58368W        W26731  30.103  35.475   0.863
58369W        W26732  30.577   5.289   4.163
58370W        W26733  43.838  34.977  14.977
58371W        W26734   8.350   7.722  12.913
58372W        W26735   2.266   2.427   2.765
58373W        W26736  14.830   6.268  12.440
58374W        W26737  38.864  21.651  10.551
58375W        W26738  35.972  23.239  14.817
58376W        W26739  29.545  16.688   2.758
58377W        W26740  44.333  37.479  14.488
58378W        W26741   5.262  29.099  11.459
58379W        W26742  39.015  38.013  11.410
58380W        W26743  32.571  38.877  11.520
58381W        W26744  23.008  34.513  10.406
58382W        W26745  41.413  28.501   2.266
58383W        W26746  25.612  10.814  13.798
58384W        W26747  24.099  38.863   4.118
58385W        W26748  21.745  28.001  13.414
58386W        W26749   3.742   9.152  10.496
58387W        W26750   9.351  14.100  10.957
58388W        W26751  44.351  39.975  11.987
58389W        W26752  40.446  17.232  10.993
58390W        W26753   3.413  40.858   2.780
58391W        W26754  32.096   1.366   3.643
58392W        W26755  24.607   6.828   4.727
58393W        W26756  21.746  17.624   1.731
58394W        W26757  38.331  25.106   0.831
58395W        W26758  30.981   9.838   1.315
58396W        W26759  43.843  38.540   3.784
58397W        W26760  11.676  11.717   4.611
58398W        W26761  22.647  31.979   0.276
58399W        W26762  39.855   2.962   3.332
58400W        W26763  44.336  42.970  11.372
58401W        W26764  26.546   3.455  14.012
58402W        W26765   1.409  36.924  12.994
58403W        W26766  13.201   2.247  13.849
58404W        W26767   6.693  16.121  11.436
58405W        W26768  17.169  11.337   3.735
58406W        W26769  21.046  44.447   0.478
58407W        W26770  39.473   9.849  11.541
58408W        W26771  24.040  17.631   2.257
58409W        W26772  41.460  15.782  12.853
58410W        W26773  42.479  35.964   2.713
58411W        W26774  33.446   4.729  11.528
58412W        W26775  26.687  35.090   4.809
58413W        W26776   9.838   9.257   2.669
58414W        W26777  17.187  31.917   5.151
58415W        W26778  23.984  39.931   3.185
58416W        W26779   7.695  27.044  12.835
58417W        W26780  44.782  38.998   3.280
58418W        W26781  43.798  28.161  13.059
58419W        W26782  28.060  40.987  12.040
58420W        W26783  30.464   5.737  14.306
58421W        W26784   4.207  26.612   2.859
58422W        W26785  20.561  10.774   0.245
58423W        W26786  24.543  18.161  13.463
58424W        W26787  25.174  25.187  13.867
58425W        W26788   5.348  32.580  12.996
58426W        W26789  40.336  23.597   4.172
58427W        W26790  16.782  42.777   3.825
58428W        W26791   7.363  27.549  10.951
58429W        W26792   4.777  31.128   0.334
58430W        W26793  30.486  20.147   4.323
58431W        W26794   9.667   2.952   0.936
58432W        W26795  17.688  33.058   3.168
58433W        W26796  44.003  14.740  12.999
58434W        W26797   2.463  27.069  12.949
58435W        W26798  44.830  36.420   1.897
58436W        W26799  18.547  25.201  11.881
58437W        W26800  19.212  33.493   1.378
58438W        W26801  19.269  21.579  10.476
58439W        W26802  34.870  44.305   2.244
58440W        W26803   3.747  38.834  12.968
58441W        W26804   4.748  26.961  12.048
58442W        W26805  28.972  38.540  14.810
58443W        W26806  33.537  42.299  14.305
58444W        W26807   2.369  26.566  10.471
58445W        W26808  34.436  16.196   1.391
58446W        W26809  29.008  11.271  11.553
58447W        W26810  21.722  17.197  13.935
58448W        W26811   7.232  34.373   0.939
58449W        W26812  20.098   7.292   1.746
58450W        W26813  10.257  39.910  12.437
58451W        W26814  41.475  11.724   1.822
58452W        W26815  19.275   7.822  13.909
58453W        W26816  30.444   1.451  10.600
58454W        W26817  42.445  35.899  12.898
58455W        W26818   8.161  19.729  13.050
58456W        W26819   8.849  32.410  13.411
58457W        W26820  21.061  40.864   0.472
58458W        W26821  26.549  37.985   0.862
58459W        W26822  26.073  40.400  12.473
58460W        W26823  16.598  16.257   0.373
58461W        W26824   9.715  27.508  10.512
58462W        W26825   3.374  32.953   4.667
58463W        W26826  30.498  13.190  14.864
58464W        W26827  19.691  28.600  11.083
58465W        W26828  43.276   9.690   2.390
58466W        W26829  20.125  32.894  12.366
58467W        W26830   4.238  31.507  13.399
58468W        W26831  27.534  31.580  13.332
58469W        W26832  39.056  16.149  10.427
58470W        W26833  21.650  43.393  13.425
58471W        W26834  11.738  24.098   1.777
58472W        W26835  34.384  34.071  12.466
58473W        W26836  42.304  37.339  11.381
58474W        W26837   6.824  12.281  13.456
58475W        W26838   0.831  30.112  13.345
58476W        W26839  40.454   9.855  12.406
58477W        W26840  42.510  40.386   3.297
58478W        W26841  32.080  37.375  13.357
58479W        W26842  11.859  24.067   2.288
58480W        W26843  25.558  27.179  10.958
58481W        W26844   7.223  38.069   3.780
58482W        W26845  34.912   3.800  12.862
58483W        W26846   2.760  35.435   2.268
58484W        W26847   2.404  37.511  13.492
58485W        W26848  24.486   9.663   4.169
58486W        W26849  35.393  44.360  12.413
58487W        W26850  40.919  39.350   0.775
58488W        W26851  23.056  34.894   1.344
58489W        W26852  26.075  21.082  11.044
58490W        W26853  31.017  41.472  14.419
58491W        W26854  37.388  21.246   0.918
58492W        W26855  13.276   8.247  12.377
58493W        W26856  21.063  29.992   3.737
58494W        W26857   0.768  33.900   4.621
58495W        W26858  23.170   1.807   1.329
58496W        W26859  41.402  36.936   3.346
58497W        W26860  25.152   2.257   4.784
58498W        W26861  38.325  11.847   0.829
58499W        W26862  15.108  16.658  14.832
58500W        W26863  30.639  11.804   2.692
58501W        W26864  21.167  36.593   2.404
58502W        W26865   7.292  26.483   2.755
58503W        W26866  44.494  31.125   0.360
58504W        W26867   1.383  40.804  13.385
58505W        W26868  32.930  22.560  14.852
58506W        W26869  22.698  37.932   1.882
58507W        W26870  40.440  30.533  10.564
58508W        W26871  26.680  30.020   1.704
58509W        W26872  11.861  33.065  13.982
58510W        W26873   9.252  29.966   2.709
58511W        W26874  44.307  10.754   0.935
58512W        W26875  43.948   8.183   2.355
58513W        W26876   6.879  40.008  10.608
58514W        W26877   0.370  20.272  14.361
58515W        W26878  23.993  36.941  11.041
58516W        W26879  39.814   5.397  11.969
58517W        W26880  23.072  13.316  13.834
58518W        W26881   1.453  30.520  12.412
58519W        W26882  40.898  23.515  13.503
58520W        W26883  24.077  18.604  13.415
58521W        W26884  34.540  13.310   4.597
58522W        W26885  28.436  26.590   3.797
58523W        W26886   8.815  38.419  12.512
58524W        W26887  38.332  24.174   3.820
58525W        W26888   6.347  27.145   1.263
58526W        W26889   8.833   2.308  10.571
58527W        W26890  27.485   8.824   0.248
58528W        W26891  44.900  30.592  10.478
58529W        W26892  19.254  39.055   2.829
58530W        W26893   8.772   2.763   3.806
58531W        W26894   0.391  31.605   2.825
58532W        W26895  16.219  33.625  11.558
58533W        W26896   9.352   1.818   4.199
58534W        W26897  39.854  10.242   5.259
58535W        W26898  17.648  40.927   1.349
58536W        W26899  23.635  39.377  12.976
58537W        W26900  21.589  15.664   1.295
58538W        W26901  41.535  25.107   3.816
58539W        W26902  28.053  11.777  14.862
58540W        W26903  44.792  44.387  14.335
58541W        W26904  27.100   6.296  10.997
58542W        W26905  32.926   6.886  10.624
58543W        W26906   7.733  33.116  10.536
58544W        W26907  35.989  27.543  11.000
58545W        W26908  11.164  43.287  13.834
58546W        W26909   2.284  33.131   1.855
58547W        W26910  25.692  32.129  10.547
58548W        W26911  36.565   3.931   2.770
58549W        W26912   3.370   8.819  14.984
58550W        W26913  41.466  21.693   3.839
58551W        W26914  40.841  36.389  14.420
58552W        W26915  22.506  33.379  11.893
58553W        W26916  33.466  13.835  11.911
58554W        W26917   9.212  11.314   0.452
58555W        W26918  41.337  36.097   2.791
58556W        W26919  15.210   8.349  12.468
58557W        W26920  30.062   3.280   4.839
58558W        W26921   5.329  10.166   4.759
58559W        W26922  12.634  34.591   2.666
58560W        W26923  29.117   4.214   1.710
58561W        W26924  11.683   5.402  14.969
58562W        W26925  39.316  15.083   1.771
58563W        W26926   8.369   5.738  10.449
58564W        W26927  10.352  43.493   4.817
58565W        W26928  41.346  18.631   4.302
58566W        W26929  13.605  35.409  12.382
58567W        W26930  34.883  33.599  11.399
58568W        W26931   0.481   5.711  14.303
58569W        W26932  16.658  21.211  13.999
58570W        W26933  40.341  22.143   1.783
58571W        W26934  42.507  18.782  14.459
58572W        W26935  28.448  42.300  10.901
58573W        W26936  18.279  10.147   5.242
58574W        W26937   3.764  21.076   0.845
58575W        W26938  23.174  40.944   3.304
58576W        W26939   0.978  38.947   4.839
58577W        W26940  25.143  18.791  12.951
58578W        W26941  26.952  29.933   0.390
58579W        W26942  26.164  22.998   0.382
58580W        W26943  29.047   4.721  11.998
58581W        W26944  15.090  42.455  14.394
58582W        W26945   1.337  36.991  11.402
58583W        W26946  35.360  24.693   4.274
58584W        W26947  29.605  34.930   0.917
58585W        W26948  27.959  28.951   3.191
58586W        W26949  32.432  28.593   5.187
58587W        W26950  43.493  27.040   1.818
58588W        W26951  20.089  37.854   3.788
58589W        W26952   3.849   5.326   1.437
58590W        W26953   3.864  29.567   2.359
58591W        W26954   8.230  19.226   4.335
58592W        W26955  43.867  38.423   5.654
58593W        W26956  12.710   4.434  12.985
58594W        W26957  12.220  29.949  14.292
58595W        W26958  26.208  11.797   0.908
58596W        W26959   4.883  25.121  10.639
58597W        W26960  32.993   6.418  12.418
58598W        W26961  23.003   9.651  12.936
58599W        W26962  27.521   9.723   2.351
58600W        W26963   7.761   8.259  11.477
58601W        W26964  33.066  27.174  14.397
58602W        W26965  44.948  10.816  12.973
58603W        W26966  18.220  20.254  13.967
58604W        W26967  16.645   6.403  12.012
58605W        W26968   7.178  41.848   4.789
58606W        W26969   6.296  10.853   0.248
58607W        W26970  24.078   9.810   1.751
58608W        W26971  27.982  40.534  14.900
58609W        W26972  24.010  42.289   1.932
58610W        W26973  42.291  21.176   0.354
58611W        W26974  25.081   7.719  10.606
58612W        W26975  34.043  35.906  14.836
58613W        W26976  17.706   5.392  11.877
58614W        W26977  30.068  20.732  11.975
58615W        W26978   1.831  28.074  13.046
58616W        W26979  28.468   0.419  13.453
58617W        W26980   8.334   3.895   2.895
58618W        W26981  13.752   0.845  14.817
58619W        W26982  43.293  29.433   1.740
58620W        W26983  24.498  17.609   2.719
58621W        W26984   6.735   8.181   3.336
58622W        W26985  35.860  24.198  11.536
58623W        W26986  29.602  19.104   0.877
58624W        W26987  44.473  42.012   3.314
58625W        W26988  34.467  33.450   0.867
58626W        W26989   7.769   5.890   1.240
58627W        W26990  38.865  24.990   5.210
58628W        W26991  27.586  42.877  14.805
58629W        W26992  31.513  35.369   2.676
58630W        W26993  11.296  38.402  10.987
58631W        W26994  38.820   3.715   2.684
58632W        W26995   1.443  32.991   3.334
58633W        W26996  14.175  40.351   0.327
58634W        W26997  44.892  26.975  12.867
58635W        W26998  32.885  10.164  10.976
58636W        W26999  37.877  19.216   3.300
58637W        W27000  27.106   8.830   3.681
58638W        W27001  36.501  24.109   3.372
58639W        W27002   1.781  10.696  11.495
58640W        W27003  22.602  18.585  12.841
58641W        W27004   8.807  43.299   2.880
58642W        W27005  10.668   9.377   3.250
58643W        W27006  29.101  28.538  13.842
58644W        W27007  28.670  35.006   2.391
58645W        W27008  28.519   5.331  12.500
58646W        W27009  44.920   6.846  12.518
58647W        W27010  23.997  37.060  12.526
58648W        W27011  32.978  19.656   3.239
58649W        W27012  38.542  31.063   0.765
58650W        W27013  17.102  38.362   1.698
58651W        W27014   3.255  36.843   4.120
58652W        W27015  12.294  12.265  11.970
58653W        W27016  11.245  32.141  11.034
58654W        W27017  40.819  32.594  13.460
58655W        W27018  16.765  36.056   2.411
58656W        W27019  27.043  30.574  14.980
58657W        W27020  17.590   3.953   0.355
58658W        W27021  22.735  30.035  11.077
58659W        W27022   5.875   4.361  11.401
58660W        W27023  22.208   5.916   1.253
58661W        W27024  37.493  14.200   3.289
58662W        W27025  43.495  42.487  13.497
58663W        W27026  26.980  13.794   4.235
58664W        W27027  43.484  15.129   0.758
58665W        W27028  25.652   9.337  11.982
58666W        W27029  36.445   9.668   3.790
58667W        W27030   7.897   6.886  13.430
58668W        W27031  19.548  16.812   0.368
58669W        W27032   3.940  37.576   5.304
58670W        W27033   8.825  44.463  12.826
58671W        W27034  44.785  19.222   1.255
58672W        W27035  44.395   1.380  13.527
58673W        W27036  34.066   8.856  12.550
58674W        W27037  19.173  10.289   2.795
58675W        W27038   6.690  24.605   0.894
58676W        W27039   5.439  25.210   1.735
58677W        W27040  25.994  17.217  12.864
58678W        W27041  22.201  38.880   3.151
58679W        W27042  23.234   9.382  10.961
58680W        W27043  32.464  36.090   0.773
58681W        W27044  23.129  21.629  12.399
58682W        W27045  42.915  21.524  13.048
58683W        W27046  40.035  38.563   1.242
58684W        W27047  25.658  21.248  13.899
58685W        W27048   7.402   9.150   1.399
58686W        W27049  37.374   2.279  13.974
58687W        W27050  35.479  37.463  14.445
58688W        W27051   3.246  13.139   3.816
58689W        W27052  15.658  19.705   3.812
58690W        W27053  35.593   6.406  10.490
58691W        W27054   3.812  34.066   0.347
58692W        W27055  26.691   6.781   1.739
58693W        W27056   5.255  15.137   0.328
58694W        W27057  31.635  11.218  12.004
58695W        W27058   3.438  41.818  12.875
58696W        W27059   8.698   7.284  14.481
58697W        W27060   0.881  37.858   0.864
58698W        W27061  25.042  33.022  12.829
58699W        W27062  26.635  32.988   3.174
58700W        W27063   1.446  17.207  13.480
58701W        W27064  36.853  15.822  10.433
58702W        W27065  32.025   8.845  13.010
58703W        W27066  19.698  35.978   4.252
58704W        W27067  23.036  14.749  11.516
58705W        W27068  24.196  33.490  10.889
58706W        W27069   4.716  38.394  13.833
58707W        W27070  32.602   0.763   0.412
58708W        W27071  15.223   8.302  12.879
58709W        W27072  33.085  33.605  10.059
58710W        W27073  12.254   8.213  12.880
58711W        W27074  23.730  20.196  12.371
58712W        W27075  34.906  14.602   2.746
58713W        W27076  38.499   2.907  14.864
58714W        W27077  28.542  26.076  14.479
58715W        W27078  37.531  27.035   4.804
58716W        W27079  18.170  13.737  12.921
58717W        W27080  40.029   2.241  14.312
58718W        W27081  39.021  38.999  13.351
58719W        W27082   2.385   1.973   1.273
58720W        W27083  39.907  21.551  13.360
58721W        W27084  21.159  42.995  10.408
58722W        W27085  24.617  11.366  14.911
58723W        W27086  36.550  44.421  14.883
58724W        W27087  12.141  26.478   4.285
58725W        W27088  41.384  41.526  10.446
58726W        W27089   4.759  42.514   4.212
58727W        W27090  44.331  32.960  10.485
58728W        W27091   7.401  19.265  13.999
58729W        W27092  23.189  42.448  10.574
58730W        W27093  42.523  26.077   1.219
58731W        W27094  11.754  28.553   4.207
58732W        W27095  42.433   4.411   0.254
58733W        W27096  14.232   1.928  11.920
58734W        W27097  38.045  14.731   2.798
58735W        W27098  27.557   8.801   0.954
58736W        W27099  31.110  37.471   3.830
58737W        W27100   3.445  23.100  11.403
58738W        W27101  40.338  29.123  10.066
58739W        W27102  15.170  33.056   1.706
58740W        W27103  14.273  40.399  13.025
58741W        W27104  20.766  41.896   1.776
58742W        W27105   5.228  16.291   1.790
58743W        W27106   0.367   9.690   1.294
58744W        W27107  17.558   3.334  14.009
58745W        W27108  22.703  39.931   2.367
58746W        W27109  13.677  20.143   0.858
58747W        W27110  10.743  33.931  14.799
58748W        W27111  33.094  15.615  14.958
58749W        W27112   6.320  17.683   4.181
58750W        W27113  30.919   9.358  12.023
58751W        W27114  36.445  42.958  11.540
58752W        W27115  11.657   3.250   1.274
58753W        W27116  33.031   6.219   0.370
58754W        W27117  21.085  25.575   0.817
58755W        W27118   1.942  33.071   2.214
58756W        W27119  23.503   0.858  10.523
58757W        W27120  20.637  10.228  12.370
58758W        W27121  36.384  21.050   2.311
58759W        W27122  28.001  25.485  13.330
58760W        W27123  35.372  37.504   2.869
58761W        W27124  23.997  33.081  12.459
58762W        W27125   5.880   6.266   1.697
58763W        W27126  32.123  15.189   4.148
58764W        W27127  41.521   5.706   2.901
58765W        W27128   9.801  40.044  14.300
58766W        W27129  20.265  10.878  10.927
58767W        W27130  26.035  39.328   2.417
58768W        W27131  31.034  11.322   0.339
58769W        W27132   7.361   8.288  13.807
58770W        W27133  20.665  38.333   3.384
58771W        W27134  26.603   6.879  14.326
58772W        W27135   1.446  40.919  13.056
58773W        W27136   8.713  32.413   4.258
58774W        W27137  38.475  12.289  11.545
58775W        W27138  19.743  22.196   2.782
58776W        W27139  10.154  35.010  10.600
58777W        W27140  10.277  38.045  11.982
58778W        W27141  12.639   9.781   2.414
58779W        W27142   5.928   6.795   4.772
58780W        W27143  12.355  19.552  13.864
58781W        W27144   3.921  44.810   3.222
58782W        W27145  33.445  11.845  13.844
58783W        W27146  11.860  11.866  14.443
58784W        W27147  38.914  14.610  14.467
58785W        W27148   8.863  40.436  14.808
58786W        W27149  43.497  39.023   2.803
58787W        W27150  37.944  28.124  10.643
58788W        W27151  36.956   6.365  11.069
58789W        W27152   7.681  16.289   4.348
58790W        W27153  32.471   9.246  13.017
58791W        W27154  18.768   7.241  12.827
58792W        W27155  21.713  26.066  14.322
58793W        W27156  42.939  34.011   4.668
58794W        W27157  35.557  34.369   1.393
58795W        W27158  35.989  36.497  11.457
58796W        W27159  24.586  12.299   3.230
58797W        W27160  36.040   4.874  10.465
58798W        W27161  24.974  43.397   3.850
58799W        W27162  26.016   4.441   2.416
58800W        W27163  15.159   5.221  10.942
58801W        W27164  11.724  34.097  11.014
58802W        W27165  25.021  10.214  10.463
58803W        W27166  11.650  14.625  14.883
58804W        W27167   3.218   9.189   0.302
58805W        W27168  40.915  32.598   1.243
58806W        W27169   4.390  17.073  14.319
58807W        W27170  29.552  24.610  13.353
58808W        W27171   4.894  23.102   4.310
58809W        W27172  13.162  24.669   2.809
58810W        W27173  18.669  44.383  10.925
58811W        W27174  43.765   3.804   1.281
58812W        W27175  36.041  13.255   4.625
58813W        W27176  13.315  37.954  13.897
58814W        W27177  22.190  12.321  12.988
58815W        W27178  27.635  39.020   0.368
58816W        W27179  35.369  14.140  14.834
58817W        W27180  37.925   3.306   0.792
58818W        W27181  43.987  12.332   3.848
58819W        W27182  19.089   3.408   4.812
58820W        W27183  33.569   0.929   3.146
58821W        W27184  19.140  26.123   1.322
58822W        W27185  35.399  36.377   0.801
58823W        W27186   7.764  21.045  13.064
58824W        W27187   0.903  39.326  12.991
58825W        W27188  32.436  17.716   3.839
58826W        W27189  33.947  10.699   1.451
58827W        W27190  18.709   5.772  10.013
58828W        W27191   0.813  21.646  11.569
58829W        W27192   4.248  32.064  10.414
58830W        W27193  29.553   9.290  12.551
58831W        W27194  40.405  44.877   1.787
58832W        W27195  28.120  27.530   4.711
58833W        W27196  44.425  44.943  12.437
58834W        W27197  30.953  27.657  12.484
58835W        W27198  41.400   6.243  10.539
58836W        W27199  44.449   1.418   2.688
58837W        W27200   8.866  18.261  10.028
58838W        W27201  27.074  37.075   0.862
58839W        W27202  37.381  16.788   1.274
58840W        W27203  31.515  22.073   3.647
58841W        W27204  38.945  32.605   3.752
58842W        W27205  27.660  38.941  14.310
58843W        W27206   1.321  38.954   0.409
58844W        W27207   1.735  21.192  14.029
58845W        W27208   1.800  12.677  14.326
58846W        W27209  22.117   7.872  13.896
58847W        W27210   6.737  42.938  13.433
58848W        W27211  17.259  38.504   4.303
58849W        W27212  44.894  21.527  11.584
58850W        W27213  18.252  17.718  14.413
58851W        W27214  38.911   2.906   3.816
58852W        W27215  39.350   8.746   4.149
58853W        W27216  43.861  25.639  10.409
58854W        W27217  39.976  24.154  12.365
58855W        W27218  35.942  19.698   1.713
58856W        W27219  41.331  42.823  14.795
58857W        W27220  35.068   3.802   1.840
58858W        W27221   8.368  17.117  11.020
58859W        W27222  34.589  37.864  12.072
58860W        W27223  37.563  13.293   2.186
58861W        W27224  20.041   0.391   4.116
58862W        W27225   3.733  38.446   4.728
58863W        W27226  20.263   8.845  14.421
58864W        W27227  23.590  11.285   1.396
58865W        W27228  31.463   2.341   2.418
58866W        W27229  42.314  40.920  11.095
58867W        W27230   1.788   1.286  14.990
58868W        W27231  43.393   3.456  10.461
58869W        W27232   8.400  35.524   1.387
58870W        W27233  24.528   9.793  12.411
58871W        W27234  33.043  10.379  14.938
58872W        W27235  11.809  37.930  10.455
58873W        W27236  10.139  11.248  12.957
58874W        W27237  33.594   2.367  10.023
58875W        W27238  40.980   6.235   1.403
58876W        W27239   7.266  42.506   2.725
58877W        W27240   9.291  36.391  14.299
58878W        W27241  30.074  37.063   3.378
58879W        W27242   6.841  33.473   2.251
58880W        W27243  40.835  37.841   1.450
58881W        W27244  27.656  14.183  10.486
58882W        W27245  26.536  28.057   3.307
58883W        W27246   9.239  10.819  11.893
58884W        W27247  10.681  13.654  11.098
58885W        W27248  27.097   6.349   3.779
58886W        W27249   9.758  16.250   0.866
58887W        W27250   6.281  24.497  13.964
58888W        W27251  29.922  13.295   0.940
58889W        W27252  37.973  21.182   4.738
58890W        W27253  42.899  19.149   0.845
58891W        W27254   1.796  37.559  14.975
58892W        W27255  37.556  21.111  14.449
58893W        W27256  30.600  32.132   4.793
58894W        W27257  29.461  17.184  10.979
58895W        W27258  18.600  29.670   1.403
58896W        W27259  35.066  40.850  12.557
58897W        W27260  24.153   4.232   0.914
58898W        W27261  33.983  17.702   2.248
58899W        W27262  20.594  18.111   4.673
58900W        W27263  14.647  44.354  13.368
58901W        W27264   2.311  40.349  12.433
58902W        W27265   8.804  23.099  10.578
58903W        W27266  43.304  29.923  14.952
58904W        W27267  35.403  40.469   4.816
58905W        W27268  10.224  27.945  12.020
58906W        W27269  19.101  37.478  13.814
58907W        W27270  13.609  29.920   0.762
58908W        W27271  24.652  27.135  10.407
58909W        W27272   9.678   1.314   1.793
58910W        W27273  37.044  21.575  10.509
58911W        W27274   3.719  10.801   1.762
58912W        W27275  12.651  12.719   1.928
58913W        W27276   8.326  39.036   1.210
58914W        W27277  18.753  35.363  14.996
58915W        W27278   3.750  42.966  11.899
58916W        W27279  16.646  19.139  14.824
58917W        W27280  19.541  36.019   4.669
58918W        W27281   0.484  39.056  11.969
58919W        W27282  35.104  22.247  13.006
58920W        W27283  32.456  33.078  12.433
58921W        W27284  40.827  25.475  11.942
58922W        W27285  33.110  35.463   4.232
58923W        W27286   3.358  16.742  14.781
58924W        W27287  36.544  42.872  10.526
58925W        W27288  17.303  38.399  12.526
58926W        W27289  42.526  23.506   4.302
58927W        W27290  39.021  43.367  10.547
58928W        W27291  28.014  18.785   4.217
58929W        W27292  44.325   2.941  13.881
58930W        W27293  34.410  21.629   0.409
58931W        W27294  39.903   7.417  11.024
58932W        W27295  23.193   8.243  12.898
58933W        W27296  21.700  18.621   3.184
58934W        W27297  38.999  39.529   2.314
58935W        W27298  19.275   5.700  13.441
58936W        W27299  34.092  13.679   4.725
58937W        W27300  18.629  38.045  11.945
58938W        W27301  15.285  42.439   4.754
58939W        W27302  17.110   3.216   4.184
58940W        W27303   3.919  44.279   0.478
58941W        W27304  10.147  22.577  11.867
58942W        W27305  19.269   7.249   0.398
58943W        W27306  36.376  34.502   3.806
58944W        W27307  21.585  12.675  10.612
58945W        W27308   7.268   9.883  11.008
58946W        W27309  21.609  18.582  11.038
58947W        W27310  15.673   7.777   5.114
58948W        W27311  29.643  12.824   0.398
58949W        W27312   3.246  12.671  11.588
58950W        W27313   5.434  15.204   2.885
58951W        W27314  41.366  29.003   4.660
58952W        W27315  26.114   9.844   4.822
58953W        W27316  22.528   1.787   4.784
58954W        W27317  12.178  21.659   3.345
58955W        W27318   3.273  31.980  12.915
58956W        W27319  43.934  34.608  12.072
58957W        W27320  29.505  15.273   0.860
58958W        W27321  21.550  22.243  12.826
58959W        W27322  16.739  40.008  14.967
58960W        W27323  27.037  16.752   4.274
58961W        W27324  20.586  32.942  12.557
58962W        W27325  43.846  27.684  10.641
58963W        W27326  32.080  28.140   9.602
58964W        W27327  43.446  31.648   0.357
58965W        W27328  10.307  21.248   1.894
58966W        W27329   7.215  24.074  14.510
58967W        W27330  34.057   2.413  11.015
58968W        W27331   5.330  13.657   1.263
58969W        W27332  16.146  22.061  11.101
58970W        W27333  19.187  41.538  10.981
58971W        W27334  39.396  26.466  13.316
58972W        W27335  31.039  22.074  12.991
58973W        W27336   9.166   3.854  12.549
58974W        W27337   4.706   3.945   1.219
58975W        W27338   4.371  16.232   2.733
58976W        W27339   7.233  30.472  12.848
58977W        W27340  34.557  15.159   0.393
58978W        W27341  41.363  33.070  14.488
58979W        W27342  31.620  31.563  14.274
58980W        W27343  11.347  26.075  11.867
58981W        W27344  21.089  40.311  13.508
58982W        W27345  10.337   0.857   0.369
58983W        W27346   1.240  25.971  11.105
58984W        W27347   6.820  12.727  13.912
58985W        W27348  33.602  30.441  12.397
58986W        W27349  28.175  40.317   3.680
58987W        W27350  30.561   4.373   1.310
58988W        W27351  30.489  44.932   1.732
58989W        W27352   1.901  41.839  10.414
58990W        W27353  42.517  27.572  12.397
58991W        W27354   0.821  32.594   3.835
58992W        W27355  44.809  12.744  12.575
58993W        W27356  19.066  13.611  13.856
58994W        W27357  26.589   1.756  14.376
58995W        W27358  31.639  11.670   3.189
58996W        W27359  21.022  34.526   0.390
58997W        W27360   9.872  24.208   2.379
58998W        W27361  38.909  14.321   2.875
58999W        W27362  37.423  20.209  13.348
59000W        W27363  21.581  37.535   3.659
59001W        W27364   4.864  17.081   3.156
59002W        W27365  31.501   6.850   3.775
59003W        W27366  16.723  26.665   1.734
59004W        W27367  13.770  37.438   2.853
59005W        W27368  13.645  30.483   0.382
59006W        W27369  41.901  11.284   2.207
59007W        W27370  19.548  10.295   4.123
59008W        W27371  10.687  24.498  12.839
59009W        W27372  16.590  20.658  13.317
59010W        W27373  23.618  34.494   0.438
59011W        W27374  33.095  25.010   2.409
59012W        W27375  33.002  16.078   4.144
59013W        W27376   8.689  30.151   2.360
59014W        W27377  11.659  39.431  12.532
59015W        W27378  27.459   4.332   1.808
59016W        W27379  31.617  15.133  11.897
59017W        W27380  29.640  27.571  13.370
59018W        W27381  29.487  31.612   1.900
59019W        W27382  22.184  30.915  14.811
59020W        W27383  33.005  44.921   1.782
59021W        W27384  22.637  22.715   4.647
59022W        W27385  15.706  23.156  11.069
59023W        W27386  12.685  38.549   4.822
59024W        W27387  42.933  22.160   4.754
59025W        W27388   8.295  39.830  12.867
59026W        W27389  11.233   0.483   1.363
59027W        W27390  10.754  24.509   1.713
59028W        W27391  16.719  14.804  12.984
59029W        W27392  34.541  28.038   1.789
59030W        W27393   1.940  17.664   1.294
59031W        W27394  10.310   9.177   4.340
59032W        W27395  11.263  42.919   3.184
59033W        W27396  10.864  24.973  14.896
59034W        W27397  36.520  29.162   1.434
59035W        W27398  10.830  12.202  13.398
59036W        W27399  35.064  15.310   0.471
59037W        W27400  24.139   8.215  10.936
59038W        W27401  19.185  16.786  10.643
59039W        W27402   0.883   2.336   3.632
59040W        W27403   7.759  32.021   4.793
59041W        W27404   8.217  13.747  14.340
59042W        W27405  21.133  19.564   2.331
59043W        W27406  42.284  18.586  14.924
59044W        W27407   4.333  19.201   4.315
59045W        W27408  11.790  13.321   2.373
59046W        W27409  40.905   7.250   2.333
59047W        W27410  36.403  13.715   0.815
59048W        W27411   7.312  22.667   2.193
59049W        W27412  37.069  31.903  12.888
59050W        W27413  31.055  33.031   0.302
59051W        W27414   9.661  27.169   2.666
59052W        W27415   7.211   8.776   1.694
59053W        W27416  18.712   4.334  11.540
59054W        W27417   5.813   7.313   4.119
59055W        W27418   8.699  33.462   1.279
59056W        W27419  28.185  42.315   1.238
59057W        W27420  23.189  42.454  14.333
59058W        W27421   0.466  31.631  11.545
59059W        W27422   1.396   5.241  12.581
59060W        W27423  36.362  34.400  14.438
59061W        W27424  11.689  30.157  13.988
59062W        W27425   1.432   7.908   2.194
59063W        W27426   3.880  22.248   2.850
59064W        W27427  22.023  27.008   4.329
59065W        W27428  16.166   4.429  13.922
59066W        W27429   4.265   3.319  13.870
59067W        W27430  39.830  16.204   2.727
59068W        W27431  33.549  10.840  11.380
59069W        W27432  11.275  32.015  12.849
59070W        W27433  14.169  40.836  10.576
59071W        W27434  20.203  29.939  14.807
59072W        W27435   6.423  44.806  13.424
59073W        W27436  13.105  37.902  12.913
59074W        W27437  21.672  15.163  14.962
59075W        W27438   3.267  36.541   0.751
59076W        W27439  25.032  15.156  11.863
59077W        W27440  31.593  34.615  11.929
59078W        W27441  11.162  33.976   4.654
59079W        W27442  36.425  32.908   4.605
59080W        W27443   8.901   9.367  11.105
59081W        W27444  41.495  19.211  11.025
59082W        W27445  42.323   5.427  10.997
59083W        W27446  19.723  10.829  10.597
59084W        W27447  22.573  14.135   1.804
59085W        W27448  44.763  13.689   0.955
59086W        W27449  11.241  18.589  11.948
59087W        W27450  18.282  41.458  14.003
59088W        W27451  23.237   0.373  12.073
59089W        W27452  22.007  43.274   0.318
59090W        W27453  44.331   1.791   1.799
59091W        W27454  30.061  43.415   1.827
59092W        W27455   2.409  43.915   2.827
59093W        W27456  41.823  20.066  11.857
59094W        W27457  40.354  24.153  13.824
59095W        W27458  35.001  28.582  11.979
59096W        W27459  44.768  37.967  12.403
59097W        W27460   6.728  20.048  12.578
59098W        W27461  20.542   6.240  14.973
59099W        W27462  28.452  15.584   2.850
59100W        W27463  16.121  37.561   3.652
59101W        W27464  14.300  29.995   0.820
59102W        W27465  36.974  25.171   4.339
59103W        W27466  31.502  19.567  10.490
59104W        W27467  38.842  38.424   3.176
59105W        W27468  29.968  26.535  14.338
59106W        W27469  16.605   4.929  10.500
59107W        W27470  11.274  41.041   1.751
59108W        W27471  41.891  28.575  10.635
59109W        W27472   3.831  36.003   0.308
59110W        W27473  11.137  35.523  13.491
59111W        W27474  43.015  38.340  14.913
59112W        W27475  38.492  22.120  13.546
59113W        W27476  28.473  36.588  14.372
59114W        W27477  41.845   0.476  11.110
59115W        W27478  35.514  31.943   1.359
59116W        W27479  32.956  23.108  11.574
59117W        W27480  32.526  24.665   0.350
59118W        W27481  32.491  38.482  11.075
59119W        W27482  28.489   1.855  14.886
59120W        W27483  23.075  16.713   3.218
59121W        W27484   8.392   6.182   3.286
59122W        W27485  18.782  13.305   3.311
59123W        W27486   9.303  39.066   4.768
59124W        W27487  31.537  41.859  12.036
59125W        W27488   4.243  26.012  14.808
59126W        W27489  21.704   2.893  10.907
59127W        W27490  29.949  38.991  13.049
59128W        W27491  10.184  23.184  13.063
59129W        W27492  23.618   3.755   4.668
59130W        W27493  23.157  16.671   2.207
59131W        W27494   4.266  19.775   2.303
59132W        W27495   6.348  44.893  14.514
59133W        W27496  31.589  22.227  14.338
59134W        W27497   5.699  33.398  10.950
59135W        W27498  32.424  37.890  14.338
59136W        W27499  41.517  29.593  12.393
59137W        W27500  11.168   3.721  14.787
59138W        W27501  12.728  30.526  13.475
59139W        W27502  39.964   5.326  12.434
59140W        W27503  29.514  13.251   2.244
59141W        W27504   3.357  39.409   1.384
59142W        W27505   0.370  15.682   4.327
59143W        W27506  10.291  16.721   1.851
59144W        W27507  16.764  18.733  12.438
59145W        W27508   6.900  16.648   4.223
59146W        W27509   1.241  18.138   0.415
59147W        W27510  37.897  32.949  14.831
59148W        W27511  39.060  21.034  11.490
59149W        W27512  16.696  25.032  14.024
59150W        W27513  14.597  39.031  11.092
59151W        W27514  35.367   1.314   2.719
59152W        W27515  26.521  32.115   3.303
59153W        W27516   6.205  44.379  12.028
59154W        W27517  28.969  44.443  14.837
59155W        W27518  17.647  18.574  11.456
59156W        W27519  33.922   4.800   1.822
59157W        W27520  15.085   3.954   4.618
59158W        W27521   0.369  16.077  14.405
59159W        W27522   9.357  39.025  13.879
59160W        W27523  29.459  42.876   1.816
59161W        W27524  16.597  40.448   2.419
59162W        W27525  13.700   8.296   0.806
59163W        W27526  13.123  16.724  13.450
59164W        W27527  11.354  27.070  14.959
59165W        W27528  25.483  14.266  12.514
59166W        W27529  23.022  10.228  14.940
59167W        W27530  22.718   6.265   3.651
59168W        W27531  30.961  25.592   2.813
59169W        W27532  12.611  30.642  12.945
59170W        W27533  33.895  24.716  12.854
59171W        W27534  43.835   2.725  11.571
59172W        W27535  21.747  25.036  12.839
59173W        W27536  23.731  17.076  14.971
59174W        W27537  31.498   4.254   3.156
59175W        W27538  19.192  31.901   2.680
59176W        W27539  31.043  21.089   2.224
59177W        W27540  24.087   6.282   1.772
59178W        W27541  37.840  10.316  11.436
59179W        W27542  40.035  28.164   1.336
59180W        W27543  14.141   7.846   4.662
59181W        W27544  23.214  24.078  11.423
59182W        W27545  32.610  27.134  14.309
59183W        W27546  12.659  33.989  14.445
59184W        W27547  10.164  38.064   4.292
59185W        W27548   6.208  28.623  13.884
59186W        W27549  10.144  34.983   0.843
59187W        W27550  14.683  24.546   1.856
59188W        W27551   8.738  43.488   1.705
59189W        W27552  16.682  14.785   1.268
59190W        W27553  13.321  37.893  13.351
59191W        W27554  40.922   2.353   4.781
59192W        W27555  27.053  41.940  13.989
59193W        W27556  14.106   6.386  11.080
59194W        W27557  42.865  14.679   3.756
59195W        W27558   3.291   4.268   2.684
59196W        W27559  15.154  33.556  10.578
59197W        W27560  10.671   6.274   3.194
59198W        W27561   8.779  41.365   2.717
59199W        W27562  18.562  22.617   1.273
59200W        W27563  29.585  40.032   0.896
59201W        W27564  40.826   4.402  10.433
59202W        W27565  37.079  32.927   4.736
59203W        W27566  30.472  33.964  12.040
59204W        W27567   7.826  25.704   2.208
59205W        W27568  13.342  37.023   1.386
59206W        W27569  33.092  27.456   4.182
59207W        W27570  10.286  14.782  14.824
59208W        W27571   7.672  34.887   2.389
59209W        W27572  43.934  42.328   4.172
59210W        W27573  29.040   3.455   1.927
59211W        W27574  30.622  11.832   1.395
59212W        W27575   9.837  31.086  14.940
59213W        W27576  44.496  44.441   4.800
59214W        W27577  19.062  41.375  11.929
59215W        W27578  36.868   8.305  13.810
59216W        W27579  33.933  43.893  14.792
59217W        W27580  28.658  30.580   5.292
59218W        W27581  27.030  34.901  11.930
59219W        W27582   2.873  14.622  13.323
59220W        W27583   7.735  14.756  12.374
59221W        W27584  30.916   0.398  13.920
59222W        W27585   5.266  19.574  14.011
59223W        W27586  10.218  43.909  12.402
59224W        W27587  12.274   0.925  10.076
59225W        W27588  13.176   7.687   0.775
59226W        W27589  31.971  26.614   4.261
59227W        W27590  31.019  19.077   3.827
59228W        W27591  41.953  42.998   2.417
59229W        W27592   0.440  12.708   3.202
59230W        W27593  41.326  22.527   1.696
59231W        W27594  37.448  10.878  14.773
59232W        W27595  39.005   4.274   1.227
59233W        W27596  16.108  22.695  14.482
59234W        W27597   1.300  40.466   0.399
59235W        W27598  23.187  24.598   4.818
59236W        W27599  20.738  32.577   3.321
59237W        W27600  21.525   7.237   4.174
59238W        W27601  11.190   7.317   1.315
59239W        W27602  35.401  21.534  13.510
59240W        W27603  14.701  38.991  14.016
59241W        W27604  39.387  26.171   0.315
59242W        W27605   6.905   1.952   1.286
59243W        W27606  19.114  21.021   2.700
59244W        W27607  24.039  41.819  12.349
59245W        W27608  21.254  12.160  13.490
59246W        W27609  24.626  21.712   4.651
59247W        W27610  33.474  40.368  13.927
59248W        W27611  33.609  26.984  11.919
59249W        W27612  13.132  28.958   0.479
59250W        W27613   8.757  36.021  14.497
59251W        W27614  34.453   3.226  14.439
59252W        W27615  24.213   1.937  14.424
59253W        W27616  15.155  40.917  10.621
59254W        W27617  39.856  34.413  12.037
59255W        W27618   9.350  24.209  13.314
59256W        W27619  16.709  40.896  12.989
59257W        W27620   0.273  36.025  14.902
59258W        W27621  43.844  16.568   3.780
59259W        W27622   8.747  18.159  11.863
59260W        W27623  23.710  31.096   2.212
59261W        W27624   0.749  40.045   1.699
59262W        W27625   2.738  36.525  14.371
59263W        W27626  38.036   5.426   4.225
59264W        W27627  31.633  42.814  14.825
59265W        W27628  41.439  18.658   1.702
59266W        W27629  26.665  10.755  14.801
59267W        W27630  29.490  17.062  14.470
59268W        W27631  30.423  26.156  13.988
59269W        W27632  35.456  22.090  13.483
59270W        W27633  43.469  41.840   4.164
59271W        W27634   4.865  31.626  11.399
59272W        W27635  43.841  22.252   0.294
59273W        W27636   2.888  24.650   9.528
59274W        W27637  11.737  36.457  13.976
59275W        W27638  20.214  38.866  10.580
59276W        W27639  37.428  32.448   0.299
59277W        W27640  16.698  41.891  12.474
59278W        W27641   1.755  26.584  11.571
59279W        W27642  25.486   2.315  13.991
59280W        W27643  14.112  41.322   1.451
59281W        W27644   0.474  12.717   2.665
59282W        W27645  35.973  14.318   2.821
59283W        W27646  36.367  16.087  14.764
59284W        W27647  34.538   6.384   3.859
59285W        W27648  17.780  26.076  12.438
59286W        W27649  34.460  33.050   2.669
59287W        W27650   2.914  22.161   9.449
59288W        W27651   2.321  12.646   0.821
59289W        W27652  44.411  42.339  11.861
59290W        W27653  34.950  33.041   4.835
59291W        W27654  34.948   4.274  14.353
59292W        W27655  36.005   1.293  13.841
59293W        W27656   7.894  40.855  12.043
59294W        W27657  41.858   0.344  11.414
59295W        W27658  37.528  43.515   1.347
59296W        W27659  19.598  13.294   4.291
59297W        W27660  18.280  22.690   1.707
59298W        W27661   6.324  26.495   4.759
59299W        W27662  13.681  40.369  14.761
59300W        W27663  16.096  37.889   4.678
59301W        W27664  25.037  40.034  11.971
59302W        W27665  10.832  25.131   0.354
59303W        W27666   8.250   4.373   2.300
59304W        W27667  13.266  31.975   1.885
59305W        W27668  17.128  21.653   4.824
59306W        W27669  11.772  24.084  11.592
59307W        W27670  19.116  28.541   4.191
59308W        W27671   8.660   2.738  12.944
59309W        W27672   1.879  12.618  12.470
59310W        W27673  12.176  21.192   3.717
59311W        W27674   7.764   8.213   0.421
59312W        W27675  29.468  12.310  11.387
59313W        W27676  36.539  41.972   0.469
59314W        W27677  18.124  14.162  12.905
59315W        W27678  32.098  14.703  14.809
59316W        W27679  13.301  37.841   3.201
59317W        W27680  30.653  32.067   5.308
59318W        W27681  24.996  15.720   2.784
59319W        W27682   7.775  12.824  10.497
59320W        W27683  40.342  29.584   0.808
59321W        W27684  24.715  26.968  11.417
59322W        W27685  31.482   5.214   3.199
59323W        W27686  17.720  13.270  13.538
59324W        W27687  10.301  44.901  11.493
59325W        W27688  44.977  38.850   0.476
59326W        W27689  28.983  19.217  11.525
59327W        W27690  26.119  42.330   3.762
59328W        W27691   5.790   8.855  12.932
59329W        W27692  42.456   4.901   4.230
59330W        W27693  18.252   8.340   3.367
59331W        W27694  16.155  15.262  14.961
59332W        W27695  39.914  18.756  13.950
59333W        W27696  30.639   2.321   0.813
59334W        W27697  31.971  15.637  13.820
59335W        W27698   3.220  20.547  13.310
59336W        W27699   1.964  13.183   4.218
59337W        W27700  14.728   3.896  13.945
59338W        W27701  44.346   5.754  11.488
59339W        W27702   6.209   2.372  12.392
59340W        W27703   4.807  11.321   1.345
59341W        W27704   1.892  16.130  12.353
59342W        W27705   5.879   6.801  13.800
59343W        W27706  42.853  40.536  14.996
59344W        W27707  23.001   2.398  11.491
59345W        W27708  28.670  38.966  14.438
59346W        W27709  16.230  25.070   0.374
59347W        W27710  25.182  26.515  12.017
59348W        W27711  31.020   4.836  10.486
59349W        W27712   2.780  13.753   0.900
59350W        W27713   5.872  33.458  14.854
59351W        W27714  21.672  14.276   0.961
59352W        W27715   0.439  41.533   3.229
59353W        W27716  36.900   8.220  14.409
59354W        W27717  42.807  26.480  14.768
59355W        W27718  16.192  15.668   0.954
59356W        W27719   6.858  44.826   3.146
59357W        W27720  44.291   0.253  10.948
59358W        W27721  17.675   4.899  12.917
59359W        W27722  44.939  34.483  13.494
59360W        W27723  28.930  31.510   0.913
59361W        W27724  40.441  27.995  10.911
59362W        W27725  30.919  29.135  12.573
59363W        W27726   1.344  26.208   1.241
59364W        W27727  29.105  27.627  12.939
59365W        W27728  41.446  31.095   0.402
59366W        W27729  11.644  28.498   9.986
59367W        W27730  19.103  21.104  10.083
59368W        W27731  29.440  27.599  12.490
59369W        W27732   7.902   6.419   4.816
59370W        W27733  24.124   6.873  13.849
59371W        W27734  14.720  39.840   2.411
59372W        W27735  34.978  36.920   4.293
59373W        W27736  40.479  19.579   5.198
59374W        W27737  43.471  20.560   3.767
59375W        W27738  13.282  16.714  12.835
59376W        W27739   5.891   1.256   1.262
59377W        W27740   3.872  12.621  11.486
59378W        W27741  26.122  14.216   4.739
59379W        W27742   0.924  18.149   5.207
59380W        W27743   2.239  14.257  13.860
59381W        W27744  32.942  34.018  11.544
59382W        W27745  10.164  20.220   2.886
59383W        W27746  16.233  18.192  14.312
59384W        W27747   8.867   7.244   1.914
59385W        W27748  34.505  24.984  13.433
59386W        W27749  44.975   8.387   1.889
59387W        W27750  34.085  33.516   1.870
59388W        W27751  17.083   1.425   3.716
59389W        W27752  40.507  26.108   0.482
59390W        W27753  32.419  44.858   0.453
59391W        W27754   5.910   8.876  13.430
59392W        W27755   7.708  18.170  11.877
59393W        W27756  12.143   1.878  14.464
59394W        W27757  44.401  42.797  13.014
59395W        W27758  18.174  10.222   3.838
59396W        W27759   8.343  40.929   2.333
59397W        W27760   3.947  26.002  11.118
59398W        W27761  39.402  35.973  10.948
59399W        W27762  25.672  35.940  10.118
59400W        W27763  41.452  22.117   4.634
59401W        W27764  14.818  44.991   4.187
59402W        W27765  34.978  11.348  12.843
59403W        W27766   9.803  13.212   1.837
59404W        W27767  15.721   6.704   0.319
59405W        W27768  37.020  27.524  14.386
59406W        W27769  37.349  32.930   4.642
59407W        W27770  23.174  33.891   1.312
59408W        W27771   1.910   3.861   1.319
59409W        W27772  31.048  11.214  14.782
59410W        W27773  17.270  27.973   4.705
59411W        W27774  24.563  29.430  13.842
59412W        W27775   6.880  24.652  14.408
59413W        W27776  28.999  21.157   4.602
59414W        W27777   7.665   1.410  11.918
59415W        W27778  29.018   8.691   3.645
59416W        W27779  21.663   8.855   2.418
59417W        W27780  25.118  23.544  12.945
59418W        W27781   2.730  30.596   4.343
59419W        W27782  37.564  36.380   4.618
59420W        W27783  40.012  21.757  12.087
59421W        W27784  10.341  16.232  10.523
59422W        W27785   1.809  40.537   4.254
59423W        W27786  30.510  26.179   4.243
59424W        W27787  41.480  36.577  11.382
59425W        W27788  24.715   2.410   3.647
59426W        W27789   4.438  37.083   0.416
59427W        W27790  16.736  42.798  10.114
59428W        W27791  22.186   6.262  14.876
59429W        W27792  21.731  17.679  10.929
59430W        W27793  40.864   3.929   2.359
59431W        W27794  18.168  44.796  10.620
59432W        W27795  31.099   9.173   1.848
59433W        W27796  23.989  10.320   4.718
59434W        W27797  40.890  27.561  12.516
59435W        W27798  26.106  40.910  14.352
59436W        W27799  36.490   7.311   3.256
59437W        W27800   2.385  13.739   4.668
59438W        W27801  27.112  30.480   3.374
59439W        W27802   9.239   1.964  11.013
59440W        W27803  29.484  42.980   5.171
59441W        W27804  34.444  17.655  12.881
59442W        W27805   2.780  17.594   4.313
59443W        W27806   1.358  35.105  11.613
59444W        W27807  23.726  38.932   2.365
59445W        W27808  18.242   7.826  14.861
59446W        W27809  16.650  44.981  12.519
59447W        W27810   3.408  31.933   4.689
59448W        W27811   4.707  13.796   2.749
59449W        W27812   8.899  16.651  12.834
59450W        W27813  35.446  20.605   4.599
59451W        W27814  44.836  17.697  11.046
59452W        W27815  37.003   1.448  13.824
59453W        W27816  10.323  31.088   0.458
59454W        W27817   8.740  24.577   3.282
59455W        W27818  12.827  21.702  14.355
59456W        W27819  14.775  35.414   1.840
59457W        W27820  17.299   7.666   3.270
59458W        W27821  31.005  36.931   0.828
59459W        W27822  29.571  29.618  10.482
59460W        W27823  17.630  33.461   0.967
59461W        W27824  37.462  10.173  13.347
59462W        W27825  33.533  17.568   1.846
59463W        W27826  12.328  38.071  10.520
59464W        W27827  30.499  38.362   3.181
59465W        W27828   4.398  44.279   2.902
59466W        W27829  30.052  17.076  11.401
59467W        W27830  19.704  16.098   0.965
59468W        W27831  37.070  28.617  12.921
59469W        W27832  13.811  10.211   3.739
59470W        W27833   7.847  17.744   3.829
59471W        W27834  43.516  41.528  13.471
59472W        W27835  30.519  16.283  14.980
59473W        W27836  38.406  39.040   3.800
59474W        W27837  20.584  42.957  10.612
59475W        W27838   2.966  22.528   2.853
59476W        W27839  40.341  41.890  12.897
59477W        W27840  17.798  28.047   4.261
59478W        W27841   7.339  27.964  12.359
59479W        W27842  31.505  22.741   0.470
59480W        W27843  16.705  17.083   0.332
59481W        W27844  33.518  24.027  11.988
59482W        W27845  40.347  37.902  13.835
59483W        W27846   5.310  19.256  14.383
59484W        W27847   4.384  37.440   1.747
59485W        W27848  20.652   7.790  11.040
59486W        W27849  40.421  40.950  13.413
59487W        W27850   1.889  10.832  11.980
59488W        W27851   6.361   6.738   4.141
59489W        W27852  42.935  19.135  10.632
59490W        W27853  28.478   3.311  14.804
59491W        W27854   2.856  18.743  12.888
59492W        W27855   8.892  38.527   1.259
59493W        W27856  29.989  29.493  14.767
59494W        W27857  19.159  17.574  12.494
59495W        W27858  26.565   8.697  13.311
59496W        W27859  15.219  11.201  11.094
59497W        W27860  36.898  40.492   3.290
59498W        W27861  43.494  29.436  13.919
59499W        W27862  40.444  23.526   3.797
59500W        W27863  11.278  29.986  12.502
59501W        W27864   4.910  21.050  11.953
59502W        W27865   4.707  41.968   1.322
59503W        W27866  44.854  16.606  13.979
59504W        W27867  32.103  38.999  10.438
59505W        W27868  15.693   6.743  13.828
59506W        W27869  17.275  18.267   2.375
59507W        W27870  15.777  27.957  14.767
59508W        W27871  44.974  35.358  10.976
59509W        W27872  31.033  34.480   1.398
59510W        W27873  44.409  36.883   0.458
59511W        W27874  43.387  12.765   4.333
59512W        W27875  24.998  19.709   2.226
59513W        W27876  10.238  23.542   0.378
59514W        W27877  44.296   0.429  10.528
59515W        W27878  26.679  21.605  14.839
59516W        W27879   2.933  27.161  12.973
59517W        W27880  37.924  34.371   2.278
59518W        W27881  11.692  22.141   3.668
59519W        W27882  21.535  18.686   1.357
59520W        W27883  38.939  42.785   3.833
59521W        W27884  43.356  39.315  12.993
59522W        W27885   8.847  23.503  13.037
59523W        W27886  11.138  26.166  14.952
59524W        W27887  10.644   2.801   2.357
59525W        W27888   7.683  24.518   2.404
59526W        W27889   9.236  36.540  10.901
59527W        W27890  28.107   3.903  11.499
59528W        W27891  11.133  43.509  11.937
59529W        W27892  37.524  36.559   5.164
59530W        W27893  12.327  18.698  11.491
59531W        W27894  38.047  12.309  14.784
59532W        W27895   6.831  27.096   4.646
59533W        W27896   2.237   3.441  10.006
59534W        W27897  35.999  34.051  14.950
59535W        W27898  36.929  26.656  12.917
59536W        W27899  10.691  21.027  13.904
59537W        W27900   0.863  12.712  11.612
59538W        W27901   5.772  10.821   2.246
59539W        W27902  24.140  18.601   3.795
59540W        W27903  22.183  30.589   1.239
59541W        W27904  10.658  31.488  13.869
59542W        W27905  18.556  43.884   9.630
59543W        W27906  22.741   8.327  14.984
59544W        W27907  42.899  37.881   3.632
59545W        W27908   4.779  24.008   2.860
59546W        W27909  39.898  20.658   4.821
59547W        W27910   0.271  10.229  11.559
59548W        W27911  37.378   5.397   1.243
59549W        W27912   1.261  42.962  12.885
59550W        W27913  42.948  31.521   1.710
59551W        W27914  30.560   8.666  12.967
59552W        W27915  34.120  11.345  14.282
59553W        W27916   6.412  21.643   0.921
59554W        W27917  13.125  20.178   3.288
59555W        W27918  19.759  26.951  13.994
59556W        W27919  21.615  11.789  12.422
59557W        W27920   4.214  25.477   3.301
59558W        W27921   6.366  36.556  11.594
59559W        W27922   1.752   0.316  11.586
59560W        W27923  31.920   1.414  12.997
59561W        W27924  20.203  29.548  11.972
59562W        W27925   6.291   6.364   0.248
59563W        W27926  44.480  28.971   2.212
59564W        W27927  10.782  13.283  13.902
59565W        W27928   2.461  22.059  12.442
59566W        W27929  33.022   2.925   1.321
59567W        W27930  44.899   3.277  13.875
59568W        W27931  21.161  24.542   3.246
59569W        W27932   4.407  15.162  11.860
59570W        W27933  23.129  43.903  12.426
59571W        W27934   2.408  22.533  12.414
59572W        W27935   4.754  35.855   0.783
59573W        W27936  36.873  10.633   9.996
59574W        W27937  32.632  18.063   3.846
59575W        W27938  23.119  17.766   4.777
59576W        W27939  13.719  15.645  10.467
59577W        W27940  22.128  25.504   4.752
59578W        W27941   6.775  19.176  14.300
59579W        W27942   7.846  26.660   0.401
59580W        W27943  27.494  32.904  13.915
59581W        W27944   9.860  43.811  11.113
59582W        W27945   5.879  18.240   1.870
59583W        W27946  12.332  27.941  12.009
59584W        W27947  36.900  30.052  13.372
59585W        W27948  29.918  41.377   2.734
59586W        W27949  27.040  28.546   4.139
59587W        W27950  42.395   9.888   4.131
59588W        W27951  13.273  37.476  13.364
59589W        W27952   1.759  34.039   4.699
59590W        W27953   2.952   2.254  11.946
59591W        W27954  38.994  36.868   1.267
59592W        W27955   8.772   7.193   0.368
59593W        W27956  24.497  32.964  11.464
59594W        W27957  18.790  28.590   1.420
59595W        W27958  42.916  33.943   0.903
59596W        W27959  34.055   6.846  10.571
59597W        W27960  26.682  40.350   2.389
59598W        W27961  18.746   8.365  12.374
59599W        W27962   8.183  28.186  11.597
59600W        W27963  39.865  36.510  11.478
59601W        W27964  41.347   9.199  13.433
59602W        W27965  15.623  40.463   3.869
59603W        W27966  33.461   3.240   2.285
59604W        W27967  27.569  26.199   3.188
59605W        W27968  11.658  19.696  12.392
59606W        W27969  44.869  41.919   1.822
59607W        W27970   4.838  39.014   1.388
59608W        W27971  17.727  35.469  10.983
59609W        W27972  26.059  15.583  12.067
59610W        W27973  15.582  38.537  11.387
59611W        W27974  32.516   5.371  11.855
59612W        W27975  38.029   3.724  10.499
59613W        W27976  35.084  38.858  14.484
59614W        W27977  23.152  25.494   2.297
59615W        W27978  12.313   7.718  14.382
59616W        W27979  27.572  37.391   4.617
59617W        W27980  14.594  15.798   3.750
59618W        W27981  38.838  35.071   5.259
59619W        W27982  26.051  29.977  13.960
59620W        W27983  32.633  41.983  13.425
59621W        W27984  21.176   0.878   4.333
59622W        W27985  15.709  11.337  10.975
59623W        W27986  28.070  40.427   5.199
59624W        W27987  27.592  36.876   3.228
59625W        W27988  34.087  22.556  11.987
59626W        W27989  43.429  29.094  10.071
59627W        W27990  28.058  16.205  11.059
59628W        W27991  18.072  17.233  10.639
59629W        W27992  32.590  19.540   5.239
59630W        W27993   3.936   4.707  11.124
59631W        W27994   6.215  37.984  14.448
59632W        W27995  22.188   6.187  12.072
59633W        W27996   1.437  14.253   0.414
59634W        W27997  35.059  25.149  10.569
59635W        W27998  33.972  12.239  11.537
59636W        W27999  28.182  40.431  10.160
59637W        W28000  14.140  41.320  10.519
59638W        W28001  25.170  17.267   3.865
59639W        W28002  37.050  44.893   2.201
59640W        W28003  15.739   6.740  12.050
59641W        W28004  36.065   4.811   1.451
59642W        W28005  35.519  30.453   3.677
59643W        W28006  39.529  14.747  12.065
59644W        W28007   3.399  12.250  11.598
59645W        W28008  27.133  26.577  11.939
59646W        W28009   0.320  42.806   3.300
59647W        W28010   2.961   0.452   4.206
59648W        W28011  21.665  25.962   1.816
59649W        W28012  29.922   2.458   3.861
59650W        W28013  33.527   1.961   9.674
59651W        W28014  36.072  13.128  12.375
59652W        W28015  41.294  14.798   3.804
59653W        W28016   0.493  38.479  14.982
59654W        W28017  40.979  13.811  10.560
59655W        W28018  35.496  10.834   3.258
59656W        W28019  15.138  33.580   3.631
59657W        W28020   5.326  37.366   2.341
59658W        W28021  14.823  28.570  11.123
59659W        W28022  29.439  22.135  11.114
59660W        W28023  25.970  40.040   0.944
59661W        W28024  21.578  42.828  14.453
59662W        W28025  35.976  35.984   1.882
59663W        W28026   8.359   2.286  10.542
59664W        W28027  23.232  31.548  12.530
59665W        W28028  16.110  32.033  13.040
59666W        W28029  39.526  16.152  11.998
59667W        W28030  10.332  15.282  12.475
59668W        W28031   2.279  41.499   0.865
59669W        W28032  42.295  13.695  11.932
59670W        W28033  30.563   1.445   9.976
59671W        W28034  12.685  28.486   0.840
59672W        W28035  13.649  35.893   0.277
59673W        W28036  28.581   6.198   0.761
59674W        W28037  13.175  33.013   0.437
59675W        W28038  18.141  41.515  12.036
59676W        W28039  11.178  38.497   3.759
59677W        W28040  19.687  35.430  13.517
59678W        W28041  10.250  42.488   2.285
59679W        W28042  19.736   7.387   3.728
59680W        W28043  44.823  13.682  14.357
59681W        W28044  21.231  19.233   0.891
59682W        W28045  44.997  13.150  14.470
59683W        W28046   1.318  34.386  11.481
59684W        W28047  27.013  12.682   5.267
59685W        W28048   9.167  19.624   0.752
59686W        W28049  29.513   9.799   4.160
59687W        W28050  19.043   5.240   0.482
59688W        W28051  14.639  27.141   4.684
59689W        W28052  30.507  39.376   2.319
59690W        W28053  20.102   3.414   0.944
59691W        W28054  23.066   6.752  12.490
59692W        W28055  35.420  13.807  12.867
59693W        W28056   8.227  18.759  14.891
59694W        W28057  36.372  13.692   0.342
59695W        W28058   6.747  22.247   0.908
59696W        W28059   3.296  37.363  13.937
59697W        W28060  35.968  13.218   0.729
59698W        W28061  21.522  39.909  14.441
59699W        W28062  15.779   6.283   3.675
59700W        W28063  11.737  32.108   2.416
59701W        W28064  36.964  40.821  11.382
59702W        W28065   3.228  32.137   0.305
59703W        W28066  20.259   6.385   4.749
59704W        W28067   2.930  44.770  12.013
59705W        W28068   1.759  33.570   3.212
59706W        W28069  43.869  32.574  12.516
59707W        W28070   9.890  38.864   2.779
59708W        W28071  27.033  34.871   3.310
59709W        W28072  37.072  40.957   2.294
59710W        W28073  25.130  30.081   0.730
59711W        W28074  22.190   9.798   3.667
59712W        W28075  16.800  29.109   2.361
59713W        W28076   0.750   6.815  14.957
59714W        W28077   6.236  40.459   2.347
59715W        W28078  34.604   7.802  13.464
59716W        W28079   4.218  31.920   1.378
59717W        W28080  24.095  39.540   0.744
59718W        W28081   8.402  26.538  10.535
59719W        W28082  39.394  26.457   0.299
59720W        W28083   0.875  43.344   0.247
59721W        W28084  15.721  36.075  10.414
59722W        W28085  39.441  38.948  12.510
59723W        W28086  34.008  33.882   0.737
59724W        W28087  32.979  12.676  12.410
59725W        W28088  17.569   3.797  13.406
59726W        W28089   4.435  21.748  12.369
59727W        W28090  17.800  37.913  10.466
59728W        W28091  44.434   3.326   3.272
59729W        W28092  15.623  27.033   2.823
59730W        W28093  18.598   1.779   3.657
59731W        W28094  43.422  35.959   5.300
59732W        W28095  28.053  29.148   2.889
59733W        W28096  11.346   0.974   2.396
59734W        W28097  25.192   0.349  13.853
59735W        W28098  43.867   2.414   0.435
59736W        W28099  17.198  41.526  10.581
59737W        W28100  33.551   1.927   1.287
59738W        W28101  37.907  19.257  13.435
59739W        W28102  30.525  13.185   2.799
59740W        W28103  40.049  35.479   4.685
59741W        W28104  22.092  13.313   0.726
59742W        W28105  18.673  10.684   0.910
59743W        W28106   5.798   9.374   0.879
59744W        W28107   7.210  33.066   1.722
59745W        W28108  27.601  13.766  11.530
59746W        W28109  31.900  38.368   3.380
59747W        W28110  42.389  35.984  13.537
59748W        W28111   0.821  11.785  13.482
59749W        W28112  16.668   9.161   1.212
59750W        W28113  18.576  20.119   2.391
59751W        W28114  31.925   8.780  10.454
59752W        W28115  14.792  20.563   2.832
59753W        W28116  14.737  17.194  14.997
59754W        W28117  28.557  17.569   4.222
59755W        W28118   6.307  18.294   4.163
59756W        W28119  33.545  44.284  13.308
59757W        W28120  21.670   7.679  10.998
59758W        W28121   6.303   7.263  10.156
59759W        W28122  37.377  38.917  13.466
59760W        W28123  31.439  25.511  13.991
59761W        W28124  39.481  33.022  14.030
59762W        W28125  38.356  39.381  14.013
59763W        W28126   2.750   0.813   5.291
59764W        W28127  10.859  35.925  12.374
59765W        W28128  28.080  23.093   0.423
59766W        W28129   8.715   9.773   1.302
59767W        W28130  41.989  24.653  11.054
59768W        W28131  39.879   9.677  13.443
59769W        W28132  25.016   1.266   1.716
59770W        W28133  25.090  20.551   4.815
59771W        W28134   8.720  16.224   1.231
59772W        W28135  20.092  38.458  10.603
59773W        W28136  30.655  30.159  14.450
59774W        W28137  42.817   7.361   1.404
59775W        W28138   0.433   0.255  14.364
59776W        W28139   5.757  31.588  11.049
59777W        W28140  26.002  22.734  11.599
59778W        W28141  41.845  17.748  14.356
59779W        W28142  15.229  22.727  12.377
59780W        W28143   4.211  40.860  13.816
59781W        W28144  20.262  12.691   3.256
59782W        W28145  34.485   4.405   4.332
59783W        W28146  26.989  40.349  12.008
59784W        W28147  38.030  17.211  14.482
59785W        W28148  28.931   6.754   1.227
59786W        W28149  44.766  11.249  14.889
59787W        W28150  29.605  34.975   2.372
59788W        W28151  27.652  12.265  14.906
59789W        W28152  13.121  12.348  14.932
59790W        W28153  42.776  15.259  10.971
59791W        W28154  22.124   6.691   1.734
59792W        W28155  33.527   2.242   9.657
59793W        W28156  29.164  25.561  12.826
59794W        W28157  22.653  35.399   3.225
59795W        W28158  24.130  30.469   3.744
59796W        W28159  37.070   2.918  11.465
59797W        W28160  36.376   7.754   1.711
59798W        W28161  23.064  35.436   4.175
59799W        W28162  42.440  20.748  12.847
59800W        W28163  43.799  12.733  12.396
59801W        W28164  23.704  15.258   0.935
59802W        W28165  13.820  14.315   0.846
59803W        W28166  41.382  29.123   1.239
59804W        W28167  38.444  31.535  14.987
59805W        W28168   4.910  22.207   1.214
59806W        W28169  25.629   3.955  11.372
59807W        W28170  18.265   1.878  11.554
59808W        W28171   7.268   9.355   0.411
59809W        W28172  39.533  13.257   5.227
59810W        W28173  39.447  18.748  13.382
59811W        W28174  10.724  23.094   3.350
59812W        W28175  12.746   4.416  10.053
59813W        W28176  28.989  15.236  12.089
59814W        W28177  31.956  39.482   2.842
59815W        W28178   4.340   8.841  12.474
59816W        W28179  18.287  29.437  13.314
59817W        W28180  14.648  26.647   1.295
59818W        W28181  27.115  31.071   3.336
59819W        W28182  31.061   4.356  12.503
59820W        W28183  38.925   7.283  13.908
59821W        W28184  38.064   8.735  14.764
59822W        W28185   7.768  40.914   0.349
59823W        W28186  34.066  10.323   3.234
59824W        W28187  15.649  10.320  11.885
59825W        W28188  44.330   6.376  14.910
59826W        W28189   4.227   7.380  14.324
59827W        W28190  21.582   7.806   2.663
59828W        W28191  38.555   8.869  14.324
59829W        W28192  26.529  28.084   3.786
59830W        W28193  15.222   9.211   0.438
59831W        W28194  24.157  16.214   1.297
59832W        W28195  34.414  16.688  14.461
59833W        W28196   8.213  27.607  13.973
59834W        W28197  30.539  44.304  12.439
59835W        W28198  28.551  17.582   0.850
59836W        W28199   1.910  36.034  13.021
59837W        W28200  34.894  16.112  14.463
59838W        W28201   2.323  33.987  11.424
59839W        W28202   3.279   9.859  14.392
59840W        W28203  23.678  21.526  14.845
59841W        W28204  30.526  35.864  13.904
59842W        W28205  36.542  42.347   0.471
59843W        W28206  28.026  10.797  13.388
59844W        W28207   7.801  29.936  12.095
59845W        W28208  39.939  33.443   2.180
59846W        W28209   3.812   2.279  14.804
59847W        W28210  15.805  32.909   4.354
59848W        W28211  41.862  37.372  12.344
59849W        W28212  10.367  35.022  14.877
59850W        W28213  13.300  23.024   2.829
59851W        W28214  29.118  25.518   2.199
59852W        W28215  25.493  35.523  14.445
59853W        W28216   7.177   0.851   0.395
59854W        W28217  42.449  41.510  13.342
59855W        W28218  17.802  14.752  11.452
59856W        W28219  23.141  33.063  14.997
59857W        W28220  26.187  13.778  11.860
59858W        W28221  17.637  14.832  13.448
59859W        W28222   0.840  13.825   4.640
59860W        W28223  43.514   8.271  10.548
59861W        W28224  43.929   8.194  12.427
59862W        W28225  23.094  23.160   0.820
59863W        W28226  29.135   4.257  11.890
59864W        W28227  44.895  25.664   2.760
59865W        W28228  25.014  20.105  12.430
59866W        W28229  38.018  17.285   2.310
59867W        W28230  11.689  43.335  14.467
59868W        W28231  43.896  25.127   1.424
59869W        W28232  38.846  16.187   1.735
59870W        W28233  17.715  40.797  10.479
59871W        W28234  37.952  26.137   1.878
59872W        W28235  42.345  20.139   0.290
59873W        W28236  32.069   7.788   3.307
59874W        W28237  21.257  32.916   3.767
59875W        W28238  40.484  39.904  10.626
59876W        W28239  28.469  10.283  12.065
59877W        W28240   3.401  44.407   3.663
59878W        W28241  34.871  17.152  13.542
59879W        W28242  28.602  21.654   2.181
59880W        W28243  44.398  23.645  14.969
59881W        W28244   5.928   1.853  11.110
59882W        W28245  37.871  39.512  10.913
59883W        W28246  25.086  31.009   1.783
59884W        W28247  28.018  18.122  14.021
59885W        W28248  31.084  12.175   0.428
59886W        W28249   4.850  27.984  10.898
59887W        W28250  18.143  13.645  12.028
59888W        W28251  43.503  28.649  12.893
59889W        W28252  10.836  18.606  13.941
59890W        W28253  34.449  15.273  13.321
59891W        W28254  29.448  36.398   2.725
59892W        W28255  44.989   8.365   0.463
59893W        W28256  30.089   2.930  13.329
59894W        W28257  35.932   0.443  11.979
59895W        W28258  43.804   7.240  12.357
59896W        W28259  34.371  14.191  13.308
59897W        W28260   3.220   5.406  14.967
59898W        W28261   5.289   9.729  11.469
59899W        W28262  31.090  44.964   3.714
59900W        W28263  29.633  28.047  11.500
59901W        W28264  21.647  30.615   5.318
59902W        W28265   3.878  43.811   0.409
59903W        W28266   9.170  22.526  11.371
59904W        W28267  27.087  35.362   0.918
59905W        W28268  15.292   0.837   0.370
59906W        W28269  17.779  29.571  14.440
59907W        W28270  16.248  11.174   4.687
59908W        W28271  40.929  13.685   0.844
59909W        W28272  18.264   0.797  13.504
59910W        W28273  40.998   0.258  13.408
59911W        W28274   1.303  27.127  13.397
59912W        W28275   5.887  11.199  13.913
59913W        W28276   6.337   9.796  14.459
59914W        W28277  23.110  18.652   4.767
59915W        W28278  12.769   3.944   5.103
59916W        W28279   6.890  32.587   2.404
59917W        W28280  31.100  21.663  12.869
59918W        W28281  44.356  26.022  12.339
59919W        W28282  29.035  27.048  13.394
59920W        W28283  19.764  24.103  11.582
59921W        W28284   8.755  42.388  14.929
59922W        W28285  33.384  15.325  11.015
59923W        W28286  22.209   0.258  11.044
59924W        W28287  31.545   1.917   2.767
59925W        W28288   6.409  35.603  11.610
59926W        W28289  44.417  34.945  12.082
59927W        W28290  17.777  42.337  14.906
59928W        W28291  38.532  17.238  12.504
59929W        W28292   9.252  17.180   4.801
59930W        W28293  19.136  26.067   1.834
59931W        W28294  25.683  35.581   4.760
59932W        W28295  11.244  18.659   0.354
59933W        W28296  14.821  16.218  11.502
59934W        W28297  37.390  44.993  10.988
59935W        W28298   9.377  19.703   5.179
59936W        W28299  21.640  16.594   0.272
59937W        W28300  41.304   7.733  12.027
59938W        W28301   4.266  44.280   1.318
59939W        W28302  19.657  38.475  10.606
59940W        W28303  21.742   1.749  11.566
59941W        W28304  23.541  37.887  14.482
59942W        W28305  43.423  27.585  10.555
59943W        W28306  22.136  15.637   3.293
59944W        W28307  38.347  12.320   1.701
59945W        W28308  40.406   6.678   0.440
59946W        W28309   0.793  17.139   4.263
59947W        W28310   0.946  32.906   4.646
59948W        W28311  24.185   5.798   0.952
59949W        W28312  19.039  13.719   1.319
59950W        W28313  44.799  35.486   4.787
59951W        W28314  26.155  12.261  12.088
59952W        W28315   8.356  11.770   2.325
59953W        W28316  21.666  32.614  14.371
59954W        W28317  15.715  26.171   3.748
59955W        W28318  40.326  27.479   2.351
59956W        W28319  31.526   9.723   4.800
59957W        W28320  27.106  35.869   0.265
59958W        W28321   8.839  26.461  14.343
59959W        W28322  42.353  34.045  11.483
59960W        W28323  28.931   1.821   0.312
59961W        W28324  21.106  32.116   3.182
59962W        W28325  31.570  24.032  12.016
59963W        W28326  38.428  39.942   3.835
59964W        W28327   8.872  39.534  14.019
59965W        W28328  37.576  38.417   0.766
59966W        W28329  22.124  30.509   3.333
59967W        W28330   5.708  43.941   4.144
59968W        W28331   5.285  17.644   4.229
59969W        W28332  23.067   8.859  13.421
59970W        W28333   1.391  32.511   0.765
59971W        W28334  27.098  40.422  14.880
59972W        W28335  17.593  40.981   1.910
59973W        W28336  35.578  10.201  13.404
59974W        W28337  25.688  44.387  10.481
59975W        W28338   0.818  22.997   5.578
59976W        W28339  35.482  26.084   0.945
59977W        W28340  34.481  31.458   2.298
59978W        W28341   2.236  32.501  13.354
59979W        W28342  41.431  29.600  13.403
59980W        W28343   6.800  30.046   4.691
59981W        W28344  14.700   8.304   3.370
59982W        W28345  30.963  30.913   5.664
59983W        W28346  22.142  21.023  11.470
59984W        W28347  36.448  32.579   4.717
59985W        W28348  12.156  43.353  13.817
59986W        W28349  18.099  36.446   4.597
59987W        W28350   8.870  26.493  10.487
59988W        W28351  20.527  41.392  14.928
59989W        W28352  19.559  19.111  12.834
59990W        W28353  12.173  31.963   1.712
59991W        W28354  21.110  32.430   4.186
59992W        W28355   2.849  13.282  11.072
59993W        W28356  16.727  21.174   2.835
59994W        W28357   6.917  29.002  13.363
59995W        W28358  23.142  13.313   1.309
59996W        W28359  18.617   4.405   4.797
59997W        W28360   2.787  44.776  14.027
59998W        W28361  16.634  27.088   3.367
59999W        W28362  21.199  42.347   4.338
60000W        W28363  30.017  19.776  13.822
60001W        W28364  26.038  33.047  12.944
60002W        W28365   4.402  40.945   1.284
60003W        W28366  37.051  28.659   2.386
60004W        W28367   0.251  42.450  11.482
60005W        W28368  38.070  18.236   5.289
60006W        W28369  31.544  34.392   0.445
60007W        W28370   2.786   1.477  14.879
60008W        W28371  33.455  18.604   4.302
60009W        W28372  23.213  20.610  12.461
60010W        W28373   0.781  23.032   3.667
60011W        W28374  16.234  10.332   0.922
60012W        W28375  12.188  44.801   1.260
60013W        W28376  38.917   5.822   4.753
60014W        W28377   0.292  33.993   2.261
60015W        W28378  13.846  29.535   1.834
60016W        W28379  32.117  13.639   1.736
60017W        W28380   3.797  30.468   4.683
60018W        W28381   0.422  21.606   2.340
60019W        W28382  41.451  23.628   1.903
60020W        W28383  43.851  14.779  14.341
60021W        W28384  26.099  32.410  12.367
60022W        W28385  22.515  19.057   4.195
60023W        W28386  36.392   4.862  11.107
60024W        W28387   8.677  44.827  11.386
60025W        W28388  37.565  32.449   1.272
60026W        W28389  22.672  29.660   4.127
60027W        W28390  28.453  31.552   2.809
60028W        W28391  29.020  21.667  14.291
60029W        W28392  20.621  25.584   3.724
60030W        W28393  34.910   3.282   1.845
60031W        W28394  44.894  35.106   2.823
60032W        W28395  43.805  10.342   2.689
60033W        W28396   5.394   9.332   4.621
60034W        W28397   3.337  21.115   3.784
60035W        W28398  22.538  26.023   1.840
60036W        W28399  31.534  10.174  13.411
60037W        W28400  20.721   8.834   4.222
60038W        W28401  15.714  23.661  10.097
60039W        W28402   4.448  37.959   4.265
60040W        W28403  16.196  39.926  12.882
60041W        W28404  41.791  22.017  14.359
60042W        W28405   8.690  40.928  13.518
60043W        W28406   5.717  24.067  11.513
60044W        W28407  26.468  22.701  14.942
60045W        W28408  23.077  44.997  12.422
60046W        W28409  19.270  12.732   1.365
60047W        W28410  34.006  33.533  11.541
60048W        W28411  32.453  29.099   9.655
60049W        W28412   7.731   3.266  14.919
60050W        W28413   4.820  24.680  10.490
60051W        W28414  18.588  30.461  14.976
60052W        W28415  38.933   6.914  14.397
60053W        W28416   1.753  34.419   3.369
60054W        W28417  11.798  40.816  13.851
60055W        W28418  17.266  42.003  10.627
60056W        W28419  30.419  31.125  11.942
60057W        W28420   8.756  29.605   2.227
60058W        W28421  32.119  43.421  14.783
60059W        W28422  42.818  23.167   0.394
60060W        W28423   5.205  30.475  11.545
60061W        W28424   3.323  29.023   4.819
60062W        W28425   1.404  12.136   4.137
60063W        W28426  29.102   9.826  14.410
60064W        W28427  35.913  30.504   3.216
60065W        W28428  12.180  33.572   3.705
60066W        W28429  42.840   5.786  10.895
60067W        W28430  35.985  29.479   4.241
60068W        W28431  12.354  44.307  14.790
60069W        W28432  41.293  28.614  12.029
60070W        W28433  16.694  33.062  10.448
60071W        W28434  37.458   5.767  11.021
60072W        W28435   7.868  24.999  13.052
60073W        W28436   4.877  36.386   0.476
60074W        W28437  38.918   9.273   0.435
60075W        W28438  15.802  21.220  12.450
60076W        W28439   7.756  11.327   4.229
60077W        W28440  20.191  27.493  12.898
60078W        W28441  27.467  16.293   2.866
60079W        W28442   1.239  17.265   3.147
60080W        W28443  13.284  39.014   0.855
60081W        W28444  22.654   1.784   0.353
60082W        W28445  13.325  34.584  13.492
60083W        W28446  10.800   7.785  10.990
60084W        W28447  40.419  33.076  12.988
60085W        W28448  16.185  40.495   0.433
60086W        W28449  27.592   1.451  11.106
60087W        W28450   7.801  13.673   0.417
60088W        W28451  36.858  13.674   3.154
60089W        W28452  40.926   8.665   4.660
60090W        W28453  32.551  25.101   1.740
60091W        W28454  28.619  14.251  14.800
60092W        W28455  25.962   7.352  11.605
60093W        W28456  22.153  41.882  12.892
60094W        W28457  21.699  32.906  13.828
60095W        W28458  25.126  35.108  12.912
60096W        W28459  43.366  31.508  12.547
60097W        W28460   3.293  28.948  14.788
60098W        W28461  38.888  19.110   2.388
60099W        W28462  14.688   9.342   2.340
60100W        W28463  31.089  11.725  11.573
60101W        W28464  15.178  43.979  13.421
60102W        W28465  41.788  44.376   4.178
60103W        W28466  10.163  29.559   1.823
60104W        W28467  34.392  29.110  10.497
60105W        W28468  43.479  42.813   0.745
60106W        W28469  18.670  44.395  11.562
60107W        W28470  44.001  36.853  10.459
60108W        W28471  41.014  39.022   2.843
60109W        W28472  38.511  12.850  14.387
60110W        W28473  28.661  41.411  11.555
60111W        W28474  29.960  30.550   3.803
60112W        W28475  24.573  27.566   2.354
60113W        W28476  16.186  29.635   3.329
60114W        W28477  16.156  16.249  10.008
60115W        W28478  18.209   4.417  12.359
60116W        W28479  12.623  21.261   4.217
60117W        W28480  20.045  33.089  10.562
60118W        W28481   6.883  42.306  12.437
60119W        W28482   4.867   0.784  10.588
60120W        W28483  31.435  28.013   0.766
60121W        W28484  40.448  32.485  12.858
60122W        W28485  26.698  16.790  13.464
60123W        W28486  28.460  18.132   0.357
60124W        W28487  26.959  31.086  11.489
60125W        W28488   8.723  10.700  14.347
60126W        W28489  40.411  39.382   3.867
60127W        W28490   5.717   3.767   1.927
60128W        W28491  29.920  31.427  12.028
60129W        W28492  15.199  27.516  12.350
60130W        W28493  38.556  10.232  14.981
60131W        W28494   7.224  40.394   1.243
60132W        W28495  26.500   2.762  11.085
60133W        W28496  39.558  10.219  10.557
60134W        W28497  29.011  24.542   3.328
60135W        W28498  22.101  35.101   3.713
60136W        W28499   4.303  32.562  12.443
60137W        W28500  15.697  16.189   4.114
60138W        W28501  38.377  25.510  11.522
60139W        W28502  39.852   8.764  10.631
60140W        W28503  43.933  18.584  13.877
60141W        W28504  30.446  14.201   0.443
60142W        W28505  37.937  39.886  12.440
60143W        W28506  31.151  26.518  10.157
60144W        W28507  15.175  12.761  12.980
60145W        W28508  18.251  15.634   0.280
60146W        W28509   6.799  24.688  12.951
60147W        W28510  38.565  34.575  10.640
60148W        W28511   7.775  15.113   3.722
60149W        W28512  12.684  14.115   1.353
60150W        W28513  35.108   8.771  10.912
60151W        W28514  14.623  44.852   3.206
60152W        W28515  30.607  44.298   3.668
60153W        W28516  20.184  23.523  13.930
60154W        W28517  22.732  20.261  10.942
60155W        W28518  44.959  16.718   0.812
60156W        W28519   5.911  33.900  14.966
60157W        W28520  25.119   0.953   2.868
60158W        W28521  13.618  23.662   3.690
60159W        W28522  43.485  20.200  12.072
60160W        W28523  39.872   8.822   1.780
60161W        W28524  18.082  25.981  10.489
60162W        W28525   6.807  10.775  12.445
60163W        W28526   5.346  44.887   5.577
60164W        W28527   7.304  40.012   3.201
60165W        W28528  29.558   7.777  11.051
60166W        W28529  22.714  43.963  12.835
60167W        W28530  42.409  32.901   3.750
60168W        W28531  12.346  24.115  12.052
60169W        W28532  44.494  39.550  13.425
60170W        W28533  31.962  11.235  11.425
60171W        W28534  41.369  32.533   4.134
60172W        W28535  31.541  36.910   4.182
60173W        W28536   1.289  44.968   1.728
60174W        W28537  22.054   3.393  13.933
60175W        W28538  19.205  21.044   4.266
60176W        W28539  19.706  35.427   3.855
60177W        W28540  37.883  13.600  12.861
60178W        W28541  35.883   1.317   3.218
60179W        W28542   4.294  33.414   1.756
60180W        W28543  18.227  26.044   0.932
60181W        W28544   5.362  37.031  11.437
60182W        W28545  11.638   7.901   2.202
60183W        W28546  24.004  14.615  14.299
60184W        W28547  20.545  27.585   2.192
60185W        W28548   1.386  34.070   2.256
60186W        W28549  27.531  31.935  13.915
60187W        W28550  11.828  25.026  12.056
60188W        W28551  31.989   1.773   2.390
60189W        W28552  26.540   6.893  12.086
60190W        W28553  30.536  29.943  11.083
60191W        W28554   7.732  30.590  12.505
60192W        W28555  27.635  44.478  13.403
60193W        W28556  10.246  23.579   9.921
60194W        W28557   1.367  25.013  12.004
60195W        W28558   4.396  35.019   4.796
60196W        W28559  35.023  23.702  11.521
60197W        W28560  19.283  15.655   0.761
60198W        W28561  14.730   5.422  11.466
60199W        W28562  35.882  20.247  12.950
60200W        W28563  19.640   5.314   3.753
60201W        W28564  44.361  16.100  10.498
60202W        W28565   9.295  31.562  13.465
60203W        W28566   7.242  39.513   1.279
60204W        W28567  27.582  11.350  14.869
60205W        W28568   9.742  41.803   1.735
60206W        W28569   3.922  38.825  13.316
60207W        W28570  41.839  23.544  11.871
60208W        W28571  10.708  29.947   1.275
60209W        W28572  35.561   1.296   1.895
60210W        W28573   1.781  28.620   0.448
60211W        W28574   8.802  19.046  10.564
60212W        W28575  33.088  35.445  14.784
60213W        W28576  17.207   7.259   2.857
60214W        W28577  18.607   3.780  14.879
60215W        W28578  24.110  25.640  11.377
60216W        W28579   2.350  20.214  12.497
60217W        W28580  17.781  34.002   2.901
60218W        W28581  25.117   3.806  10.949
60219W        W28582  24.700  29.572   3.219
60220W        W28583  43.812  27.475   3.850
60221W        W28584  18.079  11.347  11.571
60222W        W28585   5.838   0.474   0.903
60223W        W28586  41.959   3.769  14.480
60224W        W28587  30.579   1.787   2.747
60225W        W28588  19.636   0.360   2.704
60226W        W28589  19.080   1.820   2.206
60227W        W28590  26.175  36.368   4.746
60228W        W28591  22.561  15.109  11.565
60229W        W28592  38.882  41.886   2.368
60230W        W28593  25.197  18.555   4.204
60231W        W28594  34.571   9.828  14.960
60232W        W28595  38.024  35.956  13.890
60233W        W28596  20.761  23.159   1.741
60234W        W28597  18.287  11.168  11.886
60235W        W28598  23.603  17.164  10.513
60236W        W28599  34.934  25.635   4.785
60237W        W28600   6.826   7.188  14.503
60238W        W28601  30.477   2.376   3.732
60239W        W28602  30.614  41.814   4.338
60240W        W28603   8.802  29.145  12.560
60241W        W28604  13.118   1.389   4.262
60242W        W28605  14.701   8.298   4.192
60243W        W28606  41.332   6.306  14.430
60244W        W28607  30.137  30.076   5.223
60245W        W28608  43.450  39.495  11.588
60246W        W28609  31.056   8.820   0.333
60247W        W28610   8.871  14.745   0.775
60248W        W28611   0.276  35.050   3.157
60249W        W28612  27.509  37.501   3.288
60250W        W28613   7.714   3.279  13.062
60251W        W28614  43.815   4.229   1.333
60252W        W28615  14.333  30.990  14.465
60253W        W28616   0.270  39.031  13.816
60254W        W28617  16.207  10.203   4.197
60255W        W28618  20.685  35.966   0.871
60256W        W28619   4.737  30.991   2.725
60257W        W28620  32.493  17.725  14.855
60258W        W28621   0.979   0.360  14.800
60259W        W28622  30.069  20.634   4.785
60260W        W28623  16.728  36.854  12.509
60261W        W28624   1.955  38.991  14.894
60262W        W28625  21.212  15.114  11.532
60263W        W28626  36.374  29.602   4.130
60264W        W28627  43.379  26.467  14.015
60265W        W28628  35.061  43.021   2.898
60266W        W28629  37.476  26.512  12.832
60267W        W28630  42.453  33.936  10.908
60268W        W28631   6.396  11.853  14.388
60269W        W28632   8.784  39.916  14.294
60270W        W28633   4.759  43.890   0.820
60271W        W28634  35.409  15.580  11.514
60272W        W28635  43.507  44.376  12.397
60273W        W28636  44.766  38.516  10.056
60274W        W28637  12.728  22.040   3.336
60275W        W28638  44.831  24.562   2.309
60276W        W28639   9.859   2.793  14.425
60277W        W28640  34.073   2.905   0.747
60278W        W28641   8.370   0.809   4.642
60279W        W28642   3.791  22.221   5.689
60280W        W28643  44.309   1.765  12.341
60281W        W28644  25.992  20.044   4.779
60282W        W28645  34.469  38.959   4.616
60283W        W28646   6.823  35.864   3.828
60284W        W28647   9.344   1.302  11.595
60285W        W28648  43.316   1.809   0.912
60286W        W28649  24.000   3.947  12.960
60287W        W28650  44.273   2.340  14.789
60288W        W28651   1.787  25.059   3.285
60289W        W28652  44.818  32.926  14.020
60290W        W28653  18.229  15.149   4.661
60291W        W28654  44.299  30.015  11.572
60292W        W28655  29.008   4.921  13.058
60293W        W28656   9.222   1.273  14.819
60294W        W28657  25.492  28.963  12.573
60295W        W28658   0.793  38.425  11.972
60296W        W28659   9.257  10.672   3.816
60297W        W28660  41.981  36.094   0.939
60298W        W28661  42.872   2.387  13.029
60299W        W28662  26.102  43.961  14.900
60300W        W28663  21.155  26.183   1.249
60301W        W28664  26.137  10.274   1.901
60302W        W28665  28.450  42.996  12.955
60303W        W28666   6.227   6.290  12.383
60304W        W28667  21.196  34.974  15.000
60305W        W28668  42.997   5.877  12.580
60306W        W28669  38.857  19.121  12.514
60307W        W28670  29.083   1.976   2.198
60308W        W28671   3.244  34.022  12.560
60309W        W28672  21.755  42.789   4.765
60310W        W28673  10.281  39.930   2.855
60311W        W28674  17.687  42.348   4.629
60312W        W28675  27.687   6.401  14.012
60313W        W28676   7.723  19.259  11.595
60314W        W28677  19.546  19.146  12.476
60315W        W28678  18.247  18.708  10.488
60316W        W28679  29.487  37.834  13.049
60317W        W28680  30.123  18.615  10.591
60318W        W28681   9.391  38.894  10.469
60319W        W28682  25.067  17.185  12.394
60320W        W28683  30.116  31.065   1.836
60321W        W28684  16.190  28.496   2.317
60322W        W28685  25.086   5.877  10.455
60323W        W28686  29.944  36.912   1.921
60324W        W28687  38.566   3.728   3.727
60325W        W28688  38.847  24.121  13.020
60326W        W28689  35.100  24.145   0.945
60327W        W28690  41.003   6.904  10.550
60328W        W28691  19.624  24.173  14.368
60329W        W28692  23.180   0.382  12.549
60330W        W28693  20.549  31.936  12.364
60331W        W28694  43.465  37.359  14.845
60332W        W28695  38.065  22.533   4.134
60333W        W28696  26.051   6.356  14.990
60334W        W28697  31.572  27.596   5.644
60335W        W28698   7.878   8.856  14.405
60336W        W28699  12.282  25.091  13.347
60337W        W28700  13.829  18.275  14.282
60338W        W28701  44.459   4.395   1.884
60339W        W28702  33.110  43.477   2.371
60340W        W28703   6.804   2.445  10.418
60341W        W28704  14.710   0.916   2.201
60342W        W28705  19.039  13.656  12.081
60343W        W28706  38.071  10.199   0.480
60344W        W28707  42.350  25.661   1.711
60345W        W28708  16.083  11.838  12.059
60346W        W28709  41.799  34.063  11.604
60347W        W28710  37.423  26.196   1.925
60348W        W28711   8.308  36.498   3.783
60349W        W28712   8.861  30.442  11.441
60350W        W28713  30.621   3.307  12.857
60351W        W28714  44.280  37.905   4.681
60352W        W28715   4.746  33.057  12.475
60353W        W28716   5.259  26.195   1.216
60354W        W28717  31.090  41.037   1.770
60355W        W28718   6.906  38.355   1.872
60356W        W28719  26.521  10.688   0.290
60357W        W28720   6.291  13.286  11.419
60358W        W28721  35.915   4.288  12.356
60359W        W28722  12.131  22.108   1.739
60360W        W28723  22.705   1.302  13.440
60361W        W28724  22.582  25.146   2.222
60362W        W28725   1.887  11.211   4.624
60363W        W28726  42.937  20.764   2.820
60364W        W28727   9.384   8.214  12.995
60365W        W28728   9.165  12.715  11.396
60366W        W28729  31.898  19.615   0.964
60367W        W28730  25.517  16.780  11.503
60368W        W28731  27.149  19.682  14.867
60369W        W28732  16.681   8.889  13.412
60370W        W28733   3.746  34.456  14.443
60371W        W28734  40.395   2.775  14.993
60372W        W28735  26.172  11.688  12.057
60373W        W28736   8.756  23.704  11.052
60374W        W28737  32.449   2.935   1.225
60375W        W28738   5.305   5.839  14.403
60376W        W28739  33.598   7.680  14.760
60377W        W28740  33.624  26.995  13.484
60378W        W28741  39.870  18.094   0.757
60379W        W28742  11.715   5.932  14.922
60380W        W28743   8.655  42.489   4.711
60381W        W28744  36.453  13.250  10.931
60382W        W28745  37.991  22.637   3.226
60383W        W28746  30.049  32.967  12.345
60384W        W28747   3.931  44.808   1.421
60385W        W28748  39.449  30.578  12.534
60386W        W28749  27.163  13.170  12.442
60387W        W28750   1.270  23.680  12.961
60388W        W28751   4.929  10.238  14.030
60389W        W28752  39.929  38.897   1.706
60390W        W28753  13.196  36.580  11.881
60391W        W28754  23.696  26.602   2.283
60392W        W28755   5.689  33.938  10.957
60393W        W28756  18.676   5.695  14.945
60394W        W28757  18.118  34.516   4.657
60395W        W28758  35.416  39.856   1.850
60396W        W28759  31.624  17.703   1.344
60397W        W28760  31.444  13.298   0.324
60398W        W28761  11.702  34.922  11.610
60399W        W28762  26.495   1.290  10.609
60400W        W28763  32.575  17.179   3.359
60401W        W28764  42.505  40.821  12.006
60402W        W28765   9.882   3.885  14.800
60403W        W28766  14.698  41.021  12.382
60404W        W28767  33.009  28.498   0.817
60405W        W28768  27.651  42.413  11.921
60406W        W28769  35.861  25.132   5.104
60407W        W28770  35.485  27.172   1.712
60408W        W28771  25.500  20.262   2.834
60409W        W28772  37.538  34.404   1.838
60410W        W28773  37.042  30.935  10.426
60411W        W28774  14.738  33.601   2.731
60412W        W28775  44.390  35.079   3.648
60413W        W28776   1.256   0.917   4.797
60414W        W28777  21.635  37.975   3.206
60415W        W28778  40.938   7.823  13.536
60416W        W28779  43.291  37.058   3.342
60417W        W28780  23.003  17.672  10.580
60418W        W28781  21.160  15.101  10.425
60419W        W28782   8.365   2.728   0.900
60420W        W28783  35.997  28.551   0.341
60421W        W28784  23.694  23.047   1.425
60422W        W28785  20.111   2.857   2.848
60423W        W28786  30.098  33.960   4.638
60424W        W28787  38.560  21.613   3.660
60425W        W28788  34.449  12.675  12.915
60426W        W28789  12.714  31.035  11.612
60427W        W28790  12.296  43.911  11.613
60428W        W28791  44.777   8.753   4.169
60429W        W28792  13.112  10.302  12.083
60430W        W28793  19.103  32.116   4.727
60431W        W28794   7.837  22.186  12.082
60432W        W28795  27.509  30.649   0.414
60433W        W28796   2.940  18.261  10.509
60434W        W28797   6.888  22.682  13.976
60435W        W28798  39.430  27.140  13.879
60436W        W28799   2.254  30.074   1.740
60437W        W28800  26.509  37.041  11.968
60438W        W28801  21.116  40.548  13.953
60439W        W28802  33.067  15.122   2.779
60440W        W28803  22.544   0.913   1.215
60441W        W28804  12.136   2.379   1.909
60442W        W28805  11.655  16.700   2.678
60443W        W28806  22.656  43.438   4.691
60444W        W28807   9.792  33.900  11.434
60445W        W28808  40.947  43.329  11.446
60446W        W28809  15.713  32.943  13.801
60447W        W28810  37.935  17.153  10.633
60448W        W28811   0.282  42.430   4.728
60449W        W28812   2.866  18.687   0.806
60450W        W28813   3.364   0.956   4.195
60451W        W28814  30.112  23.143  14.380
60452W        W28815   9.719  12.755   0.483
60453W        W28816  38.819  38.507   3.866
60454W        W28817  12.145  18.607  13.484
60455W        W28818   3.716  20.159  13.983
60456W        W28819  24.084  18.555  11.945
60457W        W28820  10.360  41.981   0.321
60458W        W28821  36.996  15.256  10.635
60459W        W28822  28.988  25.005   0.883
60460W        W28823  18.158  35.992   0.270
60461W        W28824  28.603  42.495   4.807
60462W        W28825  21.677  35.917   1.751
60463W        W28826   4.321  40.850  10.431
60464W        W28827  41.299   7.306   0.955
60465W        W28828   1.774   2.358   3.680
60466W        W28829   1.821  30.474  12.578
60467W        W28830   8.747  33.123   4.251
60468W        W28831  24.534  19.579   0.471
60469W        W28832  37.360  41.475  14.385
60470W        W28833  39.947  26.139   1.313
60471W        W28834  41.851  12.712   2.276
60472W        W28835  21.118  33.997   3.227
60473W        W28836   3.728  42.881   3.294
60474W        W28837  29.526   2.753  12.389
60475W        W28838  28.627  28.637  13.401
60476W        W28839  35.939  16.259   3.637
60477W        W28840   2.723  29.983   1.779
60478W        W28841  40.537  17.556  11.508
60479W        W28842  19.257  28.476  11.397
60480W        W28843  39.531   4.900   4.185
60481W        W28844   8.893  44.424  13.945
60482W        W28845  10.295   5.295  10.932
60483W        W28846   4.859  25.609  14.924
60484W        W28847  28.663  12.735   1.401
60485W        W28848  30.141   2.344   1.818
60486W        W28849  22.555  32.994   2.214
60487W        W28850  27.171  15.700   4.772
60488W        W28851  27.131  30.955  13.450
60489W        W28852  24.526  40.906  12.908
60490W        W28853  22.006  34.916  14.512
60491W        W28854  22.656   4.758   2.834
60492W        W28855  10.876  42.485  14.344
60493W        W28856  23.735  39.407  11.871
60494W        W28857  25.474  43.767  10.428
60495W        W28858  44.793   1.293   1.430
60496W        W28859  11.291   9.815   4.350
60497W        W28860  11.156   6.379  10.421
60498W        W28861  10.346  36.866   3.834
60499W        W28862   2.448  11.728   2.329
60500W        W28863  39.473  44.894  13.430
60501W        W28864  31.015  20.054  14.796
60502W        W28865   2.390  21.133   9.981
60503W        W28866  33.451  31.974   1.777
60504W        W28867   3.743  10.310  12.890
60505W        W28868  39.467  17.702   0.468
60506W        W28869   5.261  41.915   4.194
60507W        W28870  44.771   6.260   1.424
60508W        W28871  12.796  21.157   4.649
60509W        W28872   6.715   5.310  11.492
60510W        W28873  32.505  10.648   0.853
60511W        W28874  42.826   4.206  11.123
60512W        W28875   0.951   8.250  14.822
60513W        W28876  31.076  10.730  12.502
60514W        W28877  11.770  44.347  13.930
60515W        W28878  20.192  43.951  13.813
60516W        W28879   3.902   9.229   3.201
60517W        W28880  43.816  40.367   2.414
60518W        W28881  36.867   9.359  12.540
60519W        W28882  16.699  25.088   4.788
60520W        W28883   4.291  18.122   4.225
60521W        W28884  43.498  23.707  12.028
60522W        W28885  18.130  27.947  11.403
60523W        W28886   7.412  17.594  11.438
60524W        W28887  15.765  29.991  14.009
60525W        W28888  34.598  20.584  13.440
60526W        W28889  30.456  42.005   3.650
60527W        W28890  11.248   1.867  13.380
60528W        W28891  39.851  30.998  14.941
60529W        W28892  19.056   4.323   2.399
60530W        W28893   2.836  24.616  10.015
60531W        W28894   8.707  38.925   4.222
60532W        W28895  14.680  26.074   0.415
60533W        W28896  13.342   0.847   9.960
60534W        W28897  34.977  40.478   5.151
60535W        W28898  26.090   1.853  11.040
60536W        W28899  36.487  17.225  11.581
60537W        W28900  41.940   6.415   4.793
60538W        W28901  44.362  15.244   0.810
60539W        W28902  25.507  28.590   1.379
60540W        W28903  21.691  28.441   1.292
60541W        W28904  22.566  25.699   3.666
60542W        W28905  38.538  44.905  11.580
60543W        W28906  44.876  32.579   3.324
60544W        W28907  38.403  11.167   5.198
60545W        W28908  34.503  16.607  12.951
60546W        W28909   0.271  36.940  10.450
60547W        W28910   3.325  24.183  13.465
60548W        W28911   4.432  26.156  14.333
60549W        W28912  24.546  13.601   1.334
60550W        W28913  28.036  16.747   3.752
60551W        W28914  15.720  39.490   1.761
60552W        W28915  30.998  29.425   0.813
60553W        W28916  16.671  30.054   0.859
60554W        W28917  24.056  37.498  10.497
60555W        W28918  42.428  35.028   2.378
60556W        W28919  15.767  28.961  14.967
60557W        W28920  18.675  21.022   2.354
60558W        W28921  26.507  18.733  13.438
60559W        W28922  20.059  27.546   2.191
60560W        W28923  20.191  41.417   1.809
60561W        W28924  22.160  33.879  13.447
60562W        W28925  42.830   5.400   3.356
60563W        W28926  33.104   5.888   3.219
60564W        W28927  12.323  37.475  12.847
60565W        W28928  27.542  44.276  12.840
60566W        W28929  24.620   3.748  11.423
60567W        W28930   8.752  22.694  11.446
60568W        W28931  39.482  43.943   1.347
60569W        W28932  33.594  32.406   0.305
60570W        W28933  28.117  28.070  11.973
60571W        W28934  15.169  20.076   3.781
60572W        W28935  40.367  27.042  10.549
60573W        W28936  28.435   9.810   4.212
60574W        W28937  11.351   9.350  10.922
60575W        W28938  26.208  22.057   4.171
60576W        W28939   8.787   7.899   0.963
60577W        W28940  27.031   0.755   3.692
60578W        W28941  11.696  19.049   1.263
60579W        W28942  32.445  39.051  12.973
60580W        W28943  43.300  29.008  13.920
60581W        W28944  34.416  34.118  12.061
60582W        W28945  43.828  30.165   2.234
60583W        W28946  10.226   3.297   4.779
60584W        W28947   0.454  16.094   4.113
60585W        W28948   7.194  21.539  11.461
60586W        W28949  12.637  41.992  11.901
60587W        W28950   8.253  23.651   0.868
60588W        W28951  38.960  43.490   2.358
60589W        W28952   3.740  26.570   0.406
60590W        W28953  31.060  25.007  12.959
60591W        W28954  25.979   8.375  14.974
60592W        W28955   4.356   1.854   4.719
60593W        W28956  25.996  35.530   3.273
60594W        W28957   2.227  43.790  14.409
60595W        W28958  11.260  12.696   0.267
60596W        W28959   0.911  27.607  12.535
60597W        W28960  36.503  40.844  14.360
60598W        W28961  28.074   8.380  11.577
60599W        W28962  31.905  35.092   4.204
60600W        W28963   2.749  31.984   3.255
60601W        W28964  36.365  23.073   3.164
60602W        W28965   0.454   2.838   4.750
60603W        W28966  42.967  17.563  11.958
60604W        W28967  32.396  21.202  10.472
60605W        W28968   6.698  39.441  11.457
60606W        W28969  35.871   9.861   1.262
60607W        W28970  26.985  11.362   3.308
60608W        W28971  28.022  32.024   1.300
60609W        W28972  30.599  19.057  11.509
60610W        W28973  14.173  28.073  12.456
60611W        W28974  44.473   6.391  13.846
60612W        W28975  31.592  44.009   2.820
60613W        W28976  20.107  25.083   2.686
60614W        W28977  19.597  37.859  12.453
60615W        W28978   5.760  16.734   0.452
60616W        W28979  35.536   2.783   3.714
60617W        W28980  35.447  22.623  13.818
60618W        W28981  27.065  41.522   0.791
60619W        W28982  10.365  29.530  11.100
60620W        W28983  15.232  32.956   1.249
60621W        W28984   3.931  38.986   1.852
60622W        W28985   2.397  35.985   5.303
60623W        W28986  26.964   3.403   3.296
60624W        W28987   3.805  24.658  13.345
60625W        W28988  35.858  15.655   1.344
60626W        W28989  25.613  27.628   1.704
60627W        W28990  37.064  27.054  14.851
60628W        W28991  44.464   8.193  14.898
60629W        W28992  20.088  26.956  13.426
60630W        W28993   4.431  31.043   3.647
60631W        W28994  34.449  22.162   3.322
60632W        W28995  44.798   1.876   0.277
60633W        W28996  20.584  12.267  14.309
60634W        W28997  24.633   4.352  10.562
60635W        W28998  36.582  12.813  11.985
60636W        W28999   2.862   6.705  10.508
60637W        W29000   7.822  18.567   2.408
60638W        W29001  32.961  44.328  12.501
60639W        W29002  19.536  35.986   3.319
60640W        W29003   1.894  44.275  14.497
60641W        W29004  34.004  40.415  14.788
60642W        W29005  41.363  21.752   1.795
60643W        W29006   1.906  19.271  14.899
60644W        W29007  44.790  38.510   1.232
60645W        W29008   4.291  34.472   1.829
60646W        W29009  34.082  39.902  11.495
60647W        W29010  41.323  22.144   4.290
60648W        W29011  34.518  38.401   0.264
60649W        W29012  41.357  24.225  10.616
60650W        W29013  38.889   7.687   4.307
60651W        W29014  34.099   7.807  10.410
60652W        W29015   6.831  21.026   1.831
60653W        W29016  30.086  44.476   2.411
60654W        W29017   7.906  21.627  11.411
60655W        W29018  11.783  42.793  12.040
60656W        W29019  35.377  37.949   1.332
60657W        W29020  24.153  21.257   1.701
60658W        W29021  24.136  20.577  14.495
60659W        W29022   2.799  41.300  10.546
60660W        W29023  38.879  41.330   3.328
60661W        W29024  23.158  34.048   0.364
60662W        W29025  42.793  16.220   1.336
60663W        W29026   9.850  30.575   3.165
60664W        W29027   6.848  24.491  11.556
60665W        W29028  36.565  15.681   0.259
60666W        W29029  38.005  44.279   3.841
60667W        W29030  39.381  17.116  11.517
60668W        W29031  12.705  29.128  12.083
60669W        W29032  37.876  14.702  10.466
60670W        W29033   2.843  14.094  10.425
60671W        W29034  23.512   0.963   2.411
60672W        W29035  25.080  23.521   3.369
60673W        W29036  35.918  13.238  11.570
60674W        W29037   0.474  31.138  13.041
60675W        W29038  16.768  32.487  11.421
60676W        W29039  18.202  16.152  14.455
60677W        W29040  32.453  33.994   1.261
60678W        W29041  28.543  41.508   4.290
60679W        W29042  31.035   9.217  10.433
60680W        W29043  34.114  32.954  10.640
60681W        W29044   4.428  15.104   4.794
60682W        W29045  37.422  29.539   5.209
60683W        W29046  18.595  38.544  13.459
60684W        W29047  42.379  20.753  13.427
60685W        W29048  18.113  21.612  14.301
60686W        W29049  26.572   2.457   3.372
60687W        W29050  40.313  44.452  10.101
60688W        W29051  19.713  40.887   3.768
60689W        W29052  33.457  33.980   4.116
60690W        W29053  28.141  15.163  11.091
60691W        W29054   9.157  20.040  13.999
60692W        W29055   6.915  10.208  12.392
60693W        W29056   9.282  28.521  13.839
60694W        W29057  33.398   8.662   0.839
60695W        W29058  25.129  39.321   0.283
60696W        W29059   5.329  11.271  12.368
60697W        W29060  38.035  42.962   4.341
60698W        W29061  14.158  20.711   2.354
60699W        W29062  11.228   3.221  12.971
60700W        W29063  15.131  15.801   1.768
60701W        W29064  13.255  29.632  11.509
60702W        W29065   1.833  13.697  11.997
60703W        W29066  41.335  28.988   3.699
60704W        W29067  17.718  40.325  14.924
60705W        W29068   0.319   3.355  12.400
60706W        W29069  11.680  19.769   1.371
60707W        W29070  22.180  15.818   2.722
60708W        W29071  25.489  24.719  12.374
60709W        W29072   3.902  28.938   4.639
60710W        W29073   8.220  25.713   2.804
60711W        W29074  14.832   1.732  12.857
60712W        W29075  39.835  28.631   3.848
60713W        W29076  42.432  21.118  10.408
60714W        W29077  24.115  30.500  10.536
60715W        W29078   6.194   1.308   2.232
60716W        W29079  15.750  20.238  11.884
60717W        W29080  31.417   5.360  12.825
60718W        W29081  14.184  14.734   0.370
60719W        W29082  39.970  39.479  11.409
60720W        W29083  22.081  11.678  13.472
60721W        W29084  19.678  16.112   4.707
60722W        W29085  42.001   5.852   2.296
60723W        W29086  41.838  30.125  12.447
60724W        W29087  40.958  18.113   4.285
60725W        W29088   5.399  36.909  13.543
60726W        W29089  25.476  26.659  10.490
60727W        W29090  30.093   1.740   0.296
60728W        W29091  34.004  33.514   0.467
60729W        W29092  36.880   7.708  12.048
60730W        W29093  14.145   8.677  13.858
60731W        W29094  21.192   2.230  13.879
60732W        W29095  38.561   0.847   4.129
60733W        W29096  21.710   4.797   2.806
60734W        W29097  35.411  42.821   4.184
60735W        W29098   8.352  39.545   4.291
60736W        W29099  33.541   0.412   3.297
60737W        W29100  24.007  23.202   0.958
60738W        W29101  10.234   1.393  10.632
60739W        W29102  22.244  18.579  10.619
60740W        W29103   0.493   3.281   0.867
60741W        W29104  28.953  36.528   1.388
60742W        W29105  37.360  15.745   3.326
60743W        W29106  13.261  23.553  14.420
60744W        W29107  21.730  30.913  13.434
60745W        W29108  42.460  25.964   2.375
60746W        W29109  13.745  22.019  14.499
60747W        W29110   4.705  35.525  13.511
60748W        W29111  33.114  35.992  12.015
60749W        W29112  14.761  13.830  14.335
60750W        W29113   0.276   3.217  14.893
60751W        W29114  40.402  30.565   5.198
60752W        W29115  44.762  33.084   2.203
60753W        W29116  41.818   1.791  13.359
60754W        W29117   7.688  17.697   2.663
60755W        W29118  13.257  29.085   2.411
60756W        W29119   5.240  40.946  14.453
60757W        W29120  37.033  25.140  12.944
60758W        W29121  15.762  11.142  12.443
60759W        W29122  14.338   3.362  12.917
60760W        W29123  19.080  15.812   1.913
60761W        W29124   9.658  23.558   3.152
60762W        W29125   3.301  26.603  13.348
60763W        W29126  13.149   8.696   2.393
60764W        W29127  14.204   7.350  12.020
60765W        W29128  32.975   2.396   5.098
60766W        W29129  28.620  20.720  11.480
60767W        W29130  16.263   9.798  12.858
60768W        W29131  23.077  17.743   0.353
60769W        W29132  41.821  10.642   3.226
60770W        W29133  24.996  21.138   0.271
60771W        W29134  26.682  30.521   1.230
60772W        W29135   6.813  44.920   2.846
60773W        W29136  35.573   2.404  14.283
60774W        W29137  32.566  23.203  14.337
60775W        W29138   7.814  17.234   2.902
60776W        W29139  36.408  36.902  12.419
60777W        W29140  15.243  33.914   2.879
60778W        W29141  15.639  32.055  10.444
60779W        W29142  22.114  24.512   2.332
60780W        W29143  35.420  17.780   3.288
60781W        W29144  30.518  30.025   5.115
60782W        W29145   9.840  12.167  10.622
60783W        W29146  38.031  42.943   4.621
60784W        W29147  14.170   9.888   2.292
60785W        W29148  43.896   7.888   2.352
60786W        W29149  30.007   4.838  10.974
60787W        W29150  18.276  10.234   4.182
60788W        W29151  37.010  14.692   2.881
60789W        W29152   8.865  26.662   2.796
60790W        W29153  35.558  26.130   4.680
60791W        W29154  19.693  31.499  13.821
60792W        W29155  21.608  11.673  10.599
60793W        W29156  27.514  29.519  14.336
60794W        W29157  41.305  41.469  13.031
60795W        W29158  37.960  36.057  12.880
60796W        W29159   7.249  10.146  12.941
60797W        W29160  38.372  13.749   3.251
60798W        W29161  25.990  18.771   0.290
60799W        W29162  14.291  32.414  10.508
60800W        W29163  31.499  39.866   0.307
60801W        W29164   0.833  23.133   1.887
60802W        W29165   3.948  27.095   1.410
60803W        W29166  34.545  27.510  14.396
60804W        W29167  21.225   4.811   4.236
60805W        W29168   9.350  13.724  14.031
60806W        W29169  25.012   3.227   3.168
60807W        W29170  28.062  26.149   2.831
60808W        W29171   1.950  27.102   3.165
60809W        W29172  20.711  27.552   4.301
60810W        W29173  22.096  34.530  11.524
60811W        W29174  12.701  11.168  12.566
60812W        W29175   4.810  41.444   0.365
60813W        W29176   5.918  19.122   2.256
60814W        W29177  17.732  13.306  11.068
60815W        W29178   1.817  17.586   0.277
60816W        W29179   0.490  25.567  14.909
60817W        W29180  30.149  44.878  14.359
60818W        W29181  16.783  24.604  12.927
60819W        W29182  29.989   8.755   3.674
60820W        W29183  37.881  31.915   4.131
60821W        W29184  31.581   6.354  13.514
60822W        W29185  31.405   2.747  10.938
60823W        W29186  17.250  14.810   2.216
60824W        W29187   6.681   4.758   4.824
60825W        W29188  10.684   3.250   3.692
60826W        W29189  33.501  30.046  14.383
60827W        W29190   5.750   0.324   4.825
60828W        W29191  28.527   1.962   1.354
60829W        W29192  17.569   6.210   1.219
60830W        W29193  20.133  11.245  11.979
60831W        W29194   4.916  38.056  10.937
60832W        W29195  20.182  23.228   4.604
60833W        W29196  10.734   1.867   0.861
60834W        W29197  39.517  12.671  13.888
60835W        W29198   6.733   0.969  10.992
60836W        W29199   6.386  15.650   1.409
60837W        W29200  25.471  33.990   1.882
60838W        W29201  32.063  10.867  12.917
60839W        W29202  41.506  42.402  13.013
60840W        W29203  11.357  21.123  12.393
60841W        W29204   1.359   2.838  14.916
60842W        W29205  35.084  25.009   0.842
60843W        W29206  41.367   7.823  10.448
60844W        W29207  19.571  32.596   4.154
60845W        W29208   7.738  37.861  11.926
60846W        W29209  10.848   7.391   4.325
60847W        W29210   9.857  39.361  14.986
60848W        W29211   8.260  14.210  11.117
60849W        W29212   7.829  41.334   5.285
60850W        W29213  41.505  28.503   3.257
60851W        W29214  38.490  34.084   1.848
60852W        W29215  22.150  39.946  11.384
60853W        W29216  31.623  29.665  12.464
60854W        W29217  27.640  39.379   1.447
60855W        W29218  44.766  30.955  13.051
60856W        W29219  12.770  20.586  10.618
60857W        W29220  26.036   1.397  12.926
60858W        W29221   2.790  26.596  13.382
60859W        W29222  19.652  11.331  13.825
60860W        W29223  10.723  22.195  11.129
60861W        W29224   2.796  43.365  10.504
60862W        W29225  35.372  19.569  14.343
60863W        W29226   9.880  10.755   4.811
60864W        W29227  19.055  27.972   3.353
60865W        W29228  11.210  37.471   4.784
60866W        W29229   0.462  21.185  14.877
60867W        W29230  22.581  23.166   1.820
60868W        W29231  24.150  35.390   4.288
60869W        W29232  22.226  10.238   4.691
60870W        W29233  34.936  10.259   3.336
60871W        W29234  24.525  37.574   2.360
60872W        W29235  12.252  42.006  12.351
60873W        W29236  36.589  43.849   0.340
60874W        W29237  26.180  22.170  13.918
60875W        W29238   4.707  17.692  12.362
60876W        W29239  36.996  39.012   3.790
60877W        W29240   4.766   2.792   4.623
60878W        W29241  43.457   1.789  10.145
60879W        W29242   4.861  27.661  13.832
60880W        W29243  43.472  10.236  14.381
60881W        W29244  14.688  18.664   1.902
60882W        W29245  22.520  38.333   2.183
60883W        W29246  39.975  15.209  12.095
60884W        W29247  17.273  29.151  11.508
60885W        W29248  38.482   4.860   4.211
60886W        W29249  40.806  20.568   4.312
60887W        W29250   8.301  37.516   3.755
60888W        W29251  34.018  26.683  12.841
60889W        W29252   3.902  17.668  11.515
60890W        W29253  36.034  38.999   4.114
60891W        W29254  25.107  12.245  11.446
60892W        W29255   3.792  36.872  11.068
60893W        W29256  19.647  32.559  13.525
60894W        W29257  12.644  33.484  14.350
60895W        W29258   7.689  34.451   2.887
60896W        W29259  36.366  33.005  13.484
60897W        W29260  15.289  24.033   1.328
60898W        W29261  41.908  24.499   2.258
60899W        W29262  27.546  17.785   4.255
60900W        W29263  22.580  44.326   0.871
60901W        W29264  32.620   0.410   4.643
60902W        W29265  30.999  44.343   4.257
60903W        W29266  15.287  17.096  12.092
60904W        W29267   7.291  30.143   2.704
60905W        W29268   2.830  14.127  11.406
60906W        W29269  34.592   8.270  11.469
60907W        W29270  12.697  43.422   3.340
60908W        W29271  18.713  38.927   4.321
60909W        W29272  39.851   7.387   1.932
60910W        W29273   1.830  42.924  11.873
60911W        W29274  10.780  43.376  12.487
60912W        W29275  11.710   4.890   2.279
60913W        W29276  35.405  17.128  12.431
60914W        W29277  28.090  38.018   2.796
60915W        W29278   5.739   5.831  10.467
60916W        W29279   3.874  23.636   5.296
60917W        W29280   9.859  29.013   0.821
60918W        W29281  23.590  38.493   0.906
60919W        W29282  20.171  22.157   1.310
60920W        W29283  31.963  44.411  10.060
60921W        W29284  30.934  33.560   1.239
60922W        W29285  42.992  16.105  12.565
60923W        W29286  44.962  32.542   4.201
60924W        W29287  15.262  10.676   3.807
60925W        W29288  14.668  35.528   3.150
60926W        W29289  11.184  21.253  10.418
60927W        W29290  20.718  25.213  14.832
60928W        W29291  29.618  43.416  10.545
60929W        W29292  11.768  37.996  12.856
60930W        W29293  21.087  40.825   4.799
60931W        W29294  35.876  17.710   0.407
60932W        W29295  28.088  24.638   4.301
60933W        W29296  14.622  26.170  13.968
60934W        W29297   6.389  19.118   2.199
60935W        W29298  10.818   1.950   4.184
60936W        W29299  41.480  22.509  12.938
60937W        W29300  33.957  43.378  12.064
60938W        W29301  42.479  25.139  10.510
60939W        W29302  43.887  41.486   3.660
60940W        W29303  23.728  38.058  10.516
60941W        W29304   1.278  12.292   0.798
60942W        W29305  37.971  34.371   4.153
60943W        W29306  28.177  41.016  12.849
60944W        W29307  28.174   8.171  13.484
60945W        W29308  24.578  35.097  12.959
60946W        W29309  42.919  23.489  13.876
60947W        W29310  26.667  38.881  13.359
60948W        W29311  23.181   5.232  13.042
60949W        W29312  32.593  42.966   3.846
60950W        W29313  37.347  26.011  13.048
60951W        W29314  34.531  25.612   4.254
60952W        W29315  11.843   9.378   3.234
60953W        W29316  24.166  22.552   4.819
60954W        W29317  43.797  42.775   1.702
60955W        W29318  29.063   4.317   0.330
60956W        W29319  13.120   1.894  11.454
60957W        W29320   0.323   8.711  14.389
60958W        W29321  30.919  17.569  12.079
60959W        W29322   1.290  39.060   4.817
60960W        W29323   7.346  15.256  13.405
60961W        W29324  44.463  19.066  11.422
60962W        W29325   8.690  11.751   1.867
60963W        W29326  18.749  18.172   1.826
60964W        W29327   1.454  14.756   1.310
60965W        W29328  15.743  35.871   2.746
60966W        W29329  34.539   5.760   0.432
60967W        W29330   5.723  38.498  11.894
60968W        W29331  16.170   0.877   0.271
60969W        W29332  38.903  27.054   0.959
60970W        W29333  40.388  13.191   2.668
60971W        W29334  32.436   2.951  12.049
60972W        W29335  23.997  36.884   1.829
60973W        W29336  40.390  14.736   3.686
60974W        W29337  10.752  12.228   4.684
60975W        W29338   1.770  42.921  11.435
60976W        W29339   8.344  15.289  13.939
60977W        W29340   2.367  18.729  14.894
60978W        W29341  43.826   0.861  13.033
60979W        W29342  40.528  12.290   4.700
60980W        W29343  22.724  32.059  13.399
60981W        W29344  23.596  44.852  14.818
60982W        W29345  24.023  43.430   4.252
60983W        W29346   1.274  23.573  11.877
60984W        W29347   1.917  11.755   2.838
60985W        W29348  38.002   3.834   3.146
60986W        W29349   5.886  17.208   4.728
60987W        W29350   6.835  42.026   1.707
60988W        W29351  42.450  30.421   0.820
60989W        W29352   5.239  18.732  11.460
60990W        W29353  41.025  38.070   0.938
60991W        W29354  32.592  21.731  13.017
60992W        W29355  14.602   3.718   0.779
60993W        W29356  27.480  42.027   3.837
60994W        W29357   7.301  29.471  11.567
60995W        W29358   7.353   3.233  11.927
60996W        W29359  13.701  39.342  14.007
60997W        W29360  42.025  43.940  13.372
60998W        W29361  20.636  25.698   0.254
60999W        W29362  29.963  19.116  10.553
61000W        W29363  12.279   8.829   4.265
61001W        W29364  25.167  43.842  14.988
61002W        W29365   7.761   2.863  13.951
61003W        W29366  24.201  30.090   1.870
61004W        W29367  12.727   4.317   4.275
61005W        W29368   0.893   9.839  13.309
61006W        W29369  40.977   3.817   4.758
61007W        W29370  24.085   8.718  10.888
61008W        W29371  10.326  30.429   4.137
61009W        W29372  29.980   4.327  11.102
61010W        W29373  32.448  19.118   3.797
61011W        W29374  34.615  40.419  11.075
61012W        W29375   7.188  25.108   2.372
61013W        W29376  11.336  33.518   0.375
61014W        W29377  42.407  14.250  13.496
61015W        W29378  13.681  42.826   1.435
61016W        W29379   7.812  13.671  12.086
61017W        W29380  28.036  23.683   3.304
61018W        W29381  32.135   0.793   1.930
61019W        W29382  28.959  38.473  11.584
61020W        W29383   3.796  30.938   3.649
61021W        W29384  14.191  14.723  13.019
61022W        W29385  40.479   9.742   1.433
61023W        W29386   1.864   1.429  10.474
61024W        W29387  27.523   1.743   1.360
61025W        W29388  15.669  19.643   0.477
61026W        W29389  37.949  19.708   4.173
61027W        W29390  27.958  33.471   3.723
61028W        W29391  16.096  22.025   2.690
61029W        W29392  26.030  18.751  10.429
61030W        W29393   3.404  14.809  13.917
61031W        W29394  13.249  39.450   4.170
61032W        W29395  22.696  20.145  12.946
61033W        W29396   7.773   8.683  12.920
61034W        W29397   2.869   1.306  12.951
61035W        W29398  28.542  11.245  12.933
61036W        W29399  14.297  29.579  11.463
61037W        W29400  15.633  12.298  13.494
61038W        W29401   0.380  22.678   3.348
61039W        W29402  15.134   7.725  12.572
61040W        W29403  12.273   6.228   5.167
61041W        W29404  32.608  39.539  12.546
61042W        W29405  38.882  16.116  14.804
61043W        W29406  33.895  41.978   3.674
61044W        W29407   4.402  35.914  13.387
61045W        W29408  38.916  10.705   1.256
61046W        W29409  13.175   0.972  11.596
61047W        W29410  32.897  31.527   3.794
61048W        W29411   9.190  38.571   2.792
61049W        W29412  29.122   7.782  10.961
61050W        W29413  43.341  26.632  14.407
61051W        W29414  24.200  31.903  10.918
61052W        W29415  15.578  25.153  14.014
61053W        W29416  20.138  27.603   4.724
61054W        W29417  18.672  11.793   0.402
61055W        W29418  12.140  39.316   2.795
61056W        W29419  15.771  44.389   5.163
61057W        W29420   7.816   2.297   2.354
61058W        W29421  40.399   0.925  10.104
61059W        W29422  39.533  28.483  13.847
61060W        W29423  38.544  36.941  12.886
61061W        W29424  43.013  37.496   0.357
61062W        W29425   8.665  44.808   1.819
61063W        W29426   1.402  41.883  14.019
61064W        W29427   0.355   1.251  11.113
61065W        W29428  30.072  29.427  11.121
61066W        W29429  41.419  32.468  14.758
61067W        W29430  43.477  29.502  14.988
61068W        W29431  12.661  26.159  11.907
61069W        W29432  14.616  19.203   0.767
61070W        W29433  31.038  28.649  14.317
61071W        W29434  24.487  11.650  13.005
61072W        W29435  31.591  10.777   2.860
61073W        W29436  26.000  10.188   5.142
61074W        W29437  34.507  14.110   2.201
61075W        W29438  20.688  21.718  10.906
61076W        W29439  35.376  14.821  12.987
61077W        W29440  37.442  28.127  13.014
61078W        W29441   0.468  28.944   2.331
61079W        W29442  19.136  16.733  11.607
61080W        W29443  23.602  38.471   1.236
61081W        W29444  28.551  10.683  13.383
61082W        W29445   3.354   7.262   4.652
61083W        W29446  32.480   6.224  14.385
61084W        W29447   4.737  29.578   1.912
61085W        W29448   9.234   7.304  10.014
61086W        W29449  43.377   3.731   1.298
61087W        W29450  21.072   2.452   5.158
61088W        W29451  21.569   8.329   1.437
61089W        W29452   5.236   2.435  13.011
61090W        W29453  11.180  29.952   3.720
61091W        W29454  41.976  31.094   1.908
61092W        W29455  30.976  34.577  11.858
61093W        W29456   1.867  36.979   3.769
61094W        W29457  28.096  41.349  13.899
61095W        W29458  28.511  11.841   4.168
61096W        W29459   7.289  28.491  11.493
61097W        W29460  41.403  38.506  11.063
61098W        W29461   1.795   9.347   3.690
61099W        W29462  33.554   6.217  13.914
61100W        W29463   6.328  16.733  14.427
61101W        W29464  43.780  31.611  11.980
61102W        W29465  43.846  36.586  12.852
61103W        W29466  38.467  12.827  11.068
61104W        W29467  41.895  21.170   3.857
61105W        W29468  14.154  16.577   2.199
61106W        W29469  33.993   6.881   2.851
61107W        W29470   3.822  30.987  10.440
61108W        W29471  34.427  14.595   0.301
61109W        W29472  14.176  43.954  11.487
61110W        W29473   8.406  18.137  14.862
61111W        W29474  38.546  26.015   0.254
61112W        W29475  27.055   7.197   0.880
61113W        W29476   5.707  26.186   4.242
61114W        W29477   5.826  10.815  13.804
61115W        W29478  29.977  26.082   2.236
61116W        W29479  12.344   0.914  14.316
61117W        W29480  43.882  11.359  12.472
61118W        W29481  38.400   6.752  13.492
61119W        W29482  23.119   9.340  12.999
61120W        W29483  22.229  21.197   3.218
61121W        W29484  37.947  14.121   0.260
61122W        W29485  19.113   4.405  12.509
61123W        W29486  15.208  34.514  10.545
61124W        W29487  17.252  36.377   0.929
61125W        W29488  39.433  10.876  10.497
61126W        W29489   6.197  17.736   2.360
61127W        W29490  42.909  19.711  11.410
61128W        W29491  40.887  42.322  13.913
61129W        W29492  30.465   9.705  11.064
61130W        W29493  14.238   0.282  14.294
61131W        W29494  12.301  42.370   0.899
61132W        W29495   5.214   3.215   0.964
61133W        W29496  36.098  21.697   3.684
61134W        W29497  27.597   2.275  11.939
61135W        W29498  39.453   1.351  13.036
61136W        W29499  38.836  34.610  12.545
61137W        W29500  33.127   6.194   3.787
61138W        W29501  44.336  10.310   5.234
61139W        W29502  26.539  32.477   1.312
61140W        W29503  35.874  30.934  11.918
61141W        W29504  40.807  31.068  12.340
61142W        W29505  35.030  30.066  12.852
61143W        W29506  38.045   3.426   1.376
61144W        W29507  31.006  13.145  10.933
61145W        W29508   2.263  39.465  13.926
61146W        W29509  31.041  20.766   0.392
61147W        W29510  43.019  15.641  10.994
61148W        W29511  36.913   7.779  13.420
61149W        W29512  32.546   1.854   1.308
61150W        W29513  20.054  25.076   1.934
61151W        W29514   5.356  10.206  12.371
61152W        W29515   2.298  29.943   3.744
61153W        W29516   7.816  23.052  12.482
61154W        W29517  19.238  37.378   3.267
61155W        W29518  19.775   6.746  12.503
61156W        W29519  12.268   0.814  14.957
61157W        W29520  17.145  37.903   0.758
61158W        W29521   0.835  24.106   0.296
61159W        W29522  26.558  40.800  14.026
61160W        W29523   5.724  19.601   1.429
61161W        W29524   0.476   7.822  13.428
61162W        W29525   6.710  26.122   2.360
61163W        W29526  35.418  27.042  11.450
61164W        W29527  18.682  41.009  14.882
61165W        W29528  14.688  42.299   3.224
61166W        W29529  12.309  29.921   3.165
61167W        W29530  10.179  42.951  10.081
61168W        W29531  33.527  37.543   3.855
61169W        W29532  12.324  33.983  13.329
61170W        W29533  23.000  36.377   2.720
61171W        W29534  38.051   8.836  10.548
61172W        W29535  25.063   9.395  11.102
61173W        W29536  14.300  37.840  12.888
61174W        W29537   0.440  23.526   0.815
61175W        W29538   0.421  26.962   3.198
61176W        W29539  19.690  33.961   3.230
61177W        W29540  16.600   2.429   2.272
61178W        W29541  12.187  20.752  14.384
61179W        W29542  16.632  29.929  12.831
61180W        W29543   7.781  14.251   3.190
61181W        W29544  38.885  22.222  10.997
61182W        W29545  29.467   5.415   2.322
61183W        W29546  24.115  42.813   4.683
61184W        W29547  19.286  24.534  10.560
61185W        W29548   4.857  34.866  14.401
61186W        W29549  25.645   9.163  13.337
61187W        W29550  38.891   5.750  14.288
61188W        W29551  12.207   5.856   0.935
61189W        W29552  42.881   1.368  14.314
61190W        W29553  36.928  25.159   0.338
61191W        W29554  29.508  10.342  12.890
61192W        W29555  37.972  40.502  12.897
61193W        W29556  12.162  26.162  10.555
61194W        W29557   7.711  27.969  12.095
61195W        W29558  43.767  25.073  13.438
61196W        W29559  33.019  27.475  11.899
61197W        W29560  22.622  31.961  10.899
61198W        W29561  11.674  14.666  13.439
61199W        W29562  18.623  27.126   4.319
61200W        W29563   1.420  35.066   1.711
61201W        W29564  33.080  22.559   0.375
61202W        W29565  40.409   9.815   0.435
61203W        W29566  31.958  10.328   2.690
61204W        W29567  17.564  41.487  10.411
61205W        W29568  33.007   9.663   1.369
61206W        W29569  31.128   2.843   2.318
61207W        W29570  14.095  24.084   1.771
61208W        W29571   7.324  19.617   1.236
61209W        W29572  41.469  18.179   0.391
61210W        W29573   1.328  41.855   4.269
61211W        W29574   3.716   8.192  14.012
61212W        W29575  18.658  19.600  11.872
61213W        W29576   6.239  43.349  13.845
61214W        W29577  31.463  23.660  13.366
61215W        W29578  28.937  36.460  14.784
61216W        W29579  44.390  37.378   3.173
61217W        W29580  12.158  23.515  12.404
61218W        W29581  22.188  37.363  10.497
61219W        W29582   9.645  32.425  14.414
61220W        W29583   9.390   9.799  12.471
61221W        W29584  15.278  18.698  14.938
61222W        W29585  12.304  20.710  11.939
61223W        W29586   4.886  39.482  14.000
61224W        W29587  36.416  35.985  11.408
61225W        W29588  30.950  11.754  11.083
61226W        W29589   5.231  33.036   2.696
61227W        W29590   4.214  19.640   3.262
61228W        W29591   9.222  42.507  13.040
61229W        W29592  26.555  35.008  11.048
61230W        W29593   2.853  12.278  11.054
61231W        W29594  43.356  44.863   0.933
61232W        W29595  33.001   8.731   0.318
61233W        W29596  39.813  33.585  14.419
61234W        W29597   0.791  26.965   3.689
61235W        W29598   9.765  22.052  14.789
61236W        W29599  32.895  19.250  11.900
61237W        W29600  20.247  14.285  14.300
61238W        W29601  42.296   0.335  12.908
61239W        W29602  29.608   0.889   4.258
61240W        W29603  27.993   5.847   1.399
61241W        W29604  14.674  22.173  10.486
61242W        W29605   5.778  14.162  11.608
61243W        W29606  44.284   1.408   2.419
61244W        W29607  29.997   7.778  10.931
61245W        W29608  31.001   1.748   2.206
61246W        W29609   2.899  34.070  11.117
61247W        W29610   1.462   1.319   2.239
61248W        W29611  22.232  42.891   1.417
61249W        W29612   0.447  16.303   0.743
61250W        W29613  35.903  15.138  12.495
61251W        W29614  12.718  32.969  11.594
61252W        W29615   1.897  36.935  14.960
61253W        W29616  43.324   0.314   2.258
61254W        W29617  18.781  42.335  13.807
61255W        W29618  37.924  33.911  13.034
61256W        W29619  24.635   4.435   1.892
61257W        W29620  36.414   4.228   1.367
61258W        W29621  39.478  18.780  14.953
61259W        W29622  35.563   6.723  12.014
61260W        W29623  19.574  39.330  11.996
61261W        W29624  23.239  41.981   4.140
61262W        W29625  31.911  11.190  13.402
61263W        W29626  22.205  24.979   1.821
61264W        W29627  21.144   6.296   3.255
61265W        W29628  43.383   2.845   4.668
61266W        W29629   9.241  30.160  12.969
61267W        W29630  41.323   1.335   0.794
61268W        W29631  34.110  40.377  13.956
61269W        W29632  37.519  43.464  13.906
61270W        W29633   7.874   8.275   4.238
61271W        W29634  40.805  25.514  12.927
61272W        W29635  39.007  17.237  14.004
61273W        W29636   5.273  10.692  14.293
61274W        W29637  39.335  22.068  14.879
61275W        W29638  33.605  27.601  13.420
61276W        W29639  35.950  38.352  13.839
61277W        W29640  12.777  35.505  10.540
61278W        W29641  44.825  11.293  10.921
61279W        W29642  42.965  35.952  12.955
61280W        W29643  23.063  39.548  13.368
61281W        W29644  16.145  15.702  10.564
61282W        W29645  10.163  15.687   4.185
61283W        W29646   6.405  15.600  12.041
61284W        W29647  31.619  11.789   4.136
61285W        W29648  23.681  41.886  13.895
61286W        W29649  22.503  37.012   2.222
61287W        W29650  33.968   0.284  14.944
61288W        W29651  16.793  33.007   1.707
61289W        W29652   9.808  21.067  10.552
61290W        W29653  34.424  39.818  11.600
61291W        W29654   7.362  42.451   0.322
61292W        W29655  41.995   4.309  12.907
61293W        W29656  42.296  29.085  14.989
61294W        W29657  43.901  39.045   5.233
61295W        W29658  41.876  25.610  10.618
61296W        W29659  16.174  33.624   2.287
61297W        W29660   0.749  35.367  14.797
61298W        W29661  38.545  27.621   3.236
61299W        W29662   3.297  20.753  10.465
61300W        W29663  44.801  13.317   2.375
61301W        W29664  41.360  21.585  14.780
61302W        W29665  14.249  34.379   9.949
61303W        W29666   8.163  15.625  14.399
61304W        W29667  30.965  42.820   4.242
61305W        W29668  21.603   1.822  10.433
61306W        W29669   3.888   9.723  13.935
61307W        W29670  32.577  22.113  13.032
61308W        W29671  24.097  24.720   1.799
61309W        W29672  11.356  13.351  13.320
61310W        W29673  14.642  35.902  13.404
61311W        W29674  14.694   1.280  13.982
61312W        W29675  23.132  27.558   4.634
61313W        W29676  15.180  22.050   2.700
61314W        W29677  24.075  32.495   3.379
61315W        W29678  27.187  29.967  13.848
61316W        W29679  33.600  42.909  13.958
61317W        W29680  21.697  26.960  12.833
61318W        W29681   2.446  37.918  13.979
61319W        W29682   9.366  15.702  12.870
61320W        W29683  32.397   8.310  11.051
61321W        W29684  42.006  17.078   3.683
61322W        W29685  18.642  25.517   0.421
61323W        W29686  20.586   4.813   4.777
61324W        W29687  24.144  40.345   3.643
61325W        W29688  34.422  20.264  14.824
61326W        W29689   8.260  26.687  14.498
61327W        W29690  35.940   5.331  12.948
61328W        W29691  41.469  30.604  11.475
61329W        W29692  25.636  37.574   2.200
61330W        W29693  36.918  40.862  14.465
61331W        W29694  41.923  27.457   4.300
61332W        W29695  10.222  29.952  12.971
61333W        W29696  23.160  28.554   0.325
61334W        W29697  34.404  44.901   1.915
61335W        W29698  42.818  42.431   2.732
61336W        W29699  11.839   8.398  10.638
61337W        W29700  27.511   3.396  14.936
61338W        W29701  14.765   1.773  11.376
61339W        W29702  18.138   4.385   4.650
61340W        W29703  12.810  30.488  11.584
61341W        W29704  26.545   0.359  11.404
61342W        W29705  39.340  42.809   4.645
61343W        W29706   9.655  13.745  11.947
61344W        W29707  10.230  44.994  11.966
61345W        W29708  21.603  24.634   4.628
61346W        W29709  25.198  16.306  14.764
61347W        W29710  24.995  29.023  14.304
61348W        W29711  32.041   8.372   0.305
61349W        W29712  16.290  12.707   3.239
61350W        W29713  31.411  18.060   1.715
61351W        W29714   8.376  41.506   3.314
61352W        W29715  12.358  16.203   2.201
61353W        W29716   1.270   9.673   4.223
61354W        W29717   7.831   0.975   3.667
61355W        W29718  21.557  19.621   5.195
61356W        W29719  22.632   8.271   1.931
61357W        W29720   2.359  34.093  14.892
61358W        W29721  31.073   8.873  10.601
61359W        W29722  25.602  32.504   2.822
61360W        W29723  37.963   5.795  14.439
61361W        W29724  44.282  24.048   4.267
61362W        W29725  18.091  38.825  13.475
61363W        W29726  43.318  19.642   5.227
61364W        W29727  28.148  26.976  10.547
61365W        W29728  43.366  21.684  10.452
61366W        W29729  38.949  20.550   2.836
61367W        W29730  16.132  17.766  13.479
61368W        W29731  13.753  18.086  13.838
61369W        W29732  12.143  37.026   4.158
61370W        W29733   4.218  36.394  12.868
61371W        W29734   1.398  17.744  11.424
61372W        W29735  21.686  44.478  11.609
61373W        W29736  37.019  38.485  14.963
61374W        W29737   8.357  28.486  14.967
61375W        W29738  12.195  29.038  12.862
61376W        W29739   5.713   9.367  11.452
61377W        W29740  20.728  26.561   2.181
61378W        W29741  38.859  34.578   1.908
61379W        W29742   2.794   1.822   1.375
61380W        W29743  27.633  22.066  14.759
61381W        W29744  15.616  22.582  13.355
61382W        W29745   4.875   0.969  12.369
61383W        W29746  31.592  28.149  12.565
61384W        W29747  38.899  32.075  14.963
61385W        W29748  18.621  41.854   0.745
61386W        W29749  41.427  25.171  11.037
61387W        W29750  44.003  35.927  14.859
61388W        W29751   8.826  28.004   1.406
61389W        W29752   1.829  26.102  10.926
61390W        W29753   2.912   5.736  14.762
61391W        W29754  18.246   2.963  10.607
61392W        W29755   7.837   9.257  13.353
61393W        W29756  37.047   7.179  13.489
61394W        W29757  25.566  36.951   1.767
61395W        W29758   3.281  17.064  13.878
61396W        W29759  31.119  19.746   1.730
61397W        W29760   1.735  33.398  10.556
61398W        W29761   3.399  34.400   4.271
61399W        W29762  36.097  39.346  13.451
61400W        W29763  16.294  35.871   3.188
61401W        W29764  21.083  34.039  12.348
61402W        W29765  38.473  18.737   3.234
61403W        W29766   5.746   9.329   0.259
61404W        W29767  16.075  44.939  11.940
61405W        W29768  35.014  36.358  14.891
61406W        W29769  13.801  22.176   4.691
61407W        W29770  40.017  36.951  13.418
61408W        W29771  27.508  17.178  12.359
61409W        W29772   7.312  42.389   2.214
61410W        W29773  24.166  24.491  11.403
61411W        W29774  10.734  29.987  13.407
61412W        W29775  12.361   8.704  10.424
61413W        W29776  23.697  44.881   1.750
61414W        W29777  28.463  41.829   4.122
61415W        W29778  42.479  16.662   1.264
61416W        W29779  11.183  21.093   1.749
61417W        W29780   5.901  28.082   0.459
61418W        W29781  43.321  27.480   1.709
61419W        W29782  41.317  30.159  13.389
61420W        W29783  13.655   8.272  11.885
61421W        W29784  40.023  27.501  12.503
61422W        W29785  44.787  24.050  10.472
61423W        W29786  28.671  34.985  10.980
61424W        W29787  15.665  35.909  12.862
61425W        W29788  42.429  12.119  13.062
61426W        W29789  36.874  39.427  14.932
61427W        W29790  38.843  23.721   4.704
61428W        W29791  43.931  11.670  13.541
61429W        W29792  37.434  26.648  13.508
61430W        W29793  32.962  43.354   3.290
61431W        W29794   7.287  10.202  13.423
61432W        W29795  41.417  11.279  11.526
61433W        W29796   1.266  31.148  13.792
61434W        W29797  31.085  15.787   4.651
61435W        W29798  41.998  11.656  14.485
61436W        W29799  19.109  11.245  11.954
61437W        W29800  36.452  30.141   3.352
61438W        W29801  25.037  44.340   4.300
61439W        W29802  42.407  37.915  11.543
61440W        W29803   6.389   2.470  12.968
61441W        W29804  10.672  39.877  11.437
61442W        W29805   6.403  32.966  11.094
61443W        W29806   1.789  42.414  13.869
61444W        W29807  33.476  10.670  11.909
61445W        W29808  26.672   8.301  13.993
61446W        W29809  16.806  14.278  10.540
61447W        W29810   8.803  17.616  10.919
61448W        W29811  17.617  34.876  14.275
61449W        W29812  12.252  39.832   1.863
61450W        W29813  24.199  36.380  13.872
61451W        W29814   9.648  40.949  10.525
61452W        W29815   3.871  20.577   1.347
61453W        W29816  36.943   5.338   2.872
61454W        W29817  12.831   0.489  10.892
61455W        W29818  32.124  15.720   2.298
61456W        W29819  42.994  34.594   9.951
61457W        W29820  35.924   7.685   3.700
61458W        W29821  32.015  38.013   4.203
61459W        W29822  23.057  40.544   0.467
61460W        W29823   9.671  25.499   4.801
61461W        W29824  15.233   5.793   1.224
61462W        W29825  25.547   0.369   4.758
61463W        W29826  21.711  44.329  12.975
61464W        W29827  11.127  18.727   0.845
61465W        W29828   5.889  38.554  11.568
61466W        W29829   3.354  22.671  14.298
61467W        W29830  11.772  28.095  11.863
61468W        W29831  17.696  31.108  13.481
61469W        W29832  35.007   0.790  12.556
61470W        W29833  32.084  21.648  14.472
61471W        W29834   3.930  23.709   0.947
61472W        W29835  43.514  29.013   3.211
61473W        W29836   3.388  11.193   4.811
61474W        W29837  39.028  30.644  12.953
61475W        W29838  18.206  32.138   2.418
61476W        W29839   5.432   7.359   3.826
61477W        W29840  18.619  20.208   1.761
61478W        W29841   3.804   6.686   4.709
61479W        W29842  10.320  33.039   0.944
61480W        W29843   1.433  14.823   2.725
61481W        W29844   5.381   4.893   0.821
61482W        W29845   6.862  44.831   4.317
61483W        W29846   8.792  22.592   3.808
61484W        W29847  35.888  41.881   1.264
61485W        W29848  21.754   9.657  12.508
61486W        W29849  37.918  23.507  14.780
61487W        W29850  30.030   1.325   2.377
61488W        W29851  38.899  32.142  12.468
61489W        W29852  32.967  20.213  12.036
61490W        W29853  36.056  42.015  11.892
61491W        W29854   9.684  42.845  11.467
61492W        W29855  14.158  31.019  14.009
61493W        W29856  31.409  12.259  11.409
61494W        W29857   7.859  25.485   2.897
61495W        W29858  38.463   6.811  14.469
61496W        W29859   7.779  26.595   1.224
61497W        W29860  21.138   6.324  13.378
61498W        W29861  30.972  24.505  10.420
61499W        W29862  43.956  34.981  12.834
61500W        W29863   2.323   9.343   2.791
61501W        W29864  10.209   2.908   0.743
61502W        W29865  14.744  32.067  14.974
61503W        W29866  37.427   8.168  13.416
61504W        W29867  31.992  16.674   1.349
61505W        W29868  36.901  13.146   3.250
61506W        W29869  31.517   8.847   4.699
61507W        W29870  41.493  40.409   4.339
61508W        W29871   3.818  34.376   3.682
61509W        W29872  35.383  24.698   3.647
61510W        W29873  12.207   5.263   4.334
61511W        W29874  43.284  29.979  14.372
61512W        W29875  15.774   3.723  14.888
61513W        W29876  38.024  12.796  10.161
61514W        W29877  34.561  40.012   0.937
61515W        W29878  44.938  31.031  11.054
61516W        W29879   8.302  31.427   3.729
61517W        W29880  40.455  32.493   0.452
61518W        W29881  14.232  24.973  11.868
61519W        W29882  11.366  25.620   3.148
61520W        W29883  39.014  28.935  14.816
61521W        W29884  20.738  16.723  12.568
61522W        W29885   2.796  25.215  12.520
61523W        W29886   1.275  44.759  11.933
61524W        W29887   2.751  24.537  14.898
61525W        W29888  27.980  12.221  13.794
61526W        W29889   1.856  16.627   3.671
61527W        W29890   2.414   6.747  11.519
61528W        W29891  17.657  19.633   4.214
61529W        W29892  12.319  17.284  13.915
61530W        W29893  10.311  25.112   2.314
61531W        W29894  34.047  39.424  14.927
61532W        W29895  33.402  32.503   4.149
61533W        W29896   4.233  42.420   4.641
61534W        W29897  24.207   1.891  13.943
61535W        W29898   7.729  36.510   1.706
61536W        W29899  28.180  26.633  10.105
61537W        W29900  23.099   3.224  12.041
61538W        W29901  14.747  32.021   2.874
61539W        W29902  17.151  31.490  14.005
61540W        W29903  29.111  38.992  10.541
61541W        W29904  43.467  29.532  12.423
61542W        W29905  16.684  43.779  12.427
61543W        W29906  13.163   3.312   0.285
61544W        W29907  13.748  43.482  11.574
61545W        W29908   7.742  12.693   2.889
61546W        W29909   4.324  37.963  10.985
61547W        W29910  21.757  10.646  11.993
61548W        W29911  16.125  17.653   0.803
61549W        W29912  43.806   8.789   2.375
61550W        W29913   0.826  33.096  12.898
61551W        W29914  40.421  17.751   2.233
61552W        W29915  17.662  34.903  14.981
61553W        W29916  16.208  26.558   5.105
61554W        W29917   0.809  41.394  11.858
61555W        W29918  26.601  28.580  14.770
61556W        W29919  29.639   2.441   0.846
61557W        W29920  35.036   5.400   3.738
61558W        W29921  27.666  27.593   4.757
61559W        W29922  17.156   6.695  14.386
61560W        W29923  25.473  32.000  10.088
61561W        W29924  25.177  16.138  13.393
61562W        W29925   2.862  39.854  11.881
61563W        W29926  43.946  30.552   2.838
61564W        W29927  16.589  29.938  10.935
61565W        W29928  41.008  26.533  10.126
61566W        W29929   6.800  24.122  11.879
61567W        W29930  10.181  26.072   4.345
61568W        W29931  37.872   0.278  14.007
61569W        W29932  15.189   8.772   4.285
61570W        W29933   8.386  14.198   4.616
61571W        W29934  13.160  21.134   4.241
61572W        W29935  40.879  11.624  13.368
61573W        W29936  14.165  26.702  11.069
61574W        W29937  44.364  24.034   3.822
61575W        W29938  43.797  13.148   4.211
61576W        W29939   4.894  30.532  13.482
61577W        W29940   4.842   2.889  12.071
61578W        W29941  20.144  34.569   4.117
61579W        W29942  36.383  29.952   4.717
61580W        W29943  38.839  32.019  10.161
61581W        W29944   7.258  20.640   4.687
61582W        W29945  39.375  26.530   1.800
61583W        W29946   3.805  12.699   0.263
61584W        W29947  44.478   9.333   4.737
61585W        W29948   9.266  17.677  13.503
61586W        W29949  26.953  28.563  10.993
61587W        W29950  39.357   2.827   0.269
61588W        W29951  27.195  25.202   4.668
61589W        W29952  18.666  26.625  13.851
61590W        W29953  41.306  25.072  11.971
61591W        W29954  23.171  19.097   4.176
61592W        W29955  39.378   4.383  12.526
61593W        W29956   4.435  26.998   2.345
61594W        W29957  31.125  38.478  13.799
61595W        W29958  27.079  38.043  11.481
61596W        W29959   1.911  23.168  11.461
61597W        W29960  41.370  21.215   1.338
61598W        W29961  28.479   4.897   4.148
61599W        W29962   2.878   0.445  13.531
61600W        W29963  22.656  35.554  12.976
61601W        W29964  31.122  17.189   3.252
61602W        W29965   5.778  18.153  13.475
61603W        W29966  14.267  12.170  14.376
61604W        W29967  22.606   7.298   0.262
61605W        W29968   5.895  41.370  14.448
61606W        W29969  41.307  27.943   3.668
61607W        W29970  32.505  13.768   0.252
61608W        W29971  39.483  15.797   3.828
61609W        W29972  35.924   2.237   1.289
61610W        W29973  41.872  10.324   3.159
61611W        W29974   4.854  28.592  11.386
61612W        W29975  38.501  30.922   2.748
61613W        W29976  14.680  41.442  10.488
61614W        W29977  23.223   7.409  13.939
61615W        W29978  29.977  34.542   2.675
61616W        W29979  35.906  11.863   5.291
61617W        W29980  34.072   3.851  13.924
61618W        W29981   3.251  11.171  11.504
61619W        W29982   4.301  26.687  13.811
61620W        W29983  31.494  10.320   3.161
61621W        W29984  42.946   8.863   4.307
61622W        W29985   5.868  26.631   2.799
61623W        W29986  42.458  31.908   0.730
61624W        W29987  40.030  27.645   3.365
61625W        W29988  35.963   6.740   2.738
61626W        W29989  11.240   2.775  14.283
61627W        W29990  36.894  41.316  13.520
61628W        W29991  15.217   8.260  11.998
61629W        W29992  40.009  43.330   2.766
61630W        W29993  33.447  22.658   2.331
61631W        W29994   2.876   3.920   3.741
61632W        W29995  41.336  42.928   1.433
61633W        W29996  23.723   1.323   0.324
61634W        W29997  23.067  21.123   4.159
61635W        W29998  16.702   4.403  14.325
61636W        W29999   1.951  26.179   0.947
61637W        W30000   1.254   4.278   1.285
61638W        W30001   8.759  38.064  12.011
61639W        W30002  13.132  22.019  14.904
61640W        W30003   2.824   4.758  12.523
61641W        W30004   2.444  27.491   1.280
61642W        W30005  35.888   1.478  11.377
61643W        W30006  11.261  26.505   4.294
61644W        W30007  25.714   7.860   0.942
61645W        W30008  20.767   2.284  14.442
61646W        W30009  30.037  27.070  10.411
61647W        W30010   2.884  28.520  12.342
61648W        W30011  15.753  14.196  11.946
61649W        W30012  17.090   1.369  12.003
61650W        W30013  32.971  24.207  12.082
61651W        W30014  31.628  37.486   2.335
61652W        W30015  43.850  13.155  13.524
61653W        W30016  18.275  41.480   3.742
61654W        W30017  28.097   5.875  13.399
61655W        W30018  39.056  29.053   3.205
61656W        W30019  11.300  33.906  12.465
61657W        W30020  23.642   5.746   0.484
61658W        W30021  16.656   9.680   1.300
61659W        W30022  15.806  44.793  12.530
61660W        W30023   5.694  43.276   4.753
61661W        W30024   5.195  24.189   4.625
61662W        W30025  36.077  12.631  14.901
61663W        W30026  43.834  26.510  13.336
61664W        W30027  31.926  16.176  11.129
61665W        W30028  13.173  39.018  13.488
61666W        W30029  17.226  38.874  12.934
61667W        W30030   8.236   5.388   2.762
61668W        W30031  34.995  35.411  14.776
61669W        W30032  22.632  17.146  11.406
61670W        W30033   3.350  17.071  14.381
61671W        W30034   9.200  33.398   1.774
61672W        W30035  23.214   3.322  12.357
61673W        W30036   9.244  17.284  14.409
61674W        W30037  12.620  42.422   3.238
61675W        W30038   8.236  12.624   0.833
61676W        W30039   0.754  28.932  11.386
61677W        W30040  42.300  11.762  13.891
61678W        W30041  43.391  28.081   0.449
61679W        W30042  40.348  22.595   0.760
61680W        W30043   8.657  39.553   4.286
61681W        W30044   8.698  39.940   0.909
61682W        W30045  24.158  20.743   0.295
61683W        W30046  36.349  30.907  14.953
61684W        W30047  20.222  28.580   0.427
61685W        W30048  31.575  25.044  12.483
61686W        W30049  20.063  40.851  11.927
61687W        W30050  40.467  41.871   3.198
61688W        W30051   7.417  32.035  12.894
61689W        W30052  16.741  42.340  14.461
61690W        W30053  11.238  42.501   2.371
61691W        W30054  40.956  16.151  10.888
61692W        W30055  34.501   0.774  12.455
61693W        W30056  14.317  26.033   4.734
61694W        W30057  15.642  13.806  14.438
61695W        W30058  14.109  44.463   4.210
61696W        W30059  10.764   0.481   0.385
61697W        W30060  15.142  27.977  12.054
61698W        W30061  12.839   2.430   0.422
61699W        W30062  17.720  34.044  12.361
61700W        W30063  24.143  36.083   1.226
61701W        W30064  39.990   7.267   4.756
61702W        W30065  17.189  24.679  14.925
61703W        W30066  27.638   0.434  11.003
61704W        W30067  40.398  27.109   2.362
61705W        W30068  12.823  29.062  13.814
61706W        W30069  18.160  31.633   0.773
61707W        W30070  43.001  23.191   4.682
61708W        W30071  29.988  27.462   0.320
61709W        W30072  13.693  39.404   3.648
61710W        W30073   2.421  38.995  13.899
61711W        W30074  19.063  27.971   4.680
61712W        W30075  39.504  17.089  13.531
61713W        W30076   5.701  43.293  12.373
61714W        W30077   0.859  18.779   0.299
61715W        W30078   1.822  14.778  11.937
61716W        W30079  36.021  32.950   1.849
61717W        W30080  12.185   7.778   1.292
61718W        W30081  23.626  26.591   1.816
61719W        W30082  36.860  18.654   3.643
61720W        W30083  11.746  18.125   0.289
61721W        W30084  35.040  43.892  11.416
61722W        W30085  20.222   0.788   4.128
61723W        W30086  38.570  30.140   0.319
61724W        W30087   4.397   2.849   0.837
61725W        W30088   0.463  40.883   1.237
61726W        W30089   5.919   7.207   2.385
61727W        W30090  27.122  12.273   4.350
61728W        W30091  28.145  32.012  11.437
61729W        W30092  16.267   7.767  12.091
61730W        W30093  12.840   4.920   1.271
61731W        W30094  31.596  17.743  12.047
61732W        W30095  28.935  23.494   2.903
61733W        W30096  32.016   3.272   0.796
61734W        W30097  19.600  12.141   3.369
61735W        W30098  27.620  28.573   1.901
61736W        W30099  39.841  40.897  14.849
61737W        W30100  24.690  18.679  11.516
61738W        W30101   5.389  37.980  11.436
61739W        W30102  31.927  16.706  11.429
61740W        W30103  14.774  34.884  13.978
61741W        W30104  37.855   9.177   2.871
61742W        W30105  40.870  33.037  10.612
61743W        W30106  28.960  15.257  12.900
61744W        W30107  24.502  25.069  10.489
61745W        W30108  28.612  33.463  10.574
61746W        W30109  17.187   9.307  10.435
61747W        W30110  17.636   0.353   4.629
61748W        W30111  23.159  24.085  12.554
61749W        W30112   4.900   5.870   3.737
61750W        W30113  33.057  23.644   1.447
61751W        W30114  16.242  14.181   0.459
61752W        W30115  21.586  25.079  11.871
61753W        W30116  20.642   8.821  10.521
61754W        W30117  32.474  18.755   4.609
61755W        W30118  44.275  43.371   2.727
61756W        W30119  36.949  11.810  11.046
61757W        W30120   3.392   0.383  12.477
61758W        W30121  44.919  27.639  13.900
61759W        W30122  35.361  42.282   0.349
61760W        W30123  15.147   4.311   9.589
61761W        W30124  27.683  35.425   3.187
61762W        W30125  16.593  27.074  11.449
61763W        W30126   9.338  43.335   3.823
61764W        W30127   5.731  40.465  14.877
61765W        W30128  36.480  29.636  13.349
61766W        W30129  44.411  12.750  10.466
61767W        W30130  41.529  25.630  10.618
61768W        W30131   1.268  23.996   5.198
61769W        W30132  24.198  39.973   2.890
61770W        W30133  11.208  17.188   2.704
61771W        W30134  24.697   4.303   3.755
61772W        W30135  44.381  27.658   2.765
61773W        W30136  37.520  18.634   3.783
61774W        W30137  30.015  28.145   0.779
61775W        W30138  37.355  25.058  14.410
61776W        W30139  23.538  29.432   1.768
61777W        W30140  11.815  25.997  14.422
61778W        W30141   1.389  10.358  14.505
61779W        W30142   1.928  25.686  12.454
61780W        W30143  38.024  21.724   0.930
61781W        W30144  39.977  10.288  10.472
61782W        W30145  42.449  20.567   1.437
61783W        W30146   5.233  41.000   4.829
61784W        W30147  29.522  32.505   4.218
61785W        W30148  44.994  29.170  11.913
61786W        W30149  23.083  26.071   2.747
61787W        W30150  31.590  25.692  10.897
61788W        W30151  14.148  42.426  14.030
61789W        W30152  19.242   5.888  14.789
61790W        W30153   1.820  12.205  14.853
61791W        W30154   6.245   5.198  14.412
61792W        W30155  12.653   7.814  13.903
61793W        W30156  40.868   1.777  14.315
61794W        W30157  33.394  43.990   9.643
61795W        W30158   6.694  10.148  13.026
61796W        W30159  28.491  42.977   3.643
61797W        W30160  41.935  26.013   1.811
61798W        W30161   5.882   3.802  13.024
61799W        W30162  41.311  41.862  10.983
61800W        W30163  16.604  18.207   4.342
61801W        W30164  25.623   9.836  10.623
61802W        W30165  32.559  17.150   2.207
61803W        W30166   8.276  12.789   0.273
61804W        W30167  29.582  10.345  11.409
61805W        W30168  35.897  22.154   3.767
61806W        W30169  11.801   5.763  10.983
61807W        W30170   4.773  24.617   0.403
61808W        W30171  22.518  19.535   5.282
61809W        W30172  31.535   2.375  14.429
61810W        W30173  33.046  44.759  11.564
61811W        W30174  12.248   8.799  12.040
61812W        W30175  14.754   7.320  11.595
61813W        W30176  15.131  24.090  11.059
61814W        W30177   9.156  43.366   3.161
61815W        W30178  30.047  43.822   1.234
61816W        W30179  32.592  37.836  11.937
61817W        W30180  34.014  10.252  14.295
61818W        W30181  34.013  25.126   3.230
61819W        W30182  15.262  30.126  14.474
61820W        W30183  26.564  22.020  12.469
61821W        W30184  13.760  12.676  12.901
61822W        W30185  43.798  35.081  13.487
61823W        W30186  34.561   3.811  13.876
61824W        W30187  31.919  42.466  10.573
61825W        W30188  33.977  43.291  12.833
61826W        W30189  26.664  15.131   3.773
61827W        W30190  44.988  28.601  14.275
61828W        W30191  35.980  40.386   4.696
61829W        W30192  18.779  23.606   2.194
61830W        W30193  19.655  21.754  14.393
61831W        W30194  29.636  23.148  14.292
61832W        W30195  20.603  16.668  12.960
61833W        W30196   7.826  26.533  14.348
61834W        W30197  11.128  36.980  14.897
61835W        W30198   3.914  42.345   0.795
61836W        W30199  11.240  19.060  14.988
61837W        W30200  21.627  20.139  12.068
61838W        W30201  23.539   4.735   1.816
61839W        W30202   6.893  18.082  10.520
61840W        W30203   0.482   9.698   0.870
61841W        W30204  29.483  35.468  14.466
61842W        W30205   4.722  17.179  11.053
61843W        W30206  19.756  29.660   0.376
61844W        W30207  17.102  31.122   0.297
61845W        W30208   3.899  44.471   5.113
61846W        W30209  12.668  22.006   3.815
61847W        W30210  29.031  39.409  12.936
61848W        W30211  30.974  13.693   2.720
61849W        W30212  15.765  17.682   1.293
61850W        W30213  34.491  42.994   0.897
61851W        W30214  16.615  38.346   0.349
61852W        W30215   9.378   1.865  12.980
61853W        W30216  11.183   5.899  12.093
61854W        W30217  40.397  26.478   9.981
61855W        W30218  11.784  31.067   0.346
61856W        W30219  42.452   8.199   3.722
61857W        W30220  17.600  17.757   5.317
61858W        W30221  25.479  24.581  13.914
61859W        W30222  36.059   8.869   1.301
61860W        W30223  33.105  27.640  11.121
61861W        W30224   2.333  37.432  12.373
61862W        W30225   6.258   0.272   0.788
61863W        W30226  27.129  25.103  13.906
61864W        W30227  18.164  34.966   4.120
61865W        W30228   3.916  23.615  13.033
61866W        W30229  38.014  20.592   2.737
61867W        W30230  14.196  43.489   2.897
61868W        W30231  35.887   1.869  13.932
61869W        W30232  17.099  36.048   2.750
61870W        W30233  20.735  37.551   2.371
61871W        W30234  40.365  31.058  12.534
61872W        W30235  12.708  42.352  12.532
61873W        W30236  27.065  16.764   0.481
61874W        W30237  15.204  13.795  13.812
61875W        W30238  18.281  14.604  10.548
61876W        W30239  18.287  37.503  10.645
61877W        W30240   9.153  36.370  10.529
61878W        W30241  13.683  40.529   3.653
61879W        W30242  42.805  36.502  13.031
61880W        W30243   2.254  28.518  14.954
61881W        W30244   9.729   3.426   3.762
61882W        W30245  13.184   9.324  14.500
61883W        W30246  29.954  31.037  11.426
61884W        W30247  14.142  22.225  14.999
61885W        W30248   9.202   4.777   2.808
61886W        W30249   7.703  29.570   0.471
61887W        W30250   1.319  17.599  13.057
61888W        W30251  44.411  22.565  14.926
61889W        W30252  17.164  18.182   1.835
61890W        W30253   3.252  28.440  14.821
61891W        W30254  22.680  10.650   4.339
61892W        W30255   7.886  25.070  13.396
61893W        W30256  31.402  18.742   4.296
61894W        W30257  11.717  18.788   0.801
61895W        W30258   6.690   8.763   5.196
61896W        W30259  18.281  14.826  12.934
61897W        W30260  39.914  22.638  11.502
61898W        W30261   1.738   1.868  11.045
61899W        W30262  43.890  12.749   4.670
61900W        W30263  27.484  11.637  12.040
61901W        W30264  28.463  43.774   0.311
61902W        W30265  38.877   6.276   0.479
61903W        W30266  20.089  41.371  12.378
61904W        W30267  44.901   8.326   0.896
61905W        W30268  31.052  29.562   4.717
61906W        W30269   9.823  28.613   4.670
61907W        W30270  44.260  26.491   1.714
61908W        W30271  31.039  34.109  11.985
61909W        W30272  32.427  15.603  11.951
61910W        W30273  37.884  10.343  12.518
61911W        W30274  14.673  39.452   3.707
61912W        W30275  22.017  24.089  14.847
61913W        W30276  23.150  32.413   0.898
61914W        W30277  35.447   0.856   2.369
61915W        W30278   1.352  33.002  14.819
61916W        W30279  30.940  17.177  10.940
61917W        W30280  41.937  35.881  13.893
61918W        W30281  40.844  24.008   4.685
61919W        W30282  25.012  19.238  11.056
61920W        W30283  16.804  18.616   1.440
61921W        W30284  39.875  35.892  11.497
61922W        W30285  12.833  39.036   0.331
61923W        W30286   0.901  43.440  13.445
61924W        W30287  44.002  42.860  13.028
61925W        W30288  14.112  33.566   3.788
61926W        W30289  44.446  20.117  11.936
61927W        W30290  38.377  25.693  10.438
61928W        W30291  30.490  26.049  11.531
61929W        W30292  32.431   7.848  14.826
61930W        W30293  20.081  35.543  13.962
61931W        W30294   2.275   1.963   9.952
61932W        W30295  37.445  44.270   1.724
61933W        W30296  14.158  31.403   0.248
61934W        W30297   2.400  12.214  13.896
61935W        W30298  17.721  11.315   0.270
61936W        W30299  32.634  10.869  10.604
61937W        W30300  25.495  34.886  10.925
61938W        W30301  40.909  31.569   3.783
61939W        W30302   5.404   8.383  14.488
61940W        W30303   9.272  25.043   4.832
61941W        W30304  27.449  16.596  13.965
61942W        W30305  36.981  18.705  11.437
61943W        W30306  33.121  38.383   2.179
61944W        W30307   4.782  18.186  11.471
61945W        W30308  22.249  14.710   0.861
61946W        W30309  31.921  19.765   4.773
61947W        W30310  29.559  36.528  14.448
61948W        W30311   9.376  32.024   2.296
61949W        W30312   9.227  33.992   1.448
61950W        W30313  15.256  37.041   4.753
61951W        W30314   1.298   3.326  14.461
61952W        W30315  40.986   1.977   3.227
61953W        W30316  33.886  13.764   4.216
61954W        W30317  33.895  19.043  11.985
61955W        W30318  31.564  14.659  14.847
61956W        W30319   4.711  18.610  12.533
61957W        W30320  39.891   9.275  11.531
61958W        W30321  39.915   0.981   2.803
61959W        W30322   4.893  37.955  10.638
61960W        W30323   0.331  20.195   2.311
61961W        W30324  28.595  24.187  14.448
61962W        W30325  37.400   7.339  14.351
61963W        W30326  42.031  32.630   1.252
61964W        W30327  15.152  22.242  10.412
61965W        W30328  30.539   7.760  13.476
61966W        W30329  31.113  43.465  12.405
61967W        W30330  18.747  23.198   1.893
61968W        W30331  25.090  33.025  13.898
61969W        W30332  21.263  36.531  14.964
61970W        W30333  15.167  19.535   4.609
61971W        W30334  11.837   7.806  12.429
61972W        W30335   2.382  12.767  13.392
61973W        W30336  25.708  20.048   0.739
61974W        W30337   4.698   0.427  12.388
61975W        W30338  33.509  17.796   3.344
61976W        W30339  35.498   2.949  10.911
61977W        W30340   1.885  44.456  11.566
61978W        W30341  32.011  29.596  11.033
61979W        W30342  15.247  39.344   3.293
61980W        W30343  35.870  11.821  13.406
61981W        W30344  17.216  36.518  14.281
61982W        W30345  42.836   1.764   0.425
61983W        W30346   2.295  37.030  13.471
61984W        W30347  38.048  13.345   5.720
61985W        W30348   1.299  15.086  10.404
61986W        W30349   8.162  32.634  12.086
61987W        W30350  12.712   1.296  12.566
61988W        W30351  38.890  18.768   1.253
61989W        W30352  19.250   4.240   0.897
61990W        W30353  25.047  39.849   2.264
61991W        W30354   2.793  38.836   1.261
61992W        W30355  24.089  42.904   5.291
61993W        W30356  38.878  41.410  14.768
61994W        W30357  33.530  17.259   4.318
61995W        W30358   2.849   7.790  11.019
61996W        W30359  15.284  18.776   1.246
61997W        W30360  20.554  16.222  13.808
61998W        W30361  15.282  44.371  11.545
61999W        W30362  23.053  18.650  11.066
62000W        W30363  44.288  42.408   2.244
62001W        W30364  33.882  30.009   4.257
62002W        W30365  26.071  19.747  12.847
62003W        W30366  17.617  26.477   4.736
62004W        W30367  20.056  11.151  11.381
62005W        W30368  44.930  23.187  10.569
62006W        W30369  33.611   0.942  14.425
62007W        W30370  31.122  28.089   1.225
62008W        W30371  12.720  37.988  10.948
62009W        W30372  22.724  12.203   1.337
62010W        W30373  14.297  23.681   4.315
62011W        W30374  20.622   6.365  13.031
62012W        W30375  26.581   0.411  13.454
62013W        W30376  13.115  27.615   3.770
62014W        W30377  40.439  33.412   0.806
62015W        W30378  24.524  24.694  14.976
62016W        W30379  37.497  35.408   2.863
62017W        W30380  21.685  11.327  11.600
62018W        W30381  34.892  26.200  10.537
62019W        W30382   4.867  28.960   2.693
62020W        W30383  18.194  41.015   4.638
62021W        W30384   8.899  19.065   1.697
62022W        W30385  32.929  26.663  10.562
62023W        W30386  16.203  19.681   0.438
62024W        W30387  10.786  10.142  14.902
62025W        W30388   1.374  15.148   3.793
62026W        W30389  17.744  18.782   4.249
62027W        W30390   6.750  29.170   0.963
62028W        W30391   8.680  20.147  14.448
62029W        W30392  35.864  41.938   3.322
62030W        W30393  20.174   7.890   3.837
62031W        W30394  20.184  17.771  11.112
62032W        W30395  41.417  12.763   0.454
62033W        W30396  33.487  34.529  10.964
62034W        W30397  27.571  40.887  12.475
62035W        W30398  18.598  31.518  10.983
62036W        W30399  44.366  28.541   3.698
62037W        W30400  26.579  37.352  11.560
62038W        W30401  23.128   4.855   0.460
62039W        W30402  27.642   8.795  13.937
62040W        W30403  32.605  11.171  12.853
62041W        W30404  44.786   4.852   0.277
62042W        W30405  44.989  30.006  14.853
62043W        W30406  30.087  43.871   3.365
62044W        W30407   7.815   8.763  13.937
62045W        W30408  10.727   6.761  12.956
62046W        W30409  13.835  26.034   3.712
62047W        W30410  36.971  32.894  12.895
62048W        W30411  33.124  33.401  13.462
62049W        W30412  22.150  36.068   2.824
62050W        W30413  19.212  26.491   3.284
62051W        W30414  22.222   4.430  13.544
62052W        W30415  20.648  27.139  14.876
62053W        W30416  26.064  17.251   2.257
62054W        W30417  16.177  41.526  11.049
62055W        W30418  15.611  15.645  12.036
62056W        W30419  31.423  38.918  10.951
62057W        W30420  28.962   4.725  14.437
62058W        W30421  34.969  27.059   2.663
62059W        W30422  24.667  33.104   2.376
62060W        W30423  14.180   2.834   2.706
62061W        W30424   9.819  12.717  10.961
62062W        W30425  11.161  15.792  13.849
62063W        W30426  43.812  31.966  14.957
62064W        W30427   2.296  36.864   3.327
62065W        W30428   2.893  18.274   4.778
62066W        W30429   4.371  25.506   4.262
62067W        W30430   8.681  35.101  10.587
62068W        W30431  26.525   9.197   2.865
62069W        W30432   6.722  42.502  13.367
62070W        W30433  33.435   5.294  13.835
62071W        W30434  41.876  19.258  14.997
62072W        W30435   1.773  18.638  11.038
62073W        W30436  10.798  26.996   3.855
62074W        W30437  17.194  35.941   1.446
62075W        W30438  42.856  22.744  10.535
62076W        W30439  39.504  43.459   4.743
62077W        W30440   7.222  20.073   2.722
62078W        W30441  14.231  43.390  12.094
62079W        W30442   3.413   4.436  13.047
62080W        W30443  13.673  39.881   1.702
62081W        W30444  23.193  40.433   4.767
62082W        W30445  19.282  43.511  13.855
62083W        W30446  23.020  43.866  12.094
62084W        W30447   7.791  38.433   4.835
62085W        W30448  30.016  42.286  13.926
62086W        W30449   5.816  42.997  13.880
62087W        W30450  43.806  40.943  13.308
62088W        W30451  20.679   3.461  13.938
62089W        W30452  17.171  13.694   0.308
62090W        W30453  10.204   6.357   4.183
62091W        W30454  15.773  35.473   3.266
62092W        W30455  13.639  10.781   2.224
62093W        W30456  23.186  10.763   0.821
62094W        W30457  15.637  37.024   2.358
62095W        W30458  34.004   5.400  14.915
62096W        W30459  13.835  22.722  13.395
62097W        W30460   4.257   6.876   2.201
62098W        W30461  22.109  21.590  13.035
62099W        W30462  18.574  32.117   3.768
62100W        W30463   5.207  18.693  13.849
62101W        W30464  37.420  33.917  10.640
62102W        W30465  21.152  41.939  10.625
62103W        W30466   9.176  25.667  12.389
62104W        W30467   4.387  23.009   4.289
62105W        W30468  12.187  14.707   3.783
62106W        W30469  13.329  27.025   1.261
62107W        W30470  38.910  31.427   0.825
62108W        W30471  20.143  24.601  12.845
62109W        W30472  38.919  42.339   4.291
62110W        W30473  26.641  31.509  12.574
62111W        W30474  28.564  18.056  11.423
62112W        W30475  27.474  28.516   0.317
62113W        W30476  12.260  11.656   0.837
62114W        W30477  13.684  33.084   1.285
62115W        W30478  35.602  43.513   2.208
62116W        W30479  42.458  18.783   4.297
62117W        W30480   8.845  33.952  14.509
62118W        W30481  32.116  30.639  12.956
62119W        W30482  42.803   4.866  14.287
62120W        W30483  14.303  13.230   0.902
62121W        W30484  37.535   6.796   4.184
62122W        W30485  10.814  11.370   1.857
62123W        W30486  28.182  43.432   2.763
62124W        W30487  25.190  40.354   2.745
62125W        W30488  24.014  21.230   4.352
62126W        W30489  13.621  39.456   0.787
62127W        W30490  37.858   1.318  11.112
62128W        W30491  17.200   4.752   5.310
62129W        W30492  39.373  11.652   0.334
62130W        W30493  21.590   9.270   4.187
62131W        W30494  26.588  42.955  11.574
62132W        W30495  23.217   3.953   2.358
62133W        W30496  35.000  14.200   0.756
62134W        W30497  29.972  34.000   0.421
62135W        W30498   9.155  23.194  10.572
62136W        W30499  34.439  16.744  11.038
62137W        W30500  30.502  25.125  10.436
62138W        W30501  25.187  34.572  12.381
62139W        W30502  24.211  35.988  12.915
62140W        W30503   7.202   4.734  14.411
62141W        W30504  14.106  42.281  12.916
62142W        W30505  11.679  31.591  14.852
62143W        W30506   7.174  19.105   3.828
62144W        W30507   2.850  35.547   4.638
62145W        W30508  33.428  41.479  10.083
62146W        W30509   8.397  32.919   4.228
62147W        W30510  10.293   5.387   4.124
62148W        W30511   0.369  29.992  14.506
62149W        W30512  18.761  42.444   1.777
62150W        W30513   3.800   5.228   1.745
62151W        W30514  12.170  31.554  12.345
62152W        W30515  16.107   1.770   5.269
62153W        W30516  26.696   5.737   3.254
62154W        W30517  26.567  30.480  13.495
62155W        W30518  36.404  33.073   2.294
62156W        W30519  31.068  11.769  10.643
62157W        W30520  44.997  22.688   3.858
62158W        W30521   6.742  25.964   3.800
62159W        W30522  24.520  38.062   3.706
62160W        W30523  33.016  34.420  14.306
62161W        W30524  39.499   7.404  11.957
62162W        W30525  20.046  38.011  14.360
62163W        W30526  18.563  17.661  14.914
62164W        W30527  18.181  22.730  12.523
62165W        W30528  42.943  38.558  12.075
62166W        W30529  27.484  33.596   4.724
62167W        W30530   3.794  31.582   3.231
62168W        W30531   7.183  42.306   3.218
62169W        W30532  17.644  27.686   4.806
62170W        W30533  11.687  19.668   3.332
62171W        W30534   6.876  33.015   1.230
62172W        W30535  20.187   1.940   5.284
62173W        W30536  37.994  14.235  11.598
62174W        W30537  23.241  40.304  12.397
62175W        W30538  21.719  44.366   0.739
62176W        W30539  43.273  23.048   3.149
62177W        W30540  36.096  43.272   3.363
62178W        W30541  25.012   9.763   1.895
62179W        W30542  33.430  34.482  13.465
62180W        W30543  22.053   7.212   0.359
62181W        W30544  36.399  11.156  10.499
62182W        W30545  26.066   8.685   0.928
62183W        W30546  11.197  21.650   4.644
62184W        W30547  24.153  23.659  14.460
62185W        W30548  19.585  20.153  13.381
62186W        W30549   4.292  37.530   2.351
62187W        W30550  25.504  25.152  10.439
62188W        W30551  34.989  38.453   0.905
62189W        W30552  13.762  26.098  10.903
62190W        W30553  12.277  19.681  11.524
62191W        W30554  16.188   8.811   5.094
62192W        W30555  28.171  12.361   0.388
62193W        W30556  28.492  26.525  11.874
62194W        W30557  19.775  43.502  13.884
62195W        W30558  28.015  38.460  14.499
62196W        W30559  12.261  39.971  13.813
62197W        W30560   0.263  30.022   3.246
62198W        W30561  21.740  32.614   0.941
62199W        W30562  33.995  41.869  14.017
62200W        W30563  42.428  20.097   1.798
62201W        W30564  20.207  44.321  10.119
62202W        W30565  20.731  36.841   2.353
62203W        W30566  33.926  28.948   0.270
62204W        W30567  30.647  18.780   0.828
62205W        W30568  43.936  32.925   3.211
62206W        W30569  19.056  26.043  10.514
62207W        W30570  41.359  43.005   4.612
62208W        W30571  39.351  29.583   1.863
62209W        W30572   8.748  38.531   4.340
62210W        W30573  33.936  20.548   3.384
62211W        W30574  24.074   6.879  10.474
62212W        W30575  13.660  21.735   4.137
62213W        W30576  27.657  23.188   3.848
62214W        W30577   1.404   5.842   4.128
62215W        W30578  36.510  44.901   2.210
62216W        W30579   1.764   5.348  14.845
62217W        W30580  19.152  40.310  11.563
62218W        W30581  42.391  39.337  12.361
62219W        W30582  26.541  35.967   3.214
62220W        W30583   6.787  14.832  10.616
62221W        W30584  20.641  37.495   3.854
62222W        W30585  14.321   6.340  13.317
62223W        W30586  11.787   6.296   2.751
62224W        W30587   9.730  29.123  11.005
62225W        W30588   5.881  36.044   0.887
62226W        W30589  29.647   5.932   4.329
62227W        W30590  37.554  16.222  14.382
62228W        W30591  21.684  17.180  10.018
62229W        W30592  39.014   1.437   2.190
62230W        W30593  11.836  26.152   0.927
62231W        W30594   4.881  23.571  12.991
62232W        W30595  10.247  44.355  11.393
62233W        W30596  33.388   1.930   4.215
62234W        W30597  20.129  36.031  10.986
62235W        W30598   1.838   4.395   4.639
62236W        W30599  34.509  34.918  11.408
62237W        W30600  19.625  33.026   0.951
62238W        W30601  12.310  11.714  13.361
62239W        W30602  24.678  42.994  10.957
62240W        W30603  19.169  22.220  12.378
62241W        W30604  14.660  34.890   0.273
62242W        W30605  26.606  24.555  13.803
62243W        W30606  37.963   5.390  13.336
62244W        W30607   5.358  44.361   4.810
62245W        W30608   3.736   5.873  11.512
62246W        W30609   2.850  44.832  10.626
62247W        W30610  10.721   2.900   3.296
62248W        W30611  26.543  36.048   1.378
62249W        W30612   1.332   7.195   3.717
62250W        W30613  35.603  33.083  13.371
62251W        W30614  29.487  15.083   1.324
62252W        W30615  14.820  37.391  11.975
62253W        W30616  13.297  41.953  14.387
62254W        W30617  11.659  42.857   1.384
62255W        W30618   0.452  33.618   4.680
62256W        W30619  38.473  40.414   1.837
62257W        W30620   7.673  22.145  12.918
62258W        W30621  40.879  14.746  11.915
62259W        W30622   8.730  29.502  10.518
62260W        W30623  28.583   0.813  12.893
62261W        W30624  17.229  34.412   2.185
62262W        W30625   4.925  42.285  13.403
62263W        W30626  14.289  15.800  10.013
62264W        W30627  35.063  12.192   4.124
62265W        W30628   7.205  23.233   2.236
62266W        W30629   1.874   8.315   1.841
62267W        W30630  16.281   3.452  11.571
62268W        W30631   9.744  44.946   0.795
62269W        W30632  15.112  14.261  14.485
62270W        W30633  21.635  29.652  14.769
62271W        W30634  44.484  29.441   3.147
62272W        W30635  18.655  19.197  13.399
62273W        W30636  39.979  12.687  10.909
62274W        W30637  26.176  38.962  12.996
62275W        W30638  16.128  12.706   2.236
62276W        W30639  10.230  26.509  14.455
62277W        W30640  42.458  37.060   5.199
62278W        W30641  23.606   7.810  14.821
62279W        W30642  29.018  22.633  14.945
62280W        W30643  17.256  10.744   0.345
62281W        W30644  31.502   8.804   3.652
62282W        W30645  35.981  41.946  11.115
62283W        W30646  33.065   5.293   4.837
62284W        W30647  34.585   3.891   1.296
62285W        W30648  16.657  23.528   4.176
62286W        W30649  30.928  39.399   1.321
62287W        W30650  31.101  26.679  13.975
62288W        W30651  17.586  15.145  10.425
62289W        W30652  12.229  12.724  12.954
62290W        W30653  38.465  43.796   0.820
62291W        W30654  11.229  31.904   1.795
62292W        W30655   8.881  38.541   4.758
62293W        W30656  19.187  31.429   2.221
62294W        W30657  20.571  24.670  10.528
62295W        W30658  17.645   5.737   0.728
62296W        W30659  15.641   7.678  11.429
62297W        W30660  24.527   8.298  14.936
62298W        W30661  33.979   8.225   3.289
62299W        W30662  30.997  43.423   2.259
62300W        W30663  18.652  30.601   9.946
62301W        W30664  37.362  33.427   2.694
62302W        W30665  44.968   1.792  13.447
62303W        W30666   5.729   9.717   3.293
62304W        W30667  33.548   4.881   5.248
62305W        W30668  27.984  39.954   0.770
62306W        W30669  23.678   4.722  14.789
62307W        W30670   2.470  19.256  14.356
62308W        W30671   9.661   0.345  10.901
62309W        W30672   1.361  23.039   2.708
62310W        W30673   1.342  27.118   1.236
62311W        W30674  43.325  25.497  14.363
62312W        W30675  24.142  44.885  10.542
62313W        W30676  21.671  24.708   3.272
62314W        W30677   1.886   4.795  11.594
62315W        W30678  32.598   3.366   2.371
62316W        W30679   9.379  40.899   3.264
62317W        W30680  36.522  11.275  11.472
62318W        W30681  15.295  18.686  13.956
62319W        W30682  32.045  30.563  10.903
62320W        W30683  18.174  30.120  13.338
62321W        W30684  18.733  43.015  12.096
62322W        W30685  36.017  35.990   0.245
62323W        W30686  21.189  14.764  13.451
62324W        W30687   5.348  41.407   4.219
62325W        W30688  24.164  40.996   4.318
62326W        W30689  35.880   5.784  12.505
62327W        W30690  18.129  40.514  11.862
62328W        W30691  17.729  23.985  12.853
62329W        W30692  13.753  25.104  11.420
62330W        W30693  10.232  20.234  11.379
62331W        W30694  28.104   3.868   3.841
62332W        W30695  20.124  30.949  12.831
62333W        W30696  12.841  16.808   3.233
62334W        W30697  28.997  44.392   4.830
62335W        W30698  33.492  21.257  11.576
62336W        W30699  17.718  37.971  12.387
62337W        W30700  18.618  10.643   4.800
62338W        W30701  39.400  18.293  12.045
62339W        W30702  23.994  13.749  13.486
62340W        W30703  18.552  16.756  12.352
62341W        W30704  28.530  22.208  10.499
62342W        W30705  14.226  17.679   1.352
62343W        W30706  13.631  16.299  10.463
62344W        W30707  30.115  36.383   3.199
62345W        W30708  32.007   6.277   2.768
62346W        W30709   7.678  25.543  11.503
62347W        W30710   9.222   1.479  11.074
62348W        W30711  11.690  22.090  12.496
62349W        W30712  37.962  13.768  11.977
62350W        W30713   7.895  21.669  14.032
62351W        W30714  43.990  42.302   3.840
62352W        W30715  41.863  21.166  10.523
62353W        W30716  29.627  36.474  14.972
62354W        W30717  38.522  20.603  14.441
62355W        W30718  41.427  36.028  13.374
62356W        W30719  16.753  12.650   0.398
62357W        W30720  13.311   2.928   1.844
62358W        W30721  37.502  30.055   2.839
62359W        W30722  14.236   2.879  12.968
62360W        W30723  39.064  41.806   0.940
62361W        W30724   9.225  22.146  12.935
62362W        W30725  30.045   7.813  14.865
62363W        W30726  24.717  19.050  14.797
62364W        W30727  24.694  27.947   2.414
62365W        W30728   0.381  44.271  11.046
62366W        W30729  39.423  14.269   0.423
62367W        W30730  35.893  27.477   2.226
62368W        W30731  38.497  10.860   1.739
62369W        W30732  36.460  22.736   0.950
62370W        W30733  34.995   0.250  11.556
62371W        W30734  22.221  35.079   0.887
62372W        W30735  28.653  19.272   3.695
62373W        W30736  15.680  29.537  13.977
62374W        W30737   4.436  38.432  12.361
62375W        W30738  36.351  30.478  10.953
62376W        W30739  34.963  24.094   2.708
62377W        W30740   6.364   8.892  12.558
62378W        W30741  23.231   8.311   1.275
62379W        W30742   2.337  40.421   4.752
62380W        W30743   1.368  22.096   0.380
62381W        W30744   6.681  10.875  10.545
62382W        W30745   0.769  21.570  12.065
62383W        W30746  36.395  16.231  10.579
62384W        W30747  10.363  44.842   1.883
62385W        W30748  24.524  20.536   4.729
62386W        W30749  43.307  28.586  11.884
62387W        W30750  21.622  12.810  11.125
62388W        W30751  41.440  19.252   4.149
62389W        W30752   4.327   6.277   4.687
62390W        W30753   3.259  14.699  12.392
62391W        W30754  21.106  19.097  13.802
62392W        W30755   2.835  27.667  11.513
62393W        W30756  43.328  14.175   5.309
62394W        W30757  21.646  16.213   0.884
62395W        W30758   5.256  11.635   4.598
62396W        W30759  24.628  42.352   1.281
62397W        W30760   6.245  20.665   1.367
62398W        W30761  19.630  10.792  11.488
62399W        W30762   3.369  32.895  14.467
62400W        W30763   7.854   1.410   4.810
62401W        W30764  32.403  42.819   5.317
62402W        W30765  27.016  28.518  13.817
62403W        W30766  10.680  21.651  14.985
62404W        W30767  11.241  32.425   1.879
62405W        W30768  19.241  30.413   1.741
62406W        W30769  14.127   9.806  13.330
62407W        W30770  16.177   4.248   0.968
62408W        W30771  14.211  22.627  11.866
62409W        W30772  15.091   1.426   2.794
62410W        W30773  14.243   8.838  14.408
62411W        W30774  13.332  37.343  14.876
62412W        W30775  16.788  28.062  12.393
62413W        W30776   4.246  37.899   0.281
62414W        W30777  16.272   1.349   3.769
62415W        W30778  30.941  37.390   0.761
62416W        W30779  36.063  13.755   3.817
62417W        W30780  25.526   5.411  12.340
62418W        W30781  39.918  27.042   2.839
62419W        W30782   8.345  44.900   4.264
62420W        W30783  42.014  12.144  14.294
62421W        W30784  21.261   4.936   4.598
62422W        W30785  30.055  38.060  14.377
62423W        W30786   0.879  37.886  10.602
62424W        W30787  35.544  21.561  10.896
62425W        W30788   1.416   2.748  11.075
62426W        W30789  38.018  27.994   1.700
62427W        W30790  15.220  38.873  10.631
62428W        W30791  16.120  33.084  13.003
62429W        W30792   9.303  38.501  11.594
62430W        W30793  34.944  30.954   1.740
62431W        W30794  42.959  42.014  13.307
62432W        W30795  24.140  30.497   1.774
62433W        W30796  42.327  33.577   0.728
62434W        W30797  29.944   8.700   1.752
62435W        W30798  27.568  24.620   1.868
62436W        W30799  32.615  10.856  13.964
62437W        W30800  18.197  44.802  14.366
62438W        W30801  34.463   3.236   3.217
62439W        W30802  18.599  29.073  11.875
62440W        W30803   1.445  44.371  14.402
62441W        W30804  28.618   5.304  13.448
62442W        W30805  12.137  44.942   1.797
62443W        W30806  17.710  19.209  10.588
62444W        W30807  25.141  13.712  14.862
62445W        W30808  30.471  10.828   0.962
62446W        W30809   0.472  35.938  14.297
62447W        W30810  24.983  37.428   3.790
62448W        W30811  21.093  30.566  10.149
62449W        W30812   1.316  34.042  10.906
62450W        W30813   6.282  32.590  12.941
62451W        W30814  42.437  23.549   3.186
62452W        W30815  15.270  28.676   3.773
62453W        W30816  26.674   8.174   2.692
62454W        W30817   7.822  34.385  11.377
62455W        W30818  15.621  26.119   1.370
62456W        W30819   3.270  33.596   3.232
62457W        W30820  35.548  16.217  10.446
62458W        W30821  11.773   0.480  14.891
62459W        W30822  31.432   1.461   2.225
62460W        W30823  40.418  13.209  14.003
62461W        W30824  11.846   5.912  12.415
62462W        W30825  20.736  25.531   4.155
62463W        W30826   0.941  33.011   2.388
62464W        W30827  31.099  24.005   5.246
62465W        W30828   5.706   8.329   2.198
62466W        W30829  25.644  36.941   3.155
62467W        W30830  22.033  10.256   4.183
62468W        W30831  44.779   1.958  11.496
62469W        W30832  34.920  11.358  11.978
62470W        W30833  14.303  43.297   4.754
62471W        W30834  38.824  31.071   1.390
62472W        W30835  10.186   6.753  13.533
62473W        W30836  44.299  32.533   0.834
62474W        W30837  18.609  22.615  11.095
62475W        W30838  31.917   3.365  12.413
62476W        W30839  38.426  12.295   3.659
62477W        W30840  43.434  23.048   4.220
62478W        W30841  15.255  26.626  12.551
62479W        W30842  28.506  43.863   1.910
62480W        W30843  13.747   0.366  12.475
62481W        W30844  30.491  19.040   4.836
62482W        W30845  27.625  42.029  14.377
62483W        W30846  40.476  41.475  12.923
62484W        W30847  10.223  17.604   3.678
62485W        W30848  10.300   5.834  13.452
62486W        W30849  26.103  30.485   2.342
62487W        W30850  27.017  25.589   1.405
62488W        W30851  12.122  21.240   3.278
62489W        W30852   9.746   0.329   2.876
62490W        W30853  31.948  20.092   4.702
62491W        W30854  36.964  32.495   1.890
62492W        W30855  12.242  25.633   3.282
62493W        W30856  10.696  24.534  14.443
62494W        W30857  21.662  15.233   4.771
62495W        W30858  17.576   3.244  13.332
62496W        W30859  34.098  44.494   9.459
62497W        W30860  30.074  11.811   4.154
62498W        W30861  34.091  22.565   1.252
62499W        W30862  40.985  36.520  11.042
62500W        W30863  42.434  31.110   4.637
62501W        W30864  35.973  20.606  12.890
62502W        W30865  19.238  24.526  14.341
62503W        W30866  13.126  36.013  10.534
62504W        W30867   1.781  14.203   2.185
62505W        W30868  43.871  41.386  14.447
62506W        W30869  43.504  20.150   4.724
62507W        W30870  13.846  25.530  14.842
62508W        W30871  19.102  27.977  11.963
62509W        W30872   1.299  31.595  12.569
62510W        W30873  18.148   7.231   4.222
62511W        W30874  17.074  31.492   1.785
62512W        W30875   2.281   1.912  11.442
62513W        W30876  35.601  31.143   0.432
62514W        W30877  20.577  43.961   2.353
62515W        W30878  36.426   7.739   5.202
62516W        W30879   2.919   9.281  11.939
62517W        W30880  23.492  40.929   2.391
62518W        W30881  32.484   0.406  13.848
62519W        W30882  31.413  41.925   2.309
62520W        W30883  41.954  43.814   3.810
62521W        W30884  33.585   8.783   1.831
62522W        W30885  38.520  42.511   3.831
62523W        W30886  14.095   8.805  10.557
62524W        W30887  40.901  22.125   1.299
62525W        W30888   1.862   9.866  12.962
62526W        W30889  15.653  34.411  14.341
62527W        W30890  33.024  37.521   4.625
62528W        W30891  20.527   0.387  12.089
62529W        W30892   7.776  15.207   1.877
62530W        W30893  12.676   7.265   4.298
62531W        W30894  40.312  17.694  11.939
62532W        W30895  21.661  32.631   2.701
62533W        W30896  24.501  34.403  10.585
62534W        W30897   1.459  27.476   2.679
62535W        W30898   1.824  33.507  12.038
62536W        W30899  26.106   4.841   3.696
62537W        W30900  14.683  29.579   4.763
62538W        W30901  23.049  12.134  13.543
62539W        W30902  37.531  16.745  14.406
62540W        W30903  33.042  18.768  12.374
62541W        W30904  21.118  34.976   0.813
62542W        W30905  18.058  33.068  12.871
62543W        W30906   5.805  35.056   3.204
62544W        W30907  10.655   7.249   1.382
62545W        W30908  26.461  24.203   4.640
62546W        W30909  20.121  44.857  12.397
62547W        W30910  29.158  15.302  10.982
62548W        W30911   1.747  20.643   4.656
62549W        W30912  25.697   3.802   3.823
62550W        W30913   1.866  32.396   0.919
62551W        W30914  35.925   8.197  11.007
62552W        W30915  32.006  15.625   2.894
62553W        W30916  40.905   9.786   1.887
62554W        W30917  24.164   2.248   3.343
62555W        W30918  10.744   9.756   3.340
62556W        W30919  23.995  40.829  12.984
62557W        W30920  17.217  37.056  12.058
62558W        W30921  14.722  24.156  13.813
62559W        W30922  40.347  19.267  14.448
62560W        W30923  24.642   1.441  13.419
62561W        W30924  43.943   5.205   4.164
62562W        W30925  37.866   9.651   1.216
62563W        W30926   5.801  33.427  12.477
62564W        W30927  21.540  21.620   4.713
62565W        W30928  17.123  37.374   3.825
62566W        W30929   4.219   9.648   0.430
62567W        W30930  36.981   6.426  10.436
62568W        W30931  42.004   1.355   3.204
62569W        W30932  10.288  30.107   2.791
62570W        W30933  13.167  18.569   1.935
62571W        W30934  24.088  29.110   3.381
62572W        W30935  22.232  43.908  10.460
62573W        W30936  15.792   9.374   4.784
62574W        W30937  35.554  36.860   0.395
62575W        W30938  44.856  33.114  12.045
62576W        W30939   3.742  28.158  13.521
62577W        W30940  44.827   4.890   4.600
62578W        W30941  40.878  15.631  11.065
62579W        W30942   4.260   0.272   1.407
62580W        W30943  37.952   2.261  14.865
62581W        W30944  24.721  33.450   4.622
62582W        W30945  14.102  24.535  13.412
62583W        W30946  22.505  29.665  11.577
62584W        W30947  20.274  12.833  14.511
62585W        W30948  34.023  14.151  10.524
62586W        W30949  40.882  26.504   3.871
62587W        W30950  21.136  25.611  14.423
62588W        W30951  33.516  14.114  13.848
62589W        W30952   3.844   7.399   0.853
62590W        W30953  32.541  31.028   0.260
62591W        W30954  19.156  36.480  11.128
62592W        W30955  28.009  33.093   0.307
62593W        W30956   2.947  15.125  13.376
62594W        W30957   3.764   0.319   3.692
62595W        W30958  13.820   4.238  14.025
62596W        W30959  37.455  43.914   1.310
62597W        W30960  11.796  26.152  14.786
62598W        W30961  44.978  21.601   1.270
62599W        W30962  15.706  42.958  13.792
62600W        W30963  26.199  10.208   2.860
62601W        W30964  28.968  39.886  10.482
62602W        W30965  41.330  15.264  11.048
62603W        W30966   6.235  44.265   5.272
62604W        W30967  42.894  27.653  11.486
62605W        W30968  18.770  21.614  14.347
62606W        W30969  21.168  33.387  12.444
62607W        W30970  26.193  27.192  14.955
62608W        W30971  29.542  28.059   3.708
62609W        W30972  31.989  21.175  11.393
62610W        W30973  27.964  34.083  14.842
62611W        W30974  25.193  11.355  10.946
62612W        W30975   8.665  18.617   3.712
62613W        W30976  12.709  16.651  13.849
62614W        W30977  42.290  25.151  12.034
62615W        W30978  13.220  15.618   0.427
62616W        W30979  23.712   8.166  13.352
62617W        W30980  22.545  15.232   2.708
62618W        W30981  13.652  17.197   2.178
62619W        W30982   6.680  26.980  11.025
62620W        W30983  16.134  33.965  14.780
62621W        W30984   7.795  35.957   0.960
62622W        W30985  11.144  39.433  10.923
62623W        W30986   9.329  26.542  11.419
62624W        W30987  39.855  25.713  13.915
62625W        W30988  32.073  41.448  13.010
62626W        W30989   2.755  31.469  11.546
62627W        W30990  44.965  25.689   3.203
62628W        W30991  24.192  22.682  10.090
62629W        W30992  13.326  40.362   4.623
62630W        W30993  39.824  44.771  11.481
62631W        W30994  22.572  36.991   3.843
62632W        W30995  31.572   5.298  14.355
62633W        W30996  38.053  25.494  14.974
62634W        W30997  35.987  37.423  11.439
62635W        W30998  19.551  39.821  14.499
62636W        W30999  34.927  20.654  12.381
62637W        W31000  21.061  31.960  11.081
62638W        W31001  30.628  10.191  10.974
62639W        W31002  33.510  22.094   0.273
62640W        W31003   0.341  14.319  11.032
62641W        W31004   7.357  31.146   3.161
62642W        W31005   3.833  42.844  11.542
62643W        W31006  35.056   7.736   4.134
62644W        W31007  36.886  11.163   2.302
62645W        W31008  17.178  15.589   4.837
62646W        W31009   9.768  21.671   0.938
62647W        W31010  19.226   0.396  14.792
62648W        W31011  16.717   0.378  10.435
62649W        W31012  20.548  19.607   4.199
62650W        W31013  39.051  28.476   1.858
62651W        W31014  33.045  37.361   2.664
62652W        W31015   5.196  28.492   3.270
62653W        W31016  33.560  23.020   3.834
62654W        W31017  17.193   1.876   1.879
62655W        W31018  27.466   0.465   1.736
62656W        W31019  15.642  13.628   4.159
62657W        W31020  11.829   2.835  14.380
62658W        W31021  15.705  13.121   1.717
62659W        W31022   6.824  32.964  11.859
62660W        W31023  27.573  12.324  10.937
62661W        W31024  22.530   2.325   1.825
62662W        W31025  38.393  11.330  11.423
62663W        W31026  37.384  31.067   3.849
62664W        W31027  42.505   9.733  14.907
62665W        W31028  18.128  29.610   2.817
62666W        W31029   8.373  19.149  10.990
62667W        W31030   8.376   9.149  12.355
62668W        W31031  32.009   7.407   3.266
62669W        W31032  42.799  13.681   3.212
62670W        W31033  17.777   7.378  14.829
62671W        W31034  42.411  38.407   5.255
62672W        W31035  26.545   5.835  13.355
62673W        W31036  13.816  41.848  12.378
62674W        W31037  20.538  14.105  13.422
62675W        W31038   0.892  26.025   2.700
62676W        W31039  40.891   5.691   0.867
62677W        W31040  27.670  30.640  12.826
62678W        W31041  39.065   4.897  10.935
62679W        W31042  19.775   4.815   0.483
62680W        W31043  20.146  30.092   4.148
62681W        W31044  17.589  44.793   5.263
62682W        W31045  18.213   9.811  14.321
62683W        W31046  18.053  17.605  11.942
62684W        W31047   5.889  23.031   1.833
62685W        W31048  36.543  42.030   3.852
62686W        W31049  10.771  38.368   3.289
62687W        W31050  42.431  28.040  11.439
62688W        W31051  42.482  35.899   0.943
62689W        W31052  21.128  32.402   2.874
62690W        W31053  17.584  21.068  12.007
62691W        W31054  15.098  31.480  10.412
62692W        W31055  23.215  22.088   1.344
62693W        W31056  39.315  11.140  14.437
62694W        W31057  21.119  38.828  10.908
62695W        W31058  35.486  25.503  11.540
62696W        W31059  33.450  40.374   0.252
62697W        W31060  17.075  17.066  11.986
62698W        W31061  34.097  42.936  10.534
62699W        W31062  34.994   9.825  12.351
62700W        W31063  31.927  18.556   1.225
62701W        W31064   4.211  32.595   2.747
62702W        W31065  25.981   8.841   2.705
62703W        W31066  14.775  18.567  12.497
62704W        W31067  27.645  38.840  11.477
62705W        W31068  24.616  22.247  12.062
62706W        W31069  26.029  36.452  11.573
62707W        W31070  33.509  42.906   4.177
62708W        W31071  10.305   6.872   4.742
62709W        W31072  19.709  27.056   4.822
62710W        W31073  30.956  21.619   3.324
62711W        W31074   9.734  23.230   2.206
62712W        W31075  43.976  21.101   2.857
62713W        W31076   7.173  37.436  12.381
62714W        W31077  33.002  16.159   4.724
62715W        W31078  14.334   9.862   4.272
62716W        W31079  13.786  16.606   0.967
62717W        W31080   0.385  16.807  12.514
62718W        W31081  21.687  39.496  12.362
62719W        W31082  43.483  13.678   0.311
62720W        W31083  37.955   3.919  10.918
62721W        W31084  29.480   5.290  11.950
62722W        W31085  16.663  41.916   0.819
62723W        W31086  18.719  39.995  11.512
62724W        W31087   6.914  15.265  12.341
62725W        W31088  14.721  26.181   2.768
62726W        W31089  19.736  19.039   0.338
62727W        W31090  28.030   8.756   2.356
62728W        W31091   1.733  41.902   4.243
62729W        W31092  39.444  42.983   1.404
62730W        W31093  31.599  30.017  14.283
62731W        W31094  43.419  30.953   0.347
62732W        W31095  17.254  20.197  10.418
62733W        W31096  20.105  43.293   1.842
62734W        W31097  41.996  21.085   1.705
62735W        W31098  26.991   6.831  11.600
62736W        W31099   3.306   5.257  13.826
62737W        W31100   8.228  42.303   1.732
62738W        W31101  16.684  22.139  13.807
62739W        W31102  23.093  11.721  14.932
62740W        W31103  22.231  10.649  14.349
62741W        W31104   3.303   0.819  11.581
62742W        W31105  13.109  30.047  14.915
62743W        W31106  17.628  35.922  10.928
62744W        W31107  12.183  19.697  10.602
62745W        W31108  34.895  30.447  14.810
62746W        W31109  42.969  20.030   3.708
62747W        W31110  33.885   6.391  12.955
62748W        W31111  30.467  10.287   3.678
62749W        W31112   4.708  44.374   4.661
62750W        W31113  22.144  36.902   4.760
62751W        W31114  28.978  27.144   3.867
62752W        W31115  31.566  24.163  12.923
62753W        W31116  12.121  33.910  12.358
62754W        W31117   8.873  26.485  13.487
62755W        W31118  43.946  18.263   4.716
62756W        W31119  26.140  22.214  11.020
62757W        W31120  41.494   3.892   1.912
62758W        W31121   4.903  16.660  11.575
62759W        W31122   8.707  12.770   0.889
62760W        W31123  29.566   3.763  11.855
62761W        W31124  10.170  40.461  12.530
62762W        W31125  20.199  40.465  12.448
62763W        W31126  17.160  31.982  12.095
62764W        W31127  31.098  28.128   0.960
62765W        W31128   4.273   6.922  14.433
62766W        W31129  10.380  28.986   3.827
62767W        W31130  17.299  25.608  10.425
62768W        W31131  12.220   9.382   2.185
62769W        W31132  24.097  10.314  12.068
62770W        W31133   8.305  11.712  11.588
62771W        W31134   6.912   6.870  12.406
62772W        W31135   5.819   2.737   2.673
62773W        W31136  27.668   6.732  12.919
62774W        W31137  28.002  40.326  12.570
62775W        W31138  13.734   5.311   3.846
62776W        W31139  33.529  28.978   4.756
62777W        W31140  34.384  23.713   3.688
62778W        W31141  42.393  19.758  11.600
62779W        W31142  27.519  38.343   3.375
62780W        W31143   1.428   1.421  10.904
62781W        W31144  33.428   6.844   2.214
62782W        W31145  11.671  25.002  12.874
62783W        W31146  34.583   9.228   4.290
62784W        W31147  39.376   7.298   4.138
62785W        W31148  18.261   2.434   1.857
62786W        W31149  37.910  36.983  14.481
62787W        W31150  14.729  22.593   1.374
62788W        W31151  29.969   2.734  11.064
62789W        W31152  36.442   3.339   1.447
62790W        W31153   3.826  24.210   9.541
62791W        W31154   4.436  29.578  14.351
62792W        W31155  20.577  33.954  11.103
62793W        W31156  27.655  42.945   1.743
62794W        W31157  40.942  10.172   2.684
62795W        W31158  32.442  40.399   4.218
62796W        W31159  31.067  32.925  12.882
62797W        W31160  21.060  24.183  10.630
62798W        W31161  34.391  40.445  11.859
62799W        W31162   5.709  11.143   1.290
62800W        W31163  34.885  33.114   2.340
62801W        W31164  26.069  14.168  10.099
62802W        W31165  39.897  17.302   0.911
62803W        W31166   8.751   0.924  13.060
62804W        W31167  20.078  41.868   2.317
62805W        W31168   7.794  36.467  13.898
62806W        W31169  39.993  15.700   3.235
62807W        W31170  18.636  40.971   3.777
62808W        W31171  40.325   3.405   0.813
62809W        W31172  24.172  13.321   2.890
62810W        W31173  27.048  37.495  15.000
62811W        W31174  15.180  24.990   3.305
62812W        W31175  14.201  40.366   1.411
62813W        W31176  32.885  31.509   4.143
62814W        W31177  24.499   0.980   0.894
62815W        W31178   0.961  27.508   1.275
62816W        W31179  35.518  40.010   0.750
62817W        W31180  43.511  30.510  13.987
62818W        W31181  38.477   7.369  10.535
62819W        W31182  13.244  21.083   2.219
62820W        W31183  31.419  40.465  13.040
62821W        W31184  14.231  30.109   3.679
62822W        W31185  31.048   9.827  11.925
62823W        W31186   4.218  24.190  11.971
62824W        W31187  42.378   1.889  11.383
62825W        W31188  17.680  22.161  12.413
62826W        W31189  18.185   0.828  14.031
62827W        W31190   0.844  27.573  13.818
62828W        W31191   9.887   3.942  14.386
62829W        W31192   6.251  11.818   2.872
62830W        W31193  35.392  16.798  11.494
62831W        W31194  38.865  26.510   0.785
62832W        W31195  20.186  28.566  14.419
62833W        W31196  20.706  13.819  14.417
62834W        W31197  10.219  22.147   3.787
62835W        W31198  24.543  15.598  11.091
62836W        W31199  22.553  32.549   0.952
62837W        W31200  18.762  22.560  13.526
62838W        W31201  39.943   2.228   3.349
62839W        W31202  22.653  16.265   3.348
62840W        W31203  13.121  43.388   0.460
62841W        W31204  13.267  20.734  11.971
62842W        W31205   7.863   5.427   3.180
62843W        W31206   9.753  20.566   4.163
62844W        W31207   7.371  17.580   1.772
62845W        W31208  25.202  26.111   3.674
62846W        W31209   1.391   9.260   3.255
62847W        W31210  26.591  34.114   0.369
62848W        W31211  27.976  34.473   4.659
62849W        W31212  30.057  31.425   3.147
62850W        W31213  11.136  17.213  12.496
62851W        W31214   4.267  35.974   4.234
62852W        W31215  33.936  24.024  14.390
62853W        W31216  21.131   6.839   4.793
62854W        W31217  16.726   3.425   4.211
62855W        W31218  20.062  44.977   0.443
62856W        W31219  29.140  38.378  10.552
62857W        W31220  31.057  14.825   4.272
62858W        W31221  11.730   8.344  10.962
62859W        W31222   6.731  16.651   1.373
62860W        W31223  39.398   4.260   1.716
62861W        W31224  14.644  21.736  14.863
62862W        W31225  14.221  41.410   4.277
62863W        W31226  21.126  31.047  14.457
62864W        W31227  22.631  29.005   3.811
62865W        W31228  20.591  36.393  14.934
62866W        W31229  25.167   0.925  11.444
62867W        W31230  19.681  26.049  11.979
62868W        W31231  24.583  23.088  14.819
62869W        W31232  34.929   3.218   3.769
62870W        W31233  28.018  40.817   2.251
62871W        W31234  31.439   3.728   2.734
62872W        W31235  33.571  35.916   0.759
62873W        W31236   6.770  40.333   2.738
62874W        W31237  29.495   8.770  12.449
62875W        W31238  13.300  34.559  11.094
62876W        W31239  20.558  40.369  13.828
62877W        W31240  30.547  44.999  13.472
62878W        W31241  11.237   7.206   3.647
62879W        W31242   8.883  18.245  14.815
62880W        W31243  23.727   2.843   2.724
62881W        W31244  15.089   5.281   3.303
62882W        W31245  23.730  39.452   0.382
62883W        W31246   2.808   0.362  12.996
62884W        W31247  13.724  35.072   4.201
62885W        W31248  34.533  44.440   1.351
62886W        W31249  43.301  26.625   0.427
62887W        W31250  20.139  28.621   3.328
62888W        W31251  38.492   6.425  10.569
62889W        W31252  35.049  41.032  10.540
62890W        W31253   1.416   5.244   2.896
62891W        W31254  25.703   9.381   3.719
62892W        W31255  13.782  42.508  10.573
62893W        W31256  34.378   0.358   4.687
62894W        W31257  19.253  18.218  10.494
62895W        W31258  32.449   0.748  13.045
62896W        W31259  40.374  38.328   2.723
62897W        W31260  12.361   8.373   2.810
62898W        W31261   1.782  38.884  11.534
62899W        W31262  23.575  38.987  12.419
62900W        W31263  39.347  13.254   1.282
62901W        W31264  19.655  43.892   3.858
62902W        W31265  18.607  26.654   0.755
62903W        W31266  31.412  14.696   0.778
62904W        W31267   1.977   7.690   3.758
62905W        W31268  35.026  10.180   2.816
62906W        W31269   0.932  30.603   1.756
62907W        W31270   5.291   8.838  10.429
62908W        W31271  30.077  37.344   4.759
62909W        W31272  19.560  26.466  12.531
62910W        W31273   7.210   6.768   4.796
62911W        W31274   2.792  21.109   1.372
62912W        W31275  12.311   7.251  14.316
62913W        W31276  43.321  33.559   1.782
62914W        W31277  25.526   4.427   0.908
62915W        W31278  40.402  14.664   2.394
62916W        W31279  20.210   4.429  12.372
62917W        W31280  43.338  13.107  13.327
62918W        W31281   2.385  15.112  12.055
62919W        W31282  44.938  15.237  12.520
62920W        W31283  26.100  24.719  14.308
62921W        W31284  16.084  17.566  11.537
62922W        W31285  41.849  18.144  12.007
62923W        W31286  19.044  30.557  12.482
62924W        W31287  31.526   1.917  11.898
62925W        W31288  22.138  30.969   0.754
62926W        W31289  13.711  18.189   1.413
62927W        W31290  17.556  20.577  10.613
62928W        W31291  12.782  23.047  10.598
62929W        W31292  28.501   4.438  12.854
62930W        W31293  13.765  18.581   3.854
62931W        W31294  19.558   6.779   1.272
62932W        W31295  16.288   8.362   0.913
62933W        W31296  25.562  18.556   2.317
62934W        W31297  11.667  39.045   3.737
62935W        W31298   8.301  14.598  12.445
62936W        W31299   3.807  22.245   0.330
62937W        W31300  17.220  30.521  13.399
62938W        W31301   9.323  30.533   4.603
62939W        W31302  17.139  13.806  12.382
62940W        W31303  12.344  31.055   0.741
62941W        W31304  23.238  18.606  12.851
62942W        W31305   8.172  34.921   3.782
62943W        W31306  39.360  31.523   2.195
62944W        W31307   5.258   5.370  13.529
62945W        W31308  41.900  41.026  12.362
62946W        W31309   7.780  21.684  12.343
62947W        W31310  34.378  25.116   2.411
62948W        W31311  34.606  40.531   0.933
62949W        W31312  23.716  43.855  13.900
62950W        W31313   2.934   8.721  10.459
62951W        W31314  20.624  14.690  12.975
62952W        W31315  33.043  44.426   4.145
62953W        W31316   1.733   0.963   5.675
62954W        W31317  23.986  20.602   3.167
62955W        W31318  32.128  18.759  13.012
62956W        W31319  25.522  43.893   3.285
62957W        W31320  10.152  17.759   3.343
62958W        W31321   5.413   5.417   2.873
62959W        W31322   0.843  12.668   2.880
62960W        W31323  35.067   9.320   4.602
62961W        W31324  20.760   0.889  11.968
62962W        W31325  35.390  14.633   0.323
62963W        W31326  43.282  37.438   3.280
62964W        W31327  20.579  40.439  11.500
62965W        W31328  11.256  20.642  14.022
62966W        W31329   8.848  14.288   5.120
62967W        W31330  27.112  31.068   3.701
62968W        W31331  14.663  19.255  12.426
62969W        W31332  32.547  19.605  13.867
62970W        W31333  29.569  18.174  14.427
62971W        W31334  36.932  23.111  12.494
62972W        W31335   9.256  35.916   0.900
62973W        W31336  25.214  38.558   2.886
62974W        W31337  32.462  16.175   4.312
62975W        W31338  35.933  30.412  11.017
62976W        W31339  38.345   4.263   2.302
62977W        W31340  28.930   0.317  14.001
62978W        W31341  21.559   7.271  10.549
62979W        W31342  11.309  16.697  14.998
62980W        W31343  10.238  30.913  12.372
62981W        W31344  44.778   3.715   4.641
62982W        W31345  41.955  38.875  14.410
62983W        W31346  27.464   5.353   4.343
62984W        W31347  39.906  17.608   3.292
62985W        W31348   7.378  20.105  14.780
62986W        W31349  21.062  12.682   1.866
62987W        W31350  38.821  36.949   3.370
62988W        W31351   9.796  44.388  14.916
62989W        W31352  17.135  18.180  11.893
62990W        W31353  37.838  34.452   2.876
62991W        W31354   0.861   5.413   3.854
62992W        W31355   1.274  19.655   4.674
62993W        W31356  41.808  43.275   1.310
62994W        W31357   2.397  29.635  12.021
62995W        W31358  18.084  42.481  12.438
62996W        W31359  16.692   6.328   0.474
62997W        W31360  19.563  28.445   0.366
62998W        W31361  39.026  32.503  10.637
62999W        W31362  14.123  40.506   2.851
63000W        W31363  25.073  31.929  14.296
63001W        W31364  42.020  41.824  10.626
63002W        W31365  33.626  26.070  11.042
63003W        W31366   3.338  33.559  13.340
63004W        W31367   5.838   4.351  10.505
63005W        W31368   8.406  12.125   4.718
63006W        W31369  28.582   5.225   1.739
63007W        W31370  36.879  26.654   2.710
63008W        W31371  30.017   3.717  11.016
63009W        W31372  43.874  17.119   2.224
63010W        W31373   3.713  15.153  12.926
63011W        W31374  13.122   9.820   4.762
63012W        W31375  30.967  10.237  11.479
63013W        W31376   9.682  26.466   2.840
63014W        W31377   7.290  40.501   2.701
63015W        W31378  31.075  44.371   4.774
63016W        W31379  22.600  28.457   4.814
63017W        W31380  37.999  28.596  11.504
63018W        W31381  13.123  13.783  11.124
63019W        W31382  24.103  29.502  11.491
63020W        W31383  38.467  14.111   1.442
63021W        W31384   3.308  35.941   2.211
63022W        W31385   7.302  35.560  14.394
63023W        W31386   9.761  15.112  13.864
63024W        W31387  43.768  37.459  10.583
63025W        W31388  15.296  29.922   0.867
63026W        W31389  35.039  44.436   9.978
63027W        W31390  18.611  17.256   4.627
63028W        W31391  34.579  18.226   2.740
63029W        W31392   7.820  17.654  13.925
63030W        W31393  18.547   2.351   2.829
63031W        W31394  11.182   1.461   4.606
63032W        W31395  42.392  24.118   1.801
63033W        W31396  33.415  41.396  11.525
63034W        W31397  41.923  28.680  14.302
63035W        W31398  42.971   7.332  14.502
63036W        W31399  40.934  43.777  12.072
63037W        W31400  10.315  36.417   0.784
63038W        W31401  41.821  33.002  14.421
63039W        W31402   9.283  25.614  10.418
63040W        W31403  35.080  22.164   0.960
63041W        W31404  27.508  10.715   1.908
63042W        W31405  35.398  33.612   1.369
63043W        W31406  21.656   2.464   4.314
63044W        W31407  28.665  15.141  14.940
63045W        W31408  37.357  34.083  13.795
63046W        W31409   6.919   4.713  14.287
63047W        W31410  26.014  24.688   3.649
63048W        W31411  37.409   1.812  10.409
63049W        W31412  11.316  43.309  10.516
63050W        W31413   9.202   5.730   1.833
63051W        W31414  36.377  26.990   4.326
63052W        W31415  35.925   8.305   0.372
63053W        W31416   8.719  16.114  12.472
63054W        W31417  22.136  41.309  12.848
63055W        W31418  14.268  17.296  12.560
63056W        W31419  27.480   2.903  12.010
63057W        W31420   9.383  38.819  14.298
63058W        W31421  43.390   2.951  12.942
63059W        W31422  24.028   5.322  13.429
63060W        W31423  27.608  33.550  13.978
63061W        W31424  27.593   0.286  10.575
63062W        W31425  29.132  13.662   1.862
63063W        W31426  12.709  20.163  14.768
63064W        W31427  19.554  28.462  12.558
63065W        W31428  25.071  16.582  14.956
63066W        W31429   0.832  14.790   3.361
63067W        W31430  29.587  27.084   0.746
63068W        W31431  42.438   2.844   1.917
63069W        W31432  39.011  43.918  13.528
63070W        W31433  37.868  34.059   4.700
63071W        W31434  18.254  33.017   4.298
63072W        W31435  36.451  28.114   4.179
63073W        W31436  29.544  33.408   4.700
63074W        W31437  10.384  18.609   3.811
63075W        W31438  23.598  32.599   2.340
63076W        W31439  26.983  34.500   1.716
63077W        W31440  11.234  28.944   2.873
63078W        W31441  42.790   7.194  13.535
63079W        W31442  14.245   7.772   1.260
63080W        W31443  23.138  32.024  13.819
63081W        W31444  32.056  19.571   3.342
63082W        W31445  14.272  25.172   2.327
63083W        W31446   9.221  18.628   3.645
63084W        W31447   7.323  29.082  14.356
63085W        W31448   7.818  44.463  13.532
63086W        W31449  22.024  36.481   3.298
63087W        W31450   0.377  14.829   1.227
63088W        W31451   2.261  24.695   0.959
63089W        W31452  35.552   1.949   3.634
63090W        W31453  35.490  30.117  11.031
63091W        W31454  19.758  33.889  11.027
63092W        W31455  35.510  43.908   1.305
63093W        W31456  27.158   5.722   0.267
63094W        W31457   2.284  41.370   3.253
63095W        W31458  38.870  12.668  13.848
63096W        W31459   2.951   9.246   3.379
63097W        W31460  35.044  40.532  13.516
63098W        W31461  35.495  12.270   1.328
63099W        W31462  39.526   9.879  13.990
63100W        W31463  24.040  10.708  12.420
63101W        W31464   5.230   5.696   1.366
63102W        W31465  41.426  12.850   3.664
63103W        W31466  16.756  31.038   3.827
63104W        W31467   0.280   2.329  14.370
63105W        W31468  29.486  34.398   3.374
63106W        W31469   7.838  24.545  10.942
63107W        W31470   3.719  19.754   0.939
63108W        W31471  13.217  37.874  14.381
63109W        W31472  32.932  40.446  11.402
63110W        W31473  22.155  18.692   3.675
63111W        W31474  38.879   5.303  12.049
63112W        W31475  14.661  19.148   2.772
63113W        W31476  23.109  26.548  10.893
63114W        W31477  13.745   6.758   2.295
63115W        W31478  20.105  11.634   2.237
63116W        W31479  42.487  31.523  14.787
63117W        W31480  11.218  41.817  11.987
63118W        W31481  40.438  40.972   1.373
63119W        W31482  36.892  20.104  12.953
63120W        W31483  36.505  17.127  11.905
63121W        W31484  40.802   9.175  14.865
63122W        W31485  15.176  14.670   0.321
63123W        W31486  42.960  35.573  13.308
63124W        W31487  29.656  21.136  13.334
63125W        W31488  42.314  30.124  14.460
63126W        W31489  21.645  21.129  14.470
63127W        W31490   1.245  38.865  12.360
63128W        W31491  23.521  25.138  12.965
63129W        W31492   1.940   0.330  13.427
63130W        W31493   9.783  38.949  12.867
63131W        W31494  23.238   6.369  11.533
63132W        W31495   2.313  26.472   1.291
63133W        W31496  35.903  25.557   2.194
63134W        W31497  29.067  20.601   0.437
63135W        W31498   5.875  24.636  12.069
63136W        W31499  13.297   5.809  14.418
63137W        W31500  33.441  20.094  12.842
63138W        W31501  43.772   4.763   3.281
63139W        W31502   0.908  23.591   4.149
63140W        W31503  39.906  10.237   1.737
63141W        W31504   6.223  38.851  11.462
63142W        W31505  38.562  15.138  13.390
63143W        W31506  23.000   7.805  10.503
63144W        W31507  35.516   1.282  13.057
63145W        W31508  20.157  22.733  13.899
63146W        W31509  23.054   7.284  10.917
63147W        W31510  25.614  28.526   4.135
63148W        W31511  13.700   7.733   0.371
63149W        W31512  20.248  15.773   3.787
63150W        W31513  42.818  31.053  11.125
63151W        W31514  15.222   5.756  14.370
63152W        W31515  11.244   5.848   0.413
63153W        W31516  39.432  20.081   2.270
63154W        W31517  40.047  32.139  10.412
63155W        W31518  14.322   8.196   1.696
63156W        W31519  24.635  20.664  12.460
63157W        W31520  14.624  16.712  14.886
63158W        W31521  32.967   8.256  12.977
63159W        W31522  35.519   0.899  12.899
63160W        W31523  40.022   2.266  10.448
63161W        W31524   4.328  14.675  10.958
63162W        W31525  33.922  42.495  11.883
63163W        W31526  20.647   4.389  13.815
63164W        W31527  32.106  33.530  11.514
63165W        W31528  23.656  30.572  11.118
63166W        W31529  32.508  11.194  13.461
63167W        W31530  11.782   5.762   1.432
63168W        W31531  12.132   0.394  12.998
63169W        W31532   1.895  17.711   1.883
63170W        W31533  28.674  13.741   3.783
63171W        W31534  15.241  31.568  12.946
63172W        W31535  21.232  25.101   2.289
63173W        W31536  15.767  14.596  14.924
63174W        W31537  26.477  17.278  12.381
63175W        W31538  13.249   8.288   3.826
63176W        W31539  38.036  40.997  12.365
63177W        W31540  33.131  26.026   3.726
63178W        W31541  27.018  30.554   1.406
63179W        W31542  22.119  26.492   2.815
63180W        W31543  15.248   8.752   3.310
63181W        W31544  17.301  32.581  13.962
63182W        W31545  43.904  16.603   1.407
63183W        W31546  40.521  33.073   3.801
63184W        W31547  19.563  20.588   1.256
63185W        W31548  24.585  19.081  13.543
63186W        W31549   9.872  15.253  11.869
63187W        W31550  33.396  28.571   2.359
63188W        W31551  43.366  23.733  11.551
63189W        W31552   8.795  22.246   4.114
63190W        W31553  20.042  43.798  10.089
63191W        W31554  28.074  40.987  10.928
63192W        W31555   9.319  12.789   3.317
63193W        W31556   9.732   0.790   2.722
63194W        W31557  43.316  41.937   3.247
63195W        W31558   5.753   5.796   2.870
63196W        W31559  12.124  12.214  14.361
63197W        W31560  43.500  38.508  11.572
63198W        W31561  31.444  19.257   2.860
63199W        W31562  16.592  22.545   3.373
63200W        W31563  43.409  42.295   4.305
63201W        W31564  15.628  36.923  12.937
63202W        W31565  22.212  32.439  13.908
63203W        W31566  23.006  14.126   4.626
63204W        W31567  38.533  11.666  13.898
63205W        W31568  32.417  22.152   4.723
63206W        W31569  15.642  20.052  14.290
63207W        W31570  23.209   0.831   3.637
63208W        W31571  23.240   4.278   3.668
63209W        W31572   7.405   3.888  12.972
63210W        W31573  24.216  43.431  14.949
63211W        W31574  28.036  12.689  10.548
63212W        W31575  15.138  29.468   3.215
63213W        W31576  22.705   7.830   1.412
63214W        W31577  34.953  44.432  14.966
63215W        W31578   7.339   4.858   2.259
63216W        W31579  11.326  18.638   4.756
63217W        W31580  34.512  20.060   3.210
63218W        W31581  36.983  31.454   3.753
63219W        W31582  11.777  36.526  10.443
63220W        W31583  38.356   5.245  11.004
63221W        W31584  21.119  23.725   4.281
63222W        W31585   9.721  25.133  14.457
63223W        W31586  32.924  13.817  14.974
63224W        W31587  27.499   8.854   4.123
63225W        W31588  11.139  17.720  13.347
63226W        W31589  15.090  18.206  11.994
63227W        W31590  40.851   3.763  12.864
63228W        W31591  22.604  44.455   4.612
63229W        W31592  24.486  32.056  10.516
63230W        W31593  28.138  41.534  14.786
63231W        W31594  20.174  17.781   0.401
63232W        W31595  11.287  25.079  13.058
63233W        W31596  22.625  31.445   2.829
63234W        W31597  39.962  37.556   1.725
63235W        W31598  26.992  18.774  14.821
63236W        W31599  30.507   3.734   2.291
63237W        W31600   3.893  23.238  12.063
63238W        W31601  31.554  15.703  14.761
63239W        W31602  24.218  23.639  13.891
63240W        W31603  27.568  25.174  13.852
63241W        W31604   4.857  23.659   1.286
63242W        W31605   9.364  43.371   2.809
63243W        W31606  37.468  32.516  12.502
63244W        W31607  33.025  34.025   1.369
63245W        W31608  28.014  11.337   1.701
63246W        W31609  39.556  18.572   4.598
63247W        W31610  11.712  21.573  13.944
63248W        W31611  29.159  23.229  14.325
63249W        W31612  18.223   4.747   2.227
63250W        W31613  36.565  37.548  10.425
63251W        W31614  40.025   3.293  14.887
63252W        W31615   5.885  27.515  13.370
63253W        W31616   5.399  22.520   1.381
63254W        W31617   4.311   0.414  10.467
63255W        W31618   7.255  33.968  12.847
63256W        W31619  20.675  32.080  11.971
63257W        W31620  35.107  32.435   0.286
63258W        W31621  26.671  23.007   4.281
63259W        W31622  32.005  28.979  11.481
63260W        W31623  16.283  42.809   3.324
63261W        W31624  30.023  19.667   3.276
63262W        W31625  23.174   5.699  12.535
63263W        W31626  32.508  36.923   2.679
63264W        W31627  19.565   6.259   3.179
63265W        W31628  21.252  31.530  11.564
63266W        W31629  13.777  30.561  13.044
63267W        W31630  41.425  42.294   2.309
63268W        W31631  26.582   2.351  14.507
63269W        W31632   7.385  12.735   3.749
63270W        W31633  34.473   6.857  12.932
63271W        W31634   3.421  41.854   5.203
63272W        W31635  14.766  23.049   4.710
63273W        W31636  26.528  12.818   1.700
63274W        W31637  38.874  21.247  13.940
63275W        W31638  23.193  11.832  12.939
63276W        W31639  19.213   9.670  14.342
63277W        W31640  44.821  36.915  14.834
63278W        W31641   7.386  20.087   3.234
63279W        W31642  19.736  28.934  12.478
63280W        W31643  14.123  36.862  10.433
63281W        W31644   0.901   8.818  12.482
63282W        W31645  10.183  42.901   1.927
63283W        W31646   7.230   1.828   2.179
63284W        W31647  16.119   2.300   2.254
63285W        W31648  38.014   8.724   1.330
63286W        W31649  16.589  34.939   4.743
63287W        W31650  32.488   3.863  10.935
63288W        W31651   8.834  44.339   5.212
63289W        W31652   5.259  38.075   0.912
63290W        W31653  12.260  11.209   4.175
63291W        W31654  40.338   0.450   3.796
63292W        W31655  24.494  12.621  13.058
63293W        W31656  38.548   5.317  11.890
63294W        W31657  13.752  36.490   2.757
63295W        W31658  10.796   5.723  11.929
63296W        W31659   7.189  18.214   0.354
63297W        W31660  14.122   6.314   5.752
63298W        W31661   7.332  32.972   3.167
63299W        W31662  44.405  42.031  11.581
63300W        W31663  40.034  22.570  12.544
63301W        W31664  41.379  22.625  13.391
63302W        W31665  27.179  42.886  10.595
63303W        W31666   6.768  13.312  13.960
63304W        W31667  41.911   7.387   0.395
63305W        W31668  15.599  12.238  12.521
63306W        W31669  34.115   7.287  10.414
63307W        W31670  37.920   2.451   3.158
63308W        W31671  12.822  23.633  13.061
63309W        W31672  23.994   2.793  14.289
63310W        W31673  23.534  15.650  11.485
63311W        W31674  15.739   8.845   1.368
63312W        W31675  35.410  25.674   0.351
63313W        W31676  15.731   9.845   4.776
63314W        W31677  42.816  25.105   2.399
63315W        W31678  39.995  22.729   1.385
63316W        W31679  30.997  21.679   4.306
63317W        W31680  37.394  29.666  11.046
63318W        W31681  38.886  37.934  11.056
63319W        W31682  12.272  44.304   1.705
63320W        W31683  34.508   4.768  11.426
63321W        W31684  34.871  21.175   5.240
63322W        W31685  32.904  11.765   3.153
63323W        W31686   6.883  12.362  14.324
63324W        W31687  43.832  19.062   1.320
63325W        W31688  42.786   0.917  10.933
63326W        W31689   4.225  15.192   4.200
63327W        W31690  36.930  22.584  10.945
63328W        W31691  30.153  40.044  12.400
63329W        W31692  33.454  44.769  12.993
63330W        W31693  12.837   8.856  14.334
63331W        W31694   8.729  35.945  13.514
63332W        W31695   7.276  37.386   4.197
63333W        W31696   4.444  35.923   0.904
63334W        W31697  43.793   6.428   1.740
63335W        W31698  37.424  41.522  12.431
63336W        W31699  17.154  28.949   2.402
63337W        W31700  12.258  18.132   0.273
63338W        W31701  18.675  24.187   1.930
63339W        W31702  40.913  34.596  12.522
63340W        W31703  23.025  36.089   4.630
63341W        W31704  36.429  38.869  11.051
63342W        W31705   4.771  10.285   2.292
63343W        W31706  20.196  10.323  10.495
63344W        W31707  35.998  38.401  13.314
63345W        W31708  44.269  32.424  10.527
63346W        W31709  11.671  43.435   4.215
63347W        W31710   6.270   8.240   3.745
63348W        W31711  24.196  30.986  13.896
63349W        W31712  22.606  14.799  14.318
63350W        W31713   9.740  12.344  14.360
63351W        W31714  32.452  39.919  11.999
63352W        W31715   6.209   5.800  13.936
63353W        W31716  23.610  35.361   3.685
63354W        W31717  42.362  42.333  11.411
63355W        W31718  29.929  22.642   2.822
63356W        W31719  41.941   7.263  11.996
63357W        W31720  26.534  39.429   2.385
63358W        W31721  37.498   0.379   1.849
63359W        W31722  31.533  13.189  11.996
63360W        W31723  33.465  40.542  11.498
63361W        W31724  22.646  35.359   4.256
63362W        W31725  22.009   2.430   2.227
63363W        W31726  35.953  28.943   1.222
63364W        W31727  22.733  42.777  14.783
63365W        W31728  27.992  16.661  12.082
63366W        W31729  14.690  35.894  12.834
63367W        W31730   5.834   5.396  11.895
63368W        W31731  20.206  38.887   4.806
63369W        W31732  37.883   9.762  10.450
63370W        W31733  27.621  35.595   4.831
63371W        W31734  42.857  34.505  11.892
63372W        W31735  12.219  40.513  14.912
63373W        W31736  29.629  29.600   4.288
63374W        W31737  20.587  42.436   2.241
63375W        W31738  17.574   8.816  10.590
63376W        W31739  19.715  10.177   3.298
63377W        W31740   0.328   8.893  13.415
63378W        W31741  32.565  30.932   2.898
63379W        W31742  15.200  40.394   2.415
63380W        W31743  22.231  16.240   4.260
63381W        W31744  42.395   4.331   2.324
63382W        W31745  18.059  42.018  14.007
63383W        W31746  26.611  35.480  12.866
63384W        W31747  17.228  36.476  12.900
63385W        W31748  42.501   6.284  14.277
63386W        W31749  18.218  39.061  10.973
63387W        W31750  26.508  33.045  10.630
63388W        W31751  14.232   1.922   0.804
63389W        W31752  38.876  35.084  10.889
63390W        W31753  35.925  14.729  14.504
63391W        W31754  40.948  35.399  13.389
63392W        W31755  20.689  38.892   0.817
63393W        W31756  36.937   9.149   3.248
63394W        W31757  19.616  16.639  11.548
63395W        W31758  21.537  30.120  13.980
63396W        W31759  13.773  39.942   3.301
63397W        W31760  40.950   8.357  10.442
63398W        W31761  13.205  36.969  11.098
63399W        W31762   0.796  14.707  12.928
63400W        W31763  25.639   7.265  14.802
63401W        W31764  18.580   6.785  10.630
63402W        W31765  19.220  29.995   3.861
63403W        W31766  34.602  36.360  14.471
63404W        W31767   7.901  24.978   4.288
63405W        W31768   8.400  18.185   4.222
63406W        W31769  43.466   3.452   2.181
63407W        W31770  40.912   5.745   3.669
63408W        W31771  16.625   9.651   4.815
63409W        W31772  15.788  34.120  13.340
63410W        W31773  43.922  41.043  10.536
63411W        W31774  35.006  24.511   3.811
63412W        W31775  35.012  35.032   1.929
63413W        W31776  21.095  28.938   2.688
63414W        W31777  24.643  23.188   0.738
63415W        W31778  15.302  19.104   1.879
63416W        W31779  34.372   7.200  12.088
63417W        W31780  14.630  10.180  12.984
63418W        W31781  22.169  33.031  10.957
63419W        W31782  34.884  20.701   0.342
63420W        W31783  34.580   1.779   2.789
63421W        W31784  44.911  12.667   1.393
63422W        W31785  29.588   4.210   2.195
63423W        W31786  20.619  14.678   4.325
63424W        W31787  16.680   8.257   2.793
63425W        W31788  15.150   5.856   9.970
63426W        W31789  26.669  31.471   3.244
63427W        W31790   2.876  36.013   0.290
63428W        W31791  38.968  14.189   4.754
63429W        W31792  42.793   0.765  14.329
63430W        W31793   4.779  32.634   3.246
63431W        W31794  39.895   2.372  13.063
63432W        W31795  22.067  30.021   4.283
63433W        W31796  10.878   9.796   4.616
63434W        W31797   1.862  11.149  12.889
63435W        W31798  40.917  12.167   3.335
63436W        W31799   3.788   5.211   3.692
63437W        W31800  41.866  19.648   4.601
63438W        W31801  23.630  38.996  11.541
63439W        W31802  27.469   5.248  10.534
63440W        W31803   8.238  17.218  11.516
63441W        W31804  19.188  38.401   3.664
63442W        W31805  13.296  41.942   0.396
63443W        W31806  17.582   9.826  11.107
63444W        W31807   0.956  19.159  12.064
63445W        W31808  31.030   9.859   1.856
63446W        W31809  13.671  18.051   5.280
63447W        W31810  28.625  20.130  13.832
63448W        W31811  23.078  34.999  14.444
63449W        W31812  44.292  33.101   0.882
63450W        W31813  24.984   3.264  14.859
63451W        W31814   1.307  17.623   1.713
63452W        W31815  13.201  23.176   4.809
63453W        W31816  25.485   3.441  13.469
63454W        W31817  32.413  30.103  12.506
63455W        W31818   9.173  14.660  11.581
63456W        W31819  27.594  24.573   3.156
63457W        W31820  26.081  24.180   4.762
63458W        W31821  36.530   7.188  13.962
63459W        W31822  28.455  12.175   4.130
63460W        W31823   1.340  38.503   2.251
63461W        W31824  43.790  33.098  13.055
63462W        W31825   1.332  44.937  10.548
63463W        W31826  41.457   5.280   2.722
63464W        W31827  39.961  13.699   3.291
63465W        W31828   1.269  28.136   4.686
63466W        W31829   7.352  21.021   0.951
63467W        W31830  11.295  29.043  12.981
63468W        W31831  32.542  11.843  13.961
63469W        W31832  32.437  29.586   4.768
63470W        W31833  34.894  18.220   3.186
63471W        W31834  25.563  17.763   4.683
63472W        W31835   3.387  11.848   1.230
63473W        W31836   8.256   7.300  10.640
63474W        W31837  20.151   7.291   4.317
63475W        W31838   6.227  30.510   1.930
63476W        W31839   0.463  12.226  13.444
63477W        W31840  44.911  18.057   2.757
63478W        W31841  38.495  13.123   5.586
63479W        W31842  36.079  39.397  10.493
63480W        W31843  34.479  23.056  14.783
63481W        W31844  37.858  21.538  12.503
63482W        W31845   4.822  40.460   1.767
63483W        W31846   5.347  35.075   2.409
63484W        W31847   3.783  19.043   3.849
63485W        W31848   8.691  42.924   2.790
63486W        W31849  44.326  25.206  11.952
63487W        W31850  30.020  24.994   4.716
63488W        W31851  41.800  24.667  11.999
63489W        W31852  15.187  29.969   3.357
63490W        W31853  24.994   9.262  12.424
63491W        W31854  42.875  14.188   2.309
63492W        W31855  18.702   8.668  11.933
63493W        W31856  11.775  23.216  14.900
63494W        W31857  44.438   3.302  11.902
63495W        W31858  10.276  15.157  14.329
63496W        W31859   6.388  22.679   2.310
63497W        W31860  11.246   6.318  12.949
63498W        W31861  41.459  28.658  11.123
63499W        W31862   8.263  20.123  12.540
63500W        W31863  22.025   4.275   4.704
63501W        W31864   6.262  35.955   0.806
63502W        W31865  41.791   1.438  14.926
63503W        W31866  34.539  22.512   4.630
63504W        W31867  25.182  24.029  14.501
63505W        W31868  19.090   7.740   0.281
63506W        W31869  14.611  14.664   2.875
63507W        W31870  26.701   5.899  11.031
63508W        W31871   3.245  21.187   1.344
63509W        W31872  12.227  33.426  13.916
63510W        W31873  39.466   3.315   1.835
63511W        W31874   1.879  11.717   1.391
63512W        W31875   3.449   7.244   3.773
63513W        W31876  20.084   3.901   2.822
63514W        W31877  41.963  17.736   4.160
63515W        W31878  36.385  24.599   0.891
63516W        W31879  26.155  18.287  10.640
63517W        W31880   6.873  17.068   2.215
63518W        W31881   1.757  23.612  11.126
63519W        W31882  11.640  18.702   4.766
63520W        W31883   3.365  20.585  14.339
63521W        W31884  13.630  32.016   4.737
63522W        W31885  35.487  23.241  12.062
63523W        W31886  28.094   2.955  13.471
63524W        W31887   7.850  34.614   0.780
63525W        W31888   0.813  16.780  14.497
63526W        W31889  32.552  39.978   1.407
63527W        W31890  36.356  17.079  13.938
63528W        W31891  17.139   2.279  10.035
63529W        W31892   5.825   3.837   1.224
63530W        W31893  42.493  19.691  13.883
63531W        W31894  30.941  12.624   0.911
63532W        W31895   1.266  21.584  11.393
63533W        W31896  16.736   1.446   4.331
63534W        W31897   0.827  13.156  12.032
63535W        W31898  41.969  15.263   2.194
63536W        W31899  23.502  35.042   2.670
63537W        W31900  25.702   2.362  12.426
63538W        W31901  20.077  37.487   5.098
63539W        W31902   2.930  15.269   2.884
63540W        W31903  14.806   9.808   2.323
63541W        W31904  36.934  39.947  12.370
63542W        W31905  16.781  42.405   1.231
63543W        W31906  12.306  21.078   1.900
63544W        W31907  42.379  10.381   0.359
63545W        W31908   6.318   3.356  13.373
63546W        W31909  38.534  18.626  12.928
63547W        W31910  36.011  12.297  13.330
63548W        W31911   6.280  27.982  13.842
63549W        W31912  28.944  32.405  11.003
63550W        W31913  37.388  36.077  11.087
63551W        W31914  24.116  40.373   2.862
63552W        W31915  27.534  21.698  12.089
63553W        W31916   3.312  29.649  11.389
63554W        W31917  39.010  13.753   5.639
63555W        W31918   2.370  36.980  12.469
63556W        W31919  21.262   7.216   0.355
63557W        W31920  19.594  13.826   4.238
63558W        W31921  24.624   7.310  11.427
63559W        W31922  17.722  17.069  14.922
63560W        W31923  27.656  15.261   2.181
63561W        W31924  31.585  19.628  11.468
63562W        W31925  19.160  17.181   2.737
63563W        W31926  21.126  16.110  12.414
63564W        W31927   3.263  25.165   5.285
63565W        W31928  27.585  27.968  12.454
63566W        W31929   0.771   0.832   2.817
63567W        W31930  10.874  21.618  10.542
63568W        W31931   0.266  20.654  11.104
63569W        W31932  38.492  29.665   0.291
63570W        W31933  37.885   1.412   0.370
63571W        W31934  16.603  19.045  12.968
63572W        W31935  42.879   9.841  14.472
63573W        W31936  26.122  25.613  12.510
63574W        W31937  31.509  24.079  13.890
63575W        W31938  22.603  32.615   2.851
63576W        W31939  24.149  10.361   5.122
63577W        W31940   8.218   3.446  11.573
63578W        W31941   4.442   9.253  11.976
63579W        W31942  27.965  43.862   0.395
63580W        W31943  42.382  11.156   4.170
63581W        W31944  15.215  27.596   0.483
63582W        W31945  35.421  19.229  14.399
63583W        W31946  36.050  17.676  14.935
63584W        W31947  14.131  13.781   4.172
63585W        W31948  29.954  24.058  11.383
63586W        W31949  30.507   7.835   4.814
63587W        W31950  32.076  27.042   3.188
63588W        W31951  30.487   7.330  10.907
63589W        W31952  42.467  40.327   2.735
63590W        W31953  26.952  26.202  11.411
63591W        W31954  40.407  27.992  14.763
63592W        W31955  38.518  29.999   3.673
63593W        W31956  42.985  42.935  14.844
63594W        W31957   5.315  20.056   1.425
63595W        W31958   6.854  39.885   2.376
63596W        W31959  22.718  41.879  12.032
63597W        W31960  33.030   8.669  14.464
63598W        W31961  17.588  23.549   4.769
63599W        W31962  30.992   6.683  11.040
63600W        W31963  34.997  15.608  13.436
63601W        W31964   0.823  22.028   3.348
63602W        W31965  27.106  36.939   3.290
63603W        W31966  24.979  24.001   5.265
63604W        W31967   2.266  33.056  14.025
63605W        W31968  23.116  17.688   1.704
63606W        W31969  44.407  36.388   0.402
63607W        W31970  22.731  38.974   3.173
63608W        W31971  36.023  29.929  13.791
63609W        W31972   2.406   3.930   1.856
63610W        W31973  26.527  38.557  14.014
63611W        W31974  12.149  40.508   2.898
63612W        W31975  10.194  40.928  13.425
63613W        W31976  10.371  20.729  12.067
63614W        W31977  27.479  16.169  15.000
63615W        W31978  38.405  12.131  13.018
63616W        W31979  26.131  13.170   0.728
63617W        W31980  30.100   3.370  12.579
63618W        W31981  32.943   4.210  12.422
63619W        W31982  44.880   2.781   3.265
63620W        W31983  37.375   3.920  14.784
63621W        W31984  44.473  19.191   3.383
63622W        W31985   5.866  33.948  11.510
63623W        W31986  32.134  42.491  11.002
63624W        W31987  28.674  35.358  14.025
63625W        W31988   4.724  15.719   0.928
63626W        W31989  44.465   4.350  10.513
63627W        W31990  23.558  38.042  12.879
63628W        W31991  40.857  11.810  12.877
63629W        W31992  29.061  10.229   3.696
63630W        W31993  36.872  33.575   4.669
63631W        W31994  34.863   3.770   2.287
63632W        W31995  20.225  36.571   1.792
63633W        W31996  34.110   9.709   1.417
63634W        W31997  21.638   9.188  14.313
63635W        W31998  27.507  36.514   4.806
63636W        W31999   6.794  10.318  13.360
63637W        W32000  20.639  44.909   3.181
63638W        W32001  30.951  21.621  11.595
63639W        W32002   5.404  12.804   1.353
63640W        W32003   7.736  11.850   2.381
63641W        W32004  30.136  23.017   0.897
63642W        W32005   7.378  37.065  10.933
63643W        W32006   7.174  23.219  13.825
63644W        W32007  13.203  27.182   4.726
63645W        W32008  25.067  20.057   4.776
63646W        W32009  30.450  30.564   1.253
63647W        W32010  14.830  26.567  13.960
63648W        W32011  34.395  11.808  10.422
63649W        W32012   3.281  33.048   0.460
63650W        W32013   3.866   6.394  11.111
63651W        W32014   3.438  42.945  12.869
63652W        W32015  22.528  11.277   2.224
63653W        W32016  38.939  39.415  12.089
63654W        W32017  21.210  21.065   3.674
63655W        W32018  31.574   0.301   0.840
63656W        W32019  32.014  31.941   3.239
63657W        W32020  23.006   0.438   3.677
63658W        W32021  43.943  14.762   0.280
63659W        W32022   7.171   8.709   2.804
63660W        W32023  30.608  35.598  14.821
63661W        W32024   7.385  13.332   4.229
63662W        W32025   9.796  11.688  14.382
63663W        W32026  26.049  33.015   4.217
63664W        W32027   5.412  18.139  14.920
63665W        W32028  30.550  38.870  11.932
63666W        W32029  29.970  38.045  12.894
63667W        W32030  34.085   5.931  11.918
63668W        W32031   9.276  26.575   0.402
63669W        W32032  44.904  29.024  12.973
63670W        W32033  26.200   2.246   4.597
63671W        W32034  30.074  16.640  10.525
63672W        W32035  17.600   1.480   0.941
63673W        W32036  20.564   0.987  12.539
63674W        W32037  31.973  24.559   4.752
63675W        W32038  37.341  36.004  14.511
63676W        W32039  38.987   4.763   2.834
63677W        W32040  24.186  12.242  12.508
63678W        W32041  17.768  33.915   0.870
63679W        W32042  23.054  43.464   1.814
63680W        W32043  29.139  40.812   4.252
63681W        W32044  41.873  39.849   0.426
63682W        W32045  23.111  25.998  11.941
63683W        W32046  30.971   3.423   1.377
63684W        W32047  13.255  14.639  13.412
63685W        W32048  29.991  40.421  11.864
63686W        W32049  14.252  42.341   4.203
63687W        W32050  11.716  40.896   0.433
63688W        W32051  11.817  22.062   2.180
63689W        W32052   8.374   2.828  12.367
63690W        W32053   2.380  10.169  14.291
63691W        W32054  11.260   4.764  11.959
63692W        W32055  39.545  18.257  12.987
63693W        W32056  17.095  22.666  14.426
63694W        W32057  31.114  17.150  10.106
63695W        W32058   2.930  22.601   0.457
63696W        W32059   4.905  37.016   0.293
63697W        W32060  22.045   1.326  11.105
63698W        W32061  16.670  33.088   4.257
63699W        W32062  15.698   4.875   1.224
63700W        W32063   7.306  15.285  10.972
63701W        W32064   0.886  31.483  14.383
63702W        W32065  32.992  14.721  13.434
63703W        W32066  40.881  18.109   1.402
63704W        W32067   1.950   8.759   2.349
63705W        W32068   2.876   0.817   4.122
63706W        W32069  43.388  20.222   0.405
63707W        W32070  30.042  33.114   3.233
63708W        W32071  39.438  12.767   2.312
63709W        W32072  29.474   5.699  11.554
63710W        W32073  11.627   9.690  13.903
63711W        W32074  16.809  37.040   2.776
63712W        W32075  35.364  24.508  14.932
63713W        W32076  39.519  24.633  12.980
63714W        W32077  37.491  22.646   4.115
63715W        W32078   6.186   8.806  11.084
63716W        W32079  36.562  27.617   2.853
63717W        W32080   3.363  30.427   1.297
63718W        W32081  36.906   6.255  12.030
63719W        W32082  28.509  41.362   2.190
63720W        W32083  20.605  39.846   4.713
63721W        W32084  25.065  29.975   0.292
63722W        W32085  40.321  22.120   4.694
63723W        W32086  10.648  11.351   0.948
63724W        W32087  28.069  34.396  12.030
63725W        W32088  37.411  35.392   1.287
63726W        W32089  10.799   9.297  13.971
63727W        W32090  10.679  23.719   4.715
63728W        W32091  38.453  12.163  10.929
63729W        W32092   4.860  17.263   2.861
63730W        W32093  43.817   2.296  12.040
63731W        W32094  16.756  13.262   4.299
63732W        W32095  23.994   8.666   2.742
63733W        W32096  42.932  39.375  11.417
63734W        W32097  24.549  38.925   2.364
63735W        W32098  11.720   6.345  13.324
63736W        W32099  43.892  20.270  14.769
63737W        W32100  14.229  35.482  12.484
63738W        W32101  38.909  30.999  10.446
63739W        W32102   0.359   4.438   3.337
63740W        W32103  40.975  42.453  12.905
63741W        W32104   3.736  23.697  11.931
63742W        W32105  26.181  35.972   4.821
63743W        W32106  14.298  44.386   0.431
63744W        W32107  27.553  18.095  11.050
63745W        W32108  16.186  26.647  10.602
63746W        W32109  22.715   4.256   4.275
63747W        W32110  25.652   6.353  13.347
63748W        W32111  25.481   7.769   3.212
63749W        W32112  21.112  42.020  12.495
63750W        W32113  31.622  20.745  14.970
63751W        W32114   9.885  18.139   2.848
63752W        W32115   8.880  13.261  13.827
63753W        W32116  41.352  10.775   0.876
63754W        W32117   5.340  32.021  13.390
63755W        W32118  25.130  28.022  10.466
63756W        W32119  11.360  13.351   1.304
63757W        W32120  24.052   4.427  12.088
63758W        W32121  16.199  18.709   3.685
63759W        W32122  26.970  33.387  12.855
63760W        W32123   7.754  39.364  12.077
63761W        W32124   2.888  25.082  12.848
63762W        W32125   9.169  15.274   3.683
63763W        W32126  28.578  38.422   2.844
63764W        W32127   5.824  35.536  10.543
63765W        W32128   9.764  39.508   0.271
63766W        W32129  14.151   1.742   2.696
63767W        W32130   8.291  33.608  14.912
63768W        W32131  17.656  44.763   9.921
63769W        W32132  38.570  37.000   0.384
63770W        W32133  36.393   9.224   3.783
63771W        W32134  27.677   9.358   0.451
63772W        W32135  27.593   5.762   3.150
63773W        W32136   8.707  44.366  14.942
63774W        W32137  28.457  36.093   4.246
63775W        W32138  38.361  42.417   4.234
63776W        W32139  20.238  18.061  13.899
63777W        W32140  28.577  42.953  12.480
63778W        W32141  36.974  41.872   4.299
63779W        W32142   5.888   9.765   1.421
63780W        W32143  19.078  38.076   4.660
63781W        W32144  26.616   0.832   3.264
63782W        W32145  31.503  31.956  12.565
63783W        W32146  11.208  31.602   2.692
63784W        W32147  42.361   4.906   2.714
63785W        W32148   0.348   3.943   2.798
63786W        W32149  17.680  36.070   0.832
63787W        W32150  29.551  21.234   5.090
63788W        W32151   4.233  15.615  12.037
63789W        W32152  40.382   5.216   4.190
63790W        W32153  42.527  13.132  14.283
63791W        W32154  43.287  16.265  12.976
63792W        W32155  40.381  15.707  10.416
63793W        W32156  15.793  36.420  14.762
63794W        W32157   7.724  32.409  13.505
63795W        W32158  39.965  41.031  14.425
63796W        W32159   9.159  31.084   2.827
63797W        W32160  33.534  28.185  14.941
63798W        W32161  40.486  36.966   4.347
63799W        W32162  44.822  30.056  12.058
63800W        W32163   4.230  11.313  11.941
63801W        W32164  40.476   0.880   0.380
63802W        W32165   0.260   1.317  11.893
63803W        W32166   6.713  29.570  12.467
63804W        W32167  33.578  27.195  13.004
63805W        W32168   4.819  26.566   3.157
63806W        W32169  20.534  28.499  11.592
63807W        W32170  17.262   2.440   3.850
63808W        W32171  23.683  13.832  14.871
63809W        W32172  21.233  18.121   2.209
63810W        W32173  20.048  42.485   0.301
63811W        W32174  43.276   9.305   4.700
63812W        W32175  43.510   6.865  12.896
63813W        W32176  28.123   8.296   3.258
63814W        W32177  27.971  26.025  11.543
63815W        W32178  36.409  26.106  10.468
63816W        W32179  43.893  37.383  11.964
63817W        W32180  16.632  20.030   0.308
63818W        W32181  10.261  26.598  12.390
63819W        W32182  25.621  12.250  10.415
63820W        W32183  43.772  34.088  14.896
63821W        W32184  23.645  28.163   3.757
63822W        W32185  14.662  17.653   0.428
63823W        W32186   1.378  39.423   1.378
63824W        W32187   2.444   8.818   1.255
63825W        W32188  33.908  30.038   4.740
63826W        W32189  14.791   2.294  13.840
63827W        W32190  34.053  26.171   3.357
63828W        W32191  14.200  28.445  11.564
63829W        W32192  13.175   8.804   5.144
63830W        W32193  11.662  19.157   2.792
63831W        W32194   4.790  37.050  11.563
63832W        W32195  41.525  26.701  11.942
63833W        W32196  20.150  42.319  14.451
63834W        W32197  40.823  33.917  11.857
63835W        W32198  37.406  13.210   2.672
63836W        W32199  25.994   6.752  12.910
63837W        W32200   8.249  35.458  13.316
63838W        W32201   9.233  20.230  13.344
63839W        W32202  44.881  33.401  12.509
63840W        W32203  42.906  40.858  10.483
63841W        W32204  19.257  43.901   2.392
63842W        W32205   7.321  22.745   4.292
63843W        W32206  20.187  21.700   0.963
63844W        W32207  18.171   6.377   2.358
63845W        W32208  27.050  38.452   0.929
63846W        W32209  25.968   3.316   3.377
63847W        W32210  10.785  41.907  14.938
63848W        W32211   4.418   5.713  10.940
63849W        W32212  40.798  22.083  12.054
63850W        W32213  14.679  31.584  13.891
63851W        W32214   8.320  20.660  11.920
63852W        W32215  12.721  15.817  14.374
63853W        W32216   2.466  36.568  10.424
63854W        W32217  23.554   9.688  13.397
63855W        W32218  24.532  19.070   3.667
63856W        W32219  19.273  27.630   2.416
63857W        W32220  11.142   1.875   0.848
63858W        W32221  40.361  26.997  13.544
63859W        W32222   7.384   5.255   1.266
63860W        W32223   4.739  27.944   3.171
63861W        W32224   4.736  14.726   1.403
63862W        W32225  26.962  34.578   1.333
63863W        W32226  29.452  36.847  14.952
63864W        W32227  37.388   2.287   1.309
63865W        W32228  15.791  26.012  13.966
63866W        W32229  30.982  12.713   5.185
63867W        W32230  35.377   1.369  12.499
63868W        W32231  13.268  37.505  14.416
63869W        W32232  22.704  14.321  11.538
63870W        W32233  29.513  32.488   1.407
63871W        W32234  41.474  10.775  12.841
63872W        W32235  15.748  38.980  12.051
63873W        W32236  32.575  41.832  11.541
63874W        W32237   5.261  35.443   3.810
63875W        W32238   4.383  21.067   5.179
63876W        W32239  32.924  12.298  14.404
63877W        W32240   3.872  29.934   4.705
63878W        W32241  19.202  41.960  11.119
63879W        W32242   0.873  28.466   3.631
63880W        W32243   8.745  36.568  14.285
63881W        W32244  39.549   5.230   1.219
63882W        W32245  34.960  11.364   2.366
63883W        W32246   8.679   0.832  14.907
63884W        W32247  28.593  11.224  11.055
63885W        W32248  41.434   3.442   3.285
63886W        W32249  35.864  12.622   9.951
63887W        W32250  26.541   5.200  11.591
63888W        W32251  30.501   9.863  13.859
63889W        W32252  34.013  12.715   5.114
63890W        W32253   6.294  23.615  14.953
63891W        W32254  27.685  26.573   3.214
63892W        W32255   2.392  15.222   4.299
63893W        W32256  40.962  18.209  13.992
63894W        W32257  18.571  38.973  14.420
63895W        W32258  17.566  17.078   3.834
63896W        W32259  14.644  34.534  11.957
63897W        W32260  40.452   5.361   2.690
63898W        W32261   2.767   5.922  12.055
63899W        W32262   1.257  13.773  13.319
63900W        W32263  35.085  18.621  13.542
63901W        W32264   6.299  38.494  10.962
63902W        W32265   9.234   6.278  14.276
63903W        W32266  14.303  39.344  14.881
63904W        W32267   3.725   3.298  10.568
63905W        W32268  18.149   9.359   1.763
63906W        W32269  36.550  17.599  13.403
63907W        W32270  14.673  33.979  14.468
63908W        W32271  27.959   1.249  14.931
63909W        W32272  19.643   9.150  12.872
63910W        W32273  37.570  16.733   2.820
63911W        W32274  42.990  21.605  14.279
63912W        W32275  21.714  29.044   1.767
63913W        W32276  27.161  28.092  12.533
63914W        W32277  34.574   5.194   1.224
63915W        W32278  35.472  28.047  14.853
63916W        W32279  39.548  36.890   4.287
63917W        W32280  11.361  22.608   4.763
63918W        W32281  26.630  23.203   2.708
63919W        W32282  28.977   7.222   3.254
63920W        W32283   7.305  36.844   0.425
63921W        W32284  12.158  33.603  12.927
63922W        W32285   2.351  31.551   0.282
63923W        W32286  13.343  21.631  11.922
63924W        W32287  29.484  17.193   1.838
63925W        W32288   8.900  12.842   3.224
63926W        W32289  16.699   9.314  11.904
63927W        W32290  35.883  38.831   4.636
63928W        W32291  18.086  36.098   4.656
63929W        W32292  14.653  20.609   4.260
63930W        W32293   1.867  35.023  14.413
63931W        W32294   1.764   9.189  10.632
63932W        W32295  20.052   1.302   3.354
63933W        W32296   5.752  43.796  11.452
63934W        W32297  39.863  20.095   1.709
63935W        W32298  24.130  20.571   1.357
63936W        W32299  22.079  35.997  11.954
63937W        W32300  44.430   0.782   0.467
63938W        W32301  42.922  24.039  13.963
63939W        W32302  29.605   0.425  14.369
63940W        W32303  33.456   1.366  10.062
63941W        W32304  19.225   9.759   4.183
63942W        W32305  36.495  18.742  11.951
63943W        W32306  40.955  40.971  14.849
63944W        W32307  17.683  27.090   0.959
63945W        W32308  32.043  23.057   2.415
63946W        W32309  40.006  37.466   3.277
63947W        W32310  17.288  16.677  14.492
63948W        W32311  14.830  41.411  11.916
63949W        W32312   0.477   9.356  10.483
63950W        W32313   8.360   8.690   3.384
63951W        W32314  11.245  39.425  11.876
63952W        W32315  29.111  25.108  14.473
63953W        W32316  33.515  13.127   1.838
63954W        W32317   9.868  18.763  11.855
63955W        W32318   7.885  31.039   4.823
63956W        W32319  19.093  16.575   4.133
63957W        W32320   6.773  39.418   1.795
63958W        W32321  25.127   7.684   3.711
63959W        W32322  34.968  15.197   0.809
63960W        W32323  35.524  39.422  10.478
63961W        W32324  26.133  34.982  11.456
63962W        W32325  38.030  44.811   2.836
63963W        W32326  36.550  30.012  13.459
63964W        W32327  24.604  29.614   1.882
63965W        W32328  33.876  44.945   4.337
63966W        W32329   9.700  33.091  13.893
63967W        W32330   4.397  39.982   1.266
63968W        W32331   7.790  27.629   0.309
63969W        W32332  33.531  10.843   4.254
63970W        W32333  25.067   6.885  13.916
63971W        W32334   5.899  30.143   1.892
63972W        W32335  30.584  27.591  13.025
63973W        W32336  40.990  39.877  10.942
63974W        W32337  27.071   5.688  13.974
63975W        W32338  23.053  23.607   1.784
63976W        W32339  22.708  35.920  10.478
63977W        W32340  39.452  24.082   1.350
63978W        W32341   6.238  41.416   4.737
63979W        W32342  37.907  28.143  12.882
63980W        W32343  14.164  15.263   0.928
63981W        W32344  11.144  29.425   3.688
63982W        W32345  22.059  16.590   3.210
63983W        W32346   0.806  37.456   3.789
63984W        W32347   5.840  37.456  13.846
63985W        W32348  24.617  31.587   2.800
63986W        W32349  33.988  11.189  11.540
63987W        W32350  26.206  32.562  11.440
63988W        W32351  24.220  41.796   4.333
63989W        W32352   6.886  30.000  14.918
63990W        W32353  11.274  10.154  11.001
63991W        W32354  40.799  39.952   2.251
63992W        W32355   8.306  11.279  12.956
63993W        W32356  18.757   3.781   4.279
63994W        W32357   6.754  27.460  12.458
63995W        W32358   3.914   7.751   2.378
63996W        W32359  19.195  36.576  12.414
63997W        W32360   0.832  10.206  10.892
63998W        W32361   9.381  38.508  13.812
63999W        W32362   7.374  24.544  14.328
64000W        W32363   6.353  35.460   3.733
64001W        W32364  36.996   7.832   0.735
64002W        W32365  28.498   5.800  14.347
64003W        W32366  20.117   7.836  13.060
64004W        W32367  21.540   2.885  12.995
64005W        W32368  20.072  11.245  12.911
64006W        W32369  23.037  20.584  10.999
64007W        W32370  19.085  14.695   4.811
64008W        W32371   3.796  10.788  14.949
64009W        W32372  13.706   4.747   0.763
64010W        W32373  11.845  23.193   2.217
64011W        W32374  35.373   3.862   1.866
64012W        W32375  13.195  32.968  11.907
64013W        W32376   2.319   5.312   1.768
64014W        W32377  18.750  22.092   1.759
64015W        W32378  20.110   1.762   4.161
64016W        W32379  38.828   0.760  13.315
64017W        W32380  13.771   9.686  12.094
64018W        W32381   7.791   3.868   1.439
64019W        W32382  14.202  30.655   0.434
64020W        W32383   5.789   4.767  13.332
64021W        W32384   4.436   0.252   1.726
64022W        W32385  30.414  27.585  12.040
64023W        W32386  29.667   6.357   9.972
64024W        W32387  15.138  37.924   0.774
64025W        W32388  40.875  23.187   0.902
64026W        W32389  34.560  14.256  11.476
64027W        W32390  27.030  35.049   9.920
64028W        W32391  41.879  12.210  11.380
64029W        W32392  32.065  13.673  12.501
64030W        W32393  44.407  14.127  11.385
64031W        W32394   1.905  42.390  14.797
64032W        W32395  19.595  21.595  10.592
64033W        W32396  10.354  33.974   3.220
64034W        W32397   0.800  25.487  14.028
64035W        W32398  30.464   0.262  14.830
64036W        W32399   8.783  33.914  14.830
64037W        W32400  15.328  34.507   4.632
64038W        W32401  38.054  42.501  11.911
64039W        W32402  14.627  33.478  12.915
64040W        W32403   0.351  26.597  12.985
64041W        W32404  11.639  30.942  11.562
64042W        W32405  36.904   3.814  12.444
64043W        W32406   6.678  43.790  12.954
64044W        W32407  24.223  22.667  11.552
64045W        W32408  24.028  21.629  12.357
64046W        W32409  32.584  27.692  14.356
64047W        W32410  25.642  26.519  13.398
64048W        W32411  13.115  18.112  11.033
64049W        W32412  33.559  13.197   3.845
64050W        W32413  34.050  34.107  10.936
64051W        W32414  36.461  41.015  11.038
64052W        W32415  20.052  14.691  11.563
64053W        W32416  32.520  10.231  13.972
64054W        W32417  13.783   4.769   1.339
64055W        W32418  10.727  31.935  13.318
64056W        W32419  27.198  31.560   4.748
64057W        W32420  17.726  15.763  13.957
64058W        W32421  11.699  14.140  14.297
64059W        W32422  17.773  17.586  14.343
64060W        W32423  26.551  29.157   0.788
64061W        W32424  44.498   4.265   4.186
64062W        W32425   5.690  25.579  12.852
64063W        W32426  21.054  27.151  13.347
64064W        W32427  10.211   3.406  12.079
64065W        W32428  14.308  25.034   1.381
64066W        W32429  11.273  13.293  11.962
64067W        W32430  32.467  18.145  14.403
64068W        W32431  34.536  23.504   0.476
64069W        W32432  31.017  27.672  10.553
64070W        W32433  42.788  38.355  10.141
64071W        W32434  27.943  35.429   4.130
64072W        W32435  43.921  28.516  11.993
64073W        W32436  11.155   9.372   4.797
64074W        W32437   5.274  44.281   9.526
64075W        W32438  29.021   8.274  13.002
64076W        W32439   6.405  37.556  10.427
64077W        W32440   3.309   1.254   3.357
64078W        W32441  33.898  34.610  13.454
64079W        W32442  27.006  25.667   2.219
64080W        W32443  21.571   5.909  14.841
64081W        W32444   6.892  13.728  12.911
64082W        W32445  22.072  41.863   4.628
64083W        W32446  38.921  34.551  13.462
64084W        W32447  15.103  21.061  13.835
64085W        W32448   8.873  13.253   0.783
64086W        W32449  22.655  39.387   0.468
64087W        W32450  28.511   8.168   4.769
64088W        W32451   4.832  12.628  13.409
64089W        W32452  28.671  23.092   3.174
64090W        W32453  23.728  35.529   4.668
64091W        W32454  24.077   0.296   0.455
64092W        W32455   5.775  26.117  14.958
64093W        W32456  19.603  37.061   3.169
64094W        W32457  43.470  43.992  14.316
64095W        W32458  13.782   7.721  10.450
64096W        W32459   3.249  16.126  12.503
64097W        W32460   9.689   5.830  10.523
64098W        W32461  32.586  42.457   4.317
64099W        W32462  12.659   6.693  13.405
64100W        W32463  15.327  18.739  10.579
64101W        W32464  23.210  19.177   3.750
64102W        W32465   8.273  32.962  14.389
64103W        W32466   2.823   4.761  11.870
64104W        W32467  27.993  35.109   3.639
64105W        W32468  25.611  30.599  14.976
64106W        W32469  13.670  13.348   3.298
64107W        W32470  38.004  43.423  10.516
64108W        W32471  30.460   6.253  11.426
64109W        W32472  10.221  38.863   4.764
64110W        W32473  18.563  12.124   4.266
64111W        W32474  35.578  15.239   4.231
64112W        W32475   9.765  33.610  12.864
64113W        W32476  34.878  34.560  14.501
64114W        W32477  18.631  16.715  14.930
64115W        W32478  32.930  30.021   3.255
64116W        W32479  16.787  43.945   5.164
64117W        W32480  22.654  26.677  13.467
64118W        W32481  14.257  15.172   4.278
64119W        W32482  44.910  35.077  12.457
64120W        W32483  26.464  10.209   5.187
64121W        W32484  39.066  40.380  13.046
64122W        W32485  36.384  25.979  14.870
64123W        W32486  20.681  44.974  11.017
64124W        W32487  16.225  37.041   0.823
64125W        W32488  24.048  26.106   2.880
64126W        W32489  20.760  19.150   1.737
64127W        W32490  19.564  40.896   4.288
64128W        W32491  12.338  32.444  12.883
64129W        W32492   1.246  24.519   1.741
64130W        W32493  23.595  27.084  12.075
64131W        W32494   1.379  17.189   3.660
64132W        W32495  18.664  42.978   2.869
64133W        W32496  32.932  42.854   4.715
64134W        W32497   1.285  40.962  10.534
64135W        W32498  18.109  18.051   4.248
64136W        W32499   9.198  30.105   1.311
64137W        W32500  44.435   0.925   3.691
64138W        W32501  10.348  31.153   1.776
64139W        W32502  25.697   3.906   4.648
64140W        W32503  16.253  32.054   4.329
64141W        W32504  35.508  20.541  14.015
64142W        W32505  12.680  26.562  11.545
64143W        W32506  29.435  41.902   4.118
64144W        W32507  38.352  17.606  11.083
64145W        W32508  22.510  17.241   9.960
64146W        W32509  39.999  19.144   1.252
64147W        W32510  19.685  36.095  12.841
64148W        W32511  18.157  16.291  12.907
64149W        W32512   4.338  26.034   0.966
64150W        W32513  31.458  43.464  10.570
64151W        W32514   2.936  29.666   2.199
64152W        W32515  21.687  18.167  10.409
64153W        W32516   0.276  34.585   1.710
64154W        W32517  42.408   3.745   4.616
64155W        W32518  24.489  31.061   3.762
64156W        W32519  33.458   5.197   4.139
64157W        W32520  16.701  27.678  12.896
64158W        W32521  38.377   9.231   4.216
64159W        W32522  22.129  17.731   0.939
64160W        W32523  20.692  17.153   4.282
64161W        W32524  17.795  29.473  12.029
64162W        W32525  36.844  40.952  13.048
64163W        W32526  18.580   4.866  12.411
64164W        W32527  43.920  35.597   0.357
64165W        W32528  30.576  28.122   2.714
64166W        W32529  33.498  33.052   1.228
64167W        W32530  32.414  22.646   0.255
64168W        W32531  34.611  21.703   3.809
64169W        W32532  17.142   6.251   3.345
64170W        W32533   5.212   5.754   4.155
64171W        W32534   9.270  19.570   3.673
64172W        W32535  13.617   1.770  11.077
64173W        W32536  38.556  23.506  12.829
64174W        W32537  29.031  13.196  12.915
64175W        W32538  26.087  30.589  12.514
64176W        W32539  10.644  41.442   1.307
64177W        W32540  25.042  29.933   4.786
64178W        W32541  23.047  43.316   4.293
64179W        W32542   6.244   0.264   1.439
64180W        W32543  16.267  39.025   1.355
64181W        W32544   0.812  20.737   2.202
64182W        W32545  28.645  21.571   4.330
64183W        W32546  14.301  15.786   0.934
64184W        W32547  30.149  35.470   2.220
64185W        W32548  37.012  41.878  12.904
64186W        W32549  42.860   3.277   4.799
64187W        W32550  36.489  17.099  14.801
64188W        W32551  13.831   6.881   0.787
64189W        W32552  40.313  24.976   2.235
64190W        W32553  24.999  21.613  14.961
64191W        W32554  18.125   2.442   2.211
64192W        W32555  36.357  30.136  11.992
64193W        W32556  15.310  43.362   4.288
64194W        W32557  37.892  13.151   3.722
64195W        W32558  44.415  10.789  14.392
64196W        W32559  10.751  21.104   1.696
64197W        W32560  39.015   4.709   3.823
64198W        W32561  23.705  33.413   1.324
64199W        W32562  19.713   7.758  10.414
64200W        W32563  27.549  39.921   4.829
64201W        W32564  18.058  19.734  13.534
64202W        W32565  41.858  17.124  12.918
64203W        W32566  26.022  39.553  14.491
64204W        W32567  16.635  11.371   3.799
64205W        W32568  10.325  43.770   0.858
64206W        W32569  22.721  37.921  13.809
64207W        W32570  30.467   7.182  12.917
64208W        W32571  41.344  27.977  13.877
64209W        W32572   7.843  11.229  10.917
64210W        W32573  40.485  12.719   1.737
64211W        W32574   0.772  42.976  14.383
64212W        W32575  23.552  18.114   4.727
64213W        W32576  26.616  24.076  13.048
64214W        W32577  31.003   0.308   4.701
64215W        W32578  14.652  10.664  10.473
64216W        W32579  20.167   8.164   3.807
64217W        W32580  15.755   4.361  13.445
64218W        W32581  26.034  11.836  11.520
64219W        W32582  13.121   7.769   0.416
64220W        W32583  24.615  18.561   1.277
64221W        W32584  31.113  10.860  11.956
64222W        W32585  26.512  13.621  11.034
64223W        W32586  28.477  33.878  13.505
64224W        W32587   3.284   5.338  10.546
64225W        W32588  12.354  22.137   0.961
64226W        W32589   8.674  31.997  12.562
64227W        W32590  43.339   5.785   3.703
64228W        W32591  40.884  32.980   3.832
64229W        W32592  36.415  11.292   4.735
64230W        W32593  28.525  33.523  13.861
64231W        W32594  43.464  43.018  12.863
64232W        W32595  22.626  28.486   2.826
64233W        W32596   8.693  40.446  14.423
64234W        W32597   5.414   7.888   4.832
64235W        W32598  35.069  12.360  10.547
64236W        W32599  33.431  44.753   0.413
64237W        W32600  37.581   6.722  11.078
64238W        W32601  12.218  16.167   3.742
64239W        W32602  11.141  38.869  13.510
64240W        W32603   6.385  23.053  12.344
64241W        W32604  23.143  25.195  14.323
64242W        W32605  26.502  17.299   3.813
64243W        W32606  13.721  44.394  14.977
64244W        W32607   1.807   5.195   4.128
64245W        W32608  12.256  11.324   0.345
64246W        W32609   3.292  42.910  11.574
64247W        W32610  44.842  25.001  12.881
64248W        W32611  25.212  39.976   3.836
64249W        W32612  22.633  43.381   1.409
64250W        W32613  44.789  14.208   4.321
64251W        W32614  35.087  42.463   3.361
64252W        W32615  14.139  39.969  11.930
64253W        W32616   6.250   8.209   0.946
64254W        W32617  44.837  31.620   2.319
64255W        W32618  34.444  30.617   0.836
64256W        W32619  27.139  18.280   0.967
64257W        W32620   0.454   7.853  10.915
64258W        W32621  44.975  18.268   1.292
64259W        W32622  10.364  30.057   4.600
64260W        W32623  39.833  18.271  11.405
64261W        W32624   0.318  31.138  11.877
64262W        W32625  13.112  31.440  14.813
64263W        W32626   9.678   6.876   1.775
64264W        W32627  18.133  36.474   0.925
64265W        W32628  22.663   3.390   2.690
64266W        W32629  23.048  40.452   3.749
64267W        W32630  36.011  17.137  11.071
64268W        W32631   6.369   5.931   3.193
64269W        W32632   3.235  28.623  13.939
64270W        W32633   9.199  11.138   3.783
64271W        W32634  25.032  44.475  13.853
64272W        W32635  13.253  26.517   4.147
64273W        W32636  22.739  13.843   2.787
64274W        W32637  29.568  42.354  14.358
64275W        W32638  40.315  19.078  14.944
64276W        W32639  40.331   1.355   2.260
64277W        W32640   9.818  34.920  10.504
64278W        W32641  20.234  41.838  12.074
64279W        W32642  30.994  14.304  10.581
64280W        W32643  21.635  16.196  12.450
64281W        W32644  38.382  10.659  10.923
64282W        W32645   0.817  16.241  11.499
64283W        W32646  28.613  38.459   4.713
64284W        W32647   8.785  18.179  10.991
64285W        W32648  19.238  27.614  13.901
64286W        W32649  34.995  23.697  13.006
64287W        W32650  28.157  11.357   1.269
64288W        W32651   3.404   0.960   5.789
64289W        W32652   5.311  35.524  11.082
64290W        W32653  19.590  12.628  14.286
64291W        W32654  12.184  23.110   1.707
64292W        W32655  42.488   7.806   3.212
64293W        W32656   2.945   4.253  13.938
64294W        W32657  21.140  34.495   3.741
64295W        W32658   6.228  38.366   2.859
64296W        W32659   8.687  37.941   5.211
64297W        W32660   4.797  22.161   0.795
64298W        W32661   7.866   7.759   0.909
64299W        W32662  29.594  17.162  12.570
64300W        W32663   7.289  19.695   3.314
64301W        W32664  26.988  14.649   0.928
64302W        W32665  43.788   7.345  14.031
64303W        W32666  25.610  17.635  12.444
64304W        W32667  32.463  43.895  14.405
64305W        W32668  14.324  20.075  14.837
64306W        W32669  12.161  15.108  11.065
64307W        W32670  16.315  30.025  12.373
64308W        W32671  32.067  21.140  14.808
64309W        W32672  34.899  19.635   4.652
64310W        W32673  21.729  16.637  14.895
64311W        W32674  25.533  16.588   1.304
64312W        W32675  34.058  32.400  10.943
64313W        W32676  14.257  15.804  12.522
64314W        W32677  19.679   6.752  14.436
64315W        W32678  13.778  41.445  13.882
64316W        W32679  30.642  12.827   3.206
64317W        W32680  15.289   4.784  14.511
64318W        W32681  17.766  22.117  10.501
64319W        W32682  21.648  39.989   2.395
64320W        W32683   1.358  44.289   3.869
64321W        W32684   2.435   5.852   2.885
64322W        W32685  18.196  17.613   3.184
64323W        W32686  37.365  20.692   3.843
64324W        W32687  19.161  27.675  13.027
64325W        W32688  27.168   6.344  13.446
64326W        W32689   5.252   4.330   1.224
64327W        W32690  33.434  17.289  13.840
64328W        W32691  31.036  31.040   4.712
64329W        W32692   2.852  44.415  12.021
64330W        W32693  17.174  42.492   1.814
64331W        W32694  44.852  36.908   4.686
64332W        W32695  26.587  20.763   2.757
64333W        W32696  33.527  24.688   4.249
64334W        W32697  39.886  27.153   4.227
64335W        W32698  31.495  20.264  10.423
64336W        W32699  22.120  24.636  10.450
64337W        W32700  35.090  18.143   2.689
64338W        W32701  11.266  12.183  11.081
64339W        W32702  33.901   0.407   5.203
64340W        W32703   7.674  41.970  11.522
64341W        W32704  10.323   5.214   1.382
64342W        W32705  26.146   6.364  13.410
64343W        W32706   5.905  12.166  11.515
64344W        W32707  41.438  44.422   4.345
64345W        W32708  10.769  32.961   2.235
64346W        W32709  41.847  27.133   1.313
64347W        W32710  23.588  22.128   0.903
64348W        W32711  14.132  20.117  11.516
64349W        W32712  41.933  44.937   3.646
64350W        W32713   9.322  40.423   4.227
64351W        W32714   1.349  37.524  11.873
64352W        W32715  33.008  38.496   4.751
64353W        W32716   4.920  28.564  11.023
64354W        W32717   4.717   1.961  14.509
64355W        W32718  26.683  10.798  13.481
64356W        W32719  21.647  11.648  13.988
64357W        W32720  19.773  44.360  12.484
64358W        W32721  39.526  11.834   3.164
64359W        W32722  17.261  15.176  13.332
64360W        W32723   0.326  42.957   0.357
64361W        W32724  21.658  26.981  11.044
64362W        W32725  21.146  30.534   4.763
64363W        W32726  33.020  36.059  12.879
64364W        W32727  10.860  31.975  10.895
64365W        W32728  14.193   8.659   0.289
64366W        W32729   6.716  40.868   1.901
64367W        W32730  40.540  40.953   4.622
64368W        W32731  16.711  18.252  12.867
64369W        W32732  31.555  26.977  13.436
64370W        W32733  20.635  39.510   1.284
64371W        W32734  22.695  33.048  11.881
64372W        W32735   9.651  22.125   2.867
64373W        W32736  28.954  32.401   0.462
64374W        W32737  36.080  40.902   1.361
64375W        W32738  15.824  11.827  12.859
64376W        W32739  14.324  28.618  14.347
64377W        W32740  34.917  15.178   4.662
64378W        W32741  37.403  20.559  13.908
64379W        W32742   5.819  11.809   3.182
64380W        W32743   0.836  44.840   1.836
64381W        W32744  15.200  26.459  10.589
64382W        W32745   2.338  31.628  12.360
64383W        W32746  13.313   3.800  14.288
64384W        W32747  21.566  16.299   1.774
64385W        W32748  12.682  26.197   3.658
64386W        W32749  41.522  29.136  10.483
64387W        W32750  40.399  23.551   0.842
64388W        W32751  22.047   0.793   1.757
64389W        W32752   7.873  39.382   0.925
64390W        W32753   6.879  27.063   0.958
64391W        W32754   9.855  17.145  10.567
64392W        W32755  43.857  26.596   2.795
64393W        W32756  31.955   0.868  13.962
64394W        W32757  13.251  17.614   1.884
64395W        W32758  36.069  30.620  14.004
64396W        W32759  15.179  14.278  12.949
64397W        W32760  33.041  20.554   4.244
64398W        W32761  17.563  40.384   0.917
64399W        W32762  19.666   1.299  11.401
64400W        W32763  10.666   7.843  14.950
64401W        W32764  28.644   6.778  11.988
64402W        W32765  23.491   4.287   0.412
64403W        W32766   1.810  35.048   1.244
64404W        W32767  32.031   0.870  14.790
64405W        W32768   1.247  37.044  12.502
64406W        W32769  34.510  18.557  11.068
64407W        W32770   0.862  22.035   5.686
64408W        W32771  43.504  15.284   3.256
64409W        W32772  28.172  17.122  10.093
64410W        W32773  25.645  26.538  13.951
64411W        W32774   5.316   1.444  12.832
64412W        W32775  29.591  26.125  14.789
64413W        W32776   8.841  14.108  12.356
64414W        W32777  21.600  38.439   1.301
64415W        W32778  23.651   2.230  10.943
64416W        W32779  42.863  38.530   0.259
64417W        W32780   7.730  43.880   3.763
64418W        W32781  16.265   4.339  13.418
64419W        W32782  17.670  25.192  13.979
64420W        W32783   1.795  29.462  12.466
64421W        W32784  18.227  16.198  11.954
64422W        W32785  30.982   5.897   0.761
64423W        W32786  32.117   4.720  13.387
64424W        W32787  39.473  18.685  13.895
64425W        W32788   4.912  44.960   1.384
64426W        W32789  41.427  17.753   1.916
64427W        W32790  21.695  19.248   4.280
64428W        W32791  19.278  36.481  11.530
64429W        W32792  29.992  40.309   4.223
64430W        W32793  41.475  43.996  13.411
64431W        W32794  36.052  12.713   1.861
64432W        W32795  15.744  39.958  14.955
64433W        W32796  14.125  36.891   4.172
64434W        W32797  12.253  34.381  10.581
64435W        W32798  17.061  17.679   3.767
64436W        W32799  43.414  30.115   1.820
64437W        W32800  27.637   3.379  12.502
64438W        W32801  12.362  14.785  14.002
64439W        W32802  13.129  33.566  13.885
64440W        W32803   6.221  42.332  12.567
64441W        W32804   8.170  34.370  14.790
64442W        W32805  44.275  30.640  12.567
64443W        W32806   7.832  11.704  13.992
64444W        W32807   5.398  24.092  11.518
64445W        W32808   7.322  27.953   3.210
64446W        W32809   4.426  28.474  11.511
64447W        W32810  19.537   8.770   1.768
64448W        W32811  24.999   2.340  14.958
64449W        W32812  26.485   3.765  11.463
64450W        W32813  10.831  24.601  14.808
64451W        W32814   8.692  31.005  11.908
64452W        W32815  24.051  13.625   1.854
64453W        W32816  31.982  24.139  13.874
64454W        W32817   7.311  30.069  11.974
64455W        W32818  26.533  11.825   1.396
64456W        W32819  30.080  30.921  13.489
64457W        W32820  32.633  21.226   3.657
64458W        W32821  36.586  18.253   3.330
64459W        W32822  19.158  42.008   3.692
64460W        W32823  14.300  11.851  11.112
64461W        W32824  20.107  40.875  10.604
64462W        W32825  38.404  22.210   4.350
64463W        W32826   3.390   0.857  13.334
64464W        W32827  30.958  26.497   2.352
64465W        W32828  35.411  26.018  14.380
64466W        W32829   7.814  39.483  14.794
64467W        W32830  41.808   0.775  14.889
64468W        W32831   1.384   4.789  12.449
64469W        W32832   8.330  38.858   2.387
64470W        W32833  31.905  16.251   0.466
64471W        W32834  17.610  15.669   2.743
64472W        W32835  40.836  43.282  12.378
64473W        W32836   0.759  29.041  10.446
64474W        W32837  17.594   9.384  14.467
64475W        W32838  37.859  25.995  14.859
64476W        W32839  21.039  10.282  11.501
64477W        W32840   4.221  29.065   4.327
64478W        W32841  31.484   4.846   3.657
64479W        W32842  43.461  41.942   0.467
64480W        W32843  19.564  24.601   0.447
64481W        W32844  28.139  12.797  12.367
64482W        W32845  36.547  42.934   2.811
64483W        W32846  27.065  37.962   0.739
64484W        W32847  18.783  28.146  13.034
64485W        W32848  37.987  43.008  12.401
64486W        W32849  21.583   5.850  11.502
64487W        W32850   4.404  40.890   0.363
64488W        W32851  13.651   8.707   4.117
64489W        W32852  12.690  34.593   1.274
64490W        W32853   5.243  19.709   2.671
64491W        W32854   0.810  17.111  10.154
64492W        W32855  23.633  14.277   3.253
64493W        W32856  23.109  41.458  11.903
64494W        W32857  18.723  33.595  14.367
64495W        W32858  31.566  31.941   4.351
64496W        W32859  37.454  42.504  13.872
64497W        W32860  22.111  25.552   4.342
64498W        W32861  26.204   8.784  12.911
64499W        W32862  14.260   5.776   0.429
64500W        W32863  42.358  38.819   2.689
64501W        W32864  23.093  18.186   1.439
64502W        W32865  26.461  16.590   3.649
64503W        W32866  28.152  10.219  13.411
64504W        W32867  25.165   8.787   1.884
64505W        W32868  36.866  33.471  13.870
64506W        W32869  22.156  16.095   2.685
64507W        W32870  10.166  35.021   2.726
64508W        W32871  10.658  35.867   4.353
64509W        W32872  13.656  16.672   3.771
64510W        W32873  35.031  27.002  12.957
64511W        W32874   8.849  17.200   2.370
64512W        W32875  33.550  32.618   2.773
64513W        W32876  19.543  24.713  11.948
64514W        W32877  23.998  21.094  12.053
64515W        W32878  39.354  39.828   0.791
64516W        W32879   5.739  26.593   4.195
64517W        W32880  24.718  34.106   3.335
64518W        W32881   2.269   8.893  10.934
64519W        W32882  28.539  12.325  14.285
64520W        W32883  23.540  34.865  13.837
64521W        W32884  17.613  12.717  13.509
64522W        W32885  10.656  24.633   3.303
64523W        W32886  13.177  34.507  14.025
64524W        W32887  40.854  16.712  12.507
64525W        W32888  36.008   1.848   2.790
64526W        W32889  23.238   0.867   3.382
64527W        W32890  21.261  39.838  10.433
64528W        W32891   6.904   1.306  12.932
64529W        W32892  20.678  18.665  14.977
64530W        W32893  29.123  35.947  12.356
64531W        W32894  25.653  20.105   0.350
64532W        W32895  33.513   3.830   3.764
64533W        W32896  35.509  11.177   1.855
64534W        W32897  22.723  42.365   1.335
64535W        W32898   5.807  10.720  10.530
64536W        W32899  30.645  42.789   3.304
64537W        W32900   2.911  37.345   2.248
64538W        W32901  33.038   8.312  11.963
64539W        W32902  36.352  24.168  12.474
64540W        W32903  34.031  14.230   2.898
64541W        W32904  25.558  40.420   2.308
64542W        W32905  36.509  21.195  10.988
64543W        W32906   3.927  31.593   0.454
64544W        W32907   6.374   3.910   3.711
64545W        W32908  36.980  24.229   3.703
64546W        W32909   6.262  29.647  12.482
64547W        W32910  41.969   6.306  11.474
64548W        W32911  36.351  29.520   5.280
64549W        W32912  35.895  21.123   0.469
64550W        W32913  25.660  39.505   1.219
64551W        W32914  39.946  14.281   1.385
64552W        W32915  39.465  29.620   3.178
64553W        W32916  44.320  14.299   4.805
64554W        W32917   2.786  20.700   3.648
64555W        W32918  15.194  44.825   2.698
64556W        W32919   1.317   6.898   0.405
64557W        W32920  35.078  30.583  11.115
64558W        W32921  11.268  38.866  10.939
64559W        W32922  27.562  21.631   4.245
64560W        W32923  30.086  36.492  13.845
64561W        W32924  32.000  30.908  10.590
64562W        W32925  38.032  23.499  13.538
64563W        W32926  23.613  31.032   1.857
64564W        W32927  20.134   9.844  12.482
64565W        W32928   6.257  32.560  14.967
64566W        W32929   0.457  10.190   2.856
64567W        W32930  35.947  16.307   2.221
64568W        W32931  24.200  32.521   1.743
64569W        W32932  37.074   3.295   2.324
64570W        W32933  39.477  13.328  14.031
64571W        W32934  22.710  28.107  11.856
64572W        W32935  23.212  44.805   1.712
64573W        W32936  20.030  32.982   4.170
64574W        W32937   3.382  25.022   1.815
64575W        W32938  20.252  37.028   4.269
64576W        W32939  29.922  38.048  10.453
64577W        W32940  32.938  20.030   0.924
64578W        W32941  22.623  28.458  13.526
64579W        W32942  16.077  37.894  14.276
64580W        W32943  17.638  37.530   0.818
64581W        W32944  18.219  13.816  10.577
64582W        W32945  38.889  38.905   1.750
64583W        W32946  41.042  13.788   4.835
64584W        W32947  15.094  39.809   4.681
64585W        W32948  16.802  14.822  14.392
64586W        W32949  32.094  22.556   1.920
64587W        W32950  13.717  20.258  12.349
64588W        W32951  15.317   7.829  11.572
64589W        W32952   1.808  42.299   2.884
64590W        W32953  27.045  19.223  14.499
64591W        W32954  17.256  18.219  10.131
64592W        W32955  26.549  23.529   2.760
64593W        W32956  43.782  15.655   0.276
64594W        W32957  20.113  34.427   4.734
64595W        W32958   8.687  22.189  12.524
64596W        W32959  17.791   5.780  10.899
64597W        W32960   5.405  13.300   2.376
64598W        W32961  20.157  36.567   3.155
64599W        W32962   1.798  21.142   4.179
64600W        W32963  10.165  19.768   1.424
64601W        W32964   5.437  13.269   1.426
64602W        W32965  20.076   8.874  10.440
64603W        W32966   1.284  28.588  12.551
64604W        W32967  15.229  17.251   3.721
64605W        W32968  12.820   7.213  11.450
64606W        W32969  11.700  25.695   2.803
64607W        W32970  28.158  28.533  13.343
64608W        W32971  21.115   0.278  14.813
64609W        W32972  38.925   6.282  12.922
64610W        W32973  22.505  32.629   1.376
64611W        W32974   5.834  31.910  14.785
64612W        W32975  43.836  37.521   4.682
64613W        W32976  17.085   2.937   1.776
64614W        W32977  30.614   3.403   2.761
64615W        W32978  11.649  41.453   1.931
64616W        W32979   7.179  14.132   3.173
64617W        W32980  26.108  17.256   3.836
64618W        W32981  29.137   9.754   0.770
64619W        W32982  27.494  17.106  14.963
64620W        W32983  39.445  44.384   4.757
64621W        W32984  23.644   3.943  13.524
64622W        W32985  36.908  28.664   0.279
64623W        W32986   0.830  24.654   5.620
64624W        W32987  23.990  44.410   3.301
64625W        W32988  29.981  37.424   2.892
64626W        W32989  18.170  42.915   1.930
64627W        W32990   6.857  24.190  10.441
64628W        W32991   9.291  27.020   3.168
64629W        W32992  33.417   8.851   2.697
64630W        W32993  41.418   9.378   0.437
64631W        W32994   6.402  39.470   0.397
64632W        W32995  29.639   7.224   2.685
64633W        W32996  20.147   0.445   0.347
64634W        W32997  13.669   4.352   1.339
64635W        W32998  13.701  17.566   5.111
64636W        W32999  31.103  23.021   2.662
64637W        W33000   9.285  31.055  14.932
64638W        W33001   8.784  42.381   1.341
64639W        W33002  11.231  21.614  12.082
64640W        W33003   7.692  20.060  10.942
64641W        W33004  36.573  27.105  13.472
64642W        W33005  34.907  10.720   0.450
64643W        W33006   4.408  39.535  13.418
64644W        W33007  17.228  40.012   4.711
64645W        W33008  35.369  27.107   0.379
64646W        W33009  35.387  18.730   1.398
64647W        W33010  41.815   5.722  10.520
64648W        W33011   0.854  43.895   4.626
64649W        W33012   6.345  20.062   1.734
64650W        W33013  39.003  35.558   0.426
64651W        W33014  38.420  29.086  14.290
64652W        W33015  43.906   6.335   3.812
64653W        W33016  11.697  40.470  14.777
64654W        W33017  26.148  20.690   1.235
64655W        W33018  17.684   1.836   4.806
64656W        W33019  16.311   9.693   2.740
64657W        W33020  33.570   2.309  14.335
64658W        W33021   8.732  32.929  10.915
64659W        W33022  33.537  26.124  14.389
64660W        W33023  36.053  30.028   4.751
64661W        W33024  44.295  31.414  12.510
64662W        W33025  10.827   7.755  14.477
64663W        W33026   3.906  29.159   1.863
64664W        W33027  10.747  13.664  12.829
64665W        W33028  43.822   7.889   0.454
64666W        W33029  18.086  34.071  11.543
64667W        W33030   0.974  29.595  12.458
64668W        W33031   5.934  19.642  10.966
64669W        W33032  13.767  35.487  10.943
64670W        W33033  13.661   8.867  14.367
64671W        W33034  44.501   3.338   1.215
64672W        W33035  41.971   9.693   0.901
64673W        W33036   4.338   1.917  14.799
64674W        W33037  25.139  16.100   5.216
64675W        W33038  34.379  15.775   0.966
64676W        W33039  14.777   8.680   0.777
64677W        W33040  40.918  17.662  11.439
64678W        W33041  23.501  34.965  14.410
64679W        W33042  12.778  14.590  12.504
64680W        W33043   9.206   6.217   3.683
64681W        W33044  41.931  38.966  13.442
64682W        W33045  15.258   6.802   1.889
64683W        W33046  36.422  19.156  12.384
64684W        W33047  34.881  10.186   2.218
64685W        W33048  39.907  15.281   3.161
64686W        W33049  31.419  23.677   3.794
64687W        W33050  30.915  33.454   2.714
64688W        W33051  32.070  34.521   3.311
64689W        W33052  41.505  40.940  11.927
64690W        W33053  19.774  44.298   3.152
64691W        W33054   0.778   6.297  13.539
64692W        W33055  31.063  34.518   4.695
64693W        W33056  26.618  22.544  11.554
64694W        W33057  31.091  12.297  12.866
64695W        W33058  38.035  43.390   2.761
64696W        W33059  15.623  15.721   2.698
64697W        W33060  19.580  35.428   2.296
64698W        W33061  35.096  38.022   0.310
64699W        W33062  10.870  29.947   1.720
64700W        W33063  37.339  11.819  14.953
64701W        W33064   0.284  36.506  10.548
64702W        W33065  34.591  31.414  12.474
64703W        W33066  33.962   0.414  10.025
64704W        W33067  39.863   1.924  14.807
64705W        W33068  41.971  15.816  12.487
64706W        W33069  43.791  27.100   2.772
64707W        W33070  10.813  12.816   1.305
64708W        W33071  10.734  16.269   2.716
64709W        W33072  26.147  11.322  12.554
64710W        W33073  16.628   2.873   4.705
64711W        W33074  34.949  12.694  13.925
64712W        W33075   7.252  27.542   3.837
64713W        W33076   8.248   1.828   4.266
64714W        W33077  36.574  35.911   1.800
64715W        W33078  15.641   3.927   1.769
64716W        W33079  37.492  26.088  13.508
64717W        W33080  13.615  34.085   3.800
64718W        W33081  12.314  25.565  12.434
64719W        W33082  10.687  43.939   2.832
64720W        W33083  39.405  20.238  14.464
64721W        W33084   7.218  12.764   1.698
64722W        W33085  12.613  16.584  12.344
64723W        W33086  27.162  30.658   2.843
64724W        W33087  41.825  42.430  10.919
64725W        W33088  12.327  19.712  14.862
64726W        W33089  32.927  19.177  13.516
64727W        W33090  15.586   8.195  14.028
64728W        W33091  22.106  12.717   1.440
64729W        W33092  36.051  30.449   4.679
64730W        W33093   8.654  10.247  13.374
64731W        W33094  11.253  34.108  11.444
64732W        W33095  33.986   4.816  12.033
64733W        W33096  26.624  29.539  11.989
64734W        W33097  35.475   8.802   3.664
64735W        W33098   7.293  14.671   0.941
64736W        W33099  25.188   1.847  13.852
64737W        W33100   2.944  19.551   1.411
64738W        W33101  37.410  24.227  10.619
64739W        W33102  26.629  33.388   3.634
64740W        W33103  29.553  33.563   4.265
64741W        W33104  14.144  33.055   2.261
64742W        W33105   0.419  13.229  13.866
64743W        W33106  20.113  40.435   9.932
64744W        W33107   5.863  14.753  13.894
64745W        W33108  43.967  34.573  10.547
64746W        W33109  31.919   6.243  12.046
64747W        W33110  41.920  41.363   1.441
64748W        W33111  24.502  15.090  10.419
64749W        W33112  14.597  27.118  14.451
64750W        W33113  33.489  18.204  12.524
64751W        W33114  30.119  17.609   0.886
64752W        W33115  21.163  41.307   4.334
64753W        W33116  32.943  34.938   3.766
64754W        W33117   5.201  16.181   3.819
64755W        W33118  20.526  13.322  10.590
64756W        W33119  14.291  27.103  11.985
64757W        W33120  21.026   4.704   0.886
64758W        W33121   9.657  41.526   4.632
64759W        W33122  17.615  22.698  11.448
64760W        W33123   2.419   9.225  14.441
64761W        W33124   4.815  40.340   2.742
64762W        W33125  18.664  32.083  13.807
64763W        W33126  44.390  41.436   1.930
64764W        W33127  42.343  30.586  11.437
64765W        W33128  21.194  17.220  13.877
64766W        W33129  33.612   2.270  14.901
64767W        W33130  33.561   8.176   3.746
64768W        W33131  29.028  10.364   0.242
64769W        W33132   9.780  18.756  12.364
64770W        W33133  23.733  20.658   2.213
64771W        W33134   7.792  17.802  12.970
64772W        W33135  40.336   0.989  11.906
64773W        W33136  17.608  36.885   3.247
64774W        W33137  28.072  43.484  14.868
64775W        W33138  33.571  23.197  10.552
64776W        W33139  19.533  20.075   0.362
64777W        W33140   7.186  12.627   0.755
64778W        W33141   8.700  41.034  11.104
64779W        W33142  20.217   4.291  13.841
64780W        W33143  20.072  10.864   3.695
64781W        W33144  22.744  20.029  11.586
64782W        W33145  11.669   1.912   0.821
64783W        W33146  40.007   0.471  14.429
64784W        W33147  18.172  41.427   0.271
64785W        W33148  21.259  41.819   2.814
64786W        W33149  22.142  33.088   3.859
64787W        W33150   9.291  12.136   3.363
64788W        W33151  11.153  18.193  14.777
64789W        W33152  32.430  38.332  11.937
64790W        W33153  10.236  30.517  11.897
64791W        W33154   1.958  14.236   4.235
64792W        W33155  12.825  44.785   3.700
64793W        W33156  24.195  14.115   0.770
64794W        W33157  16.788   3.400  12.482
64795W        W33158  25.098   7.270   4.720
64796W        W33159  43.770  12.307   3.252
64797W        W33160   3.378  12.287  14.775
64798W        W33161  22.250  33.971   1.856
64799W        W33162  41.034  23.030  11.993
64800W        W33163  44.884  37.927  10.925
64801W        W33164  26.482  40.807   3.378
64802W        W33165  29.560   9.210   0.362
64803W        W33166  38.358  21.535  14.023
64804W        W33167  31.108  38.821  14.931
64805W        W33168  19.048  30.621  11.382
64806W        W33169   1.448  22.150  10.145
64807W        W33170   8.317  18.613  11.017
64808W        W33171  36.491  13.688  13.380
64809W        W33172  20.203  37.940  11.879
64810W        W33173  40.994  18.102   1.844
64811W        W33174  18.700  15.302   0.851
64812W        W33175  39.012  42.783  13.373
64813W        W33176  23.172  17.198  11.073
64814W        W33177   4.883  41.322   3.188
64815W        W33178  12.148   2.728   2.700
64816W        W33179  11.731  44.010   0.827
64817W        W33180  39.364  23.174   2.231
64818W        W33181  25.987  41.012   0.432
64819W        W33182  25.642   1.739  10.042
64820W        W33183  24.202  23.078  12.080
64821W        W33184  25.998   9.181  13.855
64822W        W33185  39.043  14.800  13.489
64823W        W33186  12.829  35.416   2.882
64824W        W33187   6.852  24.692   4.757
64825W        W33188   0.288  12.851   1.367
64826W        W33189  19.051  28.531  12.061
64827W        W33190  32.442  26.206   0.462
64828W        W33191   9.351  34.493  11.990
64829W        W33192  19.207  16.099  11.607
64830W        W33193  23.045   5.703   0.848
64831W        W33194   5.233   7.206   1.289
64832W        W33195   2.789   9.204  13.481
64833W        W33196  42.330   8.766  14.797
64834W        W33197  23.716   9.798  13.993
64835W        W33198  22.231  11.700   4.283
64836W        W33199  43.946  17.785  11.003
64837W        W33200  32.964  15.654   1.789
64838W        W33201  16.651  17.630   9.976
64839W        W33202  30.109  32.627  13.408
64840W        W33203  37.479   7.845  12.039
64841W        W33204  25.973  22.035   4.603
64842W        W33205   2.720   0.393  11.476
64843W        W33206  38.564  22.699  13.905
64844W        W33207   8.800  34.583   0.889
64845W        W33208  14.152   2.864   0.840
64846W        W33209   1.785  22.234  12.574
64847W        W33210  11.290  12.671  10.412
64848W        W33211   4.892   8.251   3.650
64849W        W33212  18.268  25.043  11.993
64850W        W33213  22.511   1.864  14.427
64851W        W33214  12.666  43.855  10.918
64852W        W33215  20.712  18.712  12.436
64853W        W33216   5.205  42.304  10.592
64854W        W33217   0.921  33.437   2.318
64855W        W33218  41.887  34.610  14.960
64856W        W33219  10.702  17.654  11.971
64857W        W33220  40.799  20.751  12.528
64858W        W33221  44.914   8.257  12.935
64859W        W33222   0.830  43.475  14.774
64860W        W33223  43.332   4.901  10.922
64861W        W33224  42.356  34.865  11.376
64862W        W33225  30.986  23.180  11.987
64863W        W33226  17.085  23.569  10.081
64864W        W33227  29.008   1.839   1.212
64865W        W33228  24.184  41.915  10.971
64866W        W33229  43.979  16.087  12.385
64867W        W33230   7.387  32.948   2.843
64868W        W33231  27.945  42.900   3.349
64869W        W33232  35.057  30.974  13.989
64870W        W33233  10.788  44.810  12.081
64871W        W33234  22.663  28.092  10.467
64872W        W33235  22.597  36.576   3.207
64873W        W33236  14.760  12.820   1.360
64874W        W33237  20.038  31.977  10.539
64875W        W33238  11.138  25.513   1.779
64876W        W33239  40.523   2.764   3.245
64877W        W33240  17.615  10.353   0.451
64878W        W33241  40.354  19.111  12.837
64879W        W33242  29.615  38.035  13.465
64880W        W33243  20.668  11.257  10.585
64881W        W33244  22.723  14.825  10.422
64882W        W33245  44.907   5.785  12.450
64883W        W33246  39.497  42.861  13.380
64884W        W33247   4.876   9.215  14.406
64885W        W33248  16.274  29.951   1.787
64886W        W33249  18.621  22.068   3.735
64887W        W33250  34.600  30.579   3.335
64888W        W33251   3.308  33.454   1.872
64889W        W33252   1.418  31.987  12.003
64890W        W33253  28.038  10.221  12.438
64891W        W33254  43.883  37.499   2.186
64892W        W33255  11.651  20.742  13.474
64893W        W33256  15.769   9.160   0.325
64894W        W33257  35.950  36.509  12.070
64895W        W33258   5.872  14.188  14.002
64896W        W33259  35.457  41.042   4.791
64897W        W33260  16.682  11.253  10.895
64898W        W33261  33.953  36.969   1.806
64899W        W33262  42.827   5.830  10.158
64900W        W33263  11.285  39.316  10.539
64901W        W33264  31.636  18.207  11.378
64902W        W33265  43.455  17.150   3.313
64903W        W33266  39.407  19.054   3.851
64904W        W33267  15.630  23.714  11.992
64905W        W33268   4.412  21.043   0.794
64906W        W33269   5.854  36.849   4.133
64907W        W33270  29.656  34.001   4.166
64908W        W33271  28.645  39.406  11.940
64909W        W33272   5.205   6.835  13.020
64910W        W33273  20.030  27.047  13.024
64911W        W33274  26.682  43.433  10.559
64912W        W33275  14.109   8.403   2.853
64913W        W33276  10.363   5.292   2.677
64914W        W33277  41.851  44.964  11.405
64915W        W33278  23.029   8.335   0.768
64916W        W33279   4.301   7.324  10.516
64917W        W33280  19.269  25.204  13.872
64918W        W33281  11.235  18.583  12.942
64919W        W33282   7.686   2.307   4.200
64920W        W33283  27.069  40.933   0.764
64921W        W33284  21.672  19.716   1.878
64922W        W33285   8.827   3.384   2.189
64923W        W33286  43.953  41.517   3.164
64924W        W33287  20.686  20.180  12.826
64925W        W33288   0.416  26.694   3.794
64926W        W33289   7.798  25.046   0.927
64927W        W33290  23.597  30.078  11.433
64928W        W33291  39.818  18.562   1.347
64929W        W33292  34.371   6.378  13.394
64930W        W33293  32.412  25.512  11.373
64931W        W33294  12.199  19.252  11.586
64932W        W33295  39.448  18.277  11.016
64933W        W33296  31.053   0.416  12.351
64934W        W33297  26.682  27.068  13.990
64935W        W33298  36.493   5.699  14.439
64936W        W33299   0.846  31.011  14.497
64937W        W33300  17.071  32.947  14.317
64938W        W33301  26.554  26.059   2.896
64939W        W33302   3.915   0.952   3.386
64940W        W33303  19.207  19.600  14.927
64941W        W33304   0.337   9.341   4.657
64942W        W33305  28.496  26.517  12.875
64943W        W33306  31.001   7.835   5.207
64944W        W33307  14.699  15.700  14.515
64945W        W33308  31.119  32.089  14.834
64946W        W33309  42.526  29.169   4.762
64947W        W33310  34.972  40.811   2.700
64948W        W33311   3.397   8.210   0.750
64949W        W33312  40.470  10.159  13.448
64950W        W33313   3.895  26.108   0.343
64951W        W33314   8.814  23.132  14.277
64952W        W33315  33.109   1.442   0.393
64953W        W33316  43.387  32.483  13.369
64954W        W33317  32.102  26.020   2.737
64955W        W33318  14.658  31.552   3.848
64956W        W33319  17.784  14.280  12.875
64957W        W33320  17.606   7.294   1.696
64958W        W33321   9.324  37.343  12.563
64959W        W33322  23.188  41.447   4.621
64960W        W33323  35.944  20.719  13.388
64961W        W33324  25.633  20.126  14.447
64962W        W33325   1.789  28.678   3.208
64963W        W33326   9.890  39.509   4.144
64964W        W33327  38.014  24.039  10.615
64965W        W33328  16.094  34.391   4.346
64966W        W33329  15.244  35.988  12.567
64967W        W33330  40.944  12.789  10.545
64968W        W33331  14.698  15.126   2.884
64969W        W33332  14.138  13.633   3.147
64970W        W33333  19.577  25.493   4.670
64971W        W33334   1.419  30.612   3.148
64972W        W33335  40.987  20.651  12.039
64973W        W33336  18.277  22.532   3.807
64974W        W33337  11.862  38.530  12.913
64975W        W33338  10.275  23.683  10.458
64976W        W33339  19.228  33.470  14.832
64977W        W33340   2.470  25.070   0.772
64978W        W33341  23.580  14.149   0.434
64979W        W33342  13.669  37.457   2.272
64980W        W33343  25.099   7.253   2.874
64981W        W33344  43.510   3.864  12.038
64982W        W33345  22.565  21.144  13.457
64983W        W33346  41.880   8.358  13.839
64984W        W33347  15.292  18.606   5.619
64985W        W33348  41.881  37.478   4.768
64986W        W33349  33.548  35.531  14.831
64987W        W33350   8.254  34.093   1.760
64988W        W33351  14.670  30.633  14.766
64989W        W33352  31.974  14.308   3.708
64990W        W33353  32.988  23.708   3.851
64991W        W33354  13.225  41.992   1.786
64992W        W33355  27.136  32.996   1.250
64993W        W33356  17.072  10.270  14.445
64994W        W33357   0.342  15.233  11.611
64995W        W33358  27.621  13.673  12.020
64996W        W33359  17.188  39.065  10.086
64997W        W33360  35.464  21.148   4.644
64998W        W33361  26.004  25.503   2.371
64999W        W33362  21.719  13.322   4.192
65000W        W33363  39.891  22.558   0.371
65001W        W33364  19.772  30.017  13.384
65002W        W33365  19.069  39.816  10.533
65003W        W33366  14.188   9.872   0.467
65004W        W33367   2.472  33.906  12.549
65005W        W33368  43.826  14.143  12.416
65006W        W33369  24.995  39.868   3.307
65007W        W33370  32.098  23.991   1.386
65008W        W33371   4.338   4.811   1.426
65009W        W33372   8.296  30.150   2.193
65010W        W33373  43.798  26.594   0.823
65011W        W33374  39.534  35.535   0.346
65012W        W33375   1.944  21.755  12.481
65013W        W33376  28.966   9.762  13.466
65014W        W33377   2.897  22.593   5.095
65015W        W33378  17.730   0.264  11.401
65016W        W33379  10.279   5.367  14.309
65017W        W33380  27.025  16.150  10.495
65018W        W33381  15.198   8.680  10.985
65019W        W33382  21.595  15.108   2.200
65020W        W33383  34.410  19.128   2.880
65021W        W33384  36.348  24.674  12.520
65022W        W33385  19.598  42.365   3.849
65023W        W33386  28.559  13.684   3.275
65024W        W33387   3.362  23.732  12.438
65025W        W33388  30.544  36.389   0.358
65026W        W33389  31.542  37.890   2.348
65027W        W33390   0.859  10.309   3.160
65028W        W33391  25.583  23.711  11.429
65029W        W33392  41.372  32.049   1.393
65030W        W33393  40.452  35.937  11.934
65031W        W33394  38.462  25.692   3.678
65032W        W33395  20.203  17.287   0.928
65033W        W33396   5.769   0.451  14.835
65034W        W33397   3.303  40.890   4.150
65035W        W33398  11.132  40.365   1.898
65036W        W33399  26.099  22.704   2.666
65037W        W33400   2.344  34.481  14.419
65038W        W33401  41.039  15.300   0.779
65039W        W33402  10.257  31.963  11.534
65040W        W33403  14.172  21.144   1.737
65041W        W33404  36.016  21.221   4.830
65042W        W33405  42.828   9.823  14.892
65043W        W33406  10.296  31.006   2.388
65044W        W33407  30.636  39.363   4.320
65045W        W33408  40.432  26.050  14.012
65046W        W33409  11.718  34.526  11.930
65047W        W33410   9.257  32.898   3.226
65048W        W33411  24.588  16.669   4.797
65049W        W33412  38.363  10.637   9.674
65050W        W33413  16.628  13.185  13.394
65051W        W33414  35.978  29.164  14.828
65052W        W33415  11.750  32.043   3.172
65053W        W33416  29.589  40.438   3.149
65054W        W33417  14.095   7.199  10.435
65055W        W33418  40.548  43.854  13.016
65056W        W33419   3.440  28.630  11.414
65057W        W33420  25.575   4.827   1.742
65058W        W33421  19.671  31.963   2.315
65059W        W33422  11.804  21.600  11.456
65060W        W33423  21.108   8.212   1.825
65061W        W33424  40.946  36.577   1.917
65062W        W33425  27.686  23.042  13.350
65063W        W33426  43.951  11.344  12.990
65064W        W33427  13.120  33.399   3.314
65065W        W33428  34.507  20.238   4.763
65066W        W33429   0.258  21.054  13.318
65067W        W33430  18.768  44.904   3.195
65068W        W33431  25.145  10.689  14.822
65069W        W33432  44.365  26.002   1.409
65070W        W33433  30.040  25.087  11.405
65071W        W33434   2.765  36.522  14.932
65072W        W33435  27.096  39.819  13.424
65073W        W33436  36.885  22.180  10.612
65074W        W33437   8.346  41.305  14.838
65075W        W33438  11.293   1.402  11.444
65076W        W33439  10.149  32.063  12.439
65077W        W33440  39.998  28.104   3.252
65078W        W33441  24.123  34.567   0.443
65079W        W33442   0.455  28.617  12.033
65080W        W33443   2.445  30.038   0.791
65081W        W33444   2.428   2.289  12.505
65082W        W33445  18.664  32.434   4.140
65083W        W33446   1.463   2.934   1.783
65084W        W33447  36.092  28.985  12.465
65085W        W33448  12.121  34.942  11.030
65086W        W33449   0.274  39.457   1.236
65087W        W33450  12.154  22.102  11.463
65088W        W33451   6.327   8.376  10.473
65089W        W33452  39.549  11.725   0.773
65090W        W33453   2.767  40.856  10.568
65091W        W33454   0.463   0.443  13.431
65092W        W33455  42.418  34.015   4.283
65093W        W33456  34.036  16.720  13.349
65094W        W33457  34.611  31.975   4.649
65095W        W33458  19.634   4.910  12.578
65096W        W33459   8.247   6.755   0.870
65097W        W33460  27.642   0.746  12.978
65098W        W33461  23.713   5.439  10.592
65099W        W33462  28.493  13.142  12.965
65100W        W33463  36.950  38.838   4.244
65101W        W33464  26.498  17.305   9.980
65102W        W33465  15.753  40.812  12.826
65103W        W33466  32.495  22.168   3.186
65104W        W33467  31.958   5.258   2.674
65105W        W33468   5.910  32.114   0.413
65106W        W33469  38.916   8.792   0.379
65107W        W33470  40.530  24.194  11.967
65108W        W33471  39.898  17.084  14.378
65109W        W33472   9.169  31.113  12.483
65110W        W33473  39.819  34.906   4.348
65111W        W33474  25.585   2.798  11.123
65112W        W33475  39.447  33.993   2.234
65113W        W33476   7.390  20.143   4.732
65114W        W33477  11.302   4.382   0.834
65115W        W33478   4.236   6.350  11.589
65116W        W33479  31.492  27.113  12.004
65117W        W33480   8.365  35.598  12.517
65118W        W33481  26.510  41.465   5.098
65119W        W33482  44.836   5.783  14.426
65120W        W33483  15.674  25.168   0.431
65121W        W33484  31.584  26.655   0.776
65122W        W33485  26.951  11.834  11.571
65123W        W33486  38.379  21.607   2.837
65124W        W33487  35.471  44.932  13.515
65125W        W33488  44.836  20.663  12.944
65126W        W33489  13.256   1.306  14.006
65127W        W33490  44.810   5.782   0.382
65128W        W33491  13.151  22.216   1.336
65129W        W33492  41.532  35.409   0.807
65130W        W33493  13.628  25.589  13.960
65131W        W33494  12.733  22.155  12.914
65132W        W33495  13.623  43.353   1.877
65133W        W33496  43.771  26.642   4.170
65134W        W33497  36.539  21.154   3.327
65135W        W33498  34.950  23.528   0.914
65136W        W33499  31.453  13.764   3.190
65137W        W33500   1.422  15.245   4.239
65138W        W33501  39.937   6.898   3.283
65139W        W33502  30.534   1.460  11.892
65140W        W33503   5.235   4.327  14.355
65141W        W33504  17.699  22.625   4.241
65142W        W33505  12.615   3.832   3.318
65143W        W33506  13.126  36.517   3.768
65144W        W33507  38.501  10.230   3.837
65145W        W33508   2.239  28.009   4.251
65146W        W33509  34.928  36.967   1.817
65147W        W33510  36.960  13.113  12.831
65148W        W33511  32.049  41.982  14.305
65149W        W33512  38.004  29.609  13.836
65150W        W33513  22.507  28.982   1.445
65151W        W33514  37.541   9.368   1.223
65152W        W33515  10.802  36.908  13.864
65153W        W33516  15.167  39.956  12.035
65154W        W33517   4.423  11.326   1.929
65155W        W33518  40.852  24.542   0.787
65156W        W33519  16.801  11.786  11.982
65157W        W33520   3.831  30.649   5.293
65158W        W33521  41.338  14.314   4.684
65159W        W33522   2.437  23.616   3.751
65160W        W33523  10.378  13.349   0.431
65161W        W33524   7.348  19.144   1.760
65162W        W33525  29.607   7.899  11.376
65163W        W33526  36.878  25.525  13.022
65164W        W33527  31.514  34.485  10.965
65165W        W33528  34.937  17.102  10.457
65166W        W33529  32.425  23.648   2.380
65167W        W33530  26.552  41.926  14.810
65168W        W33531   3.445  29.065   1.774
65169W        W33532   2.364   5.270   2.692
65170W        W33533  41.329  30.082  14.998
65171W        W33534  21.023  16.218  11.092
65172W        W33535  43.783  31.622   2.836
65173W        W33536  31.053  20.228   2.880
65174W        W33537  10.816  32.615   1.311
65175W        W33538  30.977  19.207   3.193
65176W        W33539   1.358  22.654  10.059
65177W        W33540  38.878  11.687  11.414
65178W        W33541  24.073  35.857   2.692
65179W        W33542  36.914  35.542   0.795
65180W        W33543  25.674  42.317   0.931
65181W        W33544   8.700   4.756   3.781
65182W        W33545  21.202  17.559   1.280
65183W        W33546  10.801   8.716   0.305
65184W        W33547  34.568   8.664   0.848
65185W        W33548  21.227  13.804  10.560
65186W        W33549  10.340  34.461  11.419
65187W        W33550   0.952  21.084   1.260
65188W        W33551  23.665  31.897   2.287
65189W        W33552  24.165  36.909  14.894
65190W        W33553  20.065  25.089  13.911
65191W        W33554  14.138  12.847   4.162
65192W        W33555  43.306  27.013   3.234
65193W        W33556  38.421  28.103  10.921
65194W        W33557  16.653   0.867  13.010
65195W        W33558  24.013  29.083   5.283
65196W        W33559  44.484   9.272   2.775
65197W        W33560  34.121  34.403   1.860
65198W        W33561  44.332  35.464   2.723
65199W        W33562  31.507  16.665  10.542
65200W        W33563  35.365  15.667   3.355
65201W        W33564   5.902  41.340   3.219
65202W        W33565  22.022  21.643   4.693
65203W        W33566  28.501  40.376   1.350
65204W        W33567  34.039  38.373  14.399
65205W        W33568  31.544  12.680  14.355
65206W        W33569  34.073  30.076  13.335
65207W        W33570   0.767   7.838   0.341
65208W        W33571   0.897  23.117   0.943
65209W        W33572  11.813  34.061   3.352
65210W        W33573  16.145  26.012  11.027
65211W        W33574  12.358  22.595   4.120
65212W        W33575  23.208   6.320   3.694
65213W        W33576  34.050   5.779  12.947
65214W        W33577  15.322  19.596  10.987
65215W        W33578  18.773  11.857  12.088
65216W        W33579  39.388  36.019  14.027
65217W        W33580  27.627  24.217   1.770
65218W        W33581  18.242  35.884   2.216
65219W        W33582  44.413   9.284   1.708
65220W        W33583  31.898   0.759  11.855
65221W        W33584   8.821  41.821  11.518
65222W        W33585  22.138  28.032  11.400
65223W        W33586  34.952   9.191   1.775
65224W        W33587   9.699  41.953   1.280
65225W        W33588  23.069  21.734  10.509
65226W        W33589  20.750  17.749  13.823
65227W        W33590  35.480  44.947  13.059
65228W        W33591  29.641  14.280  10.529
65229W        W33592  41.932   2.926   0.318
65230W        W33593  43.328  26.701  11.050
65231W        W33594  14.791  35.394  10.907
65232W        W33595  15.580  12.311  14.502
65233W        W33596  31.418  41.440  13.879
65234W        W33597  35.082   5.231  13.913
65235W        W33598   3.743   1.419   9.580
65236W        W33599   8.219  13.117  12.495
65237W        W33600  43.011  10.334  14.976
65238W        W33601  33.001  43.936   0.466
65239W        W33602  38.499   1.913   4.691
65240W        W33603  24.147  21.692   1.714
65241W        W33604   1.464  39.489  11.557
65242W        W33605   7.413  16.613   1.368
65243W        W33606  14.299  23.557  14.887
65244W        W33607   3.372  24.610  14.433
65245W        W33608   4.425  42.895  14.772
65246W        W33609   5.840  37.569  12.477
65247W        W33610   9.302  17.210  14.864
65248W        W33611  16.167  24.056   0.437
65249W        W33612  28.120  10.767  12.513
65250W        W33613   4.330  37.500  11.956
65251W        W33614  30.911  25.124   0.762
65252W        W33615  18.220  24.157  12.438
65253W        W33616   6.792  15.764   4.324
65254W        W33617   2.886   7.859  14.032
65255W        W33618  44.792  38.426   3.727
65256W        W33619  11.840  26.004   1.843
65257W        W33620  33.017  10.807   2.791
65258W        W33621  11.777   0.827  13.545
65259W        W33622  27.119  18.050  13.329
65260W        W33623  36.009  39.341  12.093
65261W        W33624  25.682  20.180  11.995
65262W        W33625  12.315  29.559  10.633
65263W        W33626   5.295  37.917  14.785
65264W        W33627  30.477  28.182  12.860
65265W        W33628  15.222  35.393  10.441
65266W        W33629  10.354  18.193  10.928
65267W        W33630  29.559  41.332  12.502
65268W        W33631  40.360  23.547   1.702
65269W        W33632   9.197  13.734   0.455
65270W        W33633   4.796  36.375   1.353
65271W        W33634  19.628  11.687  13.048
65272W        W33635  21.564  22.088   0.431
65273W        W33636  32.886  10.692   1.373
65274W        W33637  22.159  35.442  13.491
65275W        W33638  19.739  42.877  11.483
65276W        W33639  22.650  14.166   2.756
65277W        W33640  39.491  43.017   3.259
65278W        W33641  23.633  30.018  11.903
65279W        W33642   0.262  35.586  14.388
65280W        W33643   7.334  34.471  11.029
65281W        W33644  37.959  24.671   4.292
65282W        W33645  13.264  21.199   3.819
65283W        W33646   8.216   7.307   3.638
65284W        W33647   8.225   6.730   1.362
65285W        W33648  26.077   3.351   3.856
65286W        W33649  43.786  23.622  11.508
65287W        W33650  38.366  41.043   2.325
65288W        W33651   4.214  16.650  12.485
65289W        W33652  38.936  20.130  12.571
65290W        W33653  26.063   6.381   4.625
65291W        W33654  25.683  11.797   1.256
65292W        W33655  18.636  18.753  14.810
65293W        W33656  11.310  21.749  13.412
65294W        W33657  41.510  42.335  10.988
65295W        W33658  10.236  41.844  12.430
65296W        W33659   9.245  42.837  14.376
65297W        W33660  33.580  22.226   1.788
65298W        W33661  15.269  11.323  11.885
65299W        W33662  27.636   7.410   2.413
65300W        W33663  28.536   1.849  13.826
65301W        W33664  21.032  31.899   2.890
65302W        W33665   5.695  40.319  12.916
65303W        W33666   9.756  35.490  10.551
65304W        W33667  13.316   2.771  13.970
65305W        W33668  41.492   4.828   1.237
65306W        W33669  37.010  26.555  10.923
65307W        W33670  17.793  33.071  12.854
65308W        W33671   7.206  26.567   3.340
65309W        W33672  14.194   6.254  12.357
65310W        W33673  13.165  40.462  14.992
65311W        W33674  28.664  35.510   3.348
65312W        W33675  20.161  25.988   4.718
65313W        W33676  24.124  28.681  11.487
65314W        W33677  34.041  10.170  10.483
65315W        W33678   7.672  20.106  14.027
65316W        W33679  38.991   2.910   4.601
65317W        W33680   2.914  27.597   1.412
65318W        W33681  32.135  29.173   2.316
65319W        W33682  44.824   9.701   3.197
65320W        W33683  25.032   0.262   3.373
65321W        W33684   1.875   0.482   9.522
65322W        W33685  35.484  25.576   2.274
65323W        W33686  12.154  15.298   1.786
65324W        W33687  14.210  18.588  13.434
65325W        W33688  44.904  18.608   0.837
65326W        W33689   3.734  30.951  11.127
65327W        W33690  33.056  21.725  12.919
65328W        W33691  33.520  13.693   3.382
65329W        W33692  35.491   3.302  12.496
65330W        W33693  42.398  15.716  11.609
65331W        W33694  25.682  19.147  13.947
65332W        W33695  40.041  14.599  14.007
65333W        W33696  20.612  44.777  13.000
65334W        W33697  10.379  15.319  11.501
65335W        W33698  34.482  15.184   3.253
65336W        W33699   1.449  26.505   1.895
65337W        W33700  28.984  11.863   3.229
65338W        W33701   0.778  16.296  10.410
65339W        W33702  21.518  35.006  13.970
65340W        W33703  34.894  31.004   3.751
65341W        W33704  42.941  43.988   3.218
65342W        W33705   0.403  17.598   2.771
65343W        W33706   1.322  20.739  12.021
65344W        W33707  41.359  40.924  14.468
65345W        W33708  20.768  12.752   3.163
65346W        W33709  15.745  13.732   3.179
65347W        W33710  31.948  40.379  11.889
65348W        W33711  30.595  27.147  14.481
65349W        W33712   6.416  15.310   1.701
65350W        W33713  41.380  21.519   1.272
65351W        W33714  26.494  32.519   4.277
65352W        W33715   1.818  42.401  10.645
65353W        W33716   2.910  34.091  13.327
65354W        W33717  23.172  14.632  12.884
65355W        W33718  12.248  11.195   2.418
65356W        W33719  13.658  37.467  12.837
65357W        W33720  33.937   4.706   0.919
65358W        W33721  23.041  19.611   0.902
65359W        W33722  32.064   3.849   2.283
65360W        W33723   6.750  26.612  14.429
65361W        W33724  18.618  38.423   2.413
65362W        W33725  42.381  21.261  14.975
65363W        W33726  42.330   1.237  10.495
65364W        W33727  16.199  24.554   3.775
65365W        W33728  19.603   6.294   0.472
65366W        W33729  11.835  21.222  12.459
65367W        W33730  33.562  37.936  11.926
65368W        W33731   1.305   2.871   2.867
65369W        W33732  24.206   8.293  13.976
65370W        W33733   9.720  11.794  10.449
65371W        W33734  29.065   0.440  11.117
65372W        W33735  15.246  43.300   0.248
65373W        W33736  32.100  44.782  11.472
65374W        W33737  25.043  34.478   2.863
65375W        W33738   9.256  42.441  10.529
65376W        W33739  32.121  19.218   4.161
65377W        W33740  40.034  22.112  11.929
65378W        W33741  38.899   1.474  11.371
65379W        W33742   5.902  18.572  13.512
65380W        W33743  21.210  16.777   2.363
65381W        W33744  36.045  21.573  11.087
65382W        W33745   1.291   2.382   4.681
65383W        W33746   9.214  29.424  10.584
65384W        W33747  17.723  43.410   9.942
65385W        W33748  12.227  36.917  11.020
65386W        W33749  24.159  19.205  11.571
65387W        W33750  11.781  23.626  13.058
65388W        W33751   1.422   1.771  14.948
65389W        W33752   8.883  36.531   2.883
65390W        W33753   5.301  42.932   4.666
65391W        W33754  37.369   6.214   2.392
65392W        W33755   0.321  12.778   1.902
65393W        W33756  43.380   4.932  10.438
65394W        W33757  37.967  16.797   1.842
65395W        W33758  13.699  23.646  12.924
65396W        W33759   8.808  16.210  14.413
65397W        W33760  34.006  30.469   2.826
65398W        W33761  31.017   6.279   0.948
65399W        W33762  23.517   3.812  11.008
65400W        W33763  18.774  42.997   1.315
65401W        W33764   1.752  20.565  12.835
65402W        W33765  28.080  14.833   2.867
65403W        W33766  29.639  13.198  14.932
65404W        W33767  13.205  10.833   4.205
65405W        W33768  31.988   9.708   1.232
65406W        W33769  31.506   8.894  12.565
65407W        W33770   3.763  18.289  14.498
65408W        W33771  40.872   1.815   3.728
65409W        W33772   4.735  21.228  14.871
65410W        W33773  13.626  19.726  14.850
65411W        W33774  10.337  43.295   3.801
65412W        W33775  40.016  28.029   0.748
65413W        W33776  30.001  32.473  10.599
65414W        W33777  39.521  32.394   4.170
65415W        W33778  18.216  16.682   1.834
65416W        W33779  32.970  42.290  13.534
65417W        W33780  34.907  41.944   4.740
65418W        W33781  15.798  38.901  14.892
65419W        W33782  31.482   1.964   0.896
65420W        W33783  21.037  26.081   0.909
65421W        W33784  36.424  44.805   4.673
65422W        W33785   9.341   9.232  12.543
65423W        W33786  22.665  14.671  12.345
65424W        W33787  42.469  27.673   0.813
65425W        W33788  15.746  30.075   4.719
65426W        W33789  19.715  24.014  10.485
65427W        W33790  43.454  25.112   3.213
65428W        W33791  34.998  28.551  13.961
65429W        W33792  34.113   1.778  13.433
65430W        W33793  26.670   0.418  10.044
65431W        W33794  26.495  37.084   0.755
65432W        W33795  27.165  15.628   1.376
65433W        W33796  12.358  36.390  11.535
65434W        W33797  16.317  18.252   4.233
65435W        W33798  38.511  41.442  11.487
65436W        W33799   7.859   7.723  14.463
65437W        W33800  41.867   5.884   3.853
65438W        W33801  15.174  41.036   0.806
65439W        W33802  18.760  36.091  13.947
65440W        W33803  22.144   9.212   4.323
65441W        W33804  33.936   0.777   5.149
65442W        W33805   1.828  28.612  14.466
65443W        W33806  14.102  36.923   1.220
65444W        W33807   8.871   3.933  13.433
65445W        W33808  38.905  31.513   1.327
65446W        W33809  21.748   2.398  12.945
65447W        W33810   3.814  17.083  11.490
65448W        W33811  36.911  22.637  10.567
65449W        W33812  15.802  13.819  13.895
65450W        W33813  14.101  14.128   2.208
65451W        W33814  22.730   6.710  10.569
65452W        W33815  15.614  24.546  14.925
65453W        W33816  18.650  22.656   3.737
65454W        W33817  28.173  33.399   4.331
65455W        W33818  35.387  33.002  11.986
65456W        W33819   7.685   7.301  14.311
65457W        W33820  23.179  36.892  13.448
65458W        W33821  32.574  42.894   1.869
65459W        W33822  10.684  37.028  12.428
65460W        W33823  15.156  33.901   0.893
65461W        W33824  17.743  27.627   0.955
65462W        W33825  20.540   5.733   1.367
65463W        W33826  25.217  20.530   2.278
65464W        W33827  30.088   7.840   4.123
65465W        W33828  13.771  34.880  12.018
65466W        W33829  13.625   4.412   2.236
65467W        W33830  12.360  31.964   2.186
65468W        W33831   1.479  40.925  10.906
65469W        W33832  40.872  41.877   4.135
65470W        W33833   5.848  14.309  11.000
65471W        W33834  43.906  32.929  14.406
65472W        W33835  30.631   5.354  10.440
65473W        W33836  10.815   5.386  12.474
65474W        W33837  26.484  39.009  14.347
65475W        W33838   1.280  23.028   1.373
65476W        W33839  10.153  12.629   2.849
65477W        W33840  41.924  21.091  12.923
65478W        W33841  41.326  35.080   1.709
65479W        W33842   8.337  42.376   4.352
65480W        W33843   4.206  36.916  14.770
65481W        W33844   5.243  14.605   4.622
65482W        W33845  33.461  36.479   0.916
65483W        W33846  13.244   0.465   2.263
65484W        W33847  41.492   0.478  13.473
65485W        W33848   7.675  14.721  11.468
65486W        W33849  38.429  38.988  12.524
65487W        W33850  17.177  25.037  12.080
65488W        W33851  36.523   4.347   1.773
65489W        W33852  17.195  31.472   4.158
65490W        W33853  25.075  29.949  14.879
65491W        W33854  31.472  23.518  10.976
65492W        W33855  16.296  37.066  14.890
65493W        W33856  29.934  33.417   4.348
65494W        W33857   2.909  36.992  12.929
65495W        W33858   5.306  14.707  12.345
65496W        W33859  39.873  42.426  14.020
65497W        W33860  35.973  43.894   4.226
65498W        W33861  29.115   2.332   4.115
65499W        W33862  13.258  25.193   3.713
65500W        W33863   7.187  17.721  14.852
65501W        W33864  34.952  21.256  14.770
65502W        W33865  32.548   7.293  12.064
65503W        W33866  28.603   0.438   2.308
65504W        W33867   2.907  28.478  12.008
65505W        W33868  20.595   7.754  10.517
65506W        W33869  29.519  17.691   1.808
65507W        W33870  24.135   7.357  11.084
65508W        W33871  39.341  21.040   3.266
65509W        W33872  19.730  29.467  14.375
65510W        W33873  12.743  33.126   3.370
65511W        W33874  34.555  19.681  14.996
65512W        W33875  16.663  31.978   0.315
65513W        W33876  40.044  33.115   3.257
65514W        W33877   4.942  38.333   3.270
65515W        W33878  18.232  30.151  12.864
65516W        W33879  39.883   3.308  14.477
65517W        W33880  12.783  38.827  12.944
65518W        W33881   8.317  33.610   3.230
65519W        W33882  27.470  24.631   3.793
65520W        W33883  19.276  36.040   0.833
65521W        W33884   5.698  23.034  12.424
65522W        W33885  30.164  20.630  11.453
65523W        W33886  12.195  26.697   1.803
65524W        W33887  36.007  22.581   3.630
65525W        W33888  38.352  13.226   1.734
65526W        W33889  41.842  37.530   1.315
65527W        W33890   5.851   7.675   0.817
65528W        W33891  41.895   0.469  12.994
65529W        W33892  12.118  12.222   0.363
65530W        W33893  40.043  23.228  12.032
65531W        W33894  35.567  31.961  13.042
65532W        W33895  18.631  43.310  10.566
65533W        W33896   3.372  15.668  14.004
65534W        W33897  10.351  23.182   3.333
65535W        W33898   7.708  25.989   0.944
65536W        W33899  40.947  34.043  12.411
65537W        W33900   1.960  34.940  14.987
65538W        W33901   6.848   8.808   3.264
65539W        W33902  44.459  44.458  11.109
65540W        W33903  35.589   7.324   1.905
65541W        W33904  36.358  36.087   4.151
65542W        W33905   2.758  30.155  11.970
65543W        W33906  24.090  17.235  12.988
65544W        W33907  20.752  44.844   0.398
65545W        W33908   4.776  44.261   1.750
65546W        W33909  22.033  24.719   1.410
65547W        W33910  24.629  34.883  12.393
65548W        W33911  44.504  15.737   1.283
65549W        W33912   8.892  30.604   0.467
65550W        W33913   6.199  20.673  14.958
65551W        W33914  23.236  41.436  13.493
65552W        W33915  10.269   0.337  14.501
65553W        W33916  19.632  12.258  12.421
65554W        W33917   3.756  26.169  13.386
65555W        W33918  14.702  34.566   0.791
65556W        W33919   6.235   6.722   1.288
65557W        W33920  36.875  14.146  14.969
65558W        W33921  42.340  38.444  12.905
65559W        W33922  26.661  25.537  14.360
65560W        W33923  10.204  43.342  10.567
65561W        W33924  33.883  25.697   0.841
65562W        W33925   1.976  41.387   2.228
65563W        W33926  22.640  40.876   4.218
65564W        W33927  25.484  24.169  13.495
65565W        W33928  32.984  32.551   1.241
65566W        W33929  41.835  19.613  13.024
65567W        W33930  23.586  16.249  10.589
65568W        W33931  23.586  12.720   2.763
65569W        W33932   0.929   5.388   1.423
65570W        W33933  16.707  42.828   0.422
65571W        W33934   2.369  24.159  14.321
65572W        W33935  24.151  27.963   0.914
65573W        W33936  23.044   6.343  11.896
65574W        W33937  27.446   2.741   3.855
65575W        W33938   4.241  22.572   2.227
65576W        W33939  22.635  29.953   4.188
65577W        W33940  38.348  39.901   4.262
65578W        W33941   6.826   5.295  13.977
65579W        W33942  40.830  11.183   3.259
65580W        W33943  10.346   2.917  10.939
65581W        W33944  14.196  14.796  11.887
65582W        W33945  16.271  31.407  12.513
65583W        W33946  27.682  40.511  10.903
65584W        W33947  19.641  26.482  12.958
65585W        W33948  37.414  10.334  11.458
65586W        W33949  21.226  44.286   4.745
65587W        W33950  14.654  11.800   2.891
65588W        W33951  28.651   3.327   4.832
65589W        W33952  38.885  14.274  12.369
65590W        W33953  25.158  12.294   1.933
65591W        W33954   6.313  35.602  12.580
65592W        W33955  25.626  17.230  11.428
65593W        W33956  10.856  28.069  14.791
65594W        W33957  42.355  36.020   1.845
65595W        W33958  12.159  33.536  14.866
65596W        W33959  36.953  14.623  14.849
65597W        W33960  13.660  42.977  14.319
65598W        W33961  24.175  28.541   4.233
65599W        W33962   6.907  44.396   2.345
65600W        W33963  23.718  15.580   0.362
65601W        W33964  19.540   9.806  14.025
65602W        W33965   4.251  41.313   1.827
65603W        W33966  31.117  26.065  12.860
65604W        W33967   8.800  40.457   2.258
65605W        W33968  23.027  22.643   2.799
65606W        W33969   8.250  25.475  12.357
65607W        W33970  17.136  16.712   2.241
65608W        W33971   3.246   0.318   0.455
65609W        W33972  18.752  33.043  11.939
65610W        W33973  11.861  27.556  14.446
65611W        W33974  37.988  33.591  13.952
65612W        W33975   3.244  33.506  10.511
65613W        W33976   5.334  34.473   1.753
65614W        W33977  42.911  29.163   1.898
65615W        W33978  36.460   4.880  14.362
65616W        W33979  11.822   1.960   4.800
65617W        W33980  34.935  11.308   4.158
65618W        W33981  43.309  14.168  14.889
65619W        W33982  44.989  39.950  13.993
65620W        W33983  16.655   9.884   3.692
65621W        W33984  15.734   2.904   2.700
65622W        W33985  39.334  11.752   1.290
65623W        W33986   8.242  17.192   2.754
65624W        W33987   2.885  14.306  13.948
65625W        W33988  38.512  10.160  13.468
65626W        W33989  26.050  21.697  10.948
65627W        W33990   1.935  42.485  13.030
65628W        W33991  20.090   2.744   3.253
65629W        W33992  26.466  38.876   4.801
65630W        W33993  13.689  13.283   0.336
65631W        W33994   3.370  44.006   1.356
65632W        W33995  12.190  25.632  11.061
65633W        W33996  31.076   8.400   4.284
65634W        W33997  11.816  26.702  14.857
65635W        W33998  34.948  25.514   0.889
65636W        W33999   9.384  35.076  13.835
65637W        W34000   8.748  32.104  12.926
65638W        W34001  25.502   8.711   2.269
65639W        W34002   7.343   4.255   0.299
65640W        W34003  21.545  43.289   0.802
65641W        W34004  39.928  38.474   0.365
65642W        W34005  34.453  25.100   0.273
65643W        W34006  44.993  20.031  12.551
65644W        W34007  26.063  36.976  12.849
65645W        W34008  26.053  13.627   2.782
65646W        W34009  26.158  26.021   1.770
65647W        W34010  22.730  35.507  10.965
65648W        W34011  29.066  15.709   1.733
65649W        W34012   6.838   4.366   2.208
65650W        W34013   1.824  41.357   3.642
65651W        W34014  12.694  37.581  12.465
65652W        W34015  31.049   9.699  10.619
65653W        W34016  12.643  14.274   2.770
65654W        W34017  33.021  28.098  13.449
65655W        W34018   2.954  33.596  10.623
65656W        W34019   3.794  35.430   0.816
65657W        W34020  22.637  24.148  11.380
65658W        W34021  24.708  23.005  12.883
65659W        W34022  14.303   3.436  10.096
65660W        W34023  25.504   9.885  14.760
65661W        W34024  25.542  25.710   4.748
65662W        W34025   5.327  10.646  11.037
65663W        W34026  36.547  27.116   2.319
65664W        W34027  32.559  40.053  13.348
65665W        W34028  37.469  27.172  14.463
65666W        W34029  18.580  18.765   0.749
65667W        W34030   5.830   5.407  14.939
65668W        W34031  11.787  11.311   3.688
65669W        W34032  33.441  41.796  14.961
65670W        W34033  42.443  26.548   0.473
65671W        W34034   0.394  22.732  13.905
65672W        W34035   9.758   9.652   3.640
65673W        W34036  24.214   1.838   2.735
65674W        W34037   6.911   8.286  13.511
65675W        W34038  13.722  42.490  12.049
65676W        W34039  32.966  13.644   1.867
65677W        W34040   5.356   9.764   2.249
65678W        W34041  40.474  36.998   4.607
65679W        W34042  10.273  40.506   2.409
65680W        W34043  18.175  18.609   4.633
65681W        W34044  22.599   3.718  12.484
65682W        W34045  15.208  42.283  10.560
65683W        W34046  22.095  38.867   4.176
65684W        W34047  20.533   6.759   4.269
65685W        W34048  34.032   0.808   4.339
65686W        W34049  22.716  31.559  13.994
65687W        W34050   3.413   1.810   1.430
65688W        W34051  20.146  29.091   1.307
65689W        W34052  21.546  35.565   0.832
65690W        W34053   3.897   6.397  11.878
65691W        W34054  18.215  20.643   0.832
65692W        W34055  37.927  17.105  13.354
65693W        W34056   6.905  30.457   0.403
65694W        W34057  38.513   5.692  14.993
65695W        W34058  15.815  11.236   2.694
65696W        W34059  13.155   7.703  13.810
65697W        W34060   8.311   3.906  14.908
65698W        W34061  43.291  19.216   1.229
65699W        W34062   2.925  38.930   0.420
65700W        W34063  15.817  41.792  10.553
65701W        W34064  44.844  18.660  13.840
65702W        W34065  40.422  41.992   2.373
65703W        W34066  36.899  11.713  10.431
65704W        W34067  20.073  11.309  10.435
65705W        W34068   6.418  17.581   0.410
65706W        W34069  41.973  31.985   9.931
65707W        W34070  14.754   7.270   3.217
65708W        W34071  23.716  35.066   0.422
65709W        W34072  10.774  28.022   0.418
65710W        W34073  26.590  19.055   1.264
65711W        W34074   7.281  39.828  10.538
65712W        W34075   6.892  30.986   1.809
65713W        W34076   0.325  36.367   0.781
65714W        W34077  23.547  25.676   2.777
65715W        W34078  25.563   0.442  11.944
65716W        W34079  38.921  15.116  10.584
65717W        W34080   9.855   1.842   4.652
65718W        W34081  29.155   9.805   4.617
65719W        W34082  26.182  20.244   4.216
65720W        W34083  34.499  31.024  13.928
65721W        W34084  28.141  39.832  13.044
65722W        W34085  40.542  21.744  11.992
65723W        W34086   3.278  22.611   0.939
65724W        W34087  44.395  20.260   4.163
65725W        W34088  39.827  12.709   4.147
65726W        W34089   8.899  22.997  12.978
65727W        W34090  16.784   2.727  14.921
65728W        W34091  14.106  24.571  14.975
65729W        W34092  43.842   1.334  11.912
65730W        W34093   5.713  20.113   0.426
65731W        W34094  35.984  42.919   3.660
65732W        W34095  18.783   9.869   4.609
65733W        W34096   8.830  29.156   2.797
65734W        W34097  35.432  31.037  13.837
65735W        W34098  19.229   3.906  12.357
65736W        W34099  44.848  28.977  10.582
65737W        W34100  24.112  15.781  10.477
65738W        W34101  43.957  44.812  11.880
65739W        W34102  26.032   5.878  11.126
65740W        W34103  26.172  21.637   4.168
65741W        W34104  29.968   1.831  12.430
65742W        W34105  10.331  35.894  10.429
65743W        W34106  38.051  44.304  14.504
65744W        W34107  25.618  21.029   0.891
65745W        W34108  18.061  19.263   3.764
65746W        W34109  23.124  39.461  12.932
65747W        W34110  23.572   6.823   4.295
65748W        W34111  23.217  38.381  11.515
65749W        W34112   2.917   2.407  12.501
65750W        W34113   8.728  20.742   2.733
65751W        W34114  23.707  21.256   1.860
65752W        W34115   4.860  41.807   2.230
65753W        W34116   8.328  21.648   4.323
65754W        W34117  38.033  17.140  14.804
65755W        W34118   6.729  11.797  10.928
65756W        W34119   9.263   9.739   2.752
65757W        W34120  30.551   0.437  10.989
65758W        W34121  41.860  23.186  12.532
65759W        W34122   5.704  35.480  10.907
65760W        W34123   4.406  33.525   3.793
65761W        W34124  37.469  17.802  11.597
65762W        W34125  44.405  17.247   5.144
65763W        W34126  43.398  13.721  10.991
65764W        W34127   5.820   9.365  13.873
65765W        W34128  37.902   6.334   0.807
65766W        W34129  22.545  17.757  11.389
65767W        W34130  38.035  33.601   2.399
65768W        W34131  25.097  42.787   2.266
65769W        W34132   5.767  15.132  14.379
65770W        W34133  30.476  35.053  14.023
65771W        W34134   4.931  23.687   3.174
65772W        W34135  26.087  15.639   0.799
65773W        W34136  23.598  22.505   1.827
65774W        W34137  18.587  12.250  11.949
65775W        W34138  16.210  13.732  11.386
65776W        W34139  35.575   8.721  11.048
65777W        W34140  16.674  36.518  11.536
65778W        W34141  34.896  28.017   4.340
65779W        W34142   6.810  38.893   2.774
65780W        W34143  15.150   3.315   4.151
65781W        W34144  39.841  17.215   2.879
65782W        W34145  43.000   6.238   5.308
65783W        W34146  13.231  19.094   1.376
65784W        W34147  12.776  28.537  13.917
65785W        W34148  41.299   2.406  13.413
65786W        W34149  35.449  38.027  13.310
65787W        W34150  38.409  11.351   2.370
65788W        W34151  25.499  32.055  11.474
65789W        W34152   9.384   6.820  14.007
65790W        W34153  13.290  22.053  12.520
65791W        W34154   9.359  39.429   3.250
65792W        W34155  34.916  28.973  12.386
65793W        W34156  27.948  37.408  13.372
65794W        W34157  37.922   0.871   2.871
65795W        W34158  29.598  25.075   3.365
65796W        W34159  44.272  18.778  13.828
65797W        W34160  14.639  19.700  10.532
65798W        W34161  44.328  25.677   1.805
65799W        W34162  12.832   4.808   4.272
65800W        W34163  30.448  36.088   1.705
65801W        W34164   8.273  30.971   4.718
65802W        W34165   1.976  17.267  14.820
65803W        W34166   3.738   6.303   0.433
65804W        W34167  32.510  27.576  11.109
65805W        W34168   0.858  21.120  14.919
65806W        W34169   8.314  41.327  12.542
65807W        W34170   5.309  25.705  13.904
65808W        W34171  30.962  37.985  11.878
65809W        W34172  21.196  37.396  13.844
65810W        W34173  16.786  11.370   4.679
65811W        W34174  19.670   1.297  10.888
65812W        W34175  34.973  10.721  14.794
65813W        W34176  15.742   1.462  14.843
65814W        W34177  40.854  18.548  11.508
65815W        W34178  24.646  36.451  11.467
65816W        W34179  17.091  22.743   1.838
65817W        W34180   2.363  18.752  13.474
65818W        W34181  34.035  43.905  12.530
65819W        W34182  18.161   4.251  11.114
65820W        W34183  33.494  41.010  13.480
65821W        W34184   5.790  26.001  13.413
65822W        W34185  13.242  30.070  13.375
65823W        W34186  16.080  23.550   2.677
65824W        W34187  20.659  38.894  13.530
65825W        W34188   8.191   6.255   2.829
65826W        W34189  26.138   7.681  12.517
65827W        W34190  30.099  40.466  10.510
65828W        W34191  18.652  19.175   0.298
65829W        W34192   2.918  37.044   4.308
65830W        W34193  13.675  44.842   1.420
65831W        W34194   3.828   9.884  12.036
65832W        W34195  21.730  42.782   0.807
65833W        W34196   1.296  18.085   1.823
65834W        W34197  39.475   1.335  13.359
65835W        W34198  31.954  26.961  14.843
65836W        W34199   0.842  14.206  13.371
65837W        W34200   2.314  22.523  10.491
65838W        W34201   6.806   7.197   2.389
65839W        W34202   5.235  25.212  13.483
65840W        W34203   1.810  16.149   3.372
65841W        W34204  14.315   0.822   3.672
65842W        W34205  18.125  41.968   4.630
65843W        W34206   0.357   9.814  11.128
65844W        W34207  38.887  11.832  12.353
65845W        W34208  11.644  35.511  11.119
65846W        W34209  39.033  29.984   4.758
65847W        W34210  15.611  14.744  13.319
65848W        W34211   7.746  10.714   0.934
65849W        W34212   6.256  25.062   4.349
65850W        W34213   4.849   0.445  13.324
65851W        W34214   2.274  20.196   2.414
65852W        W34215  43.425  27.183  14.499
65853W        W34216  30.153  16.770   2.766
65854W        W34217  29.928  41.382   4.653
65855W        W34218   7.411  37.083   3.203
65856W        W34219   0.892  13.708  10.466
65857W        W34220  42.923   8.722   2.360
65858W        W34221  28.160   0.262   2.229
65859W        W34222  27.077  17.618   2.764
65860W        W34223   7.322   4.342  12.393
65861W        W34224   0.321  31.042  14.906
65862W        W34225   5.762  33.595   0.309
65863W        W34226   9.262  40.824   4.670
65864W        W34227  43.476  21.095  13.387
65865W        W34228   1.464  23.680  14.345
65866W        W34229  15.221  23.179   3.327
65867W        W34230  40.508  34.533  11.371
65868W        W34231   4.708  15.201  13.837
65869W        W34232  36.049  11.334   3.709
65870W        W34233  11.204  27.973  13.838
65871W        W34234  13.260  26.500   1.336
65872W        W34235   3.286  30.020   0.820
65873W        W34236  18.553  16.118  10.914
65874W        W34237  26.468  40.925  14.391
65875W        W34238  10.836  23.047  12.842
65876W        W34239  42.914  19.225   4.610
65877W        W34240  38.003  36.549  12.047
65878W        W34241  14.749  14.780   4.819
65879W        W34242   6.356  42.985  12.946
65880W        W34243  41.533  21.017   0.441
65881W        W34244  33.612   3.778   1.931
65882W        W34245  39.373  17.752  14.022
65883W        W34246  35.940  41.501   0.413
65884W        W34247  27.538  22.106  10.995
65885W        W34248   7.693  42.792   0.439
65886W        W34249  26.635  40.902   0.890
65887W        W34250  15.131  20.687  14.514
65888W        W34251  36.450  10.236   1.898
65889W        W34252  23.228   6.886   2.835
65890W        W34253  12.159  41.407   4.216
65891W        W34254   8.818  13.235  12.954
65892W        W34255  38.856  33.470  10.578
65893W        W34256  20.734  23.031   2.198
65894W        W34257  25.191  24.642  12.080
65895W        W34258  30.549  20.568   2.190
65896W        W34259  35.957   4.303  13.912
65897W        W34260  29.111  35.503  14.913
65898W        W34261  41.868  14.721  14.884
65899W        W34262  22.199   5.414   4.152
65900W        W34263  44.299  33.985  14.478
65901W        W34264  42.335  18.596  13.325
65902W        W34265   7.846  44.999  11.974
65903W        W34266  40.496   8.704  14.356
65904W        W34267  38.970   8.694  10.899
65905W        W34268  25.197  27.683  12.487
65906W        W34269  25.630   6.282  11.395
65907W        W34270  18.291  41.021   3.186
65908W        W34271  37.376   2.863  12.422
65909W        W34272  13.237  12.722   0.400
65910W        W34273  34.090  11.678   4.836
65911W        W34274  24.498  40.427   4.606
65912W        W34275  42.811   4.326  14.472
65913W        W34276  14.675  11.255  14.865
65914W        W34277  36.475  22.032  13.952
65915W        W34278  11.220  15.234  14.930
65916W        W34279  37.942  39.488   2.289
65917W        W34280  31.910   4.920  10.610
65918W        W34281  22.150   8.328   3.333
65919W        W34282  11.269  14.337   1.804
65920W        W34283  40.039  18.620   4.667
65921W        W34284   8.725  31.143  10.984
65922W        W34285  37.538   9.876  10.954
65923W        W34286  12.342  25.590  10.558
65924W        W34287   7.863  13.817  12.548
65925W        W34288  15.650   9.711   3.200
65926W        W34289  31.641  21.682  14.794
65927W        W34290   2.944  34.118  14.297
65928W        W34291   0.298   1.381   1.724
65929W        W34292   2.735  27.554  14.390
65930W        W34293  40.363   8.362  11.857
65931W        W34294  23.649   6.687  12.887
65932W        W34295  21.199  22.213  12.087
65933W        W34296  38.931  40.503   3.789
65934W        W34297  29.067  29.170   3.165
65935W        W34298  34.573  35.576   4.711
65936W        W34299   2.406  13.793  14.883
65937W        W34300  38.485  34.486   1.339
65938W        W34301   0.989  36.521  11.556
65939W        W34302  12.742  18.622   0.266
65940W        W34303   6.851  17.615  14.996
65941W        W34304  18.207   4.787  14.358
65942W        W34305  43.498  14.674  13.864
65943W        W34306  42.887  34.596  10.570
65944W        W34307  13.718  43.946   1.792
65945W        W34308   2.249   9.733  14.956
65946W        W34309  36.401  18.264  14.499
65947W        W34310  24.178   9.688   0.807
65948W        W34311  43.441  19.258   1.933
65949W        W34312   9.848  14.311  10.511
65950W        W34313  18.140  10.866   2.267
65951W        W34314  16.597  34.007   2.846
65952W        W34315   9.880  16.654  12.493
65953W        W34316  23.650  43.333   3.763
65954W        W34317  35.594  32.469   0.891
65955W        W34318  17.181  32.016   0.243
65956W        W34319  26.542  40.804  13.008
65957W        W34320  16.242  33.990   2.372
65958W        W34321  20.532  20.129  13.997
65959W        W34322  24.674  22.715  12.412
65960W        W34323  20.644   0.875  13.331
65961W        W34324  24.197  43.789  10.503
65962W        W34325  40.533  41.823   1.810
65963W        W34326  12.661  23.533  10.502
65964W        W34327  21.059  14.713  13.050
65965W        W34328  22.025   5.359  12.987
65966W        W34329   4.236  27.666  13.980
65967W        W34330  20.075  13.304  14.943
65968W        W34331  16.089  37.367   4.791
65969W        W34332  25.173  31.040   0.339
65970W        W34333  39.905  43.946  14.999
65971W        W34334   0.464  23.524   1.316
65972W        W34335  35.365  26.641   0.960
65973W        W34336   9.272  29.470   2.365
65974W        W34337   9.712  16.190   0.272
65975W        W34338  13.347  22.044  10.446
65976W        W34339   2.359  44.370   1.763
65977W        W34340  11.726  35.893   2.877
65978W        W34341  16.301  26.495   0.300
65979W        W34342   8.848  27.597   0.747
65980W        W34343  16.104   5.823   0.855
65981W        W34344  13.341   6.679   3.811
65982W        W34345  25.088   4.217   1.727
65983W        W34346   2.378   5.320  12.569
65984W        W34347  44.304  44.884   4.244
65985W        W34348  10.178   0.919   5.127
65986W        W34349  10.821   8.792  11.861
65987W        W34350  42.787  21.585   1.222
65988W        W34351  42.311   9.647  13.916
65989W        W34352  10.638   6.223   2.899
65990W        W34353  13.227  15.771  10.080
65991W        W34354  18.259  36.410   0.326
65992W        W34355  31.937   7.326   4.629
65993W        W34356  26.500  11.852  13.501
65994W        W34357  21.614  20.118   4.799
65995W        W34358   4.276  38.863   3.811
65996W        W34359  25.144  21.606   1.317
65997W        W34360  30.111  28.095  13.526
65998W        W34361  15.746  36.521  11.372
65999W        W34362  42.288  39.976  13.312
66000W        W34363   1.867  19.576  13.488
66001W        W34364  15.622  16.150  11.411
66002W        W34365  15.103   8.764   1.789
66003W        W34366  44.478  38.017   0.321
66004W        W34367  43.817  17.743  14.310
66005W        W34368  26.497  24.539   2.748
66006W        W34369  30.433  25.683   1.452
66007W        W34370  38.949   4.880   1.872
66008W        W34371  20.112  15.244  12.966
66009W        W34372  40.379  28.118  11.473
66010W        W34373  24.162  28.946   1.371
66011W        W34374  35.402  27.986  13.826
66012W        W34375  13.802   3.881  10.008
66013W        W34376  33.531  17.209  12.352
66014W        W34377  26.007   4.255   4.129
66015W        W34378  39.866  12.632   3.765
66016W        W34379  28.499  38.392  14.349
66017W        W34380  10.343  18.130   2.893
66018W        W34381  28.127  19.599  13.016
66019W        W34382  35.946  42.471   3.225
66020W        W34383  21.645  36.898   3.649
66021W        W34384  20.579   3.743   2.678
66022W        W34385  11.279   4.813  13.005
66023W        W34386  32.443  35.063  14.901
66024W        W34387   0.258  22.581   3.832
66025W        W34388  20.210  25.555  11.882
66026W        W34389  39.419  16.267  12.503
66027W        W34390  31.427  19.081  12.504
66028W        W34391  40.334  37.938  10.950
66029W        W34392  28.016  22.197   1.296
66030W        W34393  13.700  25.977   4.603
66031W        W34394  28.986  10.164   4.163
66032W        W34395   5.692  17.195   0.299
66033W        W34396  18.129   1.353   1.789
66034W        W34397  26.533  22.598   1.301
66035W        W34398   9.677  37.557   3.378
66036W        W34399  16.711  14.244  14.275
66037W        W34400  31.538  31.585  14.922
66038W        W34401  42.786   7.849  14.365
66039W        W34402  28.667  40.307   3.673
66040W        W34403  36.064  41.992   3.788
66041W        W34404  22.625  26.187   4.169
66042W        W34405  37.979  39.881  14.977
66043W        W34406   6.402  40.877  14.387
66044W        W34407  10.199  14.708  10.958
66045W        W34408  15.094  12.747   3.243
66046W        W34409   4.872  25.169  13.444
66047W        W34410  24.598  13.211   2.898
66048W        W34411  26.000   7.884  12.992
66049W        W34412  42.966  41.393  12.069
66050W        W34413  39.492  11.143  12.377
66051W        W34414  18.254  17.619  12.941
66052W        W34415  32.056  41.852   2.788
66053W        W34416  43.838  40.427   0.912
66054W        W34417   0.837  36.028  13.050
66055W        W34418  36.078  39.923  14.858
66056W        W34419  35.367  38.973   1.285
66057W        W34420   1.924  23.090  10.588
66058W        W34421  13.641  32.496   1.802
66059W        W34422  44.850  33.574   2.400
66060W        W34423  19.769   7.747  12.062
66061W        W34424  41.813  10.358   0.375
66062W        W34425  12.817   2.953  10.414
66063W        W34426  44.291  11.274   0.405
66064W        W34427   0.463  25.026  12.348
66065W        W34428  23.993  40.542  11.879
66066W        W34429   9.343  42.328   4.741
66067W        W34430   1.842   5.204   0.374
66068W        W34431  41.812  39.541   4.645
66069W        W34432  13.130  30.910   2.408
66070W        W34433  16.110   4.294   1.706
66071W        W34434  26.136  39.978  12.495
66072W        W34435  22.180  34.519   1.347
66073W        W34436  32.006  14.337  14.481
66074W        W34437  12.775   5.855  11.501
66075W        W34438  23.053   9.820   1.848
66076W        W34439   5.725  28.595   1.341
66077W        W34440  11.862  22.732  10.893
66078W        W34441  17.762  20.212   2.385
66079W        W34442   2.866  35.050   2.701
66080W        W34443  35.388   4.848  10.042
66081W        W34444  39.331   4.772   3.766
66082W        W34445  15.254  12.155   3.820
66083W        W34446  42.884  40.400   4.665
66084W        W34447  24.478  13.781   0.289
66085W        W34448  42.787  32.559  11.481
66086W        W34449   9.690  27.007  13.995
66087W        W34450  36.089  35.495  14.427
66088W        W34451  37.974  35.994  10.998
66089W        W34452  16.148  11.246   3.262
66090W        W34453  32.008  34.504  10.092
66091W        W34454  43.502   4.909  14.937
66092W        W34455  37.851  24.596  13.995
66093W        W34456  35.069  16.737  13.421
66094W        W34457   4.848   4.709   5.219
66095W        W34458  38.394   0.363   1.291
66096W        W34459  32.108  13.170   0.924
66097W        W34460  37.549   4.853  10.514
66098W        W34461  40.319  15.271  14.960
66099W        W34462  34.952  42.866  13.901
66100W        W34463  15.680  13.309   5.268
66101W        W34464  23.988   8.768  10.513
66102W        W34465  34.483  26.578   1.847
66103W        W34466  28.018   4.244   2.832
66104W        W34467  44.427  29.623  14.363
66105W        W34468   1.394   8.704   0.440
66106W        W34469  30.589  34.532   3.197
66107W        W34470   5.761  35.016   1.924
66108W        W34471   0.329   3.936   1.252
66109W        W34472   4.287  13.697   2.796
66110W        W34473  19.618  15.803   0.354
66111W        W34474  33.382  37.352  12.441
66112W        W34475  44.953  30.628   5.180
66113W        W34476  30.101  43.394  11.429
66114W        W34477  19.750  20.730   4.245
66115W        W34478  23.122   3.885  13.054
66116W        W34479  43.983  17.062   0.841
66117W        W34480  15.819  13.113  12.460
66118W        W34481  31.019   7.707  14.310
66119W        W34482   9.680  11.822  13.824
66120W        W34483   8.239   7.310   2.793
66121W        W34484  20.099   8.317   0.786
66122W        W34485  11.337  21.257   4.196
66123W        W34486  24.509  41.797  12.930
66124W        W34487  20.221  15.722   1.288
66125W        W34488  29.002   3.226   5.306
66126W        W34489  26.683  33.048   0.785
66127W        W34490  34.867  20.655   3.727
66128W        W34491  34.118  44.404   2.303
66129W        W34492  12.831  40.443  14.279
66130W        W34493   4.278  38.367  13.865
66131W        W34494  31.152   7.172   1.387
66132W        W34495  44.838   4.740  14.817
66133W        W34496   2.391  28.018   4.821
66134W        W34497  11.209  42.009  12.832
66135W        W34498  35.077  27.149  11.063
66136W        W34499   1.827  12.305   3.689
66137W        W34500  37.521  30.964  11.575
66138W        W34501  34.106   7.679   2.322
66139W        W34502   9.741   4.733  10.936
66140W        W34503  35.931   4.445   2.736
66141W        W34504   7.874  38.945  10.494
66142W        W34505   5.842  26.131   0.774
66143W        W34506  26.207  25.074   1.884
66144W        W34507   4.907  38.415   2.237
66145W        W34508   1.834  22.674   1.337
66146W        W34509  26.695  24.102  10.606
66147W        W34510  17.570  18.134  14.982
66148W        W34511  39.015   1.871  10.636
66149W        W34512  19.743  11.834  12.352
66150W        W34513  27.174  37.418   5.243
66151W        W34514  21.171  18.770   1.840
66152W        W34515  14.647  26.640  11.450
66153W        W34516  40.890  16.137   3.646
66154W        W34517  24.013  44.399   9.937
66155W        W34518  23.067  16.577  11.982
66156W        W34519  32.467  40.415   0.940
66157W        W34520  18.128  29.130  14.397
66158W        W34521   3.442   0.350  11.066
66159W        W34522   0.851  11.128  14.835
66160W        W34523  34.598  25.212   1.903
66161W        W34524  18.202   5.215   2.211
66162W        W34525  16.593  24.678  14.007
66163W        W34526   1.281  41.441   0.942
66164W        W34527  28.517  15.691  13.061
66165W        W34528  31.612  27.072  14.982
66166W        W34529  17.274  10.349   0.288
66167W        W34530  37.024   8.829   2.873
66168W        W34531   8.901  16.144   4.286
66169W        W34532  40.523  34.044   0.808
66170W        W34533   0.964  11.696   0.815
66171W        W34534   2.788   4.257   2.791
66172W        W34535  36.050  22.130  12.994
66173W        W34536  40.318  36.090   2.262
66174W        W34537  10.215  35.425   5.092
66175W        W34538  42.011  31.517  13.802
66176W        W34539  25.468  15.718   2.196
66177W        W34540  43.278   6.423  12.378
66178W        W34541  28.677  14.278  14.503
66179W        W34542  36.974  18.277   2.750
66180W        W34543   3.270   5.729  11.515
66181W        W34544  17.587  18.095  12.476
66182W        W34545  36.456  12.237   1.423
66183W        W34546  31.962  37.518  10.001
66184W        W34547  10.179  15.219   3.211
66185W        W34548   8.711  34.386  10.539
66186W        W34549  34.515   5.407  13.839
66187W        W34550   8.670  21.677  14.879
66188W        W34551  30.441   7.868  10.953
66189W        W34552  35.002  16.738   2.397
66190W        W34553  31.507   9.644  14.515
66191W        W34554  27.672  12.721  14.807
66192W        W34555   5.392   9.861   2.807
66193W        W34556   6.874  13.224  13.060
66194W        W34557  30.005   9.763   2.202
66195W        W34558  20.222   7.775   0.470
66196W        W34559  33.062  42.466  14.418
66197W        W34560  35.405   0.446   3.208
66198W        W34561  41.325   2.419   2.391
66199W        W34562  10.675  11.773  11.488
66200W        W34563  22.180  24.521  14.929
66201W        W34564  36.468  44.447   5.174
66202W        W34565  38.504  20.699  10.541
66203W        W34566  24.521  37.926  11.872
66204W        W34567   5.725  36.408   4.799
66205W        W34568  24.988   6.412  14.767
66206W        W34569  14.276  10.364  11.498
66207W        W34570  28.590  10.162  13.814
66208W        W34571  27.482  36.405  13.403
66209W        W34572  31.975  28.042   3.294
66210W        W34573  42.369  20.050  13.341
66211W        W34574   9.307   2.416   1.876
66212W        W34575   7.293  16.756  14.778
66213W        W34576  12.621  13.843   1.849
66214W        W34577   7.284   0.841   0.743
66215W        W34578  31.404  33.533   4.279
66216W        W34579  27.150  24.501   4.660
66217W        W34580  16.100  29.617  12.400
66218W        W34581   4.270  35.529   0.254
66219W        W34582  31.502   5.889  11.908
66220W        W34583   0.341  19.753  12.546
66221W        W34584  34.422  22.722  11.998
66222W        W34585  38.458  43.330  13.049
66223W        W34586  41.533  32.948   1.835
66224W        W34587  24.570  15.605   4.134
66225W        W34588  37.546  37.064   0.949
66226W        W34589  37.074   4.406   1.387
66227W        W34590   1.737  31.101  11.530
66228W        W34591   8.723  26.694  11.454
66229W        W34592   6.676  15.589  11.923
66230W        W34593  13.344  14.134  12.475
66231W        W34594  44.973  36.428   3.722
66232W        W34595  38.851  32.037   5.264
66233W        W34596  12.130   5.867   5.217
66234W        W34597   7.287   6.717  13.025
66235W        W34598  17.254   5.726  11.501
66236W        W34599  34.536  13.170  11.886
66237W        W34600  23.545  38.453   3.149
66238W        W34601  29.670  31.521   3.227
66239W        W34602  42.426  27.942  14.413
66240W        W34603  12.121  30.451  14.931
66241W        W34604  18.744  36.942  12.476
66242W        W34605  28.442  26.979  13.042
66243W        W34606  12.181  12.321  14.784
66244W        W34607  14.631   0.261   1.347
66245W        W34608  36.572  16.177  11.380
66246W        W34609  14.104  40.533  11.119
66247W        W34610  29.460  38.457  11.003
66248W        W34611  26.457  11.686   0.896
66249W        W34612  12.802   9.690  12.518
66250W        W34613  31.974  31.559   3.374
66251W        W34614  27.958  26.469   1.777
66252W        W34615   5.346  23.004  14.308
66253W        W34616  10.215   1.360   2.377
66254W        W34617  34.495  18.264   3.674
66255W        W34618  43.509  40.012  10.919
66256W        W34619  43.269   8.717  14.010
66257W        W34620  29.490  14.695   1.843
66258W        W34621   9.215  31.645  13.902
66259W        W34622  38.908  21.526  14.303
66260W        W34623   6.370  41.478   1.921
66261W        W34624  24.513  10.233  14.479
66262W        W34625   7.802  37.410   5.231
66263W        W34626  30.477  14.151  12.870
66264W        W34627  33.050  40.491  13.012
66265W        W34628   3.903  19.689   0.287
66266W        W34629  15.700  41.450   5.287
66267W        W34630  18.682   2.248  13.983
66268W        W34631  14.748   6.727  10.040
66269W        W34632  43.366  42.822   2.221
66270W        W34633  30.652   3.710  11.562
66271W        W34634  33.061  27.192   1.725
66272W        W34635  19.696  33.128   0.397
66273W        W34636  42.986  34.454   5.296
66274W        W34637  27.988  19.267  14.448
66275W        W34638  27.654  33.963   2.276
66276W        W34639  14.755  23.118  11.015
66277W        W34640  19.099   0.360  13.398
66278W        W34641  20.572  10.147  14.004
66279W        W34642   6.252  23.520   1.700
66280W        W34643  21.155  22.166  12.387
66281W        W34644  44.281   8.340  13.063
66282W        W34645   7.868  10.791  12.075
66283W        W34646   0.368  39.335  10.591
66284W        W34647   5.743  18.050  10.921
66285W        W34648  29.454   5.799   1.834
66286W        W34649  20.607  14.207   3.214
66287W        W34650  11.353   7.236  14.853
66288W        W34651  42.030   2.398   3.352
66289W        W34652  28.548  13.846  13.340
66290W        W34653  31.010  42.794  11.059
66291W        W34654   6.753  15.820   1.833
66292W        W34655  17.130  29.981   2.863
66293W        W34656  35.855  33.122   4.199
66294W        W34657  10.331   2.724  13.017
66295W        W34658  44.296  36.382  12.525
66296W        W34659  34.916  33.076   1.823
66297W        W34660  40.340  31.972  14.387
66298W        W34661  40.351   4.277  12.014
66299W        W34662  20.665   3.370  11.996
66300W        W34663  12.254  17.569  11.016
66301W        W34664  14.295  43.315  13.398
66302W        W34665   1.947  34.945   0.346
66303W        W34666  38.828   1.312   3.694
66304W        W34667   0.763  17.163   2.871
66305W        W34668  17.080  30.546  11.121
66306W        W34669   7.209  34.403  12.038
66307W        W34670  34.563  33.518  11.605
66308W        W34671   1.323   8.165   4.270
66309W        W34672  32.135  22.085   2.361
66310W        W34673  19.769  38.329  10.948
66311W        W34674   3.383   3.412   3.225
66312W        W34675  12.744  42.409   4.765
66313W        W34676   5.260   0.360  11.540
66314W        W34677  32.557   2.457   1.857
66315W        W34678  36.863  27.070   2.890
66316W        W34679  12.669  14.799  12.920
66317W        W34680   3.715  14.636  10.536
66318W        W34681  37.037  22.714  14.905
66319W        W34682  41.809  37.474   0.272
66320W        W34683   3.734  22.737  13.450
66321W        W34684   6.346   7.710   2.335
66322W        W34685   8.188  30.962   0.835
66323W        W34686  44.936  44.920   4.646
66324W        W34687  15.722  37.382   5.289
66325W        W34688   9.861  19.129  10.496
66326W        W34689  42.803   5.838   3.289
66327W        W34690  15.642  12.735   4.314
66328W        W34691  28.663  29.933   3.642
66329W        W34692  31.042  27.650   9.481
66330W        W34693  17.690  30.982   1.246
66331W        W34694  28.508   1.298  10.558
66332W        W34695  37.916  41.950   4.662
66333W        W34696  24.577  25.644  13.042
66334W        W34697  11.751   1.825  11.072
66335W        W34698   6.777  17.197  12.871
66336W        W34699  32.102   9.208  14.837
66337W        W34700  26.955  32.622   0.905
66338W        W34701   4.784  15.717  10.536
66339W        W34702   0.781  21.135   0.731
66340W        W34703  33.543   3.721  13.967
66341W        W34704  41.522  31.089  12.359
66342W        W34705  36.538  27.960  11.412
66343W        W34706  40.806  43.964   2.208
66344W        W34707   8.739   2.784  10.579
66345W        W34708  25.686   3.828  14.378
66346W        W34709   0.822  28.670   0.300
66347W        W34710  35.045  33.922   2.746
66348W        W34711   9.695  24.012   0.922
66349W        W34712  33.390   9.670  13.520
66350W        W34713   7.195  40.385   0.312
66351W        W34714   3.919  34.589  11.533
66352W        W34715  26.198  13.815   5.806
66353W        W34716  36.510  25.488  10.565
66354W        W34717  41.463  27.185   1.864
66355W        W34718  21.534  37.496  14.943
66356W        W34719  10.200  39.033   0.753
66357W        W34720  33.526  39.844  14.868
66358W        W34721  14.701  14.142  12.358
66359W        W34722  13.154  20.238   0.879
66360W        W34723   1.969   2.405   0.323
66361W        W34724  14.311   8.296   4.675
66362W        W34725  14.265  26.552  14.890
66363W        W34726  39.038  14.611   1.817
66364W        W34727  41.417  14.329   2.691
66365W        W34728  38.564  17.745   2.688
66366W        W34729   8.682  20.526   0.383
66367W        W34730   0.432  42.863  13.318
66368W        W34731  23.111  44.940   1.370
66369W        W34732   4.227  20.249  11.122
66370W        W34733  23.229  41.429  12.461
66371W        W34734   8.740   5.702  13.393
66372W        W34735   6.682  31.941  13.817
66373W        W34736   0.868   5.430   2.395
66374W        W34737  43.841   1.879   0.738
66375W        W34738  35.523  39.386   4.165
66376W        W34739  27.079   4.210  11.962
66377W        W34740  26.569  28.996  12.536
66378W        W34741   4.303  29.963  11.546
66379W        W34742  14.754  24.159  12.463
66380W        W34743  25.610  23.568   0.882
66381W        W34744   3.269  22.083  13.056
66382W        W34745  24.722  15.821  10.559
66383W        W34746  25.679  22.737  13.940
66384W        W34747   9.169  30.438  14.885
66385W        W34748  15.198  40.367  12.419
66386W        W34749   5.249  17.566   2.409
66387W        W34750  34.024  43.986   3.363
66388W        W34751   1.792  13.212  11.953
66389W        W34752  13.184   6.868   4.679
66390W        W34753  17.154   4.255   3.637
66391W        W34754  19.710   0.346  13.912
66392W        W34755  31.485   9.843  11.993
66393W        W34756  40.390   9.867   3.770
66394W        W34757   5.344   0.924  14.323
66395W        W34758   0.429  43.272  10.486
66396W        W34759  42.861   0.813   4.761
66397W        W34760   5.715   1.438  14.286
66398W        W34761  28.672  25.556  13.990
66399W        W34762  16.220   2.956  12.825
66400W        W34763  21.710   2.763  14.352
66401W        W34764  23.547   4.738   3.684
66402W        W34765  31.085  24.688  12.570
66403W        W34766  37.343  27.450  10.143
66404W        W34767  16.671  22.203  14.435
66405W        W34768   2.406  41.879   4.787
66406W        W34769  33.585  18.219  10.888
66407W        W34770  20.265  17.150  10.107
66408W        W34771  28.048  12.820  11.519
66409W        W34772  27.609  34.864  12.078
66410W        W34773  27.574  13.654  10.459
66411W        W34774  15.114  33.918  11.049
66412W        W34775  31.124  33.129  10.542
66413W        W34776   6.720  24.115   0.434
66414W        W34777  21.217   5.757  14.906
66415W        W34778  44.884  25.060   1.364
66416W        W34779   7.229  41.372   4.681
66417W        W34780  30.513   9.326   0.303
66418W        W34781   6.808  41.931   3.685
66419W        W34782  37.960  26.166   0.907
66420W        W34783  33.463  25.161  14.461
66421W        W34784  32.067  14.758  12.384
66422W        W34785   7.323  21.119   2.273
66423W        W34786  19.642  23.093   1.890
66424W        W34787  41.521   3.453   1.729
66425W        W34788   8.269   6.279  13.333
66426W        W34789  33.888  17.605  12.538
66427W        W34790  24.494  30.015  12.017
66428W        W34791   6.794  25.130   1.320
66429W        W34792  44.785  26.071  11.123
66430W        W34793  11.796   3.306   4.298
66431W        W34794   3.394  44.925   3.655
66432W        W34795  36.941  20.130  13.488
66433W        W34796   9.308  30.647   4.199
66434W        W34797  32.062   6.303   4.682
66435W        W34798  36.922  26.012  12.082
66436W        W34799  18.180  40.377   3.270
66437W        W34800   7.230   2.843  10.628
66438W        W34801   4.406  11.734  10.412
66439W        W34802  44.814   2.289   1.251
66440W        W34803  14.300   8.692  11.554
66441W        W34804  37.028  16.137   3.214
66442W        W34805  16.284  12.719  10.453
66443W        W34806  11.288  16.685  13.914
66444W        W34807   0.478  24.548   2.671
66445W        W34808  38.023  31.043   3.168
66446W        W34809  30.112  43.810   0.430
66447W        W34810  23.515  33.594  10.971
66448W        W34811  13.833  34.989   2.212
66449W        W34812  37.533  31.915  11.053
66450W        W34813   9.726   7.900  11.420
66451W        W34814  28.515  22.716  12.067
66452W        W34815  14.282  24.028  10.891
66453W        W34816  33.494   4.350  13.927
66454W        W34817   7.228  38.434  13.947
66455W        W34818  15.673   1.281  13.805
66456W        W34819   0.468  39.853  13.956
66457W        W34820  28.488  16.229  10.478
66458W        W34821  42.876  40.956  13.359
66459W        W34822  34.385  41.800  11.889
66460W        W34823  42.324   8.314   2.416
66461W        W34824   3.926  32.549  10.407
66462W        W34825   8.180  27.065   2.395
66463W        W34826  40.344  30.653  12.969
66464W        W34827  43.279  22.517  13.906
66465W        W34828   3.325  31.624   0.454
66466W        W34829  27.954  27.023   4.128
66467W        W34830  21.736  29.666   9.967
66468W        W34831   0.764  17.088  14.464
66469W        W34832  20.260  44.274  13.946
66470W        W34833  33.485  43.281   0.323
66471W        W34834  18.259   1.755  13.039
66472W        W34835  38.525  28.524  12.046
66473W        W34836  29.499  16.191   2.873
66474W        W34837  36.018  18.585   1.787
66475W        W34838  15.667  33.082  11.559
66476W        W34839   7.298  24.696  11.410
66477W        W34840  42.525  34.551   4.677
66478W        W34841  13.157  37.086  12.912
66479W        W34842  43.998  41.401   0.916
66480W        W34843  16.132  41.903   0.287
66481W        W34844  11.689  35.358  12.926
66482W        W34845  15.735   7.331   0.861
66483W        W34846   9.814  40.802   0.834
66484W        W34847  39.357  35.884   2.860
66485W        W34848  10.365  32.094  11.900
66486W        W34849  36.585  44.471  10.894
66487W        W34850  14.618  36.400   0.966
66488W        W34851  30.509  39.040  14.991
66489W        W34852   4.837  19.725  10.024
66490W        W34853   6.211  32.123  14.785
66491W        W34854  16.160  26.068  11.399
66492W        W34855  39.512  19.582  12.540
66493W        W34856  40.366  18.789  12.976
66494W        W34857  39.929   1.304   2.777
66495W        W34858  29.600  14.161  11.115
66496W        W34859  18.124  22.516   1.369
66497W        W34860  18.157  35.898  13.935
66498W        W34861  22.673  44.753   4.293
66499W        W34862  10.652  22.687  10.907
66500W        W34863   2.304  10.261   3.372
66501W        W34864  25.073  21.143  14.417
66502W        W34865   0.765  41.420  10.531
66503W        W34866  15.166  43.358   3.290
66504W        W34867  13.839  11.773  10.532
66505W        W34868  21.208  26.549  13.902
66506W        W34869   4.704  24.070   3.801
66507W        W34870  15.149  19.617  12.982
66508W        W34871   0.850  37.059  12.487
66509W        W34872  26.622  12.148   2.374
66510W        W34873  30.481   3.394   2.214
66511W        W34874  40.320  30.513  12.405
66512W        W34875   4.872  10.803   4.792
66513W        W34876   3.737  11.793  11.497
66514W        W34877  29.510  16.587   4.241
66515W        W34878  17.231   1.265  13.969
66516W        W34879   9.772   6.759   3.176
66517W        W34880  25.666   6.253   0.400
66518W        W34881  39.390  19.151   1.897
66519W        W34882  34.993   0.767  14.278
66520W        W34883   3.828  29.626  13.344
66521W        W34884  40.391  43.424  12.081
66522W        W34885   2.330  10.154  10.615
66523W        W34886  36.498   0.365   0.270
66524W        W34887   0.335  23.558  13.309
66525W        W34888  26.629  23.188  13.453
66526W        W34889  18.738  37.552   0.888
66527W        W34890  11.716  37.485   4.233
66528W        W34891   0.748  36.458  10.981
66529W        W34892  21.259  15.324  13.900
66530W        W34893  41.522   1.284   2.851
66531W        W34894  13.306  38.359   3.867
66532W        W34895  36.474  43.308   2.789
66533W        W34896  15.320   1.795  11.483
66534W        W34897   3.270  32.467   1.758
66535W        W34898   4.404   7.883   4.715
66536W        W34899   7.747  11.692   0.346
66537W        W34900   8.402  16.278   1.263
66538W        W34901  39.374   2.436  13.311
66539W        W34902  29.522  34.491   1.415
66540W        W34903  27.114  11.305   0.750
66541W        W34904  34.561   2.248  11.578
66542W        W34905  38.467  27.511   0.423
66543W        W34906   7.891  26.670  11.567
66544W        W34907   6.270  13.320   1.733
66545W        W34908  12.191  11.182   2.846
66546W        W34909  18.673   6.339  12.077
66547W        W34910   4.735   4.409  12.983
66548W        W34911  43.272  33.562  11.884
66549W        W34912  14.626  17.292  12.533
66550W        W34913   6.407  26.516  14.341
66551W        W34914   5.238  43.327   2.201
66552W        W34915  15.302  40.546   3.775
66553W        W34916  14.651  15.142   1.424
66554W        W34917   3.381  30.462  10.474
66555W        W34918   8.728  43.470   4.626
66556W        W34919  26.694  20.531  10.547
66557W        W34920  31.083  12.757   2.687
66558W        W34921   9.276  28.147  13.795
66559W        W34922   8.249  40.499   3.187
66560W        W34923  17.070  21.576  14.303
66561W        W34924  43.444   7.240   4.671
66562W        W34925  34.443   8.376   4.626
66563W        W34926  25.673  31.121   3.757
66564W        W34927  13.713  43.491   3.681
66565W        W34928  35.580  23.665  14.930
66566W        W34929  23.066  18.659  13.530
66567W        W34930   8.241  44.397   1.423
66568W        W34931  39.890   7.384  11.523
66569W        W34932  12.643  13.785  14.510
66570W        W34933  33.569  18.576  10.132
66571W        W34934  41.042  23.496  14.004
66572W        W34935  30.489  30.096   4.172
66573W        W34936  35.597   3.292   0.863
66574W        W34937   9.712  15.686  13.880
66575W        W34938  37.554   5.213  14.809
66576W        W34939   0.265  30.912  10.920
66577W        W34940  16.260  21.600   1.383
66578W        W34941  28.638   3.797   0.927
66579W        W34942  23.616  10.677  14.344
66580W        W34943   7.214  26.166  12.455
66581W        W34944   3.416  20.651  13.032
66582W        W34945  44.847   4.228  12.950
66583W        W34946  15.308  21.568   2.789
66584W        W34947  36.098   1.924   1.412
66585W        W34948  18.111  22.190   4.280
66586W        W34949  28.935  18.789   3.177
66587W        W34950  26.564  12.613  12.089
66588W        W34951  39.916  39.858  14.870
66589W        W34952  11.696  10.196   1.310
66590W        W34953  15.577  39.441   1.413
66591W        W34954   4.716   0.367   2.412
66592W        W34955  11.644   9.289   0.479
66593W        W34956  27.023  13.656  11.941
66594W        W34957  23.549  41.898   1.811
66595W        W34958  38.504  18.145  12.922
66596W        W34959  30.471   2.407  13.884
66597W        W34960  23.180  16.199   4.787
66598W        W34961   8.203  26.105   0.842
66599W        W34962  36.965  24.635   1.718
66600W        W34963  42.407  25.613   4.790
66601W        W34964  34.100  14.803  14.896
66602W        W34965  29.496  20.627   0.759
66603W        W34966   7.244  33.889  11.407
66604W        W34967  43.989   0.473  11.409
66605W        W34968  37.546  10.271   4.151
66606W        W34969   5.814   7.262   2.759
66607W        W34970  42.898  14.265   3.791
66608W        W34971  29.631  40.522   4.659
66609W        W34972   6.853   8.834   3.776
66610W        W34973  25.101  33.896   1.718
66611W        W34974  25.697  34.578   4.609
66612W        W34975  21.259  34.427   2.390
66613W        W34976  38.045  33.481  12.833
66614W        W34977   0.409  19.661  11.442
66615W        W34978  18.643   6.710   0.797
66616W        W34979  15.110  30.600   3.266
66617W        W34980  42.889   4.436  13.485
66618W        W34981   0.437   0.346   1.840
66619W        W34982  40.850  38.392   3.280
66620W        W34983  18.190  33.904   1.420
66621W        W34984  40.355  21.041   4.780
66622W        W34985  10.831  37.542   1.814
66623W        W34986  25.189  14.692  10.988
66624W        W34987   4.745  32.581   4.735
66625W        W34988  44.379  13.305  11.993
66626W        W34989  17.155   1.326  11.402
66627W        W34990  17.233  44.271   0.393
66628W        W34991  20.676  44.416  13.062
66629W        W34992  15.151  27.118   1.902
66630W        W34993  26.508  41.532   3.320
66631W        W34994  32.030   3.454  14.397
66632W        W34995  10.723   4.752  11.475
66633W        W34996  12.841  27.496  13.829
66634W        W34997   0.357  22.223  10.905
66635W        W34998   8.749  36.006   4.327
66636W        W34999  37.927   4.769  12.976
66637W        W35000  11.145  17.136   2.352
66638W        W35001  32.419  20.048  14.789
66639W        W35002  42.404  28.153   2.751
66640W        W35003  38.517  42.300  12.058
66641W        W35004   9.234   7.342   4.682
66642W        W35005  21.570  40.478   3.800
66643W        W35006   3.275  15.316  14.302
66644W        W35007  13.745  17.725  12.351
66645W        W35008  14.665   3.837  14.855
66646W        W35009  25.966  23.516  11.897
66647W        W35010  35.930  22.042  10.417
66648W        W35011  18.157  22.207   2.255
66649W        W35012  38.831  22.722   2.365
66650W        W35013  21.540  30.574   4.165
66651W        W35014  44.960  44.985   0.358
66652W        W35015  19.650  25.202   3.332
66653W        W35016  20.166  40.442   1.333
66654W        W35017  13.152  20.065  10.899
66655W        W35018  21.544  16.288  10.522
66656W        W35019  29.452  40.035  11.504
66657W        W35020  10.176  32.077   2.301
66658W        W35021  17.619  20.084   3.328
66659W        W35022  19.724   2.290   3.363
66660W        W35023  20.109  10.817  12.525
66661W        W35024  32.929   0.804   1.274
66662W        W35025   7.274  19.039   4.604
66663W        W35026   6.917  43.456  12.992
66664W        W35027  33.610  30.510  14.779
66665W        W35028  22.231   5.706  14.883
66666W        W35029  28.601  14.650  10.454
66667W        W35030   4.718   6.309  12.510
66668W        W35031  12.783  40.055   2.346
66669W        W35032  15.760  41.922   2.259
66670W        W35033  25.468  36.568   3.194
66671W        W35034  10.676   6.351   4.734
66672W        W35035  21.713  17.624  13.875
66673W        W35036   5.428  31.468   4.613
66674W        W35037  34.438   7.713   2.233
66675W        W35038  31.051   8.323  14.500
66676W        W35039  13.215  13.134  13.031
66677W        W35040  44.811  26.098   2.722
66678W        W35041   9.797  28.982  13.346
66679W        W35042  41.363  29.065  12.948
66680W        W35043   5.715   6.759  10.905
66681W        W35044  11.139  15.211   0.395
66682W        W35045   2.883  29.667   3.787
66683W        W35046  37.832  24.622   2.772
66684W        W35047  14.259  39.549   0.334
66685W        W35048   4.206  10.151  12.436
66686W        W35049  23.005  18.099  10.641
66687W        W35050  14.263  28.946   0.472
66688W        W35051  38.509   7.332  10.985
66689W        W35052  20.060  16.679   0.785
66690W        W35053   2.324  31.028  13.488
66691W        W35054  14.685  26.007   3.348
66692W        W35055  42.966  40.420   3.364
66693W        W35056   8.691  36.904   1.796
66694W        W35057  14.109  26.977   0.731
66695W        W35058  30.050  20.060   1.350
66696W        W35059  36.023  32.130  10.050
66697W        W35060  38.422  38.491  11.071
66698W        W35061  32.894  35.030  13.949
66699W        W35062   1.786  19.683   4.310
66700W        W35063  12.274   6.737  13.374
66701W        W35064  31.589  18.185  13.005
66702W        W35065  11.753  40.302  12.450
66703W        W35066  16.683   0.865   0.920
66704W        W35067   0.315   5.852  11.859
66705W        W35068  35.882  10.264  14.844
66706W        W35069  25.015  29.926   1.706
66707W        W35070  31.063  12.277  10.554
66708W        W35071  26.685   8.729  11.404
66709W        W35072  23.181  29.933  12.547
66710W        W35073  43.861  22.670  14.922
66711W        W35074  21.540  34.115   0.865
66712W        W35075  15.258   3.818  10.473
66713W        W35076  35.596  28.681   1.805
66714W        W35077   3.251  25.577  13.491
66715W        W35078  19.711  36.886   3.761
66716W        W35079  21.630   1.458  13.475
66717W        W35080  23.065   5.254   3.870
66718W        W35081  38.880  29.150  13.398
66719W        W35082  33.557  31.498  11.910
66720W        W35083  25.477  19.235   2.293
66721W        W35084  27.062  11.758  12.460
66722W        W35085  18.638  28.461   3.236
66723W        W35086  35.423  11.337   0.428
66724W        W35087  42.443  34.385   0.967
66725W        W35088  27.635  31.143   2.879
66726W        W35089  16.581   2.293   4.812
66727W        W35090  27.030  12.298   1.920
66728W        W35091  21.565  22.614  12.503
66729W        W35092  27.161  33.935   1.259
66730W        W35093  32.588  24.142   4.190
66731W        W35094  33.553   5.876  12.523
66732W        W35095   5.763  34.433   4.200
66733W        W35096  40.829  20.163  13.862
66734W        W35097   0.491   7.288  11.857
66735W        W35098  24.204   7.185  11.495
66736W        W35099  20.620   1.904   4.275
66737W        W35100   3.267   9.870   2.267
66738W        W35101  27.577  33.124  14.797
66739W        W35102  29.129  16.233  12.053
66740W        W35103  24.213  13.697   2.235
66741W        W35104   6.745   3.272   2.242
66742W        W35105  19.131  38.043  12.997
66743W        W35106  24.486   5.315  10.590
66744W        W35107   7.240   1.415  12.538
66745W        W35108  22.518  12.611  11.410
66746W        W35109  10.789  35.998  14.483
66747W        W35110  15.312  26.011  12.578
66748W        W35111  42.440  31.085  14.397
66749W        W35112  29.651   9.660  13.375
66750W        W35113   3.836  36.989  12.897
66751W        W35114  24.128  35.589  13.485
66752W        W35115  22.029   0.832  11.553
66753W        W35116  35.494  28.483  11.899
66754W        W35117  30.425  12.164  12.518
66755W        W35118  43.307   6.337  13.853
66756W        W35119  14.797   7.416   4.805
66757W        W35120  41.881   6.859  14.941
66758W        W35121   1.840  21.516   2.185
66759W        W35122   9.189  17.128  11.539
66760W        W35123  27.148  30.527  12.458
66761W        W35124  33.904   6.425   4.145
66762W        W35125  16.258  39.493  11.112
66763W        W35126  38.553  25.203   2.337
66764W        W35127  10.383  37.010  12.901
66765W        W35128  24.104  38.443   1.867
66766W        W35129  21.211  32.096   1.352
66767W        W35130  21.748   3.835   4.729
66768W        W35131  32.986  36.491   3.715
66769W        W35132   5.231  23.118  11.960
66770W        W35133  27.511   0.432  14.505
66771W        W35134   2.825  16.569  11.479
66772W        W35135  30.996   2.875   4.188
66773W        W35136  35.083  40.340  12.428
66774W        W35137  26.468  26.068   1.861
66775W        W35138  32.108  39.474  10.938
66776W        W35139  15.112  23.579   1.700
66777W        W35140  24.539  17.570   4.267
66778W        W35141  12.632   1.923   3.713
66779W        W35142   7.350  10.667  12.450
66780W        W35143  44.430  32.024   0.922
66781W        W35144   2.786  26.199  10.469
66782W        W35145  17.085  16.582  14.935
66783W        W35146  36.488  38.381   1.882
66784W        W35147  17.710  40.349   2.375
66785W        W35148  20.757  11.742   3.355
66786W        W35149  26.043  44.848  11.480
66787W        W35150  28.169  31.915  13.898
66788W        W35151  33.921  27.558  13.047
66789W        W35152  34.533   3.430   4.698
66790W        W35153  39.046  12.213   3.372
66791W        W35154  18.720  37.467  14.009
66792W        W35155  27.046  44.935   0.413
66793W        W35156   8.702  15.801  11.062
66794W        W35157  20.273  34.472   3.858
66795W        W35158  19.663  23.061  11.981
66796W        W35159  29.105  32.505  14.880
66797W        W35160   7.859  33.541   5.230
66798W        W35161   8.292  15.130   0.363
66799W        W35162  13.802  35.926  14.031
66800W        W35163   5.307  39.364  12.499
66801W        W35164  37.381  26.552  14.978
66802W        W35165  11.851  31.997  12.469
66803W        W35166  15.722  15.183   4.735
66804W        W35167  17.272  36.533  12.404
66805W        W35168  11.856   6.393  10.137
66806W        W35169  27.040  11.817   0.933
66807W        W35170   1.967  34.430   2.310
66808W        W35171  44.976   0.470   3.835
66809W        W35172  28.534  14.248  11.605
66810W        W35173  21.142  20.753  11.062
66811W        W35174  39.933  29.110   4.603
66812W        W35175   4.222  37.493   0.868
66813W        W35176  21.127  18.173  14.326
66814W        W35177  12.235  34.976  14.378
66815W        W35178  17.584  37.479  11.953
66816W        W35179  34.969  26.486  12.353
66817W        W35180  32.029   9.351  12.913
66818W        W35181  24.616   3.216  11.596
66819W        W35182  13.666  41.464   3.805
66820W        W35183  11.803  25.585  10.969
66821W        W35184   4.327  13.269  12.434
66822W        W35185  34.410  32.099   4.214
66823W        W35186  11.780  19.673   5.131
66824W        W35187  26.978  39.407  14.295
66825W        W35188  13.738   5.901   1.905
66826W        W35189   7.683  35.589  11.541
66827W        W35190  39.003   2.229  11.458
66828W        W35191   0.298  13.218  14.307
66829W        W35192  11.282  27.988   1.842
66830W        W35193  29.442  25.680   0.391
66831W        W35194  34.883   7.303   1.340
66832W        W35195  41.363  17.737   3.258
66833W        W35196  12.779   6.762   2.210
66834W        W35197  28.158  29.142  13.499
66835W        W35198  40.438  10.736  14.319
66836W        W35199  25.132  34.510  14.775
66837W        W35200  41.450  29.592   1.835
66838W        W35201  22.054  44.854  10.980
66839W        W35202   1.897   9.324  11.954
66840W        W35203  20.756  18.741  11.863
66841W        W35204  21.042  35.511  13.343
66842W        W35205  32.133   3.719  10.493
66843W        W35206   8.274   2.908   0.377
66844W        W35207  26.038  25.648   1.907
66845W        W35208  22.536  17.161  13.313
66846W        W35209   2.909  30.646  14.501
66847W        W35210  14.780  31.106  11.959
66848W        W35211   0.868  30.966   2.361
66849W        W35212  11.663  25.565   4.745
66850W        W35213  25.603  28.077  14.417
66851W        W35214  20.648  23.191  13.393
66852W        W35215  38.449  15.792   1.776
66853W        W35216  33.945  31.584   3.380
66854W        W35217   5.197  33.006   3.682
66855W        W35218  19.662  16.762   9.966
66856W        W35219   6.898  29.559  13.981
66857W        W35220   5.692   5.856   3.320
66858W        W35221  11.294  22.161  14.857
66859W        W35222  28.656  24.045  11.381
66860W        W35223   2.720   1.800   4.766
66861W        W35224  26.032  21.748  13.003
66862W        W35225  19.595  43.772  14.798
66863W        W35226  21.073   8.720  11.882
66864W        W35227  14.605   8.371   4.673
66865W        W35228   8.323  17.628  14.277
66866W        W35229  22.012   2.843  14.396
66867W        W35230   4.373   8.770  11.489
66868W        W35231  27.602   2.941   1.291
66869W        W35232   8.392  27.654   3.185
66870W        W35233  14.710  44.485  12.465
66871W        W35234  42.859  44.852  12.512
66872W        W35235  42.996   1.930  12.838
66873W        W35236   9.342  36.011  11.118
66874W        W35237  37.075  28.944  12.989
66875W        W35238   1.810  31.533  13.034
66876W        W35239  37.045  30.413  12.092
66877W        W35240  15.193  22.716  14.495
66878W        W35241  29.166  24.519   2.821
66879W        W35242  31.927  18.106   4.328
66880W        W35243  25.647  11.251  12.836
66881W        W35244  10.175   3.753   0.744
66882W        W35245  37.393   9.193   0.342
66883W        W35246  23.147   1.426   2.214
66884W        W35247   0.301   3.225  13.427
66885W        W35248  44.928  40.977  11.119
66886W        W35249  38.467  22.543   3.260
66887W        W35250  26.573  17.066   3.317
66888W        W35251  10.336  26.051   2.366
66889W        W35252   1.796  44.412   1.352
66890W        W35253  11.852   4.823   0.253
66891W        W35254   8.230  34.387   4.716
66892W        W35255  43.961   6.804   1.755
66893W        W35256  15.714  36.567  10.986
66894W        W35257  20.631  35.450  14.485
66895W        W35258  12.656  33.429   3.657
66896W        W35259  24.655  22.135   1.372
66897W        W35260  17.229   9.228   4.641
66898W        W35261  24.680  24.622   0.968
66899W        W35262  39.901  37.438   1.334
66900W        W35263  41.841  44.757   0.944
66901W        W35264   5.871  23.642   1.320
66902W        W35265  32.892  32.011   3.330
66903W        W35266   5.818  44.505  12.061
66904W        W35267  18.189   4.313  11.586
66905W        W35268  28.024   3.844   4.175
66906W        W35269  12.210  35.569   1.728
66907W        W35270  18.185  40.870   2.891
66908W        W35271  20.750  10.740   4.164
66909W        W35272  41.862  40.982   4.717
66910W        W35273   0.960  42.317   3.297
66911W        W35274  29.988  42.405  11.534
66912W        W35275   7.236  39.857  11.056
66913W        W35276  40.463  37.942  12.442
66914W        W35277  42.976  43.272  12.445
66915W        W35278  14.655  24.223  14.887
66916W        W35279   8.809   0.493   4.796
66917W        W35280  29.013  37.362  13.937
66918W        W35281  36.067  42.315  14.287
66919W        W35282  11.207  32.948   4.754
66920W        W35283   1.453  35.562   3.365
66921W        W35284  38.471  23.181   2.769
66922W        W35285  23.200  35.591  11.431
66923W        W35286  10.763   8.174  12.909
66924W        W35287  33.452   2.804  11.578
66925W        W35288  41.895  14.789  14.496
66926W        W35289  34.402   9.876  12.451
66927W        W35290  30.572  41.309  13.318
66928W        W35291   8.183  43.447  12.892
66929W        W35292  37.955  11.628   5.169
66930W        W35293  25.486  30.083   4.203
66931W        W35294  17.196  11.229  13.914
66932W        W35295  39.861  20.732  11.437
66933W        W35296   2.384  24.487   3.383
66934W        W35297  36.479   6.861   0.913
66935W        W35298  16.803   0.928   1.316
66936W        W35299  11.688  14.290  14.926
66937W        W35300   2.344  29.152   1.212
66938W        W35301  17.267  29.999   1.800
66939W        W35302  27.044  35.922   2.757
66940W        W35303  41.850  41.380  12.347
66941W        W35304   9.356  37.533   5.268
66942W        W35305   7.236  36.904   1.332
66943W        W35306   5.804   0.792   4.692
66944W        W35307   1.921  19.101  13.853
66945W        W35308  24.159  42.295   1.258
66946W        W35309   6.262  40.314   3.235
66947W        W35310  37.867  27.533   0.752
66948W        W35311  26.190  17.168  12.492
66949W        W35312  10.315  23.541   4.262
66950W        W35313  35.911  43.949  12.941
66951W        W35314  11.283   4.214  11.077
66952W        W35315   0.473  43.310   4.282
66953W        W35316  11.261   1.347   1.297
66954W        W35317  42.304   4.931  14.414
66955W        W35318  33.131  44.338  13.430
66956W        W35319   1.899  19.728   2.322
66957W        W35320  14.160  24.216   2.838
66958W        W35321  33.938  38.836   4.204
66959W        W35322   0.385  22.147   0.933
66960W        W35323  33.017  11.268  13.957
66961W        W35324  35.563  33.045   3.243
66962W        W35325  16.137  29.456   1.393
66963W        W35326  31.938   0.748  12.508
66964W        W35327  42.452  31.024  13.403
66965W        W35328  43.957  36.064   5.097
66966W        W35329  40.812   9.374  13.435
66967W        W35330  38.446  26.678  11.112
66968W        W35331   4.337  10.252  12.880
66969W        W35332  23.104  23.549   4.633
66970W        W35333  34.989   8.235  11.540
66971W        W35334  25.997  39.397  14.783
66972W        W35335   3.840   8.237   1.838
66973W        W35336   1.859   5.372  11.602
66974W        W35337   4.814   2.269  11.486
66975W        W35338  27.551  31.900   3.205
66976W        W35339   7.237   1.477  10.943
66977W        W35340  31.965  36.857   2.180
66978W        W35341  28.969  32.972  14.333
66979W        W35342  24.595  12.665   3.721
66980W        W35343  11.846  18.134  10.642
66981W        W35344   6.224  13.769   2.831
66982W        W35345  25.690  16.084   4.687
66983W        W35346  20.738   0.322   1.706
66984W        W35347  27.110  25.113   0.729
66985W        W35348  37.079   5.255  12.462
66986W        W35349  37.513  19.066   3.781
66987W        W35350   4.761  24.661   3.291
66988W        W35351  37.005   7.374  11.490
66989W        W35352   0.972  39.920  14.787
66990W        W35353   8.782  15.188   3.228
66991W        W35354  37.482  33.054  10.458
66992W        W35355  11.817  25.638  13.895
66993W        W35356  40.327  40.339  11.908
66994W        W35357  28.438  13.288   1.282
66995W        W35358   5.726   4.775   1.719
66996W        W35359  33.081  30.597   1.740
66997W        W35360  33.566  20.082  10.074
66998W        W35361  23.122   1.298   1.309
66999W        W35362  11.362   4.904  10.491
67000W        W35363  22.219   5.210   2.333
67001W        W35364  21.205  39.339   3.838
67002W        W35365  13.186  42.346  13.032
67003W        W35366  31.465  21.064  14.461
67004W        W35367  10.374  34.577   1.924
67005W        W35368   2.778  13.331  12.473
67006W        W35369  30.910   8.698   2.885
67007W        W35370  19.691   7.711  14.352
67008W        W35371  13.681  41.812  14.881
67009W        W35372  35.865  32.492   0.778
67010W        W35373   6.768  43.298  11.089
67011W        W35374  39.909  39.387   0.913
67012W        W35375  11.183  41.947   4.215
67013W        W35376   2.867  30.067  12.935
67014W        W35377  37.870  22.049   0.816
67015W        W35378  13.145  36.474   1.413
67016W        W35379  33.922  32.574   4.346
67017W        W35380  27.151   0.846  12.858
67018W        W35381  10.830  19.170  14.859
67019W        W35382  33.572   4.930  12.970
67020W        W35383  19.573   3.346  14.871
67021W        W35384  14.254  35.989  11.453
67022W        W35385  31.958  32.930   1.729
67023W        W35386  43.485  24.547   4.716
67024W        W35387  33.112   6.682   3.299
67025W        W35388  36.517  32.487  11.538
67026W        W35389  14.213  25.522   4.783
67027W        W35390   3.461   7.370   2.901
67028W        W35391   3.899  14.122  14.435
67029W        W35392   9.172  35.938  14.508
67030W        W35393  30.126  29.454  14.006
67031W        W35394  30.489  28.558  14.842
67032W        W35395  29.919   6.306   0.354
67033W        W35396   8.820  33.072   2.181
67034W        W35397  14.288  13.111  10.569
67035W        W35398  12.127  13.676   3.356
67036W        W35399  43.422   6.414  11.521
67037W        W35400  41.860  28.529  12.974
67038W        W35401   3.896  14.222   0.806
67039W        W35402  28.545  12.698   1.816
67040W        W35403  37.007   8.809  10.980
67041W        W35404  11.767  29.508   0.467
67042W        W35405  30.478  24.633   4.347
67043W        W35406  18.198  38.849   1.841
67044W        W35407  17.222  34.490  11.553
67045W        W35408  13.621  20.613  13.332
67046W        W35409  16.578   1.813   0.399
67047W        W35410   8.810  22.641  11.101
67048W        W35411  25.478  31.459  10.605
67049W        W35412  17.691   2.757  11.869
67050W        W35413  13.302  12.169   2.819
67051W        W35414   1.315  23.131   2.406
67052W        W35415   3.369  13.351   4.323
67053W        W35416  37.976   4.901   2.254
67054W        W35417  36.432   8.306  10.919
67055W        W35418  10.206  27.612  14.433
67056W        W35419  34.020  29.542   0.316
67057W        W35420  14.266  36.475   3.857
67058W        W35421  19.074  27.004   4.340
67059W        W35422  19.663  22.048  10.985
67060W        W35423  27.684   2.842  14.392
67061W        W35424  17.109   5.234   3.833
67062W        W35425  43.953  41.786  11.949
67063W        W35426  12.758   6.321  14.019
67064W        W35427  19.050  21.533  12.482
67065W        W35428  13.734  16.607  14.351
67066W        W35429   8.253  13.132  13.899
67067W        W35430  30.570  22.578  12.563
67068W        W35431  39.429  44.953  11.008
67069W        W35432  19.142  20.732  10.919
67070W        W35433  10.875  37.394  12.556
67071W        W35434  40.806  22.509  13.530
67072W        W35435   9.821  19.150  14.511
67073W        W35436   6.250  14.158   2.225
67074W        W35437  33.883   9.683   0.903
67075W        W35438  42.374  24.600   3.765
67076W        W35439  29.485  18.189  10.638
67077W        W35440  40.385  17.663  10.577
67078W        W35441   2.802  40.911  13.424
67079W        W35442  16.697   3.840   3.200
67080W        W35443  39.405   5.296   3.672
67081W        W35444  26.604  43.363  14.380
67082W        W35445  44.264  35.865  13.820
67083W        W35446  10.768  14.312  14.018
67084W        W35447  10.775  39.858  10.541
67085W        W35448  23.602  16.247   4.316
67086W        W35449  23.143   7.694   0.397
67087W        W35450  42.940  31.634   0.310
67088W        W35451   3.259  31.129  12.497
67089W        W35452  21.515  10.223   3.826
67090W        W35453   6.886  22.721   0.451
67091W        W35454   1.778  35.854   1.802
67092W        W35455  21.512  16.138  13.316
67093W        W35456  41.937  37.943   4.219
67094W        W35457  21.113   8.869  10.631
67095W        W35458   3.921  24.194   4.312
67096W        W35459  19.179   0.809  11.050
67097W        W35460  23.215  25.583  12.878
67098W        W35461  15.818  23.083  14.869
67099W        W35462   8.161   1.330  11.126
67100W        W35463  31.478   9.378  12.980
67101W        W35464  13.746  42.781  13.979
67102W        W35465  19.552  21.557  11.540
67103W        W35466  27.634  41.787  10.990
67104W        W35467  22.033  43.972  14.342
67105W        W35468  30.098  10.666  11.577
67106W        W35469  24.692  22.174  10.991
67107W        W35470   9.268  39.381   2.707
67108W        W35471  44.486  39.414  14.404
67109W        W35472  16.734  27.020   4.800
67110W        W35473  33.396  20.127   4.345
67111W        W35474  12.689  14.194   4.633
67112W        W35475  40.349  27.581  11.115
67113W        W35476  44.493  15.219   3.799
67114W        W35477  39.344   2.820  11.508
67115W        W35478  22.599  34.441  14.855
67116W        W35479  44.957  40.007  12.499
67117W        W35480  19.115  34.516   4.258
67118W        W35481  26.605  41.373   4.285
67119W        W35482   2.418  43.789  12.855
67120W        W35483  44.762  37.582   9.989
67121W        W35484  44.990   1.419  13.063
67122W        W35485  26.047  39.924  14.946
67123W        W35486  16.628  36.493  13.334
67124W        W35487   5.848  28.025   1.418
67125W        W35488  30.631  10.338  10.502
67126W        W35489  26.519  43.899  12.576
67127W        W35490  15.264  38.877  13.520
67128W        W35491  11.162  25.048  13.935
67129W        W35492  32.931  31.061  11.067
67130W        W35493   9.194   7.778   0.966
67131W        W35494   7.390   6.864   3.283
67132W        W35495  31.044  31.623   2.372
67133W        W35496   7.755  11.136  12.938
67134W        W35497  32.074  42.422  12.009
67135W        W35498  35.866  14.630   2.846
67136W        W35499  18.090  16.748  11.056
67137W        W35500  42.453  16.734  14.459
67138W        W35501  28.032  11.791  12.045
67139W        W35502   7.722  41.367   4.652
67140W        W35503  32.425  32.142  14.405
67141W        W35504  39.340  34.079  14.017
67142W        W35505  44.376  20.125   0.899
67143W        W35506   8.785   4.283  12.838
67144W        W35507  24.208  11.857  13.931
67145W        W35508   9.870  14.186   4.686
67146W        W35509  10.839  35.025   0.805
67147W        W35510   8.171   0.807   3.339
67148W        W35511   0.357  41.956   1.215
67149W        W35512   3.777  34.385  12.554
67150W        W35513  13.798  33.892   3.189
67151W        W35514  40.381   6.261   2.749
67152W        W35515  40.840  22.019   3.843
67153W        W35516  35.941  23.517  13.311
67154W        W35517  38.364  18.592  11.546
67155W        W35518  16.179  40.037   1.710
67156W        W35519  41.530  41.880   5.105
67157W        W35520  33.437   8.819  10.541
67158W        W35521  11.156   9.657  14.909
67159W        W35522   6.831  12.236   0.367
67160W        W35523  17.246  35.984  12.536
67161W        W35524  35.448  31.920  14.794
67162W        W35525  19.706  25.616   5.096
67163W        W35526  25.654  29.992  12.574
67164W        W35527  26.588  32.546  13.902
67165W        W35528   4.383  43.463   0.926
67166W        W35529  42.341  15.240   4.638
67167W        W35530   0.253  36.091   3.325
67168W        W35531   1.248  22.573  10.453
67169W        W35532  29.139  23.532  13.366
67170W        W35533  13.707  12.126   1.403
67171W        W35534   6.383  33.503   3.277
67172W        W35535   4.354  10.273   3.302
67173W        W35536  43.769  19.777  12.074
67174W        W35537  40.905   8.886   1.867
67175W        W35538  23.236  29.148   0.428
67176W        W35539  32.452  12.294  12.384
67177W        W35540  29.441  27.601  10.966
67178W        W35541  12.746  12.763  13.040
67179W        W35542  23.158   7.265   3.266
67180W        W35543  19.610   1.242  12.482
67181W        W35544  10.289  28.084  10.940
67182W        W35545  30.426  41.996   0.429
67183W        W35546  29.529  36.865   4.601
67184W        W35547  26.584  27.164  11.982
67185W        W35548   6.908  17.655   1.927
67186W        W35549   3.437  41.439   2.224
67187W        W35550  33.406  15.710  11.519
67188W        W35551  41.538   1.380  12.850
67189W        W35552  33.606  22.078  10.532
67190W        W35553  13.687   5.743   4.602
67191W        W35554  16.703   0.305  14.009
67192W        W35555  33.930   6.882  11.566
67193W        W35556  40.978  43.923   0.312
67194W        W35557   0.841  41.390  13.988
67195W        W35558  22.048  32.029  10.471
67196W        W35559   6.407  28.187  14.866
67197W        W35560  20.184  18.122  12.050
67198W        W35561   4.725  37.484   1.338
67199W        W35562   6.255  24.703   0.276
67200W        W35563  29.124  17.304   1.755
67201W        W35564  36.582  27.576   1.329
67202W        W35565   8.245  41.534   0.373
67203W        W35566  14.756  42.847   1.416
67204W        W35567  19.595  22.542   2.179
67205W        W35568  12.350  17.759  14.805
67206W        W35569  36.989   7.298  14.403
67207W        W35570  18.763  18.653   3.754
67208W        W35571  44.932  25.016  13.938
67209W        W35572  14.656  41.349   1.305
67210W        W35573  26.515   6.332  11.572
67211W        W35574  37.474   3.758  12.916
67212W        W35575  31.992   5.340   2.307
67213W        W35576  13.153  26.951  12.375
67214W        W35577  22.587  15.152   0.399
67215W        W35578  17.153  40.932  10.034
67216W        W35579  10.871  32.484   3.225
67217W        W35580  29.004   6.809  11.605
67218W        W35581  33.949  44.927  11.501
67219W        W35582  37.354  37.523   1.828
67220W        W35583  12.670  20.106   1.745
67221W        W35584   0.389  20.530  12.530
67222W        W35585  43.440  36.459   4.659
67223W        W35586  34.864  26.180  14.864
67224W        W35587  30.421  17.571   2.724
67225W        W35588  20.671  28.444   2.262
67226W        W35589  30.438   8.392  14.030
67227W        W35590   4.817  15.643   1.717
67228W        W35591   7.761   6.896  13.847
67229W        W35592  13.670  26.532   4.322
67230W        W35593  16.803  32.963   3.810
67231W        W35594   7.678  20.174  12.341
67232W        W35595  38.532   3.423  14.030
67233W        W35596   0.956  15.701   1.308
67234W        W35597   8.662  18.090   0.272
67235W        W35598   7.863  11.198  14.808
67236W        W35599   5.260  44.869   4.804
67237W        W35600  40.819  43.915  13.313
67238W        W35601   5.348  30.919  12.983
67239W        W35602  29.013   9.789   2.412
67240W        W35603  11.218  31.103   1.322
67241W        W35604  22.536  29.108   2.870
67242W        W35605  21.046  12.184  10.011
67243W        W35606  25.002  12.360  10.969
67244W        W35607  38.961   0.421  14.378
67245W        W35608   7.729  24.606   0.373
67246W        W35609  15.308  38.500  14.328
67247W        W35610  13.202  27.021  11.990
67248W        W35611  21.615   2.247  11.371
67249W        W35612   6.291  28.575   3.710
67250W        W35613  17.785  14.606  12.070
67251W        W35614  20.087  29.097   3.700
67252W        W35615  28.940  18.216   1.340
67253W        W35616  24.560   2.320   0.933
67254W        W35617  24.612  13.834  12.405
67255W        W35618  41.325  18.611   1.439
67256W        W35619  44.385  11.707   2.304
67257W        W35620  30.078   0.467  14.849
67258W        W35621  27.154  12.672  12.541
67259W        W35622  24.689  18.133   3.843
67260W        W35623  11.292  27.978  10.959
67261W        W35624  26.485  34.887   4.182
67262W        W35625   3.370  33.905   4.708
67263W        W35626  12.297  22.669  13.976
67264W        W35627  26.475  17.087  11.976
67265W        W35628   4.708  15.599   4.322
67266W        W35629  37.473  32.540   4.806
67267W        W35630  24.125  37.353  14.787
67268W        W35631  16.267  24.054  13.045
67269W        W35632  13.666   4.793  14.399
67270W        W35633  12.683  44.988   4.165
67271W        W35634   5.264  22.114   3.227
67272W        W35635   5.779  11.636   0.776
67273W        W35636  18.264  42.020   0.797
67274W        W35637  19.134  35.856  12.475
67275W        W35638  26.680   6.411  10.916
67276W        W35639  32.916  28.017  11.479
67277W        W35640   5.739  29.117  13.527
67278W        W35641  42.480  10.239   2.318
67279W        W35642  18.273   3.863  12.096
67280W        W35643  35.073   8.380  10.553
67281W        W35644  13.794  36.499   0.434
67282W        W35645  10.816   6.372  12.448
67283W        W35646  24.606  40.961   2.406
67284W        W35647  14.114  32.060   1.740
67285W        W35648   3.731  31.567   1.284
67286W        W35649  14.765  30.947  13.546
67287W        W35650   3.352  14.735   5.133
67288W        W35651   3.761  44.970   2.274
67289W        W35652  13.728   3.914  13.840
67290W        W35653  30.146   4.336  11.608
67291W        W35654  37.357  13.283   4.121
67292W        W35655   7.179  37.033   0.852
67293W        W35656  44.789  44.387   4.680
67294W        W35657  28.087  20.562  13.834
67295W        W35658   5.211   1.435   2.697
67296W        W35659  43.903   6.692  12.862
67297W        W35660  24.502  33.447   0.851
67298W        W35661  32.449   4.235  11.475
67299W        W35662  39.388   2.468   0.865
67300W        W35663   6.813  25.061  11.101
67301W        W35664  42.840  36.881   0.869
67302W        W35665  21.694  36.901  13.844
67303W        W35666  44.947  12.189   2.820
67304W        W35667   1.823   8.200  12.580
67305W        W35668   0.257  32.909  10.438
67306W        W35669  22.186  37.852  12.379
67307W        W35670  16.079   2.726   4.711
67308W        W35671  10.649   8.794  12.495
67309W        W35672  40.954   9.226   4.173
67310W        W35673  29.049  17.709   3.857
67311W        W35674  34.512  37.471  10.633
67312W        W35675  38.327  28.612   2.370
67313W        W35676  31.936  10.147  11.540
67314W        W35677  36.904   8.239  12.905
67315W        W35678   4.769  22.195   3.838
67316W        W35679   9.856  41.005  14.795
67317W        W35680   6.281  15.695  10.632
67318W        W35681   6.222   5.870  14.349
67319W        W35682  32.905  37.384  10.587
67320W        W35683   1.973  37.848  11.484
67321W        W35684  38.842  27.952  11.125
67322W        W35685  31.917   9.377  10.444
67323W        W35686  18.745  35.108   2.225
67324W        W35687  13.742  41.426   4.119
67325W        W35688   8.884  10.683  13.842
67326W        W35689  40.332  32.116   3.641
67327W        W35690  34.034   4.747  11.554
67328W        W35691  16.567   3.922   0.463
67329W        W35692  12.707   7.203  12.450
67330W        W35693   2.343  22.628   0.744
67331W        W35694  41.438  28.150  11.114
67332W        W35695  43.459   6.778  12.527
67333W        W35696   8.358  29.651  14.968
67334W        W35697   3.315  19.251  14.446
67335W        W35698   3.812  27.494   0.882
67336W        W35699  15.658  28.041   2.276
67337W        W35700  32.533   0.409   5.085
67338W        W35701  14.301  30.022  11.919
67339W        W35702   7.882  13.256   2.691
67340W        W35703  39.335  42.381  13.539
67341W        W35704  16.289   8.247   1.296
67342W        W35705  11.178  44.455   3.768
67343W        W35706   9.339   7.846   2.374
67344W        W35707  36.845  40.844   3.785
67345W        W35708  23.079  12.343   1.354
67346W        W35709  35.001  11.212   3.786
67347W        W35710  10.174   7.823  13.057
67348W        W35711  26.159  38.917   3.657
67349W        W35712  22.226  22.225  13.354
67350W        W35713  32.451   8.854   1.442
67351W        W35714  28.002  39.916  11.876
67352W        W35715  16.190   0.422   2.722
67353W        W35716  44.307   1.478  12.943
67354W        W35717   0.886  43.784  10.493
67355W        W35718  33.459  13.811   0.437
67356W        W35719  28.076  20.709   0.451
67357W        W35720  25.500   4.402   2.778
67358W        W35721  24.154  26.196   2.320
67359W        W35722  30.493  30.589   4.122
67360W        W35723   2.867   7.183   1.437
67361W        W35724   3.838  27.180  11.379
67362W        W35725  26.125   0.984   1.441
67363W        W35726  44.472  40.536  13.337
67364W        W35727  34.521  16.275  13.407
67365W        W35728  32.888  29.595   1.859
67366W        W35729  36.990  21.704  12.478
67367W        W35730  21.518  24.111  11.582
67368W        W35731  33.408   6.871   4.203
67369W        W35732  25.045  43.899  11.061
67370W        W35733  41.795   6.324   3.249
67371W        W35734  14.149  38.563   2.180
67372W        W35735  23.719  22.680  11.558
67373W        W35736  37.047   9.745   3.365
67374W        W35737   7.289  12.182  10.565
67375W        W35738   6.705  19.178  12.946
67376W        W35739  12.653  31.134   0.308
67377W        W35740  17.144  25.214  10.568
67378W        W35741  40.967  12.665   4.123
67379W        W35742   9.177  34.609   3.661
67380W        W35743  10.146  43.828   0.399
67381W        W35744  33.562  29.433  12.962
67382W        W35745  13.801  10.691   4.807
67383W        W35746   1.432  33.547  14.326
67384W        W35747  34.389  39.359  11.901
67385W        W35748  31.101  35.475   2.691
67386W        W35749  35.886  21.147  10.534
67387W        W35750  25.490  25.133   3.856
67388W        W35751  43.795  40.976   0.937
67389W        W35752  41.862  37.559   2.889
67390W        W35753  24.163  36.912   1.422
67391W        W35754  32.434  43.302   4.155
67392W        W35755  20.090  28.651  11.515
67393W        W35756  12.654  23.215   1.439
67394W        W35757  22.019  23.591   1.925
67395W        W35758  29.465   3.897   2.359
67396W        W35759  13.645  13.652  12.561
67397W        W35760  20.559   9.289   1.279
67398W        W35761  43.394  14.120   4.680
67399W        W35762  25.040   2.965   4.153
67400W        W35763  34.558  16.657   3.816
67401W        W35764  18.056  38.429  12.846
67402W        W35765  42.923   3.244   0.897
67403W        W35766  30.578  18.293  14.790
67404W        W35767  27.966   4.795   4.334
67405W        W35768  22.634  31.518  12.878
67406W        W35769  11.757  38.876   0.883
67407W        W35770   4.744  43.457   4.780
67408W        W35771  13.636  38.336   0.934
67409W        W35772  40.916  14.181   4.339
67410W        W35773  23.027  32.396   2.313
67411W        W35774  10.365  39.922  10.625
67412W        W35775  44.847   7.411  12.991
67413W        W35776  31.965  38.971  12.372
67414W        W35777  11.757   9.255   3.774
67415W        W35778  26.203  12.160   1.786
67416W        W35779  30.086  38.549   4.299
67417W        W35780  16.648  40.534  12.861
67418W        W35781  39.473  17.761   1.418
67419W        W35782  31.469  38.543  14.000
67420W        W35783  40.448  16.072  12.531
67421W        W35784  23.534  25.058  13.458
67422W        W35785  26.638  30.991   0.475
67423W        W35786  24.670   7.894  14.843
67424W        W35787  13.289  36.516  10.486
67425W        W35788  27.148  13.633  11.446
67426W        W35789   2.967  25.112   0.737
67427W        W35790  26.988  33.103  10.642
67428W        W35791   7.717  21.646   0.825
67429W        W35792  31.411  31.141  11.394
67430W        W35793   2.754   9.290   4.817
67431W        W35794  17.790   6.893   1.392
67432W        W35795  40.480  14.816  11.596
67433W        W35796   4.215  43.792   3.644
67434W        W35797  10.233  36.518  12.828
67435W        W35798   3.246  22.236  14.867
67436W        W35799  44.008  20.605  12.488
67437W        W35800  24.078  26.123  10.441
67438W        W35801  25.536  14.628  12.897
67439W        W35802  23.491  43.277   1.859
67440W        W35803   2.435   7.874   3.694
67441W        W35804  44.259  38.935   9.971
67442W        W35805  37.894  44.276  13.445
67443W        W35806  34.507  10.193   3.851
67444W        W35807  12.612  27.101   3.661
67445W        W35808  35.928  38.495   4.790
67446W        W35809  40.970   5.207   4.751
67447W        W35810  43.468  27.025   4.658
67448W        W35811  25.996   6.688   4.258
67449W        W35812  13.135  25.162   2.375
67450W        W35813   0.797  25.159  11.965
67451W        W35814  14.213  14.103  10.590
67452W        W35815   4.895  14.764  13.395
67453W        W35816  43.947  32.506  10.446
67454W        W35817  14.718  12.851   0.383
67455W        W35818  41.394   6.857  12.044
67456W        W35819   2.454  18.203   1.310
67457W        W35820  43.403  39.888  12.526
67458W        W35821  39.349  28.619   3.741
67459W        W35822  24.724  16.776   0.880
67460W        W35823  44.440  34.510   4.185
67461W        W35824  31.603  43.319   0.439
67462W        W35825  29.117  29.086  11.043
67463W        W35826   0.390  22.682   2.864
67464W        W35827  13.105   0.870   4.632
67465W        W35828  14.641  30.418  13.509
67466W        W35829  12.795  20.615   4.267
67467W        W35830  38.892  42.418   0.249
67468W        W35831  26.166  31.529   0.473
67469W        W35832  39.923  44.829  12.899
67470W        W35833  20.622  37.560   0.246
67471W        W35834  30.466  20.160  13.991
67472W        W35835   0.945  35.864  12.038
67473W        W35836  31.983  14.597   0.787
67474W        W35837  24.536  33.070   2.827
67475W        W35838   4.356  23.718   2.386
67476W        W35839  27.085  16.659   1.214
67477W        W35840  18.563   3.863   1.362
67478W        W35841  30.414  36.505  14.978
67479W        W35842  12.766  44.473  10.501
67480W        W35843  33.035   2.264   3.202
67481W        W35844  28.518  34.607  13.321
67482W        W35845   4.307  43.871  14.921
67483W        W35846  16.662  19.743  13.861
67484W        W35847  34.051  20.557  11.456
67485W        W35848  20.760  43.314  10.950
67486W        W35849  43.373  19.635  11.085
67487W        W35850  31.600  39.343   3.845
67488W        W35851  30.983   9.673   0.909
67489W        W35852  23.042  43.312  10.545
67490W        W35853  33.536  26.098   3.711
67491W        W35854  25.510   2.450  14.787
67492W        W35855  17.661  17.726  13.328
67493W        W35856  27.992   7.704   1.892
67494W        W35857  13.717  36.993  13.547
67495W        W35858  29.129  31.032   2.256
67496W        W35859  22.027  41.337  14.382
67497W        W35860  44.761  26.043  13.469
67498W        W35861  34.973   7.212  12.850
67499W        W35862  11.845  40.411  14.441
67500W        W35863  23.526  29.036  14.878
67501W        W35864  31.108  15.688   9.981
67502W        W35865  37.883  11.283   4.811
67503W        W35866  11.708  38.894   0.427
67504W        W35867  19.146   4.920  12.367
67505W        W35868  10.802   3.442   2.407
67506W        W35869   1.374  42.496   4.672
67507W        W35870  44.476  30.937  13.840
67508W        W35871  21.721  19.050   3.724
67509W        W35872  11.811  16.209   1.341
67510W        W35873  34.483  17.605  10.448
67511W        W35874  13.684   2.845  14.820
67512W        W35875  34.040  33.609  13.850
67513W        W35876   7.777   3.774  14.830
67514W        W35877  20.044   4.434   3.729
67515W        W35878  30.045  16.691  14.934
67516W        W35879  18.133  21.055  11.959
67517W        W35880  35.066  17.172  10.965
67518W        W35881  22.142  27.478   2.857
67519W        W35882  32.885  24.518   1.270
67520W        W35883  12.353  22.152   0.314
67521W        W35884   8.863   0.447   3.247
67522W        W35885  28.572  34.027   3.205
67523W        W35886   8.294  36.049  10.422
67524W        W35887  18.704  23.117  12.985
67525W        W35888  15.817  16.791  11.942
67526W        W35889  43.008  16.160  11.519
67527W        W35890  29.952  10.272  10.494
67528W        W35891  23.121  40.906  11.517
67529W        W35892   9.747  43.982   1.887
67530W        W35893  19.277   1.771  10.404
67531W        W35894  27.447   4.890  11.093
67532W        W35895  36.389  12.343  11.413
67533W        W35896   7.819  24.199   0.831
67534W        W35897  13.246  43.490  10.642
67535W        W35898  25.134  32.628   4.248
67536W        W35899  13.820  34.450   3.733
67537W        W35900  10.769  42.840  14.009
67538W        W35901  26.478  39.040   3.248
67539W        W35902   2.910   2.398  14.836
67540W        W35903  37.514  35.973  14.987
67541W        W35904   6.325  23.225   3.201
67542W        W35905  13.261  22.596  11.874
67543W        W35906  34.053  18.157  14.802
67544W        W35907  10.879  18.745   2.675
67545W        W35908  21.155   9.651   2.315
67546W        W35909  17.582  40.992   4.805
67547W        W35910  12.789  34.399   3.866
67548W        W35911   3.877   4.309  13.028
67549W        W35912  38.498  12.343   3.261
67550W        W35913  33.949  31.135   4.656
67551W        W35914  42.448  38.851   4.314
67552W        W35915   8.734  43.419   3.847
67553W        W35916  17.077  19.729   2.888
67554W        W35917  24.543  16.248  13.336
67555W        W35918  34.415  27.117  11.111
67556W        W35919  25.106   5.851   2.754
67557W        W35920  15.683  37.028   3.149
67558W        W35921   0.441  15.208   4.281
67559W        W35922  13.670   1.359  13.946
67560W        W35923  23.231  15.600  11.034
67561W        W35924   0.452   5.328  12.514
67562W        W35925  24.983  16.098   4.249
67563W        W35926   3.236  25.467  11.111
67564W        W35927  36.470  32.072  11.872
67565W        W35928   6.341  42.000   0.321
67566W        W35929  17.717  36.498  13.468
67567W        W35930  21.213  35.380  13.015
67568W        W35931  24.518  12.231  14.777
67569W        W35932  12.356   3.734  12.887
67570W        W35933   2.733  21.591   4.699
67571W        W35934  44.363  25.569   0.479
67572W        W35935  18.701  34.553  12.888
67573W        W35936  32.615  34.921   3.670
67574W        W35937  11.835  16.752   3.245
67575W        W35938  34.024  35.374  13.541
67576W        W35939  10.688  12.735  10.504
67577W        W35940  38.931  18.775  12.932
67578W        W35941  29.553  42.457   1.327
67579W        W35942  16.682  29.151   1.430
67580W        W35943  30.536  36.444   2.274
67581W        W35944   2.411  29.483  13.503
67582W        W35945  38.515  15.592   2.208
67583W        W35946  31.095   8.706   2.410
67584W        W35947  18.293  43.416   2.235
67585W        W35948  21.562   5.777   4.658
67586W        W35949   8.900  34.414   1.386
67587W        W35950   9.744  32.095  10.988
67588W        W35951  33.582  24.628   0.315
67589W        W35952   0.429   8.368  11.602
67590W        W35953  23.984  32.100  10.459
67591W        W35954   1.813  40.994  12.877
67592W        W35955   3.899  31.099  12.984
67593W        W35956  28.102   5.285  12.408
67594W        W35957   5.242  37.543  14.927
67595W        W35958   6.770   8.355   4.278
67596W        W35959  17.191   1.896   0.839
67597W        W35960  19.102  40.983   2.662
67598W        W35961  34.057  37.535   0.800
67599W        W35962  17.575  21.619  12.084
67600W        W35963   0.311  26.983  11.969
67601W        W35964  29.984   5.205  14.387
67602W        W35965  27.176  28.621  14.508
67603W        W35966  44.482  35.525   1.835
67604W        W35967  38.348  32.563  14.831
67605W        W35968  18.742  41.342  11.519
67606W        W35969  19.768  18.115  13.323
67607W        W35970  14.188  43.813   4.664
67608W        W35971  21.526  33.074  12.369
67609W        W35972  22.640  38.497  14.363
67610W        W35973  19.245  10.194   3.847
67611W        W35974  30.135  24.560  14.381
67612W        W35975   6.742  32.114   2.888
67613W        W35976  31.079   1.443   9.588
67614W        W35977  23.654   5.234   0.888
67615W        W35978   5.911  19.582  11.486
67616W        W35979  14.145  24.509  10.419
67617W        W35980   5.280  37.389  12.026
67618W        W35981  19.702  33.442  10.979
67619W        W35982  11.207   2.840   4.163
67620W        W35983  18.755  25.610   0.891
67621W        W35984   8.729   8.200   0.308
67622W        W35985  14.611  20.265   3.287
67623W        W35986   3.447   3.442   2.868
67624W        W35987  22.174   9.691  11.036
67625W        W35988  26.020   8.806  11.396
67626W        W35989  21.713  26.518   0.350
67627W        W35990  32.095  28.556   2.230
67628W        W35991  27.085  40.499  14.495
67629W        W35992  42.993  37.059  14.397
67630W        W35993  23.558   8.256   3.297
67631W        W35994  33.404  41.346  11.897
67632W        W35995  36.562  37.853  13.839
67633W        W35996  29.028  38.061   2.225
67634W        W35997  28.543  19.771   1.282
67635W        W35998  24.134  12.157   3.272
67636W        W35999  34.094  25.102   1.226
67637W        W36000  14.797   7.289  10.037
67638W        W36001   4.429   9.740   0.857
67639W        W36002  18.618  30.624   3.833
67640W        W36003  22.122   7.816   3.170
67641W        W36004  16.743   0.398   1.929
67642W        W36005   6.759  19.093  10.550
67643W        W36006  33.603  19.701  10.992
67644W        W36007  22.646  27.152   4.188
67645W        W36008  12.167  10.791  13.434
67646W        W36009  23.632  15.811  10.909
67647W        W36010  27.620  21.165   1.431
67648W        W36011   4.241  18.597   4.812
67649W        W36012  10.228  16.142   1.791
67650W        W36013  10.240  24.225  10.928
67651W        W36014  32.461  29.132  13.016
67652W        W36015  39.441  32.031   1.229
67653W        W36016  18.240   8.685   3.205
67654W        W36017  11.234   7.297   0.449
67655W        W36018  14.623  16.681  13.420
67656W        W36019  21.062   3.841   3.166
67657W        W36020  37.543  38.013  10.511
67658W        W36021  32.470   1.827   9.985
67659W        W36022  25.036  39.435  13.046
67660W        W36023   2.791  13.705   1.722
67661W        W36024   5.753  43.866   2.316
67662W        W36025   3.843   5.306  14.404
67663W        W36026  13.760   7.682  14.454
67664W        W36027  32.929   2.237   4.189
67665W        W36028  16.192  23.515  11.410
67666W        W36029   3.846  16.646   4.167
67667W        W36030   5.861  12.200  10.888
67668W        W36031   9.885   1.439  13.409
67669W        W36032  11.156  28.619   4.744
67670W        W36033   0.765  13.128  11.499
67671W        W36034  25.039  12.311   1.283
67672W        W36035   1.453  27.185  10.473
67673W        W36036  19.539  27.188  10.623
67674W        W36037   6.835  28.077   0.793
67675W        W36038  11.791  17.611   4.201
67676W        W36039   7.401  34.037  12.430
67677W        W36040  41.436   4.274   0.304
67678W        W36041  21.701   4.236  14.777
67679W        W36042  10.371  42.781   3.233
67680W        W36043  44.957  38.398   2.330
67681W        W36044  16.770   1.284  10.491
67682W        W36045  37.429  35.981   4.334
67683W        W36046   6.389   6.681  11.994
67684W        W36047  37.452   6.337  12.510
67685W        W36048  37.394  24.978  11.877
67686W        W36049  43.510  29.451   3.324
67687W        W36050  32.102   8.316   4.792
67688W        W36051  40.484  29.981   3.277
67689W        W36052  17.300  10.225   5.305
67690W        W36053  17.165  22.600   2.700
67691W        W36054   8.752  10.175   2.351
67692W        W36055  38.053  24.718   0.350
67693W        W36056  26.509  10.352   3.783
67694W        W36057  37.433  20.588  13.534
67695W        W36058   6.335  17.644  12.024
67696W        W36059  41.835  32.990   3.205
67697W        W36060   1.828  20.619   2.748
67698W        W36061  12.644  12.160  13.844
67699W        W36062  11.794   7.172   4.156
67700W        W36063  20.040  38.932  10.959
67701W        W36064   1.745  22.028  10.628
67702W        W36065  19.667  16.201  11.543
67703W        W36066  34.520  23.704  12.847
67704W        W36067  22.092  23.173  13.482
67705W        W36068  17.617  39.318   1.714
67706W        W36069   3.759   8.340  14.409
67707W        W36070  35.946  39.052   2.886
67708W        W36071  12.845  29.941   4.316
67709W        W36072  44.406  27.448  14.992
67710W        W36073   6.341  23.054  14.419
67711W        W36074   8.168   5.771   4.179
67712W        W36075  15.203  35.064  13.801
67713W        W36076   4.319  33.420   0.954
67714W        W36077  18.208  36.580   3.293
67715W        W36078  13.833  43.901   2.863
67716W        W36079  38.040  29.559  11.031
67717W        W36080   4.926  15.206   3.236
67718W        W36081  44.365  20.161  13.979
67719W        W36082  16.089   6.421   2.399
67720W        W36083  36.049  15.183   4.755
67721W        W36084  26.679  18.700   3.823
67722W        W36085   9.258  15.303   2.194
67723W        W36086  22.073  30.073  10.509
67724W        W36087  38.075   2.804   0.311
67725W        W36088  33.131  14.113   2.242
67726W        W36089  20.564  40.306  10.606
67727W        W36090  15.205  18.613   2.331
67728W        W36091  11.187  24.649  12.888
67729W        W36092   8.307  28.039   1.316
67730W        W36093   5.419  44.950  12.425
67731W        W36094   3.374   3.858  11.430
67732W        W36095  32.573  40.024  12.971
67733W        W36096  44.974  31.519   1.790
67734W        W36097  39.981   4.737  13.325
67735W        W36098  14.158  44.302   2.418
67736W        W36099  14.107  22.675  11.049
67737W        W36100  37.558  41.968   4.342
67738W        W36101  43.405  21.617   3.700
67739W        W36102   1.464   9.826   3.214
67740W        W36103  25.987  11.705  14.371
67741W        W36104  35.480   9.378  14.904
67742W        W36105   3.351  28.143   1.894
67743W        W36106   6.186  18.244  12.400
67744W        W36107  28.470   3.438   1.795
67745W        W36108   2.899  18.780   0.250
67746W        W36109  43.389  18.708   2.216
67747W        W36110  25.687  20.569  10.976
67748W        W36111  25.565  17.694   1.731
67749W        W36112   3.936  31.973   4.312
67750W        W36113  40.359   4.226   3.652
67751W        W36114  36.879   4.310   3.371
67752W        W36115  30.155  24.634  12.440
67753W        W36116  15.250  10.711   4.241
67754W        W36117  43.944  33.580   4.836
67755W        W36118  28.560  19.680   2.706
67756W        W36119  34.100  14.123  14.462
67757W        W36120  38.977  42.421  12.976
67758W        W36121  37.502  43.287   4.618
67759W        W36122  19.747  42.313  12.827
67760W        W36123  43.773  19.548  14.919
67761W        W36124  34.083  22.189   3.333
67762W        W36125  35.075  37.878   1.734
67763W        W36126   9.715  24.619   0.415
67764W        W36127  17.676  30.100   0.279
67765W        W36128  32.009  23.724  11.995
67766W        W36129  25.541  34.099  14.869
67767W        W36130  41.905  42.337  10.491
67768W        W36131  21.621  10.810   2.340
67769W        W36132  22.555  20.591  12.392
67770W        W36133   8.768  43.312  11.879
67771W        W36134  14.799   6.381  13.337
67772W        W36135  20.759  43.955   3.781
67773W        W36136  43.995   3.241   3.747
67774W        W36137  13.829   1.913  11.911
67775W        W36138  11.151  13.247  11.097
67776W        W36139  18.769  32.034   2.357
67777W        W36140  24.723  16.295   2.796
67778W        W36141  35.857   6.415   1.838
67779W        W36142  17.108  30.956  13.413
67780W        W36143   6.402  33.621   0.836
67781W        W36144   7.800   4.256   0.255
67782W        W36145  10.340  10.849  12.092
67783W        W36146  33.447  23.057   1.277
67784W        W36147  19.100  26.971  10.622
67785W        W36148  40.047  30.483  13.365
67786W        W36149  41.919  28.647  13.504
67787W        W36150   0.440  15.089  14.912
67788W        W36151  30.455  21.054   2.857
67789W        W36152  15.809  44.834  13.905
67790W        W36153   9.296  18.164  10.457
67791W        W36154  26.143   2.743   4.650
67792W        W36155  41.475   1.472   1.379
67793W        W36156   6.259  28.129  12.452
67794W        W36157  29.433  18.686   4.715
67795W        W36158  39.486   5.852  11.544
67796W        W36159   5.851  42.940   1.340
67797W        W36160   3.754  43.375   2.842
67798W        W36161  36.990  16.793   1.312
67799W        W36162  29.155  14.648   1.310
67800W        W36163  20.602  28.025   0.270
67801W        W36164   4.883  21.068   5.196
67802W        W36165   4.428   9.816   1.432
67803W        W36166  32.523  35.547   2.419
67804W        W36167   1.332  25.115   3.339
67805W        W36168   1.883   9.864  13.335
67806W        W36169  26.064  15.817  12.981
67807W        W36170   5.811   0.906   2.866
67808W        W36171  37.088  29.161   3.804
67809W        W36172  42.882   6.838  11.948
67810W        W36173  28.059  35.858   2.794
67811W        W36174  41.937   4.767   0.280
67812W        W36175   5.849   7.882   3.702
67813W        W36176   9.817   1.874   2.891
67814W        W36177  37.379  38.858  14.305
67815W        W36178  13.330   8.281   0.343
67816W        W36179  33.517  17.753  12.364
67817W        W36180  27.156  39.560   3.775
67818W        W36181  27.126  14.211   2.234
67819W        W36182   9.845   6.364   3.671
67820W        W36183   3.427  11.653  12.402
67821W        W36184  40.013   4.319  14.919
67822W        W36185  36.578  28.618  14.964
67823W        W36186   1.940   2.959  12.027
67824W        W36187  35.069  30.054   1.445
67825W        W36188   0.369  44.303   0.370
67826W        W36189   5.422  15.724   0.453
67827W        W36190   7.770  41.907   2.407
67828W        W36191  15.589  27.453   3.823
67829W        W36192  33.394  19.249   0.437
67830W        W36193  24.582  32.517   2.704
67831W        W36194  16.768  21.187   1.267
67832W        W36195   3.217  38.020   0.842
67833W        W36196  39.053   2.812  12.895
67834W        W36197   7.851  31.469  11.890
67835W        W36198  15.314  24.098  14.504
67836W        W36199  17.088   2.468   2.418
67837W        W36200  44.765  17.651   1.269
67838W        W36201  23.719  28.599   3.662
67839W        W36202  42.921   0.370  13.447
67840W        W36203   8.186  37.868  13.414
67841W        W36204   8.842  44.888   4.636
67842W        W36205   0.895  17.668   1.768
67843W        W36206  37.082   0.836  11.431
67844W        W36207  29.527  31.048  12.949
67845W        W36208   7.348  11.212  14.872
67846W        W36209  11.713   8.370   2.206
67847W        W36210  14.169  12.829   2.768
67848W        W36211  36.942  16.598   2.676
67849W        W36212  17.712  43.892  13.448
67850W        W36213  34.592  36.510   1.766
67851W        W36214  44.466  32.036  11.588
67852W        W36215  41.891  30.545  14.825
67853W        W36216  33.570  19.646  12.860
67854W        W36217  27.979  44.771  12.034
67855W        W36218  13.146  11.357   1.421
67856W        W36219  41.857   5.717  14.952
67857W        W36220  29.633  18.190  10.948
67858W        W36221  16.167  28.185  11.602
67859W        W36222  20.625   8.689   0.328
67860W        W36223  35.889  12.287   3.183
67861W        W36224  25.994  14.170  14.824
67862W        W36225  20.138  41.882  12.457
67863W        W36226  30.475  18.772  12.511
67864W        W36227  25.970   7.689   2.706
67865W        W36228   2.291  44.857   2.768
67866W        W36229  38.387  15.591  13.395
67867W        W36230  35.539  11.683   1.216
67868W        W36231  15.179   5.770   3.151
67869W        W36232   3.298   6.832   2.815
67870W        W36233   7.773   5.350   2.254
67871W        W36234  21.630  44.897  14.819
67872W        W36235  37.993  34.050  14.975
67873W        W36236   6.324  32.575  14.387
67874W        W36237   0.812  29.133  11.021
67875W        W36238   1.242  21.108   1.214
67876W        W36239   2.809   2.809  14.868
67877W        W36240  30.534   2.828  11.858
67878W        W36241  14.169  29.656  13.966
67879W        W36242   2.854  35.983   2.704
67880W        W36243   7.335   2.781  13.487
67881W        W36244  23.052  33.428  10.967
67882W        W36245  20.647  11.658  10.473
67883W        W36246  25.554  35.060  10.493
67884W        W36247  42.879  42.869   0.377
67885W        W36248  39.379  24.000   2.738
67886W        W36249  43.396  20.737  13.451
67887W        W36250  19.284   8.702  14.878
67888W        W36251   1.901   5.895   3.864
67889W        W36252   0.263  29.657  10.939
67890W        W36253  34.420  14.159  10.990
67891W        W36254  21.630  18.220  11.121
67892W        W36255  28.661  44.877  11.970
67893W        W36256  39.044  33.408  11.405
67894W        W36257  36.909   5.256  11.571
67895W        W36258  16.585  18.697  11.588
67896W        W36259  31.416  22.544   4.699
67897W        W36260  12.224   2.315   4.231
67898W        W36261  20.078  31.614   2.881
67899W        W36262  19.187  26.126   0.327
67900W        W36263  29.094  13.711  11.375
67901W        W36264   6.699   9.203  12.079
67902W        W36265  23.173   6.912   4.181
67903W        W36266   4.768  43.392  14.830
67904W        W36267  36.515  42.502  11.404
67905W        W36268  24.058  17.688  13.457
67906W        W36269  43.784  19.777  11.432
67907W        W36270   0.772  37.515   3.162
67908W        W36271  29.456  36.491   1.711
67909W        W36272  19.274  19.190  10.912
67910W        W36273  33.469  10.798  13.844
67911W        W36274  24.551  11.343  13.470
67912W        W36275  12.187  41.484  12.027
67913W        W36276  33.543  41.343  12.558
67914W        W36277  26.151   2.295  12.918
67915W        W36278  33.414   0.389  10.907
67916W        W36279  12.235  41.302   2.878
67917W        W36280  21.723  23.732  11.609
67918W        W36281  42.790  31.026  10.644
67919W        W36282  21.514  31.150   0.726
67920W        W36283  37.857  22.524  10.438
67921W        W36284  21.703   0.956   3.680
67922W        W36285   2.915  41.899   1.407
67923W        W36286  27.005   4.387   3.658
67924W        W36287  24.974   1.737   1.734
67925W        W36288   1.395  23.547  13.346
67926W        W36289  12.186  27.597  12.385
67927W        W36290  27.046  23.563  11.452
67928W        W36291  18.785  29.166   1.834
67929W        W36292  11.236  39.377  14.420
67930W        W36293   3.388   1.937   0.337
67931W        W36294  30.059  22.103   1.246
67932W        W36295  25.483  40.983   1.414
67933W        W36296  29.027  22.501   3.800
67934W        W36297  20.192  12.190   1.285
67935W        W36298  40.968   7.692   3.678
67936W        W36299   9.683  44.336   9.940
67937W        W36300  31.933  41.884   1.220
67938W        W36301  29.547   2.278  13.548
67939W        W36302  25.480  24.485   0.749
67940W        W36303   8.900  35.081  12.953
67941W        W36304  26.492   6.897   2.362
67942W        W36305  36.945  11.327  13.930
67943W        W36306  15.740  27.002   0.313
67944W        W36307  32.089  33.490   0.803
67945W        W36308  23.075  41.825   3.201
67946W        W36309  33.030  41.886   4.272
67947W        W36310  21.637   5.420  13.034
67948W        W36311  36.977  19.615  11.101
67949W        W36312   4.310  23.653  10.636
67950W        W36313  19.091   0.840   1.878
67951W        W36314   2.776  22.631   3.176
67952W        W36315  12.742  32.415  14.323
67953W        W36316  42.810  39.443  11.955
67954W        W36317  15.669  31.097   5.265
67955W        W36318  18.548  29.427   3.843
67956W        W36319  43.272  39.062  13.923
67957W        W36320  17.147  22.562   5.268
67958W        W36321  10.157  33.124  12.854
67959W        W36322  23.682  43.446  12.502
67960W        W36323  27.950  36.910  12.075
67961W        W36324  18.248  19.061   2.242
67962W        W36325   7.858  32.090  13.856
67963W        W36326  32.963   1.323   2.302
67964W        W36327  15.293  39.346  11.093
67965W        W36328   8.202  15.208  10.978
67966W        W36329  10.273  22.678  11.401
67967W        W36330  38.937  19.062   4.625
67968W        W36331  29.140   3.429  10.963
67969W        W36332  38.378  31.411   3.235
67970W        W36333  11.801   3.458  10.927
67971W        W36334  30.486   7.720   3.816
67972W        W36335  44.830  41.491   0.899
67973W        W36336  44.274   8.677   0.727
67974W        W36337  14.804  29.669  11.903
67975W        W36338  21.219   8.229   0.812
67976W        W36339   9.857  16.270  11.391
67977W        W36340  22.645  22.078  14.941
67978W        W36341  10.216  15.705   2.789
67979W        W36342  38.899  11.146  13.548
67980W        W36343  15.125  34.563   0.393
67981W        W36344  10.232  43.885   4.789
67982W        W36345   9.318  36.874  11.416
67983W        W36346  19.219  43.790  12.054
67984W        W36347  20.082  24.196   1.922
67985W        W36348  41.324  15.244  12.891
67986W        W36349  12.622  44.298  12.434
67987W        W36350  37.009  36.492   4.811
67988W        W36351   3.948  35.917  13.382
67989W        W36352  17.223  33.545  12.344
67990W        W36353  23.200   6.313   1.405
67991W        W36354  17.160  30.501   1.260
67992W        W36355  18.217  13.185  11.485
67993W        W36356  11.835  37.402  14.872
67994W        W36357  41.532  42.323  14.325
67995W        W36358  19.111  40.525   4.643
67996W        W36359  20.173  11.185   4.209
67997W        W36360  32.070  24.164  13.501
67998W        W36361  11.674   5.225  13.055
67999W        W36362  31.928  15.714   5.289
68000W        W36363  34.969  13.607   1.856
68001W        W36364  29.168   0.401  13.460
68002W        W36365  36.553  44.988  14.942
68003W        W36366  12.730  22.731  11.557
68004W        W36367  26.461  35.974  10.994
68005W        W36368  40.975  34.025  13.503
68006W        W36369   2.254  29.993  14.363
68007W        W36370  16.248  21.228   3.336
68008W        W36371  17.570  43.281   1.780
68009W        W36372  16.285  23.007   1.836
68010W        W36373   5.231  23.230  13.060
68011W        W36374   0.493   4.879   2.896
68012W        W36375  19.158  18.174  13.005
68013W        W36376  43.440  22.016   2.275
68014W        W36377   3.379  13.749   4.791
68015W        W36378  33.462   3.719  11.990
68016W        W36379  38.889  29.166  12.942
68017W        W36380  14.308  11.357   1.878
68018W        W36381  10.645  42.374  13.448
68019W        W36382   6.245   6.420  13.511
68020W        W36383  31.524  44.920  14.373
68021W        W36384   0.877  10.703   2.896
68022W        W36385  40.907  35.528   1.887
68023W        W36386  10.267   4.427  14.000
68024W        W36387   5.263  17.727   0.906
68025W        W36388  27.143  42.401   1.339
68026W        W36389  13.829   6.218  13.367
68027W        W36390  32.905  18.236  13.473
68028W        W36391  18.203  22.629  11.603
68029W        W36392   5.415  12.688  11.453
68030W        W36393  18.238   2.351   2.758
68031W        W36394  40.806  20.748  12.861
68032W        W36395  36.038  38.447  11.880
68033W        W36396  26.196  17.617  14.842
68034W        W36397  20.595   8.390   2.266
68035W        W36398  12.116  38.961   3.259
68036W        W36399  13.231   1.466  14.809
68037W        W36400  44.949  44.304   1.697
68038W        W36401  41.014   5.261  14.457
68039W        W36402  40.933  36.503   2.399
68040W        W36403   4.311   1.368  11.900
68041W        W36404   3.906  42.483   1.282
68042W        W36405  20.045  35.911   2.821
68043W        W36406   6.335  22.643  13.047
68044W        W36407  28.604  41.820   3.265
68045W        W36408  26.076  25.494  12.850
68046W        W36409  31.425  27.165  14.437
68047W        W36410  14.330  38.532  13.472
68048W        W36411   5.753  32.493  12.480
68049W        W36412  17.236  10.278  14.965
68050W        W36413  11.729  15.731   2.725
68051W        W36414   1.738   8.399   3.790
68052W        W36415  36.857   8.328  11.891
68053W        W36416   8.290  21.644  11.952
68054W        W36417   6.393  27.135  10.465
68055W        W36418  30.501   9.158   3.806
68056W        W36419  16.206   4.942  12.470
68057W        W36420  22.572  37.465   0.831
68058W        W36421  29.962  29.439   3.372
68059W        W36422  15.704  20.135   4.129
68060W        W36423  26.567  18.276   3.175
68061W        W36424   8.706  40.845   1.847
68062W        W36425  38.026  17.569   2.672
68063W        W36426  29.495  22.240   0.469
68064W        W36427   9.258   4.739   0.245
68065W        W36428   8.359  30.933  13.813
68066W        W36429  25.090  33.474   4.701
68067W        W36430   6.736  21.050  12.995
68068W        W36431  29.113  14.239  10.433
68069W        W36432   8.797  22.082   3.236
68070W        W36433  15.783  34.493  12.565
68071W        W36434   8.403  23.155   2.301
68072W        W36435  28.168   1.292   0.836
68073W        W36436  23.111  33.988   1.708
68074W        W36437  18.553   6.377   0.732
68075W        W36438  44.301  24.001  12.556
68076W        W36439  34.994  42.856  12.017
68077W        W36440  34.432  32.135  11.607
68078W        W36441  19.628   6.749  14.981
68079W        W36442   8.813  26.003   1.932
68080W        W36443  20.600  41.481  11.526
68081W        W36444  16.584  28.028  10.590
68082W        W36445  27.958  42.924  11.450
68083W        W36446  17.609   8.328  10.564
68084W        W36447  36.474  27.631  11.605
68085W        W36448   0.944  22.182  11.435
68086W        W36449  13.204  19.043  11.519
68087W        W36450  11.342  12.686  12.050
68088W        W36451  33.923  34.923   2.325
68089W        W36452  36.028  19.582  11.433
68090W        W36453   0.746  27.956  14.469
68091W        W36454  23.053  11.231   4.245
68092W        W36455   9.168  38.516   0.416
68093W        W36456  32.551  10.648  11.935
68094W        W36457  16.812   8.843   4.679
68095W        W36458  21.106  44.426   3.841
68096W        W36459   1.463  31.094  12.454
68097W        W36460  15.145  38.450  14.947
68098W        W36461  44.502  11.811  10.448
68099W        W36462  31.097  24.579   0.393
68100W        W36463  20.116  22.513  11.438
68101W        W36464  42.845  22.060   1.803
68102W        W36465  42.386  18.092  11.057
68103W        W36466  18.087  13.796   0.357
68104W        W36467  43.939  38.530  14.443
68105W        W36468   2.378   1.283  14.379
68106W        W36469  26.587  44.937   2.218
68107W        W36470  40.938  34.966   3.725
68108W        W36471  34.381  42.327   2.845
68109W        W36472  35.567  41.923  12.370
68110W        W36473  43.511   1.334   1.312
68111W        W36474   3.250   1.966   3.257
68112W        W36475  25.684   1.922   1.439
68113W        W36476  11.632   6.264  12.909
68114W        W36477  26.695   0.978   0.767
68115W        W36478  34.591  31.531  14.001
68116W        W36479   7.264  40.316  11.020
68117W        W36480  27.512  36.455   2.887
68118W        W36481  33.959   4.310  12.935
68119W        W36482  39.451  37.958   1.764
68120W        W36483   3.429  37.861  10.609
68121W        W36484  44.354  21.587  12.440
68122W        W36485  22.007  12.243  11.601
68123W        W36486  38.023  29.123  14.829
68124W        W36487  37.864  38.449  12.559
68125W        W36488  18.283  27.970   0.761
68126W        W36489  36.089  22.111  13.348
68127W        W36490  35.522  18.704  12.469
68128W        W36491  39.449  29.649   0.755
68129W        W36492  27.950  24.087   0.341
68130W        W36493   5.740  10.263  12.385
68131W        W36494  23.216  17.252   4.690
68132W        W36495  29.640  20.558   4.202
68133W        W36496  30.077  16.155  14.846
68134W        W36497  39.001  30.621   2.362
68135W        W36498  34.435  26.479   0.814
68136W        W36499  16.285  40.308   4.683
68137W        W36500   5.334  34.509  13.425
68138W        W36501  37.994  21.052  11.990
68139W        W36502   3.376   5.711   1.781
68140W        W36503  41.901   1.887  10.108
68141W        W36504  39.014  39.884  12.085
68142W        W36505  30.926  16.304  13.372
68143W        W36506  40.803  30.516  12.366
68144W        W36507  30.488   2.839  14.869
68145W        W36508  25.052  15.735  11.089
68146W        W36509  40.357   5.726  14.973
68147W        W36510  44.443  34.594   2.718
68148W        W36511  10.866  19.283  13.926
68149W        W36512   1.250  38.437   0.478
68150W        W36513  44.382  27.514   1.774
68151W        W36514  41.917   8.354  14.881
68152W        W36515  13.324  23.072  13.871
68153W        W36516  16.667  39.399   1.331
68154W        W36517  32.602   9.831  12.556
68155W        W36518   9.284  30.503  12.972
68156W        W36519  18.248  10.841   2.837
68157W        W36520  23.036  14.698   1.720
68158W        W36521   5.402  19.683   1.249
68159W        W36522  30.531  35.488  12.892
68160W        W36523   7.353  16.580   4.284
68161W        W36524  32.085  41.375   4.269
68162W        W36525  39.859   0.811   1.723
68163W        W36526  14.214  11.265  13.462
68164W        W36527   3.358  25.580   2.887
68165W        W36528  14.307  22.070   1.219
68166W        W36529  31.138  12.775  12.353
68167W        W36530  26.053  11.834  12.349
68168W        W36531  34.863  24.604  14.869
68169W        W36532  37.422  22.662  12.881
68170W        W36533   7.173   0.851  12.389
68171W        W36534  42.824  25.111  12.399
68172W        W36535   7.371   7.411  12.379
68173W        W36536  10.323  43.873  12.036
68174W        W36537  10.729   7.268  10.639
68175W        W36538  23.536   5.410   4.136
68176W        W36539  30.599  31.036   4.257
68177W        W36540  41.947  38.361  10.514
68178W        W36541  42.377  17.168   2.178
68179W        W36542  31.592  27.993   4.692
68180W        W36543  17.590   8.191   0.418
68181W        W36544  34.388   6.857  12.562
68182W        W36545  34.058  11.787   4.290
68183W        W36546  28.111  18.756   1.778
68184W        W36547  16.261  21.162  13.480
68185W        W36548  42.391  28.177   0.796
68186W        W36549  33.097   9.154  11.871
68187W        W36550  43.434  19.548  13.972
68188W        W36551  32.601  40.852  10.951
68189W        W36552  18.258  22.251   2.843
68190W        W36553  18.603  24.488  13.807
68191W        W36554  12.138   4.851  12.846
68192W        W36555   5.780   9.334  12.927
68193W        W36556  28.537  37.538   4.346
68194W        W36557  44.976  27.062   2.848
68195W        W36558  26.006  42.955   0.266
68196W        W36559   1.924  20.112  13.978
68197W        W36560  18.760   4.822   2.768
68198W        W36561  28.677  44.503   4.255
68199W        W36562  27.577  41.820  13.511
68200W        W36563  15.296  19.775   0.321
68201W        W36564  35.573   3.333   1.782
68202W        W36565   8.799   0.276  14.793
68203W        W36566  37.838  20.556   3.804
68204W        W36567  24.013   2.240   1.268
68205W        W36568  40.864  14.266   3.162
68206W        W36569   3.258  24.114   4.735
68207W        W36570  44.761  10.210  11.444
68208W        W36571  20.551  22.228   2.320
68209W        W36572  20.175   4.721   2.779
68210W        W36573  26.007  17.151   2.758
68211W        W36574  43.011  11.288  13.328
68212W        W36575  33.945  19.245   1.333
68213W        W36576  21.033  34.443  13.434
68214W        W36577  19.667   3.401   4.616
68215W        W36578  27.512  28.613  11.938
68216W        W36579  30.920  35.463   3.860
68217W        W36580  38.455  21.593  13.458
68218W        W36581  16.641   8.337   3.198
68219W        W36582  13.253  27.520   4.251
68220W        W36583   6.787   5.730  11.005
68221W        W36584  30.600  23.158   0.941
68222W        W36585  32.547  33.001  11.990
68223W        W36586  43.966  41.361  12.970
68224W        W36587  43.408  18.249   3.698
68225W        W36588   8.808  39.049   1.285
68226W        W36589  14.322  39.328  11.414
68227W        W36590  19.176  26.055   3.862
68228W        W36591  23.189   9.708   0.290
68229W        W36592  20.672  35.919  12.566
68230W        W36593   1.912   7.298   4.776
68231W        W36594  23.055  24.548   2.862
68232W        W36595  16.239  36.943  10.988
68233W        W36596   4.788   7.346  14.852
68234W        W36597  30.470  38.537   2.860
68235W        W36598  27.055  13.180  14.338
68236W        W36599  32.113  41.954   0.286
68237W        W36600  28.681  21.090   1.845
68238W        W36601   1.383  39.341   1.743
68239W        W36602  30.132   4.210  12.038
68240W        W36603  30.151  41.334   0.406
68241W        W36604  19.253  27.033  11.479
68242W        W36605  16.630  43.448   4.718
68243W        W36606  12.132  22.642   1.258
68244W        W36607  24.711  24.555  12.870
68245W        W36608  19.574  18.577   2.207
68246W        W36609  20.523  37.577  13.535
68247W        W36610  28.503   2.304  10.471
68248W        W36611  14.101   4.376   2.248
68249W        W36612  28.435  33.932  11.947
68250W        W36613  13.605  19.178  14.772
68251W        W36614  17.301  32.564  12.978
68252W        W36615   7.359  27.940   0.403
68253W        W36616  37.009  30.161   2.821
68254W        W36617  29.967   7.902   0.472
68255W        W36618  43.507  34.990  10.939
68256W        W36619  15.231  39.941  14.962
68257W        W36620   3.432  18.113  11.085
68258W        W36621  27.525   6.897  10.462
68259W        W36622  23.544   7.357   2.669
68260W        W36623  29.459  21.143  12.456
68261W        W36624  30.553  13.153   0.395
68262W        W36625   4.876   1.391  10.141
68263W        W36626   7.759  29.555  12.511
68264W        W36627  16.233  16.740  10.635
68265W        W36628  44.442   6.406  11.936
68266W        W36629   1.440  43.974  10.470
68267W        W36630  30.483  16.169  11.948
68268W        W36631  21.697  11.771   3.201
68269W        W36632  38.010   2.765   3.217
68270W        W36633   2.340  26.063  14.479
68271W        W36634  22.169   1.422   3.386
68272W        W36635   2.774  23.038   2.685
68273W        W36636  13.332  22.117  11.992
68274W        W36637  37.916  38.568   2.217
68275W        W36638  13.700  16.679  11.521
68276W        W36639  18.112   6.697  14.006
68277W        W36640  19.267   0.876   0.751
68278W        W36641  42.778  10.353   0.963
68279W        W36642  37.903  14.744  14.502
68280W        W36643  37.877  36.937   4.650
68281W        W36644  10.226  30.946  10.984
68282W        W36645  23.661  19.731   1.288
68283W        W36646  15.738   0.390   2.732
68284W        W36647  41.439  21.589   2.225
68285W        W36648  40.881  33.516  11.923
68286W        W36649   5.931  32.927  13.957
68287W        W36650   7.705  43.440   4.255
68288W        W36651  29.608  24.559   3.290
68289W        W36652   7.257  39.894  14.799
68290W        W36653  40.481   7.827  10.566
68291W        W36654   8.726  32.584  14.352
68292W        W36655  16.318  25.000  13.476
68293W        W36656  18.138   2.450  11.998
68294W        W36657  39.417   7.900  10.459
68295W        W36658  35.570  20.539   1.827
68296W        W36659  38.524  34.370  12.527
68297W        W36660  29.084  14.258  14.425
68298W        W36661  26.562  36.359   2.296
68299W        W36662   1.466  31.045  10.425
68300W        W36663  25.983  42.354   4.157
68301W        W36664  23.176  30.939  11.502
68302W        W36665  44.458  25.540  11.573
68303W        W36666   4.929  39.491   0.342
68304W        W36667  31.541  32.588  11.928
68305W        W36668  19.175   8.891   4.615
68306W        W36669   6.887  33.435  12.564
68307W        W36670  19.152   2.286  12.444
68308W        W36671  25.172  35.510   4.185
68309W        W36672  26.698  26.061   0.410
68310W        W36673  32.097  24.981   4.684
68311W        W36674  33.895  22.022   4.816
68312W        W36675  11.823  44.811   3.226
68313W        W36676  44.275  33.499  12.468
68314W        W36677   8.249  36.910   1.821
68315W        W36678  27.596  29.601  11.487
68316W        W36679  43.516  25.151   3.647
68317W        W36680   5.854  32.620   2.677
68318W        W36681   6.752  35.529   1.895
68319W        W36682   4.776  30.970  14.968
68320W        W36683  38.395  35.371   1.334
68321W        W36684  41.471   7.196   3.816
68322W        W36685  21.077  13.324  13.417
68323W        W36686  34.046   8.183   0.781
68324W        W36687   6.686  25.625   1.784
68325W        W36688  38.837   7.783  11.432
68326W        W36689   9.845  15.638   0.430
68327W        W36690  42.996  36.900  14.921
68328W        W36691  41.509  17.629   1.297
68329W        W36692  28.513  13.686   0.882
68330W        W36693  35.029  43.822   3.159
68331W        W36694   8.676  43.453  11.128
68332W        W36695  27.467   5.391   4.820
68333W        W36696   5.773  24.661  14.288
68334W        W36697   3.718   1.419   1.333
68335W        W36698   2.726  29.527   1.857
68336W        W36699  44.006  22.041  14.006
68337W        W36700  10.715  14.757   3.770
68338W        W36701  34.062  39.048   4.834
68339W        W36702   4.415  18.662  13.989
68340W        W36703  27.008  32.954  10.941
68341W        W36704   9.768   4.303  12.571
68342W        W36705  42.482  40.447  12.828
68343W        W36706   9.262  21.680   1.721
68344W        W36707  17.195  13.606  10.978
68345W        W36708   2.917  31.571  11.105
68346W        W36709  30.533  17.224   1.702
68347W        W36710   8.235  39.348   3.312
68348W        W36711  26.461  12.359   0.340
68349W        W36712  26.608  24.723  12.080
68350W        W36713  22.201  13.311  11.036
68351W        W36714  27.681  17.189   1.746
68352W        W36715  21.550  38.368   3.179
68353W        W36716   3.887  14.789   0.334
68354W        W36717  37.344  10.756   2.379
68355W        W36718  29.057  30.144   4.128
68356W        W36719  26.153  31.013   0.479
68357W        W36720  10.775  40.448  11.502
68358W        W36721  26.542  23.695  10.557
68359W        W36722  24.188   6.860   4.672
68360W        W36723  38.821  21.590  12.554
68361W        W36724  16.690  24.121  13.530
68362W        W36725  40.891  24.181   0.957
68363W        W36726  41.354   6.879  11.120
68364W        W36727  11.725  12.334  13.896
68365W        W36728  40.428  39.962   4.283
68366W        W36729  41.324  11.724  13.941
68367W        W36730  18.672  27.176  13.903
68368W        W36731   7.262  43.413  11.916
68369W        W36732   0.816  32.506   4.139
68370W        W36733   5.427  27.618   2.831
68371W        W36734   5.932  35.924  11.446
68372W        W36735  31.008  30.640   2.713
68373W        W36736  13.128  40.335  13.831
68374W        W36737  18.595  40.932   0.245
68375W        W36738  19.772  42.422  12.045
68376W        W36739   5.700  16.238   1.854
68377W        W36740  30.625   4.312  10.895
68378W        W36741  33.565  14.795   0.932
68379W        W36742   7.876  26.519  14.790
68380W        W36743   7.747   7.720   3.762
68381W        W36744  16.803  15.700  11.994
68382W        W36745   4.210  30.118  11.971
68383W        W36746   7.171  17.796   0.945
68384W        W36747  17.656  39.047   2.793
68385W        W36748  10.751  29.022   4.751
68386W        W36749  35.894  38.923  13.898
68387W        W36750   1.336   2.234  11.413
68388W        W36751  19.700   2.935   1.416
68389W        W36752  36.527  20.621   2.715
68390W        W36753  20.244  23.543  14.437
68391W        W36754  35.446  40.888   1.698
68392W        W36755  31.022  31.427  10.537
68393W        W36756  17.676   7.901   0.875
68394W        W36757  37.398  32.523  13.330
68395W        W36758   8.808  17.233  11.410
68396W        W36759  13.204   4.408  14.445
68397W        W36760  13.263  41.403  13.399
68398W        W36761  36.956  29.441  13.851
68399W        W36762  29.983  26.961  11.899
68400W        W36763  15.761  44.854  11.374
68401W        W36764  35.526  44.775  14.300
68402W        W36765  11.809   5.813  13.356
68403W        W36766  33.609  31.635   0.765
68404W        W36767  37.907  29.146  14.495
68405W        W36768  30.466   7.704   0.304
68406W        W36769  26.189   8.723  13.955
68407W        W36770  34.948  17.140   4.669
68408W        W36771  33.965   6.256   4.788
68409W        W36772  10.687  15.107  11.926
68410W        W36773  34.102  15.608  13.462
68411W        W36774   7.795  30.559   0.320
68412W        W36775  34.459  26.594   0.365
68413W        W36776  24.118  34.035   3.180
68414W        W36777   3.228  44.398  13.309
68415W        W36778  43.276  23.014  13.477
68416W        W36779  35.526  33.425   2.835
68417W        W36780  42.965   1.974   1.704
68418W        W36781  41.021  26.486  10.586
68419W        W36782  34.981  42.801   0.407
68420W        W36783  25.034  28.561  11.917
68421W        W36784   4.416  41.301   2.808
68422W        W36785  29.434   4.332  14.323
68423W        W36786   5.374   3.277  10.428
68424W        W36787  36.866   3.289   1.896
68425W        W36788  25.056   2.282   5.232
68426W        W36789  21.252   5.376  13.322
68427W        W36790  13.765  17.790   1.244
68428W        W36791  33.398  28.022  14.422
68429W        W36792  21.725  42.922   2.819
68430W        W36793  18.159   7.197   2.739
68431W        W36794  32.139  12.130  11.937
68432W        W36795   4.392  22.627   2.881
68433W        W36796  21.607  39.894   0.372
68434W        W36797  37.429  41.030  14.005
68435W        W36798  12.282  22.539  14.881
68436W        W36799  35.568  12.680  10.455
68437W        W36800  12.736   9.760   0.908
68438W        W36801  30.132  28.662  11.129
68439W        W36802  34.877  43.304  14.908
68440W        W36803   2.354  32.106   5.225
68441W        W36804  41.342  26.615   0.260
68442W        W36805  18.246  15.764   1.386
68443W        W36806  35.083  21.750  10.511
68444W        W36807  37.554  31.938  14.905
68445W        W36808  27.121  27.993   1.901
68446W        W36809   3.365  24.563   4.811
68447W        W36810   3.426  40.533   2.342
68448W        W36811   9.389  20.677   2.895
68449W        W36812  19.696  39.856   4.707
68450W        W36813  42.500   8.305   1.802
68451W        W36814   1.381   3.454   3.368
68452W        W36815  42.996  26.527   1.713
68453W        W36816  13.783  30.948   1.710
68454W        W36817  31.016   3.850  10.912
68455W        W36818  39.836  41.820   1.402
68456W        W36819  29.656  14.660   3.243
68457W        W36820  38.915  41.828  11.117
68458W        W36821   6.882   3.236  11.974
68459W        W36822   2.870  25.682  14.770
68460W        W36823  37.371  29.536   4.229
68461W        W36824  17.640   5.740  11.558
68462W        W36825  29.946  23.063  11.599
68463W        W36826  40.894  29.034  13.418
68464W        W36827  38.974  17.582   2.289
68465W        W36828  32.006  11.322  13.945
68466W        W36829  37.868  26.596  14.024
68467W        W36830   2.401  44.768   9.920
68468W        W36831  22.611  18.579   1.405
68469W        W36832  30.953  43.802   3.870
68470W        W36833   4.412  38.928   4.274
68471W        W36834  35.503   8.729  12.985
68472W        W36835   1.782  25.582  13.408
68473W        W36836  18.628  29.445   3.377
68474W        W36837  20.193  38.340   2.358
68475W        W36838  29.667   9.658   1.874
68476W        W36839  36.066  29.993  10.574
68477W        W36840  17.658  24.215  11.886
68478W        W36841  44.470   9.263   2.220
68479W        W36842  30.049  29.455   5.093
68480W        W36843  41.409  35.470  11.603
68481W        W36844   9.387   9.732  14.993
68482W        W36845  13.244  23.011  14.433
68483W        W36846  33.880  42.908  12.508
68484W        W36847  30.599   6.715   3.307
68485W        W36848  26.023   0.263  10.951
68486W        W36849  10.703   9.718  13.388
68487W        W36850  32.406  33.071  12.923
68488W        W36851  10.377  31.410   1.906
68489W        W36852   1.320  39.363  14.779
68490W        W36853  10.226   3.262  10.081
68491W        W36854   2.346  10.650   2.803
68492W        W36855  41.520  20.569   0.297
68493W        W36856  21.202  13.310   4.745
68494W        W36857  23.038  16.741  14.287
68495W        W36858  13.797  12.834   4.693
68496W        W36859  32.588  30.040  12.839
68497W        W36860  10.710  26.684  13.876
68498W        W36861  32.082   3.355  10.942
68499W        W36862  21.025  21.093  11.907
68500W        W36863  13.291  37.565   4.800
68501W        W36864  16.646  25.091   0.269
68502W        W36865  20.657  15.702   1.868
68503W        W36866  22.692   6.185  14.892
68504W        W36867  19.213  11.668   0.960
68505W        W36868  32.456  21.602   0.763
68506W        W36869  15.667  13.802   3.655
68507W        W36870   0.964  43.853  14.005
68508W        W36871   3.748  41.298  13.513
68509W        W36872  22.102  29.664   4.270
68510W        W36873  36.950  34.445  11.478
68511W        W36874  33.605  17.605   1.223
68512W        W36875   6.723  26.008  12.420
68513W        W36876  30.089   9.731   0.952
68514W        W36877  26.208  35.963  11.513
68515W        W36878  28.939  12.731   4.653
68516W        W36879   2.803  43.443  14.409
68517W        W36880  27.034   5.339   0.857
68518W        W36881  36.849  25.672  11.034
68519W        W36882  43.836   7.188   2.361
68520W        W36883  42.847  43.475   3.313
68521W        W36884  16.154  31.544   2.792
68522W        W36885  35.948   4.868  12.518
68523W        W36886   9.763   4.801  14.948
68524W        W36887  35.863  25.133  14.912
68525W        W36888  39.340  42.812   2.834
68526W        W36889   3.816  42.007   0.371
68527W        W36890  33.513  35.413  11.957
68528W        W36891  33.535  40.055   1.889
68529W        W36892  32.916  35.888   2.807
68530W        W36893  41.826   5.208   1.860
68531W        W36894  32.995   4.790   0.257
68532W        W36895  20.568  40.918   2.305
68533W        W36896  35.037  33.512  12.960
68534W        W36897  42.849  35.890   0.855
68535W        W36898   6.304  29.598  12.978
68536W        W36899  16.297  26.464  11.381
68537W        W36900  39.345  35.580  13.364
68538W        W36901  11.347  29.002   0.377
68539W        W36902  26.091   7.775  11.907
68540W        W36903  24.048  24.036   3.808
68541W        W36904  16.169  16.244  11.884
68542W        W36905  37.858  39.453  11.512
68543W        W36906  32.117  44.315   0.413
68544W        W36907  44.815  23.522  12.988
68545W        W36908  42.787  34.382   0.845
68546W        W36909  34.398  11.160  14.764
68547W        W36910   9.754  22.680   1.260
68548W        W36911  32.927  28.592   2.851
68549W        W36912  36.948  35.036   4.285
68550W        W36913  16.248  13.783  12.024
68551W        W36914  16.806  36.899   3.824
68552W        W36915  36.039  29.167   3.383
68553W        W36916  27.605  35.915   3.660
68554W        W36917  32.454  25.045   1.384
68555W        W36918  39.448  20.531  12.444
68556W        W36919  13.118  36.433   1.725
68557W        W36920  28.069  29.508  13.346
68558W        W36921  33.971  42.380   4.325
68559W        W36922  33.603  19.139   3.800
68560W        W36923  16.812  35.556   1.278
68561W        W36924  31.423  21.144  10.980
68562W        W36925  18.614  29.097  14.777
68563W        W36926   3.409  40.521  11.510
68564W        W36927  17.189  12.793   3.807
68565W        W36928  24.029   6.890   4.327
68566W        W36929   9.248  24.575   0.305
68567W        W36930  29.975  19.059   0.739
68568W        W36931   1.767   8.229   0.282
68569W        W36932  17.732   8.385   3.214
68570W        W36933   4.791   8.213  12.402
68571W        W36934  17.644  37.403   0.302
68572W        W36935  11.733  30.522   3.665
68573W        W36936  31.419   8.257  14.885
68574W        W36937  36.958  13.677   2.742
68575W        W36938  13.808  18.617   1.266
68576W        W36939  22.120   6.230   1.382
68577W        W36940  27.031  34.059   4.182
68578W        W36941  22.726  24.659  14.766
68579W        W36942  36.458  19.700  11.011
68580W        W36943  19.070  13.634   3.788
68581W        W36944  35.518  31.505   2.405
68582W        W36945   7.674  42.996  10.544
68583W        W36946   2.858  35.485  12.884
68584W        W36947  25.076  14.099  13.992
68585W        W36948   1.769   8.310  11.495
68586W        W36949  12.354  16.612  13.409
68587W        W36950   9.179  16.130   1.886
68588W        W36951   5.400  25.086   5.082
68589W        W36952  18.756  11.812   5.293
68590W        W36953   4.233  13.646   2.332
68591W        W36954  18.732  35.402   4.809
68592W        W36955  27.079  35.506   4.665
68593W        W36956  32.520   3.908   2.266
68594W        W36957  36.083  25.568   1.332
68595W        W36958  11.792  15.814   3.182
68596W        W36959  22.069  16.185   4.603
68597W        W36960   7.758   2.740  10.539
68598W        W36961   2.285  16.598  12.480
68599W        W36962  30.922  12.691   3.239
68600W        W36963  12.363   7.397  12.379
68601W        W36964  29.574  43.843  10.918
68602W        W36965  13.206  10.751  10.630
68603W        W36966  30.126  26.530  13.404
68604W        W36967  14.713  18.656   2.831
68605W        W36968  21.222  20.545   0.312
68606W        W36969   5.719  33.415  12.823
68607W        W36970   8.210  32.080  14.418
68608W        W36971  23.501  14.609  14.905
68609W        W36972  23.559  17.161   3.709
68610W        W36973   4.340  27.098   3.825
68611W        W36974   7.896  21.178  11.083
68612W        W36975   9.685  42.434   2.331
68613W        W36976  30.502  20.105  14.936
68614W        W36977  40.442  11.132  14.007
68615W        W36978   2.470   8.393   2.339
68616W        W36979   0.962  34.107   1.727
68617W        W36980   6.270  28.454  13.012
68618W        W36981  32.412  35.994  12.375
68619W        W36982   1.417   4.769   2.759
68620W        W36983  14.694   9.330  12.518
68621W        W36984   2.784  25.677   0.799
68622W        W36985  14.607  18.676  11.114
68623W        W36986  19.735   1.925  12.989
68624W        W36987   2.441  21.702   0.285
68625W        W36988   4.759   8.329   4.129
68626W        W36989  33.403  29.475  14.881
68627W        W36990  39.842  40.394   1.404
68628W        W36991   3.818  20.742   0.848
68629W        W36992  38.367  32.887  12.439
68630W        W36993  39.483  39.394  13.063
68631W        W36994  34.908  15.579   0.419
68632W        W36995   5.347  15.275  10.959
68633W        W36996  35.403  32.943  14.909
68634W        W36997  36.457   7.375   1.310
68635W        W36998  35.479  26.645   3.328
68636W        W36999  34.907  42.489   4.753
68637W        W37000  33.921  14.820  12.488
68638W        W37001  27.551  40.473   1.370
68639W        W37002  36.587  23.111   0.470
68640W        W37003  18.758   9.689  10.491
68641W        W37004   0.926  31.956   3.385
68642W        W37005  40.848   9.759  12.923
68643W        W37006  14.621  24.121   4.313
68644W        W37007  40.465  40.962   0.461
68645W        W37008  36.870  26.976  12.465
68646W        W37009  32.464   9.224  10.455
68647W        W37010   9.775  40.979  14.282
68648W        W37011   7.193  12.146  11.544
68649W        W37012  38.942   5.424   4.342
68650W        W37013   6.401   5.231   4.665
68651W        W37014  16.273  38.945   0.912
68652W        W37015  20.157  13.702   1.770
68653W        W37016  13.810  30.489   2.248
68654W        W37017  27.025  24.160   3.860
68655W        W37018   5.422  41.459  12.888
68656W        W37019  22.555  30.620  11.021
68657W        W37020   8.266  32.974   3.704
68658W        W37021  15.687  37.367   4.818
68659W        W37022  16.229  24.061  14.831
68660W        W37023  15.139  25.690   4.317
68661W        W37024  39.444  40.356  13.351
68662W        W37025  28.661  13.278   2.255
68663W        W37026  18.291   3.387   5.269
68664W        W37027  15.098   4.774   5.103
68665W        W37028   5.256   7.747  14.290
68666W        W37029   7.691  39.937   0.452
68667W        W37030  31.533  44.773  13.514
68668W        W37031  29.580  40.456   3.766
68669W        W37032  13.816  16.198   3.812
68670W        W37033   8.784  43.860   2.775
68671W        W37034   9.326   5.271  10.547
68672W        W37035  43.851   2.247  14.893
68673W        W37036  35.554  36.492   3.720
68674W        W37037  11.733  41.931  10.448
68675W        W37038   5.392  36.920  14.362
68676W        W37039  39.832  38.517   3.856
68677W        W37040  27.145  34.402  12.534
68678W        W37041   2.799  33.491  13.502
68679W        W37042  17.100   7.180  12.002
68680W        W37043  30.594  14.672  12.523
68681W        W37044  40.351  30.074  13.512
68682W        W37045   3.885  34.543   4.597
68683W        W37046   6.768  15.122   4.637
68684W        W37047   9.337  36.887  13.521
68685W        W37048  43.341  22.093  13.453
68686W        W37049  19.248   4.845   2.756
68687W        W37050   3.348  13.196  11.926
68688W        W37051  10.836  31.960  10.010
68689W        W37052  15.607  24.583  14.327
68690W        W37053  41.534  10.157   0.737
68691W        W37054  14.325  32.960  11.924
68692W        W37055   6.694  14.695  11.448
68693W        W37056  42.780  20.738  12.409
68694W        W37057  35.989  36.552   4.713
68695W        W37058  42.839  37.560   2.815
68696W        W37059  37.516  13.106  12.068
68697W        W37060   6.858  32.453  14.484
68698W        W37061   6.851  15.142   2.372
68699W        W37062  27.534   1.264  12.396
68700W        W37063   2.850  10.853   2.212
68701W        W37064  32.510  10.167  12.549
68702W        W37065  20.548  28.970   1.924
68703W        W37066  43.386  14.612   1.760
68704W        W37067   6.876  29.636   0.369
68705W        W37068   8.795  39.012   5.314
68706W        W37069   2.789  29.929   3.271
68707W        W37070  28.470  39.828   4.801
68708W        W37071  26.512  22.744  11.913
68709W        W37072  28.157  31.077   4.824
68710W        W37073  38.919  20.561  11.982
68711W        W37074   3.346  36.504  14.399
68712W        W37075   8.758  18.769   1.445
68713W        W37076  15.687   0.944   1.876
68714W        W37077  41.807  36.941  10.645
68715W        W37078  17.736  26.467   2.195
68716W        W37079  43.866  40.859  11.582
68717W        W37080  10.683  14.241   3.861
68718W        W37081  44.988  43.370   2.310
68719W        W37082  14.716  30.057  14.435
68720W        W37083   3.246  11.196   0.863
68721W        W37084  29.110  37.426  11.010
68722W        W37085  21.609  39.344  11.378
68723W        W37086  29.468  29.627   9.621
68724W        W37087  41.876  12.834   9.921
68725W        W37088  27.538  10.632   4.219
68726W        W37089  32.970  15.691  13.340
68727W        W37090  13.195  17.609  10.897
68728W        W37091   5.246  29.158   1.266
68729W        W37092  38.342  37.508   1.723
68730W        W37093  42.430  38.075   1.311
68731W        W37094  37.942  43.321   1.879
68732W        W37095   9.857  44.924  12.945
68733W        W37096   1.353  24.977   1.814
68734W        W37097  15.592  17.279   4.137
68735W        W37098  36.923  13.643  14.895
68736W        W37099  23.533  30.503  12.525
68737W        W37100  10.782  34.408   1.265
68738W        W37101  27.141  17.700   3.816
68739W        W37102  20.729  41.527   1.923
68740W        W37103  42.797  19.127  13.934
68741W        W37104  13.163  10.686   3.825
68742W        W37105  32.581  44.376  12.016
68743W        W37106   3.783  43.341  10.474
68744W        W37107  26.531   8.703  13.793
68745W        W37108  28.617  28.476   1.934
68746W        W37109  42.441   2.818   4.695
68747W        W37110  29.174   6.828  14.909
68748W        W37111  35.045  32.566   1.231
68749W        W37112  41.407  27.558   1.808
68750W        W37113  24.564   9.235   2.327
68751W        W37114  11.133  27.646  11.862
68752W        W37115  31.083  28.091  12.497
68753W        W37116  41.794  18.691  14.940
68754W        W37117   4.756  21.104   9.977
68755W        W37118  36.508  18.085  14.853
68756W        W37119   4.779  40.341  10.458
68757W        W37120   3.390  12.115   0.451
68758W        W37121  10.147  26.203  15.000
68759W        W37122  22.176  37.086  13.808
68760W        W37123  40.408  25.966   4.755
68761W        W37124  17.730   3.233  10.464
68762W        W37125  21.700  16.136   3.239
68763W        W37126  24.057  16.125   4.639
68764W        W37127  41.935  31.428  10.485
68765W        W37128   8.851  27.182  13.894
68766W        W37129  35.970  20.732  13.866
68767W        W37130  33.971   1.866   4.620
68768W        W37131  16.685  20.167  12.999
68769W        W37132  28.035   0.971   5.290
68770W        W37133  23.527  37.035  10.439
68771W        W37134   4.892   4.236  12.540
68772W        W37135  19.734   3.444   3.808
68773W        W37136   0.493  43.496   3.667
68774W        W37137   8.218  41.983  11.930
68775W        W37138   3.371  23.610   0.417
68776W        W37139  35.101  21.585   4.785
68777W        W37140  30.097  18.148   3.195
68778W        W37141  16.179  14.138  11.025
68779W        W37142   8.890  32.911  11.526
68780W        W37143  27.489  44.929  14.290
68781W        W37144  39.422  34.954  13.964
68782W        W37145  37.360  18.558   2.279
68783W        W37146  42.782  34.907  13.000
68784W        W37147  37.501   7.845   1.397
68785W        W37148  15.697   6.813   1.306
68786W        W37149  21.657   6.846   2.811
68787W        W37150  40.511  13.149  10.557
68788W        W37151   5.306   5.315   0.408
68789W        W37152   8.220  24.550   4.656
68790W        W37153  43.930  30.965   3.351
68791W        W37154  38.021  30.975  14.888
68792W        W37155  37.030  21.521   0.818
68793W        W37156  18.619  22.687  13.875
68794W        W37157  12.247  26.196   4.827
68795W        W37158  29.955  22.141  11.560
68796W        W37159   8.890  24.723   4.231
68797W        W37160   6.283   9.151  10.155
68798W        W37161  28.080  38.345  12.897
68799W        W37162  36.488  28.085  10.634
68800W        W37163  13.131  21.036   2.707
68801W        W37164  25.174  38.362   1.363
68802W        W37165   1.480  38.016   0.275
68803W        W37166  33.023  28.089   1.862
68804W        W37167  12.241   9.193  13.005
68805W        W37168  22.622  36.495   0.804
68806W        W37169  13.207  32.465   2.820
68807W        W37170   5.742  38.551   1.707
68808W        W37171  29.522  17.623   0.469
68809W        W37172  22.562  32.006  10.084
68810W        W37173  35.451  22.101   4.720
68811W        W37174  21.173  24.654  14.809
68812W        W37175   4.909  23.133   2.197
68813W        W37176  30.575  43.021  13.470
68814W        W37177  35.589  19.540   0.844
68815W        W37178  32.121  12.671   0.455
68816W        W37179  32.573  10.209   2.319
68817W        W37180  17.199  29.934   4.686
68818W        W37181  28.631   7.812   3.673
68819W        W37182  39.891  38.004   4.680
68820W        W37183   1.402  17.150  11.014
68821W        W37184   1.247   7.266   1.401
68822W        W37185  25.155   3.925   3.307
68823W        W37186   2.321  23.020  14.770
68824W        W37187  12.816  12.681  14.501
68825W        W37188  24.635  18.287  12.935
68826W        W37189  36.403  38.940  11.390
68827W        W37190  40.903  25.097  11.495
68828W        W37191   0.795   4.796  12.449
68829W        W37192  17.736  32.602  13.436
68830W        W37193  17.166  27.641   1.274
68831W        W37194   1.422  43.423   0.329
68832W        W37195  20.098  10.144   4.186
68833W        W37196  31.133  38.062  13.994
68834W        W37197  11.204  15.220  13.056
68835W        W37198   5.315   0.397   4.277
68836W        W37199   3.909  13.797   2.736
68837W        W37200  37.935  26.554   3.337
68838W        W37201  35.911  22.640   4.228
68839W        W37202   6.393  10.787  13.992
68840W        W37203  26.207   7.404  11.968
68841W        W37204   5.711  38.967   3.832
68842W        W37205  31.926  16.784  10.508
68843W        W37206  30.113  31.026  14.443
68844W        W37207  42.450  11.192   1.327
68845W        W37208  24.201  20.528  14.880
68846W        W37209  35.478  30.921   1.760
68847W        W37210  36.537  28.017   3.858
68848W        W37211  41.916   8.322   2.858
68849W        W37212  17.090   3.314   0.439
68850W        W37213  36.468  27.188   1.356
68851W        W37214  24.537  41.883  12.008
68852W        W37215  11.666  19.632  12.971
68853W        W37216  25.563  44.788  13.990
68854W        W37217  37.909  44.439  10.095
68855W        W37218  19.223  44.774  12.958
68856W        W37219  15.137   7.351  11.599
68857W        W37220  23.198   5.699   2.254
68858W        W37221  24.532  39.324  13.039
68859W        W37222  20.570  16.284  12.858
68860W        W37223  41.369  43.811   3.291
68861W        W37224  28.594  19.657   2.391
68862W        W37225  29.428  25.640   4.234
68863W        W37226   9.771  13.345  12.410
68864W        W37227   6.357  30.087  14.809
68865W        W37228   0.365   4.315   2.254
68866W        W37229  33.507  10.337  11.079
68867W        W37230  16.714  28.998   1.894
68868W        W37231  25.620   8.741   1.252
68869W        W37232  29.035  21.676   4.725
68870W        W37233  31.014  36.372  11.078
68871W        W37234  38.884  24.624  13.463
68872W        W37235  27.467   6.911  13.499
68873W        W37236  42.417   7.382  10.892
68874W        W37237  17.149  14.208   4.650
68875W        W37238  43.274  38.551   3.667
68876W        W37239  34.614   5.326   3.653
68877W        W37240  29.612  24.130  14.310
68878W        W37241  12.709  36.366   0.292
68879W        W37242  19.637  36.549   2.400
68880W        W37243  34.035   1.431   9.509
68881W        W37244   6.915   3.360  14.886
68882W        W37245  16.074  42.879  14.943
68883W        W37246  17.274  39.840   4.218
68884W        W37247  32.975  16.619  14.941
68885W        W37248   4.286  14.098   2.745
68886W        W37249  41.864   4.384   0.937
68887W        W37250  14.781  21.591  12.024
68888W        W37251  16.089  26.670   1.915
68889W        W37252   6.322  33.957   0.800
68890W        W37253  34.083  24.229  14.966
68891W        W37254  13.662  35.534   1.441
68892W        W37255  16.287  33.924  12.953
68893W        W37256  24.160  33.046  10.478
68894W        W37257  39.890  32.020   2.716
68895W        W37258  33.072   4.373  14.913
68896W        W37259  44.483  23.226   1.309
68897W        W37260   4.278  41.530   1.369
68898W        W37261  39.877   1.332   0.955
68899W        W37262   4.715  41.834  14.435
68900W        W37263  28.675  19.640   4.830
68901W        W37264  19.606   2.755   3.308
68902W        W37265  14.702  18.132  13.955
68903W        W37266  14.709  27.031  11.857
68904W        W37267  31.911  34.058  11.595
68905W        W37268  32.580  30.596  14.793
68906W        W37269  29.066  27.582  11.470
68907W        W37270  40.447  23.619  10.974
68908W        W37271  10.351  42.811   2.179
68909W        W37272  43.460  15.097   2.339
68910W        W37273   4.874  15.780   1.293
68911W        W37274   0.855  28.131   2.412
68912W        W37275  40.484  29.955  14.372
68913W        W37276  44.392  38.881  13.059
68914W        W37277  18.786  19.728   0.376
68915W        W37278  10.704  10.798  12.973
68916W        W37279  44.319  10.693   3.146
68917W        W37280   4.753  39.339  14.886
68918W        W37281  38.865  33.101   2.253
68919W        W37282  25.149  33.901   1.363
68920W        W37283  24.517  25.032   2.806
68921W        W37284  25.625   5.423  13.014
68922W        W37285   8.357  36.464  14.344
68923W        W37286  28.512   5.707   3.740
68924W        W37287  37.356  35.424  12.823
68925W        W37288  44.469  19.184   3.846
68926W        W37289  13.641   9.751   4.229
68927W        W37290   4.332  41.926  11.420
68928W        W37291  24.162   1.805  10.923
68929W        W37292  14.326   2.914  10.032
68930W        W37293  18.296  39.468  12.900
68931W        W37294  29.934  35.423   4.292
68932W        W37295   8.661   6.387  12.955
68933W        W37296  25.637  22.747   2.416
68934W        W37297  17.685  42.775   3.823
68935W        W37298   6.385  43.498   2.839
68936W        W37299  34.108  25.108   1.739
68937W        W37300  13.340   9.291   2.705
68938W        W37301  39.542  17.109   2.739
68939W        W37302  29.493  23.150  12.391
68940W        W37303  35.943  22.561   1.438
68941W        W37304  29.086  27.073  12.002
68942W        W37305  31.935   8.848   0.436
68943W        W37306  41.335  12.621   2.379
68944W        W37307  28.556  29.952   1.894
68945W        W37308  24.982  15.316   0.955
68946W        W37309  35.405  12.186   3.361
68947W        W37310  31.971  26.565  13.828
68948W        W37311   8.178  35.921   1.905
68949W        W37312  43.344  27.546   3.838
68950W        W37313  17.179  32.404   2.248
68951W        W37314  24.062   3.793   3.278
68952W        W37315  16.571  28.528  13.428
68953W        W37316   9.794  22.554   3.372
68954W        W37317  32.534  40.981  10.506
68955W        W37318   6.708   5.896  14.377
68956W        W37319  29.983  32.914   0.765
68957W        W37320  25.598  41.381  13.515
68958W        W37321  43.385  31.014  12.445
68959W        W37322   8.685  11.832   0.870
68960W        W37323   5.383  31.416  11.092
68961W        W37324  17.082  33.494   2.707
68962W        W37325  32.985  25.059  13.928
68963W        W37326   4.757  41.035  11.936
68964W        W37327  11.729  35.571   2.854
68965W        W37328  21.594  18.200  13.524
68966W        W37329  37.427  35.924   0.775
68967W        W37330  39.321  15.667  11.019
68968W        W37331   9.303   1.816   1.854
68969W        W37332   0.782  41.961   1.725
68970W        W37333  30.165  13.295   4.225
68971W        W37334  35.032  22.521  11.546
68972W        W37335  40.989  32.907   3.284
68973W        W37336  33.573  40.400   1.875
68974W        W37337  22.745  23.579   2.382
68975W        W37338  13.700  43.796   3.307
68976W        W37339  17.620  32.996   4.318
68977W        W37340  13.290   1.390  12.421
68978W        W37341  41.812  13.318   4.198
68979W        W37342  35.955  43.804   1.930
68980W        W37343  29.496   5.337   1.285
68981W        W37344  31.429  40.380   1.706
68982W        W37345  25.684  13.291   1.397
68983W        W37346   0.262  25.220  14.821
68984W        W37347  43.791  41.347  11.507
68985W        W37348   7.241   8.296   4.757
68986W        W37349  25.660  25.969  13.814
68987W        W37350   7.906  38.032  13.434
68988W        W37351  22.085  11.794   3.175
68989W        W37352  42.390  17.165   3.205
68990W        W37353  40.974  21.184   1.436
68991W        W37354  35.939   1.300   2.306
68992W        W37355  14.104  18.565  14.434
68993W        W37356  35.600   5.345   2.180
68994W        W37357  29.101  29.002  12.917
68995W        W37358  39.987   4.357   2.830
68996W        W37359  37.991  17.691  13.415
68997W        W37360  18.228   1.333  14.839
68998W        W37361  40.957  24.631  13.373
68999W        W37362  29.543  30.991   3.866
69000W        W37363   6.328  32.505   1.212
69001W        W37364   0.401   8.688   2.798
69002W        W37365  29.113  34.382  11.449
69003W        W37366  34.921  44.904  12.065
69004W        W37367  22.656  30.920   2.216
69005W        W37368  36.001   8.350  13.994
69006W        W37369  29.075   0.891  12.075
69007W        W37370  20.684  40.868  12.863
69008W        W37371  41.436  41.892   0.259
69009W        W37372  27.162  10.262   2.702
69010W        W37373  17.167   6.884  13.001
69011W        W37374  20.050   4.247   0.819
69012W        W37375  10.154  24.223   0.930
69013W        W37376  21.721  31.533   2.779
69014W        W37377   7.211  17.207   3.687
69015W        W37378  27.986  16.690  14.834
69016W        W37379  23.012  42.456  13.979
69017W        W37380  12.171  26.089   3.222
69018W        W37381   2.313   6.865   0.289
69019W        W37382  17.660  30.943  12.470
69020W        W37383  27.547  41.316  14.834
69021W        W37384  12.808   7.871  14.404
69022W        W37385  42.280  11.803  14.879
69023W        W37386  38.839  32.394  13.862
69024W        W37387  13.347   7.805  12.968
69025W        W37388   7.175  36.894   3.669
69026W        W37389  41.958  13.269   3.147
69027W        W37390  33.609  38.395  14.447
69028W        W37391  41.803  16.621  13.352
69029W        W37392  42.031  24.562   2.669
69030W        W37393  35.055  28.093  13.309
69031W        W37394  32.975  24.663  14.978
69032W        W37395  24.673  19.547   1.915
69033W        W37396  13.191  26.576   0.920
69034W        W37397  35.953  18.119   0.391
69035W        W37398  18.646  12.229   2.316
69036W        W37399  38.512  32.008  10.547
69037W        W37400   0.430  21.591  13.828
69038W        W37401  39.348  22.723  12.939
69039W        W37402  22.070   4.855  12.909
69040W        W37403  16.189  20.060  14.767
69041W        W37404   3.305  29.157   9.992
69042W        W37405  33.961  27.050  14.857
69043W        W37406  34.601  39.393   4.618
69044W        W37407  40.948  14.197  13.934
69045W        W37408  32.536  24.666  14.814
69046W        W37409  34.965  35.058  11.496
69047W        W37410  17.759  28.983   2.852
69048W        W37411  43.487  21.592  12.922
69049W        W37412   0.432  26.524   1.709
69050W        W37413  37.545  40.376  10.997
69051W        W37414  39.317  43.937  13.794
69052W        W37415  23.012  11.674   4.787
69053W        W37416  20.717  37.559  14.473
69054W        W37417   2.786  20.044   0.244
69055W        W37418  33.982  15.166  10.913
69056W        W37419  26.564  42.451  12.863
69057W        W37420   4.340  37.037  12.936
69058W        W37421  43.464  31.479  11.389
69059W        W37422  36.890  14.637  10.620
69060W        W37423  25.643   2.355  11.979
69061W        W37424  43.331  18.592  11.457
69062W        W37425  29.517  13.785   3.347
69063W        W37426  26.694   2.462  10.406
69064W        W37427  19.147  15.678  12.490
69065W        W37428  39.433  36.860  12.450
69066W        W37429  40.309  43.830   3.346
69067W        W37430   7.236  16.230  13.939
69068W        W37431  33.494  39.991  14.457
69069W        W37432   5.767   6.874   3.167
69070W        W37433   2.788  14.642  10.627
69071W        W37434  29.023   0.330  11.534
69072W        W37435  10.301  28.051   0.458
69073W        W37436  19.744  40.844  11.126
69074W        W37437  20.253   8.704  13.370
69075W        W37438  38.021  40.454   0.854
69076W        W37439  14.726   9.739  14.031
69077W        W37440  10.273  26.478   2.354
69078W        W37441  13.312  30.030   4.759
69079W        W37442   9.708  13.159  11.106
69080W        W37443  32.513  33.590   0.866
69081W        W37444  14.689  18.158  12.075
69082W        W37445  14.217  42.956   4.274
69083W        W37446   7.862  23.118   2.751
69084W        W37447  37.384  29.554  12.050
69085W        W37448  36.497  39.921  13.954
69086W        W37449  31.131  39.942  13.517
69087W        W37450  26.049   4.875   1.280
69088W        W37451  33.977  38.340  14.926
69089W        W37452  28.980  34.444   2.819
69090W        W37453   8.349  33.121  11.857
69091W        W37454  30.017  41.993  13.444
69092W        W37455  36.382  22.250   2.805
69093W        W37456   8.216  44.788  13.840
69094W        W37457  26.022  20.253  13.475
69095W        W37458   1.320  38.325  10.640
69096W        W37459  16.234  32.451   0.347
69097W        W37460  35.964  30.420   3.656
69098W        W37461  17.767   0.461  11.081
69099W        W37462  29.146   3.323   3.811
69100W        W37463  33.616  44.818   2.385
69101W        W37464  16.805  36.872  11.530
69102W        W37465  42.968  17.108   0.923
69103W        W37466  12.347  42.399  14.399
69104W        W37467  43.362  34.513   4.333
69105W        W37468  17.266  21.179  10.096
69106W        W37469  43.941  41.361  14.007
69107W        W37470  21.108  40.471   2.367
69108W        W37471  22.199  20.181   4.351
69109W        W37472  10.782  31.106   4.116
69110W        W37473  32.112  19.096   2.197
69111W        W37474  15.311   9.192  13.486
69112W        W37475   0.835  40.369  12.367
69113W        W37476  35.074  14.608   1.745
69114W        W37477  40.428   6.356  11.383
69115W        W37478  28.980  27.581   2.895
69116W        W37479  30.499  15.086  14.373
69117W        W37480  28.157  42.446   2.249
69118W        W37481  41.835   6.302   0.942
69119W        W37482  27.572  42.817  11.067
69120W        W37483   1.461  10.730  13.404
69121W        W37484  41.467  17.690  12.875
69122W        W37485  30.489  28.973  12.574
69123W        W37486  24.519  18.599  14.512
69124W        W37487   5.766  28.434  14.443
69125W        W37488  25.521  21.537  12.006
69126W        W37489  10.257  12.691  14.495
69127W        W37490  27.455  40.441  11.405
69128W        W37491  24.219  15.701   3.792
69129W        W37492  37.541  26.127   2.895
69130W        W37493  43.329  38.898   2.391
69131W        W37494  19.130  17.740   2.818
69132W        W37495  16.093  27.147  12.351
69133W        W37496  21.559  34.397  13.422
69134W        W37497  44.887  16.678   4.694
69135W        W37498  17.557   9.714  14.840
69136W        W37499  32.588  44.890   3.310
69137W        W37500  13.172  34.452  10.483
69138W        W37501  39.437   2.813   2.419
69139W        W37502   5.329  25.131   0.881
69140W        W37503  21.596  17.242  11.031
69141W        W37504  40.838  12.824   1.355
69142W        W37505  44.364  26.679   2.761
69143W        W37506  15.818  34.615  12.895
69144W        W37507  30.103  21.535   0.416
69145W        W37508  36.510  26.607  11.902
69146W        W37509  13.166  15.657   0.887
69147W        W37510  33.045  36.984  11.516
69148W        W37511  17.273   5.840   4.815
69149W        W37512  25.570  27.503  12.537
69150W        W37513  44.804  42.501   3.714
69151W        W37514   6.815  12.294  10.603
69152W        W37515   4.371  22.034  14.478
69153W        W37516  11.771  20.759  11.992
69154W        W37517  25.211  36.373  10.616
69155W        W37518  44.994  21.715   2.307
69156W        W37519  15.234  38.475   4.687
69157W        W37520  41.307  32.410   4.615
69158W        W37521   8.855  38.058   0.411
69159W        W37522  12.829  39.026  13.816
69160W        W37523  40.541  25.018   1.743
69161W        W37524  18.143   2.380   4.816
69162W        W37525  41.517   2.432   0.831
69163W        W37526   7.395  25.093   2.832
69164W        W37527  19.735   9.214  13.817
69165W        W37528  17.752  40.053  14.398
69166W        W37529  11.309  41.937   0.247
69167W        W37530  25.629  42.993   9.953
69168W        W37531   8.773  26.984   1.704
69169W        W37532  33.471   1.444   3.187
69170W        W37533  34.905  10.202  14.337
69171W        W37534  32.392  19.632   3.161
69172W        W37535   6.387  35.594   0.453
69173W        W37536  18.648  26.563   3.796
69174W        W37537  29.585  25.547  13.547
69175W        W37538  43.409  11.803  14.449
69176W        W37539  10.137  40.317   2.868
69177W        W37540   1.339  42.895  11.025
69178W        W37541  11.726  44.783  10.451
69179W        W37542  37.853  43.022   0.259
69180W        W37543  39.368  24.229  14.822
69181W        W37544   8.829  32.020  11.937
69182W        W37545  22.643   8.759   0.269
69183W        W37546  29.155  25.585  14.349
69184W        W37547  16.207  25.674   4.340
69185W        W37548  18.785   8.406  13.883
69186W        W37549  27.612   8.380   0.821
69187W        W37550  35.051  25.076   1.442
69188W        W37551  28.557  13.732   4.803
69189W        W37552   7.179  20.763   4.311
69190W        W37553  33.972  44.479  11.607
69191W        W37554   8.672  21.523  11.488
69192W        W37555  24.632  19.266  12.560
69193W        W37556  41.987  33.494   0.344
69194W        W37557   3.897  19.051   2.209
69195W        W37558  14.276  20.528  14.322
69196W        W37559  30.528  24.183  14.410
69197W        W37560  38.038  25.206   4.311
69198W        W37561   1.859  34.393   1.329
69199W        W37562  18.787   5.812  13.050
69200W        W37563  10.862  31.141  10.575
69201W        W37564   2.409   8.756   5.216
69202W        W37565  24.014  32.438  14.798
69203W        W37566   0.893  30.907  11.385
69204W        W37567  15.297  38.862   3.322
69205W        W37568  22.164   7.691  11.010
69206W        W37569  17.746  40.513  14.367
69207W        W37570   6.300   0.851   2.223
69208W        W37571   6.365  44.991   3.326
69209W        W37572  42.469  34.863  13.004
69210W        W37573  14.623  19.058   1.219
69211W        W37574   4.332  10.261   1.762
69212W        W37575  44.840   2.802  11.523
69213W        W37576   1.274  22.225  13.994
69214W        W37577  39.830  16.264  14.924
69215W        W37578   0.431  30.532  12.403
69216W        W37579  29.958  13.827  11.455
69217W        W37580   7.269  20.140  11.425
69218W        W37581  44.335  26.145  10.407
69219W        W37582  23.107  12.788  14.904
69220W        W37583  42.347  43.352   3.248
69221W        W37584  28.467  30.649   3.168
69222W        W37585   8.395  23.106  10.470
69223W        W37586  20.542  12.815  14.878
69224W        W37587  28.122   2.348   2.365
69225W        W37588  17.110   3.934   3.690
69226W        W37589  28.510   7.825  14.318
69227W        W37590   2.407   2.772  11.099
69228W        W37591   9.219  34.602   1.343
69229W        W37592  10.231   6.323   3.836
69230W        W37593  40.456   4.385  13.464
69231W        W37594  12.325  22.164  13.324
69232W        W37595  36.545  18.785  12.488
69233W        W37596  19.677  15.731   4.232
69234W        W37597  42.824  27.691   4.643
69235W        W37598  13.662   2.347   4.806
69236W        W37599  10.327  13.677   4.148
69237W        W37600  17.291   2.740   2.763
69238W        W37601  22.704  32.464   3.681
69239W        W37602  43.866  38.875  11.889
69240W        W37603  17.751  44.426   0.811
69241W        W37604  27.469  18.188  13.886
69242W        W37605  10.143  38.954  13.547
69243W        W37606  15.267  23.716  14.786
69244W        W37607  24.679  25.096  14.318
69245W        W37608  26.495   8.287   4.781
69246W        W37609  31.002  27.171   1.341
69247W        W37610  41.324  37.432  10.467
69248W        W37611  16.747  31.493  14.972
69249W        W37612  34.945  35.489  10.588
69250W        W37613  27.030  44.900  11.014
69251W        W37614  25.069  39.991   2.721
69252W        W37615  30.645  40.047  11.079
69253W        W37616  22.590  20.268   0.330
69254W        W37617  44.357   0.974   1.404
69255W        W37618   7.700  18.679  14.796
69256W        W37619  22.560  12.341  10.430
69257W        W37620  34.522  13.643   1.447
69258W        W37621  28.004  19.539  11.858
69259W        W37622  42.800  23.735  14.285
69260W        W37623   3.725  28.968  11.960
69261W        W37624  18.206  34.511  11.510
69262W        W37625  31.437   6.725  13.540
69263W        W37626  28.080  43.873   1.261
69264W        W37627  42.935  29.536  10.985
69265W        W37628  36.516  40.379   4.247
69266W        W37629  13.791  26.554  13.501
69267W        W37630  22.186   9.273   0.762
69268W        W37631  10.330  12.741  12.357
69269W        W37632  43.364  25.128   0.415
69270W        W37633   8.182  37.074  12.914
69271W        W37634  21.531  12.817   4.175
69272W        W37635  13.831  10.200   1.791
69273W        W37636   7.290   7.340  13.831
69274W        W37637  27.144  17.097  13.431
69275W        W37638  42.028  43.020   1.236
69276W        W37639  37.838  32.567   0.866
69277W        W37640   8.755  29.945   2.829
69278W        W37641  17.071  36.370   0.268
69279W        W37642  19.157  26.207  11.372
69280W        W37643  31.592  43.933  12.426
69281W        W37644  43.476  31.494   4.182
69282W        W37645  40.000  18.723  11.416
69283W        W37646  43.279  37.959  14.005
69284W        W37647  24.102  25.637   1.816
69285W        W37648  29.108  19.547  14.910
69286W        W37649  14.286  26.649   3.745
69287W        W37650  39.483  29.027   0.258
69288W        W37651   7.899  16.635   4.824
69289W        W37652  37.899  22.604  13.061
69290W        W37653  19.558  29.514   4.604
69291W        W37654  28.141   2.771   1.343
69292W        W37655  41.333   7.668   4.713
69293W        W37656  44.861  44.801   2.181
69294W        W37657  18.768   3.217  13.990
69295W        W37658  18.637  34.557  13.975
69296W        W37659  42.469   3.884  11.503
69297W        W37660  26.972  23.714   4.778
69298W        W37661  15.799  38.514   1.395
69299W        W37662  23.147  14.165  10.490
69300W        W37663  12.625  43.886  14.937
69301W        W37664  28.941   4.881  13.351
69302W        W37665   7.763  31.491  12.381
69303W        W37666  12.839   4.233  14.333
69304W        W37667   1.779  12.678  13.822
69305W        W37668  20.235  10.642   4.777
69306W        W37669  10.358  27.522   4.742
69307W        W37670  25.534  32.111   1.805
69308W        W37671  44.960   3.824  13.504
69309W        W37672  31.067  35.586  12.421
69310W        W37673  13.152  43.970   2.831
69311W        W37674  29.665   8.172  14.961
69312W        W37675  32.005  40.303   1.264
69313W        W37676  20.590   6.385   2.332
69314W        W37677  39.043  20.702  11.068
69315W        W37678   5.227  18.122   2.335
69316W        W37679  42.359  31.445   0.318
69317W        W37680  30.968  27.464   5.167
69318W        W37681  29.559  25.090  13.027
69319W        W37682  40.514  15.774  11.033
69320W        W37683   8.816  29.096  10.426
69321W        W37684  21.179   3.954  13.032
69322W        W37685   2.235   2.731  14.929
69323W        W37686  37.458  40.407  12.908
69324W        W37687  22.563  27.521   3.158
69325W        W37688  15.103  32.123  10.101
69326W        W37689  13.786  19.676  10.537
69327W        W37690   4.803  18.195   4.708
69328W        W37691  31.985  18.636  14.917
69329W        W37692   5.375  37.893   1.737
69330W        W37693  18.779  26.603   4.257
69331W        W37694   6.182   6.871   3.157
69332W        W37695  41.957  25.542  11.416
69333W        W37696  15.319   6.346   2.682
69334W        W37697   2.264  37.367   4.206
69335W        W37698  14.280   5.383  10.936
69336W        W37699  43.423  26.536  10.030
69337W        W37700  20.660   7.678  11.491
69338W        W37701   7.823  12.615   4.668
69339W        W37702  26.585   2.257  12.422
69340W        W37703   1.824  11.212   2.684
69341W        W37704  33.398   3.763   4.730
69342W        W37705   4.876  35.495   2.223
69343W        W37706  30.418   9.250  10.902
69344W        W37707  13.677  22.249  13.863
69345W        W37708  23.110  19.063  10.471
69346W        W37709   8.831  32.909   0.834
69347W        W37710  24.699  35.948  10.540
69348W        W37711  42.779  41.336   2.257
69349W        W37712   6.428  19.758   9.989
69350W        W37713  32.528  20.136   4.335
69351W        W37714  40.021  36.592   4.681
69352W        W37715  13.168  39.948  10.558
69353W        W37716  32.630  24.215  14.845
69354W        W37717  30.475  18.234   4.610
69355W        W37718   8.316  18.080   3.152
69356W        W37719  19.775   5.776  14.501
69357W        W37720  43.367  37.886   1.315
69358W        W37721   4.943  12.305  14.972
69359W        W37722  31.528  15.200  13.430
69360W        W37723   6.268  33.487  14.408
69361W        W37724  18.211  16.214  10.407
69362W        W37725  13.274   5.294  14.905
69363W        W37726  29.123  10.787  11.093
69364W        W37727  15.808  39.814   1.837
69365W        W37728  10.742  25.547   4.735
69366W        W37729  24.016  33.389   1.347
69367W        W37730  29.140  27.961   3.813
69368W        W37731  28.436  17.290  12.096
69369W        W37732  11.273  31.429  12.966
69370W        W37733  12.663  23.668  14.921
69371W        W37734  35.491   1.897  10.946
69372W        W37735   1.804  11.792   3.278
69373W        W37736   6.214   2.857  12.494
69374W        W37737  33.543  20.078  11.953
69375W        W37738   2.953  10.326   4.837
69376W        W37739  37.033   5.220  13.826
69377W        W37740   2.772   8.311   3.344
69378W        W37741  28.528  28.151   3.846
69379W        W37742  34.903  34.110  12.867
69380W        W37743   9.322   8.839  12.343
69381W        W37744  28.637  17.232  11.572
69382W        W37745  20.259  30.610  10.526
69383W        W37746   7.175   2.284  12.056
69384W        W37747   0.440  35.019   2.880
69385W        W37748  13.330  11.320   3.235
69386W        W37749  28.492  39.905  14.025
69387W        W37750  11.838  39.351  14.870
69388W        W37751  33.604  10.279   4.722
69389W        W37752  21.588  17.215   3.150
69390W        W37753  23.210  34.042  12.576
69391W        W37754  26.119  17.241   3.253
69392W        W37755  13.139  24.009  14.312
69393W        W37756  29.987  28.007  12.410
69394W        W37757   1.276  13.728  14.449
69395W        W37758   1.329  28.972  11.876
69396W        W37759  28.054  38.419  10.424
69397W        W37760  26.073  34.421  14.020
69398W        W37761   3.813   9.211  12.928
69399W        W37762  25.165  20.674  10.439
69400W        W37763  27.057  20.230  11.006
69401W        W37764  24.976  38.996   1.837
69402W        W37765  10.146  41.810  14.493
69403W        W37766  27.498   0.778  12.381
69404W        W37767  19.769  17.189   4.177
69405W        W37768   4.262  39.341  14.762
69406W        W37769  36.957  14.163   0.869
69407W        W37770  16.191  11.372   2.670
69408W        W37771  43.991  20.130   4.784
69409W        W37772   0.779  17.099   3.150
69410W        W37773  12.282  33.586  11.106
69411W        W37774  26.070   4.820   4.827
69412W        W37775  29.539  31.529  10.953
69413W        W37776  25.597  32.928   1.396
69414W        W37777  24.225  27.478  12.412
69415W        W37778  44.382   1.333  14.985
69416W        W37779  14.266  27.165   4.763
69417W        W37780  42.894  28.059  10.891
69418W        W37781  31.934  38.349  12.078
69419W        W37782  37.375  32.894   0.350
69420W        W37783  42.333  21.677  14.476
69421W        W37784  16.152  33.490   1.722
69422W        W37785  10.277   7.697   0.410
69423W        W37786  12.288  25.486  12.019
69424W        W37787  18.090  10.310  11.910
69425W        W37788  15.142  15.268  11.610
69426W        W37789  11.661   8.303   4.158
69427W        W37790  15.084   4.725   2.265
69428W        W37791  17.577   3.415   2.690
69429W        W37792   5.344  15.702   4.789
69430W        W37793  30.935  15.723  14.992
69431W        W37794  13.711  38.366   1.401
69432W        W37795  23.177   0.786   1.290
69433W        W37796  18.271   1.930  10.632
69434W        W37797  37.836  15.226  10.534
69435W        W37798  17.291  22.575  10.429
69436W        W37799  29.523  12.697  14.295
69437W        W37800  42.792   4.292   2.766
69438W        W37801  38.831  30.575   5.111
69439W        W37802  11.817  16.575  11.055
69440W        W37803  41.043  36.557   2.769
69441W        W37804  27.036   5.419  14.486
69442W        W37805  34.396  14.647   0.765
69443W        W37806  21.223  24.655   0.301
69444W        W37807  43.885  30.591  12.868
69445W        W37808  39.452  38.449   4.754
69446W        W37809  11.345  36.500  12.412
69447W        W37810  10.185  10.285   0.437
69448W        W37811   8.811  21.257   4.306
69449W        W37812   5.791  20.680  14.920
69450W        W37813  20.650  31.023   4.180
69451W        W37814  44.792  17.572   3.178
69452W        W37815  23.185  21.637   2.252
69453W        W37816  23.502  36.932  12.482
69454W        W37817  23.182  37.530  10.119
69455W        W37818  41.812  24.158   1.217
69456W        W37819  30.483   2.409   0.457
69457W        W37820  17.260  24.073  13.867
69458W        W37821  40.954  40.458  10.562
69459W        W37822  20.634   3.747   1.441
69460W        W37823  34.437  31.920   1.324
69461W        W37824  12.699  27.948   2.200
69462W        W37825  16.572  21.188   3.206
69463W        W37826  14.714  44.926   0.429
69464W        W37827  10.291  14.148   5.154
69465W        W37828   1.455  33.597  13.000
69466W        W37829   0.287  31.488   1.248
69467W        W37830   9.253  34.101   0.745
69468W        W37831  25.622  11.854   3.709
69469W        W37832   9.319  15.085  14.308
69470W        W37833   4.785   7.198  12.944
69471W        W37834  39.056  36.437   4.354
69472W        W37835  15.168   1.740   1.380
69473W        W37836  34.473   3.434   0.465
69474W        W37837  30.000   0.262  12.422
69475W        W37838   9.191  20.712  12.364
69476W        W37839  18.546   0.889   0.879
69477W        W37840  14.186  38.994   2.211
69478W        W37841  18.556  11.308  12.563
69479W        W37842  25.627  36.457   4.116
69480W        W37843   5.310  12.827  11.878
69481W        W37844  11.339   3.406  10.514
69482W        W37845   5.718  15.109  12.856
69483W        W37846   5.696  21.578  11.979
69484W        W37847  42.004   7.281  13.467
69485W        W37848  37.932   3.409  14.864
69486W        W37849   2.404  43.875   0.856
69487W        W37850  10.211   5.690   2.256
69488W        W37851   8.783  10.353   1.369
69489W        W37852  26.563  43.814  13.524
69490W        W37853   0.394   7.325   3.376
69491W        W37854  36.055  37.925   3.746
69492W        W37855  23.226  23.105  10.595
69493W        W37856   4.867  14.792   0.875
69494W        W37857   1.954  36.964   0.282
69495W        W37858  28.580  43.450   2.823
69496W        W37859   4.333  40.455  14.496
69497W        W37860   1.833  36.897  11.471
69498W        W37861  42.936  11.669  11.427
69499W        W37862   1.365  10.236   3.690
69500W        W37863   2.727  28.546  11.606
69501W        W37864   0.383  20.245   4.214
69502W        W37865   4.347   0.276   4.735
69503W        W37866  10.365  22.524  14.785
69504W        W37867  31.051  24.668  11.923
69505W        W37868   1.477   6.752  11.583
69506W        W37869  43.964  12.208  14.786
69507W        W37870  36.360  18.670   3.650
69508W        W37871  39.972   5.864  11.385
69509W        W37872  16.576  32.623  12.933
69510W        W37873  29.149  11.731   3.856
69511W        W37874  11.705  17.149  13.823
69512W        W37875  20.183  14.111   4.330
69513W        W37876  29.656   1.341   0.353
69514W        W37877  44.992  21.549  13.860
69515W        W37878  38.913  12.135  11.950
69516W        W37879   1.857  27.063  10.587
69517W        W37880  23.127   4.296  12.078
69518W        W37881  16.156   9.858  11.613
69519W        W37882   9.192  27.471  11.018
69520W        W37883   1.378  33.513  11.466
69521W        W37884  11.773  21.661   2.732
69522W        W37885  43.398  35.561   9.978
69523W        W37886  16.293  25.555  11.075
69524W        W37887   6.895  44.859  12.419
69525W        W37888  18.128  28.113   1.726
69526W        W37889  34.407   1.876   3.762
69527W        W37890  10.690  18.666  14.329
69528W        W37891  25.523  25.057  13.831
69529W        W37892  10.642  30.091  11.014
69530W        W37893  13.338  14.774  13.871
69531W        W37894  38.458  27.068   0.768
69532W        W37895  19.230  17.247   3.285
69533W        W37896  13.223  40.884  10.936
69534W        W37897  16.580   9.815   2.898
69535W        W37898   9.696  33.380   4.684
69536W        W37899   4.239  31.522   3.749
69537W        W37900  28.115   7.413   2.697
69538W        W37901   0.924   1.804  14.788
69539W        W37902  38.442  26.661   1.817
69540W        W37903  32.631  20.660  13.441
69541W        W37904  40.391  31.026   2.206
69542W        W37905  18.088  28.575  11.384
69543W        W37906  11.835  24.082   3.654
69544W        W37907   8.252  14.098  11.588
69545W        W37908  27.620  41.527   4.191
69546W        W37909  30.926   5.198   3.825
69547W        W37910  36.038  17.771  13.832
69548W        W37911  28.643  23.590   3.213
69549W        W37912  15.631   7.847   1.824
69550W        W37913   6.913   7.886   3.847
69551W        W37914  37.566  44.305  13.533
69552W        W37915  41.467  44.942   3.252
69553W        W37916   2.466  33.438  14.439
69554W        W37917   4.905  40.914  12.528
69555W        W37918   5.806  19.227  14.322
69556W        W37919  39.325  14.792  14.366
69557W        W37920   9.219  22.643   2.233
69558W        W37921   0.247  12.827   2.215
69559W        W37922  28.467  21.026  12.347
69560W        W37923  11.834  35.483  14.966
69561W        W37924  11.859  25.099  12.459
69562W        W37925   9.262  23.146  14.358
69563W        W37926  22.077  10.308  11.893
69564W        W37927  13.606  17.118  12.565
69565W        W37928  10.723  27.016  13.975
69566W        W37929  19.710  23.189   0.358
69567W        W37930  21.110  33.514  13.839
69568W        W37931  20.555  29.620   2.699
69569W        W37932   6.798  26.156   1.246
69570W        W37933  17.719  17.730   3.351
69571W        W37934  16.090  29.618  13.995
69572W        W37935  11.831  24.604  11.871
69573W        W37936   2.814  13.698  11.464
69574W        W37937   9.217   6.360  10.088
69575W        W37938   7.910   0.815   3.164
69576W        W37939  21.029  32.977   4.152
69577W        W37940  16.654  25.180  14.775
69578W        W37941   5.899  35.379   3.732
69579W        W37942   9.700  26.663  11.095
69580W        W37943  11.225  23.071  12.434
69581W        W37944   7.296  32.465   2.181
69582W        W37945   0.894  10.372  13.346
69583W        W37946  17.624  16.638   3.813
69584W        W37947  26.206   3.312   2.262
69585W        W37948   7.702  19.565   5.251
69586W        W37949  10.832  20.192   4.219
69587W        W37950  33.386  28.570   4.610
69588W        W37951  35.382   6.254   3.319
69589W        W37952  32.895   8.316   1.857
69590W        W37953  31.611  14.789  13.348
69591W        W37954  39.998  24.106   4.799
69592W        W37955   9.771   1.424   1.428
69593W        W37956  19.701  10.796  12.015
69594W        W37957  14.642  18.640  10.550
69595W        W37958   7.255  13.723  14.313
69596W        W37959  34.864   0.810  12.025
69597W        W37960  34.430  40.484   2.290
69598W        W37961  20.193  42.489  13.984
69599W        W37962  32.534  14.224   2.801
69600W        W37963   4.336  29.162  14.988
69601W        W37964  26.054  15.767   2.223
69602W        W37965  39.023  20.047   2.306
69603W        W37966  12.782  15.696   4.603
69604W        W37967  42.296   0.441   2.896
69605W        W37968  31.041  39.058  11.389
69606W        W37969  39.395   1.356  14.800
69607W        W37970  31.504  21.552   2.853
69608W        W37971   0.826   8.733  10.541
69609W        W37972  43.769  17.136  14.467
69610W        W37973   2.903  16.616  11.888
69611W        W37974  41.480  37.481  11.985
69612W        W37975  11.221   1.427   2.738
69613W        W37976   3.438  26.026   0.365
69614W        W37977  21.076   9.685   1.279
69615W        W37978  30.500  30.649  10.537
69616W        W37979  38.489  31.511   1.908
69617W        W37980  31.617  21.644   2.316
69618W        W37981  32.505  39.359   0.410
69619W        W37982  44.339  26.702  11.129
69620W        W37983  18.185  27.499  12.487
69621W        W37984   3.953  29.926  13.410
69622W        W37985  15.801  41.324  11.872
69623W        W37986  43.929  38.945  14.376
69624W        W37987  24.163  29.990  11.454
69625W        W37988  23.073   7.867   2.812
69626W        W37989   3.435   5.777   3.293
69627W        W37990  34.874  33.579  14.453
69628W        W37991   6.754  24.146  10.948
69629W        W37992  30.575  10.864  14.845
69630W        W37993  34.875  33.900   2.347
69631W        W37994  14.708  16.102  10.552
69632W        W37995  20.543   7.219   2.291
69633W        W37996   7.778   1.753  13.501
69634W        W37997   3.779  22.507  12.983
69635W        W37998  29.643  26.040   1.406
69636W        W37999   2.246  29.101  13.938
69637W        W38000   3.858  24.720   9.559
69638W        W38001  19.776  35.886  14.916
69639W        W38002  24.976  29.069   3.728
69640W        W38003  22.504  32.959   9.940
69641W        W38004  26.990  19.103  12.490
69642W        W38005  44.804  44.447  12.385
69643W        W38006  29.645  44.468   3.385
69644W        W38007  13.713  37.832   0.466
69645W        W38008  14.803  24.064   2.838
69646W        W38009   1.764  19.695  11.040
69647W        W38010  16.669  30.126   4.184
69648W        W38011  44.294  17.268  14.885
69649W        W38012  13.159   2.451   1.792
69650W        W38013  43.789   5.849   3.273
69651W        W38014  19.199  34.882   0.913
69652W        W38015  30.018  37.003   3.740
69653W        W38016  27.099   1.789  13.923
69654W        W38017  38.828  37.575   4.833
69655W        W38018  41.838   2.337   0.834
69656W        W38019  12.344  17.213   1.442
69657W        W38020  34.529  21.641  12.081
69658W        W38021   8.302  26.674   0.749
69659W        W38022   3.791  16.766   0.944
69660W        W38023  30.958  13.654   0.834
69661W        W38024   4.927   4.742   2.251
69662W        W38025  21.124  10.777  11.081
69663W        W38026  43.894  12.243   0.867
69664W        W38027  25.069  12.715   2.836
69665W        W38028  42.527   9.811   3.651
69666W        W38029  21.588  27.138   4.801
69667W        W38030   4.920  26.990  12.366
69668W        W38031  37.078   0.339  10.435
69669W        W38032   6.304  25.713  14.284
69670W        W38033  13.224  43.867   1.699
69671W        W38034  36.566  40.927   2.885
69672W        W38035  28.968  27.664   3.287
69673W        W38036  24.006  42.920   0.304
69674W        W38037  37.508  18.738   4.653
69675W        W38038  35.960  39.859   2.866
69676W        W38039   0.981  35.600   0.840
69677W        W38040  12.619  28.649  13.054
69678W        W38041  44.467  11.651   2.850
69679W        W38042  17.161   5.395   4.288
69680W        W38043   2.801  42.840  10.952
69681W        W38044  38.872  11.220  14.865
69682W        W38045  37.056  37.085  11.003
69683W        W38046  23.709  18.287  12.076
69684W        W38047  38.532  20.035  12.087
69685W        W38048  40.352  40.948   3.284
69686W        W38049   3.421  24.629   5.264
69687W        W38050   6.905   4.423  11.509
69688W        W38051   7.904  35.589  14.421
69689W        W38052  26.068  41.009   4.198
69690W        W38053  35.004  38.490  12.904
69691W        W38054  12.680  37.489  13.365
69692W        W38055   8.746   0.350   2.818
69693W        W38056  22.550   4.416   0.924
69694W        W38057  28.600  26.019   3.172
69695W        W38058  30.656  29.970  10.110
69696W        W38059   1.288  26.500  13.474
69697W        W38060   1.873   7.195   0.797
69698W        W38061  25.542  13.264   1.876
69699W        W38062  36.921   9.714   1.835
69700W        W38063  13.842  14.292  10.457
69701W        W38064  31.479  10.262   4.634
69702W        W38065   9.205   3.231   1.446
69703W        W38066  16.719  15.606  14.484
69704W        W38067  38.830  20.167  10.899
69705W        W38068  33.405   6.691  14.934
69706W        W38069  37.532  25.646   1.234
69707W        W38070  38.524  39.392   3.155
69708W        W38071  27.033  28.109  13.534
69709W        W38072  12.710  40.023   4.174
69710W        W38073  18.697  12.704  12.036
69711W        W38074  16.189  41.829   2.785
69712W        W38075  11.709  39.035   4.751
69713W        W38076  22.585  27.481   4.156
69714W        W38077  23.640  22.640   0.814
69715W        W38078   9.729   5.758   4.337
69716W        W38079  28.497  31.920  12.448
69717W        W38080  18.772  42.381  14.887
69718W        W38081  41.396  20.534   1.321
69719W        W38082  25.212  18.197   1.322
69720W        W38083  32.482  24.980  14.297
69721W        W38084  15.231  26.629   0.314
69722W        W38085   6.734  13.742  11.951
69723W        W38086  19.572  10.766  14.509
69724W        W38087  15.788  18.672  11.108
69725W        W38088  15.583   1.934   1.919
69726W        W38089  37.080   1.261   0.325
69727W        W38090   3.331  12.667   4.273
69728W        W38091  23.547  34.977  11.003
69729W        W38092  17.144   5.267   3.324
69730W        W38093  41.966  10.656  12.891
69731W        W38094   6.908  31.068  13.869
69732W        W38095   7.737   5.872  12.002
69733W        W38096  43.909  14.336   1.239
69734W        W38097  16.161  10.738  10.627
69735W        W38098  19.155   0.785   4.117
69736W        W38099  35.972  44.934   3.155
69737W        W38100  39.549  40.859   4.658
69738W        W38101  11.338  31.513  11.572
69739W        W38102  10.737  21.257   4.813
69740W        W38103  28.613  28.976   0.341
69741W        W38104   3.377  29.423   2.418
69742W        W38105  30.138   9.194   1.695
69743W        W38106   4.775  16.306  12.526
69744W        W38107  19.671   9.390   4.673
69745W        W38108   9.733  25.470   1.768
69746W        W38109  17.559  35.361   1.252
69747W        W38110  20.056  36.561  14.902
69748W        W38111   4.401   4.849  12.357
69749W        W38112  14.742   5.703  11.428
69750W        W38113  25.498  31.951   3.711
69751W        W38114  44.340   7.855   0.456
69752W        W38115  40.914  12.758  12.490
69753W        W38116  33.976  18.275   3.705
69754W        W38117  23.704  41.325   1.334
69755W        W38118  25.707  14.102   0.822
69756W        W38119  30.606   6.333  14.472
69757W        W38120   0.374  19.157   4.739
69758W        W38121  10.354  31.063  14.763
69759W        W38122   6.864  14.597   1.428
69760W        W38123   8.348  44.501  13.344
69761W        W38124  38.423  10.677   0.961
69762W        W38125  24.062   3.320  12.578
69763W        W38126  12.237   2.797  13.331
69764W        W38127   2.887  36.920   1.855
69765W        W38128  37.495   5.423   1.816
69766W        W38129  43.927  21.724  10.527
69767W        W38130   8.266  18.742   0.875
69768W        W38131   0.889  40.872  14.406
69769W        W38132  10.170  27.973   1.302
69770W        W38133  22.181  34.514  13.841
69771W        W38134  18.685   3.460  10.887
69772W        W38135   1.965  21.621   1.825
69773W        W38136  11.319  27.031  11.869
69774W        W38137  22.086  44.334  10.900
69775W        W38138  28.452   8.296   0.883
69776W        W38139  39.885  25.996  10.432
69777W        W38140  21.246  27.597  11.944
69778W        W38141  26.474  33.018  12.536
69779W        W38142  39.904  18.240   1.394
69780W        W38143  12.731  38.368   0.866
69781W        W38144  20.529   5.784  13.047
69782W        W38145  19.668   4.737  12.893
69783W        W38146  37.043  17.130   0.311
69784W        W38147  40.899  26.695  13.463
69785W        W38148  40.801   0.877  12.538
69786W        W38149  35.964   5.850   2.745
69787W        W38150  18.624   3.886   0.824
69788W        W38151  40.898  19.597   1.280
69789W        W38152  25.984  13.190   1.384
69790W        W38153  31.061  11.261   4.638
69791W        W38154  18.102  28.158   2.808
69792W        W38155  25.155  13.340  11.123
69793W        W38156  25.521  13.784  14.481
69794W        W38157   6.914  38.035   1.703
69795W        W38158  18.178   9.307  11.506
69796W        W38159  22.611  24.094  14.466
69797W        W38160  25.152   3.247   0.831
69798W        W38161   0.982  13.631  12.889
69799W        W38162  39.424  21.029  13.915
69800W        W38163  14.734   5.197   2.894
69801W        W38164   7.701  27.002  12.368
69802W        W38165  33.552  42.451   1.408
69803W        W38166  15.611  39.916  10.956
69804W        W38167  21.077  40.339  11.515
69805W        W38168  19.045   1.853  13.470
69806W        W38169  38.351   0.425  14.828
69807W        W38170  17.793  13.790   3.740
69808W        W38171   4.408  20.611  14.814
69809W        W38172  25.557   5.773  12.931
69810W        W38173  40.950   0.928   0.289
69811W        W38174  37.060  12.138   1.247
69812W        W38175   3.350  40.430  10.502
69813W        W38176  39.915  18.120  13.800
69814W        W38177   1.894   0.747   2.764
69815W        W38178  32.112  23.040   4.652
69816W        W38179  29.143  35.022   3.700
69817W        W38180  31.983  13.291  11.443
69818W        W38181   3.793  33.953  12.571
69819W        W38182  16.693   0.273  14.423
69820W        W38183  36.366  25.548  11.478
69821W        W38184  32.143  33.461   1.235
69822W        W38185  44.316  35.086   3.288
69823W        W38186  16.154  27.476  14.924
69824W        W38187  22.517  23.588   1.393
69825W        W38188   1.807   6.754  12.451
69826W        W38189  20.084  37.987  14.024
69827W        W38190  42.512   2.390   1.935
69828W        W38191  10.874  26.572   4.335
69829W        W38192  14.291   8.329   3.166
69830W        W38193   6.893  15.705  14.997
69831W        W38194  20.692  40.526  14.321
69832W        W38195  17.723  19.746   5.289
69833W        W38196  36.997  27.110   0.914
69834W        W38197  18.281  19.192  12.506
69835W        W38198   9.241  28.515   0.300
69836W        W38199  27.083  11.707   9.977
69837W        W38200  38.986  13.294  13.828
69838W        W38201   7.853  20.544   3.224
69839W        W38202  34.406   1.959   4.166
69840W        W38203  22.229  42.004   0.281
69841W        W38204  21.728  28.636   0.840
69842W        W38205  10.184  11.149  12.569
69843W        W38206  36.930  25.104   0.783
69844W        W38207  38.556  30.014   4.239
69845W        W38208  36.062  34.565   2.835
69846W        W38209  25.075   2.461   0.275
69847W        W38210  23.985  13.811  13.819
69848W        W38211  28.001  25.499  13.849
69849W        W38212  25.601  28.077   1.722
69850W        W38213  34.988  38.061  10.631
69851W        W38214  27.529  15.662   3.374
69852W        W38215  10.644   0.899  10.965
69853W        W38216  15.286  27.620  11.941
69854W        W38217   9.745  40.392  11.463
69855W        W38218  23.105  31.561   3.215
69856W        W38219  13.151  19.643  12.076
69857W        W38220  29.102  17.674  12.847
69858W        W38221  40.965  14.105   4.781
69859W        W38222   9.823  10.735   1.931
69860W        W38223  41.881  44.357  12.516
69861W        W38224   6.208  35.084   3.792
69862W        W38225  19.700  18.050  12.580
69863W        W38226  20.033   5.838  14.840
69864W        W38227  34.392   9.150   3.204
69865W        W38228  44.921  39.984  13.030
69866W        W38229  28.115  41.413   1.746
69867W        W38230   0.315  44.307   1.210
69868W        W38231   5.236   6.228   3.328
69869W        W38232  10.844  25.586   1.755
69870W        W38233  32.997   6.859   2.789
69871W        W38234   4.783  17.742   3.646
69872W        W38235   2.400  34.545  13.381
69873W        W38236   0.279  18.230  11.443
69874W        W38237  40.415  29.128   0.883
69875W        W38238  44.976  13.119  11.113
69876W        W38239   2.963  12.155  12.554
69877W        W38240  25.180  18.750   0.892
69878W        W38241  14.714  10.803  12.829
69879W        W38242  26.571   6.769  12.475
69880W        W38243  37.542  13.236   5.112
69881W        W38244  29.987  12.353   3.151
69882W        W38245  23.503  35.055  12.074
69883W        W38246  26.194  33.519  13.426
69884W        W38247  37.488   3.458   4.805
69885W        W38248   5.421  43.888   1.358
69886W        W38249  43.939  43.013   3.713
69887W        W38250  41.298  19.561   1.914
69888W        W38251  13.696  37.386   4.665
69889W        W38252  17.223  24.027   4.667
69890W        W38253  33.601   6.895  10.493
69891W        W38254   5.412  12.122  12.069
69892W        W38255  27.120  28.131   0.372
69893W        W38256  33.491  42.796  11.500
69894W        W38257   6.748  19.535  14.800
69895W        W38258   6.190  13.756   3.223
69896W        W38259  27.983  13.239  10.633
69897W        W38260  37.389  24.658  12.081
69898W        W38261   6.842  35.541   2.219
69899W        W38262  33.911   8.227  12.846
69900W        W38263   1.887  37.349   2.220
69901W        W38264  32.472  36.505  12.890
69902W        W38265  13.833  19.157   3.647
69903W        W38266  25.076   1.767  11.957
69904W        W38267   7.234  24.150   4.327
69905W        W38268  40.316  17.706   2.781
69906W        W38269  37.958  11.773  10.991
69907W        W38270  18.726  17.602   1.310
69908W        W38271   3.390  25.526   3.239
69909W        W38272  43.450  26.488   1.326
69910W        W38273  14.159   0.473  13.915
69911W        W38274  34.374  25.503   0.947
69912W        W38275  23.528  38.368   4.664
69913W        W38276   8.358  33.124  13.380
69914W        W38277  28.961  16.671   1.719
69915W        W38278  43.867   7.830  11.421
69916W        W38279   1.772  24.528   0.810
69917W        W38280  23.180  22.114  14.278
69918W        W38281  15.747   9.819   2.359
69919W        W38282   3.795  24.027   2.280
69920W        W38283  17.288  28.651  11.875
69921W        W38284  30.917  22.616  11.449
69922W        W38285  29.926  13.148   0.356
69923W        W38286  35.412  41.413  12.838
69924W        W38287  34.008   7.869   3.812
69925W        W38288   1.242   5.309   1.444
69926W        W38289   7.753  32.605   4.778
69927W        W38290  37.499   6.734   0.940
69928W        W38291  19.252   8.276   1.761
69929W        W38292  23.130  14.739  11.911
69930W        W38293  23.713  14.292   3.636
69931W        W38294   5.739  14.262   2.248
69932W        W38295   6.258  32.012   0.786
69933W        W38296  10.346  12.157   4.269
69934W        W38297  13.680  28.121   1.367
69935W        W38298  35.858  25.534  11.081
69936W        W38299  13.152  17.122  10.945
69937W        W38300  41.864   5.895  13.024
69938W        W38301  31.942  43.304  14.328
69939W        W38302   1.258  12.651   0.416
69940W        W38303  32.081  38.001   2.280
69941W        W38304  13.690  12.170  10.586
69942W        W38305  41.815   4.924   1.226
69943W        W38306  19.542  38.998   2.365
69944W        W38307  20.242  41.834  11.477
69945W        W38308   2.925  38.827   1.919
69946W        W38309  39.487  31.905  13.813
69947W        W38310   5.301  35.889   0.901
69948W        W38311   0.770   7.848  14.913
69949W        W38312  36.501  21.219  11.995
69950W        W38313  22.208   4.816   0.450
69951W        W38314   3.826   7.288  12.559
69952W        W38315  34.983  29.538   2.384
69953W        W38316  43.016   0.474  14.977
69954W        W38317  35.013  21.259  10.110
69955W        W38318   8.382  12.173  12.344
69956W        W38319  40.948  11.304  12.068
69957W        W38320  42.920   1.916  14.346
69958W        W38321  22.043  10.839   0.325
69959W        W38322  34.969  16.635   4.251
69960W        W38323   7.686   5.256   1.384
69961W        W38324   8.843  34.591  12.566
69962W        W38325  29.025  35.100  10.629
69963W        W38326  13.827   7.191   3.787
69964W        W38327  43.458  33.026  10.582
69965W        W38328  36.958  33.040   2.740
69966W        W38329   4.759  18.289   2.723
69967W        W38330  43.359   7.757  12.414
69968W        W38331  19.726   7.858  10.968
69969W        W38332  34.369  25.540   0.457
69970W        W38333  16.598   4.309   3.759
69971W        W38334   9.172  40.336   1.245
69972W        W38335  10.879  26.457  12.043
69973W        W38336   1.774  28.446  14.834
69974W        W38337  30.511   6.316   3.276
69975W        W38338  26.700  15.625  12.454
69976W        W38339  24.055  22.588  13.517
69977W        W38340   4.944  30.102   4.338
69978W        W38341  15.225   5.317  10.422
69979W        W38342  37.890   7.323   0.733
69980W        W38343  37.062  26.957  11.017
69981W        W38344  27.495  40.867  11.880
69982W        W38345  16.227  42.858   4.340
69983W        W38346  43.931  43.910  12.868
69984W        W38347  34.013   1.733   4.340
69985W        W38348  42.907  19.186   2.711
69986W        W38349  38.927  30.478  14.904
69987W        W38350  11.351  30.537  10.980
69988W        W38351  44.859  25.181   1.901
69989W        W38352  35.564   3.353  11.941
69990W        W38353  38.849  23.127   4.269
69991W        W38354  33.507  34.917  14.783
69992W        W38355   6.837  20.052   1.375
69993W        W38356   8.220  42.493  10.436
69994W        W38357  16.586  26.562   2.338
69995W        W38358  35.520  11.647  12.942
69996W        W38359  41.818  40.829   3.338
69997W        W38360  13.306  29.613  14.907
69998W        W38361   1.934  26.052  14.896
69999W        W38362   0.489   5.914  13.898
70000W        W38363  36.845  32.959   2.265
70001W        W38364  19.190  23.108  10.407
70002W        W38365  36.850  29.952  12.841
70003W        W38366   3.387  27.101   0.877
70004W        W38367  17.226  25.986  13.893
70005W        W38368  22.178  35.027  12.853
70006W        W38369   9.228  29.669  13.806
70007W        W38370  34.450  39.374  12.524
70008W        W38371  25.018  13.662   0.915
70009W        W38372   7.284  27.582  11.604
70010W        W38373  22.699  28.589  10.430
70011W        W38374   2.353  11.866  11.895
70012W        W38375  23.126  20.168   1.373
70013W        W38376  27.673  15.788  12.917
70014W        W38377  35.561   1.383  10.553
70015W        W38378  31.062   7.792   4.781
70016W        W38379  28.035  24.667  10.086
70017W        W38380   9.220   6.201   1.764
70018W        W38381   6.193  27.528  12.041
70019W        W38382  11.727   4.753   1.355
70020W        W38383  37.972   6.687   3.709
70021W        W38384   3.454  44.829  12.502
70022W        W38385  41.919  29.631  10.497
70023W        W38386  33.022  20.650  11.997
70024W        W38387   2.898  31.573   3.367
70025W        W38388  41.465  30.097   0.329
70026W        W38389  39.952  11.344   9.979
70027W        W38390   4.894  22.708   0.906
70028W        W38391  39.822   5.237  10.972
70029W        W38392  26.121  26.962   1.372
70030W        W38393  24.717  35.044  11.902
70031W        W38394   4.419  10.309   0.777
70032W        W38395  33.524  35.893  10.465
70033W        W38396   3.218  43.993  10.960
70034W        W38397  18.592   8.304  12.886
70035W        W38398   5.716  29.035   3.354
70036W        W38399  22.528   1.738   2.887
70037W        W38400  11.327   6.756   4.809
70038W        W38401  24.997  13.153   1.724
70039W        W38402  26.019  14.108  13.438
70040W        W38403  23.578   2.840  11.978
70041W        W38404  17.687   9.761  13.935
70042W        W38405  40.521  16.245  11.512
70043W        W38406  35.458  11.820  11.440
70044W        W38407  33.468  41.536  11.104
70045W        W38408  18.691  11.239   0.770
70046W        W38409   7.696  26.525   3.202
70047W        W38410  31.415  37.929   3.286
70048W        W38411  25.054   2.756  11.074
70049W        W38412  27.562   2.287  14.311
70050W        W38413   6.318  31.484   3.751
70051W        W38414  44.901  28.680   1.702
70052W        W38415  42.475  25.570  13.442
70053W        W38416   1.772   4.698  10.638
70054W        W38417   0.961  20.234  12.537
70055W        W38418   0.302  27.948  10.635
70056W        W38419  10.824  20.629  14.826
70057W        W38420  44.391   2.838  12.542
70058W        W38421   1.316   6.865  13.850
70059W        W38422   6.423  11.716  10.608
70060W        W38423  40.493  37.862  12.993
70061W        W38424  43.939  37.994   3.157
70062W        W38425  43.436  16.247  14.779
70063W        W38426  44.947  15.135  13.464
70064W        W38427  33.920  28.464  10.586
70065W        W38428  17.187   3.922  11.087
70066W        W38429  28.596  15.631   4.139
70067W        W38430  41.449  14.716  11.995
70068W        W38431  40.979   6.296  10.891
70069W        W38432  15.639  34.095   2.850
70070W        W38433  33.525   9.731  14.971
70071W        W38434  14.719   2.948   1.807
70072W        W38435  36.509  19.571   3.687
70073W        W38436  44.931  24.546  11.584
70074W        W38437  22.107  31.135   3.205
70075W        W38438   2.385  33.987   3.802
70076W        W38439  21.141   9.669  10.089
70077W        W38440   0.789  27.010  12.954
70078W        W38441  35.066  31.060   4.245
70079W        W38442  12.337  17.557  13.459
70080W        W38443   6.288  22.123   3.785
70081W        W38444  43.355  24.645   3.763
70082W        W38445  20.759  24.072   2.292
70083W        W38446  31.617  34.915  10.536
70084W        W38447  22.612  15.094   1.795
70085W        W38448  12.796  44.356   1.915
70086W        W38449  28.118   5.437   0.418
70087W        W38450  20.101   1.814   9.953
70088W        W38451  43.005  17.271   2.694
70089W        W38452  38.031  36.020  11.466
70090W        W38453  20.213  13.292   4.750
70091W        W38454   8.658   3.388  14.450
70092W        W38455  10.217  26.565  10.578
70093W        W38456  18.634   5.375  14.896
70094W        W38457  32.535  33.922  13.864
70095W        W38458  35.470   0.961  13.813
70096W        W38459  16.195   9.360   4.795
70097W        W38460  12.240   9.271  11.958
70098W        W38461  27.465  27.505  14.822
70099W        W38462  16.780  21.134  14.764
70100W        W38463  44.792  10.648  10.521
70101W        W38464  17.213   4.791  11.597
70102W        W38465  31.918  25.672   3.336
70103W        W38466  44.398  29.154   4.246
70104W        W38467  44.371  36.066  10.581
70105W        W38468  40.950  42.451  12.419
70106W        W38469  14.151  22.117   0.429
70107W        W38470   4.356  22.737  11.049
70108W        W38471  28.009  25.970   0.383
70109W        W38472   8.788  42.417   3.649
70110W        W38473  18.738  23.137   3.300
70111W        W38474  20.087  39.936  10.515
70112W        W38475  14.282  43.392   1.351
70113W        W38476  39.842   2.385   0.837
70114W        W38477   0.298  36.506   0.275
70115W        W38478  44.432  11.204  14.355
70116W        W38479  30.988  42.436  13.849
70117W        W38480   5.763  10.216   2.812
70118W        W38481  36.989  13.689   9.976
70119W        W38482  30.972  23.042   0.958
70120W        W38483  40.387  14.669   0.373
70121W        W38484  24.650  19.609  11.578
70122W        W38485  38.543  41.878   3.272
70123W        W38486  14.769  29.095  10.566
70124W        W38487  24.031  43.338   2.814
70125W        W38488  32.050   9.383  11.958
70126W        W38489  38.911  33.994  14.966
70127W        W38490  10.745  14.617   2.767
70128W        W38491  43.310   8.828   3.329
70129W        W38492  40.430   7.797  13.384
70130W        W38493   6.895  14.646  13.911
70131W        W38494   6.737   2.822   2.407
70132W        W38495  36.033  39.024  10.623
70133W        W38496  26.600  31.958  11.894
70134W        W38497  34.107  32.034   3.267
70135W        W38498  40.360  12.829  12.579
70136W        W38499   8.716   9.794  12.500
70137W        W38500  26.472  27.131   0.344
70138W        W38501  31.023  18.217   4.322
70139W        W38502  11.372  14.731   0.735
70140W        W38503  34.078  41.428  13.972
70141W        W38504  15.684   7.227  12.996
70142W        W38505   2.246  20.031   3.301
70143W        W38506  39.494  16.806  13.983
70144W        W38507  30.028  19.130   3.292
70145W        W38508   8.889  36.022   4.794
70146W        W38509  23.665  34.441   0.769
70147W        W38510  26.459  12.821  10.068
70148W        W38511  15.621  44.980   4.822
70149W        W38512  17.231  36.569  12.037
70150W        W38513  39.811  42.335  10.428
70151W        W38514  33.083  33.088  13.507
70152W        W38515  35.457  39.517  11.570
70153W        W38516  35.504  35.482   0.914
70154W        W38517  38.923  34.472  13.878
70155W        W38518  19.644  41.512  13.948
70156W        W38519  17.243  31.440  12.571
70157W        W38520  35.932   5.327   2.358
70158W        W38521  21.146   4.764  10.997
70159W        W38522  29.533  24.154   1.828
70160W        W38523   4.831  12.819   0.746
70161W        W38524  21.081  21.255  12.355
70162W        W38525  40.844   2.798  13.380
70163W        W38526  29.073  24.703   0.892
70164W        W38527   7.362  36.556   1.280
70165W        W38528  31.017   0.304   3.363
70166W        W38529  18.098   4.342   1.875
70167W        W38530  28.637  10.648  14.484
70168W        W38531  25.075  17.607   3.739
70169W        W38532   4.922  14.648  10.089
70170W        W38533  18.619   7.200   5.212
70171W        W38534  13.615  23.526   1.325
70172W        W38535  30.618  33.399  13.383
70173W        W38536  17.667  23.184   2.674
70174W        W38537  15.730  31.943  10.105
70175W        W38538   1.959  33.091  10.639
70176W        W38539  38.882  40.492   1.736
70177W        W38540  27.585  18.748   2.311
70178W        W38541  19.764  16.606  11.063
70179W        W38542  25.048  41.850   0.748
70180W        W38543  25.140   8.819   2.330
70181W        W38544  32.602   5.349   0.931
70182W        W38545  24.039   1.881   5.228
70183W        W38546  19.236   4.871   4.116
70184W        W38547  15.601  28.639  12.879
70185W        W38548  10.660  41.374  10.537
70186W        W38549  11.768  13.717   3.793
70187W        W38550  37.986   9.790   0.431
70188W        W38551  26.182  25.600  11.478
70189W        W38552  29.431  30.011   2.251
70190W        W38553  42.894  16.163   0.373
70191W        W38554  19.271  30.461   4.818
70192W        W38555  19.261  11.826  13.796
70193W        W38556  30.478   6.912   2.755
70194W        W38557  34.983  36.350  13.539
70195W        W38558  21.629  39.525   4.196
70196W        W38559  41.446   1.256  12.003
70197W        W38560  41.025   4.831  11.384
70198W        W38561   1.751  31.537  14.419
70199W        W38562  41.322  41.939  14.930
70200W        W38563  21.661  31.972  14.444
70201W        W38564  24.666  29.645  10.561
70202W        W38565  44.441  26.162   3.654
70203W        W38566  44.775  31.544  12.366
70204W        W38567  29.953   1.845   4.672
70205W        W38568  24.710   1.454   1.848
70206W        W38569  41.911  17.208   4.609
70207W        W38570  10.218   9.213   3.358
70208W        W38571  15.276  26.172  11.560
70209W        W38572  37.061  17.784  10.956
70210W        W38573  26.141  27.527   2.193
70211W        W38574  13.287   9.346   4.676
70212W        W38575  33.125  44.456  14.024
70213W        W38576   1.290  12.621   1.361
70214W        W38577  26.506  31.942   0.745
70215W        W38578  26.472  15.595   4.784
70216W        W38579  29.066  27.053   0.255
70217W        W38580  39.858  15.209  12.505
70218W        W38581  36.903  26.597   1.374
70219W        W38582  32.546  11.319   3.296
70220W        W38583   9.766  12.345   0.968
70221W        W38584  40.429  43.430  12.377
70222W        W38585  15.617   5.356   4.695
70223W        W38586  28.586   8.787  14.320
70224W        W38587  44.435  13.698   2.251
70225W        W38588  16.601  44.364   5.805
70226W        W38589  37.838  14.721  10.925
70227W        W38590  11.813  12.142  11.532
70228W        W38591  33.542  25.097   9.975
70229W        W38592   8.298  44.941   3.178
70230W        W38593  38.876   5.701  13.507
70231W        W38594   7.347  17.070  12.048
70232W        W38595   5.313  27.159   4.273
70233W        W38596  14.137  38.455  12.920
70234W        W38597  43.914  34.095  14.404
70235W        W38598   6.892  35.915   0.362
70236W        W38599  31.984   4.810  10.964
70237W        W38600  32.895   5.783   1.428
70238W        W38601   2.860   4.310  10.522
70239W        W38602  14.212  26.986  11.046
70240W        W38603  31.001  18.673   1.373
70241W        W38604  39.554  28.158  11.972
70242W        W38605   8.672  20.615   1.291
70243W        W38606  31.417  35.907   2.868
70244W        W38607  16.182  24.112  14.374
70245W        W38608   1.265  15.598   2.848
70246W        W38609  15.164   9.304  12.074
70247W        W38610  35.450  32.043   4.698
70248W        W38611   4.789  22.564   4.600
70249W        W38612  25.573  31.922  13.458
70250W        W38613  34.459   1.463   9.597
70251W        W38614  32.965  28.946   0.290
70252W        W38615   5.348  19.189   0.440
70253W        W38616  31.077  24.118   1.434
70254W        W38617  10.729  15.216  14.299
70255W        W38618  38.857  18.275  13.883
70256W        W38619  24.593   2.737  14.780
70257W        W38620   8.174  24.493   4.347
70258W        W38621   2.399  34.589   3.773
70259W        W38622   7.266  42.355  14.443
70260W        W38623  29.991  38.523  14.306
70261W        W38624  28.010  23.040   3.178
70262W        W38625   9.213  32.077  11.982
70263W        W38626   5.307  44.930  13.955
70264W        W38627  40.856  41.913   1.794
70265W        W38628  42.924  30.544   3.846
70266W        W38629  27.183  38.026  12.086
70267W        W38630  23.227  10.325  10.902
70268W        W38631   5.431   2.317   0.906
70269W        W38632   9.285   3.379   4.725
70270W        W38633  33.968  21.716   3.336
70271W        W38634   4.319  17.651  11.989
70272W        W38635  13.260  25.160  11.921
70273W        W38636  22.054   4.390   0.917
70274W        W38637  20.214   3.781   2.190
70275W        W38638  10.746  42.813  12.872
70276W        W38639  11.632  27.054   1.424
70277W        W38640  15.204  30.634  14.440
70278W        W38641   8.263  44.261   4.698
70279W        W38642  37.896  18.115   4.140
70280W        W38643   9.728  13.632   4.744
70281W        W38644  32.484   8.398   1.927
70282W        W38645  29.101  38.918   3.733
70283W        W38646  29.618   9.153  10.510
70284W        W38647  32.425   0.922  10.627
70285W        W38648  34.093  23.707  13.472
70286W        W38649  30.985   6.243  12.848
70287W        W38650   9.761  10.670   3.229
70288W        W38651   4.334  12.242  13.890
70289W        W38652  41.382  38.866  12.877
70290W        W38653  24.686   6.914  11.391
70291W        W38654  34.542  36.059  12.976
70292W        W38655   0.988  22.558   5.267
70293W        W38656  36.415  43.336  13.450
70294W        W38657  16.233  33.607  11.967
70295W        W38658  30.910  42.796  14.389
70296W        W38659  12.180  13.281  12.936
70297W        W38660   6.700   6.760   0.771
70298W        W38661  31.592   6.854   1.365
70299W        W38662   4.800  27.991  11.581
70300W        W38663  20.712   2.466   2.709
70301W        W38664  14.665  44.983  11.592
70302W        W38665  44.374  15.807   4.746
70303W        W38666  23.226  27.984   1.231
70304W        W38667  33.057  44.295   4.743
70305W        W38668  13.716  12.752   3.298
70306W        W38669  31.449  37.909  13.544
70307W        W38670  20.689  17.078  10.498
70308W        W38671  13.767  41.821  10.562
70309W        W38672  29.170  31.454   3.376
70310W        W38673  27.100   9.187   2.405
70311W        W38674   9.315  37.580   4.175
70312W        W38675  24.133   4.753  12.869
70313W        W38676  44.351  24.994  12.887
70314W        W38677  12.172   3.409  10.524
70315W        W38678  37.533   5.194   2.346
70316W        W38679  43.384   5.886  13.795
70317W        W38680   8.852  28.679  11.465
70318W        W38681  32.998  33.063   2.784
70319W        W38682   0.929  41.303   5.250
70320W        W38683   1.337  30.625   0.387
70321W        W38684  25.150  13.806  11.895
70322W        W38685  23.560  32.016   3.366
70323W        W38686  37.510  24.226  14.287
70324W        W38687   9.694   6.266   4.774
70325W        W38688   9.294  42.323  14.411
70326W        W38689  40.941   6.912   3.673
70327W        W38690  26.989  38.387  12.878
70328W        W38691   9.862  15.650   2.320
70329W        W38692  19.100  29.003  11.972
70330W        W38693  13.686  44.795   2.219
70331W        W38694  12.360   5.318  12.969
70332W        W38695  32.402  26.005   3.192
70333W        W38696  31.076  29.658   3.834
70334W        W38697  17.704   2.231   3.322
70335W        W38698  34.963  33.466   9.995
70336W        W38699   4.375  24.982   0.802
70337W        W38700  42.422  19.046  12.382
70338W        W38701   4.370  21.112   4.160
70339W        W38702  19.572  15.154  14.923
70340W        W38703  16.804  40.485  13.989
70341W        W38704   3.235  26.594  10.452
70342W        W38705   8.867  15.809   4.149
70343W        W38706   9.864  29.595   4.653
70344W        W38707  32.128  17.572   1.362
70345W        W38708   9.772  17.629   1.256
70346W        W38709  25.092  38.021   3.322
70347W        W38710   5.715  25.483   4.788
70348W        W38711  24.711   8.397  12.838
70349W        W38712   2.408  31.485   4.175
70350W        W38713   9.651  10.242   4.822
70351W        W38714   8.333  27.603   3.712
70352W        W38715  43.399  41.420  12.068
70353W        W38716  25.103  31.029   2.257
70354W        W38717  33.130  33.907  12.395
70355W        W38718  37.451   8.332   3.386
70356W        W38719   0.486   0.851   1.352
70357W        W38720   1.740  28.971  14.410
70358W        W38721  40.870  15.810   1.357
70359W        W38722  10.814  44.815   3.810
70360W        W38723  23.010  43.805  13.879
70361W        W38724  36.092  22.597  14.421
70362W        W38725  19.562  34.054   1.812
70363W        W38726  42.406  41.473  12.042
70364W        W38727  17.663  33.484  13.527
70365W        W38728  24.570  15.697   0.470
70366W        W38729   9.151  44.447  13.480
70367W        W38730   2.278   6.201   3.766
70368W        W38731  29.455  15.192   2.677
70369W        W38732  26.171   1.421  10.551
70370W        W38733  34.964  40.897  14.349
70371W        W38734  30.078  15.091  11.518
70372W        W38735  20.069  26.627   3.673
70373W        W38736  41.797   6.370   2.901
70374W        W38737  26.696  21.716   3.338
70375W        W38738  29.494  16.135  14.323
70376W        W38739  14.705  35.570  12.387
70377W        W38740  15.657  29.114   2.780
70378W        W38741  12.694  42.926   0.810
70379W        W38742  40.811  30.479   3.282
70380W        W38743  24.043  25.525   0.774
70381W        W38744  17.154  30.142  13.014
70382W        W38745   2.764  24.082   3.195
70383W        W38746  38.008  30.630  10.921
70384W        W38747  31.146   6.252  13.855
70385W        W38748  35.057   8.389   4.142
70386W        W38749  30.515  24.981  12.885
70387W        W38750  23.512   9.666  10.892
70388W        W38751  29.976  10.317  12.085
70389W        W38752  42.401  36.863  10.617
70390W        W38753  19.136   4.839   1.843
70391W        W38754  13.789  20.242  11.605
70392W        W38755  36.376  13.814  14.887
70393W        W38756  44.419  15.817  14.944
70394W        W38757  15.162  12.205   4.293
70395W        W38758  12.336  32.475   1.314
70396W        W38759  21.030   8.267  10.488
70397W        W38760  13.168   3.378   2.319
70398W        W38761  29.596   0.783  13.049
70399W        W38762   4.859   5.300   1.918
70400W        W38763  26.962  37.503   3.682
70401W        W38764  36.949   1.935   3.226
70402W        W38765   4.370  36.076   1.266
70403W        W38766  10.644  17.247  11.584
70404W        W38767  44.915   1.819   0.782
70405W        W38768  40.546  14.807   0.955
70406W        W38769  14.232  11.779  10.615
70407W        W38770  40.362  36.479   3.807
70408W        W38771  44.936  39.351  14.448
70409W        W38772  40.974  37.935  14.787
70410W        W38773  23.699  38.997   1.424
70411W        W38774   4.820   4.310   4.601
70412W        W38775  21.021  16.593   0.447
70413W        W38776  13.154  36.370  12.965
70414W        W38777   1.940  42.402   1.789
70415W        W38778  28.151  31.089  10.934
70416W        W38779   8.395  10.261  11.857
70417W        W38780  15.638  29.523  13.031
70418W        W38781  42.300  30.593   4.681
70419W        W38782   0.392  21.214   3.856
70420W        W38783   7.802  26.143   1.748
70421W        W38784  12.777  10.340   0.783
70422W        W38785  26.524   4.380   1.896
70423W        W38786  39.921  13.705   4.797
70424W        W38787  29.044  13.787  13.797
70425W        W38788   3.782  42.861  14.988
70426W        W38789  35.990  33.458   4.306
70427W        W38790  17.150  19.236   2.315
70428W        W38791   5.844  29.492   3.313
70429W        W38792  24.121   2.857  13.826
70430W        W38793  16.243  33.390  10.557
70431W        W38794  19.276  21.644   0.290
70432W        W38795  24.482  27.147   2.830
70433W        W38796  18.059  35.040   0.386
70434W        W38797  12.837  19.602  12.346
70435W        W38798  21.591   8.402  12.980
70436W        W38799  17.155  32.002   9.935
70437W        W38800  41.906  15.662   5.111
70438W        W38801  28.469  42.286   4.270
70439W        W38802  15.170  11.350   1.705
70440W        W38803  44.322   1.772  10.131
70441W        W38804  44.825  13.692  11.103
70442W        W38805  35.517  37.516   0.366
70443W        W38806  23.691   6.737   0.947
70444W        W38807  28.027  38.928  13.846
70445W        W38808   6.861  21.655  12.959
70446W        W38809  36.356  42.307   2.333
70447W        W38810  37.898   6.336  14.460
70448W        W38811   7.192  37.893  13.810
70449W        W38812  30.419   0.769   0.762
70450W        W38813   2.895  35.100   1.785
70451W        W38814  30.468   4.760   4.611
70452W        W38815  34.445  28.039  13.490
70453W        W38816  21.239  27.180  12.843
70454W        W38817  42.425  28.452  14.025
70455W        W38818  34.377  11.219  11.036
70456W        W38819  44.380  28.936  13.858
70457W        W38820  32.968   9.244  14.835
70458W        W38821  36.060  29.007  13.941
70459W        W38822  26.699   2.341  14.867
70460W        W38823   5.410  35.512   0.346
70461W        W38824  12.300  31.090  14.515
70462W        W38825  34.386  20.266   1.735
70463W        W38826  12.264   8.393   1.861
70464W        W38827  35.527   6.923  14.789
70465W        W38828  15.586  31.459  14.800
70466W        W38829  14.628   2.369   4.720
70467W        W38830  36.577  31.916   4.625
70468W        W38831  42.318  35.463  13.469
70469W        W38832  26.573  37.088   2.269
70470W        W38833  42.340  39.013  14.288
70471W        W38834   6.190  22.689   0.409
70472W        W38835  42.468  16.092  10.416
70473W        W38836   1.318  40.384   4.147
70474W        W38837  37.509  22.159  10.484
70475W        W38838  29.960   9.851   0.413
70476W        W38839  27.555  42.868   0.387
70477W        W38840   2.254   1.378  10.026
70478W        W38841  16.779  13.241   1.832
70479W        W38842   8.776  30.123  13.309
70480W        W38843  12.635  15.310   2.262
70481W        W38844  20.260  16.599   0.282
70482W        W38845   6.892   3.278   0.814
70483W        W38846  23.670  15.704  13.028
70484W        W38847  15.279   0.314   1.276
70485W        W38848   6.206   7.288   2.761
70486W        W38849  23.227   7.707   3.353
70487W        W38850  20.590  40.384  14.982
70488W        W38851  24.588  31.435   4.665
70489W        W38852   4.700   5.334  10.504
70490W        W38853  42.008   1.365   2.215
70491W        W38854  13.829  12.194  12.400
70492W        W38855  17.116  43.489   0.816
70493W        W38856  10.221  37.460  11.523
70494W        W38857  41.414   2.442  14.342
70495W        W38858   2.379  42.461  11.072
70496W        W38859  35.494  27.980  14.312
70497W        W38860   2.795  18.610   4.662
70498W        W38861  41.995  44.435  12.856
70499W        W38862  19.179  29.516   4.644
70500W        W38863  20.541  11.806  11.031
70501W        W38864  17.569   4.819   2.193
70502W        W38865  12.268   0.255   4.690
70503W        W38866  11.312  30.566   4.124
70504W        W38867   8.368  11.841   1.787
70505W        W38868   0.928   4.708  13.028
70506W        W38869  17.706  24.669  10.522
70507W        W38870  39.445  44.301  13.958
70508W        W38871  40.931  44.375  14.955
70509W        W38872   5.372  31.949  11.461
70510W        W38873  39.362  39.393  14.351
70511W        W38874  25.672  16.738  10.534
70512W        W38875  22.723  26.208   0.873
70513W        W38876  38.902   7.685   4.658
70514W        W38877  16.180  32.416  11.068
70515W        W38878  15.763  28.441  10.523
70516W        W38879   1.241  12.266  13.047
70517W        W38880  20.201   3.273  12.005
70518W        W38881  29.028  11.742   2.213
70519W        W38882  22.044  26.623   1.409
70520W        W38883  44.300  38.883   0.354
70521W        W38884   4.857  21.566   4.139
70522W        W38885  15.123  43.863  10.534
70523W        W38886  32.574  21.598   3.256
70524W        W38887  18.082  24.009  13.977
70525W        W38888  11.210  26.701   3.323
70526W        W38889  38.400  31.439  12.470
70527W        W38890   9.774   1.425  10.599
70528W        W38891  39.008  16.107  12.352
70529W        W38892   8.898  10.234  13.030
70530W        W38893  12.788   1.345  12.984
70531W        W38894  34.453  13.720   1.803
70532W        W38895   1.918  11.729  13.992
70533W        W38896  26.099   3.849   2.324
70534W        W38897  34.021   5.707  14.326
70535W        W38898  10.847  17.613  10.540
70536W        W38899  18.647   5.377  10.941
70537W        W38900   0.315  18.615   1.384
70538W        W38901  19.266   9.237   0.405
70539W        W38902  20.270  19.219   3.378
70540W        W38903  38.530  33.913   1.304
70541W        W38904  41.928   6.195   1.237
70542W        W38905   1.412  11.151  13.475
70543W        W38906  17.064   5.242  13.475
70544W        W38907  23.491   5.798  12.409
70545W        W38908  27.110  38.999   1.343
70546W        W38909  24.134  12.814   1.384
70547W        W38910  16.229  38.465  12.007
70548W        W38911  42.003   3.398  10.567
70549W        W38912   3.324  18.151  12.919
70550W        W38913  39.402   5.692  14.430
70551W        W38914  38.978  10.232  11.583
70552W        W38915  11.208   5.370   4.120
70553W        W38916  43.502  31.128  13.351
70554W        W38917  36.068  30.623  11.411
70555W        W38918  38.525  29.080   4.353
70556W        W38919  43.364  41.490  10.944
70557W        W38920  39.002  19.751  12.081
70558W        W38921  21.060  27.969   0.964
70559W        W38922  42.492  27.539  11.457
70560W        W38923  11.336  36.894  11.942
70561W        W38924  44.774   7.375  12.500
70562W        W38925  25.110   9.172   1.391
70563W        W38926  17.623  13.756   2.814
70564W        W38927  20.767  29.064  13.877
70565W        W38928   0.886  10.367  12.894
70566W        W38929  24.147  22.047  14.787
70567W        W38930  20.697  13.693   3.761
70568W        W38931   9.654  37.573   4.120
70569W        W38932   7.670  22.226  11.599
70570W        W38933  34.896  21.539  11.540
70571W        W38934  23.494  43.820  12.850
70572W        W38935  18.739  21.617   0.271
70573W        W38936   4.235  19.285   1.341
70574W        W38937  29.542   8.387  11.950
70575W        W38938  16.115  14.224   3.756
70576W        W38939  42.322  10.178   0.839
70577W        W38940  22.692  21.119   0.317
70578W        W38941  14.669  33.617   0.283
70579W        W38942  41.815  43.281  11.438
70580W        W38943   1.468  13.268  14.444
70581W        W38944  24.082   5.342   2.855
70582W        W38945  10.344  19.152  11.575
70583W        W38946  34.580  39.438   0.277
70584W        W38947  34.025  11.830  11.475
70585W        W38948  17.206  43.437   0.255
70586W        W38949   2.804   6.830  14.418
70587W        W38950  25.171  25.518  11.581
70588W        W38951   4.359  13.207   1.833
70589W        W38952  40.985  28.494   3.723
70590W        W38953  32.511  26.149  14.394
70591W        W38954  20.539   4.704  13.828
70592W        W38955  41.471  41.902  13.861
70593W        W38956  21.163  31.514   3.154
70594W        W38957  27.032  37.496  12.880
70595W        W38958  36.862   1.939  14.769
70596W        W38959  10.249  38.880   3.350
70597W        W38960  34.387  32.557   3.835
70598W        W38961   7.266  20.714   3.674
70599W        W38962  18.564  25.069   3.167
70600W        W38963  21.577  35.429   2.372
70601W        W38964  43.943  13.656   4.299
70602W        W38965   2.772  43.465  13.545
70603W        W38966  37.517  20.229   1.426
70604W        W38967  34.954  15.167   1.306
70605W        W38968  28.595  29.456  13.308
70606W        W38969   6.872  20.211  13.921
70607W        W38970  24.491  10.850   0.822
70608W        W38971  39.991   3.356  10.461
70609W        W38972  19.642   2.361  11.113
70610W        W38973  22.534   3.718   4.760
70611W        W38974  16.266  25.622  12.886
70612W        W38975  30.979  12.351  11.971
70613W        W38976  12.771   5.749   4.281
70614W        W38977  16.752  39.022  10.605
70615W        W38978  32.018  30.595   3.795
70616W        W38979  16.787  15.812  14.985
70617W        W38980   9.855  27.627  13.840
70618W        W38981  31.091  28.476  14.817
70619W        W38982  12.625   9.786  11.881
70620W        W38983   2.444  32.143  11.524
70621W        W38984  18.593   1.439   1.273
70622W        W38985  25.671  39.435  14.796
70623W        W38986  19.602   2.404   0.898
70624W        W38987   3.841  37.033   3.860
70625W        W38988  41.515  44.406   3.716
70626W        W38989  14.154  28.642   0.790
70627W        W38990   5.310  30.055   1.931
70628W        W38991  38.376  14.688  13.032
70629W        W38992  15.822  13.218  10.609
70630W        W38993  32.111  17.247  14.352
70631W        W38994  41.797  11.739   0.950
70632W        W38995   8.391  14.605   2.326
70633W        W38996  35.859  19.753  11.127
70634W        W38997   1.477  44.350  12.848
70635W        W38998  33.025  21.561  14.957
70636W        W38999  11.279  27.610   4.311
70637W        W39000  28.174  25.663  11.561
70638W        W39001  20.172  14.181  11.094
70639W        W39002  23.506   8.739   0.899
70640W        W39003  43.372  15.214   3.808
70641W        W39004  40.520   1.454   0.414
70642W        W39005  13.818  42.519  13.043
70643W        W39006  17.796  17.582  10.906
70644W        W39007  18.774  39.532   0.866
70645W        W39008  34.427  15.682  12.458
70646W        W39009  43.286   6.920  10.581
70647W        W39010  26.632  10.793  10.501
70648W        W39011  31.145  18.095  14.917
70649W        W39012   0.776  21.228   4.136
70650W        W39013  15.590  28.171  13.373
70651W        W39014   5.906  15.200   1.754
70652W        W39015  12.195  43.356   1.708
70653W        W39016  34.118  20.040  11.449
70654W        W39017  30.480  37.889  10.465
70655W        W39018   8.266  21.524   0.349
70656W        W39019  41.377  31.969  13.492
70657W        W39020  18.070  18.765   1.391
70658W        W39021  38.063  24.231   3.248
70659W        W39022  16.283  34.519  14.809
70660W        W39023  41.406  11.146  10.488
70661W        W39024   8.213  44.771  11.076
70662W        W39025  29.074   0.260   2.680
70663W        W39026   3.818  17.666  12.900
70664W        W39027   4.735   4.783  13.017
70665W        W39028  21.155  37.989  14.446
70666W        W39029  19.212  44.916   4.646
70667W        W39030  33.899  12.846   4.672
70668W        W39031   9.812  16.153  12.399
70669W        W39032  19.710   6.850   2.337
70670W        W39033  15.808  30.645   3.658
70671W        W39034  24.638  16.309   2.398
70672W        W39035  27.597  30.946  11.030
70673W        W39036  22.734  20.624  11.115
70674W        W39037  30.145  21.050   4.236
70675W        W39038  12.160  25.183  12.973
70676W        W39039  18.056  44.344   0.429
70677W        W39040   2.253  17.245  12.459
70678W        W39041   5.373  21.591   1.329
70679W        W39042  17.595  42.512   1.340
70680W        W39043  36.531   9.855   4.350
70681W        W39044  38.509  25.218  10.555
70682W        W39045  26.488   9.205   4.322
70683W        W39046  38.843  35.102   4.824
70684W        W39047  25.669   8.855  10.431
70685W        W39048  25.697   0.424   1.272
70686W        W39049   0.978  42.411  11.874
70687W        W39050  34.051  33.994  14.322
70688W        W39051  28.668  14.712   2.316
70689W        W39052  39.031   3.737  11.453
70690W        W39053  31.007  16.720   3.724
70691W        W39054   2.423  24.181   2.872
70692W        W39055  36.565  36.880   1.312
70693W        W39056  24.654   7.702  12.825
70694W        W39057   3.248  21.182   1.705
70695W        W39058  24.715  38.482   4.264
70696W        W39059  39.062  22.048   2.667
70697W        W39060  38.883  12.205   2.403
70698W        W39061  11.240  25.518  13.329
70699W        W39062  23.080  14.260  13.533
70700W        W39063  17.285  12.630   4.325
70701W        W39064   1.397  33.971   1.216
70702W        W39065  37.370  23.679  10.051
70703W        W39066  35.946  13.800   2.874
70704W        W39067   0.967  42.833   1.233
70705W        W39068   7.684  28.174   3.365
70706W        W39069  27.017   1.799   1.841
70707W        W39070  10.324  21.656  11.493
70708W        W39071  26.186   8.763   3.282
70709W        W39072  14.649  38.378   4.766
70710W        W39073  17.606  44.361  10.553
70711W        W39074   1.312  34.442   3.366
70712W        W39075  37.359  26.549   0.475
70713W        W39076  34.497  13.218  13.800
70714W        W39077  35.516  16.621   1.706
70715W        W39078  22.017  43.875   3.655
70716W        W39079  44.335  16.105   3.658
70717W        W39080  44.403  41.506   4.344
70718W        W39081  26.691  24.694  14.802
70719W        W39082  40.477  38.568   0.343
70720W        W39083  26.089   4.796   0.270
70721W        W39084  18.567  16.171  14.831
70722W        W39085  39.524  39.055  13.543
70723W        W39086  30.646   6.397   1.256
70724W        W39087   8.806  22.232   2.806
70725W        W39088  10.777  17.092   1.734
70726W        W39089  10.810   1.353   0.834
70727W        W39090  22.555  34.081   4.347
70728W        W39091  35.507  11.644  14.446
70729W        W39092  38.907  22.235   4.651
70730W        W39093  40.511   0.949   2.380
70731W        W39094  32.605  28.660   4.809
70732W        W39095  12.764   0.929  10.953
70733W        W39096  30.466  25.533   3.209
70734W        W39097  32.463  21.638  11.953
70735W        W39098  19.583  12.855  13.452
70736W        W39099  17.564   0.333  10.444
70737W        W39100  11.773   1.833  10.071
70738W        W39101   6.807   3.278   4.305
70739W        W39102  34.490  17.675  13.438
70740W        W39103  34.588  22.080   0.800
70741W        W39104  21.699  27.615   4.677
70742W        W39105  28.459  18.240  11.876
70743W        W39106   3.888  27.612  11.434
70744W        W39107   9.655  26.049  13.516
70745W        W39108   7.355   2.888  11.579
70746W        W39109  38.345  37.880  10.916
70747W        W39110  37.410   4.875  13.953
70748W        W39111   4.739  34.063  11.503
70749W        W39112  26.130  16.172  14.873
70750W        W39113  15.304  44.334   3.732
70751W        W39114  38.479   3.356   2.727
70752W        W39115  43.441  22.579  11.570
70753W        W39116   8.685   7.417   4.347
70754W        W39117   0.257  35.483   2.289
70755W        W39118  17.692  33.464  14.950
70756W        W39119  44.918  27.475   0.271
70757W        W39120  33.120  17.569  12.853
70758W        W39121   6.419  28.434  12.454
70759W        W39122  12.148  36.489   0.728
70760W        W39123   6.367  29.995   2.317
70761W        W39124  33.039   6.808  12.461
70762W        W39125  44.963  36.546  12.441
70763W        W39126  39.315   3.914   1.286
70764W        W39127  43.911   8.897   1.854
70765W        W39128   7.716  24.060  13.836
70766W        W39129  13.817  42.388  11.069
70767W        W39130  36.376  32.043  13.509
70768W        W39131  34.378  27.040   1.309
70769W        W39132  27.068  40.797   1.316
70770W        W39133  40.423   1.813   2.729
70771W        W39134   7.262  32.613   4.244
70772W        W39135  24.718   1.780   2.183
70773W        W39136  32.982  31.995   0.445
70774W        W39137  17.168  44.801  13.936
70775W        W39138   2.338  35.904   4.682
70776W        W39139  38.872   2.950  11.085
70777W        W39140  39.376   3.460   0.761
70778W        W39141  12.297  44.334   2.768
70779W        W39142  17.211  36.972   0.302
70780W        W39143  42.021  30.146  14.996
70781W        W39144  12.206  17.122  11.552
70782W        W39145   8.679  37.365   1.819
70783W        W39146  41.528   2.796   0.242
70784W        W39147  41.834  35.104   3.682
70785W        W39148  35.008  12.624  13.413
70786W        W39149  41.986  22.122  12.995
70787W        W39150   5.885  23.623  14.894
70788W        W39151  28.944  30.049   5.683
70789W        W39152  42.027  12.637  14.381
70790W        W39153  36.570  28.965  11.925
70791W        W39154  22.732  41.453   0.873
70792W        W39155  40.992  41.925   3.828
70793W        W39156  35.916  14.312  14.005
70794W        W39157   3.904  22.709  14.864
70795W        W39158  32.904   3.413   1.221
70796W        W39159  15.778  42.484   1.753
70797W        W39160  34.378  29.953  13.322
70798W        W39161  14.231  40.422  12.566
70799W        W39162  18.629   3.424   1.874
70800W        W39163  41.802  28.943   4.120
70801W        W39164   5.702  44.260   1.756
70802W        W39165  13.708  33.925   1.363
70803W        W39166  12.357   9.787   2.303
70804W        W39167  25.493  14.147  13.985
70805W        W39168   8.198  10.808  14.451
70806W        W39169  32.952  30.938   3.385
70807W        W39170  27.068   1.374  12.519
70808W        W39171  43.905  12.299  12.924
70809W        W39172   5.327  30.514   3.666
70810W        W39173   9.290  31.994   5.227
70811W        W39174  14.830  21.053  12.568
70812W        W39175  27.691   4.704  14.791
70813W        W39176   6.423  11.247  14.914
70814W        W39177  22.031  44.280   0.256
70815W        W39178  43.858   5.857   3.703
70816W        W39179  29.555  28.115   4.640
70817W        W39180  11.179  14.718  13.395
70818W        W39181  44.353   2.285   4.792
70819W        W39182  31.093  41.307  10.488
70820W        W39183  38.480  15.252   0.453
70821W        W39184  42.373   1.739   3.327
70822W        W39185   4.385  26.992  14.953
70823W        W39186  15.791   4.418   1.702
70824W        W39187  23.074  23.526  11.893
70825W        W39188   9.747  12.716  10.608
70826W        W39189  39.873  38.041   4.124
70827W        W39190  22.220   2.748  12.931
70828W        W39191  43.332   9.210  13.803
70829W        W39192   6.742  11.784  11.975
70830W        W39193  13.106  32.989   0.875
70831W        W39194  10.737   7.336   1.821
70832W        W39195   9.825  25.632   1.323
70833W        W39196  24.981  41.021   3.265
70834W        W39197  13.831   9.829   2.800
70835W        W39198  16.156  22.734  13.498
70836W        W39199   2.830  43.988  13.437
70837W        W39200  42.832   2.770   2.202
70838W        W39201  23.105  24.583   0.297
70839W        W39202  32.582  21.722   2.721
70840W        W39203   6.751  22.049  10.614
70841W        W39204  41.855   7.880   1.890
70842W        W39205   8.335  32.977   0.272
70843W        W39206  34.478  32.094   0.435
70844W        W39207   5.715   9.691   2.402
70845W        W39208  14.200  13.180  12.021
70846W        W39209  27.055  39.479   4.752
70847W        W39210  30.115  43.270   4.821
70848W        W39211  42.813  31.919  13.847
70849W        W39212  42.475   2.464  13.459
70850W        W39213  44.306  37.045  11.883
70851W        W39214  14.682  41.336   0.365
70852W        W39215  23.712  18.717   4.777
70853W        W39216  27.604  27.468  13.534
70854W        W39217   4.267  28.620  11.916
70855W        W39218  28.956  38.069  10.432
70856W        W39219   9.672  42.312   1.785
70857W        W39220  12.745  10.379  12.351
70858W        W39221  41.435  13.156  10.968
70859W        W39222  28.500  16.762   4.276
70860W        W39223  44.496  39.450  14.005
70861W        W39224   9.173  12.203  14.457
70862W        W39225  20.582  37.375   4.717
70863W        W39226  29.427   1.839   5.309
70864W        W39227  15.815  14.617   4.348
70865W        W39228  28.667  29.143   4.731
70866W        W39229  28.946  10.735   3.630
70867W        W39230  11.262   6.691  11.127
70868W        W39231   8.250  38.332   0.787
70869W        W39232  37.952  29.081   0.260
70870W        W39233  29.468   4.374  11.905
70871W        W39234  25.988   5.244  11.566
70872W        W39235  32.135  39.386   4.208
70873W        W39236   7.691  14.676   4.268
70874W        W39237  24.553  26.026   4.218
70875W        W39238  29.539  32.564   2.214
70876W        W39239  16.743  28.554   2.663
70877W        W39240  11.198  22.556  13.836
70878W        W39241  30.160  19.211   1.214
70879W        W39242  43.836  15.751  12.827
70880W        W39243  14.617  33.067  12.512
70881W        W39244   1.903  22.722   3.819
70882W        W39245  27.592   6.225   1.215
70883W        W39246  25.676   6.428   3.804
70884W        W39247  39.809   2.358  14.950
70885W        W39248  13.169  26.097  11.054
70886W        W39249  42.988   4.814   3.801
70887W        W39250  25.622  30.516  11.600
70888W        W39251  27.658   3.826  11.970
70889W        W39252  30.122  15.191   2.774
70890W        W39253   8.672   1.425   4.157
70891W        W39254  39.899  35.458   1.438
70892W        W39255  31.642   3.845   2.235
70893W        W39256  44.425  10.765   2.880
70894W        W39257  42.340  12.136  14.020
70895W        W39258  39.403  10.863   5.745
70896W        W39259  17.627   1.461  12.934
70897W        W39260   2.866   4.897   4.337
70898W        W39261  37.489  28.008  11.508
70899W        W39262   1.267  22.588  11.445
70900W        W39263  35.477  38.463   4.721
70901W        W39264   2.228   4.436  12.421
70902W        W39265   9.813  23.569   4.824
70903W        W39266  22.161  15.634  10.940
70904W        W39267  39.552  13.646   4.625
70905W        W39268  33.108  32.423   0.424
70906W        W39269  29.093  21.226  10.023
70907W        W39270  28.050  30.109   3.809
70908W        W39271  26.590  41.527  13.393
70909W        W39272  38.394   1.960   1.786
70910W        W39273  37.981  38.982  12.985
70911W        W39274  44.395  16.115   3.147
70912W        W39275  24.620  26.582   0.746
70913W        W39276  37.875  25.640   1.897
70914W        W39277  27.974  33.072   3.801
70915W        W39278  26.607  27.996  14.839
70916W        W39279  21.637  19.603  12.973
70917W        W39280  33.913   7.222  12.950
70918W        W39281  44.380  33.399   4.758
70919W        W39282   1.837  42.414  12.491
70920W        W39283  40.538  43.289   2.745
70921W        W39284  42.436   6.342  10.557
70922W        W39285  11.641  40.797  12.567
70923W        W39286  29.489   9.181   1.861
70924W        W39287  36.471  39.065   4.651
70925W        W39288  27.059   2.459  14.785
70926W        W39289  10.734  29.510   4.693
70927W        W39290   2.724  19.206   2.849
70928W        W39291  13.623  33.556  13.438
70929W        W39292  20.530  14.270  14.451
70930W        W39293  42.402  38.476   5.763
70931W        W39294  12.136  18.608  14.380
70932W        W39295  41.435  43.393  11.967
70933W        W39296  25.621   7.878   1.259
70934W        W39297  24.578  35.542   2.219
70935W        W39298   6.737   7.243  10.436
70936W        W39299   8.825  41.478   4.253
70937W        W39300   3.750  11.183  13.372
70938W        W39301  15.627  21.663  10.997
70939W        W39302  24.053  21.740   4.792
70940W        W39303  26.978   9.880   3.641
70941W        W39304  10.776  33.433  12.425
70942W        W39305  34.391  35.004  10.984
70943W        W39306  27.037  38.399  11.060
70944W        W39307   4.828  38.062   3.185
70945W        W39308  40.012   1.796  12.981
70946W        W39309  43.345  41.818  11.506
70947W        W39310  23.596  33.021  14.471
70948W        W39311   5.815   9.759   3.871
70949W        W39312  33.048  12.356   4.817
70950W        W39313  32.974  27.179   0.865
70951W        W39314   6.384  40.974  13.864
70952W        W39315  24.998  18.725   1.354
70953W        W39316  21.043  43.849   1.392
70954W        W39317  35.045  19.742   5.207
70955W        W39318  43.391  22.244  14.387
70956W        W39319   6.377  38.479  14.503
70957W        W39320  29.139  17.297   2.840
70958W        W39321  24.628  11.822  14.901
70959W        W39322   7.812  19.185   1.887
70960W        W39323  38.875  42.017  11.507
70961W        W39324  27.164  21.558  13.032
70962W        W39325   8.826  12.358  14.409
70963W        W39326  19.280  36.889  13.379
70964W        W39327  29.072  33.996  10.515
70965W        W39328   1.839  30.163   2.757
70966W        W39329  13.785  13.252   0.808
70967W        W39330  28.680  43.841   0.919
70968W        W39331   4.915  44.832  10.535
70969W        W39332  32.985  19.601  10.621
70970W        W39333   6.886   9.690  11.033
70971W        W39334   9.282  12.212   4.154
70972W        W39335   5.796  37.991  13.025
70973W        W39336  36.588  44.294   4.717
70974W        W39337  41.906   8.303   4.128
70975W        W39338  37.467   4.841  10.892
70976W        W39339  30.578  28.673  13.036
70977W        W39340  34.959  35.402   0.783
70978W        W39341  22.235  27.655  10.927
70979W        W39342   1.749  44.498  13.938
70980W        W39343  43.418   1.424   3.208
70981W        W39344  27.110  11.319  11.527
70982W        W39345  36.851  39.449   1.392
70983W        W39346  12.668   7.723   4.752
70984W        W39347  16.074   2.404   1.749
70985W        W39348  22.231  12.311   1.810
70986W        W39349   0.450   7.804  14.450
70987W        W39350  33.619  37.914  13.382
70988W        W39351  23.111  36.933  14.338
70989W        W39352  11.224  31.984  11.497
70990W        W39353  21.064  30.139  14.352
70991W        W39354   5.816   1.815   3.643
70992W        W39355   9.680  25.136  11.124
70993W        W39356  34.470  29.558   1.696
70994W        W39357  34.388  23.148  11.037
70995W        W39358   2.797  34.585   2.333
70996W        W39359  44.327  16.094   1.344
70997W        W39360   2.345  37.501   4.821
70998W        W39361  11.667   4.721   0.944
70999W        W39362  15.727  17.158   2.183
71000W        W39363  27.546  22.148   2.349
71001W        W39364  27.180  15.137  10.617
71002W        W39365  43.792  23.032  14.029
71003W        W39366  25.977  35.041   3.706
71004W        W39367  10.228  11.252  11.381
71005W        W39368  23.635  11.801   2.878
71006W        W39369   1.446  32.032   1.721
71007W        W39370   0.340   5.922   0.885
71008W        W39371  31.138   0.960   3.804
71009W        W39372  17.219  25.711  12.504
71010W        W39373   9.302  21.034  10.979
71011W        W39374  40.941  32.047  13.879
71012W        W39375  36.902  17.770   0.957
71013W        W39376  34.370   7.341   0.385
71014W        W39377  23.207   9.823   2.204
71015W        W39378  33.591  22.568   1.795
71016W        W39379  39.057  25.984   9.949
71017W        W39380  34.992  34.941  13.378
71018W        W39381  12.345  32.927  13.956
71019W        W39382   3.839  36.525  12.550
71020W        W39383  44.981  11.632  13.389
71021W        W39384   8.713  24.555  11.517
71022W        W39385  19.624  44.455   0.962
71023W        W39386   9.336  12.646   1.313
71024W        W39387   4.265  43.872   4.304
71025W        W39388  41.798  10.695  12.084
71026W        W39389  27.631  34.413  11.947
71027W        W39390  19.775   7.275  11.496
71028W        W39391   3.453  38.955   2.384
71029W        W39392  17.645  42.401   1.931
71030W        W39393  28.543  30.597   4.179
71031W        W39394  18.251  16.620   2.734
71032W        W39395  31.519  19.226   1.371
71033W        W39396   1.758  27.008  12.057
71034W        W39397  40.442  26.170  13.421
71035W        W39398  27.179  42.353  10.543
71036W        W39399  32.079  19.051   3.657
71037W        W39400  40.966  14.132   2.384
71038W        W39401  33.017   5.320  10.893
71039W        W39402   9.354  24.490   2.816
71040W        W39403  36.513  32.525   4.277
71041W        W39404  37.422  25.971  14.881
71042W        W39405   5.291  31.547  12.440
71043W        W39406  13.783  31.036   3.203
71044W        W39407  38.569  30.611   4.145
71045W        W39408  40.503   6.916  13.916
71046W        W39409  21.174  33.880   1.925
71047W        W39410  39.829  34.028   1.273
71048W        W39411   2.295  43.819   5.609
71049W        W39412  44.868  26.509   3.302
71050W        W39413  17.610  40.514   4.753
71051W        W39414  12.187  13.802   2.365
71052W        W39415  26.134   5.215  12.559
71053W        W39416   9.735  19.614  13.852
71054W        W39417  43.826  23.713   4.627
71055W        W39418  25.198  25.681   2.241
71056W        W39419  35.855  41.825   0.845
71057W        W39420   8.365  33.971  14.505
71058W        W39421  33.487  36.857   3.148
71059W        W39422  15.619  26.692  13.378
71060W        W39423  18.749  38.464   0.288
71061W        W39424  39.555  30.955  13.405
71062W        W39425  20.525  11.296   4.700
71063W        W39426  23.655  25.481  12.452
71064W        W39427  39.403  44.869   2.236
71065W        W39428   9.854  27.610   4.749
71066W        W39429  15.190  19.674  12.506
71067W        W39430  23.720  19.075   0.931
71068W        W39431  41.488  42.881  12.407
71069W        W39432  10.202  11.340   0.418
71070W        W39433  29.967  44.273   3.380
71071W        W39434   7.773  35.870   2.340
71072W        W39435  17.188  31.482  11.553
71073W        W39436   9.660  27.497  12.345
71074W        W39437  31.561  14.241   2.694
71075W        W39438   4.876  16.081  11.936
71076W        W39439  34.994  27.112  11.869
71077W        W39440   7.339  18.591  13.864
71078W        W39441  44.263   5.435   2.210
71079W        W39442  12.670   4.410   5.696
71080W        W39443  43.808  38.903   1.397
71081W        W39444  17.280  17.792   1.235
71082W        W39445   1.978  10.804   2.301
71083W        W39446  18.256  28.981   4.769
71084W        W39447  27.992   1.758  14.950
71085W        W39448  39.992  32.141  14.802
71086W        W39449  44.890  37.931  11.972
71087W        W39450  44.348  16.718  13.955
71088W        W39451  13.244  22.052  11.479
71089W        W39452  21.111  38.038   1.367
71090W        W39453  31.533  24.668   4.245
71091W        W39454  17.188  29.458   2.393
71092W        W39455  19.562  44.904   2.716
71093W        W39456  28.078  29.138  12.986
71094W        W39457  43.948  38.964  12.892
71095W        W39458  15.683  31.501  12.882
71096W        W39459  22.050   8.699   0.809
71097W        W39460  14.759  42.880  13.496
71098W        W39461  39.443   1.766  12.833
71099W        W39462  31.456  30.081   2.766
71100W        W39463   6.882  12.763  14.484
71101W        W39464  14.629  32.429   3.152
71102W        W39465  12.688   4.235   5.104
71103W        W39466  26.522  13.110  12.519
71104W        W39467  43.996   6.392   2.249
71105W        W39468  22.074  32.611  12.013
71106W        W39469  31.128  35.050  14.797
71107W        W39470   8.373  33.469  14.274
71108W        W39471  12.245  15.267   3.371
71109W        W39472  34.995   1.440  14.942
71110W        W39473  39.385  27.575   2.795
71111W        W39474  36.888  10.830   4.280
71112W        W39475  12.663  15.665  10.441
71113W        W39476  44.354  14.747   1.412
71114W        W39477  44.784   0.932  13.006
71115W        W39478  42.902  24.112   3.632
71116W        W39479  38.383  27.152   1.401
71117W        W39480  35.945  35.855  14.493
71118W        W39481  17.697  29.948  12.049
71119W        W39482   0.446   2.332   1.259
71120W        W39483  18.226  42.292  13.866
71121W        W39484  30.015  36.582   3.651
71122W        W39485  31.983  28.662   5.161
71123W        W39486   1.910  41.889   2.348
71124W        W39487  23.230  42.978   1.411
71125W        W39488  15.292   6.802   3.678
71126W        W39489  34.055  10.728   3.837
71127W        W39490   0.896  26.161   3.799
71128W        W39491  35.441  19.567  14.813
71129W        W39492   6.812  20.706  10.639
71130W        W39493  19.741  11.277   3.836
71131W        W39494  44.823  23.082   2.722
71132W        W39495  15.813  44.858   3.192
71133W        W39496  14.803  14.667  11.053
71134W        W39497  42.508   8.876   2.317
71135W        W39498   6.797  30.922   0.802
71136W        W39499  35.433  33.999   0.804
71137W        W39500  41.900  23.652  12.555
71138W        W39501  36.039  18.268  12.518
71139W        W39502  42.354  35.488   2.725
71140W        W39503  20.697  20.153  13.452
71141W        W39504  38.057  23.733   2.335
71142W        W39505  24.519  16.211   4.285
71143W        W39506  24.509  41.840   3.201
71144W        W39507   8.754  32.042   2.695
71145W        W39508  26.064   2.333  10.905
71146W        W39509  34.603  35.859  14.787
71147W        W39510  15.262  21.636  11.583
71148W        W39511   1.953  37.024  12.572
71149W        W39512  26.136   0.847   4.156
71150W        W39513  42.005  27.549   2.340
71151W        W39514  40.868  36.461   4.289
71152W        W39515  43.858  44.437  13.388
71153W        W39516  34.595   3.718   1.869
71154W        W39517  16.791  29.015  10.413
71155W        W39518  18.664  26.989   1.371
71156W        W39519  39.339   5.695   1.814
71157W        W39520  39.001  38.522   2.781
71158W        W39521  31.080   2.257   1.885
71159W        W39522  37.002  12.780   0.297
71160W        W39523  11.689  16.578   1.292
71161W        W39524  27.975  21.581   2.768
71162W        W39525   1.354  22.110   4.658
71163W        W39526  10.342   5.299  12.836
71164W        W39527  40.884  19.695   1.923
71165W        W39528   3.760  41.513   1.798
71166W        W39529  20.592  42.968   1.905
71167W        W39530  27.652  14.649  11.609
71168W        W39531  27.602  34.461   3.336
71169W        W39532  21.058  13.691   0.863
71170W        W39533  41.822  14.718  11.916
71171W        W39534  21.550  20.546   4.253
71172W        W39535   2.775  40.984   1.879
71173W        W39536   0.794   6.860   3.719
71174W        W39537   7.405   2.288  11.072
71175W        W39538  19.569  42.845  12.083
71176W        W39539  17.574   9.356  12.497
71177W        W39540  10.258   4.808  10.512
71178W        W39541  12.121  29.026   0.451
71179W        W39542  21.754  11.303  11.882
71180W        W39543  27.575  40.325   2.761
71181W        W39544  44.848  20.082  11.927
71182W        W39545   2.326  28.070  10.085
71183W        W39546  21.703  18.788   0.782
71184W        W39547  42.526   9.879  13.038
71185W        W39548   0.774  41.947   3.257
71186W        W39549   7.303  29.036  11.405
71187W        W39550   4.746  24.664   2.417
71188W        W39551  10.373   2.321  14.442
71189W        W39552  11.707  44.966   0.245
71190W        W39553  41.039  39.414  13.917
71191W        W39554  13.640  10.165   4.203
71192W        W39555  11.184  30.576   2.385
71193W        W39556   4.799   3.239  13.897
71194W        W39557  21.752  23.066  11.068
71195W        W39558  23.517  27.615  10.892
71196W        W39559   8.264  36.426   2.715
71197W        W39560  33.484  12.680   4.281
71198W        W39561  38.042   4.437   2.274
71199W        W39562  28.032   4.345   1.785
71200W        W39563   4.341  24.678   3.733
71201W        W39564   0.414   6.402  12.966
71202W        W39565  20.098  16.647  11.496
71203W        W39566   7.855  35.005   3.834
71204W        W39567  33.897  17.294   3.770
71205W        W39568  13.310  42.360   3.223
71206W        W39569  27.040   2.923  14.887
71207W        W39570  29.608   8.825  14.024
71208W        W39571  16.180  13.823  14.367
71209W        W39572  22.659  14.214   2.312
71210W        W39573  32.009  29.922  14.877
71211W        W39574  21.569   4.800   0.868
71212W        W39575  26.109  25.161  14.923
71213W        W39576  42.976  32.614   2.323
71214W        W39577  30.995  11.701   2.380
71215W        W39578   0.273  29.650  12.916
71216W        W39579  23.686  11.792   3.253
71217W        W39580  14.250  27.593  12.862
71218W        W39581   0.987  20.682   3.868
71219W        W39582  23.110  27.070   3.360
71220W        W39583   3.931  36.538   2.841
71221W        W39584  38.887  12.618  10.440
71222W        W39585  25.161  37.072   3.719
71223W        W39586  39.551  41.295   0.478
71224W        W39587   1.246   1.259  13.344
71225W        W39588  30.436   3.920   1.440
71226W        W39589  28.179  23.165   1.301
71227W        W39590  37.537  35.495   0.363
71228W        W39591  17.205  16.722  10.013
71229W        W39592  27.179  43.363   4.813
71230W        W39593  21.755   5.733   3.852
71231W        W39594  30.538  12.347  11.439
71232W        W39595  13.720  22.574  12.469
71233W        W39596   9.871  17.253   0.319
71234W        W39597  24.222  20.719  11.102
71235W        W39598   5.317   0.376   3.809
71236W        W39599  24.018  39.065   3.304
71237W        W39600  10.276  17.583  13.458
71238W        W39601  40.005  42.873   0.247
71239W        W39602  23.183   6.687  13.057
71240W        W39603  19.734   2.435  12.047
71241W        W39604   7.845  13.828   3.801
71242W        W39605  14.778  21.692   0.270
71243W        W39606  24.181  14.118   0.272
71244W        W39607  11.680  40.043   4.193
71245W        W39608   1.326  28.995   3.226
71246W        W39609  23.715  28.532  13.865
71247W        W39610  42.995   9.290  14.852
71248W        W39611   6.262  35.501  12.096
71249W        W39612  10.774  26.161  11.454
71250W        W39613  17.620  43.962   4.705
71251W        W39614   2.302  30.062   2.739
71252W        W39615  16.577  40.458   4.293
71253W        W39616  41.802  27.174  14.896
71254W        W39617  23.641  20.744   0.423
71255W        W39618   5.819  41.846  12.362
71256W        W39619   2.258   6.745   3.241
71257W        W39620  36.964   0.378   4.768
71258W        W39621  24.640  44.286  14.767
71259W        W39622  36.966  24.724  12.445
71260W        W39623  21.238  38.010  12.371
71261W        W39624  23.029  18.155  11.001
71262W        W39625   2.737   2.781  11.893
71263W        W39626   6.409  31.010  14.478
71264W        W39627  43.971  34.115   4.308
71265W        W39628  41.439  31.098  12.996
71266W        W39629  10.178  23.654  13.478
71267W        W39630  20.604  21.667   0.801
71268W        W39631  35.500  16.678  12.407
71269W        W39632  13.295  16.268   4.142
71270W        W39633  19.107  16.095   1.221
71271W        W39634  31.553  22.595  10.417
71272W        W39635  36.458  11.195   3.761
71273W        W39636  33.914  15.751   4.117
71274W        W39637   1.889  23.674  12.083
71275W        W39638   9.750  32.437  11.870
71276W        W39639  10.372  22.184  13.837
71277W        W39640   3.870  19.276   4.151
71278W        W39641  41.807  14.213  10.102
71279W        W39642  15.742   0.844   0.878
71280W        W39643  25.190  18.154  10.932
71281W        W39644  27.633  17.765   2.857
71282W        W39645  22.232   7.194   1.272
71283W        W39646  30.476  18.565   1.833
71284W        W39647  12.180  41.909   4.124
71285W        W39648  17.624   1.744  13.802
71286W        W39649  28.930  16.254   4.200
71287W        W39650   2.868   6.343  11.908
71288W        W39651  41.385  27.974  12.350
71289W        W39652  38.527  24.694   4.287
71290W        W39653  13.691  22.011  13.487
71291W        W39654  43.877  27.515   4.801
71292W        W39655   8.654  19.062  11.019
71293W        W39656  37.983   4.867  14.891
71294W        W39657   9.150  10.368   3.638
71295W        W39658  15.220  39.040   9.960
71296W        W39659  26.694  11.696  11.101
71297W        W39660  44.410  28.604  10.511
71298W        W39661  21.735   3.793   2.185
71299W        W39662  44.474  31.024   2.398
71300W        W39663  15.674  18.726   3.755
71301W        W39664   8.309  41.041   4.159
71302W        W39665   6.422  14.646   0.424
71303W        W39666  12.122  31.970   2.897
71304W        W39667   5.754   7.702  14.404
71305W        W39668  31.928  28.978  12.886
71306W        W39669  22.679  38.035  12.539
71307W        W39670  14.176  13.145  12.968
71308W        W39671  26.676  33.004  12.936
71309W        W39672  37.522  25.175   2.686
71310W        W39673   4.276   4.934  14.873
71311W        W39674  23.632  41.963   2.780
71312W        W39675  17.144  14.685   0.354
71313W        W39676  23.175   2.272  12.355
71314W        W39677  25.572  38.852  11.919
71315W        W39678  14.144  29.070   1.257
71316W        W39679   9.871   3.722  13.449
71317W        W39680   4.412  23.230   0.480
71318W        W39681   2.319   2.741  10.513
71319W        W39682  12.339  39.419  14.850
71320W        W39683  27.452  33.059   0.291
71321W        W39684  25.123  32.022  10.552
71322W        W39685  31.132   0.338  14.818
71323W        W39686  32.459   9.153  11.396
71324W        W39687  37.400  39.980  12.042
71325W        W39688   8.674  42.939   1.891
71326W        W39689   5.207  26.058  12.461
71327W        W39690  26.521  42.389   2.833
71328W        W39691   6.403   0.274   2.390
71329W        W39692  12.669  19.557   1.747
71330W        W39693   7.346  21.615   1.789
71331W        W39694   9.728  27.501   0.280
71332W        W39695  39.892  35.086  14.772
71333W        W39696  11.720   7.258   1.281
71334W        W39697  42.291  20.101  12.848
71335W        W39698  21.047  26.689   0.814
71336W        W39699  26.698  15.118  14.378
71337W        W39700  38.341   8.694  13.525
71338W        W39701  38.839   8.242   4.204
71339W        W39702  26.966  14.263  14.301
71340W        W39703  42.894  17.561  13.961
71341W        W39704  42.802  14.200   1.356
71342W        W39705  12.305   4.904  12.514
71343W        W39706  44.874  25.118  10.491
71344W        W39707  38.489  35.430  10.921
71345W        W39708  41.360  39.809  11.441
71346W        W39709  11.341  42.899  10.476
71347W        W39710  40.394  32.462   4.740
71348W        W39711  27.463  31.966  12.461
71349W        W39712  41.890  38.936   3.379
71350W        W39713   3.900  39.390   3.177
71351W        W39714   6.868   2.265   1.261
71352W        W39715  16.679  39.340   3.302
71353W        W39716   8.378  19.112  14.370
71354W        W39717  13.326   4.944  11.587
71355W        W39718   5.258  21.547  13.922
71356W        W39719  22.055  11.694  12.832
71357W        W39720   4.374  22.720   3.864
71358W        W39721  12.349   7.277   1.255
71359W        W39722  26.990   2.777   0.758
71360W        W39723   1.382  22.127   1.341
71361W        W39724  42.778   8.778  11.071
71362W        W39725  29.044  34.959  12.481
71363W        W39726  34.018  25.156  11.868
71364W        W39727  11.199   2.886   3.282
71365W        W39728  38.529  13.605   4.289
71366W        W39729   1.879  26.971  12.343
71367W        W39730  27.185  13.786   0.258
71368W        W39731  16.261  42.819  14.420
71369W        W39732  41.441  34.872  14.789
71370W        W39733   8.696   1.946   2.302
71371W        W39734  16.311  10.868  14.902
71372W        W39735  14.223  13.622   2.701
71373W        W39736  12.623  40.983  14.009
71374W        W39737  22.515  43.005   3.163
71375W        W39738  12.750  24.122   0.792
71376W        W39739  34.119  28.097   4.249
71377W        W39740   0.253  18.736   0.423
71378W        W39741  22.085   6.345  13.462
71379W        W39742   4.363  38.842  14.909
71380W        W39743  19.233   0.845   4.762
71381W        W39744   0.354  16.170   2.221
71382W        W39745  13.120  44.490   2.704
71383W        W39746  17.785  17.117  13.825
71384W        W39747  27.568   1.376  10.579
71385W        W39748  20.685  22.244  13.859
71386W        W39749  19.078   2.350   4.171
71387W        W39750   3.848  25.526   1.359
71388W        W39751   1.881  20.607   3.154
71389W        W39752  35.876  23.999  13.361
71390W        W39753  37.437   4.446   1.277
71391W        W39754   5.703  44.922   0.285
71392W        W39755  41.529  44.932  14.883
71393W        W39756  13.768  12.330   4.258
71394W        W39757   6.321   0.953   1.871
71395W        W39758  31.932   1.256  14.973
71396W        W39759  34.614  43.977   3.197
71397W        W39760   4.320  33.532  10.633
71398W        W39761  41.492  30.459  13.543
71399W        W39762  37.582  19.258  13.379
71400W        W39763  44.990  35.888  13.497
71401W        W39764  36.008   8.301   4.743
71402W        W39765  27.659  19.776  14.880
71403W        W39766  20.191   2.416  13.002
71404W        W39767  17.736  40.009  14.821
71405W        W39768   6.824  21.033   0.470
71406W        W39769  44.414  30.114   1.804
71407W        W39770  11.636   3.886   2.893
71408W        W39771  34.892  31.531   1.763
71409W        W39772  10.726  11.320  11.379
71410W        W39773   6.241   3.296   2.351
71411W        W39774  38.377  36.894   1.752
71412W        W39775  15.301  39.958   2.366
71413W        W39776  43.392  40.952  11.594
71414W        W39777  38.059   1.866  13.053
71415W        W39778   5.881   1.472  12.563
71416W        W39779   2.305  22.252  14.857
71417W        W39780   1.795   4.765   5.132
71418W        W39781  10.767  41.529  14.897
71419W        W39782  30.014  35.957  14.319
71420W        W39783  13.328  29.532   2.800
71421W        W39784   2.402  15.248  13.339
71422W        W39785   2.799  23.626   3.189
71423W        W39786  10.247   8.239  12.959
71424W        W39787  15.304  12.358  10.942
71425W        W39788  36.547   5.344   2.263
71426W        W39789  29.638  41.344   3.790
71427W        W39790   1.369  20.274  13.876
71428W        W39791   6.836   4.861   0.755
71429W        W39792   8.378   9.383   1.888
71430W        W39793   0.464  23.554   5.293
71431W        W39794   6.795  37.429  13.322
71432W        W39795  29.015   9.724   2.886
71433W        W39796  29.046   0.403  12.512
71434W        W39797   5.716  32.904  12.025
71435W        W39798  20.637  19.259   3.331
71436W        W39799   0.341  37.068  13.901
71437W        W39800  25.473  24.666  14.772
71438W        W39801  26.648  30.596   4.333
71439W        W39802  26.008  16.570   5.668
71440W        W39803   6.234  28.029   2.371
71441W        W39804  33.105   7.248  12.904
71442W        W39805  32.900  14.148  11.039
71443W        W39806  16.766  24.143   4.836
71444W        W39807  35.374  23.087  11.613
71445W        W39808   4.285   5.743   4.622
71446W        W39809   4.732  28.092  10.526
71447W        W39810  32.130   9.704   2.831
71448W        W39811  21.114   6.823   3.183
71449W        W39812   9.773  40.966  10.980
71450W        W39813  11.828   6.222   3.826
71451W        W39814  13.210  29.509   1.437
71452W        W39815  32.103  38.055  13.032
71453W        W39816  27.101  38.876   4.705
71454W        W39817  41.815  24.669   4.121
71455W        W39818  41.011  12.260  12.980
71456W        W39819  28.974  35.931   2.698
71457W        W39820  22.222  43.936   1.294
71458W        W39821  22.138  39.811  12.029
71459W        W39822  21.636  31.534  10.892
71460W        W39823   0.260   5.311  11.612
71461W        W39824  27.092  35.032   2.237
71462W        W39825   7.746   6.313  10.547
71463W        W39826   9.257  44.908  10.608
71464W        W39827   7.266   0.466  12.924
71465W        W39828   5.236  35.434   1.252
71466W        W39829   3.917  13.717  13.319
71467W        W39830  37.501   3.419   3.747
71468W        W39831  26.673   2.373   0.315
71469W        W39832  40.528  25.190  11.885
71470W        W39833  26.063  40.416   2.295
71471W        W39834  30.017  10.799  11.050
71472W        W39835  33.983  30.935  11.536
71473W        W39836  25.586  39.426  11.606
71474W        W39837  22.182   6.260  10.483
71475W        W39838   3.369  42.951   1.777
71476W        W39839   1.734  37.353  13.532
71477W        W39840  14.174  14.102   3.745
71478W        W39841  29.068  31.607  14.416
71479W        W39842  38.991  11.357  11.866
71480W        W39843  14.632  16.316   4.212
71481W        W39844  36.571  24.129  13.847
71482W        W39845  42.312  19.146   1.779
71483W        W39846   2.763  38.391   0.743
71484W        W39847  37.001  35.461   2.723
71485W        W39848  40.401  16.698   0.269
71486W        W39849  31.017  12.186  11.061
71487W        W39850   8.386  25.963   1.332
71488W        W39851   4.781   3.869   2.841
71489W        W39852  11.224  13.181   3.844
71490W        W39853  34.586  44.977   9.469
71491W        W39854  24.669  33.941   0.891
71492W        W39855  15.693   4.760  11.937
71493W        W39856  32.591  19.685  14.417
71494W        W39857  22.686   9.189  10.003
71495W        W39858  20.710   8.885  11.542
71496W        W39859  42.383  19.071   4.769
71497W        W39860  16.196  44.487   4.185
71498W        W39861  28.493  25.606   4.832
71499W        W39862  14.284  34.053   1.741
71500W        W39863  20.045  34.880   1.359
71501W        W39864   7.779  15.607  11.001
71502W        W39865  40.395  36.548   0.867
71503W        W39866  39.050  28.513  11.032
71504W        W39867  14.167  24.593  13.040
71505W        W39868  33.107   9.154   4.184
71506W        W39869  28.136   5.430   2.842
71507W        W39870   0.274  33.483  14.978
71508W        W39871  22.241  19.697   0.742
71509W        W39872  15.292  11.290  14.998
71510W        W39873  32.487  19.656  11.942
71511W        W39874  25.568   1.245   3.336
71512W        W39875  17.796  19.066  10.998
71513W        W39876   5.852  43.350   1.367
71514W        W39877  24.213   2.461   2.309
71515W        W39878   6.370  27.575   2.306
71516W        W39879   9.175   0.819  14.288
71517W        W39880   2.916  43.768  12.914
71518W        W39881   9.880  32.512   2.207
71519W        W39882  36.347   4.255  14.016
71520W        W39883  42.785  10.783   3.702
71521W        W39884  30.970  28.993   1.806
71522W        W39885   7.256  29.940   3.775
71523W        W39886  14.594  19.576  14.370
71524W        W39887  12.811   4.233   9.534
71525W        W39888  25.505   3.220   1.346
71526W        W39889  25.642  14.186   4.805
71527W        W39890  40.939  24.170   3.165
71528W        W39891  26.041  40.499  14.866
71529W        W39892  41.482   5.719  10.570
71530W        W39893  11.797  13.729  10.630
71531W        W39894  27.646  21.111   3.717
71532W        W39895  18.245   3.331  14.354
71533W        W39896  27.952  17.562   4.136
71534W        W39897   6.884  26.676  14.835
71535W        W39898  24.615  18.145  14.504
71536W        W39899  27.977  14.617  13.858
71537W        W39900   5.762  15.264  13.445
71538W        W39901  15.798  44.976  13.352
71539W        W39902  24.660  14.294   1.707
71540W        W39903  37.924  42.840   5.313
71541W        W39904  38.952  13.750   1.302
71542W        W39905  28.482  34.424   1.872
71543W        W39906  19.202  32.142   1.705
71544W        W39907  44.991  29.064   0.359
71545W        W39908  22.556  42.930   3.817
71546W        W39909  13.127   4.726   5.320
71547W        W39910  37.466  22.639  11.477
71548W        W39911   7.823   4.354   2.407
71549W        W39912  21.148  36.552  11.896
71550W        W39913  31.934  12.229  11.050
71551W        W39914  41.868  28.627   3.313
71552W        W39915   0.944  12.185   2.724
71553W        W39916  11.352   5.265  14.471
71554W        W39917  23.099  34.591  11.118
71555W        W39918   0.778  20.138  14.003
71556W        W39919  11.653  30.972   2.737
71557W        W39920  23.508  30.463  11.445
71558W        W39921  33.537   2.418   5.142
71559W        W39922  41.503  15.748   3.711
71560W        W39923  23.721   1.856   2.748
71561W        W39924  24.106   9.779  11.901
71562W        W39925  31.622  16.239   3.219
71563W        W39926  30.636  41.469   1.381
71564W        W39927   8.703  25.056  14.446
71565W        W39928  31.105  19.054  12.925
71566W        W39929   4.224   7.413   3.186
71567W        W39930   1.913  26.526   4.832
71568W        W39931  27.152  29.465   3.812
71569W        W39932  37.424  35.044   2.808
71570W        W39933  24.142   6.708   3.170
71571W        W39934  25.978  43.793   4.298
71572W        W39935  23.560  17.782   4.186
71573W        W39936  17.268  41.465  13.327
71574W        W39937  39.342  31.637   1.343
71575W        W39938   8.683  24.011   3.251
71576W        W39939  12.118  28.101  14.894
71577W        W39940  38.945  12.124   1.891
71578W        W39941  17.735  25.598   4.693
71579W        W39942  13.141   8.166  14.365
71580W        W39943  44.438  36.478  13.389
71581W        W39944  10.307  18.709  12.580
71582W        W39945   5.200   8.853   3.656
71583W        W39946  44.973  21.058   1.437
71584W        W39947  40.053  22.538   4.601
71585W        W39948  44.413  42.527  14.920
71586W        W39949   6.716   2.844  14.449
71587W        W39950   5.854  24.720  11.553
71588W        W39951  42.978  33.127   1.231
71589W        W39952  20.539   8.289   3.246
71590W        W39953   6.224   5.399   4.287
71591W        W39954  44.455  42.898  10.095
71592W        W39955   1.799  40.513  14.407
71593W        W39956  27.968  23.588  12.967
71594W        W39957  10.332  20.047  10.999
71595W        W39958  22.663  18.678  10.921
71596W        W39959  30.094   3.885   2.706
71597W        W39960  35.041  44.757  14.377
71598W        W39961  12.152  32.094   4.832
71599W        W39962   2.364  41.945  12.535
71600W        W39963  11.322  37.364   1.849
71601W        W39964  34.392  43.920   0.260
71602W        W39965  13.656  44.317  11.446
71603W        W39966  44.942  35.096   1.363
71604W        W39967  14.820  26.576   3.334
71605W        W39968  35.453  12.665  14.344
71606W        W39969   7.673  35.926  11.581
71607W        W39970  13.350  12.174  11.513
71608W        W39971  30.465   7.900  14.766
71609W        W39972   2.944  14.606   2.399
71610W        W39973  39.995  40.011  14.349
71611W        W39974   1.337  33.922   0.938
71612W        W39975  11.188   8.398  12.558
71613W        W39976  28.030   4.238  11.593
71614W        W39977   5.825  10.779   3.805
71615W        W39978  42.778  40.345  14.343
71616W        W39979  43.932  15.272   0.417
71617W        W39980   6.882  34.528   4.157
71618W        W39981  23.568  37.503   4.819
71619W        W39982  22.133  23.530  11.865
71620W        W39983  28.004  23.002   4.236
71621W        W39984  41.910   9.686  11.529
71622W        W39985  36.966  34.991  13.886
71623W        W39986  35.543  33.880   4.178
71624W        W39987  42.918  29.658   2.795
71625W        W39988  36.070   1.361   0.834
71626W        W39989  39.341  12.352   5.155
71627W        W39990  12.727   1.885  12.911
71628W        W39991  35.454  42.960  11.055
71629W        W39992  27.167   1.929  13.334
71630W        W39993  15.708  30.471   1.723
71631W        W39994  34.535  18.626  12.442
71632W        W39995  17.598  24.227   1.764
71633W        W39996  40.998  17.600   0.858
71634W        W39997  13.209  30.579  12.569
71635W        W39998  11.831  29.970  11.955
71636W        W39999  26.953  34.976  12.938
71637W        W40000  30.652  36.045  12.514
71638W        W40001   5.316  23.523  12.406
71639W        W40002  40.972  34.001   3.722
71640W        W40003  44.360  28.053   2.667
71641W        W40004   2.928  25.002  14.458
71642W        W40005   0.275  11.802  13.338
71643W        W40006  43.907  38.537  10.464
71644W        W40007   0.981  20.524  14.275
71645W        W40008  20.728  31.440  14.431
71646W        W40009  42.889   5.398  13.306
71647W        W40010  13.325   0.906   3.311
71648W        W40011   6.712  27.013   1.320
71649W        W40012   4.826  17.078   4.234
71650W        W40013  42.284  36.947  14.897
71651W        W40014  23.182  26.023  11.093
71652W        W40015  12.828  17.721   0.854
71653W        W40016  42.899  34.907   1.270
71654W        W40017  32.502  15.212   3.752
71655W        W40018  42.964  13.607   0.274
71656W        W40019  35.595  44.430   3.162
71657W        W40020   6.300  38.865   2.849
71658W        W40021  23.634  11.307  12.864
71659W        W40022   9.387   0.271  11.513
71660W        W40023  16.670   2.926   2.841
71661W        W40024   1.943   3.817   2.670
71662W        W40025  42.849  17.738   3.174
71663W        W40026  20.742  26.501   1.804
71664W        W40027   7.755   8.833   3.181
71665W        W40028  40.311  42.286   3.162
71666W        W40029  15.174  20.542  12.988
71667W        W40030  22.216   6.349   1.909
71668W        W40031  29.987  40.334   2.332
71669W        W40032  32.988  26.082   0.787
71670W        W40033  27.580  24.073  11.563
71671W        W40034   6.778  25.039  12.556
71672W        W40035  29.070  37.884   1.808
71673W        W40036   3.362  29.164  11.909
71674W        W40037  41.990  36.350  14.969
71675W        W40038  31.131  19.558  13.895
71676W        W40039  24.999  10.317   0.957
71677W        W40040   2.759  24.703  12.084
71678W        W40041  23.553  42.865  14.014
71679W        W40042  38.878   9.655   2.690
71680W        W40043  40.038  13.725  12.354
71681W        W40044  31.524  10.638   1.381
71682W        W40045  11.761  28.065  13.048
71683W        W40046  36.492  12.838  12.960
71684W        W40047  25.064  30.487  14.833
71685W        W40048  24.716  33.476   1.264
71686W        W40049  36.417  36.554  11.916
71687W        W40050  43.820  27.571   2.400
71688W        W40051   0.961   7.882   2.224
71689W        W40052  32.134  34.431  10.994
71690W        W40053  15.286  18.715  12.086
71691W        W40054  38.328  14.758   1.405
71692W        W40055  14.162   4.775  13.935
71693W        W40056  40.527  21.086  14.879
71694W        W40057  34.572   2.752  10.476
71695W        W40058   4.358  20.730  14.005
71696W        W40059  12.121  33.078   0.337
71697W        W40060  38.570  17.663  11.594
71698W        W40061  23.533  44.454   4.195
71699W        W40062  40.952   6.368  13.010
71700W        W40063   2.427  44.261   1.324
71701W        W40064  43.872  29.668  11.525
71702W        W40065   6.871  13.160   3.731
71703W        W40066  17.720  20.084  12.561
71704W        W40067  38.387  19.133  14.483
71705W        W40068  16.119   2.333  12.565
71706W        W40069  27.604   1.806   2.677
71707W        W40070  26.032   1.288   4.836
71708W        W40071   1.936   1.818  14.341
71709W        W40072  38.451  25.197   1.873
71710W        W40073  21.709   6.274   1.377
71711W        W40074   1.804  35.581  12.043
71712W        W40075  23.599  11.325   2.852
71713W        W40076  24.551  12.306   1.346
71714W        W40077   9.359  13.335   1.723
71715W        W40078   5.720  23.528  13.794
71716W        W40079  10.183   1.754   0.870
71717W        W40080  20.156  27.611  11.094
71718W        W40081  13.191  31.934  10.553
71719W        W40082   1.862  41.310  14.797
71720W        W40083  19.124  11.636   3.757
71721W        W40084  28.059  18.691  13.414
71722W        W40085  23.669   5.211  11.123
71723W        W40086  22.597  28.182  10.919
71724W        W40087   1.302   4.858  13.042
71725W        W40088   2.289  31.114  13.952
71726W        W40089  28.118  43.903  10.986
71727W        W40090  34.426  23.592  11.113
71728W        W40091   1.403  22.716  14.364
71729W        W40092  23.585  29.598  11.580
71730W        W40093  44.822  43.322   3.226
71731W        W40094  40.963  13.671  11.000
71732W        W40095  38.000   3.290  13.060
71733W        W40096  16.705  22.090   3.710
71734W        W40097  25.132  43.282  11.498
71735W        W40098  22.592  34.079  13.313
71736W        W40099   0.339  27.596   0.346
71737W        W40100   3.853  20.138   3.245
71738W        W40101  21.156  19.039   4.766
71739W        W40102   3.341  15.750   4.640
71740W        W40103  19.040  31.021   3.839
71741W        W40104  29.546   8.734   1.877
71742W        W40105  18.120   3.318  12.064
71743W        W40106  34.610   0.836   1.819
71744W        W40107  38.901   3.286   3.807
71745W        W40108  32.928  26.610  14.976
71746W        W40109  11.715  30.062  11.492
71747W        W40110   1.783  18.072  14.030
71748W        W40111  27.592  42.901  10.627
71749W        W40112   2.807  13.661   0.276
71750W        W40113  35.044  11.697  10.431
71751W        W40114  25.629  29.592  12.001
71752W        W40115  38.420  33.502   1.912
71753W        W40116  17.115  34.461  13.417
71754W        W40117   4.393  31.436  12.514
71755W        W40118  35.432  17.620   0.384
71756W        W40119   8.677  33.390  14.001
71757W        W40120  33.907  40.873   0.359
71758W        W40121  29.985  43.488  13.949
71759W        W40122  11.336  34.427   3.687
71760W        W40123  29.162   0.340   3.808
71761W        W40124   1.413  16.165   2.857
71762W        W40125  27.035  36.012  14.412
71763W        W40126  28.015  44.325   4.633
71764W        W40127  26.016  17.684  12.492
71765W        W40128   8.335   2.773  10.572
71766W        W40129  22.673   3.725   2.199
71767W        W40130  36.846  39.357   2.373
71768W        W40131  31.641   4.337  13.478
71769W        W40132  12.236  28.985   1.805
71770W        W40133  18.193  37.474   3.307
71771W        W40134   2.241  30.510   9.992
71772W        W40135  42.872  32.586   4.281
71773W        W40136  24.677  31.600  12.909
71774W        W40137  41.464  15.703  14.908
71775W        W40138  10.289  26.057   3.843
71776W        W40139  37.430  13.828  11.551
71777W        W40140  42.338   9.364  14.958
71778W        W40141  37.466  43.440  11.110
71779W        W40142  23.697  16.655   2.755
71780W        W40143  21.566   0.438   1.741
71781W        W40144   2.814  25.492  13.423
71782W        W40145   5.284  22.013  13.490
71783W        W40146  36.359   7.667  11.088
71784W        W40147  33.894  42.371  11.402
71785W        W40148  21.220   4.762   3.258
71786W        W40149   9.168  12.185  12.925
71787W        W40150  17.141  18.190   4.602
71788W        W40151  21.738  28.513   4.261
71789W        W40152  36.480  19.753   1.731
71790W        W40153  39.948  12.767  14.342
71791W        W40154  34.983   0.965  12.828
71792W        W40155   8.831  14.119  14.417
71793W        W40156  32.984  41.955   2.213
71794W        W40157  30.014  36.418  10.494
71795W        W40158  22.123   4.414  14.448
71796W        W40159  26.980  44.337  11.393
71797W        W40160  39.970  17.191   1.245
71798W        W40161  42.884  28.595  14.304
71799W        W40162  11.353  10.831  14.368
71800W        W40163  34.573  14.621  12.486
71801W        W40164  37.053   3.423  12.506
71802W        W40165  16.140  16.279  14.976
71803W        W40166   8.290  27.543   2.702
71804W        W40167  14.219   6.387   5.105
71805W        W40168   9.881  28.568  12.002
71806W        W40169  17.230  10.281  11.861
71807W        W40170  19.090  40.842  13.517
71808W        W40171  19.133  21.624   1.889
71809W        W40172   3.904  20.583  13.944
71810W        W40173   9.376  28.592   3.238
71811W        W40174  18.749   7.670   2.347
71812W        W40175  13.712   6.325   5.165
71813W        W40176  24.097   0.981   1.260
71814W        W40177   9.235  17.564   0.799
71815W        W40178  19.210  35.093   3.816
71816W        W40179  33.062  33.617  11.887
71817W        W40180  14.729  18.055   5.081
71818W        W40181   2.456  18.595  10.624
71819W        W40182  28.630  17.293  12.898
71820W        W40183  30.052  41.813  10.448
71821W        W40184  25.706  14.270   1.800
71822W        W40185  13.740  35.061  11.036
71823W        W40186   5.393  26.147   0.258
71824W        W40187  44.773   3.414  13.013
71825W        W40188  29.165  44.496  12.033
71826W        W40189   5.386  37.080  14.760
71827W        W40190  28.622  33.419   2.234
71828W        W40191   2.329  27.193  11.447
71829W        W40192  43.773  25.480   1.357
71830W        W40193  13.670   3.296   3.674
71831W        W40194  31.952   0.917  11.502
71832W        W40195  44.814   2.877   1.336
71833W        W40196  21.118   7.758  11.023
71834W        W40197  44.382  26.138  12.857
71835W        W40198  11.322  29.040   2.336
71836W        W40199  40.984  36.852  13.485
71837W        W40200   1.885  24.711   1.752
71838W        W40201  21.708   2.287  13.519
71839W        W40202  29.010  29.048  10.065
71840W        W40203  42.288  42.915   0.762
71841W        W40204  37.409   1.393  12.360
71842W        W40205  30.060  15.327  14.900
71843W        W40206  31.519  44.411   3.868
71844W        W40207  10.227  24.637   0.413
71845W        W40208   1.259  21.578   0.865
71846W        W40209  19.205   5.884   3.215
71847W        W40210   1.271  23.152  10.994
71848W        W40211  29.121  21.746   2.830
71849W        W40212  33.057  11.812  10.414
71850W        W40213  23.523   7.206   4.311
71851W        W40214  29.456   2.307  13.992
71852W        W40215  10.273  34.577   4.816
71853W        W40216   8.854   9.388  14.938
71854W        W40217  26.032  26.072   2.880
71855W        W40218  42.919  17.153   4.809
71856W        W40219  35.057  13.608  11.944
71857W        W40220  32.088  17.696  12.940
71858W        W40221  31.443  22.179  11.013
71859W        W40222   9.769  20.167  11.980
71860W        W40223  41.861  10.774   2.720
71861W        W40224  22.176   5.385  12.033
71862W        W40225  11.737  37.336   4.699
71863W        W40226  36.942  33.426  12.416
71864W        W40227  33.129   8.171  10.592
71865W        W40228  12.282  14.099   0.894
71866W        W40229  28.108  31.128  12.446
71867W        W40230  28.507   6.248   2.868
71868W        W40231  11.650  22.670  13.346
71869W        W40232   2.887  31.147   0.847
71870W        W40233  12.241  11.688  10.897
71871W        W40234  35.437   6.359   2.808
71872W        W40235  27.504  24.591  12.511
71873W        W40236  18.696  20.607  11.588
71874W        W40237   5.325   2.290  13.837
71875W        W40238   4.837  10.318   3.749
71876W        W40239  22.633   5.414   3.157
71877W        W40240   0.457  12.137  14.951
71878W        W40241  11.864   4.290  12.836
71879W        W40242  18.158   5.811   4.704
71880W        W40243   4.422   1.446  12.412
71881W        W40244  28.547  43.487  14.279
71882W        W40245   9.743   5.717   0.387
71883W        W40246  26.056  41.475   2.391
71884W        W40247   9.759  24.680   1.246
71885W        W40248  11.152  31.639   0.349
71886W        W40249  29.586  26.970  14.971
71887W        W40250  14.330  20.143   2.711
71888W        W40251  19.208  22.016  10.520
71889W        W40252  28.974  44.775   1.268
71890W        W40253  27.065   3.454   4.715
71891W        W40254  40.307  30.598  13.806
71892W        W40255  24.190  37.466  11.976
71893W        W40256  28.616  44.339   0.857
71894W        W40257  33.975   1.325   5.090
71895W        W40258  37.914  13.263  11.066
71896W        W40259   1.751  21.548   4.183
71897W        W40260   7.336  22.642  12.978
71898W        W40261  30.119   9.168   0.462
71899W        W40262   5.314  19.630   0.853
71900W        W40263  29.615  27.518   9.436
71901W        W40264   8.173  40.931   4.725
71902W        W40265  33.128  40.901   3.146
71903W        W40266  43.010  33.421   1.882
71904W        W40267  44.827  26.063  14.894
71905W        W40268  15.313  21.255   0.358
71906W        W40269  21.532   2.406  12.477
71907W        W40270  36.911  37.085   3.343
71908W        W40271   5.848   1.879  14.449
71909W        W40272   2.345   8.194  11.595
71910W        W40273  39.442  15.174   4.306
71911W        W40274   3.772  22.052   3.195
71912W        W40275   0.391  17.066  11.526
71913W        W40276  40.393  20.106  11.427
71914W        W40277  13.844   5.431  14.376
71915W        W40278  22.038  23.723   2.416
71916W        W40279  36.388   6.377   2.846
71917W        W40280   6.860  34.900   0.727
71918W        W40281  20.579  24.560   2.233
71919W        W40282  10.283  10.258   1.771
71920W        W40283  20.166  28.667   2.317
71921W        W40284  42.891  20.599   4.731
71922W        W40285  30.071  19.564  13.401
71923W        W40286  14.251  11.809   4.223
71924W        W40287  21.041  35.524   1.349
71925W        W40288  33.931  29.568  11.867
71926W        W40289   5.215  38.405  13.517
71927W        W40290  13.650   5.317   0.479
71928W        W40291   4.247  30.066   3.761
71929W        W40292  13.274  20.196  12.408
71930W        W40293  38.837  35.863  11.990
71931W        W40294  19.764   4.787   1.434
71932W        W40295  38.987  10.740  11.476
71933W        W40296  36.441  37.914  11.999
71934W        W40297   0.834  23.129   0.262
71935W        W40298  12.318   0.775   0.740
71936W        W40299   6.251  10.157   3.311
71937W        W40300  26.087   1.370  12.552
71938W        W40301  23.647   5.839  10.547
71939W        W40302  21.197  27.980  10.486
71940W        W40303  38.905   6.704  10.586
71941W        W40304  15.600  18.121   1.848
71942W        W40305  41.970  31.980   4.319
71943W        W40306  37.084  38.507   0.426
71944W        W40307  36.985  24.551   2.245
71945W        W40308  37.402  13.725  10.909
71946W        W40309   3.719  40.953  10.963
71947W        W40310  32.526  24.701   3.835
71948W        W40311   0.315   4.942  11.534
71949W        W40312  12.267  28.606  12.911
71950W        W40313  31.510   7.770  13.898
71951W        W40314   0.253  42.459   1.925
71952W        W40315  23.658  29.095   1.432
71953W        W40316   4.204  19.719   4.265
71954W        W40317   5.929   1.957   2.396
71955W        W40318  12.199  10.751  14.401
71956W        W40319  28.145  18.199   3.725
71957W        W40320  44.939   1.840   4.686
71958W        W40321  26.193  33.958  12.909
71959W        W40322  14.169  38.827   2.857
71960W        W40323   2.925  18.746   3.864
71961W        W40324  41.820  15.705   1.709
71962W        W40325  41.418  44.987   0.283
71963W        W40326  36.564  31.457   4.269
71964W        W40327   5.336   4.913   4.184
71965W        W40328   6.419   3.309   9.951
71966W        W40329   1.868  25.647  11.389
71967W        W40330  43.845  30.916   4.696
71968W        W40331  43.410  12.777  11.961
71969W        W40332  22.212  11.290  10.443
71970W        W40333  23.072   5.433  13.527
71971W        W40334  32.996  14.242  13.483
71972W        W40335  22.041  34.043  12.419
71973W        W40336  17.221  44.985   5.240
71974W        W40337  36.411  40.429  13.360
71975W        W40338  13.738  44.391   3.848
71976W        W40339  31.540  43.404   1.734
71977W        W40340   4.353  17.279   4.156
71978W        W40341  29.638  36.925   0.791
71979W        W40342  23.026  15.607   2.357
71980W        W40343  18.271   7.289  13.006
71981W        W40344  25.134  32.135   3.786
71982W        W40345  33.100   1.291  11.599
71983W        W40346  38.329  26.546   3.192
71984W        W40347  20.260  22.722  10.904
71985W        W40348  35.423  22.541   3.688
71986W        W40349  26.580  27.615  12.023
71987W        W40350  10.633  32.420  11.937
71988W        W40351  15.709  41.525   3.147
71989W        W40352  29.087   9.777   3.852
71990W        W40353  37.885  16.199   4.325
71991W        W40354   8.754  21.745  13.314
71992W        W40355  44.277   0.782  12.553
71993W        W40356   0.880  38.031  13.912
71994W        W40357  16.129  44.962   4.261
71995W        W40358   5.791  35.451   1.294
71996W        W40359   6.717  29.469   4.657
71997W        W40360  29.925   5.878  12.381
71998W        W40361  25.049  28.101   4.707
71999W        W40362  35.474  36.030  13.904
72000W        W40363  38.022   7.193  12.031
72001W        W40364   8.261   5.275  12.082
72002W        W40365  17.581  34.572   2.362
72003W        W40366  30.564  38.984   3.803
72004W        W40367   4.742  27.561  14.950
72005W        W40368  27.122  13.170   1.747
72006W        W40369  30.942  37.523  11.440
72007W        W40370   3.326  22.202   0.290
72008W        W40371  31.478  40.021  12.404
72009W        W40372   6.800   6.255   0.877
72010W        W40373   4.220   2.763   3.189
72011W        W40374  26.142  41.932   3.222
72012W        W40375  33.415  15.810  10.960
72013W        W40376  13.346  34.946  11.520
72014W        W40377  20.548  27.531  13.503
72015W        W40378  11.373   9.667  13.916
72016W        W40379  35.474  15.776  13.370
72017W        W40380  35.095  12.836  14.289
72018W        W40381  40.442  14.109  12.424
72019W        W40382  36.047  28.106  10.546
72020W        W40383  40.804  34.518  13.504
72021W        W40384  23.660  19.672  10.954
72022W        W40385  42.346   6.391  12.974
72023W        W40386  33.052  43.408   1.716
72024W        W40387  34.423   4.740  13.432
72025W        W40388  43.979   0.898   1.269
72026W        W40389  28.996   0.863   1.214
72027W        W40390   5.784  36.855  12.403
72028W        W40391  42.896  25.524  14.932
72029W        W40392  12.285  38.543  11.476
72030W        W40393  35.975  33.388  13.476
72031W        W40394  39.809   3.865   0.364
72032W        W40395   8.192  33.599  11.419
72033W        W40396   5.407   5.903   0.352
72034W        W40397  27.512  21.169   3.270
72035W        W40398   5.398  41.945   2.866
72036W        W40399  23.085  40.343   2.350
72037W        W40400  16.254  43.891  14.771
72038W        W40401   5.906  16.286  10.970
72039W        W40402  13.108  28.650   4.714
72040W        W40403   0.256  33.459   3.243
72041W        W40404   6.746  17.080  12.069
72042W        W40405  12.836  16.601   4.261
72043W        W40406  27.940   7.810  13.037
72044W        W40407  36.017  14.327   1.722
72045W        W40408  40.939   7.305  13.490
72046W        W40409  35.387  43.939   0.341
72047W        W40410   2.798   8.166   4.784
72048W        W40411  40.447  31.925  14.792
72049W        W40412  13.838  26.565  10.964
72050W        W40413  33.069   4.767  13.462
72051W        W40414  19.132  18.633   2.361
72052W        W40415  33.476  37.454  13.359
72053W        W40416  28.512   4.318  14.463
72054W        W40417  43.930  43.431  13.843
72055W        W40418  32.473  11.248   0.880
72056W        W40419   1.455  40.337   4.670
72057W        W40420  14.204  24.194   3.296
72058W        W40421   4.450  19.564   3.713
72059W        W40422   7.900  27.097  10.480
72060W        W40423  11.816   8.699   2.764
72061W        W40424  35.882   6.357   4.632
72062W        W40425   8.345  28.037  14.826
72063W        W40426  33.102   4.713   3.308
72064W        W40427  10.264   8.248  13.824
72065W        W40428   6.730  31.110   0.283
72066W        W40429  39.863  16.726   0.822
72067W        W40430  35.365  15.749   0.908
72068W        W40431   1.459  14.104  12.888
72069W        W40432   1.343  35.874   3.184
72070W        W40433  41.527  16.289   3.254
72071W        W40434   0.480  34.526   3.346
72072W        W40435  15.210  30.646  12.882
72073W        W40436  17.184  30.642   2.216
72074W        W40437  19.727  34.879   4.344
72075W        W40438  37.962  21.036  11.394
72076W        W40439  25.615  43.452  14.391
72077W        W40440   8.384  30.502   2.344
72078W        W40441  35.026  16.304   3.785
72079W        W40442  23.997   2.396  12.534
72080W        W40443  28.574  30.155  14.458
72081W        W40444  41.953  36.433  10.904
72082W        W40445  41.349  35.056  14.394
72083W        W40446  35.938  38.919   5.232
72084W        W40447  40.460   7.816   4.264
72085W        W40448   5.325  41.892   1.351
72086W        W40449  30.631  21.028  13.934
72087W        W40450  36.071  15.668  11.095
72088W        W40451  32.924  41.311   4.626
72089W        W40452   3.823   0.251   3.296
72090W        W40453  19.586  12.303   4.738
72091W        W40454  18.264  29.534  11.905
72092W        W40455   1.379  15.817  10.507
72093W        W40456  31.034  30.441   5.789
72094W        W40457  28.010   0.423   4.215
72095W        W40458  12.616   8.341   4.808
72096W        W40459   1.335  42.296  10.504
72097W        W40460  21.203  17.245   4.749
72098W        W40461  35.042  18.055  10.486
72099W        W40462  16.625   0.763   1.796
72100W        W40463   2.788   4.361  13.384
72101W        W40464  44.914  24.143  14.829
72102W        W40465  12.668  34.961  12.888
72103W        W40466  24.055  36.508   4.815
72104W        W40467  32.913   0.792  10.027
72105W        W40468  18.687   1.864   4.252
72106W        W40469  22.674  28.007  14.498
72107W        W40470  31.589  29.447   4.749
72108W        W40471  12.286  20.721  10.940
72109W        W40472  42.919  38.351  12.856
72110W        W40473  27.470  10.737  12.927
72111W        W40474  15.610  27.150  13.365
72112W        W40475  19.203  18.639  12.842
72113W        W40476  28.511   2.338  14.841
72114W        W40477  36.485   5.395  11.955
72115W        W40478  44.260  10.222  11.512
72116W        W40479  12.325   6.231  12.564
72117W        W40480  10.341  12.758   3.354
72118W        W40481  43.864  35.440   9.574
72119W        W40482   9.740  26.494  12.345
72120W        W40483  16.128  36.059  11.545
72121W        W40484  26.070   5.849   2.870
72122W        W40485  39.452  32.525   4.814
72123W        W40486  24.721   4.421   3.285
72124W        W40487  13.604   4.336   4.184
72125W        W40488   8.289   1.938   2.693
72126W        W40489  23.083  32.110  11.989
72127W        W40490  43.445  31.012   2.321
72128W        W40491  43.428  40.447   3.174
72129W        W40492  22.060  20.061  14.513
72130W        W40493  27.148  20.195  13.017
72131W        W40494  35.962  13.175   2.334
72132W        W40495   3.721   5.892  10.597
72133W        W40496   4.424  41.893   1.698
72134W        W40497  30.908  31.422  12.077
72135W        W40498   8.298   8.776  11.896
72136W        W40499  44.370  33.048   4.329
72137W        W40500  44.890  34.024   1.443
72138W        W40501  23.596   4.245  14.762
72139W        W40502  36.511  34.870   0.800
72140W        W40503  40.994  15.754   2.723
72141W        W40504  35.980  37.872   2.850
72142W        W40505  40.897  22.153  12.955
72143W        W40506   0.944   3.757   2.317
72144W        W40507  32.007  29.553   0.376
72145W        W40508   6.887   9.335  13.307
72146W        W40509   6.295  10.875  12.495
72147W        W40510  20.697  15.170  12.397
72148W        W40511   5.851  22.614  12.554
72149W        W40512  38.369   7.398   0.247
72150W        W40513  35.555  20.601   1.282
72151W        W40514  13.618  16.792  14.008
72152W        W40515  21.079  42.943  11.599
72153W        W40516  40.054   8.294   0.299
72154W        W40517  13.118   5.744  13.893
72155W        W40518  35.514   7.774   3.314
72156W        W40519   8.371   5.758   4.810
72157W        W40520  11.807  10.163   0.843
72158W        W40521  38.872  17.239  10.984
72159W        W40522  38.043  28.024   2.308
72160W        W40523  24.974  40.914   2.416
72161W        W40524   7.310  24.222  13.363
72162W        W40525  27.164  30.074  12.864
72163W        W40526   3.888   4.382  14.850
72164W        W40527  17.662  12.153  10.528
72165W        W40528   0.887  13.118  14.413
72166W        W40529  40.306  23.070  12.483
72167W        W40530  42.017  31.018  13.053
72168W        W40531  30.417  25.095   0.258
72169W        W40532   6.811  32.530   4.298
72170W        W40533  37.535   0.803   2.711
72171W        W40534   6.778  19.559  11.388
72172W        W40535  38.492   2.803  13.424
72173W        W40536  30.119  16.098   0.447
72174W        W40537  40.851  21.179  13.848
72175W        W40538  29.101  24.109  10.942
72176W        W40539  32.124  12.844   2.675
72177W        W40540  18.689  34.884  12.342
72178W        W40541   3.280  21.208  14.889
72179W        W40542  31.466   8.794  13.920
72180W        W40543   1.972  23.593  12.347
72181W        W40544  11.686  36.555  11.898
72182W        W40545  13.731  38.339   3.722
72183W        W40546  33.928  17.743  12.024
72184W        W40547  40.815  30.955  14.837
72185W        W40548  21.242  30.459   3.307
72186W        W40549  41.297  15.681   0.330
72187W        W40550  44.960  15.161  11.580
72188W        W40551  16.120  34.901  14.461
72189W        W40552  40.011   2.352  11.094
72190W        W40553   7.379   0.343  13.953
72191W        W40554   2.235  32.624  10.609
72192W        W40555  39.947  21.050   3.724
72193W        W40556   5.714  36.066  12.846
72194W        W40557  24.721  43.341   1.351
72195W        W40558   4.908  10.372  12.826
72196W        W40559  40.508  29.654   1.287
72197W        W40560  10.759  28.999  12.023
72198W        W40561  40.053  36.583  12.094
72199W        W40562  42.893  13.212  14.391
72200W        W40563  23.021   6.194  14.953
72201W        W40564   0.381  11.845   4.620
72202W        W40565  14.329   2.376   4.615
72203W        W40566  39.375  29.666  13.370
72204W        W40567  16.812  17.205  10.524
72205W        W40568  12.815  30.593   3.204
72206W        W40569  17.744  18.137   0.370
72207W        W40570   3.366  12.118   2.345
72208W        W40571  11.666  36.556  11.006
72209W        W40572  30.588  10.833   3.632
72210W        W40573  29.450  11.219  14.425
72211W        W40574  15.111  29.524  10.999
72212W        W40575  27.117  12.707   2.271
72213W        W40576   4.766  24.052   3.288
72214W        W40577  40.354  31.573  13.308
72215W        W40578  39.348  39.467  12.394
72216W        W40579  32.621   3.369  13.054
72217W        W40580  43.820  41.826  11.393
72218W        W40581  35.360  23.491  10.962
72219W        W40582   1.256   1.848  10.539
72220W        W40583  13.753  18.061  12.959
72221W        W40584   1.931  36.461  11.515
72222W        W40585  33.902   8.809  14.383
72223W        W40586   5.413  23.220   1.233
72224W        W40587  37.088  41.893  10.610
72225W        W40588  34.915  29.135   1.401
72226W        W40589  30.443  12.627   1.731
72227W        W40590  27.019  16.610   9.637
72228W        W40591  24.127   4.789  10.159
72229W        W40592  14.782  23.560  12.414
72230W        W40593  24.014   6.376  13.309
72231W        W40594  15.750  15.281   1.820
72232W        W40595   6.190  17.225  13.843
72233W        W40596  38.345  35.003  10.473
72234W        W40597  14.654  11.713   4.613
72235W        W40598   3.304  28.505  14.382
72236W        W40599  38.486  43.948   3.755
72237W        W40600   2.300  37.340   5.294
72238W        W40601  42.824  42.030   1.297
72239W        W40602  31.418   7.827  11.403
72240W        W40603  23.161  26.004  14.917
72241W        W40604   0.456  12.741   0.388
72242W        W40605   5.887  26.551  10.958
72243W        W40606  13.213  42.899  12.363
72244W        W40607   3.905  12.725  11.910
72245W        W40608   6.736  20.231   2.859
72246W        W40609  40.541  43.325  13.309
72247W        W40610  33.944  38.563   0.930
72248W        W40611  36.081  11.847  10.064
72249W        W40612  16.647  31.954   1.694
72250W        W40613   1.422  31.002  12.001
72251W        W40614  10.864   1.826  12.568
72252W        W40615  13.731  44.819  10.502
72253W        W40616  22.097  25.700   2.271
72254W        W40617  21.668   3.876  12.412
72255W        W40618   5.718  35.954  12.379
72256W        W40619   8.255   5.886  11.969
72257W        W40620  28.983  44.830   3.383
72258W        W40621  30.494   3.885   0.396
72259W        W40622   4.809   9.731  13.027
72260W        W40623  39.486  40.927   1.732
72261W        W40624   9.836   8.208   0.325
72262W        W40625  11.247  36.587   1.442
72263W        W40626  22.091  24.595   3.854
72264W        W40627   4.722  12.717   3.161
72265W        W40628  34.889   1.346  14.498
72266W        W40629  39.908   8.230  13.876
72267W        W40630  20.040  39.354   0.897
72268W        W40631  17.760   9.225  13.967
72269W        W40632  21.141  35.039  13.992
72270W        W40633  32.084  41.381   0.423
72271W        W40634   0.321   1.861  10.523
72272W        W40635  36.453   7.894  12.350
72273W        W40636  19.202   8.782   4.307
72274W        W40637   5.391  33.461   0.893
72275W        W40638  35.924  25.983   4.348
72276W        W40639   5.222  24.094   3.824
72277W        W40640  40.941  33.582  13.016
72278W        W40641  24.535  33.458  10.404
72279W        W40642  42.850  26.968  13.502
72280W        W40643   9.281   1.265   3.284
72281W        W40644   9.685  11.811  13.352
72282W        W40645  25.604  42.355  13.919
72283W        W40646  36.525  19.602   4.173
72284W        W40647  25.654  32.054  13.016
72285W        W40648  31.586   8.163  12.929
72286W        W40649  44.406  32.584   4.674
72287W        W40650  12.831   1.454  13.815
72288W        W40651  39.549  18.758   0.845
72289W        W40652  10.850   1.949  14.291
72290W        W40653  19.086  35.080   4.800
72291W        W40654   5.784   4.286  14.318
72292W        W40655   1.792  40.973   3.855
72293W        W40656  29.117  30.909  13.528
72294W        W40657  10.721  35.476   1.431
72295W        W40658  42.384  35.417  10.103
72296W        W40659  39.845  42.873  13.428
72297W        W40660   8.207  23.164  11.543
72298W        W40661  26.608  28.604   0.944
72299W        W40662  41.393   1.922  11.913
72300W        W40663  27.143  33.518  13.885
72301W        W40664   1.799   1.846   0.447
72302W        W40665  44.458   0.966   2.898
72303W        W40666  33.907  44.970  10.469
72304W        W40667  37.859   1.931   5.143
72305W        W40668  16.316  31.024   0.897
72306W        W40669  12.749  26.585   3.845
72307W        W40670   6.727  37.475  10.643
72308W        W40671  12.275  29.002  13.420
72309W        W40672  29.001  21.642  11.107
72310W        W40673  37.980  29.134  10.633
72311W        W40674  33.621  25.485   4.181
72312W        W40675   3.437   6.337   3.163
72313W        W40676  30.445  24.043   2.336
72314W        W40677   8.895  31.549  13.432
72315W        W40678  35.396  24.132   1.444
72316W        W40679  44.920  15.728   1.699
72317W        W40680  27.541  42.908   2.743
72318W        W40681  10.351   2.365  11.610
72319W        W40682  25.502  29.041   4.192
72320W        W40683  19.125  34.030   2.271
72321W        W40684  18.681  32.902   3.269
72322W        W40685  35.924  11.254  10.139
72323W        W40686  34.480  31.946   2.293
72324W        W40687  21.121  23.213   2.858
72325W        W40688  31.069  27.178   2.316
72326W        W40689  29.017  20.753  12.954
72327W        W40690  17.231  17.766   5.608
72328W        W40691  19.574  27.002   0.814
72329W        W40692  27.042   7.349  11.887
72330W        W40693  16.707  32.613  10.490
72331W        W40694   7.840   3.353  10.500
72332W        W40695  39.908  10.322  13.437
72333W        W40696   3.830  24.047   2.858
72334W        W40697  36.349  15.631   2.873
72335W        W40698  23.144  18.785   0.841
72336W        W40699  36.882   1.804   1.396
72337W        W40700  40.439   2.747   4.787
72338W        W40701   6.907  40.347  10.523
72339W        W40702  19.070  23.101   4.240
72340W        W40703  39.343   9.257   1.880
72341W        W40704   3.409  41.964  10.407
72342W        W40705  41.391  35.449  13.396
72343W        W40706  19.188   9.745   2.302
72344W        W40707   4.421  15.244  12.418
72345W        W40708  25.120  34.908   3.152
72346W        W40709  19.101  33.067   4.718
72347W        W40710  21.181   8.231  10.936
72348W        W40711  11.854  43.406   2.320
72349W        W40712  37.975   3.835   4.714
72350W        W40713  16.661  33.068  11.390
72351W        W40714   7.181  42.933  12.911
72352W        W40715  44.976  34.540  12.023
72353W        W40716  28.076  38.446  11.414
72354W        W40717  29.161  11.335  11.961
72355W        W40718  36.385  15.743   1.223
72356W        W40719   8.318   9.872   3.168
72357W        W40720  44.939  11.657   4.762
72358W        W40721  27.025  21.251   1.436
72359W        W40722  36.055  16.696   2.791
72360W        W40723  30.067  19.713  12.494
72361W        W40724   0.973  36.421   0.847
72362W        W40725  28.594  11.203   0.377
72363W        W40726   3.327   0.281  11.438
72364W        W40727  38.920  40.342   5.178
72365W        W40728  23.721   5.280  14.771
72366W        W40729  31.902  34.973  14.510
72367W        W40730  10.349   4.840  13.420
72368W        W40731  20.708  29.628  13.469
72369W        W40732  20.033   9.691  13.884
72370W        W40733  41.510   2.766   1.931
72371W        W40734  29.656  39.368  13.989
72372W        W40735   8.402  28.480  10.507
72373W        W40736  28.519   2.375   4.753
72374W        W40737  29.609  37.968  14.513
72375W        W40738  10.217  31.405  14.432
72376W        W40739  36.441  44.452  14.501
72377W        W40740   8.351  36.469   0.944
72378W        W40741  29.143  15.138   4.330
72379W        W40742  27.506  36.382  10.641
72380W        W40743  29.932  35.914   1.254
72381W        W40744  38.044  18.252  10.412
72382W        W40745  43.422  28.562  13.540
72383W        W40746  25.162  15.232   3.259
72384W        W40747  11.159  40.002  12.507
72385W        W40748  30.524  29.078   1.869
72386W        W40749  16.124  31.946   1.879
72387W        W40750  23.057  13.646   0.333
72388W        W40751  28.949  21.032  11.058
72389W        W40752   6.285   6.264  14.457
72390W        W40753  33.598  38.923   1.934
72391W        W40754  15.741  33.984  12.400
72392W        W40755   1.452  38.541  14.305
72393W        W40756  39.364  36.091   0.392
72394W        W40757  34.096  27.940   3.831
72395W        W40758  40.027   7.906  12.553
72396W        W40759   6.324   2.949  14.458
72397W        W40760   7.747   4.876   0.961
72398W        W40761  11.328  10.229   4.789
72399W        W40762  42.345   7.881  14.430
72400W        W40763  41.362  20.204  10.939
72401W        W40764  41.846  31.928  10.565
72402W        W40765  39.446  22.178   2.712
72403W        W40766  37.873  37.379   2.344
72404W        W40767  41.445  33.972   1.913
72405W        W40768  18.196  37.374   1.880
72406W        W40769  30.154  21.517  12.842
72407W        W40770  33.013  20.769  12.427
72408W        W40771  21.565   7.866   2.309
72409W        W40772   2.425  15.784   3.303
72410W        W40773  22.603  12.326   2.282
72411W        W40774  15.578  10.693   1.384
72412W        W40775  13.653  39.507  10.903
72413W        W40776  35.056   3.400   2.732
72414W        W40777  26.519  43.990   4.774
72415W        W40778   0.289  10.329  11.088
72416W        W40779   2.385  11.777   0.834
72417W        W40780  10.806  12.721  13.424
72418W        W40781   8.760  12.726  12.889
72419W        W40782  11.225  15.311   2.382
72420W        W40783   1.946  20.260   2.327
72421W        W40784  39.855  14.828   1.813
72422W        W40785  37.441  30.657   0.947
72423W        W40786  30.577   2.964  13.415
72424W        W40787   9.363   6.854   1.449
72425W        W40788  19.083  31.985  13.956
72426W        W40789  24.125  28.973   1.931
72427W        W40790   2.425  40.973  14.880
72428W        W40791  15.118  35.896  10.908
72429W        W40792  12.140  20.675   0.285
72430W        W40793   2.429   0.310   3.714
72431W        W40794   4.388  43.308  13.436
72432W        W40795  12.724  23.712  12.346
72433W        W40796  20.523  26.051  12.448
72434W        W40797   7.369  10.875   3.332
72435W        W40798  37.460  37.388  14.810
72436W        W40799  15.204  13.238   4.187
72437W        W40800   9.193   3.397  12.349
72438W        W40801   7.796   6.845   2.868
72439W        W40802  42.446  11.626   1.841
72440W        W40803  37.351  18.570   5.240
72441W        W40804  32.044  29.135  11.958
72442W        W40805  17.120  27.691  13.984
72443W        W40806  22.729  27.533  13.908
72444W        W40807  44.805   3.347   1.304
72445W        W40808  42.515  21.545   2.310
72446W        W40809   6.258  12.784   4.716
72447W        W40810  26.492   4.296  14.933
72448W        W40811   9.876  44.454  13.853
72449W        W40812  22.246  24.563  11.075
72450W        W40813  34.045  11.764  14.787
72451W        W40814  22.121   4.747   0.866
72452W        W40815   4.835  40.939   2.344
72453W        W40816  15.818  15.757   3.747
72454W        W40817   1.735  15.632   2.677
72455W        W40818  30.454   0.395  12.351
72456W        W40819  40.389  21.673   4.602
72457W        W40820   9.809  31.903   9.956
72458W        W40821  17.706  38.353   4.265
72459W        W40822  19.049  27.974   4.231
72460W        W40823   3.780   6.245   1.712
72461W        W40824  23.219  44.915  14.433
72462W        W40825  14.189  35.425  14.023
72463W        W40826   1.359   7.343   0.862
72464W        W40827  24.068   5.826   3.800
72465W        W40828   2.756  26.644  12.862
72466W        W40829   3.939   4.882   0.439
72467W        W40830  40.929  25.486  14.891
72468W        W40831  29.666  33.903  13.843
72469W        W40832  34.369  14.273   4.191
72470W        W40833  25.631  15.090  13.361
72471W        W40834  16.089  26.686  13.430
72472W        W40835  38.932  26.035   4.345
72473W        W40836   5.886  27.686   4.707
72474W        W40837  41.501  11.695   2.409
72475W        W40838  39.907  15.728  11.438
72476W        W40839   3.381  21.166   0.783
72477W        W40840  36.389  25.148  12.366
72478W        W40841  30.414   1.283  12.926
72479W        W40842  44.906  12.308   4.637
72480W        W40843  17.615   4.789  12.571
72481W        W40844  37.854  25.704   2.897
72482W        W40845  33.504  28.167   3.638
72483W        W40846  16.595  20.561  12.015
72484W        W40847  35.862  14.820  14.012
72485W        W40848   2.949  35.599  13.915
72486W        W40849   0.889  10.702   0.387
72487W        W40850  27.652   6.744  12.023
72488W        W40851  39.452  41.405  10.486
72489W        W40852  34.871   8.405  13.347
72490W        W40853  10.719  32.548   1.749
72491W        W40854  24.483  28.539  14.771
72492W        W40855  26.605  30.622  14.884
72493W        W40856  29.471  23.640  14.927
72494W        W40857  34.909  30.509   5.130
72495W        W40858  21.535  26.694  13.986
72496W        W40859  19.167  13.638   4.260
72497W        W40860  30.014  44.885  11.466
72498W        W40861  12.664  36.041   2.878
72499W        W40862  25.097  21.591   1.775
72500W        W40863  40.005  27.563   4.120
72501W        W40864  10.633  11.745   0.964
72502W        W40865  37.403  31.495  14.904
72503W        W40866  29.521   1.969  13.825
72504W        W40867  39.036  13.241   2.742
72505W        W40868  11.226  33.416  14.285
72506W        W40869  30.029  42.920  11.542
72507W        W40870  15.619   3.319  12.043
72508W        W40871   4.716  18.560  14.912
72509W        W40872  39.560  39.406   0.265
72510W        W40873  11.301  27.175   2.882
72511W        W40874  29.028  34.941  14.363
72512W        W40875  19.628  16.157  14.906
72513W        W40876   0.490  11.368   4.163
72514W        W40877   9.775  16.666  14.828
72515W        W40878  16.640   8.172  12.917
72516W        W40879  33.501   7.666   3.275
72517W        W40880   0.965  36.850  13.829
72518W        W40881  20.271  36.522  10.527
72519W        W40882  12.625  22.198   2.338
72520W        W40883  18.296  25.976  14.441
72521W        W40884  40.401  29.170   1.431
72522W        W40885   2.748  40.883   4.631
72523W        W40886   8.842   7.172   1.308
72524W        W40887  28.947   4.275  14.373
72525W        W40888  33.506  41.453   4.307
72526W        W40889  29.429  38.975  11.879
72527W        W40890   1.931  43.892   4.838
72528W        W40891  28.572  37.004   2.885
72529W        W40892  39.992   3.923  12.898
72530W        W40893  33.471  30.545   9.936
72531W        W40894  15.316  17.725   4.186
72532W        W40895  21.027  34.460   1.420
72533W        W40896  24.992  22.073   3.189
72534W        W40897  10.186   9.286  14.995
72535W        W40898  38.436  27.682  11.089
72536W        W40899  29.651  20.754  13.939
72537W        W40900  36.066  12.180  10.450
72538W        W40901   7.387   0.804  14.825
72539W        W40902  16.653   5.747   3.181
72540W        W40903  30.460  17.307  11.906
72541W        W40904  17.122  12.692  13.484
72542W        W40905  28.554  28.481  14.317
72543W        W40906   8.169  15.579  10.603
72544W        W40907   5.265  11.787  13.540
72545W        W40908   8.862  13.705   2.239
72546W        W40909   3.401  29.982  13.943
72547W        W40910  37.485  41.849   3.692
72548W        W40911  20.209  34.546  10.430
72549W        W40912  22.203  24.196   1.703
72550W        W40913  42.400  19.600  12.051
72551W        W40914  26.530  13.195  11.928
72552W        W40915   8.350  38.473  13.318
72553W        W40916  39.395  14.176   5.197
72554W        W40917  44.970  24.161   2.664
72555W        W40918  33.602  37.420  14.957
72556W        W40919  17.286   6.416   4.616
72557W        W40920  32.520  26.088  11.045
72558W        W40921  42.775  12.788   1.914
72559W        W40922  17.626   6.358  14.946
72560W        W40923  28.055   8.225   0.301
72561W        W40924  32.088  12.335  12.478
72562W        W40925   4.442   9.758   2.743
72563W        W40926  12.333  24.081   2.208
72564W        W40927  36.870  42.397   3.803
72565W        W40928  39.418  17.661   0.797
72566W        W40929  19.702  34.417   0.257
72567W        W40930  42.820  17.195   3.729
72568W        W40931  11.793  44.482   4.200
72569W        W40932  17.696   3.286  14.976
72570W        W40933  22.665  16.133   4.786
72571W        W40934  42.019  35.075   2.741
72572W        W40935  40.475  40.347   0.278
72573W        W40936   6.857  11.789   0.338
72574W        W40937  44.274  41.479   2.332
72575W        W40938  13.809   1.953   2.774
72576W        W40939  11.189   0.800  14.336
72577W        W40940  28.480   7.198  12.824
72578W        W40941   3.355   0.446   9.964
72579W        W40942  19.261  30.971  11.957
72580W        W40943  23.544  37.412  14.408
72581W        W40944   4.381  33.016   2.210
72582W        W40945  18.660  19.719   2.194
72583W        W40946  31.505  14.187   2.369
72584W        W40947   5.706  33.532   1.910
72585W        W40948  40.919  43.964   1.753
72586W        W40949  17.139  31.049  10.634
72587W        W40950   5.291  12.147  10.964
72588W        W40951   5.745   5.284  12.862
72589W        W40952  19.679  13.672  11.611
72590W        W40953  33.112  37.950   4.128
72591W        W40954  11.732  39.531   0.418
72592W        W40955  21.021  37.975  11.026
72593W        W40956  18.679  12.211  13.030
72594W        W40957   2.419  18.248  10.902
72595W        W40958  27.607  11.758  10.493
72596W        W40959   3.264  17.112   0.760
72597W        W40960  40.031  33.624   3.669
72598W        W40961  24.495  18.629   3.760
72599W        W40962  37.916  29.041  12.089
72600W        W40963  34.376  41.491  10.932
72601W        W40964  10.672  24.203   2.679
72602W        W40965  35.055  18.099   0.309
72603W        W40966   4.311  23.088  10.444
72604W        W40967  33.111  42.926  11.378
72605W        W40968  29.464  15.180  12.531
72606W        W40969  43.978  39.978  11.989
72607W        W40970  12.798   4.366   3.209
72608W        W40971  30.954  24.633   3.223
72609W        W40972  25.712  13.669  13.462
72610W        W40973  43.849  27.084  13.965
72611W        W40974  24.713  14.684   4.335
72612W        W40975  41.357  30.081   2.403
72613W        W40976  40.966  38.015  12.513
72614W        W40977   8.337  16.720   2.872
72615W        W40978  16.311  19.619  11.557
72616W        W40979  29.639   2.900  11.610
72617W        W40980  35.554  43.827   3.222
72618W        W40981  34.967  37.908  11.400
72619W        W40982   8.169  18.781   2.312
72620W        W40983  26.044   7.849   4.178
72621W        W40984  42.838   6.836   4.828
72622W        W40985   7.292  10.711   0.481
72623W        W40986   5.930  42.484  11.453
72624W        W40987  37.028  10.351   0.404
72625W        W40988  29.012  36.397  12.005
72626W        W40989  17.644  28.665  12.015
72627W        W40990  18.078  11.850  13.816
72628W        W40991  20.653  34.408   1.269
72629W        W40992  15.245   4.787   0.393
72630W        W40993  31.604   7.340   3.283
72631W        W40994  17.162  18.173  10.491
72632W        W40995  10.833  18.619  14.796
72633W        W40996  15.809   6.196  14.440
72634W        W40997  29.496  30.099   4.728
72635W        W40998  18.078  18.716  11.931
72636W        W40999  39.900   6.859  13.524
72637W        W41000  32.494  25.548   1.343
72638W        W41001  23.710  41.386  14.812
72639W        W41002  13.770   7.384   2.361
72640W        W41003   8.812  15.671  11.541
72641W        W41004   5.722   1.254   3.821
72642W        W41005  41.428   0.843  14.916
72643W        W41006  35.444  18.077  13.389
72644W        W41007  32.012   9.728  11.079
72645W        W41008  26.545  16.121   2.710
72646W        W41009  40.427  36.983   0.334
72647W        W41010  27.539  44.955  14.966
72648W        W41011   8.218  24.061   2.326
72649W        W41012  20.767   4.920  11.574
72650W        W41013  18.184  26.617   4.239
72651W        W41014  28.149  23.725   2.270
72652W        W41015   7.865  22.065   2.667
72653W        W41016  37.941   9.288   4.689
72654W        W41017  30.913   7.405  12.472
72655W        W41018  11.724   6.238   5.292
72656W        W41019  31.965  34.574  13.959
72657W        W41020  17.752  15.175   0.434
72658W        W41021   5.835  41.406  12.999
72659W        W41022  10.143   7.709   5.290
72660W        W41023  22.563  34.903  11.946
72661W        W41024   5.884  20.050  11.000
72662W        W41025  41.884  43.424   4.615
72663W        W41026  11.165  26.661  10.953
72664W        W41027   9.721   2.393  14.322
72665W        W41028   3.373  19.710   4.270
72666W        W41029  10.668   1.971   2.266
72667W        W41030  24.176  26.509  14.444
72668W        W41031  12.643   6.225  12.931
72669W        W41032  13.789   9.747  12.935
72670W        W41033   4.783   8.667   1.767
72671W        W41034   9.646   5.364  14.907
72672W        W41035  24.718  10.195   4.790
72673W        W41036  38.536  32.570  14.025
72674W        W41037  31.538  16.173  11.091
72675W        W41038  33.530  38.385  14.805
72676W        W41039  37.897  35.906   1.827
72677W        W41040  34.574  35.532  14.979
72678W        W41041  36.996   0.896  10.472
72679W        W41042  38.036  21.047   4.292
72680W        W41043   7.262  20.528  12.527
72681W        W41044  16.143  29.170   0.749
72682W        W41045  25.560   2.901   4.172
72683W        W41046  41.326  28.508   0.767
72684W        W41047  35.390  27.623   1.211
72685W        W41048   4.231  29.025  12.852
72686W        W41049  20.260  28.173   1.714
72687W        W41050  31.993   2.414   1.345
72688W        W41051  13.707  28.135  13.411
72689W        W41052   3.755  16.588  12.858
72690W        W41053  28.176   9.795  10.123
72691W        W41054  39.878  31.092   4.651
72692W        W41055  12.692   7.770  10.942
72693W        W41056  28.039  12.171   1.440
72694W        W41057  37.350  12.645   4.828
72695W        W41058  34.979  15.776   4.627
72696W        W41059  23.022  34.529  14.478
72697W        W41060   7.379  44.800  14.797
72698W        W41061  43.374  18.090   1.377
72699W        W41062  28.525  31.622  11.414
72700W        W41063   7.352  27.076  11.935
72701W        W41064  40.409  14.192   9.966
72702W        W41065  36.521   2.462  12.442
72703W        W41066  15.615  33.406  14.498
72704W        W41067  37.994   3.803  14.992
72705W        W41068  27.088  12.785   0.793
72706W        W41069   0.307  27.651   2.214
72707W        W41070   6.770  41.459   4.631
72708W        W41071  27.643  28.584  11.529
72709W        W41072  40.908  20.062  14.473
72710W        W41073  14.740  17.605  12.028
72711W        W41074  35.596  37.845   4.608
72712W        W41075   3.389  40.012   4.815
72713W        W41076  13.722   8.831  11.397
72714W        W41077  30.485  13.772  13.869
72715W        W41078  21.027  41.456   0.846
72716W        W41079  15.811  11.271  11.989
72717W        W41080  23.109  25.088   1.318
72718W        W41081   6.250  39.438   0.900
72719W        W41082  35.514  27.050  10.576
72720W        W41083  34.078  23.646  11.525
72721W        W41084  20.742  28.592   2.778
72722W        W41085  41.895   5.420  11.605
72723W        W41086  17.728  40.377   3.211
72724W        W41087  44.843  32.944  14.286
72725W        W41088  15.604  12.790  10.089
72726W        W41089  14.327  25.031  14.764
72727W        W41090   8.753  13.707   3.346
72728W        W41091  32.960  31.641   0.738
72729W        W41092  16.715   4.422   3.281
72730W        W41093   1.394  27.052   3.787
72731W        W41094  26.123  44.450   3.713
72732W        W41095  26.542  30.150   3.691
72733W        W41096   8.359  37.843  10.591
72734W        W41097  37.936  29.654   2.744
72735W        W41098  36.977   1.307  12.446
72736W        W41099   0.752  31.481  10.956
72737W        W41100  36.588   1.354  14.926
72738W        W41101  31.095  26.554  11.032
72739W        W41102  37.538  34.881   0.383
72740W        W41103  33.894  33.953   2.675
72741W        W41104  33.536  36.853   3.844
72742W        W41105  30.498   4.707  10.998
72743W        W41106  12.244  21.751   3.750
72744W        W41107  25.175  25.037  13.404
72745W        W41108   7.326  13.266   1.386
72746W        W41109   6.703  44.299  12.988
72747W        W41110  17.745  29.490   0.752
72748W        W41111  33.042   2.805  10.576
72749W        W41112   1.371  28.511  12.853
72750W        W41113   2.424   8.682  14.497
72751W        W41114  40.806  25.473  11.050
72752W        W41115  34.553   0.424  10.527
72753W        W41116  31.451  19.274   4.830
72754W        W41117   4.777  28.661  14.910
72755W        W41118   8.395  20.237   1.256
72756W        W41119  22.515  21.581   4.182
72757W        W41120   0.416  34.515   4.222
72758W        W41121  39.314  40.003   4.781
72759W        W41122  23.206  27.122   0.280
72760W        W41123  14.286  44.915  13.849
72761W        W41124  42.991  40.421   3.787
72762W        W41125  21.710  10.661  12.443
72763W        W41126  13.846  30.028  11.984
72764W        W41127   2.912   7.836  14.804
72765W        W41128  25.565  21.670  10.479
72766W        W41129  23.049  12.813  12.507
72767W        W41130   2.788  33.109   0.741
72768W        W41131  44.854  33.027   4.340
72769W        W41132   4.850  22.231  13.008
72770W        W41133  25.175   4.273  14.359
72771W        W41134  19.210  15.746   2.867
72772W        W41135   4.242   4.917   2.229
72773W        W41136  42.315  29.537  11.564
72774W        W41137  19.660   0.293   0.752
72775W        W41138  22.222  14.306   4.171
72776W        W41139  13.750   8.406   3.242
72777W        W41140   4.824  18.213  14.337
72778W        W41141  28.570  22.533  14.966
72779W        W41142  24.645  42.876  10.577
72780W        W41143  32.023  43.364   2.750
72781W        W41144  14.285   7.207  10.900
72782W        W41145   2.231  10.363  12.851
72783W        W41146   2.877   8.697  13.887
72784W        W41147  38.874  10.328   2.667
72785W        W41148  31.103  19.730  12.428
72786W        W41149  28.540   3.859  11.476
72787W        W41150  44.311  44.753  14.949
72788W        W41151  33.049   3.804  12.443
72789W        W41152  17.790  31.630   3.849
72790W        W41153  12.691   0.944   1.389
72791W        W41154  44.367  26.175   4.340
72792W        W41155   8.887  13.109   3.742
72793W        W41156  41.797   0.751   0.266
72794W        W41157  16.775   5.827  12.463
72795W        W41158  11.626  19.584   2.296
72796W        W41159   3.782  26.086  12.006
72797W        W41160   2.288  36.022  11.895
72798W        W41161  18.136  25.709   2.302
72799W        W41162  38.467  18.673  12.023
72800W        W41163   5.373   6.388  12.061
72801W        W41164  25.632  33.599   1.811
72802W        W41165  27.171  30.504  10.461
72803W        W41166  42.812   7.334  13.040
72804W        W41167  26.012  21.053   1.406
72805W        W41168  28.103  19.570  13.832
72806W        W41169   0.760  28.538  13.855
72807W        W41170   1.741  26.201  11.989
72808W        W41171  36.381   2.776  12.947
72809W        W41172  22.197   5.750   4.759
72810W        W41173  32.944  29.052  14.761
72811W        W41174  30.113   0.377  11.856
72812W        W41175  21.719  20.160  11.579
72813W        W41176  29.520  34.090   3.377
72814W        W41177  32.917  36.443  12.415
72815W        W41178  19.677  35.926   2.196
72816W        W41179  23.991  18.701   2.673
72817W        W41180  41.347  34.559  12.000
72818W        W41181  27.943  31.027  14.363
72819W        W41182  39.400   4.942  10.643
72820W        W41183  26.643  14.098  14.492
72821W        W41184  43.467  19.222  10.504
72822W        W41185  34.120  23.714   1.240
72823W        W41186  11.139  10.346   2.888
72824W        W41187  18.239  12.759  14.367
72825W        W41188  22.169  39.320  12.568
72826W        W41189  43.022  30.985   0.847
72827W        W41190  13.735  17.145   3.270
72828W        W41191  14.236   9.819   2.879
72829W        W41192  35.886  36.900  12.927
72830W        W41193  20.273  38.891   3.803
72831W        W41194  24.683  20.090  14.821
72832W        W41195  14.595  26.525   3.752
72833W        W41196   7.752  17.581   0.384
72834W        W41197  33.042   2.757  14.016
72835W        W41198  18.099  15.693   4.737
72836W        W41199  32.087  19.551  14.281
72837W        W41200  31.478  24.578   3.227
72838W        W41201  32.965   7.313   1.746
72839W        W41202   4.847  36.032  11.127
72840W        W41203   9.790   8.283   1.710
72841W        W41204   7.277  26.096   2.679
72842W        W41205  23.054  28.478  11.603
72843W        W41206  26.517  30.990  11.418
72844W        W41207  42.785  40.871  11.908
72845W        W41208  13.649  13.791  10.590
72846W        W41209  30.961  26.496   3.799
72847W        W41210  12.125  27.466  14.494
72848W        W41211  44.793  20.187   4.218
72849W        W41212  42.457   1.866   3.847
72850W        W41213  41.404  41.416  11.540
72851W        W41214  22.182  27.511  12.516
72852W        W41215  37.848  16.105  11.580
72853W        W41216  16.602  42.923   2.182
72854W        W41217  29.491  12.835   3.240
72855W        W41218  37.918   7.293  12.825
72856W        W41219  38.376  28.076   0.311
72857W        W41220  33.011  42.316   1.919
72858W        W41221  13.842  36.453  10.599
72859W        W41222  15.703  29.490   2.291
72860W        W41223  34.906  31.143   2.209
72861W        W41224   8.247   3.916   1.748
72862W        W41225  34.426  29.626  14.337
72863W        W41226  21.260  12.246  11.415
72864W        W41227  20.758  18.296  13.883
72865W        W41228  42.305   3.369   2.796
72866W        W41229  39.367   4.234   1.438
72867W        W41230  23.082  37.438  11.399
72868W        W41231   8.768  43.293  11.497
72869W        W41232  17.171   2.916   0.831
72870W        W41233  22.731  34.374  10.985
72871W        W41234  26.048  24.650   4.757
72872W        W41235  33.048  31.940  11.536
72873W        W41236  24.722  28.536   2.246
72874W        W41237  24.169  14.605  11.405
72875W        W41238  13.239  44.982   0.438
72876W        W41239  29.637  31.475  14.778
72877W        W41240   6.872   5.308   4.203
72878W        W41241  36.560  44.409  12.096
72879W        W41242   7.347   3.420  13.056
72880W        W41243  26.056  17.165   0.357
72881W        W41244  16.680  27.046   1.756
72882W        W41245   9.654   8.770  14.863
72883W        W41246  23.230  30.006   4.765
72884W        W41247  27.004  24.041  11.530
72885W        W41248  22.697  41.932  13.937
72886W        W41249  13.279   3.929   3.692
72887W        W41250  41.437  32.921  11.990
72888W        W41251  25.054   9.283   3.867
72889W        W41252   3.265  15.725   5.255
72890W        W41253  38.848  28.663  14.769
72891W        W41254  41.924   6.784  12.465
72892W        W41255   1.948  43.815  13.916
72893W        W41256   5.736   2.725   0.400
72894W        W41257  15.714  29.665   0.923
72895W        W41258   6.205   7.182  13.876
72896W        W41259  14.273  30.915   2.743
72897W        W41260  35.468   1.973   0.432
72898W        W41261  39.532  44.908   3.263
72899W        W41262  25.095  29.166   3.309
72900W        W41263   5.892   9.337  10.538
72901W        W41264  28.946  14.237   5.239
72902W        W41265  15.680   4.910  13.876
72903W        W41266  19.255   9.202   4.614
72904W        W41267  31.118  33.074  13.448
72905W        W41268  25.085  41.443   2.811
72906W        W41269  14.609   3.854   1.931
72907W        W41270   5.425  23.990  13.337
72908W        W41271  26.011  26.061  13.355
72909W        W41272  41.361   4.720   3.274
72910W        W41273   8.402   4.822  12.073
72911W        W41274  44.847  24.060   0.267
72912W        W41275   3.720  44.316   0.791
72913W        W41276  39.878  17.278  11.022
72914W        W41277  35.069  26.495   2.223
72915W        W41278  21.241  24.588  12.397
72916W        W41279  25.573  38.520   2.328
72917W        W41280   0.973  17.707  12.487
72918W        W41281   2.233  39.523   2.226
72919W        W41282  42.980  24.595   1.432
72920W        W41283   2.955  33.942  11.856
72921W        W41284   0.450  13.816  10.581
72922W        W41285  43.947   5.261   2.220
72923W        W41286  30.061  29.437   1.234
72924W        W41287  17.126  40.824  11.939
72925W        W41288  35.896  37.834   0.842
72926W        W41289  36.468  42.315   0.964
72927W        W41290  26.469  44.784  10.520
72928W        W41291  11.236  16.120  13.386
72929W        W41292  18.603  41.889  13.346
72930W        W41293  10.667  10.667   3.225
72931W        W41294   2.264  23.112   3.749
72932W        W41295   9.266  14.789   2.274
72933W        W41296  23.517  15.716   2.843
72934W        W41297  32.600  18.191   4.319
72935W        W41298  12.245   8.162   0.325
72936W        W41299  32.579  19.744  13.510
72937W        W41300  13.605   8.271   2.677
72938W        W41301  25.533   4.701  14.387
72939W        W41302   1.876  38.980   1.254
72940W        W41303  16.218   1.397  14.435
72941W        W41304  16.691   7.219  14.438
72942W        W41305  26.172  17.691   3.804
72943W        W41306  39.411  40.340   3.254
72944W        W41307   4.870  20.061   3.298
72945W        W41308  28.654   4.779   1.797
72946W        W41309  33.129  22.125   3.784
72947W        W41310  13.707   8.661  11.021
72948W        W41311   8.364   7.760  10.455
72949W        W41312  19.152  22.235  10.894
72950W        W41313  34.900  43.890   0.790
72951W        W41314  18.615   5.766  11.978
72952W        W41315  25.601  11.834  11.465
72953W        W41316  35.860   2.228  13.372
72954W        W41317  12.255  20.663  13.838
72955W        W41318   3.803  41.515   3.859
72956W        W41319  30.101  23.009   3.812
72957W        W41320  16.248  37.410   4.296
72958W        W41321   1.376  44.882  10.984
72959W        W41322   7.766  33.064   3.838
72960W        W41323  38.996  26.019  10.560
72961W        W41324  12.618   2.876   0.769
72962W        W41325  32.060  22.703   1.313
72963W        W41326  26.569  38.871  10.564
72964W        W41327  38.431  21.154   2.735
72965W        W41328   6.403  19.275   3.151
72966W        W41329  16.757  20.621   1.886
72967W        W41330  32.602  28.590   1.830
72968W        W41331  43.844  29.152   0.809
72969W        W41332  36.002  19.688  12.386
72970W        W41333   9.225  26.488   2.791
72971W        W41334  17.247  22.580  11.001
72972W        W41335  40.870   7.810  10.592
72973W        W41336  17.555   4.395  14.018
72974W        W41337  37.037  34.068   1.722
72975W        W41338  16.304  21.059  14.965
72976W        W41339  26.669  44.879   2.754
72977W        W41340   1.928  24.018   1.419
72978W        W41341  30.074   6.335  11.933
72979W        W41342  24.491   9.750  13.336
72980W        W41343  31.017  25.200  11.896
72981W        W41344   2.815  12.767   4.131
72982W        W41345  13.316   4.232   1.788
72983W        W41346  32.460  15.321  11.055
72984W        W41347  11.231  13.134   3.263
72985W        W41348  29.119  24.696  10.444
72986W        W41349  22.658  18.670   1.712
72987W        W41350  18.644   7.771  11.598
72988W        W41351  13.843  23.697   2.406
72989W        W41352  17.583  27.022   2.806
72990W        W41353  40.947  17.066   1.736
72991W        W41354  24.156  26.688  10.443
72992W        W41355  43.930  40.549  10.921
72993W        W41356  33.878   3.345  11.999
72994W        W41357   2.290  32.061   1.265
72995W        W41358  35.010  14.815  14.030
72996W        W41359  14.735  12.301  14.411
72997W        W41360   1.978  15.600   0.809
72998W        W41361  27.598  43.489  12.364
72999W        W41362   2.964  26.123  11.536
73000W        W41363  39.928  22.532   2.833
73001W        W41364  32.135  32.894  13.444
73002W        W41365  41.007  31.120  11.930
73003W        W41366  35.040   4.801  11.113
73004W        W41367  22.044  14.695  12.366
73005W        W41368   4.450  30.605  10.945
73006W        W41369  22.651  32.514  14.891
73007W        W41370  44.928  18.616  11.081
73008W        W41371  10.169  39.496  12.530
73009W        W41372  13.213  22.009   0.408
73010W        W41373  36.477  37.417   3.148
73011W        W41374   7.328  13.319   3.742
73012W        W41375  20.551  15.641   2.215
73013W        W41376  34.899   2.283  10.531
73014W        W41377  44.899  31.633   4.813
73015W        W41378  32.428  10.702  11.107
73016W        W41379   0.829  24.577   4.655
73017W        W41380  40.437  19.081   1.860
73018W        W41381  19.046  32.976  14.967
73019W        W41382  25.470  15.627  12.079
73020W        W41383   6.842   3.928   4.712
73021W        W41384  21.092  14.302  12.339
73022W        W41385  44.905   2.228   3.269
73023W        W41386  17.571   7.201  14.295
73024W        W41387  31.509  10.745   2.206
73025W        W41388  29.548  24.060   4.640
73026W        W41389  15.791  40.545  13.484
73027W        W41390  29.943  13.341   2.847
73028W        W41391  27.571  19.754   3.682
73029W        W41392  30.589   2.750   3.851
73030W        W41393   1.269  20.603  14.420
73031W        W41394  37.387   2.348  12.547
73032W        W41395   3.760  12.349  10.410
73033W        W41396  30.993  31.606   1.847
73034W        W41397  14.763  42.300   3.662
73035W        W41398  44.848  16.147  13.359
73036W        W41399   0.400  16.243  10.630
73037W        W41400  10.834  11.331  13.327
73038W        W41401   0.949  18.692  12.377
73039W        W41402  27.180  14.694   3.748
73040W        W41403  31.467  18.076   1.267
73041W        W41404  19.190  19.243  10.484
73042W        W41405  31.647  33.048   4.321
73043W        W41406  22.208  30.646   4.295
73044W        W41407   0.956  29.547   9.970
73045W        W41408  30.577  17.663  14.412
73046W        W41409  26.535  34.446  12.523
73047W        W41410  30.094   7.784  11.885
73048W        W41411  18.157  32.484  11.938
73049W        W41412   1.346  36.522   3.658
73050W        W41413  11.849  36.460   4.678
73051W        W41414  14.664  43.951  11.566
73052W        W41415  20.568   4.716  14.350
73053W        W41416  10.357   7.689  11.464
73054W        W41417  37.512  42.012   1.332
73055W        W41418  44.821  40.354  13.544
73056W        W41419  29.100  44.341  13.323
73057W        W41420   5.851   2.867  12.042
73058W        W41421  29.494  10.154  10.543
73059W        W41422  11.347   6.263   1.852
73060W        W41423  41.304   8.256  13.850
73061W        W41424  13.282   6.828   1.829
73062W        W41425  19.150  19.534   2.241
73063W        W41426   0.386  24.484  11.487
73064W        W41427  34.394  21.039   0.841
73065W        W41428  20.728  42.434  10.573
73066W        W41429  37.350  33.439  12.050
73067W        W41430  38.054  19.627   1.857
73068W        W41431  36.884  33.547   0.279
73069W        W41432  42.798  28.158   0.893
73070W        W41433  33.077  38.882  11.571
73071W        W41434  17.556  34.010   3.804
73072W        W41435  38.996  23.540  10.561
73073W        W41436  22.108   8.831   3.702
73074W        W41437   9.164  37.448   1.745
73075W        W41438  10.811  30.460  14.762
73076W        W41439  23.010  34.087   2.293
73077W        W41440  15.654   1.342   1.923
73078W        W41441  38.860  34.978  14.472
73079W        W41442   9.709  29.062   3.198
73080W        W41443  38.356  29.923  11.111
73081W        W41444   7.326  33.571  11.042
73082W        W41445   6.311  38.369   1.427
73083W        W41446  30.590   0.934   1.741
73084W        W41447  24.652  36.895  11.089
73085W        W41448  36.072  18.062  14.927
73086W        W41449  35.518  16.776   3.227
73087W        W41450  30.478  43.932  14.008
73088W        W41451   4.430  23.235   4.809
73089W        W41452   5.214  25.214   2.280
73090W        W41453   6.339  10.787  14.782
73091W        W41454  20.653  17.709   4.748
73092W        W41455  24.644   8.861   4.348
73093W        W41456   1.881   3.320  13.887
73094W        W41457  42.371  44.871   4.624
73095W        W41458  14.678  34.103   0.794
73096W        W41459  21.549   1.474  11.028
73097W        W41460  38.345  29.496  10.898
73098W        W41461  21.052  22.692  10.910
73099W        W41462   5.418  43.837  14.515
73100W        W41463  25.135  22.117  13.873
73101W        W41464  30.070  35.402  12.844
73102W        W41465   4.302  19.215   3.373
73103W        W41466   9.646   7.669  14.822
73104W        W41467  12.250  42.798   1.371
73105W        W41468  37.432  41.510   2.829
73106W        W41469  11.184  39.973  14.818
73107W        W41470   5.762  25.619  11.555
73108W        W41471  15.319  35.048   2.848
73109W        W41472  38.921  31.563   4.138
73110W        W41473   8.768  36.396  13.400
73111W        W41474  33.003  29.961  13.309
73112W        W41475  26.118  44.770  14.925
73113W        W41476  19.114  19.640  13.345
73114W        W41477  13.770  37.369  11.387
73115W        W41478  38.976  41.310   2.297
73116W        W41479  25.076  20.154   3.630
73117W        W41480  26.073  16.773   2.704
73118W        W41481  35.394  17.214   3.792
73119W        W41482  30.509  30.505   2.268
73120W        W41483   3.413   8.324  13.054
73121W        W41484  31.034  42.515  12.926
73122W        W41485  11.666   8.226   4.641
73123W        W41486   5.918  36.496   3.284
73124W        W41487  42.378   0.367   4.712
73125W        W41488  41.306   8.191   0.423
73126W        W41489  31.031  18.607  13.801
73127W        W41490  35.425   0.261   3.631
73128W        W41491  35.524   6.238  11.542
73129W        W41492  33.393   6.686   1.812
73130W        W41493  17.093   2.830   0.330
73131W        W41494  36.382  14.225   4.284
73132W        W41495   6.840  22.545  14.371
73133W        W41496   8.304   7.190  13.887
73134W        W41497  38.865  11.746   3.300
73135W        W41498  15.249  26.027   0.834
73136W        W41499  16.096   2.900   4.211
73137W        W41500  23.588   9.378  12.461
73138W        W41501  20.161  41.955   2.849
73139W        W41502  17.574  18.252   3.375
73140W        W41503  28.568  40.944   1.342
73141W        W41504  32.060  29.619  12.018
73142W        W41505  26.521  29.033  12.940
73143W        W41506   7.243  13.846  11.942
73144W        W41507  29.064  14.598  13.840
73145W        W41508  43.482  31.529  14.329
73146W        W41509   3.824  26.510   4.640
73147W        W41510  25.638  22.008  13.806
73148W        W41511  18.279  37.534   2.739
73149W        W41512  14.690  13.623  12.916
73150W        W41513  42.332  15.775   4.829
73151W        W41514  12.260  25.589   3.638
73152W        W41515  16.106  26.627  12.823
73153W        W41516   6.358  12.209   2.403
73154W        W41517  40.456  16.125  14.380
73155W        W41518  30.113  35.025  13.984
73156W        W41519  25.140  37.848   4.647
73157W        W41520  16.665  10.809   4.820
73158W        W41521   0.989   6.410  14.479
73159W        W41522  16.208  31.629   1.866
73160W        W41523  31.981  40.478   1.890
73161W        W41524   7.682  41.981   1.300
73162W        W41525  37.364  33.509   0.767
73163W        W41526  23.596  44.840  12.542
73164W        W41527  41.890  33.588  11.510
73165W        W41528  31.642  37.887  13.045
73166W        W41529  29.603  14.138   1.842
73167W        W41530  17.656  28.974   0.740
73168W        W41531  26.480  27.511   2.864
73169W        W41532   9.314  23.518  10.444
73170W        W41533  26.175  11.647  14.925
73171W        W41534  33.085   0.417   5.163
73172W        W41535   5.350  29.026  10.438
73173W        W41536  44.391  30.016  12.842
73174W        W41537   8.168  39.377  10.553
73175W        W41538  31.923  43.780  13.050
73176W        W41539   5.374   5.862  10.587
73177W        W41540  40.916  33.607  10.474
73178W        W41541  30.626  13.212  13.985
73179W        W41542  29.098  43.468   1.752
73180W        W41543  42.411  18.150  12.855
73181W        W41544  28.553  10.359  11.087
73182W        W41545   1.378  20.628   1.287
73183W        W41546  26.102  21.214   3.777
73184W        W41547  26.124  14.830   4.306
73185W        W41548  16.204   9.287  14.876
73186W        W41549  41.023  14.140  12.433
73187W        W41550  37.369  24.544   3.762
73188W        W41551  11.749  40.843   2.316
73189W        W41552  14.286  36.842   1.883
73190W        W41553  20.769  40.331  11.100
73191W        W41554  26.583  11.172  12.370
73192W        W41555  31.494   2.288   2.848
73193W        W41556  44.419   3.288   9.948
73194W        W41557  31.549   6.360   3.287
73195W        W41558   7.192  29.597  14.333
73196W        W41559   3.769  28.623   4.285
73197W        W41560  37.962  44.475   1.715
73198W        W41561  19.571  10.838   1.218
73199W        W41562  43.880  22.509   0.409
73200W        W41563   2.381  29.103   3.672
73201W        W41564  11.167   3.949   2.402
73202W        W41565  13.709  44.443  13.463
73203W        W41566  43.278  11.355  11.034
73204W        W41567  17.226  42.983  11.077
73205W        W41568  34.612  26.571   3.640
73206W        W41569  27.943   0.293   1.899
73207W        W41570   4.443  32.418  13.400
73208W        W41571   7.676  24.714   3.685
73209W        W41572   6.308  33.382  10.509
73210W        W41573   4.818  10.647  13.350
73211W        W41574  36.558  27.987   0.349
73212W        W41575  27.044  34.524  13.338
73213W        W41576  25.658  28.607  13.347
73214W        W41577  32.569  40.917  12.068
73215W        W41578  36.856  10.246  11.608
73216W        W41579  26.067  38.551  11.058
73217W        W41580  12.630  20.753  13.022
73218W        W41581  27.979  11.830   0.261
73219W        W41582  32.636  37.086   4.247
73220W        W41583  44.992   5.844  12.999
73221W        W41584  36.481  16.663   1.695
73222W        W41585   8.770  11.859   0.421
73223W        W41586  33.442   5.705   3.321
73224W        W41587  23.627  40.843  12.376
73225W        W41588   8.883  28.010  10.503
73226W        W41589  25.004   0.282  13.464
73227W        W41590  35.582  34.076   3.731
73228W        W41591  33.917  18.737  14.801
73229W        W41592  11.240   4.858   1.843
73230W        W41593  40.045  12.277   1.413
73231W        W41594  26.017  42.032  12.046
73232W        W41595  23.113   3.404   0.373
73233W        W41596  31.942  26.660  12.379
73234W        W41597   2.275  11.202   3.230
73235W        W41598  32.435  11.700  10.410
73236W        W41599  40.528  24.977   2.871
73237W        W41600  36.871  38.024   4.811
73238W        W41601  23.696  31.523  13.526
73239W        W41602  42.854  40.499  13.965
73240W        W41603  20.057   4.925   2.261
73241W        W41604  44.446   6.831  12.894
73242W        W41605  36.977   0.845  14.322
73243W        W41606  32.081   0.426  12.494
73244W        W41607  27.650  31.532   0.360
73245W        W41608  33.947  39.854   1.433
73246W        W41609  18.195  12.852  10.582
73247W        W41610  15.819  10.713   3.300
73248W        W41611   6.837   6.811  14.511
73249W        W41612  38.016   5.709   4.308
73250W        W41613  32.993   4.366   2.758
73251W        W41614  28.438  14.114   9.652
73252W        W41615   2.776   9.271  10.413
73253W        W41616   5.363  22.997  13.354
73254W        W41617  16.630  43.981   4.348
73255W        W41618  38.993  28.071   0.729
73256W        W41619   4.449  11.345   2.264
73257W        W41620  37.419  20.638   1.399
73258W        W41621  28.174  43.775   4.236
73259W        W41622  44.899  36.514  14.326
73260W        W41623  28.040  17.230   0.842
73261W        W41624  16.214  16.221   0.924
73262W        W41625  41.481  42.861  13.018
73263W        W41626  33.010  39.381   0.360
73264W        W41627  10.640  10.278  10.987
73265W        W41628  20.119   1.953  13.447
73266W        W41629  39.887  40.439   3.651
73267W        W41630  24.187  22.055  13.521
73268W        W41631  22.080  34.941  11.490
73269W        W41632  24.116  30.634  13.060
73270W        W41633   0.890  18.069   2.248
73271W        W41634  30.084  25.535  10.458
73272W        W41635  21.579  36.056  13.936
73273W        W41636   3.331   6.348  12.431
73274W        W41637  30.644  28.930   3.757
73275W        W41638  38.953   2.336   3.367
73276W        W41639  26.080  42.804   2.317
73277W        W41640  14.678  36.896   0.767
73278W        W41641   0.455  28.570  10.414
73279W        W41642  37.416  44.930   4.204
73280W        W41643   0.417  42.940   5.178
73281W        W41644   3.863  42.825   3.794
73282W        W41645   6.247  25.519   3.803
73283W        W41646  23.237  30.657  10.419
73284W        W41647  44.435  16.160   5.190
73285W        W41648   3.451  22.651   3.217
73286W        W41649  12.232  20.056  14.796
73287W        W41650  30.137   9.345  11.993
73288W        W41651   0.765   9.315  12.081
73289W        W41652  44.932   9.343  13.895
73290W        W41653  31.076  23.659  14.889
73291W        W41654  40.013  10.287  14.932
73292W        W41655   1.284   5.196  10.452
73293W        W41656  22.591  19.225   1.870
73294W        W41657  31.476   4.705   2.193
73295W        W41658  18.073   9.289   3.639
73296W        W41659  19.557  13.842  14.430
73297W        W41660  38.353  40.871   4.602
73298W        W41661   7.363  14.758  10.609
73299W        W41662  30.966  41.460   0.886
73300W        W41663  30.993   7.331  10.498
73301W        W41664  28.482  18.053   4.818
73302W        W41665  14.137   5.776  10.592
73303W        W41666  13.672  30.985  13.853
73304W        W41667  41.937  26.561   0.959
73305W        W41668  34.076  12.297  12.467
73306W        W41669  17.187  42.816  13.520
73307W        W41670  42.935  16.682  11.929
73308W        W41671  44.829  12.125  11.450
73309W        W41672  27.978  33.613   2.345
73310W        W41673  31.632  36.425   2.224
73311W        W41674   3.876  29.028  13.521
73312W        W41675  30.104  34.923  13.384
73313W        W41676  37.063   2.783   3.236
73314W        W41677  27.945  27.006   0.871
73315W        W41678  16.223  21.124  10.081
73316W        W41679  37.040  15.151  11.029
73317W        W41680  39.867  34.455  12.868
73318W        W41681  43.477  36.560  11.129
73319W        W41682   3.738  35.372   4.292
73320W        W41683   1.256  23.240  13.417
73321W        W41684  17.126  34.120   2.714
73322W        W41685  12.757  14.773  13.377
73323W        W41686  24.498  35.063   3.205
73324W        W41687  18.199  17.161  14.390
73325W        W41688  44.808  33.971   0.352
73326W        W41689  31.508  42.812  13.419
73327W        W41690  38.536  42.479   0.844
73328W        W41691  41.355  14.620  14.501
73329W        W41692  32.920  31.543   1.767
73330W        W41693  36.862   7.729   1.337
73331W        W41694  30.921  24.563  12.973
73332W        W41695   1.896  35.013   4.760
73333W        W41696  26.637  12.167   1.211
73334W        W41697  19.086  25.118   1.258
73335W        W41698  30.124  15.717  12.900
73336W        W41699  43.801  33.116   0.848
73337W        W41700   7.220  17.679  13.950
73338W        W41701   1.308   1.813   0.756
73339W        W41702  44.265  23.527  12.540
73340W        W41703  10.213  41.950   3.216
73341W        W41704   3.281  25.061  12.874
73342W        W41705  10.662  20.694  11.890
73343W        W41706   0.366   5.831  10.544
73344W        W41707   3.877   7.776   2.724
73345W        W41708  33.099  14.783  12.064
73346W        W41709  32.047  26.598   3.754
73347W        W41710   8.738  14.752   1.289
73348W        W41711  36.883   8.404   0.408
73349W        W41712  32.981   3.799   0.823
73350W        W41713  38.873   3.351   1.786
73351W        W41714   2.277   3.800  13.995
73352W        W41715  11.757   6.710   0.963
73353W        W41716  30.975  10.139  12.349
73354W        W41717  31.440  14.171   3.809
73355W        W41718  41.981  38.415  14.323
73356W        W41719   8.710   5.400  10.930
73357W        W41720  36.863   5.914   1.284
73358W        W41721  32.630  20.640   4.650
73359W        W41722  43.402   4.256  14.932
73360W        W41723  40.407   6.795  13.331
73361W        W41724   3.230   6.353  11.115
73362W        W41725  40.455  43.945   0.464
73363W        W41726  37.051  21.616  14.028
73364W        W41727  27.562  40.916   4.196
73365W        W41728  42.372  17.569   3.847
73366W        W41729  26.070  28.604   4.291
73367W        W41730   3.791  20.262   2.726
73368W        W41731  34.974   1.796  13.417
73369W        W41732  28.680  25.567  12.571
73370W        W41733  36.548  38.349  14.328
73371W        W41734  24.978  23.689  11.593
73372W        W41735  16.631  39.863   1.901
73373W        W41736  16.651   7.337  13.803
73374W        W41737   0.793  25.002  13.339
73375W        W41738  16.291  43.009   5.223
73376W        W41739  42.481   5.756   1.306
73377W        W41740  25.619  14.310   5.206
73378W        W41741  26.072  19.618   1.391
73379W        W41742   0.355  12.148  10.987
73380W        W41743  21.674   6.874   4.796
73381W        W41744  15.272  42.509  13.489
73382W        W41745   4.889   1.913   1.436
73383W        W41746  17.259  35.997  14.278
73384W        W41747  41.032  17.186   3.705
73385W        W41748  27.088  12.775  13.904
73386W        W41749   1.770  20.085  11.478
73387W        W41750  30.460  14.660  13.467
73388W        W41751  26.167   8.260   1.309
73389W        W41752  13.318  16.112   0.859
73390W        W41753  18.596   7.288   3.363
73391W        W41754   7.786  23.524  10.440
73392W        W41755  15.593  24.207  14.926
73393W        W41756   7.837  14.155   4.260
73394W        W41757  13.208  32.119  11.864
73395W        W41758   8.225  24.577  13.861
73396W        W41759  41.453  11.670  10.976
73397W        W41760  33.039  38.034  13.318
73398W        W41761  24.225  15.617   2.254
73399W        W41762  23.178  42.901  12.982
73400W        W41763  39.524  31.931  11.465
73401W        W41764   6.348  28.659  10.548
73402W        W41765  33.416  31.143   4.742
73403W        W41766  39.371  10.358   2.688
73404W        W41767  19.062  37.901   2.234
73405W        W41768   3.751  40.341   1.422
73406W        W41769  29.551  44.847   2.792
73407W        W41770  25.047  39.478  14.338
73408W        W41771  32.058   4.333   2.695
73409W        W41772  32.043  26.008  14.954
73410W        W41773  24.042  26.671  12.987
73411W        W41774  31.648  39.436   4.145
73412W        W41775  44.384   6.888  14.966
73413W        W41776  42.959  42.466   0.405
73414W        W41777  34.084  40.918  10.483
73415W        W41778  39.354  41.468   2.179
73416W        W41779  43.481  36.386  10.609
73417W        W41780   6.365  10.373  13.484
73418W        W41781  28.518  16.200   5.635
73419W        W41782  40.436  38.438   0.741
73420W        W41783  12.657  22.237  13.878
73421W        W41784  27.182  41.507  11.518
73422W        W41785  40.868   7.327  14.907
73423W        W41786   8.267  11.628   4.169
73424W        W41787  43.441  43.768   2.211
73425W        W41788  19.775  11.731  12.044
73426W        W41789   1.787  14.643   1.695
73427W        W41790  10.676   0.254   1.751
73428W        W41791   1.935  13.336  10.514
73429W        W41792  36.498   4.894  10.635
73430W        W41793  10.214   3.276   0.423
73431W        W41794   4.236  28.657   2.379
73432W        W41795  40.482   7.172  12.996
73433W        W41796  18.063  30.040   2.689
73434W        W41797  28.009  14.107  10.023
73435W        W41798  32.477  15.322   0.788
73436W        W41799  16.650  18.280   9.991
73437W        W41800  12.832   0.825  11.477
73438W        W41801  39.374  35.045   1.856
73439W        W41802  10.814   9.847   0.335
73440W        W41803  36.567  30.593  12.959
73441W        W41804  21.533  11.755   2.293
73442W        W41805  34.064  20.735   1.311
73443W        W41806   3.304  26.079   4.655
73444W        W41807  40.394  44.334  12.961
73445W        W41808  16.215  13.296   2.309
73446W        W41809  31.430  40.450  10.941
73447W        W41810   5.721  15.086   3.785
73448W        W41811  33.467  38.987  13.470
73449W        W41812  44.337  32.633  12.061
73450W        W41813   1.473  31.997   2.880
73451W        W41814  14.114  10.647  12.519
73452W        W41815   8.263  19.261   1.737
73453W        W41816  14.182  31.419   1.423
73454W        W41817  35.038  12.194  12.484
73455W        W41818   6.411  25.477   2.763
73456W        W41819  18.660  32.435  13.904
73457W        W41820  17.605  36.509   3.332
73458W        W41821   8.253   6.266  14.968
73459W        W41822  30.047  29.919   4.322
73460W        W41823  38.562  28.455  14.431
73461W        W41824  35.561   5.896  14.794
73462W        W41825   0.349  42.860   1.829
73463W        W41826  43.881  15.097   2.814
73464W        W41827  44.956   3.243  14.417
73465W        W41828  43.997  17.063  11.075
73466W        W41829   1.847  33.124   1.401
73467W        W41830  31.059  32.473   2.320
73468W        W41831  36.087  32.579   1.847
73469W        W41832  18.227  24.642  11.601
73470W        W41833  38.343  23.192   4.234
73471W        W41834  22.504  42.030  11.407
73472W        W41835  15.107   0.409   4.733
73473W        W41836  21.743  33.387  14.959
73474W        W41837  23.725  17.220  13.461
73475W        W41838   7.345   7.211   3.211
73476W        W41839   5.314  26.614  11.042
73477W        W41840  29.072  12.362  11.002
73478W        W41841  31.509  37.389   2.776
73479W        W41842  44.322  25.706   2.328
73480W        W41843  13.751   4.862  12.984
73481W        W41844  14.288  27.960   4.698
73482W        W41845  12.277  26.460  14.417
73483W        W41846   5.761   4.839  12.845
73484W        W41847  21.134  22.179  11.601
73485W        W41848   6.334  37.353  13.863
73486W        W41849  44.471   3.291   0.832
73487W        W41850  24.548  37.440  14.844
73488W        W41851   0.442  43.936   0.867
73489W        W41852   9.315  40.358  11.579
73490W        W41853  13.163  29.170  12.972
73491W        W41854  38.501  12.168   1.401
73492W        W41855  12.846  15.689   3.760
73493W        W41856   3.726  19.621  11.043
73494W        W41857  29.982  37.370   4.119
73495W        W41858  26.546  20.745  11.857
73496W        W41859  36.565  35.434  12.865
73497W        W41860  19.214  33.456   3.171
73498W        W41861  34.410  22.050   3.704
73499W        W41862   7.680  23.022   2.208
73500W        W41863   2.825  16.801   3.672
73501W        W41864   5.885  27.510   4.282
73502W        W41865  35.891  23.659   2.340
73503W        W41866  16.593  22.559   3.659
73504W        W41867  42.299  19.569   1.318
73505W        W41868  28.058   7.398  11.068
73506W        W41869   7.780   6.343  12.919
73507W        W41870  44.461   3.242   2.369
73508W        W41871   6.909  34.554   2.772
73509W        W41872  20.545  29.018  13.369
73510W        W41873   7.314  32.095   2.681
73511W        W41874  17.643  20.137   1.251
73512W        W41875  23.627  18.548  13.505
73513W        W41876  40.050   5.357  14.930
73514W        W41877   3.822  22.246  14.822
73515W        W41878  26.614   5.718   2.888
73516W        W41879   3.248   1.810   2.347
73517W        W41880  14.290   4.300   0.890
73518W        W41881  39.505   5.293   0.864
73519W        W41882  42.029  34.403   3.641
73520W        W41883  26.615  21.163   0.946
73521W        W41884  44.796   5.934  11.928
73522W        W41885  34.909   4.723   3.743
73523W        W41886  44.440  19.103   4.265
73524W        W41887  36.860  43.456   1.902
73525W        W41888  11.865  40.960  13.383
73526W        W41889   3.710   5.712   2.787
73527W        W41890  15.115   8.790  10.525
73528W        W41891  37.480  11.702  10.128
73529W        W41892  29.562  38.489   1.319
73530W        W41893  25.581   0.984   1.305
73531W        W41894  21.739  29.074   2.757
73532W        W41895  16.712   8.738  10.903
73533W        W41896   0.346  34.066  13.400
73534W        W41897  37.377  43.940  12.578
73535W        W41898   8.697  26.962   2.207
73536W        W41899  41.957  30.486  12.481
73537W        W41900  11.853  38.069  12.382
73538W        W41901  33.570  28.996  14.439
73539W        W41902   7.369  23.203  11.457
73540W        W41903  14.209  21.031   3.251
73541W        W41904   2.956  34.503   1.280
73542W        W41905  21.211  26.683  12.946
73543W        W41906  41.973  42.948  12.070
73544W        W41907  13.787  12.240   2.855
73545W        W41908   5.232  36.851  12.499
73546W        W41909  10.835   4.816  14.785
73547W        W41910  30.425  10.142   2.416
73548W        W41911  14.684  20.560  13.889
73549W        W41912   6.881   8.856  12.366
73550W        W41913  21.528  43.880   4.796
73551W        W41914   6.887  31.949  10.933
73552W        W41915  39.915  30.085  13.910
73553W        W41916   2.796  28.020  14.365
73554W        W41917  10.246  23.718  12.090
73555W        W41918  16.227  15.180   4.307
73556W        W41919  13.830  27.654  11.463
73557W        W41920  17.103  19.208  11.553
73558W        W41921  14.280  42.295   1.813
73559W        W41922  16.307  43.851  13.481
73560W        W41923  23.141  27.669   2.823
73561W        W41924  36.501  23.985  10.626
73562W        W41925  36.075   6.852  12.461
73563W        W41926  37.845  19.728  13.473
73564W        W41927  20.124  27.951  14.022
73565W        W41928  44.297  36.364  14.020
73566W        W41929  41.359  32.050  11.496
73567W        W41930  13.830   5.728   0.793
73568W        W41931   9.363  39.009   4.307
73569W        W41932   3.793   4.825   3.789
73570W        W41933  44.443   3.334  12.935
73571W        W41934   1.412  13.174   0.957
73572W        W41935  16.206  22.058  11.449
73573W        W41936  20.236  39.013  14.423
73574W        W41937  12.353  31.487   1.411
73575W        W41938  16.251   3.421  14.917
73576W        W41939   3.263  24.100   1.834
73577W        W41940   8.891  23.227   1.910
73578W        W41941  13.830   9.170   4.285
73579W        W41942  30.449  34.012   4.253
73580W        W41943  32.439  41.407   2.682
73581W        W41944  34.615  11.838  14.822
73582W        W41945  10.726  42.900  11.424
73583W        W41946  30.653  24.978   2.260
73584W        W41947  33.942   2.332  13.439
73585W        W41948  34.032  24.074  11.427
73586W        W41949   5.272  24.173  14.305
73587W        W41950   6.916  35.554  12.863
73588W        W41951  36.557  39.350  12.826
73589W        W41952   8.165  12.179  10.507
73590W        W41953  16.085  14.259  12.555
73591W        W41954  40.431  10.815   5.177
73592W        W41955  14.135  13.195   5.316
73593W        W41956   9.291  42.807   4.758
73594W        W41957  18.262  23.072   2.724
73595W        W41958  30.432  16.273  11.098
73596W        W41959  37.471  26.501  11.487
73597W        W41960  16.244  39.999   3.676
73598W        W41961   3.953   0.296  13.995
73599W        W41962  28.613   1.465  14.776
73600W        W41963  44.313  34.884  14.808
73601W        W41964  41.964   4.334  13.354
73602W        W41965  24.677  23.200  13.947
73603W        W41966  27.141  19.155   1.275
73604W        W41967   9.779   0.840  11.901
73605W        W41968   1.938  32.568   1.803
73606W        W41969  31.010   9.167   4.164
73607W        W41970  23.007   4.391   4.179
73608W        W41971  36.436  25.507   2.888
73609W        W41972  28.555  41.421   3.160
73610W        W41973  43.895  13.831   4.722
73611W        W41974  28.948  22.095   4.227
73612W        W41975  10.746  24.489  12.535
73613W        W41976  10.852  38.429  12.842
73614W        W41977  30.610  15.185  11.381
73615W        W41978  18.260  27.639   4.249
73616W        W41979  11.856   9.151  14.900
73617W        W41980  22.573  18.786  14.392
73618W        W41981  33.523  16.779   4.610
73619W        W41982  13.297  17.610   3.163
73620W        W41983  44.340   9.720  12.490
73621W        W41984   6.907   7.770   2.178
73622W        W41985  33.876   2.324  12.955
73623W        W41986   7.786  36.428  12.880
73624W        W41987  21.243  42.883   0.297
73625W        W41988  28.004  35.563  12.356
73626W        W41989  17.282  24.055   5.162
73627W        W41990  41.378  13.140   2.234
73628W        W41991   6.218  33.486   1.756
73629W        W41992  27.046  20.679   3.159
73630W        W41993  20.717   8.802  10.970
73631W        W41994  25.664  15.242   1.304
73632W        W41995   1.353  15.208  14.782
73633W        W41996  11.809  13.631  11.113
73634W        W41997  14.244  28.978   4.703
73635W        W41998  41.434  38.848   3.191
73636W        W41999   3.841  14.297   1.375
73637W        W42000   4.821  22.632  11.510
73638W        W42001  14.214  21.124   1.239
73639W        W42002   3.951   9.362  11.974
73640W        W42003  19.626   4.299  14.766
73641W        W42004  15.712  16.724  14.405
73642W        W42005   1.796  19.119  10.559
73643W        W42006  32.538  44.477   4.275
73644W        W42007  31.133  25.714  10.460
73645W        W42008  25.611  30.598  11.065
73646W        W42009   8.734   9.206   2.679
73647W        W42010   1.854   2.346   2.276
73648W        W42011  40.343  15.288  11.919
73649W        W42012  12.263   5.346   3.847
73650W        W42013   8.242  25.192   2.273
73651W        W42014  19.263  31.506  11.537
73652W        W42015  24.106   0.276   3.189
73653W        W42016  31.152  13.612   1.272
73654W        W42017  30.051  27.454   1.401
73655W        W42018  11.628  24.005   4.654
73656W        W42019  25.570   1.811  12.515
73657W        W42020   0.984  24.042  10.541
73658W        W42021  44.782  24.569  12.040
73659W        W42022  27.986   3.449   0.477
73660W        W42023  43.297   0.296  12.955
73661W        W42024  28.147  13.640  12.376
73662W        W42025  41.819  39.988  11.118
73663W        W42026  41.793  34.434  13.809
73664W        W42027  30.996  29.980   5.786
73665W        W42028   0.966  18.597   4.222
73666W        W42029  13.760  10.164  10.533
73667W        W42030  37.970  25.198   1.709
73668W        W42031  36.849  38.967  10.447
73669W        W42032  44.466  13.208  10.523
73670W        W42033  24.060  35.882  10.023
73671W        W42034  17.581   7.774   4.226
73672W        W42035  40.837  30.038   0.874
73673W        W42036  39.850  12.188   5.130
73674W        W42037  28.979   4.896   3.649
73675W        W42038  38.990   8.274  13.017
73676W        W42039  29.648  15.172  12.885
73677W        W42040   3.771   1.936   3.645
73678W        W42041  43.933  21.680  13.859
73679W        W42042  31.101   3.258  12.877
73680W        W42043  14.252  38.412  12.455
73681W        W42044  18.746  36.929   4.180
73682W        W42045  14.126  21.738   4.349
73683W        W42046  27.108  33.381   1.386
73684W        W42047  18.544  11.644   2.727
73685W        W42048  10.811   8.812  10.888
73686W        W42049  21.190  24.542   4.636
73687W        W42050  40.923   6.757  14.961
73688W        W42051  28.553  40.003   4.307
73689W        W42052  25.555  18.564   5.117
73690W        W42053  36.530  16.305   3.663
73691W        W42054  25.149   8.268   4.734
73692W        W42055  12.279  20.157   4.180
73693W        W42056  12.240   1.431  11.114
73694W        W42057  33.462  39.500  12.831
73695W        W42058   5.751  10.256   2.377
73696W        W42059  11.128  16.297   4.320
73697W        W42060  15.730   0.782  12.010
73698W        W42061  11.370  33.921   2.256
73699W        W42062  41.456  34.404   0.966
73700W        W42063  10.244  22.088   0.920
73701W        W42064  29.037  14.644  14.492
73702W        W42065  18.698   0.888  11.862
73703W        W42066   0.901  17.589  13.330
73704W        W42067  14.209  18.129   4.264
73705W        W42068  22.532  24.692  11.374
73706W        W42069  39.350  39.847   0.386
73707W        W42070  36.520  43.867   3.836
73708W        W42071  26.686   0.777  12.042
73709W        W42072  36.425  34.925  13.434
73710W        W42073  37.371  10.249   3.361
73711W        W42074  41.816  28.460  14.965
73712W        W42075  34.384  21.206  14.331
73713W        W42076  37.830  22.045  12.485
73714W        W42077   5.280  33.472   2.881
73715W        W42078  36.842   8.303   3.729
73716W        W42079  38.512   3.355  10.522
73717W        W42080  22.059  29.065  13.841
73718W        W42081  29.529  30.434   5.176
73719W        W42082   5.797   4.940  14.978
73720W        W42083  24.143  22.137   3.629
73721W        W42084  18.115  11.639  14.804
73722W        W42085  16.774  16.708  10.908
73723W        W42086  19.244  35.586  13.471
73724W        W42087  35.532  12.167   2.734
73725W        W42088   4.268  15.167   1.412
73726W        W42089  27.652   0.263  13.507
73727W        W42090  35.882  41.019  12.956
73728W        W42091  32.473  11.129  11.973
73729W        W42092   4.753  12.295  11.076
73730W        W42093   5.419  32.997  12.084
73731W        W42094  27.043  32.625   2.825
73732W        W42095   2.271   0.920  11.487
73733W        W42096  31.960  43.342  12.826
73734W        W42097  43.437  42.865   1.279
73735W        W42098   2.420  15.610   0.245
73736W        W42099  41.806  39.917   3.632
73737W        W42100  36.051   9.310   4.322
73738W        W42101  33.092  35.426   2.395
73739W        W42102  44.971  37.082   5.107
73740W        W42103  32.908  10.371  12.025
73741W        W42104  37.904  42.316   2.390
73742W        W42105  29.966   8.657   4.326
73743W        W42106  19.252  32.409   0.296
73744W        W42107  36.984  28.076  14.772
73745W        W42108   8.294  23.592  14.322
73746W        W42109  40.320  31.085  14.325
73747W        W42110  35.906  16.233  10.542
73748W        W42111  44.338  27.978   4.616
73749W        W42112  11.750  32.528   3.284
73750W        W42113  22.048   0.263  13.513
73751W        W42114  14.750  35.060   1.895
73752W        W42115  37.336  30.536   3.632
73753W        W42116   2.230  15.246   4.780
73754W        W42117   4.914  15.128   4.219
73755W        W42118  39.342   7.725   0.882
73756W        W42119  31.073  38.886  13.405
73757W        W42120  35.037   2.958  14.316
73758W        W42121  13.841  28.651   3.684
73759W        W42122  42.305  36.926  13.340
73760W        W42123  10.201  21.079  10.922
73761W        W42124  26.065   0.950   1.734
73762W        W42125  30.654  33.118  12.046
73763W        W42126  18.208  36.888  13.871
73764W        W42127  34.964  32.586  12.932
73765W        W42128   4.857   9.741  10.618
73766W        W42129  11.771  30.496  14.294
73767W        W42130  11.307   9.847   1.713
73768W        W42131   7.795  42.435  10.972
73769W        W42132   2.264  16.666  13.523
73770W        W42133  39.377  20.550  12.842
73771W        W42134  41.355  44.402   0.291
73772W        W42135   6.700  35.408  14.306
73773W        W42136   7.320  34.087   1.277
73774W        W42137  44.760  41.039   2.822
73775W        W42138   2.451   3.360   4.225
73776W        W42139  13.158  25.163  10.068
73777W        W42140  10.315   8.257   1.267
73778W        W42141  15.166  17.242   1.419
73779W        W42142  14.794  28.977  11.378
73780W        W42143  28.154  11.318  10.440
73781W        W42144  43.924  19.659   2.223
73782W        W42145  40.470  13.813   4.761
73783W        W42146  22.240  33.939  12.915
73784W        W42147   0.948  22.539   4.159
73785W        W42148  39.958  30.476  12.933
73786W        W42149  12.185  27.685   2.695
73787W        W42150   8.695  39.914  12.414
73788W        W42151   6.754  10.798   3.342
73789W        W42152  40.040  31.571  11.476
73790W        W42153  34.067  42.347   2.784
73791W        W42154  23.103  31.132  12.374
73792W        W42155  16.159   9.215   1.906
73793W        W42156   2.359   0.795  11.875
73794W        W42157  31.992  22.231  13.974
73795W        W42158  38.390  35.912  14.772
73796W        W42159  23.666  16.092  14.340
73797W        W42160  30.444  17.137  13.950
73798W        W42161  35.590   6.858   1.426
73799W        W42162  34.916  19.272   3.221
73800W        W42163  31.584  18.567  13.860
73801W        W42164  22.646   9.227  10.973
73802W        W42165  44.775  10.777   4.225
73803W        W42166  43.911   3.340   1.787
73804W        W42167   6.182  36.349   3.250
73805W        W42168   7.349  27.582  13.031
73806W        W42169   3.823  14.601   0.916
73807W        W42170  40.896  16.632  14.390
73808W        W42171  14.772  29.924  11.517
73809W        W42172  39.455  21.529  13.454
73810W        W42173  27.018   7.366   9.961
73811W        W42174  16.569  39.418  14.349
73812W        W42175  19.539  28.102   4.189
73813W        W42176  41.486   4.256   2.264
73814W        W42177  34.485  12.224  11.573
73815W        W42178  16.076  18.172   1.408
73816W        W42179  37.549  40.989   0.365
73817W        W42180  13.615  42.004   4.251
73818W        W42181  37.965  38.327  14.804
73819W        W42182  24.665  41.000  14.961
73820W        W42183  27.547  11.836  11.593
73821W        W42184   9.786  14.321  14.810
73822W        W42185  33.093  19.724  11.945
73823W        W42186  21.607  20.128   0.425
73824W        W42187  15.150   8.258  10.630
73825W        W42188  19.189   2.765   3.329
73826W        W42189  17.146  37.553   5.125
73827W        W42190  14.167  10.645   2.243
73828W        W42191  42.780  23.571   0.799
73829W        W42192  33.519  13.644   4.756
73830W        W42193  24.538  41.345  11.010
73831W        W42194  32.045  42.887   4.137
73832W        W42195   4.354  23.065   0.870
73833W        W42196   7.386  28.612   1.232
73834W        W42197  27.980  43.307  10.471
73835W        W42198   4.301  12.182  12.361
73836W        W42199   0.259  29.468   0.373
73837W        W42200  29.611   3.234  11.996
73838W        W42201  14.307   4.866  14.868
73839W        W42202  43.891  28.660  11.398
73840W        W42203  33.411  42.932   0.772
73841W        W42204  31.103  19.536   0.454
73842W        W42205  27.542  16.574  10.137
73843W        W42206  30.059  15.759   0.435
73844W        W42207  10.726  31.016   4.828
73845W        W42208  15.607  30.921   3.216
73846W        W42209   5.875  44.467  14.911
73847W        W42210  44.391  26.999   0.390
73848W        W42211  39.465   9.355   4.651
73849W        W42212  25.648  20.681  11.579
73850W        W42213  13.838  29.436   0.311
73851W        W42214   0.800  40.390  12.070
73852W        W42215  12.635   0.479   1.724
73853W        W42216  16.678   2.858  11.595
73854W        W42217  19.260  17.187  13.804
73855W        W42218   8.192  37.935  13.804
73856W        W42219   6.677  20.072  13.468
73857W        W42220  27.662   3.319   1.282
73858W        W42221  15.196  23.594   0.472
73859W        W42222  10.748  24.161  13.983
73860W        W42223  13.236  17.786  13.433
73861W        W42224  10.337  22.239  14.862
73862W        W42225  23.028  34.997   2.394
73863W        W42226   7.785  44.270  11.487
73864W        W42227  36.901   2.743  13.373
73865W        W42228  39.950  21.230  11.389
73866W        W42229  30.650  44.339  13.847
73867W        W42230  23.555  35.037  14.808
73868W        W42231  39.957  38.919  14.807
73869W        W42232  27.050  25.069   3.716
73870W        W42233  31.648  43.008   4.257
73871W        W42234  12.814  44.499  11.563
73872W        W42235   5.235  43.456  13.905
73873W        W42236  38.837  27.036  13.887
73874W        W42237   0.358   1.270  13.452
73875W        W42238  26.474   2.472   4.279
73876W        W42239  43.010  35.871  11.436
73877W        W42240   3.448  21.672  14.955
73878W        W42241  28.623  19.274  10.460
73879W        W42242   3.375  35.563  10.522
73880W        W42243  16.082  34.408  12.083
73881W        W42244  11.683  36.061   5.293
73882W        W42245   6.201   1.307  11.499
73883W        W42246  38.874  41.296  13.791
73884W        W42247  33.561  19.142  13.959
73885W        W42248  41.006  32.545  12.971
73886W        W42249  12.358  15.719  11.394
73887W        W42250  37.390  43.397   4.305
73888W        W42251  36.528  41.334  13.341
73889W        W42252  39.010  28.677   5.273
73890W        W42253  40.518  22.051   3.641
73891W        W42254  22.204  13.251  12.378
73892W        W42255  12.241  29.654   0.327
73893W        W42256  17.687  41.389   3.676
73894W        W42257  44.769  40.048   2.355
73895W        W42258  16.672  14.813   4.283
73896W        W42259  10.857  39.461  13.993
73897W        W42260  23.123  44.501  11.585
73898W        W42261  10.677  21.036   0.470
73899W        W42262   1.360   0.804  14.857
73900W        W42263  43.474  44.941   3.197
73901W        W42264   5.785   4.900  11.588
73902W        W42265  42.781  13.330   0.419
73903W        W42266   4.773  17.759   0.292
73904W        W42267  24.606  42.331  10.405
73905W        W42268  38.910   7.799   3.244
73906W        W42269  25.182  41.323  14.282
73907W        W42270   2.416  23.685   9.931
73908W        W42271  22.110   7.700   3.770
73909W        W42272   4.313  38.981   0.907
73910W        W42273  25.589  19.061  12.991
73911W        W42274  14.688  42.942  12.919
73912W        W42275   7.352  16.143  12.940
73913W        W42276   4.825  30.001  11.530
73914W        W42277  23.199  44.008   0.783
73915W        W42278  24.071  11.731  11.053
73916W        W42279  14.618  18.759   0.408
73917W        W42280  21.154   6.813  12.511
73918W        W42281  10.358  17.257  13.946
73919W        W42282  34.592  39.912  14.376
73920W        W42283  10.667   0.333  11.506
73921W        W42284   3.239  13.207  11.058
73922W        W42285  26.173  26.490   4.302
73923W        W42286  23.705   0.334   0.864
73924W        W42287  32.423  31.419   0.902
73925W        W42288  14.224  28.027  11.024
73926W        W42289  42.527  17.099   4.821
73927W        W42290   4.382  13.665  10.465
73928W        W42291  27.110  32.613  12.428
73929W        W42292  27.999  36.474   2.721
73930W        W42293  14.297   1.318   2.183
73931W        W42294   3.884  17.150   3.677
73932W        W42295   6.358  18.588  10.995
73933W        W42296  18.231  35.411   1.336
73934W        W42297   4.397   4.339  14.314
73935W        W42298  27.942   6.224   2.888
73936W        W42299  41.371  37.447   1.425
73937W        W42300  30.558   8.734   1.292
73938W        W42301  17.238  44.934   4.655
73939W        W42302  29.658  26.112  12.039
73940W        W42303   7.877  29.548   1.800
73941W        W42304  34.412  36.498  10.902
73942W        W42305  25.653   4.218  13.025
73943W        W42306   7.254  25.652   2.417
73944W        W42307  31.637  44.935  14.868
73945W        W42308  29.547  11.336  11.413
73946W        W42309  20.060  31.608  12.435
73947W        W42310  39.528  34.394   2.339
73948W        W42311  15.178  17.124  13.840
73949W        W42312  28.492  11.722  14.949
73950W        W42313   5.887  42.289   3.864
73951W        W42314  19.239   6.802  10.414
73952W        W42315  40.978  13.292  14.378
73953W        W42316   9.722  42.921  12.832
73954W        W42317  25.080  13.832   4.171
73955W        W42318  29.441  25.117   0.900
73956W        W42319  12.771  37.973   0.381
73957W        W42320  22.102  10.344  13.532
73958W        W42321  35.961  22.694  12.356
73959W        W42322   8.763  24.691  11.057
73960W        W42323  16.698  39.848   3.170
73961W        W42324  18.266  36.515   3.721
73962W        W42325  18.711  35.880  11.125
73963W        W42326  32.395  16.264  13.979
73964W        W42327   7.240  31.911  14.444
73965W        W42328   1.848  27.102  14.339
73966W        W42329  44.816  40.945  12.878
73967W        W42330  22.678  26.083   3.794
73968W        W42331  25.052  16.199  10.122
73969W        W42332  33.470  20.236  10.990
73970W        W42333  16.726   1.272  13.927
73971W        W42334   8.670   1.437   3.640
73972W        W42335  26.162  35.904  10.979
73973W        W42336  42.003  15.167   4.737
73974W        W42337  14.645   8.725   4.150
73975W        W42338  28.067  40.812  10.505
73976W        W42339  14.269  19.187  14.291
73977W        W42340  19.556  35.361   1.283
73978W        W42341   9.668  30.432   3.836
73979W        W42342  27.133  33.557   2.862
73980W        W42343  13.116  40.868  11.589
73981W        W42344  22.730  22.587  14.980
73982W        W42345  21.138  37.853  12.003
73983W        W42346  38.037  34.445   1.341
73984W        W42347  33.596   4.782  10.890
73985W        W42348  35.993  26.025   1.441
73986W        W42349  20.190  32.620  13.015
73987W        W42350   1.879   4.220   1.241
73988W        W42351  35.981  11.702   0.304
73989W        W42352   9.393  34.497   9.962
73990W        W42353  31.125  37.373   4.747
73991W        W42354  30.981  14.180  14.431
73992W        W42355   5.772   6.890   1.276
73993W        W42356  17.071  29.552   2.726
73994W        W42357  19.190  36.460  14.766
73995W        W42358  23.556  41.930  14.939
73996W        W42359  42.792  15.782   2.179
73997W        W42360  25.037  30.990   2.754
73998W        W42361  29.093  35.559   1.926
73999W        W42362  42.850  42.377   4.217
74000W        W42363  42.842  22.602   0.947
74001W        W42364  21.262  12.299   0.322
74002W        W42365   0.775  10.316   2.716
74003W        W42366  28.030  17.644   9.930
74004W        W42367  33.984  17.286  10.150
74005W        W42368  36.411   2.787   2.288
74006W        W42369   4.319  28.607   3.842
74007W        W42370  25.526  28.544  11.397
74008W        W42371   0.462  39.994   3.306
74009W        W42372  42.926  35.001  14.845
74010W        W42373  17.260  30.522  12.446
74011W        W42374   1.261  39.845   0.947
74012W        W42375  25.989  11.673   2.831
74013W        W42376  26.515  22.205   4.830
74014W        W42377  14.121  10.690  11.029
74015W        W42378  26.062  14.683   4.808
74016W        W42379  40.513  27.085   0.734
74017W        W42380  29.097  25.545   4.328
74018W        W42381  23.587   9.758   3.648
74019W        W42382   9.317  42.444  10.938
74020W        W42383   1.817  27.660  14.810
74021W        W42384  34.011  24.027  12.999
74022W        W42385   0.288  22.116   1.235
74023W        W42386  42.777  38.335  10.510
74024W        W42387  11.812   4.820  10.462
74025W        W42388  30.105  32.598   2.307
74026W        W42389  14.299  20.168   4.817
74027W        W42390   2.739  15.751  13.922
74028W        W42391  41.448  23.636  14.799
74029W        W42392  37.886   6.814  11.050
74030W        W42393  14.822  16.780   9.931
74031W        W42394  34.056   4.769  14.469
74032W        W42395   4.747  26.186  12.853
74033W        W42396  31.060  13.278   0.465
74034W        W42397  25.676   0.755   0.482
74035W        W42398  16.119  15.689  14.845
74036W        W42399  35.902  12.774  13.898
74037W        W42400  21.664   9.861   1.706
74038W        W42401  29.134  43.975  14.813
74039W        W42402  16.764  41.427  13.001
74040W        W42403  18.747  38.428   4.265
74041W        W42404  31.404  36.590  10.935
74042W        W42405  27.496  13.167   2.200
74043W        W42406   1.862  20.215   1.343
74044W        W42407  32.457  33.107  14.336
74045W        W42408   9.222  12.613  14.805
74046W        W42409  29.993  39.425   2.350
74047W        W42410  41.413  23.041  11.587
74048W        W42411   0.355  12.840  12.908
74049W        W42412  34.069  27.627   0.789
74050W        W42413   1.786  11.802   4.161
74051W        W42414  30.552  34.047  12.484
74052W        W42415  18.139   7.827  13.804
74053W        W42416  42.405  38.911  14.800
74054W        W42417  40.907  19.558   0.861
74055W        W42418  36.016  25.158   3.845
74056W        W42419  34.566  38.540  11.522
74057W        W42420   9.173   9.791  11.115
74058W        W42421  43.359  18.158  11.884
74059W        W42422  34.006  23.152   3.750
74060W        W42423  40.801  40.389   1.935
74061W        W42424   4.401  37.852   2.342
74062W        W42425  36.582  22.107   3.860
74063W        W42426  20.709  23.232   2.810
74064W        W42427  26.097  39.999  13.926
74065W        W42428  35.975   6.265   2.316
74066W        W42429   8.379   2.907  12.927
74067W        W42430  26.174   9.319   4.656
74068W        W42431   3.379  24.064   3.274
74069W        W42432  42.452  32.497   0.947
74070W        W42433  43.862  44.993  13.798
74071W        W42434   0.905   4.279  10.451
74072W        W42435  23.215   8.306   2.893
74073W        W42436  37.977  29.958   3.652
74074W        W42437  29.025  29.514   0.747
74075W        W42438  30.055  16.117   1.301
74076W        W42439   7.189  26.590  12.344
74077W        W42440  29.032   8.796  10.416
74078W        W42441  40.327   8.702  14.937
74079W        W42442   4.285  17.302   2.330
74080W        W42443  15.698  16.773   4.332
74081W        W42444  29.565  44.364  13.008
74082W        W42445  42.862   2.271   2.300
74083W        W42446  33.027   4.277  10.541
74084W        W42447  33.875  22.999   3.251
74085W        W42448   8.181  20.623   4.752
74086W        W42449   0.941  21.664   2.733
74087W        W42450  23.181   1.736  12.918
74088W        W42451   1.861   3.775   2.349
74089W        W42452  14.629  15.087   0.441
74090W        W42453   0.314  33.452   1.431
74091W        W42454  10.208  43.300   3.324
74092W        W42455  25.533  28.982   0.928
74093W        W42456  13.288  15.755  10.906
74094W        W42457   5.861  15.693  11.053
74095W        W42458   2.379  22.524  12.841
74096W        W42459  15.229  13.122  14.347
74097W        W42460  37.908  21.553   1.219
74098W        W42461  19.231  18.162  13.423
74099W        W42462  34.550  30.950  14.827
74100W        W42463  14.638  30.578  10.894
74101W        W42464   9.151  10.778  13.367
74102W        W42465  13.213  28.044  13.925
74103W        W42466  23.602  15.198   4.249
74104W        W42467  35.006  15.711  14.022
74105W        W42468   8.381   4.450   1.389
74106W        W42469  26.684   3.304  14.279
74107W        W42470  22.135  16.642  12.397
74108W        W42471  38.991  15.699  14.830
74109W        W42472  42.777   8.846   0.390
74110W        W42473  44.324  34.064   4.297
74111W        W42474  10.797  39.377   3.640
74112W        W42475  30.575   8.281  12.862
74113W        W42476  21.578  21.044   1.368
74114W        W42477  34.523  16.111   4.737
74115W        W42478  26.496  18.270   2.899
74116W        W42479   7.322   0.799   3.869
74117W        W42480  21.554  43.513   2.322
74118W        W42481   4.862   2.770   9.957
74119W        W42482   7.364  43.403   0.351
74120W        W42483   4.304  10.833   4.751
74121W        W42484  15.193   3.877  11.499
74122W        W42485  16.272  32.929  11.400
74123W        W42486  15.612  11.755   3.751
74124W        W42487  32.625   7.389  10.944
74125W        W42488  42.963  30.908  11.537
74126W        W42489   1.301  26.167  11.393
74127W        W42490  21.198  22.599   2.323
74128W        W42491  15.630  34.910  14.932
74129W        W42492   9.646  44.947  13.417
74130W        W42493  13.239  35.006   0.883
74131W        W42494   7.179  33.437  14.948
74132W        W42495  40.541  43.813  11.425
74133W        W42496   6.781  14.242   1.228
74134W        W42497  23.225  32.127   2.734
74135W        W42498  20.720  26.080  10.964
74136W        W42499  20.608  15.131  10.642
74137W        W42500  20.118  25.106   5.081
74138W        W42501  39.016  40.413   4.330
74139W        W42502  44.907  40.973  11.477
74140W        W42503   0.404  18.075   3.252
74141W        W42504  18.149  32.992  10.504
74142W        W42505  19.241  40.401  13.822
74143W        W42506  24.084  28.977  14.897
74144W        W42507   4.722  24.616   5.170
74145W        W42508   5.835  21.247  11.885
74146W        W42509  15.266  22.133  12.552
74147W        W42510  17.685   7.904  12.053
74148W        W42511  25.639  12.652   4.833
74149W        W42512  44.505  27.061  12.830
74150W        W42513  33.395   1.781  14.964
74151W        W42514   6.771   3.435  13.815
74152W        W42515   5.824  15.606  11.981
74153W        W42516  25.141  13.299  14.942
74154W        W42517   2.305  18.177   4.291
74155W        W42518  40.443  42.493   0.315
74156W        W42519  21.607  26.676   3.315
74157W        W42520  16.233  13.723  11.129
74158W        W42521  33.944   0.479   1.424
74159W        W42522   8.365  27.653   2.411
74160W        W42523  40.407  36.447   1.450
74161W        W42524  18.687   9.704   2.673
74162W        W42525  14.689  22.249   4.155
74163W        W42526  26.535  29.631   4.777
74164W        W42527  29.670  21.731  14.386
74165W        W42528  31.527  13.837   1.764
74166W        W42529   6.733  13.759   4.217
74167W        W42530  31.411  15.301   3.154
74168W        W42531  40.362   7.368  11.398
74169W        W42532  37.526  12.234  10.427
74170W        W42533  14.200  23.647   3.785
74171W        W42534  29.464  26.054   0.388
74172W        W42535   9.833  16.245  14.424
74173W        W42536  13.163   6.902  13.468
74174W        W42537  23.099  44.270  12.475
74175W        W42538  41.930  24.571   1.439
74176W        W42539   7.367   9.755   2.860
74177W        W42540   7.808  29.133   3.307
74178W        W42541   7.221  24.109  13.801
74179W        W42542  27.567  44.873  14.032
74180W        W42543   2.828  10.792  13.362
74181W        W42544  37.501   8.766   2.380
74182W        W42545  38.545   8.392  12.084
74183W        W42546  30.413   6.865  13.419
74184W        W42547  24.081  34.911   3.333
74185W        W42548  18.690  43.380  13.394
74186W        W42549  40.470  12.322  13.376
74187W        W42550  38.402   7.358   4.268
74188W        W42551  11.366   9.721   2.852
74189W        W42552  24.161  41.420  13.342
74190W        W42553  12.243  27.161   3.224
74191W        W42554  41.336  34.523  11.508
74192W        W42555  23.187  16.634   4.765
74193W        W42556  25.021   9.224  13.882
74194W        W42557   0.922  24.183   1.720
74195W        W42558  40.977  14.195   0.295
74196W        W42559  11.803  30.540   0.747
74197W        W42560  38.879  28.029   1.448
74198W        W42561  27.447  30.039  11.483
74199W        W42562  20.755  18.173  11.972
74200W        W42563  32.528  23.643  13.349
74201W        W42564  12.330  28.071   4.666
74202W        W42565  38.017   0.379   2.665
74203W        W42566   1.890   6.917  11.602
74204W        W42567  30.608  30.063   1.420
74205W        W42568  39.336  11.826   4.150
74206W        W42569  20.725   1.292   3.275
74207W        W42570  42.903  38.031   1.414
74208W        W42571  43.807  31.151  12.879
74209W        W42572   0.369  19.102  14.869
74210W        W42573  20.107  25.109   4.138
74211W        W42574  38.936  22.036  11.471
74212W        W42575  22.146   6.218  13.896
74213W        W42576   2.789  20.579  10.447
74214W        W42577   0.802  21.263  12.566
74215W        W42578   4.336  41.923  12.412
74216W        W42579  16.777  16.148   1.908
74217W        W42580   8.303   2.411  12.955
74218W        W42581  39.032   6.767  13.405
74219W        W42582  12.186  20.621   1.436
74220W        W42583  32.998   3.383  14.487
74221W        W42584  36.924  23.523   3.867
74222W        W42585  31.927  33.481   3.214
74223W        W42586   6.349  44.951  13.842
74224W        W42587  34.445   8.291   3.310
74225W        W42588   0.405   7.389   1.889
74226W        W42589  39.478   4.869  12.546
74227W        W42590  33.109  30.924  10.411
74228W        W42591   6.219  44.290  11.517
74229W        W42592  25.563  11.861  10.152
74230W        W42593   0.943  30.068  10.524
74231W        W42594  17.557  41.967   4.306
74232W        W42595  33.932   5.363  12.364
74233W        W42596   4.797  17.632   1.220
74234W        W42597  41.377   5.363  12.560
74235W        W42598  44.757  15.131  14.463
74236W        W42599  26.952  41.916  14.939
74237W        W42600  12.361  31.936   4.326
74238W        W42601   6.416   1.447   1.719
74239W        W42602  28.972  32.969   0.908
74240W        W42603   8.256  39.876   3.733
74241W        W42604  17.666  38.537  14.017
74242W        W42605  37.021  31.429   2.340
74243W        W42606  16.179   2.916   2.282
74244W        W42607   3.393  38.515  11.541
74245W        W42608  27.543   5.803   2.696
74246W        W42609  20.737   1.336   3.870
74247W        W42610  40.434  13.175   4.310
74248W        W42611   6.753  43.380   0.902
74249W        W42612  28.063   1.245  12.895
74250W        W42613  37.575  14.142   0.807
74251W        W42614  10.344  36.085  13.343
74252W        W42615  44.960  30.934   3.245
74253W        W42616  36.042  42.525   3.676
74254W        W42617   5.293  44.361   3.294
74255W        W42618  21.677  36.533   4.819
74256W        W42619  24.673  33.550   1.852
74257W        W42620  23.152  10.789   1.325
74258W        W42621  17.273   0.467   4.765
74259W        W42622  16.664  24.697  13.344
74260W        W42623   3.882  34.597  10.925
74261W        W42624   4.802   7.338   1.434
74262W        W42625  11.186  26.556  13.536
74263W        W42626  19.667  23.634   0.916
74264W        W42627  39.012  36.935  11.986
74265W        W42628  11.681  19.625  10.012
74266W        W42629  25.082  14.307  14.838
74267W        W42630  21.117  24.147  12.035
74268W        W42631  13.260  16.763  11.009
74269W        W42632  32.410   3.302  14.986
74270W        W42633  33.983  36.090   3.326
74271W        W42634  25.216  17.286  12.876
74272W        W42635  12.244   2.937  11.431
74273W        W42636  42.871  18.243   4.138
74274W        W42637  12.355  28.021   2.218
74275W        W42638   7.699  34.892   0.386
74276W        W42639  32.589   8.182   2.288
74277W        W42640  22.043  15.786   4.714
74278W        W42641  19.174  40.889   0.346
74279W        W42642   7.204  36.460   0.864
74280W        W42643  16.748   0.984   4.794
74281W        W42644  24.616   1.283   3.333
74282W        W42645  23.522  39.991  13.945
74283W        W42646  22.130  28.662   3.738
74284W        W42647  23.732  24.015   4.289
74285W        W42648  39.951  29.070  11.547
74286W        W42649   4.866  37.897  13.794
74287W        W42650  42.426  14.233   4.117
74288W        W42651  44.476  20.545  14.452
74289W        W42652  16.221  35.097  14.827
74290W        W42653   7.230  12.117   1.221
74291W        W42654   0.337   5.321   3.643
74292W        W42655   1.826  42.972   0.417
74293W        W42656  33.896  19.659   4.233
74294W        W42657  12.296   9.675  14.801
74295W        W42658  32.971  17.770   2.841
74296W        W42659  30.426  11.186  13.373
74297W        W42660  26.138  34.042  13.969
74298W        W42661  20.707  38.400  11.957
74299W        W42662  18.076  15.771  13.866
74300W        W42663  25.137   2.420   2.795
74301W        W42664   5.262  40.397  14.863
74302W        W42665   9.695  24.989   3.193
74303W        W42666   4.357  38.333  11.019
74304W        W42667  23.714  31.958  10.949
74305W        W42668   5.928   7.754  11.114
74306W        W42669  43.508  16.580   2.869
74307W        W42670   8.252  41.350   0.875
74308W        W42671  35.084  33.096  14.345
74309W        W42672  41.916  39.329  14.281
74310W        W42673  30.992   4.746  13.973
74311W        W42674  20.242  27.675   2.695
74312W        W42675  27.506  16.294   3.193
74313W        W42676   5.722   0.277  10.404
74314W        W42677  15.800  14.787   3.331
74315W        W42678  12.224  12.179   2.305
74316W        W42679  40.996   2.798  14.940
74317W        W42680  33.959   2.450  11.413
74318W        W42681  28.082  40.006   0.448
74319W        W42682  25.171  15.259  11.021
74320W        W42683   1.767   4.743   3.225
74321W        W42684   4.396  42.369  12.844
74322W        W42685  27.513  31.983  12.940
74323W        W42686   2.247   9.213  11.590
74324W        W42687  12.293   8.361  14.441
74325W        W42688  32.422  28.103   1.292
74326W        W42689  37.028  26.678  14.383
74327W        W42690  36.866  26.106   2.225
74328W        W42691   4.310  40.402   1.342
74329W        W42692   4.732  37.533   0.878
74330W        W42693  43.960  21.736   2.670
74331W        W42694  14.196  42.892  10.910
74332W        W42695  19.774  21.522   3.183
74333W        W42696   4.304  36.063   3.863
74334W        W42697  41.454  18.569  13.955
74335W        W42698  19.752  10.879  14.834
74336W        W42699  40.830   6.252  14.281
74337W        W42700  36.896  12.849  12.015
74338W        W42701  12.322  16.658  11.062
74339W        W42702  27.636   8.175   4.123
74340W        W42703  35.908  14.784   0.470
74341W        W42704  27.625  40.034  12.951
74342W        W42705  39.376  26.586   4.315
74343W        W42706  18.152  42.454   2.178
74344W        W42707  18.264   5.352   4.706
74345W        W42708  33.074   6.811  12.879
74346W        W42709  12.361   4.394  14.444
74347W        W42710  12.320  14.307   0.290
74348W        W42711  11.315  22.648  11.908
74349W        W42712  22.595  17.660   2.219
74350W        W42713  42.341   1.483  10.942
74351W        W42714  36.006  24.520   2.689
74352W        W42715   0.884   5.367  12.921
74353W        W42716  37.880  11.856   4.659
74354W        W42717  24.537  44.999   1.249
74355W        W42718  19.679  35.011  11.955
74356W        W42719  26.175  38.504  14.405
74357W        W42720   9.220  29.445   3.697
74358W        W42721   4.438  14.664  14.302
74359W        W42722   9.378  38.939  10.065
74360W        W42723  11.646  42.951  10.406
74361W        W42724  21.561  29.631  12.926
74362W        W42725  12.832   8.835   4.777
74363W        W42726   3.746  33.095  11.474
74364W        W42727  37.412  10.325   5.708
74365W        W42728  28.572  25.705   2.901
74366W        W42729  34.085  18.058  12.410
74367W        W42730  33.930  17.205  14.432
74368W        W42731  13.831  13.208   2.289
74369W        W42732  31.939   4.891   4.838
74370W        W42733  29.996   0.834   3.178
74371W        W42734   0.755  44.296  14.288
74372W        W42735  26.159  28.535  13.947
74373W        W42736  28.622   7.179  12.386
74374W        W42737  12.842   1.859   2.789
74375W        W42738  25.158  31.515   3.693
74376W        W42739  31.527  14.814   4.815
74377W        W42740  38.387  30.995  12.570
74378W        W42741  22.649  34.610  10.012
74379W        W42742  35.090  10.204   0.482
74380W        W42743  39.968  28.603   1.360
74381W        W42744  34.484  43.999  13.853
74382W        W42745  23.617  19.088   2.290
74383W        W42746  37.433   9.261  12.997
74384W        W42747  23.664  26.499   3.760
74385W        W42748  40.309  22.695  14.333
74386W        W42749  21.581  42.466   3.668
74387W        W42750  36.981  28.625  13.433
74388W        W42751  36.495   8.743   2.693
74389W        W42752   5.336  16.222  11.420
74390W        W42753  12.288  44.890   0.875
74391W        W42754  14.210  41.508   2.872
74392W        W42755  28.137  36.547  12.987
74393W        W42756   2.897  27.146   2.817
74394W        W42757  10.218  37.013  14.811
74395W        W42758  34.371  35.476   4.335
74396W        W42759  30.415  36.952  13.941
74397W        W42760   0.458   3.267   3.838
74398W        W42761  19.695   3.720   4.340
74399W        W42762  30.007  25.068   1.876
74400W        W42763   5.404  21.165   1.879
74401W        W42764   8.668  29.498   4.310
74402W        W42765  19.593  24.682   2.665
74403W        W42766  24.696  33.426  13.472
74404W        W42767  41.400  14.666  12.410
74405W        W42768  18.762  15.131   3.633
74406W        W42769  33.100   9.768   1.810
74407W        W42770  11.745  12.620   9.983
74408W        W42771  30.921  29.054   1.432
74409W        W42772   2.961  22.144   4.207
74410W        W42773  35.064  15.227   2.866
74411W        W42774  22.031   2.451   1.320
74412W        W42775  12.175  34.873   1.833
74413W        W42776  41.864  40.540  14.395
74414W        W42777   1.977   1.393  10.045
74415W        W42778  42.903  27.084   2.879
74416W        W42779  44.295  32.139  14.360
74417W        W42780  11.662   3.279   2.870
74418W        W42781  21.108  35.854  10.987
74419W        W42782  13.326  33.512  14.791
74420W        W42783  28.166  28.172   5.113
74421W        W42784   3.230  22.549  11.483
74422W        W42785  37.989  29.521   0.289
74423W        W42786  23.679  26.654  14.304
74424W        W42787  36.538   9.854   3.203
74425W        W42788  12.637  31.086   0.930
74426W        W42789  13.146  30.528   1.225
74427W        W42790  23.732  33.533   4.696
74428W        W42791  25.639  20.703  12.895
74429W        W42792  15.144   5.239  10.047
74430W        W42793   1.951   9.268  11.388
74431W        W42794   6.864   7.841  11.037
74432W        W42795  30.110  21.722   4.773
74433W        W42796  35.084  26.039   3.857
74434W        W42797  12.816  34.402   1.828
74435W        W42798  37.374  28.584  14.502
74436W        W42799   8.313  25.086   2.889
74437W        W42800   6.914  10.324  10.540
74438W        W42801  11.660  35.029  10.123
74439W        W42802  24.500  43.363  12.489
74440W        W42803  39.965  18.212  13.537
74441W        W42804  34.530   9.737   2.679
74442W        W42805  16.254  19.534   4.129
74443W        W42806   2.952   5.690  14.337
74444W        W42807   5.302  38.518  11.079
74445W        W42808  24.565   8.743   1.851
74446W        W42809   0.321  40.382  14.793
74447W        W42810   1.378  43.928   4.809
74448W        W42811   4.884  43.383   0.833
74449W        W42812  24.497  42.419   1.717
74450W        W42813  31.063  20.210  13.385
74451W        W42814  35.107  24.542   1.305
74452W        W42815  17.791  13.685   3.311
74453W        W42816  44.794  35.416  10.486
74454W        W42817  23.652  30.980  14.412
74455W        W42818  39.061   1.740  11.013
74456W        W42819  26.977  40.532   1.916
74457W        W42820  35.033  20.549  12.002
74458W        W42821  30.039  37.980   3.204
74459W        W42822  40.452  15.155   1.699
74460W        W42823  15.239  20.169   1.849
74461W        W42824  32.022   3.926  11.575
74462W        W42825  19.670   9.155   2.346
74463W        W42826  40.475   0.825  13.036
74464W        W42827  25.033   9.188  11.877
74465W        W42828  16.729  39.391   0.930
74466W        W42829   1.938  32.409  12.829
74467W        W42830   7.256  10.827  13.418
74468W        W42831  34.064  25.057   4.178
74469W        W42832   5.748  11.138   3.348
74470W        W42833  18.705  19.562   1.907
74471W        W42834  21.131  40.329   1.287
74472W        W42835  35.012  31.501   3.348
74473W        W42836  26.479  11.326   0.838
74474W        W42837  25.201  33.580   0.254
74475W        W42838  38.839  23.720  14.498
74476W        W42839  30.643  34.595  12.385
74477W        W42840   1.252  36.912  12.050
74478W        W42841  27.691  14.258   0.484
74479W        W42842  14.780  24.051  10.973
74480W        W42843  39.428   8.229   3.753
74481W        W42844   4.327  10.322  11.962
74482W        W42845  43.015  42.445   4.764
74483W        W42846  24.978  14.261  14.398
74484W        W42847   1.732  10.756   1.894
74485W        W42848  26.698  30.547  14.477
74486W        W42849  13.153  21.613  10.913
74487W        W42850  17.605   7.689  11.058
74488W        W42851  36.879  19.066   1.885
74489W        W42852  29.460  30.151  13.347
74490W        W42853  31.916  19.548  10.155
74491W        W42854  35.033  15.758   3.833
74492W        W42855  19.163  11.222   3.708
74493W        W42856  20.594  27.532   2.716
74494W        W42857  11.770   2.835   3.669
74495W        W42858  31.047  17.802   2.679
74496W        W42859  42.316  29.637  13.948
74497W        W42860  44.978  22.151   1.415
74498W        W42861  30.086  17.296  14.307
74499W        W42862  44.368  43.816   2.353
74500W        W42863   4.238  36.441   0.830
74501W        W42864  16.289  18.213   3.381
74502W        W42865  33.070  43.832   1.929
74503W        W42866  44.279  42.950   2.357
74504W        W42867  40.831  22.746  11.024
74505W        W42868   0.759  22.734  10.012
74506W        W42869   8.809  21.079  10.986
74507W        W42870  33.571  43.995   5.595
74508W        W42871  32.045  34.435   4.190
74509W        W42872  43.962  30.517  11.002
74510W        W42873  14.677  17.657  14.360
74511W        W42874  22.020   8.713  10.963
74512W        W42875  14.714  13.606   3.170
74513W        W42876  34.435  15.315   4.802
74514W        W42877  32.927   2.457   5.609
74515W        W42878   4.770   2.793   0.327
74516W        W42879   0.954  42.346  10.458
74517W        W42880  34.891  12.642  10.947
74518W        W42881   6.413  24.552   0.807
74519W        W42882   3.758  43.902   2.686
74520W        W42883   9.190  19.147  14.345
74521W        W42884  43.495   4.736  12.446
74522W        W42885  42.520  29.153  13.909
74523W        W42886  32.612   6.338   3.310
74524W        W42887  38.895  29.433   2.735
74525W        W42888  33.594  10.647  13.367
74526W        W42889  44.978  21.613   0.360
74527W        W42890   2.817   3.833  13.012
74528W        W42891  19.157  36.527   4.283
74529W        W42892  26.041  11.842  13.508
74530W        W42893  22.033  31.143  13.327
74531W        W42894  11.198  44.354  13.419
74532W        W42895  16.711  25.551  12.087
74533W        W42896  28.471  16.583   2.802
74534W        W42897  17.125  42.827   2.389
74535W        W42898  28.117  27.993  14.348
74536W        W42899   2.448  41.496  10.092
74537W        W42900   4.894   2.849  13.432
74538W        W42901   1.864  39.451   2.831
74539W        W42902   1.479  43.824  11.031
74540W        W42903  40.514   1.401  12.047
74541W        W42904  12.295  39.861   2.347
74542W        W42905   1.945  27.153   1.763
74543W        W42906  14.277  36.487  13.829
74544W        W42907   9.850  32.519   3.818
74545W        W42908  38.356  18.291  12.019
74546W        W42909  20.076  30.571   3.278
74547W        W42910  39.334   8.836   1.714
74548W        W42911   1.364   9.235   2.841
74549W        W42912   6.402  25.036   2.796
74550W        W42913  41.881  43.828  13.821
74551W        W42914   6.712  15.635   2.363
74552W        W42915  17.271  36.565   2.862
74553W        W42916   1.357  12.171   2.340
74554W        W42917  18.577  20.732   0.301
74555W        W42918   2.830  28.574   1.840
74556W        W42919  39.869  11.698   2.179
74557W        W42920   0.841  30.585   1.263
74558W        W42921  14.676   8.380  12.439
74559W        W42922  23.603  38.057  11.608
74560W        W42923  42.363  18.147  10.566
74561W        W42924  25.099   6.734  12.350
74562W        W42925  19.588  38.820  13.358
74563W        W42926  37.075  15.687   0.949
74564W        W42927  26.457  44.259   2.229
74565W        W42928  10.203   4.832   1.879
74566W        W42929  28.099  17.291   3.155
74567W        W42930  19.712  22.598  12.021
74568W        W42931   3.723  43.976  10.024
74569W        W42932  41.041   6.897  13.375
74570W        W42933  27.548   8.871   3.719
74571W        W42934  40.890  19.747  12.527
74572W        W42935   7.896  42.480  13.809
74573W        W42936  11.129  31.566   0.967
74574W        W42937  11.659  15.245   0.434
74575W        W42938  13.154  13.237   0.738
74576W        W42939  18.776  12.691  12.991
74577W        W42940  38.894  13.678  12.450
74578W        W42941  33.121   2.763  14.479
74579W        W42942  18.620  30.954  10.981
74580W        W42943  34.488  41.007   1.410
74581W        W42944  44.266  35.895  12.901
74582W        W42945   5.757   3.366  12.496
74583W        W42946  14.255   5.846   2.797
74584W        W42947  36.853  28.531   4.288
74585W        W42948  18.606   4.223  12.935
74586W        W42949  35.990  29.652   0.376
74587W        W42950  41.855  23.716   0.924
74588W        W42951  19.551  10.772   4.631
74589W        W42952  34.594   2.454   2.859
74590W        W42953  27.083  27.518  11.537
74591W        W42954  18.725  29.981   4.125
74592W        W42955  29.564  12.133   1.251
74593W        W42956  41.362  39.354  12.953
74594W        W42957  33.059  38.344   0.435
74595W        W42958  30.023  22.162   2.275
74596W        W42959  23.632  30.526   2.315
74597W        W42960   0.273  13.142   2.854
74598W        W42961  35.941  44.790  14.020
74599W        W42962  24.564  44.912   3.304
74600W        W42963  18.181   7.260  12.437
74601W        W42964  28.011  27.510   0.749
74602W        W42965   4.444  19.539  13.461
74603W        W42966  13.656  37.523   0.755
74604W        W42967  39.887  29.946  11.372
74605W        W42968   1.469  41.504  13.409
74606W        W42969  18.242  39.409   0.953
74607W        W42970   1.353  38.034   1.311
74608W        W42971  29.938   8.708  14.760
74609W        W42972  30.042  15.732  13.506
74610W        W42973  41.390   3.367  14.428
74611W        W42974   2.260  14.605   3.308
74612W        W42975  27.155  32.927   1.805
74613W        W42976  12.667   7.881  13.418
74614W        W42977  32.401  39.479   3.722
74615W        W42978  35.076  28.582  13.539
74616W        W42979  36.902   9.762  12.852
74617W        W42980   1.440  25.479   0.467
74618W        W42981   0.422   5.763  12.901
74619W        W42982   0.390  27.519   2.831
74620W        W42983   8.856   0.469  11.500
74621W        W42984  24.099  15.172   4.325
74622W        W42985   2.398  24.672  12.852
74623W        W42986  22.658  29.038   1.742
74624W        W42987  26.089  36.006   2.246
74625W        W42988   5.854   3.273   0.300
74626W        W42989  29.167   7.800   0.440
74627W        W42990   5.306  40.035   0.805
74628W        W42991  38.546  41.448   2.296
74629W        W42992  23.686  14.641   1.418
74630W        W42993  33.611  31.075  13.332
74631W        W42994  42.347   4.341  12.909
74632W        W42995  40.954  25.581   3.701
74633W        W42996  44.804  35.475  11.481
74634W        W42997  37.491  19.595  10.642
74635W        W42998   2.753  35.968  11.514
74636W        W42999   2.241  25.153   5.183
74637W        W43000  36.865  15.085  13.025
74638W        W43001  21.204  18.633   3.837
74639W        W43002  10.184   0.315   3.812
74640W        W43003  39.994  39.432  14.868
74641W        W43004  16.278   4.405   0.332
74642W        W43005  26.620  23.124  11.967
74643W        W43006  26.047   8.730   0.449
74644W        W43007   7.760  40.462  11.588
74645W        W43008   1.872  27.592   3.846
74646W        W43009  44.832  15.105   3.199
74647W        W43010  31.899  29.925   3.156
74648W        W43011  31.422  15.633  12.527
74649W        W43012  15.578  17.752   3.242
74650W        W43013  25.996  35.435  12.364
74651W        W43014  30.539   6.259   3.842
74652W        W43015   0.751  43.512  11.098
74653W        W43016   5.280   9.178  10.638
74654W        W43017  34.929  12.704   3.238
74655W        W43018  35.531  36.463  12.868
74656W        W43019  34.368  28.558  12.082
74657W        W43020  20.592  19.569  14.961
74658W        W43021   3.287   8.756   1.215
74659W        W43022   5.843  29.123  10.625
74660W        W43023  12.824  10.207  11.072
74661W        W43024  13.335  17.157  12.467
74662W        W43025  22.165  43.480   1.212
74663W        W43026  40.338  18.658   3.185
74664W        W43027  13.697  38.502  11.574
74665W        W43028  16.209   4.443  13.009
74666W        W43029  25.568  10.178  10.895
74667W        W43030   9.300  20.528   1.264
74668W        W43031  41.854  26.987  13.524
74669W        W43032  14.218  12.356  14.854
74670W        W43033  18.788   4.252   1.277
74671W        W43034  34.994  27.510   2.689
74672W        W43035  16.080  20.128   2.281
74673W        W43036   0.441  31.916  13.439
74674W        W43037  30.583  20.698  12.366
74675W        W43038  41.828  25.030   4.198
74676W        W43039  23.226   8.263  13.974
74677W        W43040  35.594  29.657  13.323
74678W        W43041  25.170  35.562   2.837
74679W        W43042  24.643  37.843  10.445
74680W        W43043  14.663  12.808  11.481
74681W        W43044  24.590   1.445   2.323
74682W        W43045   9.792  28.516  13.386
74683W        W43046  43.453   3.899   0.254
74684W        W43047  40.476  34.399  10.114
74685W        W43048  32.564  33.623  14.932
74686W        W43049   6.798  23.723   2.390
74687W        W43050  26.515  32.018  10.135
74688W        W43051  19.140  10.142  14.004
74689W        W43052  26.653   0.483   4.684
74690W        W43053  15.791  25.639  13.413
74691W        W43054  30.992  18.240   1.929
74692W        W43055  20.573  18.658  14.481
74693W        W43056  34.076  24.203   4.789
74694W        W43057   7.407  34.940   2.344
74695W        W43058  33.997  21.636   0.274
74696W        W43059  24.110  13.253  11.467
74697W        W43060  32.990  14.647  12.542
74698W        W43061  11.751  33.420   3.822
74699W        W43062  14.331  38.353   0.884
74700W        W43063   7.302   4.906  13.002
74701W        W43064  10.869  14.642  11.585
74702W        W43065  24.116  42.392  13.949
74703W        W43066  14.796  36.990   1.727
74704W        W43067   3.722  33.476   0.433
74705W        W43068   9.333  34.390  13.445
74706W        W43069  42.806  34.582  14.781
74707W        W43070  31.996   2.302   4.700
74708W        W43071  12.355   0.399  10.989
74709W        W43072  10.670  41.876   0.747
74710W        W43073  14.678   2.356  12.897
74711W        W43074  26.635  32.591  14.914
74712W        W43075  17.066  16.653  13.367
74713W        W43076   3.878  24.639  10.072
74714W        W43077  26.672  11.782  10.641
74715W        W43078  13.165  26.482   5.315
74716W        W43079  19.633  20.163  11.382
74717W        W43080  15.322   1.956  13.384
74718W        W43081  27.040  21.607   0.876
74719W        W43082  10.673  40.351   2.287
74720W        W43083  13.785   7.318   2.868
74721W        W43084  34.998  22.711   1.435
74722W        W43085   7.708  20.196   4.793
74723W        W43086  41.424  13.142   0.822
74724W        W43087  29.533  31.476   3.863
74725W        W43088  12.350  30.439  12.064
74726W        W43089  29.601  41.899  14.847
74727W        W43090   1.263  40.479  10.947
74728W        W43091   1.922  23.615  12.865
74729W        W43092   3.753   5.346  10.955
74730W        W43093  38.847  31.086   2.725
74731W        W43094   7.196  19.130   0.754
74732W        W43095  37.979  23.534  10.442
74733W        W43096  19.110   5.827   4.123
74734W        W43097  41.015   6.772  11.906
74735W        W43098  20.630  42.523  14.988
74736W        W43099   3.327  24.649   3.260
74737W        W43100   4.218  27.498  12.009
74738W        W43101  10.718  44.311  14.807
74739W        W43102  24.504  43.950  12.346
74740W        W43103  40.822  33.579  14.801
74741W        W43104  43.368   4.300  13.536
74742W        W43105  39.480  12.746   4.278
74743W        W43106   7.244  36.866  12.972
74744W        W43107  30.532  42.433   4.139
74745W        W43108  22.226  41.037   2.267
74746W        W43109  37.955  41.394   2.214
74747W        W43110  23.240   8.749   3.188
74748W        W43111   6.374  17.098  11.916
74749W        W43112   3.716  33.625  11.901
74750W        W43113   7.760  37.406  10.118
74751W        W43114   1.306  26.138  12.011
74752W        W43115  37.046  27.075   0.273
74753W        W43116  11.133  13.333   1.722
74754W        W43117  32.993  20.227   2.376
74755W        W43118  22.504  27.457  14.762
74756W        W43119  19.072  13.826   2.854
74757W        W43120  31.135  42.422   3.690
74758W        W43121  24.042  32.132  14.804
74759W        W43122  41.818   7.692   0.391
74760W        W43123  23.993  10.829  11.017
74761W        W43124  33.612  31.576   4.696
74762W        W43125   1.431   1.768   1.884
74763W        W43126  24.064  16.797   0.242
74764W        W43127   0.276  19.758   1.931
74765W        W43128  43.322   1.270   2.849
74766W        W43129  19.647  38.861  10.427
74767W        W43130   7.327   2.788   4.220
74768W        W43131  25.528   7.411   5.231
74769W        W43132  27.451   4.346   3.802
74770W        W43133   3.922  31.621  12.993
74771W        W43134  24.218  10.171  10.046
74772W        W43135  13.716  41.528  12.520
74773W        W43136  22.245  21.240  13.991
74774W        W43137  11.638  11.722  14.948
74775W        W43138  29.663   6.721  12.538
74776W        W43139   1.366  22.122  11.004
74777W        W43140   8.790  28.439  13.855
74778W        W43141  28.033  39.893   4.204
74779W        W43142  12.632   0.271  14.376
74780W        W43143  29.484  26.118  14.276
74781W        W43144   5.262   8.312   3.251
74782W        W43145   6.280  30.923   1.829
74783W        W43146  39.426  12.847   0.931
74784W        W43147  23.611  22.701   3.285
74785W        W43148  18.292  13.656   3.290
74786W        W43149   3.837   0.948  13.489
74787W        W43150  39.530  25.693  14.467
74788W        W43151   3.842   7.183   1.310
74789W        W43152  23.989  11.713  11.581
74790W        W43153   3.805  29.629  10.063
74791W        W43154  28.648  31.426  12.492
74792W        W43155  16.573  39.842   4.230
74793W        W43156  44.426  33.413  13.999
74794W        W43157  28.121  12.117  10.950
74795W        W43158  11.711  14.659   2.324
74796W        W43159  17.274  18.774   0.812
74797W        W43160  42.340   4.352  11.549
74798W        W43161   7.254   0.357   3.247
74799W        W43162  43.360  10.381  11.050
74800W        W43163  25.105  20.766  14.397
74801W        W43164  23.676  41.866  11.965
74802W        W43165  33.386  17.163   0.903
74803W        W43166  19.618  37.348  11.025
74804W        W43167  18.137  44.371   2.880
74805W        W43168  13.630  12.846  12.537
74806W        W43169  33.072  35.991  13.947
74807W        W43170  24.063  19.574   3.371
74808W        W43171  44.792  31.425   3.324
74809W        W43172  35.522  11.798   2.667
74810W        W43173   8.768   0.849  13.797
74811W        W43174   9.356  13.109   4.181
74812W        W43175   6.321  21.621  12.487
74813W        W43176  43.813  30.637  12.508
74814W        W43177  20.726   6.737   3.353
74815W        W43178  20.097  24.973   2.395
74816W        W43179  24.080   9.346  11.588
74817W        W43180  11.790  44.463  14.946
74818W        W43181  29.594  28.050   5.709
74819W        W43182  18.681  20.243  11.428
74820W        W43183  30.162  23.026  12.346
74821W        W43184   8.398   3.224   3.275
74822W        W43185  21.662  25.065  14.836
74823W        W43186  16.271  43.327   4.752
74824W        W43187  24.190  31.922   4.602
74825W        W43188  29.459  28.044   1.414
74826W        W43189  34.544   1.933  11.585
74827W        W43190  10.361  31.934   5.314
74828W        W43191  37.004  13.118   0.727
74829W        W43192  14.218  15.783  10.443
74830W        W43193  40.052   3.954   1.778
74831W        W43194  42.820  29.557   0.263
74832W        W43195  32.426   7.732   1.857
74833W        W43196  22.080  22.171  14.511
74834W        W43197  20.638  19.551  14.488
74835W        W43198  14.228  19.676   3.851
74836W        W43199  38.377  37.376   1.404
74837W        W43200  42.927  28.933  13.363
74838W        W43201  38.014  38.990  13.959
74839W        W43202  27.602   7.247  14.360
74840W        W43203  13.837  16.637  10.933
74841W        W43204  32.998  30.557   4.259
74842W        W43205  16.101   4.253   1.239
74843W        W43206  29.051  44.785   4.150
74844W        W43207   0.343  11.231   3.694
74845W        W43208   2.453  20.713  10.975
74846W        W43209   1.370  17.099   4.216
74847W        W43210  30.573  40.471  11.106
74848W        W43211  39.867  42.873   3.691
74849W        W43212   2.333  38.899  13.406
74850W        W43213  34.564  16.114  12.995
74851W        W43214   9.272  16.273  14.894
74852W        W43215  29.552  38.926   3.298
74853W        W43216  20.605  37.552   0.867
74854W        W43217  42.311  13.829   4.702
74855W        W43218  16.273  11.205  10.437
74856W        W43219  16.215  42.281   4.612
74857W        W43220  23.219  13.215  11.922
74858W        W43221  19.057  13.693  14.941
74859W        W43222   5.766  14.706  11.515
74860W        W43223  41.453  40.913   0.778
74861W        W43224   8.384   0.883   2.255
74862W        W43225  40.338   8.361  13.458
74863W        W43226   7.737  41.948   3.774
74864W        W43227  24.618  20.712   1.247
74865W        W43228  15.613  28.469  12.344
74866W        W43229  22.510  16.725   0.411
74867W        W43230  11.153   9.361  14.819
74868W        W43231   6.303   9.880   9.990
74869W        W43232  13.189  35.966   3.298
74870W        W43233  35.104  19.772   0.953
74871W        W43234  28.168  33.896  10.030
74872W        W43235  44.312  39.059  10.640
74873W        W43236  19.189  32.917   2.335
74874W        W43237  16.718  29.437   1.888
74875W        W43238  35.595  42.351  12.905
74876W        W43239  19.576  15.798  10.949
74877W        W43240  35.376  36.972   4.722
74878W        W43241  44.941  18.291  11.492
74879W        W43242  17.176  31.145  12.030
74880W        W43243   6.428  25.468   2.225
74881W        W43244  42.832  23.084   2.662
74882W        W43245  26.536  15.138  13.841
74883W        W43246  18.218  11.358   4.793
74884W        W43247  11.180  20.602   0.900
74885W        W43248  36.934  15.754   4.785
74886W        W43249   7.755  26.093  14.999
74887W        W43250  26.206   5.776   3.656
74888W        W43251  35.516   9.759   1.343
74889W        W43252  19.047   8.270  12.999
74890W        W43253  11.739  29.175  10.516
74891W        W43254  20.193  39.026  12.967
74892W        W43255  17.791  33.588   4.604
74893W        W43256  31.098   7.897  14.798
74894W        W43257  28.680   1.812  10.595
74895W        W43258  39.052  27.599  14.283
74896W        W43259  36.382  40.387   3.645
74897W        W43260  41.813  12.620  10.933
74898W        W43261  19.708  37.976   3.685
74899W        W43262  31.487  10.149  14.957
74900W        W43263  36.487  21.152  14.493
74901W        W43264  22.713  42.415  14.812
74902W        W43265  10.261  29.644   1.218
74903W        W43266  13.163  39.402   2.249
74904W        W43267  35.540  31.929   0.811
74905W        W43268   0.778  29.148   2.245
74906W        W43269   5.839  41.815   1.333
74907W        W43270  41.956  18.766   1.867
74908W        W43271   3.290  42.433   2.856
74909W        W43272  42.836  10.255   2.190
74910W        W43273   3.452  24.530   9.929
74911W        W43274   3.774   5.429   0.308
74912W        W43275  36.003  36.519  14.403
74913W        W43276   3.776  26.657  10.451
74914W        W43277   8.827  35.066  14.858
74915W        W43278  13.274   6.755   2.237
74916W        W43279  11.179  10.355   3.205
74917W        W43280   3.820  12.205   4.312
74918W        W43281  12.737  29.004   4.188
74919W        W43282  23.215  37.038  11.977
74920W        W43283  27.449  31.106  12.839
74921W        W43284   9.160   7.734  11.979
74922W        W43285   1.831  21.511  12.039
74923W        W43286   9.764   8.322   1.297
74924W        W43287  36.950  41.380  12.022
74925W        W43288  38.910  37.335   5.111
74926W        W43289  14.162  41.027  13.389
74927W        W43290  25.593  22.599  13.385
74928W        W43291  24.665  36.030   2.385
74929W        W43292  41.305  16.254  14.961
74930W        W43293  31.446  25.651   3.869
74931W        W43294   7.265  24.161   0.905
74932W        W43295   2.362  26.616   5.152
74933W        W43296  43.946  42.835   1.400
74934W        W43297  25.565  41.451  10.132
74935W        W43298  33.568   7.358  12.573
74936W        W43299  44.331   2.304   1.214
74937W        W43300  39.482  33.608  11.513
74938W        W43301   2.802  26.145   1.298
74939W        W43302  31.475   9.660  12.891
74940W        W43303  12.721   2.948  13.472
74941W        W43304   8.851   5.912   3.694
74942W        W43305  35.370  25.513   1.894
74943W        W43306  41.838  31.051  12.369
74944W        W43307  20.241  13.250   1.221
74945W        W43308  18.131  25.497  11.118
74946W        W43309  18.679  11.332  10.539
74947W        W43310  22.609  26.194  11.867
74948W        W43311  15.294   1.273   1.699
74949W        W43312  36.851  13.613  11.921
74950W        W43313  40.998  26.631   3.183
74951W        W43314  44.423  40.848  10.634
74952W        W43315  28.458  37.077  10.494
74953W        W43316  13.756  15.581  12.503
74954W        W43317  10.322   4.761  14.410
74955W        W43318  43.937  23.038  11.539
74956W        W43319  17.209  31.936  10.474
74957W        W43320  19.588  43.469  13.532
74958W        W43321  37.077  37.882   4.129
74959W        W43322  29.487  29.463   2.832
74960W        W43323  15.615  32.080  12.360
74961W        W43324  40.442  38.887  14.994
74962W        W43325  14.795  33.000  12.960
74963W        W43326   8.350  37.868   0.808
74964W        W43327   7.887   9.829  12.030
74965W        W43328  29.980  11.216   0.812
74966W        W43329  29.516  19.240  14.454
74967W        W43330  41.986  34.388   2.213
74968W        W43331  35.376  34.373  11.577
74969W        W43332  19.263  27.059  12.825
74970W        W43333  30.449  30.073   2.356
74971W        W43334  24.653  34.872  11.043
74972W        W43335  43.862  34.611   4.349
74973W        W43336  25.164  27.170  14.005
74974W        W43337  38.821   1.875  14.847
74975W        W43338  37.347  32.592  11.864
74976W        W43339  40.371  32.620   2.196
74977W        W43340   1.778   7.670   4.263
74978W        W43341  29.114  39.936   0.316
74979W        W43342  42.288  13.697  13.813
74980W        W43343  18.671  13.135   4.767
74981W        W43344  39.813   3.855   4.627
74982W        W43345   5.879  42.848  11.027
74983W        W43346   0.887  16.753   2.681
74984W        W43347  17.082  31.036   2.381
74985W        W43348  19.653  40.541  11.594
74986W        W43349  39.939  23.063  13.449
74987W        W43350  14.317  33.562  12.089
74988W        W43351  12.826  24.164  13.375
74989W        W43352   5.719   8.174  11.992
74990W        W43353  22.629   5.196   4.743
74991W        W43354  20.035  41.985   1.309
74992W        W43355  21.721   7.866  11.380
74993W        W43356  35.055  37.085  14.814
74994W        W43357   6.705  28.977  12.068
74995W        W43358  27.073   8.259   4.340
74996W        W43359  33.907  29.940  14.458
74997W        W43360   2.847  42.986   2.283
74998W        W43361   1.955   1.797   4.622
74999W        W43362   8.747  24.034   1.731
75000W        W43363  12.745  41.855  11.060
75001W        W43364   5.759  11.802   4.290
75002W        W43365  41.841  27.564  12.891
75003W        W43366  16.174  41.499   0.341
75004W        W43367  17.227  40.018   0.777
75005W        W43368  44.981  23.508   1.698
75006W        W43369   3.738  19.081  11.579
75007W        W43370  34.978   4.328  13.960
75008W        W43371  10.648   3.867   4.129
75009W        W43372  37.496   8.837   5.120
75010W        W43373  27.162  37.033   4.658
75011W        W43374  11.308   6.327   3.330
75012W        W43375   6.197  26.003   4.632
75013W        W43376  11.794  33.937   4.771
75014W        W43377  24.671  19.569  13.949
75015W        W43378   0.896  33.107  13.333
75016W        W43379  11.638  43.512   3.753
75017W        W43380  29.093  38.953  13.048
75018W        W43381  23.513  20.195   4.302
75019W        W43382  28.542  32.094   2.884
75020W        W43383  20.214  20.112   4.338
75021W        W43384  32.627   4.296  11.997
75022W        W43385  24.104   9.283  14.946
75023W        W43386   3.415  14.275  10.563
75024W        W43387  42.024  42.852  13.973
75025W        W43388  13.299  35.948   1.919
75026W        W43389  30.133  39.857   0.730
75027W        W43390   9.223  21.557  10.493
75028W        W43391  30.051  39.314  10.957
75029W        W43392  37.874  31.950  13.326
75030W        W43393  32.955  42.821   0.247
75031W        W43394   8.739  43.371   4.118
75032W        W43395  12.175  27.534   0.389
75033W        W43396  37.963  34.117  13.424
75034W        W43397  29.144   3.337   3.366
75035W        W43398  34.493  14.812   2.398
75036W        W43399   5.221  34.457   1.366
75037W        W43400   7.774  28.553   1.751
75038W        W43401  15.707  10.319   3.854
75039W        W43402  15.697  28.956   1.796
75040W        W43403  26.535  16.683  12.861
75041W        W43404  30.150  25.140   2.325
75042W        W43405  27.628   5.323  12.556
75043W        W43406  27.993  37.574   3.212
75044W        W43407  33.025  34.440   4.212
75045W        W43408   5.710  12.148   3.729
75046W        W43409  15.306   2.849   1.703
75047W        W43410  35.486   4.419  11.012
75048W        W43411  15.689  32.623   3.828
75049W        W43412  25.574  40.011   4.633
75050W        W43413  28.996  27.653   5.249
75051W        W43414  24.620   5.214  11.955
75052W        W43415  33.981  33.486  14.471
75053W        W43416  32.003  11.770   0.358
75054W        W43417  21.545   6.295  12.550
75055W        W43418  25.597   0.859  11.372
75056W        W43419  27.490  42.978  13.309
75057W        W43420   4.717  17.686  10.908
75058W        W43421  19.179  38.851   3.336
75059W        W43422  37.393  33.495   1.835
75060W        W43423  35.975  24.517   4.218
75061W        W43424  23.559  31.975   4.321
75062W        W43425   3.864  10.146  10.583
75063W        W43426  40.368  44.444   1.696
75064W        W43427  33.576  35.418  10.895
75065W        W43428  20.060   0.869   0.830
75066W        W43429  30.157  40.472  13.040
75067W        W43430  43.923  39.483   4.122
75068W        W43431   3.924  38.833   3.773
75069W        W43432  24.521   2.857  13.506
75070W        W43433   6.335   8.321  10.987
75071W        W43434  13.624  16.111  11.414
75072W        W43435  23.096   4.303  13.826
75073W        W43436   1.316   8.390  14.953
75074W        W43437  25.513   4.332  14.324
75075W        W43438  35.860   6.291   1.294
75076W        W43439   6.688  34.055   0.810
75077W        W43440   7.269  33.405   1.697
75078W        W43441  39.924  43.941  11.401
75079W        W43442  26.959  21.518  12.515
75080W        W43443  24.219  35.865   5.126
75081W        W43444  18.585  27.041  10.962
75082W        W43445  44.815   1.389  11.414
75083W        W43446  25.189  15.114  13.440
75084W        W43447   9.159  24.627  12.869
75085W        W43448  43.847  12.123  12.544
75086W        W43449  15.155   8.256   4.694
75087W        W43450  38.480   2.256  12.472
75088W        W43451  32.916   4.850   4.251
75089W        W43452  44.776  16.583  11.465
75090W        W43453  38.063   5.330   4.655
75091W        W43454   5.299  31.507  10.582
75092W        W43455  21.163  19.773  13.386
75093W        W43456  25.131  16.792   1.708
75094W        W43457  23.004  28.024   4.704
75095W        W43458  11.171   6.287  11.016
75096W        W43459  18.676  36.499   3.360
75097W        W43460   9.247  10.263  11.891
75098W        W43461  35.862  14.624   3.151
75099W        W43462  28.605  12.128   0.937
75100W        W43463  13.767   0.977  11.032
75101W        W43464  10.260  27.621  12.575
75102W        W43465   6.345  29.969  12.063
75103W        W43466  35.104  15.582   1.729
75104W        W43467  29.636  37.952  14.812
75105W        W43468  14.254   5.251  11.939
75106W        W43469  17.613   0.940  14.448
75107W        W43470  22.125   3.372  14.836
75108W        W43471  18.219  25.560  13.448
75109W        W43472  30.139  26.698   1.716
75110W        W43473   9.280  18.765  11.060
75111W        W43474   9.844  33.605   3.148
75112W        W43475  40.366   9.385   1.718
75113W        W43476  29.127  40.477   1.282
75114W        W43477  13.653   9.749  10.924
75115W        W43478  17.732  35.395  10.592
75116W        W43479  41.444  20.225   1.269
75117W        W43480  32.488  30.999  12.996
75118W        W43481  19.563  32.027  14.452
75119W        W43482  11.357  37.339   2.179
75120W        W43483  11.153  36.529   4.212
75121W        W43484  41.039   5.422   3.235
75122W        W43485  33.611   8.279   1.773
75123W        W43486  19.178  36.880  14.456
75124W        W43487  41.338  34.081   0.761
75125W        W43488  38.481  35.443   4.183
75126W        W43489   9.699  26.059   2.236
75127W        W43490  11.866  44.342   0.930
75128W        W43491  22.131   3.314  12.989
75129W        W43492  44.266  43.940  11.557
75130W        W43493  43.458  17.096   4.299
75131W        W43494  39.334  18.211  13.545
75132W        W43495  17.591  43.952  12.043
75133W        W43496   4.759   7.268   9.998
75134W        W43497  10.738  43.447   4.718
75135W        W43498   6.842  11.304  14.375
75136W        W43499  33.555  36.452  13.897
75137W        W43500   0.493   2.373   1.715
75138W        W43501  17.244  38.334  12.937
75139W        W43502  39.010  20.150   4.681
75140W        W43503  43.318  36.557  11.925
75141W        W43504  25.088  33.059   4.181
75142W        W43505  14.265  39.962   1.221
75143W        W43506  10.288  21.147  14.788
75144W        W43507  24.983  14.764   3.324
75145W        W43508   0.903  16.123   3.193
75146W        W43509  44.331   8.759  12.498
75147W        W43510   6.335  20.645   4.636
75148W        W43511   5.196  42.806   5.137
75149W        W43512   5.299  23.521   4.750
75150W        W43513  35.035   1.805  10.897
75151W        W43514   6.704  24.173   1.276
75152W        W43515  13.111   8.379   2.818
75153W        W43516  32.466  26.073   4.179
75154W        W43517  38.900  17.619  11.863
75155W        W43518  32.604  11.149   2.858
75156W        W43519  35.104   1.973  10.002
75157W        W43520   7.749  43.475  11.008
75158W        W43521  25.656  24.997  12.032
75159W        W43522   7.902   3.282  10.969
75160W        W43523   0.413   3.876   3.768
75161W        W43524  13.734  26.602   1.727
75162W        W43525  15.139  23.688   3.689
75163W        W43526   7.237  25.606  11.583
75164W        W43527  34.885  27.150   1.828
75165W        W43528  20.135  29.162   1.744
75166W        W43529   5.260  42.510  11.110
75167W        W43530  20.625   9.799  14.869
75168W        W43531  39.958  38.056  14.895
75169W        W43532  26.158  15.701   0.350
75170W        W43533   5.305  18.545   3.726
75171W        W43534  42.338  14.715  10.937
75172W        W43535  21.524  35.100   3.652
75173W        W43536  43.948  37.437  14.798
75174W        W43537  35.458   5.805  14.476
75175W        W43538   3.878  37.059  11.963
75176W        W43539  19.066  41.813   1.270
75177W        W43540  23.062  34.060  11.052
75178W        W43541  19.204   7.201   2.178
75179W        W43542  20.071   2.917   4.813
75180W        W43543   2.315  25.556   2.710
75181W        W43544   1.248  36.088   1.751
75182W        W43545   5.421  29.039  14.287
75183W        W43546  28.612  12.679   4.738
75184W        W43547  43.777  39.495   3.326
75185W        W43548  39.527  22.544   4.333
75186W        W43549   0.338  25.497   1.446
75187W        W43550  19.763  27.453  11.419
75188W        W43551   4.429  44.398  13.341
75189W        W43552   4.412   1.458  10.902
75190W        W43553  32.094  10.770  12.017
75191W        W43554  40.491  23.490  12.040
75192W        W43555  25.184   6.210   2.896
75193W        W43556  31.492  41.985   3.285
75194W        W43557  44.272  18.688   3.823
75195W        W43558  39.352   4.410   4.665
75196W        W43559  14.194  41.423  12.833
75197W        W43560   5.398  19.534  13.530
75198W        W43561   9.337   1.943   4.836
75199W        W43562  20.085  11.846  12.015
75200W        W43563  44.927   2.759  11.000
75201W        W43564  29.927  28.182  11.985
75202W        W43565  24.685  34.934   2.267
75203W        W43566  35.862  35.531   3.304
75204W        W43567  24.489  44.374   1.361
75205W        W43568   2.242   8.402   1.911
75206W        W43569  33.540  41.304   3.293
75207W        W43570  21.038   9.179   2.885
75208W        W43571   7.261  23.042   3.664
75209W        W43572  22.677   5.419  12.938
75210W        W43573  26.570   2.837   2.895
75211W        W43574  26.112  42.444   4.735
75212W        W43575   9.730  15.156  14.996
75213W        W43576  13.800  20.647   3.713
75214W        W43577  35.983  44.980   3.729
75215W        W43578   8.883  39.979   1.908
75216W        W43579  25.102  18.287   4.237
75217W        W43580  35.977  18.753   0.872
75218W        W43581  12.157  38.029   0.841
75219W        W43582  44.429  22.184  14.454
75220W        W43583  43.272  43.874  14.825
75221W        W43584  17.278  42.486   0.401
75222W        W43585  28.983  36.468   3.736
75223W        W43586  27.991  37.349   0.323
75224W        W43587  25.559  40.031   3.684
75225W        W43588  17.064   0.925   2.384
75226W        W43589  26.534  40.824   1.829
75227W        W43590  15.745  18.127  14.484
75228W        W43591  28.525   7.173  12.071
75229W        W43592  41.324   5.362   0.309
75230W        W43593  18.167  28.975  11.870
75231W        W43594  14.596  27.467   2.370
75232W        W43595   5.397   6.848   2.179
75233W        W43596   2.389  32.406   0.748
75234W        W43597   2.400  26.506   4.236
75235W        W43598   2.954  33.044   4.115
75236W        W43599   9.217   5.337   3.691
75237W        W43600  43.008  22.246  14.365
75238W        W43601  17.229  37.545   0.310
75239W        W43602  25.976  16.239   3.768
75240W        W43603  35.524  21.713   2.323
75241W        W43604   7.909   0.407   9.988
75242W        W43605  34.433  40.870  11.901
75243W        W43606  35.573  20.071  14.330
75244W        W43607  15.735   3.761  14.474
75245W        W43608  44.344  29.522   2.761
75246W        W43609   2.742  33.600   1.223
75247W        W43610  10.633   7.818  13.921
75248W        W43611  19.681   9.296   0.869
75249W        W43612   1.361  32.597   0.465
75250W        W43613   8.845   2.793   2.243
75251W        W43614   6.923  14.125  14.282
75252W        W43615   3.241  23.729  13.450
75253W        W43616  24.176  22.082   0.903
75254W        W43617  14.617  32.117  10.439
75255W        W43618   2.423   0.367   1.332
75256W        W43619  43.791  27.685   0.298
75257W        W43620  26.137  13.237   4.289
75258W        W43621  28.099  21.682   1.312
75259W        W43622   6.683  36.021  12.462
75260W        W43623  43.837  24.694   3.342
75261W        W43624   4.723  15.764   3.235
75262W        W43625  21.154  33.876   4.807
75263W        W43626   7.383  19.598   1.791
75264W        W43627   3.765  28.478  12.352
75265W        W43628  36.374   0.314  12.367
75266W        W43629  15.290  39.443   4.736
75267W        W43630  32.431   5.244  12.955
75268W        W43631  13.620  33.100   3.681
75269W        W43632  36.362  33.595   2.255
75270W        W43633  34.032   6.691   4.186
75271W        W43634  15.229   1.311  14.447
75272W        W43635  34.961  22.087  14.956
75273W        W43636  21.708  19.572   4.195
75274W        W43637  42.481   4.265  13.898
75275W        W43638   2.472  36.951   2.897
75276W        W43639   8.881  26.960  10.989
75277W        W43640  12.268  37.984  14.975
75278W        W43641  22.210  26.083   3.272
75279W        W43642   0.815   5.862  11.399
75280W        W43643  11.803  10.140  11.528
75281W        W43644  33.572  15.128   4.821
75282W        W43645  19.757   5.858  11.909
75283W        W43646  29.555   8.233   2.221
75284W        W43647  38.443  23.190   2.323
75285W        W43648  29.059  43.961   1.267
75286W        W43649  23.057  14.108   0.285
75287W        W43650   4.898  23.004   4.787
75288W        W43651   0.342  10.230  10.495
75289W        W43652  27.564  41.357  13.344
75290W        W43653   2.369   5.365   0.416
75291W        W43654   2.450  19.759   2.341
75292W        W43655   2.354  32.009  14.944
75293W        W43656  39.377   5.783  14.979
75294W        W43657   3.912  42.466  11.580
75295W        W43658  30.046  40.524  11.603
75296W        W43659  20.227  26.136  14.410
75297W        W43660   9.808   0.824   2.285
75298W        W43661  42.938  34.964  11.375
75299W        W43662  40.451  18.791  11.018
75300W        W43663  23.026  18.138   4.119
75301W        W43664  41.801  22.659  14.487
75302W        W43665  37.465   3.302  14.009
75303W        W43666  18.709  17.297   0.347
75304W        W43667   9.309  24.561   4.671
75305W        W43668  10.267   1.324   1.261
75306W        W43669  13.113  28.603  14.429
75307W        W43670  18.293  16.107  14.876
75308W        W43671  20.574  39.046  11.953
75309W        W43672  29.555  35.999  13.488
75310W        W43673  41.876  41.866  12.865
75311W        W43674  34.533   5.432  10.501
75312W        W43675  42.869  43.000  12.947
75313W        W43676  21.642   2.779   0.807
75314W        W43677  35.532  39.499  10.889
75315W        W43678  38.047   8.163   4.797
75316W        W43679  17.690  38.326  12.042
75317W        W43680   7.856  42.823  14.773
75318W        W43681  34.917  43.285   3.304
75319W        W43682  18.624  15.290  11.572
75320W        W43683  25.625  13.614  11.870
75321W        W43684   2.763  26.591   4.619
75322W        W43685  34.450  17.237  14.356
75323W        W43686  41.875  21.580  13.824
75324W        W43687  25.609  39.064   5.299
75325W        W43688  10.360   6.735   3.694
75326W        W43689  36.502   4.891   3.834
75327W        W43690  33.559  24.515   3.790
75328W        W43691   9.206  42.840  14.876
75329W        W43692  16.594  25.540  12.537
75330W        W43693  28.034  16.575  13.976
75331W        W43694  42.881   7.339   3.237
75332W        W43695  20.203  22.629   1.409
75333W        W43696   2.238  42.891   9.956
75334W        W43697  22.620  13.156  14.479
75335W        W43698  14.590  36.017  13.796
75336W        W43699  27.631  40.897   3.727
75337W        W43700   2.309  10.254  14.847
75338W        W43701  38.425  12.329   2.260
75339W        W43702  31.616  30.139  13.472
75340W        W43703  32.069  33.493  14.456
75341W        W43704  21.157  34.046  14.934
75342W        W43705  36.386  37.471  12.063
75343W        W43706  13.663  29.434   1.274
75344W        W43707  28.147  18.107   0.319
75345W        W43708   7.357  16.316   0.421
75346W        W43709  21.704  31.047  14.823
75347W        W43710   8.797  38.544   2.342
75348W        W43711  21.224  11.831  14.902
75349W        W43712  21.679  34.114   1.753
75350W        W43713  31.625  20.603  11.566
75351W        W43714   4.742   2.397   3.650
75352W        W43715  24.650  20.722  11.053
75353W        W43716  37.387  16.179   1.812
75354W        W43717  27.098   7.411  11.495
75355W        W43718  10.255   8.162  10.948
75356W        W43719  29.581  18.677  14.945
75357W        W43720  14.832  42.321  11.610
75358W        W43721  26.493  41.791  12.430
75359W        W43722  33.398   5.848  13.879
75360W        W43723   7.204  10.187   3.651
75361W        W43724  39.459  10.183   4.612
75362W        W43725   4.410  42.798   0.478
75363W        W43726   7.396  37.841  11.861
75364W        W43727   2.255   9.271   3.242
75365W        W43728  26.560  13.172  13.877
75366W        W43729   9.671  12.305   3.356
75367W        W43730  14.145  14.338   9.946
75368W        W43731  38.015  34.991   0.450
75369W        W43732  11.323   2.873  11.999
75370W        W43733  27.013  14.614   2.850
75371W        W43734   3.910  44.757  11.929
75372W        W43735   1.395   6.414  12.844
75373W        W43736  39.316   2.309   3.765
75374W        W43737   3.884  15.796   1.301
75375W        W43738  34.604   7.290   4.151
75376W        W43739  22.033   8.719  10.563
75377W        W43740   4.427   4.843   1.776
75378W        W43741   3.716  42.412   3.365
75379W        W43742   9.874   7.792   1.724
75380W        W43743  35.506  30.142   0.903
75381W        W43744  10.736  11.131  13.831
75382W        W43745  14.167  18.288   1.356
75383W        W43746  13.134  13.263  10.895
75384W        W43747   3.906   9.379   4.314
75385W        W43748  29.496  37.860   1.321
75386W        W43749   7.292   0.343  13.324
75387W        W43750  18.630  16.092   1.845
75388W        W43751   8.686  22.558   1.326
75389W        W43752  40.456  10.224   1.232
75390W        W43753  11.730   1.782   3.169
75391W        W43754   3.446  12.806  12.341
75392W        W43755  32.049  28.040  14.358
75393W        W43756   4.238  41.453   3.830
75394W        W43757  18.224   1.399   4.607
75395W        W43758  42.382  41.881   3.175
75396W        W43759  26.021  21.513  14.013
75397W        W43760  20.246  27.064  12.377
75398W        W43761  36.054   5.418  10.960
75399W        W43762  24.130  35.962   2.351
75400W        W43763  38.921  24.650   0.751
75401W        W43764  25.666  25.084   0.967
75402W        W43765  12.156  38.457   2.836
75403W        W43766   9.218  30.113  13.436
75404W        W43767  16.133  41.838   4.162
75405W        W43768  28.057  19.550  13.531
75406W        W43769  38.453  14.765  13.483
75407W        W43770  43.329   2.442   2.355
75408W        W43771  43.836  16.709   4.770
75409W        W43772  14.204   3.738   5.294
75410W        W43773   3.781  38.916  10.909
75411W        W43774  12.268  15.275   3.851
75412W        W43775   6.795  40.965   0.870
75413W        W43776  16.170  42.920   3.785
75414W        W43777  13.135  30.935   3.384
75415W        W43778  42.911  41.037  14.011
75416W        W43779  30.475   4.743   3.302
75417W        W43780  14.710  14.319  11.548
75418W        W43781  16.144  44.427   5.320
75419W        W43782  35.962   7.317   3.737
75420W        W43783  40.441  21.227  14.402
75421W        W43784  22.652  28.155   3.692
75422W        W43785  36.959  32.517  12.376
75423W        W43786  26.466  30.103  14.472
75424W        W43787  24.134  27.097  11.081
75425W        W43788   9.266  11.813  10.943
75426W        W43789  40.454  19.145  11.052
75427W        W43790  27.482   5.891  11.891
75428W        W43791  21.739  27.048   1.314
75429W        W43792  30.088   0.425  11.060
75430W        W43793  24.052  38.837  12.866
75431W        W43794  12.193   3.922  10.521
75432W        W43795  16.631  14.748   0.773
75433W        W43796  17.210  44.823   1.909
75434W        W43797  36.094  44.494  13.894
75435W        W43798  34.884  38.409   3.249
75436W        W43799  37.563  43.908  14.377
75437W        W43800  28.546  32.473   4.166
75438W        W43801   8.824  16.227  10.993
75439W        W43802  42.990  32.587   0.304
75440W        W43803  28.132   6.753   3.175
75441W        W43804  22.658  36.037   1.782
75442W        W43805   6.703   6.760   2.239
75443W        W43806  32.494  13.152   1.711
75444W        W43807  13.681  29.076   3.175
75445W        W43808  37.033  42.289   4.807
75446W        W43809  19.699  34.883   4.613
75447W        W43810  32.944  21.533  14.298
75448W        W43811  20.733  17.576  12.005
75449W        W43812  22.502   2.371   0.868
75450W        W43813  40.424  20.760  12.990
75451W        W43814  36.454  39.323  12.006
75452W        W43815  29.551   9.765  14.988
75453W        W43816   9.285  27.048  14.774
75454W        W43817  39.862  23.506  12.921
75455W        W43818  33.936  22.696  10.585
75456W        W43819  21.129  35.959  13.865
75457W        W43820  31.972  29.641   1.401
75458W        W43821  11.230  29.590   2.822
75459W        W43822   3.894  11.218  14.971
75460W        W43823  24.090  32.407  10.626
75461W        W43824   5.838  42.417   0.903
75462W        W43825   7.320  11.333  11.873
75463W        W43826   2.361  22.661   2.662
75464W        W43827  20.547  27.089  13.374
75465W        W43828  25.999  37.083   2.676
75466W        W43829  33.119   9.248   0.269
75467W        W43830  10.678  43.900   3.244
75468W        W43831   6.771  14.614   3.795
75469W        W43832   4.399  35.421   4.292
75470W        W43833  31.634   0.797   1.725
75471W        W43834  13.640   2.466   1.420
75472W        W43835  39.481  26.515  10.591
75473W        W43836  13.158  39.862  14.368
75474W        W43837  18.056  18.213  10.577
75475W        W43838  26.184  26.168   2.213
75476W        W43839   4.243  29.481   0.263
75477W        W43840  40.005  34.482  10.955
75478W        W43841  24.653   7.353  13.947
75479W        W43842  11.839  39.061   2.825
75480W        W43843  44.429  21.158  12.020
75481W        W43844  40.940  44.840  14.787
75482W        W43845  41.803  17.120  14.358
75483W        W43846  10.300  35.988   3.171
75484W        W43847   3.909  21.212  13.001
75485W        W43848  33.078   7.762  10.628
75486W        W43849  32.628   2.808   4.177
75487W        W43850  18.760  17.181  13.840
75488W        W43851  33.622  31.912   0.729
75489W        W43852  15.283  33.432   2.769
75490W        W43853  16.628  13.720   3.353
75491W        W43854   2.459  30.073  10.404
75492W        W43855  41.347  38.495  14.811
75493W        W43856  42.781  30.615  11.074
75494W        W43857  29.526  34.509  13.494
75495W        W43858   1.767  17.230   3.770
75496W        W43859   8.197  38.460   4.691
75497W        W43860   3.866   6.349  13.044
75498W        W43861  29.997  11.279  13.956
75499W        W43862  13.642  30.502  14.907
75500W        W43863  33.613  41.514   2.417
75501W        W43864  19.537  35.029  14.380
75502W        W43865  28.660  13.770  10.453
75503W        W43866  32.614  21.684   4.721
75504W        W43867  38.364  23.526  11.055
75505W        W43868  33.885   6.709   1.889
75506W        W43869   1.842  10.759  14.870
75507W        W43870  11.662   1.408   0.849
75508W        W43871  17.186  42.805  11.407
75509W        W43872  44.960  44.308  13.381
75510W        W43873  28.060  38.834   3.691
75511W        W43874  24.171  33.546   5.122
75512W        W43875  14.222  42.459   0.413
75513W        W43876  27.014   6.766  10.970
75514W        W43877  15.090  12.253   4.786
75515W        W43878  36.867  40.015   0.355
75516W        W43879  31.034  15.788  13.793
75517W        W43880  19.264  25.648   2.706
75518W        W43881   1.945  28.112   1.918
75519W        W43882  12.287  24.164  11.081
75520W        W43883  11.159  24.666   4.324
75521W        W43884  25.179  43.276  13.827
75522W        W43885   5.200  44.940   9.658
75523W        W43886  31.921  43.420   3.152
75524W        W43887  38.876  22.671   3.749
75525W        W43888  38.473  38.891   2.789
75526W        W43889  28.086  38.476   4.303
75527W        W43890  28.148   2.389   0.904
75528W        W43891   3.275  26.554  11.105
75529W        W43892  11.204  29.551   4.729
75530W        W43893   5.898   2.266  14.306
75531W        W43894   2.352  31.470   3.802
75532W        W43895  31.604  43.339   3.165
75533W        W43896  38.569  18.617  13.537
75534W        W43897  38.985  44.368   1.329
75535W        W43898  20.675  32.512  11.401
75536W        W43899  25.635   2.820   4.618
75537W        W43900  29.573   6.889  13.052
75538W        W43901  13.159  12.761   2.709
75539W        W43902  13.289  13.201  11.905
75540W        W43903  38.877  28.031   4.835
75541W        W43904  42.284  31.475   2.829
75542W        W43905  25.657  23.059  13.910
75543W        W43906  42.786  11.281  12.417
75544W        W43907  27.480  28.095   2.266
75545W        W43908  30.520  31.501   1.231
75546W        W43909   3.336   9.876   3.640
75547W        W43910  23.684   7.816  12.998
75548W        W43911  31.006  15.269   1.893
75549W        W43912  14.131   5.726   4.264
75550W        W43913   9.310   8.746   2.284
75551W        W43914  43.343   8.244  13.417
75552W        W43915  18.634  22.009   4.762
75553W        W43916  18.113  27.966  13.012
75554W        W43917   8.776   2.841  12.076
75555W        W43918   9.827  24.990   2.725
75556W        W43919  20.101  26.494   1.259
75557W        W43920  18.108  13.688   0.883
75558W        W43921  39.324  29.558  11.590
75559W        W43922  17.724  18.600   5.219
75560W        W43923  24.683   5.422  12.839
75561W        W43924   1.247  30.013   4.627
75562W        W43925  21.562   2.841   1.437
75563W        W43926   6.908  44.977   1.323
75564W        W43927  30.936  22.013  12.027
75565W        W43928   5.731  20.711  11.585
75566W        W43929  26.531  39.417  10.550
75567W        W43930  30.474  12.171   3.648
75568W        W43931  34.938   1.256   4.224
75569W        W43932   6.248  14.795  14.980
75570W        W43933  43.834  35.576   5.615
75571W        W43934  37.946  39.365   4.620
75572W        W43935  37.869  14.690   1.714
75573W        W43936  19.704  30.129  10.513
75574W        W43937  21.581  34.906   0.917
75575W        W43938   8.294  35.451   2.868
75576W        W43939  23.681  36.453  11.069
75577W        W43940  12.267  16.779   3.834
75578W        W43941  21.177   7.372  11.045
75579W        W43942   6.861  40.880  12.369
75580W        W43943   6.738  14.252  11.876
75581W        W43944  28.012   9.850   4.823
75582W        W43945   9.350   1.478  13.930
75583W        W43946  41.979   4.905  13.957
75584W        W43947  36.400  21.147   1.422
75585W        W43948  41.810  16.073  13.969
75586W        W43949  26.031  10.682   4.312
75587W        W43950  32.932   6.913  11.427
75588W        W43951  25.653  28.569   0.277
75589W        W43952  25.584  23.617   1.788
75590W        W43953   0.936   1.264  13.972
75591W        W43954  34.991   3.223   4.632
75592W        W43955   1.314  16.679   0.378
75593W        W43956  13.716  11.801   2.800
75594W        W43957  10.819   6.746   1.801
75595W        W43958  16.308  32.109   0.824
75596W        W43959  28.104  27.111   1.277
75597W        W43960   2.796   3.456  13.361
75598W        W43961  41.325  34.470   1.892
75599W        W43962  32.510  12.131   4.343
75600W        W43963   5.867  25.968   4.711
75601W        W43964  33.059  35.417   0.895
75602W        W43965  29.518  31.499  13.437
75603W        W43966  44.395  10.859   1.843
75604W        W43967   9.736  38.523  11.105
75605W        W43968  28.540  35.514  14.983
75606W        W43969  19.749   5.701  14.977
75607W        W43970  10.235  23.030  13.848
75608W        W43971  12.219  20.128  13.975
75609W        W43972  12.170  35.035   4.263
75610W        W43973  13.790   8.259   0.307
75611W        W43974  14.335  42.463  14.944
75612W        W43975  40.427  27.120  12.012
75613W        W43976  19.063  43.320  14.965
75614W        W43977  31.896   2.365  14.903
75615W        W43978  44.816   8.707   5.210
75616W        W43979   8.353  40.820  13.416
75617W        W43980   4.888   2.955  14.916
75618W        W43981  19.118  38.954   4.151
75619W        W43982  43.782  25.556  14.836
75620W        W43983  26.634  41.915   2.843
75621W        W43984  41.849  23.041   1.776
75622W        W43985  24.100   0.403  14.309
75623W        W43986  32.420   9.741  14.438
75624W        W43987  24.585  20.153  11.908
75625W        W43988  27.061   2.880   3.776
75626W        W43989  39.413  21.167  12.491
75627W        W43990  40.394  26.563   5.096
75628W        W43991  22.191  24.975   2.276
75629W        W43992  24.581  27.648   1.781
75630W        W43993  44.844  37.999   4.814
75631W        W43994   0.981   9.207  13.904
75632W        W43995  43.397  17.795   2.691
75633W        W43996  44.486  35.954  10.046
75634W        W43997  34.041   5.231  11.481
75635W        W43998  17.248  41.860   5.191
75636W        W43999  28.580  11.147   0.777
75637W        W44000  37.040  31.563   1.706
75638W        W44001  38.408   9.657  11.392
75639W        W44002  12.749  32.508   2.785
75640W        W44003  34.990  30.084  13.935
75641W        W44004  12.182  36.357  14.358
75642W        W44005  18.582   2.332  14.896
75643W        W44006   4.289   4.356  10.610
75644W        W44007  30.009   0.289  13.952
75645W        W44008  43.967  34.870   4.692
75646W        W44009  29.564  39.889  12.343
75647W        W44010  23.725  13.215  10.426
75648W        W44011  20.177   7.796   4.752
75649W        W44012  28.519  14.697  13.482
75650W        W44013  22.044  32.492   1.250
75651W        W44014  30.931  42.967  11.582
75652W        W44015  44.470  23.038  13.823
75653W        W44016  19.124  15.671   1.414
75654W        W44017  19.545   9.695   4.808
75655W        W44018  17.694  30.569   4.189
75656W        W44019   9.724  29.158  10.499
75657W        W44020  12.767   9.276   4.194
75658W        W44021  25.643  44.477   1.308
75659W        W44022  18.595  18.777  10.950
75660W        W44023  23.069  37.982  12.536
75661W        W44024  32.608  32.487  14.902
75662W        W44025   8.839   4.708   1.803
75663W        W44026  21.135   7.338  13.520
75664W        W44027   4.355  11.712   4.647
75665W        W44028  15.593  22.586   0.909
75666W        W44029   0.449  28.965   1.366
75667W        W44030  36.401  38.025   3.335
75668W        W44031  15.606  22.572  14.296
75669W        W44032  11.367   1.264  11.026
75670W        W44033  27.680  25.056   3.327
75671W        W44034  15.317   3.743  11.105
75672W        W44035  10.727  10.311   5.238
75673W        W44036  16.166  34.547  13.476
75674W        W44037  20.231   9.343  14.292
75675W        W44038  26.042   8.895   4.757
75676W        W44039   7.185  26.154  13.053
75677W        W44040  27.967  39.953   3.801
75678W        W44041  14.230  40.476   0.769
75679W        W44042  24.111  39.985  13.958
75680W        W44043  43.810  25.652   0.418
75681W        W44044   9.251  41.933   2.851
75682W        W44045  29.540  34.552   2.715
75683W        W44046  26.146   9.261   3.691
75684W        W44047  38.992  21.124   9.971
75685W        W44048  13.109  43.898  11.897
75686W        W44049  32.506   7.821  12.417
75687W        W44050  23.096  19.596   3.207
75688W        W44051  18.764  24.713  10.577
75689W        W44052  31.488   4.273   1.282
75690W        W44053   6.234   7.414   4.162
75691W        W44054  29.146  13.284   0.866
75692W        W44055  23.659  17.722  12.349
75693W        W44056  43.805  20.672   0.414
75694W        W44057  28.011   7.287  14.767
75695W        W44058  30.005  39.535  10.458
75696W        W44059  34.109   8.753  11.940
75697W        W44060  29.017  19.604   0.852
75698W        W44061  27.629   9.334   2.692
75699W        W44062  33.877  30.489   3.756
75700W        W44063  12.138  39.455   4.281
75701W        W44064  24.139   9.244   0.287
75702W        W44065  43.883  33.973   4.702
75703W        W44066  26.542  20.201   2.880
75704W        W44067  22.170   4.321  14.032
75705W        W44068   3.780  41.900   1.435
75706W        W44069  41.526  18.126  10.594
75707W        W44070  32.040  30.089  14.020
75708W        W44071  36.357  24.651   3.311
75709W        W44072  41.476  44.761   1.780
75710W        W44073  21.079  35.014   2.281
75711W        W44074  28.931   3.461  14.321
75712W        W44075   1.475  39.936   0.474
75713W        W44076  29.496  12.275  11.058
75714W        W44077  21.214   5.733  11.948
75715W        W44078  28.020  22.576  10.472
75716W        W44079  21.218   3.730   1.435
75717W        W44080  23.513  42.467  12.517
75718W        W44081  23.666  39.939  10.497
75719W        W44082  36.083  16.715   3.148
75720W        W44083   1.923  27.000  10.926
75721W        W44084  43.898  10.237  14.436
75722W        W44085  22.024   5.408   1.721
75723W        W44086  34.506  17.121  10.528
75724W        W44087   9.842  42.363  11.925
75725W        W44088  25.980  30.937   4.644
75726W        W44089  22.021  43.444  13.844
75727W        W44090  36.077  18.611  11.578
75728W        W44091   7.193  16.154  13.344
75729W        W44092  28.105  10.146   2.261
75730W        W44093  19.682  36.090  12.555
75731W        W44094  33.131  20.523  14.021
75732W        W44095  17.223  40.309   0.870
75733W        W44096  19.689  37.474   2.842
75734W        W44097  17.616   3.882  13.855
75735W        W44098  17.561  25.079   0.349
75736W        W44099   7.357  15.671  10.569
75737W        W44100  28.589  30.626  13.038
75738W        W44101   3.395  39.847  12.829
75739W        W44102  24.660  39.820  11.459
75740W        W44103   4.709  37.853   2.701
75741W        W44104  25.665  16.131   0.811
75742W        W44105  16.636   4.751   4.770
75743W        W44106   7.260   4.815   1.930
75744W        W44107  42.778  41.850   0.864
75745W        W44108   1.773  39.021   0.283
75746W        W44109   0.430   7.899   2.732
75747W        W44110  43.923  37.058   2.811
75748W        W44111   6.247  22.501  10.455
75749W        W44112  41.331  19.661   4.188
75750W        W44113  12.213  31.020  12.072
75751W        W44114  26.175  24.641   3.276
75752W        W44115  14.814   4.710   2.337
75753W        W44116   6.412  33.970   4.348
75754W        W44117  17.661   7.213  12.087
75755W        W44118  26.199  16.567  14.354
75756W        W44119   7.403  21.065   4.806
75757W        W44120  41.421   8.166  13.516
75758W        W44121  13.159   5.868   0.894
75759W        W44122  18.105  30.506  11.916
75760W        W44123  31.454   7.357   2.371
75761W        W44124  17.653  23.028  12.087
75762W        W44125   8.360   5.722  12.373
75763W        W44126  43.977   6.379  10.448
75764W        W44127  36.496  13.682  10.916
75765W        W44128  10.759  28.033  12.527
75766W        W44129  13.178  17.768   0.367
75767W        W44130  40.501  18.291  13.382
75768W        W44131  42.863  15.116  11.429
75769W        W44132  13.172   7.343  11.550
75770W        W44133  43.317  27.543   2.749
75771W        W44134  35.932  13.816   4.233
75772W        W44135  12.185  10.181   2.741
75773W        W44136   9.692  38.899  12.418
75774W        W44137  33.597   8.178  13.388
75775W        W44138  30.638  35.884   1.224
75776W        W44139   3.334  28.057   5.158
75777W        W44140  38.892  38.477  12.530
75778W        W44141  13.753  19.642   0.788
75779W        W44142  20.255  32.422  12.562
75780W        W44143  10.365  38.571   5.270
75781W        W44144  31.408   1.784   3.156
75782W        W44145  10.169   6.766   1.386
75783W        W44146   1.801  35.557  12.554
75784W        W44147  28.985  35.369  13.382
75785W        W44148  17.257  15.290  10.485
75786W        W44149  22.233   0.425   3.787
75787W        W44150  29.460  18.129   3.291
75788W        W44151   5.407   6.338  11.379
75789W        W44152  28.612  21.072   2.831
75790W        W44153  13.721  44.984  13.323
75791W        W44154  15.739  17.257   3.739
75792W        W44155  18.111   5.365  12.012
75793W        W44156  16.616  23.080   4.684
75794W        W44157  25.146  20.124  14.902
75795W        W44158  24.503   3.872  14.765
75796W        W44159  39.442   5.272   2.212
75797W        W44160  39.843  31.453   0.786
75798W        W44161  21.077  16.663   9.979
75799W        W44162  23.080  38.000   1.381
75800W        W44163  29.490   5.378  14.511
75801W        W44164  28.490   0.472   4.804
75802W        W44165  29.465  11.827  11.504
75803W        W44166  29.005  10.867  11.492
75804W        W44167  29.667  43.373  13.497
75805W        W44168  22.204  32.607  12.392
75806W        W44169  12.709  25.469   1.817
75807W        W44170  10.360   6.384  11.435
75808W        W44171  25.065  33.079   4.788
75809W        W44172  16.738  41.499  13.855
75810W        W44173  14.117  18.268   4.758
75811W        W44174  31.988  37.465  11.046
75812W        W44175  16.123  29.163   1.433
75813W        W44176  32.503  23.057  11.419
75814W        W44177   8.873   9.234  13.913
75815W        W44178  19.586  22.249   1.870
75816W        W44179   2.894  37.420   0.315
75817W        W44180  32.401  18.089   4.650
75818W        W44181   8.661  40.949  13.813
75819W        W44182   4.808  16.695   4.835
75820W        W44183   4.208  10.769   1.828
75821W        W44184  38.924   9.343   2.372
75822W        W44185  19.060  33.475  13.386
75823W        W44186  16.785  12.235  13.545
75824W        W44187  24.226  19.124  13.905
75825W        W44188  24.983   4.782  12.514
75826W        W44189  23.009  25.161   4.283
75827W        W44190  28.938  10.761  13.505
75828W        W44191  36.880  11.630   4.693
75829W        W44192   9.374  19.661  13.484
75830W        W44193  14.206  10.803  11.928
75831W        W44194  13.778   4.770  10.904
75832W        W44195  27.135  40.317  12.863
75833W        W44196  39.899  36.521   2.860
75834W        W44197   0.469  17.117  12.522
75835W        W44198  32.597  18.214   1.783
75836W        W44199  19.254  13.738   4.764
75837W        W44200  36.404  10.183  11.458
75838W        W44201  18.601   9.338   0.749
75839W        W44202   8.277  40.974   3.858
75840W        W44203   6.234  17.212  10.098
75841W        W44204  15.252  18.110   5.140
75842W        W44205  39.061  21.755  13.961
75843W        W44206  22.608  33.029   1.710
75844W        W44207  18.745  43.921  12.943
75845W        W44208  39.345  14.763   1.738
75846W        W44209  30.647  24.641  12.002
75847W        W44210  37.008   9.321  11.424
75848W        W44211  33.956  37.382  13.307
75849W        W44212  27.045  30.039  14.966
75850W        W44213  32.080  20.609  13.940
75851W        W44214  40.810  13.700  13.368
75852W        W44215  34.916  35.467  10.899
75853W        W44216  20.035  25.167   9.979
75854W        W44217  36.888  23.579  11.083
75855W        W44218  20.127  16.210   2.266
75856W        W44219  28.990  26.563   4.133
75857W        W44220  41.446  21.654   0.844
75858W        W44221   4.838  28.985   0.453
75859W        W44222   4.913  17.562  12.925
75860W        W44223  40.399  37.495   1.256
75861W        W44224   1.861  26.660   2.327
75862W        W44225   2.775  13.733   4.185
75863W        W44226  38.537  10.251   9.964
75864W        W44227   8.818   3.230   5.245
75865W        W44228  40.535   9.284  12.888
75866W        W44229  39.866   0.308  13.406
75867W        W44230  18.772  20.065  13.048
75868W        W44231   2.461  14.751  12.438
75869W        W44232   9.855  28.948  14.850
75870W        W44233   2.908  44.791  14.814
75871W        W44234  13.116  39.444   1.379
75872W        W44235  36.497  24.168   0.298
75873W        W44236   8.890   1.449  14.302
75874W        W44237  38.444   5.699  13.809
75875W        W44238   0.293   4.749  10.437
75876W        W44239  44.407  44.412   2.732
75877W        W44240   0.295  10.844   3.778
75878W        W44241  42.421  18.562  11.093
75879W        W44242   5.198   4.709   0.401
75880W        W44243  14.785  39.958   4.677
75881W        W44244  14.174  34.924  11.025
75882W        W44245   4.716   6.364   4.782
75883W        W44246  23.021   9.762  13.391
75884W        W44247  32.472  31.579   0.261
75885W        W44248  20.260  23.106  11.415
75886W        W44249  25.979  24.671  10.446
75887W        W44250   2.416  44.486   5.214
75888W        W44251  10.674  10.817   0.932
75889W        W44252   9.676  19.081  11.039
75890W        W44253  38.470  13.240  14.028
75891W        W44254  20.232  31.048  10.468
75892W        W44255  37.950  15.087  11.379
75893W        W44256  14.803  19.054   4.200
75894W        W44257  12.786  32.608   1.825
75895W        W44258  40.472  39.044   5.282
75896W        W44259  14.255  33.424  11.378
75897W        W44260  27.683  17.113   0.849
75898W        W44261  25.551  41.913  11.453
75899W        W44262  37.842  16.136   0.919
75900W        W44263  11.727  34.905  13.931
75901W        W44264  12.332   4.211  13.005
75902W        W44265  12.654  18.686  13.956
75903W        W44266  28.650  31.998   3.679
75904W        W44267  26.574  24.998  12.509
75905W        W44268  30.096  26.490   3.840
75906W        W44269  29.947   5.918  12.969
75907W        W44270  34.591  14.602  11.905
75908W        W44271   2.250  17.791   4.197
75909W        W44272  39.539   5.928   1.294
75910W        W44273  13.821  36.384   4.688
75911W        W44274   1.451  29.967  14.943
75912W        W44275  28.050  20.218   0.881
75913W        W44276  30.589  44.297  12.908
75914W        W44277  36.055  40.439  11.398
75915W        W44278  29.587  39.825   4.251
75916W        W44279   0.876  26.683   4.693
75917W        W44280   3.875  37.575  14.345
75918W        W44281   4.944   3.770  13.894
75919W        W44282  24.631  44.323  13.547
75920W        W44283  12.209  41.928   1.845
75921W        W44284  17.268  17.230   1.242
75922W        W44285  33.395  16.286  11.930
75923W        W44286  25.633  28.086   4.127
75924W        W44287  14.204  21.637  11.127
75925W        W44288  30.448   0.918   5.272
75926W        W44289   0.337  26.022  12.859
75927W        W44290  21.727  20.649   2.395
75928W        W44291  42.925  42.967   3.202
75929W        W44292  39.344  22.528  10.945
75930W        W44293  30.482  32.623   4.210
75931W        W44294  34.099  32.959   1.437
75932W        W44295  28.466  33.910  10.525
75933W        W44296   7.208  18.119   1.360
75934W        W44297   2.914  17.065  12.387
75935W        W44298  12.161  36.398   3.832
75936W        W44299  38.519  12.246   0.880
75937W        W44300   0.743   1.912   4.299
75938W        W44301  12.255  34.980  11.963
75939W        W44302  26.961  29.171  13.849
75940W        W44303  40.988  26.054  10.481
75941W        W44304  14.627  36.850   0.430
75942W        W44305  43.365  11.785   3.750
75943W        W44306  13.281  29.032  11.098
75944W        W44307  25.080   2.848   0.962
75945W        W44308  25.567  28.110   2.710
75946W        W44309  33.116  33.468  13.996
75947W        W44310  38.985   6.269   5.217
75948W        W44311   0.850  26.659  14.892
75949W        W44312  36.422  27.099  12.930
75950W        W44313  17.571  26.572   3.684
75951W        W44314  39.833  11.719  10.103
75952W        W44315  35.480  33.538  13.384
75953W        W44316  34.379  12.220   4.326
75954W        W44317   4.833  26.547  13.889
75955W        W44318  28.511  16.646   5.173
75956W        W44319  40.415  38.454   2.268
75957W        W44320  15.172  39.879   2.727
75958W        W44321   7.763  12.704  12.933
75959W        W44322  14.296   9.318  11.109
75960W        W44323  33.417  42.417  12.484
75961W        W44324  27.953   8.310  11.043
75962W        W44325  33.507  26.571  14.493
75963W        W44326   4.939   2.469   2.305
75964W        W44327  15.643  35.533   2.241
75965W        W44328   5.436   9.285  13.036
75966W        W44329   0.384   9.727   1.801
75967W        W44330  33.433  23.054  12.977
75968W        W44331  25.024  13.668  10.593
75969W        W44332  37.368  31.911   4.745
75970W        W44333  31.997  29.575   2.241
75971W        W44334   6.335  21.647   1.815
75972W        W44335   7.336   4.248   3.322
75973W        W44336   1.364  33.594   4.344
75974W        W44337  23.081  33.878   2.663
75975W        W44338  18.180  41.891  11.501
75976W        W44339  33.435   8.166   2.803
75977W        W44340  40.008  27.980   2.330
75978W        W44341  10.254  30.068   4.206
75979W        W44342  22.133  43.950  11.446
75980W        W44343  20.208  34.911   3.368
75981W        W44344  24.554  24.545  14.015
75982W        W44345  42.996  37.946  13.917
75983W        W44346   2.370  44.302  10.508
75984W        W44347  12.667  42.474  11.569
75985W        W44348  42.992   5.429  14.413
75986W        W44349   3.762  12.264   1.830
75987W        W44350  15.723   4.916   2.725
75988W        W44351  34.993  22.083  11.990
75989W        W44352  34.918  21.637  12.920
75990W        W44353  11.297  13.733   2.739
75991W        W44354  27.686  28.443  13.827
75992W        W44355  16.750  42.843   3.200
75993W        W44356  36.938   1.294  11.957
75994W        W44357  24.010  17.129  10.065
75995W        W44358   5.777  36.556  14.836
75996W        W44359  27.085  38.055   1.407
75997W        W44360  39.016  11.830   3.801
75998W        W44361  12.713   6.922  12.446
75999W        W44362   3.264  11.145  14.312
76000W        W44363   2.441  22.191  11.533
76001W        W44364   1.873  18.140  12.020
76002W        W44365  15.169  24.133   4.141
76003W        W44366  28.133  26.149   1.301
76004W        W44367  28.006  20.759  11.604
76005W        W44368  24.555  31.441   3.232
76006W        W44369  15.192   6.835  13.406
76007W        W44370   6.427   6.770   0.298
76008W        W44371  35.526  44.976  10.610
76009W        W44372  12.355  10.729  11.884
76010W        W44373   0.918  16.161   2.396
76011W        W44374   7.732  25.608   0.770
76012W        W44375  12.181  13.712  13.933
76013W        W44376  40.844  15.622  12.406
76014W        W44377  10.741  29.647   4.115
76015W        W44378   4.883  27.097   0.929
76016W        W44379  39.866  33.937  12.355
76017W        W44380  26.197  22.580   4.174
76018W        W44381   2.736  38.073  14.989
76019W        W44382  21.625   2.933  12.033
76020W        W44383  19.748  33.049  12.950
76021W        W44384  31.901  44.281   4.659
76022W        W44385  15.677  42.783   2.785
76023W        W44386  28.988  17.087   3.829
76024W        W44387  25.703  39.980  14.921
76025W        W44388  38.850  25.601   1.766
76026W        W44389  31.043  36.923  14.334
76027W        W44390  31.521  35.918  14.947
76028W        W44391  25.677  37.388  10.568
76029W        W44392  40.854   6.297  10.496
76030W        W44393  35.854  42.011  13.972
76031W        W44394  28.986  42.370   1.352
76032W        W44395  39.338   5.803  13.032
76033W        W44396  25.469  26.544   5.102
76034W        W44397   1.448  11.684  11.866
76035W        W44398  14.279  44.923  14.883
76036W        W44399  21.202  35.896  10.542
76037W        W44400  44.812  20.555  14.882
76038W        W44401  10.721  21.754  11.454
76039W        W44402  11.147  41.297  13.356
76040W        W44403  11.159  36.004   3.635
76041W        W44404  14.790  33.041   0.882
76042W        W44405  42.816  11.357   2.385
76043W        W44406  32.461  32.425  12.563
76044W        W44407  18.130   2.876   2.195
76045W        W44408  26.700  33.406   2.838
76046W        W44409  32.941  40.314   1.364
76047W        W44410   5.812  20.113  13.420
76048W        W44411  43.962  26.095   4.716
76049W        W44412  42.357  27.156   0.356
76050W        W44413   1.797  37.032   2.790
76051W        W44414  18.178  17.247   4.337
76052W        W44415  35.054  27.510  12.520
76053W        W44416  30.626  34.613  13.515
76054W        W44417   9.286  32.996  13.923
76055W        W44418  39.464  34.407   4.674
76056W        W44419  30.150  44.908   2.694
76057W        W44420  11.326  21.064  13.313
76058W        W44421  15.298   9.854   3.228
76059W        W44422  13.225  23.184  14.988
76060W        W44423  44.443  34.034   2.320
76061W        W44424  25.703  11.293   2.281
76062W        W44425   5.890  42.451  10.941
76063W        W44426  31.099   5.325   2.259
76064W        W44427  37.414  29.499  10.541
76065W        W44428  28.657   1.735   2.798
76066W        W44429  14.126  31.491  13.979
76067W        W44430  31.110  19.096  10.443
76068W        W44431   9.665  19.187   4.176
76069W        W44432  36.480  24.539   2.827
76070W        W44433  42.328  39.877  12.864
76071W        W44434  13.256  37.058   2.787
76072W        W44435  18.051  31.553  11.986
76073W        W44436   9.664  14.192  12.408
76074W        W44437  34.415  25.481  12.055
76075W        W44438  31.527   4.263   0.336
76076W        W44439   4.367  20.084   3.743
76077W        W44440   7.750  14.257  14.354
76078W        W44441  24.102  25.631   0.387
76079W        W44442  13.159  40.490   4.270
76080W        W44443  14.619  42.315  13.958
76081W        W44444   2.743  20.028  13.498
76082W        W44445  24.687  13.301   3.821
76083W        W44446  25.042  29.581   1.826
76084W        W44447   6.864  23.718  12.458
76085W        W44448  21.034  33.509   3.770
76086W        W44449  20.760   7.334   4.651
76087W        W44450  28.599  21.720  12.423
76088W        W44451  38.493  36.051   0.295
76089W        W44452  43.495  23.077  14.274
76090W        W44453  38.005   5.272  11.040
76091W        W44454  21.201  40.900   2.875
76092W        W44455  24.718  14.615  13.949
76093W        W44456   0.937  29.632   1.783
76094W        W44457  32.525   9.209   2.814
76095W        W44458  42.997  23.077  12.084
76096W        W44459  36.469  18.768   4.674
76097W        W44460  39.848   1.778   2.796
76098W        W44461   7.890  30.563   3.843
76099W        W44462  29.511  27.073   4.680
76100W        W44463  10.647  30.950  14.949
76101W        W44464  13.737  16.230  13.378
76102W        W44465   9.326  28.168  12.356
76103W        W44466  31.145  33.959  10.634
76104W        W44467   0.249  15.136   2.829
76105W        W44468   7.909  20.687   4.813
76106W        W44469  16.667   9.219  14.906
76107W        W44470  10.376  28.459  13.414
76108W        W44471  28.943  43.884   2.801
76109W        W44472  18.584  39.385   3.636
76110W        W44473  32.420  28.111  13.445
76111W        W44474   1.845  38.886  12.973
76112W        W44475  11.727  21.057   3.810
76113W        W44476  13.830  36.047  11.865
76114W        W44477   3.862   0.831  12.936
76115W        W44478  25.658  44.956  14.810
76116W        W44479  43.406  24.215  12.872
76117W        W44480  34.075  44.959  11.067
76118W        W44481   4.419  24.503  10.918
76119W        W44482  40.446   6.748   2.678
76120W        W44483  30.045  38.877  13.481
76121W        W44484  44.916  16.148   1.396
76122W        W44485  26.464   5.329  13.336
76123W        W44486   3.427  14.665   4.220
76124W        W44487  38.568  32.098  12.402
76125W        W44488  37.372  19.695   0.358
76126W        W44489  20.149  14.211   3.266
76127W        W44490  10.357  31.113   4.275
76128W        W44491   5.871  28.976   4.832
76129W        W44492   6.380  37.578  13.351
76130W        W44493  11.775   3.864   3.262
76131W        W44494  23.017  33.602   1.234
76132W        W44495  22.026  13.727   1.826
76133W        W44496  17.163  21.220   4.696
76134W        W44497   3.886  30.989   4.614
76135W        W44498  27.176  29.536  14.312
76136W        W44499  15.119  32.408   3.733
76137W        W44500   4.927  37.578   3.831
76138W        W44501  26.659  27.112  13.497
76139W        W44502  14.831  10.238   4.830
76140W        W44503  17.266  13.340  14.791
76141W        W44504  11.212  12.826   2.215
76142W        W44505  34.434  41.846   4.293
76143W        W44506  24.091  10.356  14.958
76144W        W44507  37.078  15.741   3.726
76145W        W44508  41.489  36.448  11.899
76146W        W44509  20.641  21.054  14.928
76147W        W44510   6.247  22.645  13.980
76148W        W44511  28.480  44.292  11.970
76149W        W44512  37.857  25.211  14.418
76150W        W44513  31.961  28.619   1.887
76151W        W44514  19.064  12.770   0.937
76152W        W44515  20.199  17.759  10.458
76153W        W44516  13.599  38.365   4.649
76154W        W44517   7.847   7.262  14.809
76155W        W44518  41.522  37.476   2.382
76156W        W44519  31.939   8.393  13.969
76157W        W44520  26.547   7.743  11.953
76158W        W44521  10.741   2.846  12.519
76159W        W44522  26.012  24.195  10.519
76160W        W44523  16.603   6.811   0.418
76161W        W44524  20.096   6.417   1.813
76162W        W44525  44.766  18.624   3.377
76163W        W44526   0.385  28.607   4.637
76164W        W44527  17.203  24.165   3.231
76165W        W44528  27.033  14.202   0.473
76166W        W44529  36.505  26.992  12.441
76167W        W44530  21.611  10.333  10.502
76168W        W44531   6.314  28.949  11.094
76169W        W44532   1.801   3.839  12.927
76170W        W44533   5.691  12.661   1.704
76171W        W44534   8.184  10.649  13.836
76172W        W44535  34.884  15.737   4.162
76173W        W44536  10.679  14.190  11.478
76174W        W44537  44.502  41.388   5.270
76175W        W44538  21.722  33.457   4.297
76176W        W44539  18.193  38.392   4.638
76177W        W44540  35.413  32.470  11.484
76178W        W44541  29.539  31.433   2.680
76179W        W44542   0.398  15.814  14.819
76180W        W44543  19.614  32.533   2.254
76181W        W44544  12.329  16.298  11.476
76182W        W44545  33.030  44.933   1.231
76183W        W44546  39.353  37.842  12.490
76184W        W44547  39.814  30.437  14.010
76185W        W44548  36.400  12.189  12.003
76186W        W44549  16.174  32.431   4.140
76187W        W44550  19.566  30.065   0.478
76188W        W44551  32.978  19.044  10.570
76189W        W44552  30.590  32.466   1.889
76190W        W44553  18.737   2.348   3.853
76191W        W44554  12.229  44.839  14.005
76192W        W44555  28.942  44.796   1.797
76193W        W44556  27.511  12.828  12.985
76194W        W44557  15.296   7.242   4.290
76195W        W44558  24.989  14.236  11.480
76196W        W44559  17.674  12.777   3.870
76197W        W44560   9.365   4.237   3.289
76198W        W44561  34.541  40.838   3.785
76199W        W44562  35.031   1.329   4.700
76200W        W44563  28.959  35.953   0.843
76201W        W44564   2.913   6.887   2.344
76202W        W44565  22.591  37.408  13.404
76203W        W44566   9.210  12.324  12.517
76204W        W44567   6.899  20.093  12.981
76205W        W44568  36.441   9.831  11.934
76206W        W44569  11.362  40.317  12.409
76207W        W44570  15.735  16.128   3.743
76208W        W44571  24.172  44.302  12.911
76209W        W44572  11.857  28.940  12.079
76210W        W44573  29.064  23.032   0.818
76211W        W44574   3.923  43.874   3.217
76212W        W44575  12.651  13.844  11.120
76213W        W44576  43.415  24.117   2.287
76214W        W44577   1.437   3.736   0.731
76215W        W44578  43.009   1.946  11.046
76216W        W44579  35.470   6.238  13.399
76217W        W44580  16.728  37.054   4.209
76218W        W44581  34.408   5.365  11.539
76219W        W44582   1.263  30.017   4.236
76220W        W44583  30.575  25.122  12.090
76221W        W44584  33.486  23.698  13.062
76222W        W44585   0.377  14.158   0.745
76223W        W44586  24.047  19.606  10.098
76224W        W44587  30.142  20.706  14.809
76225W        W44588  13.345  10.189   1.239
76226W        W44589  40.803  18.135  11.056
76227W        W44590   1.761  17.069  13.837
76228W        W44591  19.149  33.875   2.715
76229W        W44592   0.323   1.865  14.905
76230W        W44593  44.464  17.797  11.924
76231W        W44594  16.285  42.794  10.485
76232W        W44595  14.217  28.660  13.821
76233W        W44596  35.378  37.365  11.561
76234W        W44597   8.673  17.271   1.368
76235W        W44598  13.167  24.015   2.820
76236W        W44599   5.752  15.824   5.112
76237W        W44600  39.896  32.405   4.222
76238W        W44601  15.742  32.529   1.922
76239W        W44602  26.661  22.057   0.817
76240W        W44603  17.729   5.300   3.222
76241W        W44604  32.516  40.326  14.917
76242W        W44605  28.582  27.634   0.317
76243W        W44606  22.121  30.087  10.989
76244W        W44607  37.490  21.567  14.375
76245W        W44608   3.730  32.888  14.379
76246W        W44609  18.740  42.893   4.127
76247W        W44610  39.053  42.827  10.419
76248W        W44611  28.021   0.441   1.232
76249W        W44612  10.185  18.203  14.932
76250W        W44613  22.193  24.978  11.990
76251W        W44614   9.215  32.457  11.117
76252W        W44615  30.137  26.642   2.376
76253W        W44616  25.632  23.226   1.417
76254W        W44617  11.713  40.814   1.350
76255W        W44618  32.562   1.791   5.778
76256W        W44619   0.772  36.430  13.413
76257W        W44620  40.355  16.117  10.406
76258W        W44621  22.501  14.794  14.828
76259W        W44622  33.500  35.475  13.366
76260W        W44623  29.122  18.285   0.439
76261W        W44624  27.644  14.680  12.444
76262W        W44625  23.555  41.364  13.466
76263W        W44626  19.140  12.295   4.239
76264W        W44627  18.080  32.567   4.164
76265W        W44628   6.426  23.235   0.290
76266W        W44629  18.602  30.424   0.932
76267W        W44630  10.803  22.185  12.530
76268W        W44631  20.068  36.943  14.786
76269W        W44632  16.316   1.761   3.693
76270W        W44633   1.914   2.280  12.948
76271W        W44634  40.306  41.886  10.992
76272W        W44635  25.677  13.110  11.053
76273W        W44636  22.513  35.037   4.158
76274W        W44637  20.733  15.180  12.943
76275W        W44638  30.465  16.140   4.189
76276W        W44639  33.472  10.801   2.871
76277W        W44640  34.439  40.499  14.955
76278W        W44641   3.280  36.005   4.238
76279W        W44642  40.532  36.051  12.978
76280W        W44643  17.726  36.991  10.452
76281W        W44644  16.730  41.790  10.051
76282W        W44645   4.852  11.317   3.766
76283W        W44646   4.925  37.867   0.891
76284W        W44647   8.165  19.055   1.247
76285W        W44648  29.541  44.403   3.736
76286W        W44649  38.502   8.405   4.804
76287W        W44650   6.201  15.607  13.360
76288W        W44651  26.202   9.737   0.417
76289W        W44652  38.826  30.646  11.914
76290W        W44653  20.262  11.656   4.341
76291W        W44654  39.834  41.882  11.080
76292W        W44655  41.790  42.949   0.757
76293W        W44656  23.608  24.202   1.822
76294W        W44657  15.216  37.925  11.949
76295W        W44658  39.516  29.640  10.995
76296W        W44659   6.910  20.604  10.996
76297W        W44660  22.181  14.801  13.859
76298W        W44661  17.657   3.909  10.450
76299W        W44662  27.042  27.451   0.271
76300W        W44663  21.179  28.512  14.006
76301W        W44664  24.504  39.997  10.628
76302W        W44665  29.573  14.297  12.488
76303W        W44666  39.381  23.123  13.516
76304W        W44667  29.146  43.351   0.850
76305W        W44668   5.861  21.696  14.421
76306W        W44669  36.580  31.479   3.225
76307W        W44670  41.986   2.755   0.884
76308W        W44671  44.498  25.029   0.736
76309W        W44672   5.202  44.486   5.147
76310W        W44673  13.326  23.570   1.770
76311W        W44674   1.864  42.943   2.710
76312W        W44675  16.616  13.625  11.084
76313W        W44676  36.516  38.996   4.279
76314W        W44677   1.801  20.166   4.763
76315W        W44678  18.089  34.086   3.346
76316W        W44679  24.701  21.606  11.950
76317W        W44680  14.680  24.132   0.895
76318W        W44681  42.918  33.102   0.844
76319W        W44682  11.683  28.598  13.795
76320W        W44683  14.181  25.468   2.688
76321W        W44684  18.125   2.329  12.527
76322W        W44685  28.616  42.522   0.930
76323W        W44686   6.203  41.391  13.413
76324W        W44687  43.983  27.976   2.736
76325W        W44688  10.837  12.338  10.630
76326W        W44689  20.067  23.599  14.993
76327W        W44690  27.508  18.075  12.826
76328W        W44691  21.093  43.496   0.787
76329W        W44692  17.745  43.359   3.209
76330W        W44693  33.087   1.766   5.242
76331W        W44694  43.890  10.352   4.677
76332W        W44695  43.854  33.012  12.521
76333W        W44696  30.158  23.075  14.837
76334W        W44697  42.320  40.399   4.632
76335W        W44698  41.982   2.415  11.592
76336W        W44699   7.676   6.681   2.414
76337W        W44700  21.543  16.099   1.238
76338W        W44701   7.804  10.316   0.331
76339W        W44702   1.250  11.767   1.918
76340W        W44703  37.436   7.409   4.328
76341W        W44704   7.792  25.624  12.503
76342W        W44705   0.257  12.269   3.273
76343W        W44706  25.185   3.447   1.409
76344W        W44707   6.851  42.498   1.906
76345W        W44708  13.831   7.855  12.362
76346W        W44709  42.837  42.023   0.453
76347W        W44710  18.084  12.626   4.766
76348W        W44711  37.942   9.191   1.284
76349W        W44712  33.501  43.401   0.742
76350W        W44713   5.903  40.047   0.336
76351W        W44714   9.287  20.083   3.823
76352W        W44715  41.924   7.672   2.325
76353W        W44716  19.754  26.123   4.245
76354W        W44717  36.956  17.591   1.866
76355W        W44718  44.831  17.199  13.456
76356W        W44719  30.074  31.591   1.836
76357W        W44720  28.130   3.348  10.076
76358W        W44721  18.669  14.832  12.952
76359W        W44722  43.347  30.085   2.778
76360W        W44723  36.063   0.903   0.292
76361W        W44724  17.226  31.120  14.447
76362W        W44725  27.576  11.299  13.369
76363W        W44726   5.410  26.975   0.398
76364W        W44727  23.028   6.218   4.266
76365W        W44728  19.103   5.215  11.525
76366W        W44729   3.437   3.410   1.410
76367W        W44730  10.177  31.077   3.192
76368W        W44731  41.929  21.131  13.876
76369W        W44732   9.331  42.808   0.749
76370W        W44733   9.390  27.942   2.337
76371W        W44734   5.835  39.444  11.109
76372W        W44735   9.837  37.843  13.434
76373W        W44736  13.839   5.704   4.301
76374W        W44737  43.293  25.997  14.017
76375W        W44738  21.734  20.613  11.457
76376W        W44739  44.862  43.967   4.241
76377W        W44740  16.719  27.495  10.481
76378W        W44741  22.737  34.063   1.788
76379W        W44742  22.094  25.218  11.426
76380W        W44743  26.627  25.592   4.275
76381W        W44744  36.998  28.599   3.154
76382W        W44745  23.988  41.017   3.734
76383W        W44746  34.375   8.295  13.992
76384W        W44747  24.497  34.400   4.303
76385W        W44748  23.506  38.980   1.818
76386W        W44749  11.238  39.942   4.279
76387W        W44750  27.974  25.179   1.312
76388W        W44751  27.041  13.794  10.536
76389W        W44752  15.646   0.330  14.329
76390W        W44753   8.712  12.223  14.020
76391W        W44754  41.888  39.515   2.862
76392W        W44755  17.748  18.754  14.396
76393W        W44756  29.594  11.210  10.602
76394W        W44757   7.811  39.352   4.630
76395W        W44758  25.074  44.992   0.762
76396W        W44759   0.872  34.865  12.495
76397W        W44760  13.614  35.024  14.380
76398W        W44761  33.034  23.038   1.839
76399W        W44762  14.242  10.735   1.775
76400W        W44763   8.312  27.195   0.823
76401W        W44764   6.849   7.815  13.315
76402W        W44765   8.776  25.162   4.229
76403W        W44766  17.102   8.405   1.392
76404W        W44767  17.091   4.291  10.590
76405W        W44768  39.889  41.933   2.698
76406W        W44769  27.481  28.133  13.413
76407W        W44770  28.934  25.010  12.352
76408W        W44771  37.965   3.726  14.342
76409W        W44772  39.344  34.040  12.883
76410W        W44773  12.673  22.163   1.252
76411W        W44774   0.417  23.007   2.357
76412W        W44775  38.451  27.962   0.819
76413W        W44776   3.273  32.416   2.210
76414W        W44777   7.320  28.587  14.863
76415W        W44778  10.169  27.191   3.373
76416W        W44779  30.060  24.619   0.433
76417W        W44780   1.238   8.876   2.351
76418W        W44781  29.614  30.134  14.322
76419W        W44782  16.198  35.056   4.187
76420W        W44783   3.399  20.112  12.046
76421W        W44784  23.099  42.391   3.649
76422W        W44785   1.314  22.084  12.511
76423W        W44786  18.689  32.541   0.809
76424W        W44787  41.805  34.010  12.411
76425W        W44788  43.868  30.592  14.797
76426W        W44789  37.904  14.135   1.238
76427W        W44790  33.980  40.017   4.161
76428W        W44791  19.116  36.367   2.259
76429W        W44792  23.234  39.859   3.187
76430W        W44793  12.351  10.303  12.904
76431W        W44794   2.843   0.346   2.376
76432W        W44795  19.284  40.336   4.348
76433W        W44796  21.520  17.204   1.883
76434W        W44797  22.133  18.725  13.003
76435W        W44798  19.210   2.760   1.935
76436W        W44799  40.524   8.178  11.435
76437W        W44800  43.785   7.688  10.536
76438W        W44801  35.927  35.030  14.411
76439W        W44802   1.361   4.915  14.348
76440W        W44803  26.079  33.567  12.994
76441W        W44804  22.241  20.069   0.931
76442W        W44805  14.157  43.503   3.285
76443W        W44806   1.237  41.903  12.414
76444W        W44807  11.180  23.668  14.854
76445W        W44808  37.346  42.970   3.303
76446W        W44809   3.415  15.698  10.469
76447W        W44810  44.778  26.534   4.618
76448W        W44811   0.435  23.545   4.139
76449W        W44812  13.204   0.350   3.365
76450W        W44813  42.406  32.139  11.877
76451W        W44814  44.892   9.170   2.792
76452W        W44815  39.844   3.940   0.772
76453W        W44816   8.329  44.776  13.324
76454W        W44817  44.941   7.190  14.394
76455W        W44818  20.665  43.981  11.001
76456W        W44819  17.243   4.318  14.030
76457W        W44820   9.853  21.654  14.311
76458W        W44821  28.143  29.457  14.361
76459W        W44822  44.859  20.759  12.497
76460W        W44823  10.166  35.873   1.761
76461W        W44824  38.495  37.353  14.845
76462W        W44825  28.512  10.835   2.822
76463W        W44826  24.151   3.442  11.858
76464W        W44827  42.826  14.649   2.725
76465W        W44828   5.775  11.218   0.774
76466W        W44829  31.510  35.507   1.338
76467W        W44830  38.021  13.249   0.749
76468W        W44831  12.836   7.788   3.258
76469W        W44832  41.394  20.652   4.703
76470W        W44833  23.732   1.279  13.019
76471W        W44834  24.487  40.534  10.996
76472W        W44835  21.739  35.416   4.202
76473W        W44836  24.533  24.216   2.720
76474W        W44837   3.434  41.422  11.421
76475W        W44838  32.568  26.596  11.117
76476W        W44839  34.863  10.152  10.150
76477W        W44840  14.745  24.012  12.035
76478W        W44841  29.947   6.820  10.438
76479W        W44842  38.001  17.199   0.410
76480W        W44843  41.791  21.154   4.719
76481W        W44844  22.709  37.524  10.544
76482W        W44845  42.828  30.049  11.121
76483W        W44846   7.713  36.455  14.956
76484W        W44847  19.554  19.673  12.047
76485W        W44848  14.333  27.102  14.484
76486W        W44849  34.985  18.239  12.446
76487W        W44850   0.269   3.433  13.889
76488W        W44851  36.068  10.800   3.754
76489W        W44852  31.616  33.450   0.860
76490W        W44853  16.224   2.884  11.425
76491W        W44854  27.075  28.496   0.258
76492W        W44855  14.114  26.039   0.348
76493W        W44856  12.176  14.303  13.816
76494W        W44857  11.301  43.294  10.925
76495W        W44858   4.257  19.552   1.866
76496W        W44859   4.938   8.307   0.920
76497W        W44860  23.046   9.237   1.243
76498W        W44861  29.644  38.978   0.407
76499W        W44862  32.087  12.316   3.378
76500W        W44863   7.353   8.699  11.965
76501W        W44864  12.654  19.042   3.713
76502W        W44865  29.935  42.956  14.022
76503W        W44866  20.714  33.897   2.846
76504W        W44867   0.262  40.899  13.430
76505W        W44868  19.591  24.553   0.817
76506W        W44869  17.749  44.897   1.861
76507W        W44870  29.652  28.622  12.987
76508W        W44871   0.381  44.433   3.835
76509W        W44872  19.757  34.085  13.866
76510W        W44873  29.165  25.178   4.294
76511W        W44874  19.090  11.803  11.021
76512W        W44875  42.881   8.324   1.835
76513W        W44876  23.214  22.110  13.446
76514W        W44877  16.223  21.587   4.714
76515W        W44878  37.474  10.184  10.055
76516W        W44879  31.418   1.832  13.477
76517W        W44880  41.367  22.716  12.567
76518W        W44881   6.253  12.225  13.480
76519W        W44882  22.602  14.292  14.286
76520W        W44883  43.960  32.596  11.928
76521W        W44884  30.415  37.449  11.910
76522W        W44885   8.259  20.071  11.991
76523W        W44886  27.951  36.578   0.346
76524W        W44887   9.389  21.541   3.755
76525W        W44888   1.928  18.780  14.487
76526W        W44889  14.304  40.324  11.930
76527W        W44890  33.004  27.448   1.871
76528W        W44891   8.384  23.175   2.861
76529W        W44892  25.004  21.217   3.186
76530W        W44893  43.936  30.057  14.412
76531W        W44894   6.754  20.042  11.982
76532W        W44895   9.386  40.473   3.735
76533W        W44896   5.761  36.456  12.357
76534W        W44897   2.863  37.002  13.391
76535W        W44898  44.259  39.523  11.946
76536W        W44899   8.843  28.978  12.018
76537W        W44900  40.963  19.086  10.588
76538W        W44901  21.078   6.228  12.508
76539W        W44902  25.685  37.060   2.711
76540W        W44903  30.102  22.049  12.357
76541W        W44904   9.810   9.889  14.928
76542W        W44905  11.822   4.219   3.634
76543W        W44906   7.257  36.561  12.436
76544W        W44907   7.262   1.968   0.437
76545W        W44908  25.711  32.089   1.366
76546W        W44909   3.804  27.676  11.927
76547W        W44910  42.424  12.208  13.428
76548W        W44911  26.615  13.205  14.808
76549W        W44912  10.182  27.998   1.852
76550W        W44913   6.405  41.796   4.704
76551W        W44914  17.224  24.700   2.385
76552W        W44915   1.471  17.702   2.871
76553W        W44916  21.644   5.754  14.398
76554W        W44917  12.804  13.237   5.255
76555W        W44918   1.889  16.314   3.713
76556W        W44919  38.897  36.035  10.158
76557W        W44920  36.960  20.700  10.451
76558W        W44921  13.350  41.321  11.408
76559W        W44922  28.650   5.733   4.718
76560W        W44923  28.659  16.103   2.768
76561W        W44924  33.002  26.111   4.774
76562W        W44925  14.301  22.671   1.743
76563W        W44926  43.307  17.092  12.518
76564W        W44927  36.435  23.598  13.349
76565W        W44928  25.667  20.059   3.748
76566W        W44929  36.940  12.157   5.228
76567W        W44930  13.678   9.809  13.865
76568W        W44931  25.003   2.847  10.534
76569W        W44932  25.661  11.220   0.474
76570W        W44933  44.879  38.386   0.820
76571W        W44934  27.544  22.654   1.362
76572W        W44935   3.409  31.506   1.820
76573W        W44936  30.523  28.649   4.272
76574W        W44937   4.348  38.426  13.040
76575W        W44938  36.991  39.918  14.331
76576W        W44939   5.219   4.938  10.632
76577W        W44940  27.969  31.034  13.953
76578W        W44941  33.407  18.622   3.768
76579W        W44942  13.738  40.013  14.807
76580W        W44943  35.983  22.235   1.380
76581W        W44944  20.046  26.489   2.232
76582W        W44945  14.231   4.267  13.888
76583W        W44946  13.730   7.885   1.307
76584W        W44947  10.680  34.566   4.240
76585W        W44948  14.596  22.737   3.685
76586W        W44949   3.710  42.933  13.333
76587W        W44950   4.893  15.101  12.911
76588W        W44951  32.565  12.357   3.287
76589W        W44952  17.109   4.835   1.419
76590W        W44953  24.621  44.389  12.451
76591W        W44954  19.637  17.281   4.611
76592W        W44955  22.171  34.094  10.552
76593W        W44956   3.902  17.672  13.793
76594W        W44957  22.736   0.337  14.345
76595W        W44958  39.415  12.183   2.341
76596W        W44959  24.593   1.464   3.829
76597W        W44960  33.462   0.392  11.469
76598W        W44961  15.632  43.857  10.468
76599W        W44962   6.835  28.468  14.780
76600W        W44963  42.494  30.941  11.498
76601W        W44964  20.666  14.798   2.693
76602W        W44965  10.288  12.278   2.261
76603W        W44966  39.360  23.499  11.420
76604W        W44967  23.590  10.664   3.204
76605W        W44968  18.162  22.100   0.286
76606W        W44969   9.674  38.340   0.431
76607W        W44970   2.850  16.604   4.636
76608W        W44971  21.037  16.303   2.375
76609W        W44972  13.303  25.668  12.034
76610W        W44973   3.315  13.175  13.982
76611W        W44974  44.978  36.029  12.891
76612W        W44975  31.118  16.715   0.779
76613W        W44976   5.349  18.218  10.929
76614W        W44977   0.904  37.405   5.192
76615W        W44978  44.454  18.229  14.994
76616W        W44979  14.808  26.595  10.510
76617W        W44980  31.569  21.719  13.421
76618W        W44981  27.475  11.365   1.419
76619W        W44982  42.378  23.192   1.367
76620W        W44983   4.820  39.510  14.320
76621W        W44984  36.936  12.275  14.341
76622W        W44985  33.487  44.297   5.798
76623W        W44986  25.189  19.061   2.869
76624W        W44987  18.579   2.446  10.506
76625W        W44988  12.654  17.256  11.128
76626W        W44989  27.002  30.656  10.951
76627W        W44990  38.053  11.826  14.979
76628W        W44991   0.804  17.084   0.299
76629W        W44992  15.224  34.980   4.822
76630W        W44993  16.785  18.554  14.906
76631W        W44994  18.276  12.234   4.706
76632W        W44995   2.265  36.419  14.453
76633W        W44996  17.198   1.928   2.741
76634W        W44997  16.121  33.394   0.413
76635W        W44998  29.106  33.416  13.514
76636W        W44999  36.454  28.056   1.804
76637W        W45000   7.330  39.846  11.376
76638W        W45001   9.866   3.276  10.957
76639W        W45002   9.725  13.770   2.844
76640W        W45003  18.745  41.325   5.210
76641W        W45004   7.369  34.050  14.472
76642W        W45005   4.710  18.144  13.436
76643W        W45006  25.552  16.771   1.923
76644W        W45007  36.522  20.092   1.224
76645W        W45008  26.517  19.242  11.518
76646W        W45009  26.482  21.625  13.826
76647W        W45010  27.946  29.562   3.634
76648W        W45011   6.341  15.689   5.158
76649W        W45012   4.424  42.435  13.400
76650W        W45013  24.531   3.269   2.401
76651W        W45014  18.644  23.235  14.929
76652W        W45015  20.724  22.683  11.612
76653W        W45016  11.628  15.683  10.440
76654W        W45017  22.576  29.618   1.926
76655W        W45018  18.697   9.786   3.699
76656W        W45019  16.715  27.466  13.982
76657W        W45020  42.912  15.127  14.781
76658W        W45021  18.276  38.537   1.884
76659W        W45022   5.209   0.946  14.766
76660W        W45023  19.073  31.555   2.810
76661W        W45024  23.629  15.746   3.855
76662W        W45025  14.700   6.876   4.639
76663W        W45026  16.082   9.290   3.157
76664W        W45027  13.787  38.947  14.990
76665W        W45028   6.392  24.607   3.286
76666W        W45029  38.339  27.446  13.973
76667W        W45030  21.027  44.449  12.826
76668W        W45031  10.838  29.145   3.640
76669W        W45032  39.345  40.927   3.187
76670W        W45033  26.683  14.334  10.088
76671W        W45034   8.367  23.032  13.912
76672W        W45035  10.224  10.833   3.751
76673W        W45036  14.153   3.424   9.509
76674W        W45037   4.218  35.369   3.822
76675W        W45038  28.539  28.548  12.987
76676W        W45039   4.701  35.015  12.448
76677W        W45040   7.864  24.140   2.417
76678W        W45041  28.147  14.776   3.158
76679W        W45042  29.659  10.317  13.847
76680W        W45043   5.305   8.276  13.532
76681W        W45044  27.066   8.674  12.517
76682W        W45045  10.657   7.178   3.316
76683W        W45046  16.667  27.014   3.849
76684W        W45047  41.884  21.037  10.049
76685W        W45048  29.584  12.354  14.810
76686W        W45049  19.178  16.736   3.265
76687W        W45050  12.754  29.663   0.256
76688W        W45051  16.806  20.616  12.478
76689W        W45052   1.857   8.365   0.949
76690W        W45053  26.629  31.992  11.428
76691W        W45054  35.051  32.913   2.741
76692W        W45055  29.643  18.722  13.348
76693W        W45056  10.326  37.541   4.748
76694W        W45057  12.345   5.320   1.804
76695W        W45058   7.875  13.160  14.021
76696W        W45059  30.448  13.673  10.906
76697W        W45060  15.776   5.903   2.407
76698W        W45061  33.022  11.310   0.340
76699W        W45062  10.821  40.448  14.467
76700W        W45063  21.624  18.723  11.868
76701W        W45064  31.033   3.337   9.996
76702W        W45065  23.603  16.784   0.808
76703W        W45066  13.326  38.513   2.333
76704W        W45067  23.212  23.680  10.562
76705W        W45068   9.367  32.587   0.358
76706W        W45069  44.924  27.537  10.525
76707W        W45070  31.589   5.917   2.291
76708W        W45071  22.129  43.921   0.836
76709W        W45072  12.347   7.888   1.762
76710W        W45073   6.210  13.323   0.335
76711W        W45074   6.858   4.357   4.602
76712W        W45075  18.242  30.508   0.388
76713W        W45076  20.567   3.822  12.497
76714W        W45077  13.759  27.670   0.817
76715W        W45078  33.116  40.013   4.775
76716W        W45079  30.535  22.562  13.308
76717W        W45080  40.822  15.768  12.062
76718W        W45081  35.984   4.856   1.761
76719W        W45082  17.745  39.060  11.371
76720W        W45083  14.218   3.277  14.018
76721W        W45084  32.113  24.684   3.690
76722W        W45085  17.736  32.480  11.044
76723W        W45086  44.989  13.133   3.725
76724W        W45087  38.542  36.546  13.877
76725W        W45088  35.872  15.240   3.656
76726W        W45089  30.530  35.865   2.875
76727W        W45090  19.630  40.439   2.222
76728W        W45091   4.776  18.202   3.758
76729W        W45092   3.218  42.804   2.800
76730W        W45093  25.077   7.246  12.434
76731W        W45094  16.605   9.254   4.752
76732W        W45095   6.723  42.846   0.766
76733W        W45096  29.110  34.964   1.797
76734W        W45097  28.584  38.869  10.586
76735W        W45098  12.131   1.414  13.435
76736W        W45099  22.038  36.093   4.599
76737W        W45100  43.363  30.971   4.623
76738W        W45101  25.539   4.278  11.025
76739W        W45102  32.942  17.693  11.117
76740W        W45103   4.774  18.272   1.362
76741W        W45104   1.440  44.367   4.293
76742W        W45105  14.663  28.139   0.881
76743W        W45106  28.104  37.530  14.289
76744W        W45107  13.721  40.307  13.335
76745W        W45108  28.579  32.616   2.349
76746W        W45109  31.071   5.911   3.731
76747W        W45110   4.776  28.540   2.263
76748W        W45111  43.310  34.917  13.964
76749W        W45112   9.807   1.384  12.524
76750W        W45113  28.530  24.538   3.228
76751W        W45114  35.434  19.251   0.951
76752W        W45115   2.749  42.502  13.450
76753W        W45116  11.656  13.292  11.571
76754W        W45117  41.809  12.283  10.998
76755W        W45118  37.851  38.052  12.951
76756W        W45119  26.674  44.422  10.895
76757W        W45120  38.516  42.320  10.575
76758W        W45121  29.493  10.634   4.651
76759W        W45122  13.657  36.954   1.287
76760W        W45123  12.664  27.178  14.761
76761W        W45124  33.954   9.219   1.267
76762W        W45125   1.770  19.273  12.064
76763W        W45126  29.926  21.243  10.051
76764W        W45127  10.795  16.779   1.797
76765W        W45128  23.985   3.915   1.300
76766W        W45129  33.480  26.613  13.056
76767W        W45130  36.420  16.804  11.916
76768W        W45131  43.982  20.241  13.922
76769W        W45132  30.001   2.314  11.556
76770W        W45133  26.690  12.132   3.851
76771W        W45134  23.606  13.613  12.853
76772W        W45135  16.747  21.607   4.254
76773W        W45136  36.884  35.880  10.475
76774W        W45137   8.185  41.945   2.264
76775W        W45138  12.648  13.303   4.337
76776W        W45139  19.056  22.084   3.664
76777W        W45140   4.446   5.367   4.612
76778W        W45141  40.415  29.517  11.476
76779W        W45142   3.947  10.305   0.785
76780W        W45143  38.856  27.512   2.225
76781W        W45144  42.525  22.085  12.948
76782W        W45145   9.176  36.034   2.248
76783W        W45146  36.926  12.306  13.355
76784W        W45147  17.106   9.666  14.454
76785W        W45148  19.048  26.503  10.450
76786W        W45149  37.086  16.093   1.826
76787W        W45150  42.438  44.935  10.499
76788W        W45151  17.717  12.248  12.463
76789W        W45152  37.936  27.122  10.610
76790W        W45153  22.633  21.750  13.360
76791W        W45154  27.540  10.818   1.210
76792W        W45155  24.188  37.556  10.962
76793W        W45156  12.775  14.156  10.546
76794W        W45157  13.695  43.329   0.741
76795W        W45158  24.660  20.598  12.988
76796W        W45159  13.786  34.957  12.506
76797W        W45160  43.992  31.091  11.487
76798W        W45161   7.349  44.924   4.286
76799W        W45162  15.586  43.346  11.572
76800W        W45163  28.660  25.080  12.034
76801W        W45164   0.470  37.005   5.633
76802W        W45165   0.760   3.232  10.980
76803W        W45166   4.869  18.574  10.505
76804W        W45167  40.408  13.286  14.311
76805W        W45168  13.182   4.725  12.902
76806W        W45169  14.321  13.223   3.306
76807W        W45170  29.141  38.487  11.930
76808W        W45171  42.386  33.024  14.950
76809W        W45172  24.091   7.741   2.324
76810W        W45173  18.181  23.192   3.159
76811W        W45174  21.126  10.716   4.181
76812W        W45175   9.394  43.905   1.780
76813W        W45176  13.105   9.251  11.980
76814W        W45177   8.840  14.337  12.915
76815W        W45178   5.375  22.069   3.774
76816W        W45179  16.195  25.124   1.298
76817W        W45180  16.742  13.268   0.435
76818W        W45181  27.979  23.493   4.251
76819W        W45182  18.712  38.421   0.961
76820W        W45183  18.206  25.017   1.306
76821W        W45184  35.893  37.493  13.531
76822W        W45185  13.839  34.084  10.406
76823W        W45186  43.452   8.874  11.908
76824W        W45187   8.809  29.519   0.437
76825W        W45188  44.497   6.874   0.835
76826W        W45189  28.165  10.677  14.897
76827W        W45190  13.663  43.013  13.491
76828W        W45191   8.654  37.892   3.704
76829W        W45192  21.044  35.584   2.285
76830W        W45193  38.337   6.202   0.843
76831W        W45194  38.882  39.893   2.722
76832W        W45195  43.788   5.727  14.878
76833W        W45196  38.954  27.171  10.420
76834W        W45197  23.084  44.827  10.917
76835W        W45198   4.788   4.261   2.824
76836W        W45199  41.334  20.205  13.512
76837W        W45200  38.895  28.999   0.878
76838W        W45201  27.152  33.120  12.577
76839W        W45202  20.167   3.906  13.906
76840W        W45203  19.703  25.195  14.953
76841W        W45204  17.141  17.652  12.485
76842W        W45205  43.310  24.534  13.459
76843W        W45206  18.791   7.407  10.011
76844W        W45207  10.314  15.265   1.751
76845W        W45208  21.091  23.584  12.868
76846W        W45209  22.519  35.028   2.259
76847W        W45210  11.739  15.593   5.302
76848W        W45211  12.712  21.733  12.993
76849W        W45212  27.491  11.204  11.506
76850W        W45213  29.425  42.366   4.313
76851W        W45214   2.358   0.942  12.487
76852W        W45215  28.127  16.282  11.960
76853W        W45216  38.336  20.196  12.954
76854W        W45217  21.749  16.183  13.997
76855W        W45218  39.048  30.089   2.339
76856W        W45219  22.062   8.291   1.245
76857W        W45220  22.512  41.365  10.042
76858W        W45221   2.324  42.315  13.832
76859W        W45222  17.647   4.330   3.344
76860W        W45223  20.063  40.969   4.281
76861W        W45224  41.874  30.111   4.724
76862W        W45225   2.430  11.342   4.290
76863W        W45226  27.962   1.842   4.131
76864W        W45227  19.682  39.984   4.320
76865W        W45228  14.134  27.188  13.518
76866W        W45229  28.931  28.946   4.724
76867W        W45230   7.827  25.132   5.125
76868W        W45231  22.041  27.015   2.800
76869W        W45232  11.332   9.211   2.221
76870W        W45233  38.567   8.661   3.157
76871W        W45234  24.562   4.740   0.288
76872W        W45235   0.322  44.754  10.544
76873W        W45236  23.635  34.023  14.321
76874W        W45237  41.892  33.986   2.353
76875W        W45238  44.485  44.938  12.086
76876W        W45239  33.576  21.245   0.857
76877W        W45240  24.594  31.923   3.802
76878W        W45241  31.127  33.889   4.747
76879W        W45242  23.698  44.796   0.302
76880W        W45243  30.581  20.534  11.419
76881W        W45244  39.873  24.055  11.909
76882W        W45245  16.172   9.843   4.684
76883W        W45246  32.626  21.648   0.419
76884W        W45247  37.466  17.605   2.212
76885W        W45248  37.979  32.421  13.021
76886W        W45249  38.400  14.255   2.272
76887W        W45250   5.693  40.955   3.846
76888W        W45251  10.724  11.691   2.383
76889W        W45252  27.626  43.302   3.744
76890W        W45253  19.117  38.992  12.026
76891W        W45254  19.211  23.729   0.398
76892W        W45255  27.505   2.858   0.350
76893W        W45256  10.723   0.771  12.925
76894W        W45257  26.113  29.086  12.441
76895W        W45258  11.744  10.717  14.861
76896W        W45259   0.820  34.023   2.817
76897W        W45260   3.408  28.622  12.553
76898W        W45261  17.204  36.990  11.012
76899W        W45262  44.845  19.641   1.781
76900W        W45263  34.004  21.170   4.318
76901W        W45264  41.509   8.742   0.261
76902W        W45265  22.642  11.148   0.250
76903W        W45266   9.318  15.148  11.478
76904W        W45267   5.784   8.290   0.903
76905W        W45268   1.296   4.285   3.723
76906W        W45269  21.707  16.609   4.292
76907W        W45270  16.583  31.959  10.641
76908W        W45271   8.675  34.080   2.326
76909W        W45272  25.099   4.849  10.976
76910W        W45273  41.495  30.591   4.242
76911W        W45274  23.091  15.306  14.854
76912W        W45275   6.358  26.553   1.751
76913W        W45276  20.606  33.999   1.756
76914W        W45277  32.553   1.783  13.912
76915W        W45278  30.432  39.905  11.951
76916W        W45279  26.682   3.416  14.762
76917W        W45280  19.695  18.669   2.739
76918W        W45281  38.518   1.379  13.850
76919W        W45282   8.296   7.227   1.371
76920W        W45283  28.659  34.953  14.909
76921W        W45284  41.336   0.875   2.743
76922W        W45285  20.057  39.908   2.187
76923W        W45286   5.710  24.226  14.486
76924W        W45287   2.856  23.518   4.154
76925W        W45288   0.377  42.483  14.340
76926W        W45289  37.389  31.981  12.089
76927W        W45290  28.562  25.486   0.886
76928W        W45291  25.977  20.755  12.010
76929W        W45292  41.984  24.519   0.353
76930W        W45293  28.964  43.992  14.423
76931W        W45294  39.328  15.202   2.325
76932W        W45295  43.012   3.418  13.933
76933W        W45296   1.461  36.386   1.251
76934W        W45297  19.043  39.055  13.487
76935W        W45298   5.302  33.469  14.332
76936W        W45299  33.466  28.165  12.514
76937W        W45300  36.905   3.813   1.920
76938W        W45301  14.811   5.826  10.614
76939W        W45302  26.150  36.939   2.330
76940W        W45303  33.967   5.336  12.021
76941W        W45304  12.158  23.141  12.849
76942W        W45305  17.298  35.515   2.709
76943W        W45306  12.822  26.553  13.939
76944W        W45307   4.868   5.427   1.412
76945W        W45308  41.337  27.477  10.925
76946W        W45309  37.576  28.661   3.207
76947W        W45310  37.546  20.211  10.446
76948W        W45311  38.394  39.375  10.929
76949W        W45312  40.404  27.587  12.420
76950W        W45313   2.906  40.035   2.680
76951W        W45314   9.776  15.693  14.407
76952W        W45315   4.939  13.314   5.152
76953W        W45316  37.848  38.917   0.843
76954W        W45317  16.777  44.396  11.374
76955W        W45318   3.867   4.864   3.379
76956W        W45319  17.129  34.381  14.941
76957W        W45320  37.383  18.084  10.641
76958W        W45321   2.845   2.951  11.536
76959W        W45322  20.257  21.643   1.360
76960W        W45323  18.176   4.728  11.119
76961W        W45324   2.723  26.677   0.843
76962W        W45325  33.577  38.340  12.016
76963W        W45326  17.791  30.064  10.898
76964W        W45327   2.446  26.513  13.379
76965W        W45328   9.189  24.142  12.499
76966W        W45329  14.765  35.881  12.415
76967W        W45330  29.168   2.472   2.711
76968W        W45331  44.001  36.492  13.807
76969W        W45332  23.014  28.520   3.362
76970W        W45333  26.653  14.719  12.857
76971W        W45334   9.374   4.372   2.716
76972W        W45335  10.641  14.296  10.427
76973W        W45336  29.057   6.425   1.712
76974W        W45337   4.720  44.935  12.964
76975W        W45338  35.890  14.781  12.867
76976W        W45339  25.040   8.721   3.807
76977W        W45340  29.446  20.669   3.753
76978W        W45341  29.583  30.589  13.976
76979W        W45342  28.449   7.900   2.257
76980W        W45343   6.418  25.120   0.398
76981W        W45344  41.025  41.521   4.799
76982W        W45345  22.105  16.643   4.126
76983W        W45346   5.754  26.208  12.548
76984W        W45347  43.986  36.579   0.808
76985W        W45348  21.113   2.910  11.605
76986W        W45349  34.606  35.970  13.452
76987W        W45350   6.345  19.103  14.336
76988W        W45351   1.400  30.076   3.821
76989W        W45352  15.791  24.688   0.866
76990W        W45353  11.264  28.651  10.407
76991W        W45354  16.188   0.776   4.822
76992W        W45355   7.885  16.213  12.476
76993W        W45356  21.172  41.312  14.410
76994W        W45357  32.538  27.459   3.782
76995W        W45358  10.726  21.585  12.420
76996W        W45359  30.576  35.409  14.292
76997W        W45360  27.169  15.770  14.280
76998W        W45361  33.495  44.283   4.350
76999W        W45362   3.453   2.791   0.484
77000W        W45363  38.329   9.184  12.571
77001W        W45364  19.095  12.810   4.777
77002W        W45365  29.142  41.884   2.413
77003W        W45366  27.122  38.426   1.239
77004W        W45367   8.831  34.612  13.430
77005W        W45368  27.644  41.824  10.575
77006W        W45369  43.353  41.949   4.684
77007W        W45370  25.042   7.805   5.206
77008W        W45371  21.059  14.164   1.903
77009W        W45372   5.752  40.004  10.642
77010W        W45373  42.847  23.242  10.591
77011W        W45374  24.138  13.213   5.201
77012W        W45375  31.509   2.386  10.925
77013W        W45376  20.721   3.262   1.723
77014W        W45377  17.632   2.759   4.319
77015W        W45378  22.574  28.118   1.909
77016W        W45379  13.820  21.692  10.888
77017W        W45380   5.909   9.238   4.711
77018W        W45381  23.518  24.724   3.380
77019W        W45382  33.577   3.309  10.097
77020W        W45383  19.535  14.705  10.489
77021W        W45384  40.895  32.603   2.371
77022W        W45385  39.826  37.458   0.824
77023W        W45386  31.118  30.011   3.154
77024W        W45387  27.509  25.567  12.916
77025W        W45388   6.716  28.123  11.489
77026W        W45389   5.813  40.908  13.845
77027W        W45390  30.520   5.365   0.832
77028W        W45391  43.499  40.931   1.710
77029W        W45392  31.123   2.737  12.988
77030W        W45393   8.874  42.524   4.300
77031W        W45394  20.110  13.124  14.502
77032W        W45395  25.534  21.581  12.495
77033W        W45396   4.736  23.056  13.466
77034W        W45397  12.856  31.635   2.206
77035W        W45398  18.283  35.036   0.737
77036W        W45399   3.881  25.703  11.476
77037W        W45400  32.030  14.144  13.462
77038W        W45401  23.174  36.358  12.004
77039W        W45402  17.082   6.363  10.968
77040W        W45403   5.726  39.948  12.888
77041W        W45404   4.762  14.163  13.444
77042W        W45405  31.008  19.707   1.305
77043W        W45406  11.258  30.643  14.010
77044W        W45407  17.756  25.503  11.403
77045W        W45408  23.228  34.465   1.233
77046W        W45409  19.583  19.589  10.571
77047W        W45410  23.070  20.721  11.857
77048W        W45411  34.602  33.585  12.856
77049W        W45412  31.090   7.866  10.610
77050W        W45413   4.308  27.552   2.680
77051W        W45414   8.704  20.712  13.468
77052W        W45415  33.936  44.784   2.698
77053W        W45416   1.276  31.619   4.722
77054W        W45417  34.885  35.084   2.284
77055W        W45418  17.722  34.914   0.397
77056W        W45419  26.049  43.823   3.206
77057W        W45420  41.976   3.736  11.492
77058W        W45421  23.716  15.319  14.293
77059W        W45422   0.320  16.725   1.915
77060W        W45423  13.844  15.315   3.655
77061W        W45424  34.084  21.146   5.228
77062W        W45425  25.119   1.743  14.372
77063W        W45426   2.879  23.641  10.487
77064W        W45427  16.121  32.004  11.098
77065W        W45428  44.814  26.666   1.265
77066W        W45429   9.354  25.688  13.847
77067W        W45430  42.431   3.228  14.293
77068W        W45431  38.873  41.006   1.808
77069W        W45432  32.461  28.438   0.913
77070W        W45433  14.660  42.511  14.397
77071W        W45434  35.946   6.404   4.182
77072W        W45435  40.934   4.898   0.408
77073W        W45436  11.335  25.481  10.441
77074W        W45437  23.543   8.807   2.185
77075W        W45438  34.930   3.750   4.682
77076W        W45439  37.004   5.748   0.349
77077W        W45440  34.978   3.937   0.823
77078W        W45441  14.216  15.703   3.806
77079W        W45442   7.266  18.700   1.323
77080W        W45443  34.585  40.476  12.536
77081W        W45444  33.526  21.677  14.432
77082W        W45445  10.844  11.131  12.541
77083W        W45446  33.929  27.976   3.243
77084W        W45447  34.057  33.622  14.943
77085W        W45448  29.565   7.274  10.501
77086W        W45449  40.915  26.464  14.999
77087W        W45450   4.376  29.122  10.412
77088W        W45451  17.260   0.293   1.783
77089W        W45452  41.394   0.347  10.561
77090W        W45453  39.009   3.410  11.499
77091W        W45454   2.856   5.810   0.446
77092W        W45455  42.525   6.703   3.771
77093W        W45456  32.569  31.608  12.470
77094W        W45457  10.633  25.473  10.404
77095W        W45458  29.633  20.264  12.003
77096W        W45459   2.845  10.150  11.493
77097W        W45460  21.184  15.654   0.354
77098W        W45461  37.048  24.139  14.961
77099W        W45462  16.656  13.130  10.930
77100W        W45463  37.875   1.799   2.231
77101W        W45464  33.915  15.618   4.743
77102W        W45465  36.351  38.019   3.714
77103W        W45466   1.440  25.005   2.283
77104W        W45467  17.566  27.555   0.480
77105W        W45468  34.048  21.668  11.992
77106W        W45469  19.585   5.351   1.928
77107W        W45470   2.751  37.397  10.614
77108W        W45471  36.593  14.291   2.209
77109W        W45472   3.871  11.135   4.321
77110W        W45473  20.668  41.392  13.999
77111W        W45474  17.245  32.486   3.177
77112W        W45475  22.666  20.593   4.253
77113W        W45476  32.419   0.796   3.808
77114W        W45477   0.318   1.882  11.980
77115W        W45478  11.688  22.090  11.612
77116W        W45479   3.395  40.360   4.199
77117W        W45480  31.987   4.206  10.461
77118W        W45481  40.954  12.125   4.600
77119W        W45482  14.694  10.807   0.291
77120W        W45483  31.979  40.311   3.298
77121W        W45484   4.891  30.482  14.466
77122W        W45485  30.145  41.039  12.974
77123W        W45486   7.829  27.985  11.524
77124W        W45487  44.472  33.102   3.245
77125W        W45488  16.629  22.204  11.128
77126W        W45489   5.890   3.219   4.695
77127W        W45490  14.178  41.988  13.889
77128W        W45491   1.441  14.262   2.305
77129W        W45492  29.007  26.017   3.248
77130W        W45493  14.601   0.473   3.205
77131W        W45494  23.612   4.410   4.666
77132W        W45495  36.996  29.065   0.302
77133W        W45496  18.719  23.044  12.506
77134W        W45497   0.975  42.017  13.522
77135W        W45498   0.460   0.443   0.734
77136W        W45499  36.569  11.138   3.180
77137W        W45500  30.130  35.999  11.046
77138W        W45501  16.776   7.772   4.694
77139W        W45502  41.301  39.474  13.359
77140W        W45503  26.018  15.711   1.320
77141W        W45504  10.873  28.535  12.876
77142W        W45505  28.587  29.661   0.821
77143W        W45506  38.555  20.207   0.804
77144W        W45507  42.979  38.849   4.651
77145W        W45508  37.469  16.074   4.743
77146W        W45509  13.232  36.461   3.170
77147W        W45510  11.667  32.917  12.863
77148W        W45511  26.658  40.957  11.991
77149W        W45512  20.586  10.281  11.462
77150W        W45513   1.402  35.881  13.374
77151W        W45514   1.270  37.445  11.503
77152W        W45515  20.256  11.704  11.095
77153W        W45516  23.004  43.996   1.868
77154W        W45517  22.531  38.353   1.924
77155W        W45518  33.439   7.267   3.712
77156W        W45519  38.408  36.865   1.359
77157W        W45520  16.142  34.892   2.870
77158W        W45521  12.138   5.305   4.702
77159W        W45522   3.870  26.161   4.795
77160W        W45523  36.927  14.611  12.930
77161W        W45524  32.624  42.356   0.768
77162W        W45525   1.882  30.095   1.745
77163W        W45526  34.091  16.724   1.771
77164W        W45527  14.238  37.846   1.706
77165W        W45528  31.633  28.485  13.400
77166W        W45529   5.926  35.597   0.780
77167W        W45530   4.726  31.519   0.355
77168W        W45531  44.294  15.324  12.887
77169W        W45532  26.605  10.215   4.199
77170W        W45533  24.079  16.159  12.362
77171W        W45534  34.594  32.507   2.739
77172W        W45535  29.645  14.290   2.367
77173W        W45536   6.428  44.430   0.932
77174W        W45537   1.379  37.428   2.838
77175W        W45538  25.182  41.859   3.679
77176W        W45539   0.421   1.871  14.459
77177W        W45540   3.877   9.161  14.835
77178W        W45541  29.460  32.068  10.109
77179W        W45542   1.352  30.429   3.793
77180W        W45543  32.538   0.956  14.923
77181W        W45544  14.685   3.317   4.709
77182W        W45545  33.000   0.904  14.877
77183W        W45546   6.827  31.135  12.966
77184W        W45547  15.184  41.039   1.299
77185W        W45548  24.070  44.868   4.168
77186W        W45549  26.480  35.951   0.317
77187W        W45550   4.881  10.199  14.838
77188W        W45551  33.583   9.668  12.450
77189W        W45552  20.735  25.155   0.754
77190W        W45553  17.277  28.019   2.404
77191W        W45554  38.391  18.551   2.710
77192W        W45555  23.175  44.861  10.454
77193W        W45556  25.598  15.739   0.339
77194W        W45557   0.311   2.383   2.815
77195W        W45558   4.866  30.112  10.551
77196W        W45559  37.913  29.927   4.811
77197W        W45560  40.841  25.213   3.244
77198W        W45561  37.478  31.412  14.494
77199W        W45562  22.628  28.546   0.951
77200W        W45563   6.320  10.709   2.341
77201W        W45564   1.945  10.862   0.332
77202W        W45565   1.782   5.364   0.760
77203W        W45566  40.458  23.549   4.665
77204W        W45567  31.937  15.196  11.489
77205W        W45568  11.630  37.532  10.596
77206W        W45569  10.660  35.982   2.687
77207W        W45570  16.754  33.912  12.571
77208W        W45571  11.303  42.348   4.699
77209W        W45572  16.291  24.707  11.497
77210W        W45573   6.861  27.034   0.339
77211W        W45574  33.000  24.550  13.024
77212W        W45575   7.172   5.848   2.693
77213W        W45576  22.115  37.448  12.423
77214W        W45577   5.302  38.856  11.998
77215W        W45578  17.163  40.889   2.419
77216W        W45579   7.192  21.168  11.937
77217W        W45580  35.108  34.525  11.907
77218W        W45581  24.533  25.576   4.284
77219W        W45582  21.190  14.242   0.823
77220W        W45583  30.470  22.062   1.255
77221W        W45584  23.033  22.585  13.511
77222W        W45585  18.086  35.390   2.793
77223W        W45586   5.786  19.563  12.388
77224W        W45587   8.772  31.542   4.615
77225W        W45588  13.791  41.363  11.885
77226W        W45589  12.307   8.679   0.914
77227W        W45590  21.642   4.437  10.634
77228W        W45591  16.311   0.275   0.277
77229W        W45592   5.353   3.438   1.344
77230W        W45593  19.124   2.245   3.347
77231W        W45594  23.603  43.383   2.262
77232W        W45595  27.997  44.805   4.755
77233W        W45596  40.327  17.143  13.943
77234W        W45597  10.345  34.533  13.007
77235W        W45598  41.295  31.914  14.342
77236W        W45599  14.700  25.152  14.820
77237W        W45600   2.843  21.731  10.002
77238W        W45601  25.034  36.548   1.428
77239W        W45602  25.602  41.009   4.612
77240W        W45603  14.148  26.621  12.956
77241W        W45604   7.810   0.450  14.378
77242W        W45605  21.052   8.837  11.418
77243W        W45606   5.777  43.318   4.145
77244W        W45607  39.903  22.220  13.918
77245W        W45608  21.257  42.984  10.096
77246W        W45609  14.325  31.937   2.758
77247W        W45610  43.506  38.061   5.284
77248W        W45611  33.523  43.947  12.864
77249W        W45612   4.930  29.600   2.743
77250W        W45613  36.893  39.408   3.823
77251W        W45614  27.567  15.762   2.817
77252W        W45615  23.554  20.138  13.881
77253W        W45616  10.871  43.480   3.316
77254W        W45617  16.791  30.985  13.878
77255W        W45618  22.115  41.362  12.474
77256W        W45619  31.482  23.116  14.279
77257W        W45620  29.020  17.611   4.320
77258W        W45621  42.863  18.769  10.446
77259W        W45622  36.907   3.903  14.769
77260W        W45623  39.025   5.850   0.369
77261W        W45624  33.602  17.092  12.080
77262W        W45625   8.161   0.822   0.461
77263W        W45626  36.443  22.036  14.925
77264W        W45627   4.438  40.449  12.495
77265W        W45628   7.416  19.127  14.450
77266W        W45629  19.119  40.828  14.383
77267W        W45630  15.125   5.211   1.845
77268W        W45631   3.424   2.226   4.178
77269W        W45632  37.525  18.597  12.387
77270W        W45633  12.739  17.575   1.396
77271W        W45634  42.306   8.875   3.308
77272W        W45635   7.235  31.491  13.847
77273W        W45636  14.113   0.792   2.781
77274W        W45637  15.717  36.517   3.744
77275W        W45638   4.894   3.739  12.343
77276W        W45639  25.031  39.867  13.989
77277W        W45640  29.020  12.279   1.230
77278W        W45641   0.846  30.459   0.804
77279W        W45642  16.606  36.401   2.833
77280W        W45643   9.700  31.632  11.473
77281W        W45644  11.858  31.933  13.474
77282W        W45645  23.575  40.942   1.233
77283W        W45646  14.314  44.469  13.392
77284W        W45647   7.181  19.684   4.834
77285W        W45648  39.874  41.437   4.295
77286W        W45649   1.873  37.415  10.969
77287W        W45650  42.027  39.550   1.318
77288W        W45651  38.929   7.832  12.374
77289W        W45652  20.528  40.038   0.815
77290W        W45653  37.538   0.362  11.046
77291W        W45654  28.099  30.138   4.158
77292W        W45655  34.012  10.178   0.754
77293W        W45656  18.781  17.562   2.343
77294W        W45657  19.751  39.042   3.696
77295W        W45658  31.488  12.788  13.482
77296W        W45659  13.706  38.025   0.848
77297W        W45660  42.293  22.137   4.650
77298W        W45661  30.961   2.416  12.481
77299W        W45662  25.154  36.563  13.883
77300W        W45663  26.658  30.560   2.237
77301W        W45664   0.857  18.623  14.350
77302W        W45665  15.264   0.367   2.859
77303W        W45666   1.871  35.947   2.821
77304W        W45667  28.054  20.143  10.515
77305W        W45668  44.971  38.508   5.148
77306W        W45669  14.304   5.822   4.676
77307W        W45670  40.502  21.615   0.920
77308W        W45671  17.138   8.733   9.970
77309W        W45672  14.302  24.175   3.705
77310W        W45673  23.204  42.955   3.740
77311W        W45674  13.839  11.221   2.682
77312W        W45675  40.961   0.915  14.868
77313W        W45676  36.018  13.336  13.326
77314W        W45677  22.099  11.805   0.841
77315W        W45678  14.163  15.737   4.156
77316W        W45679  12.241  40.542  13.357
77317W        W45680  24.570  30.938   1.774
77318W        W45681  23.684  41.373   2.802
77319W        W45682  33.901  32.504  10.486
77320W        W45683  11.807  16.812  13.812
77321W        W45684   9.887  11.155   0.927
77322W        W45685   7.347  31.077   1.408
77323W        W45686  14.640  27.449   2.845
77324W        W45687   5.204  33.456  10.428
77325W        W45688   9.328  26.524  11.108
77326W        W45689  33.553  32.939  14.761
77327W        W45690  12.715   2.424  12.008
77328W        W45691  17.729  28.563  12.859
77329W        W45692  16.586  44.270   0.768
77330W        W45693  29.648   2.288   1.313
77331W        W45694  24.117   3.446   3.844
77332W        W45695  42.353  25.000   2.365
77333W        W45696   9.369  10.157   3.347
77334W        W45697  24.593  17.179  10.963
77335W        W45698  22.232  16.227  14.474
77336W        W45699   3.798  27.619  14.970
77337W        W45700  28.633   3.242   2.326
77338W        W45701   8.677  26.640  13.808
77339W        W45702  32.411  42.792  10.477
77340W        W45703   6.242  16.304   0.892
77341W        W45704  22.569  42.421  12.580
77342W        W45705  37.067  41.921   4.696
77343W        W45706  37.336  41.338  12.957
77344W        W45707  17.752  37.473  14.979
77345W        W45708  30.039  32.580  11.466
77346W        W45709  30.432  16.583  11.938
77347W        W45710  21.642  20.646  14.809
77348W        W45711  27.518   7.863   1.254
77349W        W45712  32.538  33.520  11.520
77350W        W45713  13.605  33.585   2.845
77351W        W45714  37.424  21.055   4.760
77352W        W45715   2.922  21.587   3.199
77353W        W45716   6.895  43.977  11.869
77354W        W45717  14.747  37.539  14.991
77355W        W45718  15.134  21.660   3.685
77356W        W45719  38.895   3.222   0.366
77357W        W45720  43.513  16.264  11.490
77358W        W45721  28.163  26.466   4.714
77359W        W45722  13.637  28.055  12.042
77360W        W45723  25.092  27.608   4.139
77361W        W45724  14.598   0.781  10.069
77362W        W45725  10.222  29.963   3.718
77363W        W45726   6.418  32.464   4.197
77364W        W45727  41.960  41.525   5.274
77365W        W45728  27.579  15.659  12.049
77366W        W45729  42.484   8.300  12.860
77367W        W45730   5.826  40.016  14.944
77368W        W45731  22.073  26.972   3.218
77369W        W45732  20.547  29.975  14.458
77370W        W45733  19.550   0.769  13.420
77371W        W45734   1.834  35.376   3.375
77372W        W45735  43.487  16.628  12.523
77373W        W45736  30.448   1.973   1.232
77374W        W45737   6.688  32.481  10.635
77375W        W45738  29.044  25.001   4.665
77376W        W45739  17.119   5.747   4.197
77377W        W45740  18.219  43.009  11.414
77378W        W45741  17.618  16.640  10.560
77379W        W45742  11.225  11.695  12.550
77380W        W45743  13.643  29.082   0.943
77381W        W45744  27.493   2.450  10.614
77382W        W45745   1.455  16.220   4.679
77383W        W45746  31.623  10.223   1.433
77384W        W45747  10.843  24.050  12.364
77385W        W45748  28.513   8.811  13.997
77386W        W45749  16.097  13.149  12.935
77387W        W45750   1.762  15.635   4.331
77388W        W45751  30.609  20.097  12.859
77389W        W45752   1.793  18.732  12.062
77390W        W45753  11.323   1.452  14.516
77391W        W45754  21.622  37.432  11.982
77392W        W45755  12.298   0.474  11.372
77393W        W45756  43.278  34.522  13.520
77394W        W45757   9.813  44.310   2.264
77395W        W45758  44.364  18.699   0.472
77396W        W45759   9.832  19.568   1.818
77397W        W45760   3.266  44.468   4.809
77398W        W45761  38.879  26.671  13.957
77399W        W45762  12.629   8.691   1.734
77400W        W45763  16.715  38.461  14.985
77401W        W45764   7.903  41.525  10.580
77402W        W45765  41.307  25.615   3.219
77403W        W45766  35.011  40.854   0.953
77404W        W45767  39.317  27.157   3.795
77405W        W45768  43.962   0.760   3.304
77406W        W45769  14.168   0.438   1.253
77407W        W45770  20.555  12.728  13.896
77408W        W45771  19.182  42.940  11.603
77409W        W45772  17.296  40.387  12.485
77410W        W45773  36.853   1.453  13.445
77411W        W45774  41.787  11.643   2.831
77412W        W45775  23.668  12.158   2.791
77413W        W45776  28.598  36.855   2.210
77414W        W45777   8.262   7.275  12.877
77415W        W45778   3.409   6.819   4.660
77416W        W45779  17.204  20.264   1.774
77417W        W45780  28.631  38.929   4.653
77418W        W45781  17.716  25.155  13.528
77419W        W45782  10.661  20.246   4.815
77420W        W45783  14.615  22.603  12.037
77421W        W45784   5.703  35.503  12.825
77422W        W45785  21.261  36.445  11.028
77423W        W45786  31.905   5.384  11.454
77424W        W45787  28.574  39.385   2.350
77425W        W45788  20.535  10.238   0.333
77426W        W45789  38.858   4.288  13.466
77427W        W45790   6.822  10.730  11.008
77428W        W45791   2.233  10.832   0.438
77429W        W45792  12.350  31.926   3.192
77430W        W45793   3.807  41.845  14.921
77431W        W45794  33.445   5.295   1.213
77432W        W45795  43.767  20.700   1.312
77433W        W45796  14.639  25.664   1.871
77434W        W45797  19.127  41.529  10.594
77435W        W45798  39.440  21.514   4.252
77436W        W45799  44.887  18.577  11.588
77437W        W45800   3.357  38.937  12.359
77438W        W45801   5.281  15.088  12.544
77439W        W45802  29.021  18.188   3.670
77440W        W45803  38.378  35.396  12.835
77441W        W45804  38.865  28.508   0.941
77442W        W45805   9.359  27.068   1.886
77443W        W45806  19.650   8.294  12.503
77444W        W45807   4.361  27.056   0.951
77445W        W45808  30.606  25.673   4.115
77446W        W45809   5.692  32.098  12.416
77447W        W45810  43.310  44.963   1.885
77448W        W45811  32.470   1.754   3.713
77449W        W45812  27.980  25.629   3.845
77450W        W45813  16.673  27.533   4.693
77451W        W45814  39.951  41.433  11.547
77452W        W45815   9.380  35.058   3.803
77453W        W45816   7.680  14.673  13.390
77454W        W45817   7.741  27.023   4.658
77455W        W45818  10.848  27.066  11.501
77456W        W45819  17.069  39.821   0.455
77457W        W45820   7.406  23.000  12.499
77458W        W45821   0.930   3.892  10.631
77459W        W45822  13.233  29.516   3.821
77460W        W45823  31.005   0.848  12.884
77461W        W45824  31.610  15.177  14.360
77462W        W45825  11.320  27.470   4.682
77463W        W45826  21.231  25.133  11.964
77464W        W45827  21.126   0.395   3.225
77465W        W45828  43.346  26.019   0.243
77466W        W45829  31.933  21.535  12.082
77467W        W45830  24.209   4.400  12.519
77468W        W45831  26.587  28.121  11.074
77469W        W45832   9.718  29.647  12.566
77470W        W45833  44.410  34.552  12.374
77471W        W45834  40.528  22.202   0.385
77472W        W45835  41.862  18.073  13.933
77473W        W45836   9.688  25.576  11.049
77474W        W45837  32.514  35.587   3.216
77475W        W45838  12.176  28.592  13.994
77476W        W45839  27.112  17.704   0.465
77477W        W45840  16.185   4.861   3.723
77478W        W45841   9.168  39.914  11.576
77479W        W45842  26.951  37.385   2.823
77480W        W45843  41.339   5.878  11.458
77481W        W45844  17.699   1.740   1.705
77482W        W45845  29.121  14.706   5.785
77483W        W45846   3.312  26.163   3.299
77484W        W45847   1.953  39.974  12.000
77485W        W45848   1.381  44.429  13.478
77486W        W45849   2.848  24.541   0.293
77487W        W45850   3.347  30.641  12.501
77488W        W45851  28.109  25.152  12.055
77489W        W45852   5.869  41.496  12.572
77490W        W45853  15.272  31.919  12.826
77491W        W45854  27.012  33.973   0.833
77492W        W45855  18.727   4.760   3.318
77493W        W45856  36.919  13.640   5.255
77494W        W45857  10.860   0.364  13.838
77495W        W45858  33.078  11.290  14.900
77496W        W45859  42.521  21.170  12.075
77497W        W45860  16.577  42.475   9.962
77498W        W45861  11.191   2.784   1.289
77499W        W45862  23.087  24.632  14.930
77500W        W45863  27.165  22.194  10.617
77501W        W45864  35.442  32.621  14.507
77502W        W45865  29.432  41.398  13.313
77503W        W45866  10.210   7.712   3.847
77504W        W45867  25.610   8.367   1.252
77505W        W45868   6.219  40.850  13.047
77506W        W45869  26.012   9.738   1.291
77507W        W45870  35.597  17.147  11.962
77508W        W45871  37.887  40.907   0.405
77509W        W45872  15.222   2.758  14.440
77510W        W45873   8.701  17.093  11.984
77511W        W45874  41.477  10.868  14.879
77512W        W45875  43.447  31.431   1.813
77513W        W45876   0.802  13.307  14.775
77514W        W45877  43.380  22.033   2.804
77515W        W45878  12.698  25.612   1.287
77516W        W45879  22.597  37.881   2.306
77517W        W45880  15.218   5.830   9.550
77518W        W45881  32.944  33.049  13.978
77519W        W45882  19.214   3.360  11.990
77520W        W45883  15.102   4.866   1.290
77521W        W45884  20.065  38.496   4.271
77522W        W45885   2.291  26.474  14.877
77523W        W45886   6.843   7.334  12.906
77524W        W45887   6.911  10.267   3.169
77525W        W45888  34.007  29.550  10.994
77526W        W45889  11.169  34.448   2.887
77527W        W45890  22.630   2.773  11.442
77528W        W45891  25.567  17.211   0.370
77529W        W45892  24.004  18.203  12.557
77530W        W45893  21.618  35.509   3.161
77531W        W45894  27.957  24.210  10.901
77532W        W45895   7.185   1.861  12.399
77533W        W45896  30.058  16.094  12.836
77534W        W45897  13.835  13.661   3.375
77535W        W45898  16.583  25.655  12.912
77536W        W45899   7.748  20.265   3.254
77537W        W45900  18.161  23.208  10.926
77538W        W45901  35.858  30.622  11.874
77539W        W45902  34.952  27.462   4.255
77540W        W45903  33.483   3.228   3.639
77541W        W45904  39.494   7.300  12.954
77542W        W45905  16.147   7.766   2.365
77543W        W45906   1.377  35.492   1.737
77544W        W45907  34.436  14.309   0.428
77545W        W45908  21.177  42.823   2.220
77546W        W45909   2.886  26.672  11.914
77547W        W45910  15.766  15.252   2.198
77548W        W45911  27.562  12.163   2.212
77549W        W45912  44.891   7.787   1.824
77550W        W45913  34.016   9.380  12.873
77551W        W45914  27.639   3.434  12.902
77552W        W45915  13.749  28.638  10.405
77553W        W45916  41.934  37.412  14.835
77554W        W45917   9.162  32.633  12.520
77555W        W45918   7.194   9.228   1.878
77556W        W45919   7.814   4.888   4.820
77557W        W45920   2.447  15.177   0.417
77558W        W45921  38.967  15.785   3.787
77559W        W45922  38.389  27.630   3.648
77560W        W45923  35.888   0.861   0.902
77561W        W45924  18.700   5.871   0.291
77562W        W45925  16.185  21.514   1.835
77563W        W45926  31.427  28.560  10.905
77564W        W45927  17.728  18.249  14.356
77565W        W45928   8.889   0.367   9.986
77566W        W45929  39.432   6.183  13.395
77567W        W45930   0.879  18.685  10.564
77568W        W45931  35.975   6.755   3.653
77569W        W45932   8.293  42.526  13.321
77570W        W45933  19.262   0.263   4.186
77571W        W45934  34.099  33.496  10.445
77572W        W45935  11.369   8.667   4.150
77573W        W45936  21.656  31.093   2.719
77574W        W45937   3.429   3.396  13.428
77575W        W45938  37.027  13.736  10.983
77576W        W45939   4.863  24.109   2.235
77577W        W45940  28.478   5.417   0.789
77578W        W45941  26.556  19.737   2.216
77579W        W45942  18.255   8.822   1.279
77580W        W45943  32.904   0.271   4.281
77581W        W45944  13.803  40.343  10.469
77582W        W45945  28.986  30.008  10.956
77583W        W45946  13.205  38.447   1.784
77584W        W45947   5.863  27.107   3.258
77585W        W45948   4.758  27.612  14.281
77586W        W45949   7.889  43.471   0.339
77587W        W45950  23.044  41.296  11.106
77588W        W45951  42.365  11.284  14.477
77589W        W45952  23.185  21.233   1.880
77590W        W45953  39.354   0.826   1.336
77591W        W45954   2.342  32.057   0.404
77592W        W45955  12.244  41.018   4.175
77593W        W45956   3.452  16.768  10.981
77594W        W45957  24.588  35.881  10.888
77595W        W45958   2.732  25.066  14.773
77596W        W45959   4.432   9.253   0.424
77597W        W45960  12.780   8.180   3.159
77598W        W45961  27.187  25.006  12.902
77599W        W45962  35.473   2.757   0.820
77600W        W45963  36.918  43.368  14.022
77601W        W45964  22.064  24.980  13.314
77602W        W45965  30.589  33.884   4.705
77603W        W45966   0.856  31.140   2.893
77604W        W45967  14.696  12.826  11.097
77605W        W45968  27.504   6.749   0.892
77606W        W45969   1.804  36.000   1.396
77607W        W45970  16.573   5.223   3.688
77608W        W45971  29.642  23.594  14.507
77609W        W45972  43.341   7.705  13.872
77610W        W45973   6.743  25.691  11.037
77611W        W45974   4.829  30.564  12.953
77612W        W45975  27.165  11.862   4.175
77613W        W45976  24.037  14.799  13.490
77614W        W45977   4.389  42.013  10.975
77615W        W45978  13.145  11.165  10.643
77616W        W45979   9.838  29.085   4.632
77617W        W45980  12.322  33.499   1.383
77618W        W45981  12.288  39.347   3.266
77619W        W45982   6.320  13.261  11.949
77620W        W45983   0.432  16.084  13.482
77621W        W45984  17.201  25.011   3.280
77622W        W45985  18.555  40.054   0.377
77623W        W45986  39.553  25.662   0.398
77624W        W45987  20.111  29.080   4.664
77625W        W45988  11.185   9.164  14.507
77626W        W45989  23.057  10.194   3.259
77627W        W45990  26.999  20.688  11.947
77628W        W45991   4.707   7.283  12.364
77629W        W45992  16.154  37.442   2.379
77630W        W45993   6.313  18.194   4.710
77631W        W45994  14.119  34.432  11.457
77632W        W45995  44.337  16.570  13.381
77633W        W45996  15.221   6.730  12.398
77634W        W45997  26.614  31.413  10.464
77635W        W45998   8.771  28.089  14.775
77636W        W45999  28.586  23.639   1.861
77637W        W46000   0.853  36.460   3.149
77638W        W46001  20.664  29.140   2.761
77639W        W46002  44.442  24.219  14.835
77640W        W46003  19.570  35.515   4.652
77641W        W46004  34.583  18.111   3.361
77642W        W46005  34.092  26.670   1.935
77643W        W46006   3.338  33.620   3.843
77644W        W46007  15.148   9.707  14.335
77645W        W46008  27.147  21.158  14.409
77646W        W46009   5.302  30.603   4.302
77647W        W46010  11.353  40.492  10.557
77648W        W46011  31.496  14.623  10.588
77649W        W46012  18.689   1.403  11.095
77650W        W46013  13.753   5.213   4.746
77651W        W46014  33.437   0.325   1.834
77652W        W46015   4.282  24.614   2.896
77653W        W46016  15.200   2.411  11.018
77654W        W46017  19.609   8.239   1.434
77655W        W46018  28.457  16.284  11.886
77656W        W46019  41.438  16.772   0.363
77657W        W46020   6.736  33.072   0.753
77658W        W46021  23.153  44.326  10.585
77659W        W46022  12.278  18.254   2.807
77660W        W46023  27.133  29.014  12.091
77661W        W46024  31.117  38.917   3.720
77662W        W46025  33.876  42.398   2.333
77663W        W46026  26.021  22.649  13.025
77664W        W46027  22.237  18.678   0.314
77665W        W46028  12.235  35.423  11.923
77666W        W46029  36.425  40.472  10.928
77667W        W46030  29.601  25.978   4.619
77668W        W46031  39.812  19.259  12.023
77669W        W46032  28.654   2.337   1.708
77670W        W46033   5.294  19.675  12.932
77671W        W46034  18.745  17.099  11.578
77672W        W46035  14.219  14.680  11.549
77673W        W46036  27.003  24.181  14.829
77674W        W46037  25.624  27.964  12.089
77675W        W46038  18.768  19.260   4.745
77676W        W46039  39.549   9.856  14.449
77677W        W46040  43.824  25.571   4.624
77678W        W46041   9.830  23.491  10.604
77679W        W46042  12.825   2.312   1.785
77680W        W46043  44.298  31.020   0.819
77681W        W46044  22.594   7.175   3.279
77682W        W46045  39.012  44.956  13.865
77683W        W46046  43.331   4.930   0.917
77684W        W46047   6.307  37.348  12.046
77685W        W46048  11.249  34.428   2.378
77686W        W46049  35.415  23.127   2.666
77687W        W46050   2.253  10.197  13.993
77688W        W46051   9.852  16.247  13.511
77689W        W46052   1.928  44.754  11.940
77690W        W46053  21.028  22.517  13.019
77691W        W46054  44.427  25.081  14.394
77692W        W46055  44.873   2.298  11.602
77693W        W46056   1.413  14.774  14.013
77694W        W46057  27.570  12.614   3.810
77695W        W46058  33.420  30.014   0.735
77696W        W46059  13.324  36.501   4.770
77697W        W46060  13.825  17.677   2.368
77698W        W46061   2.416  44.294   2.798
77699W        W46062  25.072  41.406   3.371
77700W        W46063  38.846  25.699  14.841
77701W        W46064   4.313  31.624   1.721
77702W        W46065  10.781   0.401   4.616
77703W        W46066  17.140  27.566   3.298
77704W        W46067  22.171  42.474   2.849
77705W        W46068  33.616   8.779  11.590
77706W        W46069   9.738   9.229   2.239
77707W        W46070  10.156  42.325  10.519
77708W        W46071  44.391  34.897   0.286
77709W        W46072   8.263   4.347  11.937
77710W        W46073   3.900  20.048  11.457
77711W        W46074  41.860  14.137  13.034
77712W        W46075  17.280  26.690   3.743
77713W        W46076   5.363  19.219   0.771
77714W        W46077  24.061   5.259   4.230
77715W        W46078  42.381  42.515   1.226
77716W        W46079  40.835  44.266   0.863
77717W        W46080   2.758  29.960  14.416
77718W        W46081  28.009  37.420   1.925
77719W        W46082  28.638   4.917  10.420
77720W        W46083  40.942   9.231   1.332
77721W        W46084  44.339  37.842  14.493
77722W        W46085  26.621  42.017  13.507
77723W        W46086   0.280  22.234  14.407
77724W        W46087  19.555  12.706  11.391
77725W        W46088   5.899  31.065  10.583
77726W        W46089   0.856   9.210   3.361
77727W        W46090  44.293  43.388   4.189
77728W        W46091  24.694  38.327  11.128
77729W        W46092   2.322  37.425   0.409
77730W        W46093  22.630  17.584  11.108
77731W        W46094  23.242  26.013   3.714
77732W        W46095  26.548  39.453  12.823
77733W        W46096  34.951  12.361  11.937
77734W        W46097  30.519  18.585   0.321
77735W        W46098  35.421   0.916  13.483
77736W        W46099  23.999  11.359   0.374
77737W        W46100  32.988  12.212  14.942
77738W        W46101  34.978  36.437  11.531
77739W        W46102  13.630  14.729   3.377
77740W        W46103  37.002  44.958   3.366
77741W        W46104  16.166  29.971   0.849
77742W        W46105  44.342  41.923  10.495
77743W        W46106  21.733  20.552  12.474
77744W        W46107  33.425  20.713  10.898
77745W        W46108  10.700  23.625   2.397
77746W        W46109  24.489  44.818   1.904
77747W        W46110   1.327  37.384   4.241
77748W        W46111  42.912  24.991  14.349
77749W        W46112  10.650  38.463   0.906
77750W        W46113  36.404  21.142   3.870
77751W        W46114  18.731  22.705  12.008
77752W        W46115  17.672  25.667  13.032
77753W        W46116   2.232  42.976   2.333
77754W        W46117  25.543  43.855  14.515
77755W        W46118  29.132  15.686  13.498
77756W        W46119  23.042  36.545   0.267
77757W        W46120   5.414   1.411  11.438
77758W        W46121  43.799  16.645  11.440
77759W        W46122  39.420  20.615   1.830
77760W        W46123  21.047  17.196   0.758
77761W        W46124   2.376  44.885   4.341
77762W        W46125   8.850  25.016   1.748
77763W        W46126  18.579   6.310   4.141
77764W        W46127  41.018  16.309   2.252
77765W        W46128  16.799  29.937   1.825
77766W        W46129  39.554   9.190  13.050
77767W        W46130  30.045  40.534  14.909
77768W        W46131  12.362   9.725   1.743
77769W        W46132  28.568  42.982   1.867
77770W        W46133  33.107  10.792  10.928
77771W        W46134  16.243  40.869  14.993
77772W        W46135   1.368  19.086   1.330
77773W        W46136  13.692  25.537   4.751
77774W        W46137  33.079  29.657  12.421
77775W        W46138  16.238  17.071  14.324
77776W        W46139   4.863  14.110   4.723
77777W        W46140   9.293   8.728   4.346
77778W        W46141  32.633  11.330   4.333
77779W        W46142  17.773  30.021  12.858
77780W        W46143   4.294  20.260  13.812
77781W        W46144  29.950   9.814   4.192
77782W        W46145  13.106   7.773   3.148
77783W        W46146  13.251  16.716   4.257
77784W        W46147  14.285   4.925  12.421
77785W        W46148  42.386  37.423  12.513
77786W        W46149  26.155  22.117   1.739
77787W        W46150   8.728  25.516  13.515
77788W        W46151  22.680  42.502  10.629
77789W        W46152  19.693  27.558   0.312
77790W        W46153  20.265  21.196  11.074
77791W        W46154  43.401  32.616   0.258
77792W        W46155   1.745   6.411   0.310
77793W        W46156  27.986  11.243   4.655
77794W        W46157  18.143   0.773   4.309
77795W        W46158  23.494  28.990   2.841
77796W        W46159  24.653  34.083  13.805
77797W        W46160  34.001   0.972   9.921
77798W        W46161  10.685  39.524  10.562
77799W        W46162   8.183  32.615   4.762
77800W        W46163  21.554  17.705   3.228
77801W        W46164   2.446  15.819  13.944
77802W        W46165  36.494  42.308   4.210
77803W        W46166  41.372  29.552  11.924
77804W        W46167   4.241  42.492  12.530
77805W        W46168  30.071   9.840  10.521
77806W        W46169  29.121  36.438   2.808
77807W        W46170  43.909   4.209  14.331
77808W        W46171  34.956  25.003  11.029
77809W        W46172  21.512  23.630  10.903
77810W        W46173  34.582   5.264   4.170
77811W        W46174  20.159   3.934   0.836
77812W        W46175  32.112  28.044  10.476
77813W        W46176  36.851  43.474  13.539
77814W        W46177  10.747  38.955   3.353
77815W        W46178  23.573   2.849  11.461
77816W        W46179  24.229  18.224   4.760
77817W        W46180  22.133   2.464   0.864
77818W        W46181   4.298   7.782  13.523
77819W        W46182  13.690  21.062   3.731
77820W        W46183   4.213  37.962  12.083
77821W        W46184  28.072   2.452  11.391
77822W        W46185  37.841  13.698   0.879
77823W        W46186  24.705  16.303  14.514
77824W        W46187  13.740  22.623   0.801
77825W        W46188  33.028  40.327   4.776
77826W        W46189  20.693  29.079   4.350
77827W        W46190   8.181   5.827   2.228
77828W        W46191   9.337   0.277  10.633
77829W        W46192   4.875  41.834  13.418
77830W        W46193  29.467  19.071   3.216
77831W        W46194   5.227  40.384   0.954
77832W        W46195  12.118  31.469  10.475
77833W        W46196  25.610   0.424   1.840
77834W        W46197  26.089  40.051   2.760
77835W        W46198  15.604  24.105  11.515
77836W        W46199   4.720  36.546   3.267
77837W        W46200  42.799  16.119   1.896
77838W        W46201  28.946  44.448   1.912
77839W        W46202  40.909  20.268  14.995
77840W        W46203  44.500  14.323  12.852
77841W        W46204   6.729  10.262  11.537
77842W        W46205  17.736  41.980  14.791
77843W        W46206  16.757  10.276  13.420
77844W        W46207  41.836  14.321  10.963
77845W        W46208  44.935  40.007   4.800
77846W        W46209  16.272   3.362  12.092
77847W        W46210  36.532  25.975   0.277
77848W        W46211  21.029   5.824   3.636
77849W        W46212  36.401  40.509   0.376
77850W        W46213   7.264  40.881  12.366
77851W        W46214  36.867   3.774  10.461
77852W        W46215  18.286  17.724  14.945
77853W        W46216   5.192  11.240   3.148
77854W        W46217   8.710  44.992   2.210
77855W        W46218   5.278  18.201  14.487
77856W        W46219  20.649  37.076   0.436
77857W        W46220  16.740  10.841  13.049
77858W        W46221   5.791  22.660  11.866
77859W        W46222   1.477  12.343   0.417
77860W        W46223  30.125  43.311  10.446
77861W        W46224   7.851   6.276   4.123
77862W        W46225  33.098  17.577   0.863
77863W        W46226  22.670  21.518   0.267
77864W        W46227  44.368  30.135  13.374
77865W        W46228  38.987   0.350  11.560
77866W        W46229  10.684  31.513   4.803
77867W        W46230  22.507   7.868  10.487
77868W        W46231  40.843  33.069  12.422
77869W        W46232  40.029  36.385  11.110
77870W        W46233   7.306  35.417   1.231
77871W        W46234   6.401  17.739   0.886
77872W        W46235   4.405  22.144   4.338
77873W        W46236  21.201   2.946  11.948
77874W        W46237  10.247   7.885   1.263
77875W        W46238  15.144  26.577   3.861
77876W        W46239   8.214  15.752   2.836
77877W        W46240  31.646  33.985   1.711
77878W        W46241  32.029  41.920   2.217
77879W        W46242   6.834  21.573  13.408
77880W        W46243   4.386  10.757  10.989
77881W        W46244  27.583  21.685   2.246
77882W        W46245   4.418  42.871   1.844
77883W        W46246  13.229  31.556   1.419
77884W        W46247  18.198  24.507  13.335
77885W        W46248  27.117   7.820   3.238
77886W        W46249  36.045   8.672   5.266
77887W        W46250  40.939  17.113   3.321
77888W        W46251  33.484   2.867  13.536
77889W        W46252  44.002  40.976   1.803
77890W        W46253   6.876  27.540   0.968
77891W        W46254   4.818   2.768   3.664
77892W        W46255  26.565   1.855   1.291
77893W        W46256  30.453   0.412  12.906
77894W        W46257  20.745  41.479   2.775
77895W        W46258  33.624  21.114  10.610
77896W        W46259  44.943  14.322  14.872
77897W        W46260  19.109  17.760   3.281
77898W        W46261  40.437  13.148   0.946
77899W        W46262  34.446  36.907  13.960
77900W        W46263  32.494  28.029  11.863
77901W        W46264  11.826   7.778   3.310
77902W        W46265  33.557  10.762   4.714
77903W        W46266  22.712  37.446  14.779
77904W        W46267  11.172  12.793  13.539
77905W        W46268  13.170  13.842   0.823
77906W        W46269  29.946   9.858  10.903
77907W        W46270   3.407  35.358   3.161
77908W        W46271   0.362  37.018   5.144
77909W        W46272  22.161  41.788   4.128
77910W        W46273  40.533  22.238  14.937
77911W        W46274  39.442  40.405   0.271
77912W        W46275  21.108  30.062  11.594
77913W        W46276   0.304  16.623  14.400
77914W        W46277  30.552   7.312  11.591
77915W        W46278  14.163  15.129   1.786
77916W        W46279  32.123  35.480  14.991
77917W        W46280  17.645  15.682  12.576
77918W        W46281  22.096  37.425  12.827
77919W        W46282  40.937  25.190   0.740
77920W        W46283   7.742  26.461  11.919
77921W        W46284   3.838   2.775   4.794
77922W        W46285  10.171  37.832   3.683
77923W        W46286  19.145  35.947   4.743
77924W        W46287   9.725  42.899   0.838
77925W        W46288  29.670   0.254  11.987
77926W        W46289  23.109  41.013  10.510
77927W        W46290  40.017  18.277   4.658
77928W        W46291  16.116   7.321   2.253
77929W        W46292  20.181  39.026   1.786
77930W        W46293  11.631   2.329   1.776
77931W        W46294  21.736  12.282   4.214
77932W        W46295   6.306  28.566   4.654
77933W        W46296   1.783  21.618   1.300
77934W        W46297  41.795  43.456   2.887
77935W        W46298  38.983  26.199   2.221
77936W        W46299   1.276  21.741  13.321
77937W        W46300   0.748   4.213   3.692
77938W        W46301  16.302  20.058  10.927
77939W        W46302  36.351  25.696   3.236
77940W        W46303  16.108  13.672  10.567
77941W        W46304  20.191  18.657  12.990
77942W        W46305   5.736  31.566   2.784
77943W        W46306  26.972   3.824  12.904
77944W        W46307   6.881   2.927  11.904
77945W        W46308   4.298  11.279   4.163
77946W        W46309   3.800   8.727  14.021
77947W        W46310  30.952   0.378   0.376
77948W        W46311  28.551   7.777  13.985
77949W        W46312  19.578  23.633   3.380
77950W        W46313  20.604   0.871   2.223
77951W        W46314  44.429   7.282  11.035
77952W        W46315  40.047  22.129   0.313
77953W        W46316  32.407  41.850  14.843
77954W        W46317  41.834   7.787  14.919
77955W        W46318   2.824  11.809  14.777
77956W        W46319   6.787   5.272   2.229
77957W        W46320  15.127  11.623   4.162
77958W        W46321  42.470  36.589   0.307
77959W        W46322  10.241  40.507   4.715
77960W        W46323  19.778  22.553  10.477
77961W        W46324  26.700   4.322   0.419
77962W        W46325  17.081  23.195   1.407
77963W        W46326  29.484   1.874  12.516
77964W        W46327  33.389  29.108   4.324
77965W        W46328  41.884  44.954  14.758
77966W        W46329   0.368  40.363   1.371
77967W        W46330   3.254  13.185   0.452
77968W        W46331  22.604  36.077   3.817
77969W        W46332  40.962   1.766  11.609
77970W        W46333   9.353  34.961  14.944
77971W        W46334  14.159  21.137  12.386
77972W        W46335  24.998   9.822  12.989
77973W        W46336  24.156  42.476  14.402
77974W        W46337  22.046   8.872  12.849
77975W        W46338  28.148  37.964  10.604
77976W        W46339  32.488  11.653   0.779
77977W        W46340  39.329  41.361   1.224
77978W        W46341  43.509  32.039   0.466
77979W        W46342  14.715  43.483   1.215
77980W        W46343   3.719   0.767  10.556
77981W        W46344  39.529  12.204   4.599
77982W        W46345   2.909  22.747   1.885
77983W        W46346   3.344  18.267  14.433
77984W        W46347  37.949  32.029  12.973
77985W        W46348  36.047   8.827   0.776
77986W        W46349  17.242   9.693   3.324
77987W        W46350  43.413  30.612   4.636
77988W        W46351  26.064  38.075  14.947
77989W        W46352  15.750  26.092   2.307
77990W        W46353  43.313  21.188   0.353
77991W        W46354  43.798  44.337   2.411
77992W        W46355  27.609   5.376  13.347
77993W        W46356  29.975  10.664   3.820
77994W        W46357  38.888  35.393  12.082
77995W        W46358  30.571   1.308   4.132
77996W        W46359  16.613   2.454  12.918
77997W        W46360  10.709   8.801   3.205
77998W        W46361  12.722  10.210   2.339
77999W        W46362  14.271   5.733  11.928
78000W        W46363   9.236  21.567   2.844
78001W        W46364   7.844  23.001   4.757
78002W        W46365  11.762  11.249  12.036
78003W        W46366  44.449   1.445   4.828
78004W        W46367  28.988  26.976  10.629
78005W        W46368   2.240   7.757   4.278
78006W        W46369  37.847   3.294  11.065
78007W        W46370  29.477  13.348   3.213
78008W        W46371   4.767  30.019   2.209
78009W        W46372  34.451  35.934  13.864
78010W        W46373  43.951   2.809   2.239
78011W        W46374  41.849  20.567   1.864
78012W        W46375  25.680  15.650  11.574
78013W        W46376  31.491  24.231   0.432
78014W        W46377  29.921   0.821  11.486
78015W        W46378   2.950  35.990   1.920
78016W        W46379   3.435  43.962   3.364
78017W        W46380   0.882  36.415   4.131
78018W        W46381  19.273  36.941  11.062
78019W        W46382  31.980  37.510   1.841
78020W        W46383  29.621   6.893  11.494
78021W        W46384  32.506  36.016  10.491
78022W        W46385  41.954  18.119   1.271
78023W        W46386  38.393   4.274  14.390
78024W        W46387  30.039  10.710   4.178
78025W        W46388  18.111   0.483  10.561
78026W        W46389  37.341  16.234   3.709
78027W        W46390   2.961  19.625   0.862
78028W        W46391  42.500   6.337  11.956
78029W        W46392  34.057  19.136   0.286
78030W        W46393  37.571  28.066   1.268
78031W        W46394  27.083  22.214   0.818
78032W        W46395  42.836  21.147  14.861
78033W        W46396  40.971  15.713   3.860
78034W        W46397   9.302  35.036  14.513
78035W        W46398  34.540  20.130  10.556
78036W        W46399   8.346  43.830   4.773
78037W        W46400  31.503  25.996   0.754
78038W        W46401   4.747   2.867  10.518
78039W        W46402  14.745  17.294   4.819
78040W        W46403  32.971   6.219  10.991
78041W        W46404  35.473  41.044   1.327
78042W        W46405   1.363   5.861  14.792
78043W        W46406   9.830   0.333  13.971
78044W        W46407  14.155  14.679   2.400
78045W        W46408  10.240   1.342  12.824
78046W        W46409   2.727  36.089   3.341
78047W        W46410   8.829   7.900  11.590
78048W        W46411   7.697   5.208   4.706
78049W        W46412   5.887  22.738  10.432
78050W        W46413  26.653  26.493  14.444
78051W        W46414   2.287  15.782  10.002
78052W        W46415  23.725   4.223  14.314
78053W        W46416  43.501  13.216   1.214
78054W        W46417  41.028  10.157   4.788
78055W        W46418   8.335  40.901  14.920
78056W        W46419  40.485  29.542   2.873
78057W        W46420   9.846  36.909   0.470
78058W        W46421  44.328  38.447   2.785
78059W        W46422  37.452   8.329  13.883
78060W        W46423  39.830   0.408  13.008
78061W        W46424  15.586  32.468  11.600
78062W        W46425  36.996  11.317   3.673
78063W        W46426  44.926  41.043   3.693
78064W        W46427  30.071  15.748   2.685
78065W        W46428  18.080  31.027   3.235
78066W        W46429   1.806  28.574  10.469
78067W        W46430  29.976  40.869   0.310
78068W        W46431  41.531  38.985  12.356
78069W        W46432  39.525  39.054   2.876
78070W        W46433  28.095  33.102  14.494
78071W        W46434  31.458  40.390   1.398
78072W        W46435  35.473  41.349  14.838
78073W        W46436  31.573  30.578   9.932
78074W        W46437  37.865  13.638  11.022
78075W        W46438  12.351  31.624   4.180
78076W        W46439  26.097  40.458  11.926
78077W        W46440  14.338   8.394  14.393
78078W        W46441  34.029   2.745   1.894
78079W        W46442  13.601  28.442   2.764
78080W        W46443  25.493  10.148  12.401
78081W        W46444  37.004  26.625   4.642
78082W        W46445  25.487  20.554   2.848
78083W        W46446  21.203  17.637  12.392
78084W        W46447   4.796  15.210   1.272
78085W        W46448  16.778  20.570  11.437
78086W        W46449   3.405  33.447   4.744
78087W        W46450   0.742  35.857  10.136
78088W        W46451  38.060  42.815   1.906
78089W        W46452  39.962  31.439   2.898
78090W        W46453  14.212  11.357  12.033
78091W        W46454  24.016   6.375  13.053
78092W        W46455  17.063  10.376   2.332
78093W        W46456  43.390   8.295  11.515
78094W        W46457   2.897  16.628   0.914
78095W        W46458  36.939  29.132  14.935
78096W        W46459  40.831  23.670  14.822
78097W        W46460   1.360  17.677   3.364
78098W        W46461   4.203   8.755  14.030
78099W        W46462  24.069   8.805   2.359
78100W        W46463   1.322  11.792   4.725
78101W        W46464  10.187   6.328   2.794
78102W        W46465  28.545   6.280  14.452
78103W        W46466  27.632  19.719  10.438
78104W        W46467   8.396   2.326   0.302
78105W        W46468  41.401  42.898  13.334
78106W        W46469  32.947  23.717  14.810
78107W        W46470  18.229  27.949   4.622
78108W        W46471  39.329  15.633   0.433
78109W        W46472  28.970  30.164   3.166
78110W        W46473  41.839   9.345   2.180
78111W        W46474  38.950   6.828   2.417
78112W        W46475  32.962  20.767   4.736
78113W        W46476  32.030   7.380  10.624
78114W        W46477  10.634  24.660   0.840
78115W        W46478  37.971  27.943   0.837
78116W        W46479  23.137  30.589   2.850
78117W        W46480  31.578  37.039   2.783
78118W        W46481  25.582  41.860   0.295
78119W        W46482  31.143   2.817  11.565
78120W        W46483  43.888  44.848   1.382
78121W        W46484  33.087  15.751   2.742
78122W        W46485  29.600   8.324  13.844
78123W        W46486  20.524  34.886   3.639
78124W        W46487  25.474  27.996  14.817
78125W        W46488  20.223   7.374  13.389
78126W        W46489  11.864  20.602   4.294
78127W        W46490  30.909  22.532   3.320
78128W        W46491  34.092  38.939  12.989
78129W        W46492  10.850   7.223  14.396
78130W        W46493  12.135   6.321   1.895
78131W        W46494  21.757   2.910  13.523
78132W        W46495  24.492  10.853   4.769
78133W        W46496  12.660  41.005   2.796
78134W        W46497  22.125  39.932   4.745
78135W        W46498  35.995  34.119   3.346
78136W        W46499  35.577  42.842   4.676
78137W        W46500   9.168  21.050  12.467
78138W        W46501   8.802  36.933   0.279
78139W        W46502   1.943  18.258  10.974
78140W        W46503   7.267   5.789   1.725
78141W        W46504  40.505  14.326  14.937
78142W        W46505  39.322  39.453   3.380
78143W        W46506   2.732  34.462  13.978
78144W        W46507  42.450  19.241   0.326
78145W        W46508   6.762   4.385   1.761
78146W        W46509  41.799  25.060   4.731
78147W        W46510  40.339  21.193   3.777
78148W        W46511  42.308   7.361  10.626
78149W        W46512  37.577  34.998  10.609
78150W        W46513  36.412  10.274  13.931
78151W        W46514   3.855  33.590   0.790
78152W        W46515   5.797  17.154   3.692
78153W        W46516  41.346  36.017  14.445
78154W        W46517  28.592  41.316  14.978
78155W        W46518   5.398  19.240   4.835
78156W        W46519  37.843   4.700   9.960
78157W        W46520  21.618   7.206  13.995
78158W        W46521  19.758  40.534  12.487
78159W        W46522  32.570  34.016  13.422
78160W        W46523  25.184  37.043  11.386
78161W        W46524  30.572  19.212  10.939
78162W        W46525   5.870   6.724  14.970
78163W        W46526  42.852  42.849  13.445
78164W        W46527   3.222  10.219   5.088
78165W        W46528  14.285  27.553   3.868
78166W        W46529   1.780  30.118  11.567
78167W        W46530   1.743   2.228   3.244
78168W        W46531  11.865  44.753   2.861
78169W        W46532   3.346  25.120   2.186
78170W        W46533  18.617  23.184  10.467
78171W        W46534  14.116  28.461  13.031
78172W        W46535  33.910  23.188  12.865
78173W        W46536  44.378   4.393  11.585
78174W        W46537   8.304  36.092   4.632
78175W        W46538  32.607  27.068   0.743
78176W        W46539  29.170  24.038  10.479
78177W        W46540  40.378  29.152  13.876
78178W        W46541   1.466   3.846  13.431
78179W        W46542  39.944  38.868  10.463
78180W        W46543  16.734  19.754   0.331
78181W        W46544  26.106  22.713  10.944
78182W        W46545   8.859  11.251  14.840
78183W        W46546  42.972  22.050   3.238
78184W        W46547  25.156  35.912   1.447
78185W        W46548  13.666  25.071  12.476
78186W        W46549   1.779  16.227  11.579
78187W        W46550  37.421  18.547   1.213
78188W        W46551  43.294  29.450  10.492
78189W        W46552  38.450   5.407  14.310
78190W        W46553   2.374  23.016   1.297
78191W        W46554  22.160  14.302  13.847
78192W        W46555  19.592  42.382  11.078
78193W        W46556  42.438  16.093  11.877
78194W        W46557  22.092  17.749  11.024
78195W        W46558  35.360  10.641  10.983
78196W        W46559   8.259  18.778   1.721
78197W        W46560   9.652  28.579  12.923
78198W        W46561  17.588  29.509   4.233
78199W        W46562   8.794   4.244   4.784
78200W        W46563  19.727   7.342   4.195
78201W        W46564   4.383  19.149   4.726
78202W        W46565   3.823  33.521   1.415
78203W        W46566  36.061  20.576   1.301
78204W        W46567  18.587  30.110   4.778
78205W        W46568  22.134  33.450  10.914
78206W        W46569  30.477  25.678  12.025
78207W        W46570   0.321  17.707   4.267
78208W        W46571   1.857  13.770   3.188
78209W        W46572  15.276   5.802   4.121
78210W        W46573  29.096  29.935   0.876
78211W        W46574   2.793   8.180   0.276
78212W        W46575  27.977  25.542   3.262
78213W        W46576  29.469  18.701   1.710
78214W        W46577  38.378  30.454   2.389
78215W        W46578  42.408  21.697   0.472
78216W        W46579   2.370   9.260  11.128
78217W        W46580   6.340  25.079  10.115
78218W        W46581  17.066  24.096  10.413
78219W        W46582   6.747  27.051  11.940
78220W        W46583   0.894  22.684  13.060
78221W        W46584  18.264  38.513  13.817
78222W        W46585  41.523  13.211   3.307
78223W        W46586  34.449   7.247  13.339
78224W        W46587  34.116  17.746   3.802
78225W        W46588  40.883  21.705   4.811
78226W        W46589  14.760  32.616  10.406
78227W        W46590   1.914   8.896   4.751
78228W        W46591  40.443  15.181  14.481
78229W        W46592   3.738  16.310  12.832
78230W        W46593  36.511  29.140   2.689
78231W        W46594   7.308  11.134  11.413
78232W        W46595  22.021  44.797   2.684
78233W        W46596  22.576   1.793  13.932
78234W        W46597  40.314   0.944   1.385
78235W        W46598  17.703  16.802   1.318
78236W        W46599  35.581  15.111   1.245
78237W        W46600  12.754  16.178  12.407
78238W        W46601   4.420  36.980   2.720
78239W        W46602   5.348   1.936  12.897
78240W        W46603  41.413   8.201   4.649
78241W        W46604   9.169  14.715  14.326
78242W        W46605  37.882  31.520   4.747
78243W        W46606  40.988  23.181   0.480
78244W        W46607  23.073  10.864  12.529
78245W        W46608   3.399   6.771  12.348
78246W        W46609  31.085  25.550   3.691
78247W        W46610  11.659  20.098   2.401
78248W        W46611  20.165  38.525   4.748
78249W        W46612   6.206   7.295  11.516
78250W        W46613  11.350  31.532   4.651
78251W        W46614  15.277   1.314  12.055
78252W        W46615   5.762  35.905  14.324
78253W        W46616  16.584   9.708   1.867
78254W        W46617  40.524  29.476   4.191
78255W        W46618  33.432  39.490   3.208
78256W        W46619   8.871  37.995  11.412
78257W        W46620  18.765  28.666  14.476
78258W        W46621  27.657  17.187  11.417
78259W        W46622  33.951  18.565   2.787
78260W        W46623  30.956  38.019   0.386
78261W        W46624  29.138  35.948   4.129
78262W        W46625  42.883  37.525  14.772
78263W        W46626  35.936   3.391   3.220
78264W        W46627  39.981   3.410   0.917
78265W        W46628  42.775  26.492  12.577
78266W        W46629  33.986  35.956   1.271
78267W        W46630  24.539  37.369   0.464
78268W        W46631   4.288   2.262  13.906
78269W        W46632  20.706  35.944   1.744
78270W        W46633   2.425   9.207  13.427
78271W        W46634  41.334  14.299   4.155
78272W        W46635  18.144  17.126  13.479
78273W        W46636  37.405   8.209  13.041
78274W        W46637  21.135   3.815  12.063
78275W        W46638   2.806  27.960  12.942
78276W        W46639  42.922  11.743   1.303
78277W        W46640  42.813   5.359   4.142
78278W        W46641  27.989   1.428   3.677
78279W        W46642  16.300  37.967  11.105
78280W        W46643   0.373  35.462   0.806
78281W        W46644  12.666  21.136  12.550
78282W        W46645  30.995  21.549  14.814
78283W        W46646  39.005  32.417  11.011
78284W        W46647  14.285  16.088   4.272
78285W        W46648  38.889  35.488  12.373
78286W        W46649  30.065  41.953   3.687
78287W        W46650  25.203   9.300   3.358
78288W        W46651  22.541   8.777   4.181
78289W        W46652  40.943  20.249   3.306
78290W        W46653  26.116  14.178  10.538
78291W        W46654  42.321   1.851   4.309
78292W        W46655  17.556  22.525   0.294
78293W        W46656  11.661  15.739  11.434
78294W        W46657  32.441   9.741   3.675
78295W        W46658  13.255  20.176   3.852
78296W        W46659  23.024  39.884  11.530
78297W        W46660  16.094  23.051   3.839
78298W        W46661  12.727  34.487  12.570
78299W        W46662   1.921  43.488   1.809
78300W        W46663  38.391  27.599  11.980
78301W        W46664  30.581  30.639   1.880
78302W        W46665  17.280  16.804  11.862
78303W        W46666  14.232   9.772   4.786
78304W        W46667  28.090  22.172  12.001
78305W        W46668  25.494  29.429   1.920
78306W        W46669  14.803  12.146   2.706
78307W        W46670   7.287  20.239   4.253
78308W        W46671  24.654  36.420   0.794
78309W        W46672  21.516   9.739  13.345
78310W        W46673  34.027  19.676   0.320
78311W        W46674  14.729  16.634   1.403
78312W        W46675  23.191  27.476  13.911
78313W        W46676  26.028  38.361  12.373
78314W        W46677  16.745  40.947   3.691
78315W        W46678  24.001  19.133  10.591
78316W        W46679  43.919   5.894   4.834
78317W        W46680   2.429  28.659  12.961
78318W        W46681  19.546  33.512  11.596
78319W        W46682   3.438  17.697  10.511
78320W        W46683  26.672  18.062   2.327
78321W        W46684  27.549  33.923   3.782
78322W        W46685  35.516  29.045  11.592
78323W        W46686  14.300  22.041  12.479
78324W        W46687  18.595  42.893  13.851
78325W        W46688  12.121   7.368  10.937
78326W        W46689  42.380  38.855   5.088
78327W        W46690   9.681   7.741   1.214
78328W        W46691  25.552  20.246  11.376
78329W        W46692  40.319  34.100  11.998
78330W        W46693   4.294  31.647   2.319
78331W        W46694  34.962  23.595   3.705
78332W        W46695   9.342   1.296   4.154
78333W        W46696  26.057  27.470  13.890
78334W        W46697  17.771  22.097  14.289
78335W        W46698  31.959  28.675  12.824
78336W        W46699  37.527  17.618  12.530
78337W        W46700   6.727  33.938   3.285
78338W        W46701  19.168  18.103  12.497
78339W        W46702  38.405  16.699   4.214
78340W        W46703  25.062   6.839   3.289
78341W        W46704  15.271  34.426  14.497
78342W        W46705   6.909  41.309   0.962
78343W        W46706  42.936   4.820  12.922
78344W        W46707  25.635  43.392  11.404
78345W        W46708  35.521  16.197   4.699
78346W        W46709   7.884  37.874   4.116
78347W        W46710  11.358   4.415  13.463
78348W        W46711  19.050  30.498  14.472
78349W        W46712   6.287  29.151  11.532
78350W        W46713  40.319  10.720  14.851
78351W        W46714  33.393  37.041   1.877
78352W        W46715  25.211  16.747  13.487
78353W        W46716  16.735   7.762  14.277
78354W        W46717   9.666  13.138  12.012
78355W        W46718  20.138  42.958  12.827
78356W        W46719  14.238  38.428   4.133
78357W        W46720  27.027  16.644   5.141
78358W        W46721  37.528  22.093   1.722
78359W        W46722   0.486   0.313  12.892
78360W        W46723  14.624  13.251  14.277
78361W        W46724  43.896  15.682   0.948
78362W        W46725  32.032  10.352   0.350
78363W        W46726  44.417  14.153  13.392
78364W        W46727   7.788  44.407  11.927
78365W        W46728  11.173  43.861   3.257
78366W        W46729  29.973  28.455  13.874
78367W        W46730  10.806  42.950  12.380
78368W        W46731   2.285  16.695  14.481
78369W        W46732   9.826  38.349   3.151
78370W        W46733  17.561   3.900   4.793
78371W        W46734  15.220  12.257   2.893
78372W        W46735   7.256   7.237  10.409
78373W        W46736  16.582   9.678   0.282
78374W        W46737  12.327   0.450  13.534
78375W        W46738   1.782  42.411  11.065
78376W        W46739   0.269  13.109   1.335
78377W        W46740  22.644  10.196  13.503
78378W        W46741  24.192  19.269   4.611
78379W        W46742  33.385  18.748   1.711
78380W        W46743   2.320  25.094   2.765
78381W        W46744  31.021   1.403  12.932
78382W        W46745  27.000  29.610  12.396
78383W        W46746  39.432  37.021   0.742
78384W        W46747   8.264  31.943  13.022
78385W        W46748  38.405   7.333  14.841
78386W        W46749  10.151  18.165  10.116
78387W        W46750  28.486  39.531  13.389
78388W        W46751  44.010  12.337   4.620
78389W        W46752  24.529  31.934   5.253
78390W        W46753  41.452  31.153  13.946
78391W        W46754   2.351  42.522   3.304
78392W        W46755  11.301   5.919   4.701
78393W        W46756  20.672  30.039  10.577
78394W        W46757   4.715  32.403  14.339
78395W        W46758  22.028  30.130   2.217
78396W        W46759  17.089   3.923  14.453
78397W        W46760  19.659  43.825   4.301
78398W        W46761   8.847   3.786   2.679
78399W        W46762  18.230  32.998  11.578
78400W        W46763  19.683  13.690   0.336
78401W        W46764   8.828  19.055   1.402
78402W        W46765   7.397  40.522   3.200
78403W        W46766  25.014   9.796   4.222
78404W        W46767  19.053  11.839  11.450
78405W        W46768  13.627  44.294  12.085
78406W        W46769  29.509  17.069   2.676
78407W        W46770   2.409  42.378   4.220
78408W        W46771   1.787  12.756   4.339
78409W        W46772  20.760  27.980  14.340
78410W        W46773   5.397  13.771   0.414
78411W        W46774  34.579  11.845   1.871
78412W        W46775  14.599   1.932   4.755
78413W        W46776  16.257   6.913   2.226
78414W        W46777  31.033   3.369  11.425
78415W        W46778  40.380  42.515  14.511
78416W        W46779  32.505  13.165   0.307
78417W        W46780   2.887  14.654   4.795
78418W        W46781  17.132   7.355   0.259
78419W        W46782  13.780  35.460   3.324
78420W        W46783  21.059  32.394  12.841
78421W        W46784  22.235  10.375  14.310
78422W        W46785  27.175  26.485  12.884
78423W        W46786  22.730   0.863   1.826
78424W        W46787  19.747   5.267   4.743
78425W        W46788  34.872  29.595  12.973
78426W        W46789  20.225  42.361  11.085
78427W        W46790  32.924   5.310   3.668
78428W        W46791   6.360  20.645   4.118
78429W        W46792   4.432   2.227   0.763
78430W        W46793   0.454  35.918   5.752
78431W        W46794   6.301  12.635   3.667
78432W        W46795   3.390  31.153   0.442
78433W        W46796  12.798   9.723  11.501
78434W        W46797   3.947  20.525  13.540
78435W        W46798   3.784  20.117  10.556
78436W        W46799  24.575  10.294   0.367
78437W        W46800  15.115   9.815   4.774
78438W        W46801  32.440  16.798  12.429
78439W        W46802   2.284  11.145  14.479
78440W        W46803  10.162  19.161  14.766
78441W        W46804  41.040  22.208  12.530
78442W        W46805  29.050   9.171  10.900
78443W        W46806  37.581   7.838   2.227
78444W        W46807  13.668  24.993   0.477
78445W        W46808  16.124   3.329  12.518
78446W        W46809   0.259  19.711  14.463
78447W        W46810   6.773  43.911   2.250
78448W        W46811  22.216  18.785  14.998
78449W        W46812  30.551   0.376   1.855
78450W        W46813   9.240  36.988  13.817
78451W        W46814  43.996  27.062  14.762
78452W        W46815  37.954   4.699   1.840
78453W        W46816  43.876  39.412   1.400
78454W        W46817  12.310  37.354   0.881
78455W        W46818  28.538  18.779   0.363
78456W        W46819   5.418  28.613  11.520
78457W        W46820  43.324  39.370   3.195
78458W        W46821  39.946  16.708  12.952
78459W        W46822  30.977  36.365   1.699
78460W        W46823  34.513  15.294  10.486
78461W        W46824  11.659   8.881  12.007
78462W        W46825  29.971   5.391   1.284
78463W        W46826  18.599  21.602   3.840
78464W        W46827  21.666  11.348   2.377
78465W        W46828  27.519  20.124  11.910
78466W        W46829  11.750  29.128  12.525
78467W        W46830  17.726  18.156   5.590
78468W        W46831  17.777   7.296  10.502
78469W        W46832  30.018  21.092  14.898
78470W        W46833  12.294   4.439  11.470
78471W        W46834   1.315   4.372  10.518
78472W        W46835  26.162  34.910  13.816
78473W        W46836  31.575   3.397   2.287
78474W        W46837  33.024   7.401   2.349
78475W        W46838  20.556  23.199  13.979
78476W        W46839  30.643   3.734  12.025
78477W        W46840   6.217  14.249   0.885
78478W        W46841   0.767  10.288  14.911
78479W        W46842  39.452  12.134   3.218
78480W        W46843   1.873   4.236   0.781
78481W        W46844  33.399   9.706  10.099
78482W        W46845   2.958  27.641  12.983
78483W        W46846   2.374  24.659   5.754
78484W        W46847  11.363  29.928   3.310
78485W        W46848  17.271  26.565   2.756
78486W        W46849  19.717  10.178  14.492
78487W        W46850  13.209   5.424   2.337
78488W        W46851  22.186   5.693   0.834
78489W        W46852  11.640  34.501   1.788
78490W        W46853  37.516  15.665   1.252
78491W        W46854  17.694  14.134  13.523
78492W        W46855  14.242   8.224  12.985
78493W        W46856  11.156  14.768   2.325
78494W        W46857   3.417  10.222   0.371
78495W        W46858  25.706  41.293   4.786
78496W        W46859  23.234  26.175   4.668
78497W        W46860   1.901  23.214   1.806
78498W        W46861  26.540  19.563   4.226
78499W        W46862  25.662  40.526   4.763
78500W        W46863  16.788  15.223   1.816
78501W        W46864  37.354  37.005   3.332
78502W        W46865   9.374  23.132  13.471
78503W        W46866   6.763  16.802   0.354
78504W        W46867  17.173  12.811   2.343
78505W        W46868   1.861  12.791  11.473
78506W        W46869   2.891   6.297  14.957
78507W        W46870  41.970   5.756   2.795
78508W        W46871  11.204  22.081   0.312
78509W        W46872   7.332   3.850   1.308
78510W        W46873   7.275   8.252   4.171
78511W        W46874   3.710  17.622  14.466
78512W        W46875  30.930  15.219  14.339
78513W        W46876   5.271  23.032  14.888
78514W        W46877  30.924  39.505   2.798
78515W        W46878  26.041  18.259  14.890
78516W        W46879  39.519  20.618  12.018
78517W        W46880  20.194  23.110   0.411
78518W        W46881  30.497  36.413  14.333
78519W        W46882   8.763  35.437   1.892
78520W        W46883  44.973  13.676  10.516
78521W        W46884  22.529   5.687  14.502
78522W        W46885  44.008  42.495  11.064
78523W        W46886  25.506  24.709  11.041
78524W        W46887  12.706  14.098   0.330
78525W        W46888  15.735  10.698   0.469
78526W        W46889  38.530   6.428   0.304
78527W        W46890  16.744  24.024   0.278
78528W        W46891   1.449  43.872   5.181
78529W        W46892   0.390   9.700  10.576
78530W        W46893  32.450  43.955  13.355
78531W        W46894  31.602  13.724   1.452
78532W        W46895  26.082  12.816  10.958
78533W        W46896  40.922   5.762  12.929
78534W        W46897  39.356  11.340   0.410
78535W        W46898   9.235  19.137   0.742
78536W        W46899  35.511  28.068   1.726
78537W        W46900  30.517   0.806   3.242
78538W        W46901  26.611  34.482   5.171
78539W        W46902   1.241  42.377  12.512
78540W        W46903  12.234  35.053   3.722
78541W        W46904  32.904  27.965   1.220
78542W        W46905  39.953  43.311   1.419
78543W        W46906   9.375  16.208  13.314
78544W        W46907  32.014   9.653  12.990
78545W        W46908  17.637  15.730  13.061
78546W        W46909  21.592  23.671   1.867
78547W        W46910   3.890  15.246  12.000
78548W        W46911   1.819  33.050  13.452
78549W        W46912  28.550  21.181   0.423
78550W        W46913   2.757  44.283   5.176
78551W        W46914  23.040  21.576  12.829
78552W        W46915  38.062   3.782   2.226
78553W        W46916  40.446  39.517  14.498
78554W        W46917  11.334  33.456  10.410
78555W        W46918   2.734   9.213  12.902
78556W        W46919  24.008  29.972  11.916
78557W        W46920  28.944  22.073   3.642
78558W        W46921  21.711  43.859  10.954
78559W        W46922  31.645  33.945  12.565
78560W        W46923  39.948  32.054  12.029
78561W        W46924  35.379   3.890  13.327
78562W        W46925  27.525  31.609   4.718
78563W        W46926  25.123  40.488   1.279
78564W        W46927   6.909  38.002  10.476
78565W        W46928  36.483   9.326  12.886
78566W        W46929   1.854  19.703  11.497
78567W        W46930  19.736  14.106  11.566
78568W        W46931  20.143  12.722   5.164
78569W        W46932  18.739  31.479  12.417
78570W        W46933  23.590  23.035   3.804
78571W        W46934  31.500  10.862   0.469
78572W        W46935  30.140  19.590   4.350
78573W        W46936  11.666  25.157   3.224
78574W        W46937  12.738  23.713   1.422
78575W        W46938   5.911  10.796   3.179
78576W        W46939  40.027  41.489   1.439
78577W        W46940  28.636  14.109   5.135
78578W        W46941  40.949   0.305  14.455
78579W        W46942   3.344   1.764  13.806
78580W        W46943   2.460  17.790  13.062
78581W        W46944   5.931  25.694  14.868
78582W        W46945  43.915  16.702  13.815
78583W        W46946  30.559  42.958   3.673
78584W        W46947  32.506  25.170  11.462
78585W        W46948  21.703  20.166  13.420
78586W        W46949  19.237  28.008   1.222
78587W        W46950  44.358  21.099   0.453
78588W        W46951  32.033   9.297  12.383
78589W        W46952  44.991   9.176  14.392
78590W        W46953   2.303  42.308  12.533
78591W        W46954  17.201  39.008  10.638
78592W        W46955   9.186   7.866   1.759
78593W        W46956  41.458  17.204   3.202
78594W        W46957   0.446  32.631  12.928
78595W        W46958  11.774   3.381  13.495
78596W        W46959   2.442  26.552  14.486
78597W        W46960   4.929   8.880  12.552
78598W        W46961   6.891  34.519   3.800
78599W        W46962  42.335  17.725   2.771
78600W        W46963  31.612  34.585   1.726
78601W        W46964  19.084  28.527   4.724
78602W        W46965  23.606  39.963  11.385
78603W        W46966  25.041  27.625   3.820
78604W        W46967  32.548  44.803  12.836
78605W        W46968  22.552   0.354  11.465
78606W        W46969   2.904  32.582   3.148
78607W        W46970  17.568  34.563  13.373
78608W        W46971  35.367   0.450   4.600
78609W        W46972  24.102  14.192  11.863
78610W        W46973  10.249  20.224  14.395
78611W        W46974  38.481  18.698  13.865
78612W        W46975  29.597  30.061  12.998
78613W        W46976  24.558  28.594  13.799
78614W        W46977  24.725  30.646   2.718
78615W        W46978  43.361  44.426   3.281
78616W        W46979  15.254  38.835   1.771
78617W        W46980  42.354  11.335  13.034
78618W        W46981   7.911  23.700   4.235
78619W        W46982  35.925  39.438   1.227
78620W        W46983  30.951  12.235  13.878
78621W        W46984  36.357   3.847  13.362
78622W        W46985  28.658  20.763   1.881
78623W        W46986  35.413  15.320   1.893
78624W        W46987  11.801  20.108  14.493
78625W        W46988  25.636  31.453  12.942
78626W        W46989  24.197  25.089  14.769
78627W        W46990  22.130  18.785   4.659
78628W        W46991  44.789  44.336   3.218
78629W        W46992  20.102  32.552  10.451
78630W        W46993  10.719  23.670  13.895
78631W        W46994   9.311  26.683  14.939
78632W        W46995  40.038  23.515   2.725
78633W        W46996   4.930  38.568  11.551
78634W        W46997  14.632   7.193  11.889
78635W        W46998   5.364  27.576   3.207
78636W        W46999   9.325   6.294  12.463
78637W        W47000  37.490   9.768   4.327
78638W        W47001  18.606  33.404   3.218
78639W        W47002  42.328  42.806   1.908
78640W        W47003  38.363  43.353   3.333
78641W        W47004  32.500  14.232   0.372
78642W        W47005  31.015   8.847   9.974
78643W        W47006  33.451  25.099  11.866
78644W        W47007  18.610  44.795  10.923
78645W        W47008  25.627  43.440  11.089
78646W        W47009   1.245  21.725   3.368
78647W        W47010   5.266  34.120  10.643
78648W        W47011  12.323   5.701  14.006
78649W        W47012  22.669  18.284   1.336
78650W        W47013  34.957  36.547   0.419
78651W        W47014  34.397  13.599   4.172
78652W        W47015  32.414  24.058   0.315
78653W        W47016  44.365  42.987   4.297
78654W        W47017  38.541  38.511  13.894
78655W        W47018  34.070   3.796   3.280
78656W        W47019  19.567  22.031  10.640
78657W        W47020  25.138  10.863  13.324
78658W        W47021  10.181  36.510  10.970
78659W        W47022  44.946   2.310  13.943
78660W        W47023  23.142  15.152  12.055
78661W        W47024  35.096  30.917   3.234
78662W        W47025  11.134   7.877  12.823
78663W        W47026  14.616   1.929  14.457
78664W        W47027   1.861  25.613  10.979
78665W        W47028  16.671  25.662   4.801
78666W        W47029  12.622   6.757   1.715
78667W        W47030  26.009  23.510  13.419
78668W        W47031  11.811  44.901   2.360
78669W        W47032  40.361  19.152   4.650
78670W        W47033  20.758  42.412  11.387
78671W        W47034  32.420  34.079  10.636
78672W        W47035   8.888  15.180  11.593
78673W        W47036  21.096  13.213   4.324
78674W        W47037  29.160  38.977   0.328
78675W        W47038   5.855  19.177  10.593
78676W        W47039  37.407  44.342   3.823
78677W        W47040   7.203  42.505   0.899
78678W        W47041  28.619  11.130   3.689
78679W        W47042  31.964  11.838   2.672
78680W        W47043  37.547  31.501   0.410
78681W        W47044  43.010  14.638   4.735
78682W        W47045  38.033  11.159   3.295
78683W        W47046  10.202  39.434  14.918
78684W        W47047  41.321  33.443  14.941
78685W        W47048  19.767  36.515  11.073
78686W        W47049  16.613  29.157   4.813
78687W        W47050   6.906  40.807   2.857
78688W        W47051  22.153  36.870  12.496
78689W        W47052  42.368  29.650   0.422
78690W        W47053  44.775  25.642  14.759
78691W        W47054   8.855  15.087  11.864
78692W        W47055  32.082   4.729   4.349
78693W        W47056  39.427  20.752   2.346
78694W        W47057  35.057  41.424   9.989
78695W        W47058  12.269  25.072   3.808
78696W        W47059   2.772  11.226  14.421
78697W        W47060  15.659  37.510   1.920
78698W        W47061  33.498  11.863  13.351
78699W        W47062  36.998  44.762  14.340
78700W        W47063   6.408  31.129  12.879
78701W        W47064  36.592  34.591   5.301
78702W        W47065  20.669  24.609   3.363
78703W        W47066  40.861  25.070  10.895
78704W        W47067   2.228  26.165  14.965
78705W        W47068  30.536  36.999  12.474
78706W        W47069  32.077  28.066   4.162
78707W        W47070  17.656  31.465   0.272
78708W        W47071  38.470  14.270  11.519
78709W        W47072  12.735  37.558  11.065
78710W        W47073  17.227   6.246  14.794
78711W        W47074  15.192  13.797  10.458
78712W        W47075  38.876  18.743   3.673
78713W        W47076  23.230  19.581  13.028
78714W        W47077  29.610  41.811   2.308
78715W        W47078  19.712  37.006  13.025
78716W        W47079  37.433  13.767   3.204
78717W        W47080  34.069  41.333  14.423
78718W        W47081  10.660  40.925   3.862
78719W        W47082  18.080  37.063  11.521
78720W        W47083  12.348   4.263  10.488
78721W        W47084   1.933  30.101   4.188
78722W        W47085  39.382  34.112   4.626
78723W        W47086  37.444  34.433  10.636
78724W        W47087  43.477  40.014  11.562
78725W        W47088  30.976   5.705   0.357
78726W        W47089   3.287  13.322   5.088
78727W        W47090  27.093  13.144   4.243
78728W        W47091  26.479   0.464   2.812
78729W        W47092  42.793  23.023  14.481
78730W        W47093  11.170  31.535  14.911
78731W        W47094  15.803  10.747   2.366
78732W        W47095  12.128  34.880  14.013
78733W        W47096  18.717  14.195   4.328
78734W        W47097  21.754  12.686  13.918
78735W        W47098  10.824  35.852  14.873
78736W        W47099  30.138   8.276  11.902
78737W        W47100   0.250   7.360   4.600
78738W        W47101  27.641   9.753  11.011
78739W        W47102  21.566  29.460  14.504
78740W        W47103  13.279  10.301   5.113
78741W        W47104   4.450  13.656  14.846
78742W        W47105  44.783  22.169  11.607
78743W        W47106   8.899   3.748  13.963
78744W        W47107  33.881  39.407   4.345
78745W        W47108  28.007  26.492   2.397
78746W        W47109  32.907  17.739   3.250
78747W        W47110  37.519   5.811  12.357
78748W        W47111  31.130  25.529   0.401
78749W        W47112  20.657  21.153   5.122
78750W        W47113  44.267  25.074   2.855
78751W        W47114   0.435  22.155   5.741
78752W        W47115   1.316  25.006   4.793
78753W        W47116  19.717   1.760  14.277
78754W        W47117   2.433  19.598   0.810
78755W        W47118  35.000  12.306  14.291
78756W        W47119   1.474  30.109   0.319
78757W        W47120  29.960  39.335   3.364
78758W        W47121  16.779   5.915   4.341
78759W        W47122  30.503  32.888   3.185
78760W        W47123  41.462  15.708   4.259
78761W        W47124   7.228  30.636  14.771
78762W        W47125   0.346   9.304   2.192
78763W        W47126  36.876  33.905   0.352
78764W        W47127   2.811  41.802  11.432
78765W        W47128  10.764   6.854   4.617
78766W        W47129  35.099   0.324   0.966
78767W        W47130  10.263  41.946   2.797
78768W        W47131  28.979   5.797  11.874
78769W        W47132  41.494  12.819  12.912
78770W        W47133  34.392  13.727   3.197
78771W        W47134   0.969  29.125  14.313
78772W        W47135  34.043   9.339   0.459
78773W        W47136  40.352  25.104  14.378
78774W        W47137   8.272  30.413  12.571
78775W        W47138  42.346  15.607  13.821
78776W        W47139   2.381  42.000   1.759
78777W        W47140  35.563  29.950  13.798
78778W        W47141  29.979  41.804   1.804
78779W        W47142  28.959  44.322   3.198
78780W        W47143   6.342  25.023  13.806
78781W        W47144  22.720  33.562  10.001
78782W        W47145  25.080  27.089   0.763
78783W        W47146  33.450  17.636   4.322
78784W        W47147  28.456   2.844   2.898
78785W        W47148   1.963  37.462  11.875
78786W        W47149   1.959  16.768   4.661
78787W        W47150  35.975  10.204   4.311
78788W        W47151  42.430  31.020  12.510
78789W        W47152  22.145   1.733   0.299
78790W        W47153  26.534  16.673  12.092
78791W        W47154  23.578  37.856  11.098
78792W        W47155  29.531   9.878  10.478
78793W        W47156  12.197  23.211   3.183
78794W        W47157   6.295  40.047   1.342
78795W        W47158  41.803  38.016   0.908
78796W        W47159  27.620  23.037   1.771
78797W        W47160  43.953  16.207   2.840
78798W        W47161  15.685  28.147   4.282
78799W        W47162  26.675  20.084   3.652
78800W        W47163  11.841   9.744   0.737
78801W        W47164  23.184   2.904  14.987
78802W        W47165  15.293   0.266  11.935
78803W        W47166   4.257  22.013   1.886
78804W        W47167  28.023  32.537  11.426
78805W        W47168  24.147  15.152  13.884
78806W        W47169  41.835  20.139  12.566
78807W        W47170  19.044   5.778   1.912
78808W        W47171   7.391  28.036  13.003
78809W        W47172  26.967  34.970   0.868
78810W        W47173  38.030  35.988  12.448
78811W        W47174   8.168  31.453   3.230
78812W        W47175   0.412  13.765   4.773
78813W        W47176  29.078  19.780   2.749
78814W        W47177  23.656  18.573   0.311
78815W        W47178  12.172  44.974   0.326
78816W        W47179   9.156  41.461  14.946
78817W        W47180  14.624   1.899  12.079
78818W        W47181  33.549  10.302   1.406
78819W        W47182  11.190   7.822  13.476
78820W        W47183  41.323  41.478   4.297
78821W        W47184  18.731   5.750   4.158
78822W        W47185  26.029  31.599  14.952
78823W        W47186  38.508   7.682  10.591
78824W        W47187  41.374   7.776  14.335
78825W        W47188   4.400  38.543   0.921
78826W        W47189  22.593  23.581  14.365
78827W        W47190  24.090  21.573  14.882
78828W        W47191  32.928  25.559  13.447
78829W        W47192  17.244  41.913  11.902
78830W        W47193  40.465  39.832  11.475
78831W        W47194  26.523   4.706  11.454
78832W        W47195  26.190  28.115   4.130
78833W        W47196  32.468  42.320   2.351
78834W        W47197  12.257  29.479  12.968
78835W        W47198  12.192  12.352  13.829
78836W        W47199  17.641  17.632   5.804
78837W        W47200  36.038  38.359  14.309
78838W        W47201  39.448  28.470   2.255
78839W        W47202   5.731  34.076  13.982
78840W        W47203  29.115   4.328  13.498
78841W        W47204   1.859  15.680  13.862
78842W        W47205  34.453  33.099   2.308
78843W        W47206  40.803  11.676  10.456
78844W        W47207  21.107  42.948   3.818
78845W        W47208  22.548  40.356  13.798
78846W        W47209   2.754  38.562   3.172
78847W        W47210  12.776  38.378  13.020
78848W        W47211  35.040   9.683  12.024
78849W        W47212   2.803   5.912   4.837
78850W        W47213  25.582  42.875  13.058
78851W        W47214  43.773   1.289  11.573
78852W        W47215   1.283  29.941  11.372
78853W        W47216  20.721  41.991  11.069
78854W        W47217  40.534  16.106  14.007
78855W        W47218  35.444  20.576  14.951
78856W        W47219  31.525  23.160   0.285
78857W        W47220  38.065   5.857   4.705
78858W        W47221  23.650  16.140  14.821
78859W        W47222  21.175  29.057   3.216
78860W        W47223  31.011  16.617   0.257
78861W        W47224  13.792   3.307   2.321
78862W        W47225  37.920  18.669  11.995
78863W        W47226  32.523  35.529   2.890
78864W        W47227  36.548  39.356  14.009
78865W        W47228  11.363  32.917  11.515
78866W        W47229  38.541  42.954  10.474
78867W        W47230  14.277  39.892  13.527
78868W        W47231   0.282   8.861  10.457
78869W        W47232   3.746  20.250   4.204
78870W        W47233  37.009  26.028  11.593
78871W        W47234  28.179   5.845  11.886
78872W        W47235  11.242  16.122  13.808
78873W        W47236  13.732  13.329  14.793
78874W        W47237  37.972  26.477  11.916
78875W        W47238  44.357  21.166  11.073
78876W        W47239  17.192  15.658  10.015
78877W        W47240  14.738  17.115   1.403
78878W        W47241  38.364  17.660   4.651
78879W        W47242  23.694  10.703   1.902
78880W        W47243   7.725  18.659  12.568
78881W        W47244  36.059   8.315  14.361
78882W        W47245   8.682  38.848   1.745
78883W        W47246  27.965  36.919   1.838
78884W        W47247  11.720  15.592   1.293
78885W        W47248  25.648  14.647   1.918
78886W        W47249   9.252   0.808   4.307
78887W        W47250   1.459  25.017   0.866
78888W        W47251   4.283  22.063  14.014
78889W        W47252  25.065  35.080  11.909
78890W        W47253   3.777  31.108   0.292
78891W        W47254  32.125  17.289  12.041
78892W        W47255  41.017  24.152  10.609
78893W        W47256  44.323  34.105   1.836
78894W        W47257   9.351  37.520  14.412
78895W        W47258   7.402  34.994   1.360
78896W        W47259  44.888  40.802  14.966
78897W        W47260  38.903  24.199  11.875
78898W        W47261  42.387  26.514   0.782
78899W        W47262  30.529  13.348   4.282
78900W        W47263  31.599  14.651  11.043
78901W        W47264  11.233  10.810   0.426
78902W        W47265  34.989  15.692  11.907
78903W        W47266  20.055   7.307  11.373
78904W        W47267  24.025   4.419  14.486
78905W        W47268  37.086   9.246   2.241
78906W        W47269   9.165  17.747   4.626
78907W        W47270  21.537  34.120  11.486
78908W        W47271  11.201  27.539  11.458
78909W        W47272  20.684  37.021  13.507
78910W        W47273  34.523  36.876   0.941
78911W        W47274   7.181  36.418   3.269
78912W        W47275   6.184  26.072   0.828
78913W        W47276  33.452   2.322  13.431
78914W        W47277   3.460  37.975   2.329
78915W        W47278  35.095   3.267  12.018
78916W        W47279  23.214   2.724  11.129
78917W        W47280  18.069   8.406   1.336
78918W        W47281   3.833   2.387  10.996
78919W        W47282  33.908  20.711   1.910
78920W        W47283  44.954  13.125  13.495
78921W        W47284   6.768  24.688  10.498
78922W        W47285  25.543  29.034  14.442
78923W        W47286  35.917  17.677  11.417
78924W        W47287  11.330  17.190  12.885
78925W        W47288  38.410  31.967   1.781
78926W        W47289  30.153  16.766  12.427
78927W        W47290  13.328  33.598  14.510
78928W        W47291  17.679  28.083   0.300
78929W        W47292  30.956  26.152  10.917
78930W        W47293  18.556  38.056   2.344
78931W        W47294  36.425  15.791   1.807
78932W        W47295  15.632  19.255  10.627
78933W        W47296   8.211  28.029  10.565
78934W        W47297  44.921  11.674  12.515
78935W        W47298   4.772  27.100  10.001
78936W        W47299  18.161  18.214  14.368
78937W        W47300  44.804   6.249  12.097
78938W        W47301  13.214  25.037   4.232
78939W        W47302  36.458  23.061   4.132
78940W        W47303  14.734  37.030  10.472
78941W        W47304  25.977  13.134   2.695
78942W        W47305  42.954  25.048   4.785
78943W        W47306  41.932  14.163   0.739
78944W        W47307   8.884  15.220   3.819
78945W        W47308  26.476   0.747  14.891
78946W        W47309   6.255  35.105   0.727
78947W        W47310  38.044  32.945  11.501
78948W        W47311  42.834  28.512   1.250
78949W        W47312  22.038  15.289  13.427
78950W        W47313  32.522  17.089   0.337
78951W        W47314   6.821  28.581   0.263
78952W        W47315  44.896  26.457   2.805
78953W        W47316  41.514   1.458   4.764
78954W        W47317  10.306  20.273  12.493
78955W        W47318  13.650   7.835   2.178
78956W        W47319  13.235  34.030  14.819
78957W        W47320  31.995  36.054  11.052
78958W        W47321  15.690   2.933  11.987
78959W        W47322  42.938  37.079   3.636
78960W        W47323   4.935  20.578   1.286
78961W        W47324  19.041  16.126  10.468
78962W        W47325  22.624  15.658   0.430
78963W        W47326  31.020  26.156   1.924
78964W        W47327  32.533  13.346   1.244
78965W        W47328  40.842  27.041   1.923
78966W        W47329  29.943  31.095  12.839
78967W        W47330  10.747  24.126   1.883
78968W        W47331  28.022  25.191   2.194
78969W        W47332  18.113   0.858   1.871
78970W        W47333  21.614   7.323   0.261
78971W        W47334   4.317  32.055   3.821
78972W        W47335  18.145  36.504  12.005
78973W        W47336  32.509  31.904  14.825
78974W        W47337  44.369   9.723   1.270
78975W        W47338  19.714  31.022  11.992
78976W        W47339  10.239  20.261   0.866
78977W        W47340  38.991   2.750  11.431
78978W        W47341  15.648  19.711   1.696
78979W        W47342  38.476  11.708   5.201
78980W        W47343  13.132  20.672  14.938
78981W        W47344  37.517  17.642  12.975
78982W        W47345   2.291  42.007   4.264
78983W        W47346  28.048  30.140  13.470
78984W        W47347   5.422  24.653  10.981
78985W        W47348  27.552  24.673   2.728
78986W        W47349   8.318  29.016   3.201
78987W        W47350  35.089  20.577  13.365
78988W        W47351   0.809  23.042  12.902
78989W        W47352  22.024  21.040  14.352
78990W        W47353  22.083   8.684   3.360
78991W        W47354  35.108   5.769  10.560
78992W        W47355  10.831   4.397   1.302
78993W        W47356   5.732   3.944  12.081
78994W        W47357  30.614  43.838   2.751
78995W        W47358  16.244  32.919  10.527
78996W        W47359   5.788  31.031  11.025
78997W        W47360  10.773  10.661  12.454
78998W        W47361  38.434  33.482  13.963
78999W        W47362  22.568  15.605  10.615
79000W        W47363  32.467  19.218  12.525
79001W        W47364   8.189  32.590  11.500
79002W        W47365  14.221  29.610   2.762
79003W        W47366  21.177  15.584  13.830
79004W        W47367   0.459  40.343  11.934
79005W        W47368   7.261  22.631  11.592
79006W        W47369  19.636   5.706   2.377
79007W        W47370  31.981  12.233   1.448
79008W        W47371  37.050  29.006  12.350
79009W        W47372  10.731   2.327   0.242
79010W        W47373  30.547  16.209   1.737
79011W        W47374  33.477  15.729   5.141
79012W        W47375  15.812  30.490  14.792
79013W        W47376   4.240  34.977  14.013
79014W        W47377  29.151  41.381   3.848
79015W        W47378  19.697  37.889   1.233
79016W        W47379  40.821  27.063  11.919
79017W        W47380   5.822  10.758  12.039
79018W        W47381  20.692  16.649  14.499
79019W        W47382  44.978  27.954  11.033
79020W        W47383  15.233  39.002  11.075
79021W        W47384  15.313   3.907   9.576
79022W        W47385  37.984  43.490   4.315
79023W        W47386   7.790   3.390   2.871
79024W        W47387  38.562  36.930  12.387
79025W        W47388  22.530  31.952   4.740
79026W        W47389   9.725  28.446  14.826
79027W        W47390  38.556   3.929  13.868
79028W        W47391   4.854  38.339   0.891
79029W        W47392   8.667  24.021   2.854
79030W        W47393   7.401  20.696  10.470
79031W        W47394  11.770  30.015   4.238
79032W        W47395   9.288   4.783  13.963
79033W        W47396  24.226  34.580   3.762
79034W        W47397  28.477   0.355  14.377
79035W        W47398  27.957   6.219  11.047
79036W        W47399  13.642  20.173  14.412
79037W        W47400  31.137  10.633   1.214
79038W        W47401  15.823  23.614  14.868
79039W        W47402  21.534  21.176   3.232
79040W        W47403  20.133  39.935   3.246
79041W        W47404  20.630  15.584   9.939
79042W        W47405  27.004  37.986  13.400
79043W        W47406  13.295  44.960   2.231
79044W        W47407  14.654  38.032   0.944
79045W        W47408  20.670  33.078   3.363
79046W        W47409  14.732   7.814   3.245
79047W        W47410  31.938   8.242  10.952
79048W        W47411  37.363  11.730  11.935
79049W        W47412  23.182  27.516  14.461
79050W        W47413   4.778  32.134   2.330
79051W        W47414  20.205  26.148  12.018
79052W        W47415   4.366  34.463  13.916
79053W        W47416  39.331  31.076   2.272
79054W        W47417  38.828   4.263   2.323
79055W        W47418  23.634  28.956  14.383
79056W        W47419  13.821   1.310  14.349
79057W        W47420  19.617  37.864  13.040
79058W        W47421  23.088  10.671   3.836
79059W        W47422   6.770  39.822  12.940
79060W        W47423   2.902   1.889   2.214
79061W        W47424  25.155  30.620   1.892
79062W        W47425   6.879  25.101  14.018
79063W        W47426  44.471  39.834   4.635
79064W        W47427  35.478  10.856  12.494
79065W        W47428  27.562  27.013  13.529
79066W        W47429  36.841  11.665   5.106
79067W        W47430   6.234  12.772   0.403
79068W        W47431  30.626  24.712   2.873
79069W        W47432  44.825  10.188  13.513
79070W        W47433  42.385  26.679  14.327
79071W        W47434  34.941   7.354  14.488
79072W        W47435  13.812  44.462  13.899
79073W        W47436   1.944   6.355  10.922
79074W        W47437  39.018  12.315   2.664
79075W        W47438  40.840   8.849  13.543
79076W        W47439   2.847   8.346   1.451
79077W        W47440  39.517  44.464   4.223
79078W        W47441  33.620   0.967   1.251
79079W        W47442   4.930  27.519  13.501
79080W        W47443  37.935  34.571  13.356
79081W        W47444   4.941  26.147   0.853
79082W        W47445  37.912  15.810  14.508
79083W        W47446  23.193  26.162   1.230
79084W        W47447  28.645  23.489  12.048
79085W        W47448  44.884  42.518  12.869
79086W        W47449  23.159   2.454  13.814
79087W        W47450   0.940  38.824   3.330
79088W        W47451   8.380  26.134   4.795
79089W        W47452   1.426  43.825   1.733
79090W        W47453  27.967  10.155   3.651
79091W        W47454  28.484  20.038   0.941
79092W        W47455  17.071  31.913  13.857
79093W        W47456  38.877  40.006   4.330
79094W        W47457  15.201  41.515   4.318
79095W        W47458  19.196  33.521  13.998
79096W        W47459  16.740  20.220   0.736
79097W        W47460   5.241  31.035  11.404
79098W        W47461  35.576   8.224  11.504
79099W        W47462  13.711  19.077   0.741
79100W        W47463   3.917  21.601   0.358
79101W        W47464   3.753   5.795   0.323
79102W        W47465   0.969  41.894   2.785
79103W        W47466  38.495  20.073  12.394
79104W        W47467   4.308  34.043  10.984
79105W        W47468   4.795  41.014   3.344
79106W        W47469  42.503  38.456  14.383
79107W        W47470  22.719   3.838  14.914
79108W        W47471   0.368  17.267  14.399
79109W        W47472   2.397  33.037  12.474
79110W        W47473   9.205   4.861   0.879
79111W        W47474  42.800   6.738   4.308
79112W        W47475   8.348   7.729   0.361
79113W        W47476  25.507  39.493   3.640
79114W        W47477  23.061  31.153   0.762
79115W        W47478  18.545  14.818  13.447
79116W        W47479  25.143   9.805  14.393
79117W        W47480  39.871  41.370   2.228
79118W        W47481   5.403  40.025   2.765
79119W        W47482  42.003  37.905   5.653
79120W        W47483  14.687  26.606  14.337
79121W        W47484  41.898  26.968   0.348
79122W        W47485   5.725  10.271   1.392
79123W        W47486  14.784  43.918   3.838
79124W        W47487  12.636  28.095  10.916
79125W        W47488  27.624  24.045  12.412
79126W        W47489  21.177  44.873  12.524
79127W        W47490   8.844   1.836  11.417
79128W        W47491  26.520  18.571   4.783
79129W        W47492  43.470  13.276  12.006
79130W        W47493  22.092   7.844  12.537
79131W        W47494   5.854   2.789  14.511
79132W        W47495  37.375  41.036  14.845
79133W        W47496   2.843  17.769   0.806
79134W        W47497  27.509   9.349  13.979
79135W        W47498  42.784  23.107   1.805
79136W        W47499  39.490  27.169  13.363
79137W        W47500  39.383  43.273   2.392
79138W        W47501  37.445  34.487  14.800
79139W        W47502   4.265   1.401   3.208
79140W        W47503  14.135  16.155  10.547
79141W        W47504  18.635   7.350  14.778
79142W        W47505  22.233   6.846  13.018
79143W        W47506  34.874  35.971   4.194
79144W        W47507  21.542   8.844  12.361
79145W        W47508  17.171  22.999   2.776
79146W        W47509  22.683  26.645   3.774
79147W        W47510  23.568  17.571  13.464
79148W        W47511   1.938  43.924  13.343
79149W        W47512   9.151  34.036  10.621
79150W        W47513   1.874  40.323  14.885
79151W        W47514  31.464  20.629  12.834
79152W        W47515  21.609  11.672  11.045
79153W        W47516  26.591  38.877  14.850
79154W        W47517  16.753  18.576   5.088
79155W        W47518   1.816  39.852  14.862
79156W        W47519  44.861  14.835  13.804
79157W        W47520   5.870   7.214  14.959
79158W        W47521   4.260  42.030  12.873
79159W        W47522  44.978  20.219  13.427
79160W        W47523   0.947  33.923  10.969
79161W        W47524  38.527  31.948  10.952
79162W        W47525  44.372  11.689  12.955
79163W        W47526   9.838  22.536  12.439
79164W        W47527  14.182  26.666   4.635
79165W        W47528  34.102  19.059   3.670
79166W        W47529   8.261  12.318   3.684
79167W        W47530   8.305  24.642  12.431
79168W        W47531  26.070  24.500   1.412
79169W        W47532   2.248  38.389  13.845
79170W        W47533   7.868  31.515   1.859
79171W        W47534  34.094  21.030  12.503
79172W        W47535  34.006  43.837   3.728
79173W        W47536   6.391   4.944   1.399
79174W        W47537  23.156  44.977   4.620
79175W        W47538  25.667  42.892   0.962
79176W        W47539   9.157   3.234  10.407
79177W        W47540  33.021  29.075  14.324
79178W        W47541  24.648  33.073  14.348
79179W        W47542  23.692   9.227   3.256
79180W        W47543  30.588   5.405  13.456
79181W        W47544  28.059  43.996   1.820
79182W        W47545  15.163  15.267  13.903
79183W        W47546  44.968   8.787   2.291
79184W        W47547  29.091  39.510   3.268
79185W        W47548  30.499  42.911   1.385
79186W        W47549  37.363  28.058   4.291
79187W        W47550  28.624  17.751  12.410
79188W        W47551   8.397  34.496  12.055
79189W        W47552  21.122  18.593  13.908
79190W        W47553   3.235   6.738  12.044
79191W        W47554  19.046  40.994   0.937
79192W        W47555   8.375  26.048  12.389
79193W        W47556  22.246  42.998  13.404
79194W        W47557  22.154  42.881   1.794
79195W        W47558   8.698  22.583   3.243
79196W        W47559  25.139  34.112  13.512
79197W        W47560  44.892   1.831   3.358
79198W        W47561  41.888   8.308  13.323
79199W        W47562  43.320  18.648  12.350
79200W        W47563   8.748  43.873   4.613
79201W        W47564  33.594  42.882  13.017
79202W        W47565  38.388  30.434  11.417
79203W        W47566  42.292  39.830   0.887
79204W        W47567   2.863  17.176   2.765
79205W        W47568  44.988  42.954  14.359
79206W        W47569  12.297  21.086  10.953
79207W        W47570  32.966  39.506  13.977
79208W        W47571  13.189  24.551   3.299
79209W        W47572  15.262   4.856   3.664
79210W        W47573  40.433  18.161   4.162
79211W        W47574  13.837  27.979  11.420
79212W        W47575  16.616   8.232   4.353
79213W        W47576  21.700  14.106  14.856
79214W        W47577  39.846   9.801   3.285
79215W        W47578  38.551  17.221   1.793
79216W        W47579  15.590  39.323  12.945
79217W        W47580  18.182   7.700   4.763
79218W        W47581  25.017  21.636  12.438
79219W        W47582  37.557  39.004   0.419
79220W        W47583  39.936  44.312  14.276
79221W        W47584  41.487   6.678   1.853
79222W        W47585   7.346  12.773   4.192
79223W        W47586  44.804  27.097  14.923
79224W        W47587  37.505  30.974  13.344
79225W        W47588  16.139   6.426  11.077
79226W        W47589  11.785  10.865  13.491
79227W        W47590  16.170  40.006  11.565
79228W        W47591  40.427  18.688   1.295
79229W        W47592   3.358  25.491   4.192
79230W        W47593  23.176  22.180   2.788
79231W        W47594  13.733  17.270   9.595
79232W        W47595   5.721  25.666   3.384
79233W        W47596  41.937  15.238  14.847
79234W        W47597  19.761   4.780  13.353
79235W        W47598  43.951  13.341   0.861
79236W        W47599  30.999  30.046  11.483
79237W        W47600  41.028  35.853  13.010
79238W        W47601  30.658   5.368   4.714
79239W        W47602  36.891  43.014   4.825
79240W        W47603  37.414  24.588   0.482
79241W        W47604  43.972   9.706   1.296
79242W        W47605  15.259  44.969  14.885
79243W        W47606  23.579  13.153   0.313
79244W        W47607   0.331  43.819   3.811
79245W        W47608   0.799  31.941  11.079
79246W        W47609  41.974   2.302  10.980
79247W        W47610   5.365  34.385   2.719
79248W        W47611   4.438   3.283  14.897
79249W        W47612  43.892   8.692  12.528
79250W        W47613  37.044   7.259   4.624
79251W        W47614  22.599   8.865  14.335
79252W        W47615  21.043  16.254  11.479
79253W        W47616   8.892   5.426   1.360
79254W        W47617  41.955   4.817  10.978
79255W        W47618  22.552  15.179   0.810
79256W        W47619  32.451  38.987   1.307
79257W        W47620  10.155  19.123   2.204
79258W        W47621  27.544  17.774   0.392
79259W        W47622   8.370   1.421  14.013
79260W        W47623   2.764  29.158  12.861
79261W        W47624  15.110   1.942  10.894
79262W        W47625  24.641  41.318   1.748
79263W        W47626  12.685  13.158  14.435
79264W        W47627   1.259   5.388  12.948
79265W        W47628  13.643  17.798  12.825
79266W        W47629  39.382  38.490  12.914
79267W        W47630  22.541  16.623   2.746
79268W        W47631  26.468  37.394  13.053
79269W        W47632  42.926  41.421   3.642
79270W        W47633  26.988  39.971   2.376
79271W        W47634   5.324  28.157  13.459
79272W        W47635  31.641  29.962  12.966
79273W        W47636   1.792  11.139  12.022
79274W        W47637  14.696  18.573  11.910
79275W        W47638  33.100  16.680  12.071
79276W        W47639  32.627  19.158   4.139
79277W        W47640  44.374  43.414   3.864
79278W        W47641   4.944  23.536   2.193
79279W        W47642  25.166  30.630  13.413
79280W        W47643  43.338  30.953   0.956
79281W        W47644   6.676  31.040  11.062
79282W        W47645   4.367  26.678   0.319
79283W        W47646  10.196  29.566   0.270
79284W        W47647  33.027   0.258  12.366
79285W        W47648  12.833   6.186  11.885
79286W        W47649  32.551  16.115   1.862
79287W        W47650  21.575  21.069   2.399
79288W        W47651   5.846  15.221  11.456
79289W        W47652  19.114  16.611   2.687
79290W        W47653  16.799  12.122  14.884
79291W        W47654  33.417  34.405  11.504
79292W        W47655  41.302  40.465   1.346
79293W        W47656   0.948  21.043   9.960
79294W        W47657  29.552  13.286  11.574
79295W        W47658  25.007  39.375   1.292
79296W        W47659  10.236  25.509   3.805
79297W        W47660   6.240  34.039   4.758
79298W        W47661  20.258   9.746   3.674
79299W        W47662   7.750  36.512   4.214
79300W        W47663   2.756  24.073  13.501
79301W        W47664   3.351  23.066  14.297
79302W        W47665  14.340  17.668  13.335
79303W        W47666  39.991   0.822  12.089
79304W        W47667   5.386  23.212   0.821
79305W        W47668  24.619  16.213  12.399
79306W        W47669  13.254  14.667   0.383
79307W        W47670  29.447  15.291  11.085
79308W        W47671  31.519  23.546   4.777
79309W        W47672  18.207  44.455   4.226
79310W        W47673  15.321   4.786  12.375
79311W        W47674  13.260   7.212  14.362
79312W        W47675  10.139   1.792  14.973
79313W        W47676  43.377  30.596   2.388
79314W        W47677   2.256   2.956  13.347
79315W        W47678   0.928   0.458   1.921
79316W        W47679  32.112   0.851   2.352
79317W        W47680  37.498  23.626  10.597
79318W        W47681  34.383  34.962   4.307
79319W        W47682  18.611  26.512  12.515
79320W        W47683   1.383  43.914   3.159
79321W        W47684   7.315  39.866   0.877
79322W        W47685   9.358  31.028  14.342
79323W        W47686  14.741   8.298  11.557
79324W        W47687   2.841  14.633   0.462
79325W        W47688   6.807   8.365   0.341
79326W        W47689  31.443  41.853  10.595
79327W        W47690   4.425  41.538   0.388
79328W        W47691  44.327  39.522  10.154
79329W        W47692   1.949  43.785   4.251
79330W        W47693  33.547  26.067  12.527
79331W        W47694  17.756  30.015   4.665
79332W        W47695  23.608   4.934   2.679
79333W        W47696   4.449  36.385   3.348
79334W        W47697  11.631  12.820  13.434
79335W        W47698  37.364  34.012  11.034
79336W        W47699  23.730  17.595  14.424
79337W        W47700  16.746  33.958  10.985
79338W        W47701  43.325   3.252   2.844
79339W        W47702  41.335  31.099  10.619
79340W        W47703  10.180  42.976  12.502
79341W        W47704  21.627  27.090   4.350
79342W        W47705  23.560  44.850  10.985
79343W        W47706  37.852  23.650   1.431
79344W        W47707  20.619   0.935   1.891
79345W        W47708  25.003   1.318  10.477
79346W        W47709  38.938   4.397   1.810
79347W        W47710   0.870   3.879   0.787
79348W        W47711  22.562  43.407   1.790
79349W        W47712  44.951  23.223  14.426
79350W        W47713  22.626   3.302   0.840
79351W        W47714  32.508  29.536   1.405
79352W        W47715  40.309   9.288  10.585
79353W        W47716  12.204  23.540   2.267
79354W        W47717   3.457  20.198   2.728
79355W        W47718  22.744  39.498   4.320
79356W        W47719  29.622  35.604   2.210
79357W        W47720   1.893   4.752  12.830
79358W        W47721   8.235  35.032  12.364
79359W        W47722  22.657  18.183  11.068
79360W        W47723  22.517  41.453   2.179
79361W        W47724   5.271  23.591  13.048
79362W        W47725   6.211  21.691  13.932
79363W        W47726   2.966  44.770  11.598
79364W        W47727  21.037  10.248   5.081
79365W        W47728  22.678  34.512  10.483
79366W        W47729   5.857   1.875  10.464
79367W        W47730  11.681   5.863   3.725
79368W        W47731  38.364  31.642  13.845
79369W        W47732   2.397  25.017   1.861
79370W        W47733  26.075  37.395   4.792
79371W        W47734  23.586  38.532   3.630
79372W        W47735  37.058  39.894   3.650
79373W        W47736   0.345  16.304  10.916
79374W        W47737   8.297  12.326  14.008
79375W        W47738  31.094  22.244   2.790
79376W        W47739  27.483  37.460  12.412
79377W        W47740  27.077  34.986  12.553
79378W        W47741   8.219  43.823  13.525
79379W        W47742  25.557  19.183   2.868
79380W        W47743  17.592  24.219  12.508
79381W        W47744   9.177  27.609   3.226
79382W        W47745   5.820  26.673  10.619
79383W        W47746  22.141  40.422   0.795
79384W        W47747   2.765  40.336  13.341
79385W        W47748  26.671  19.060  13.494
79386W        W47749   4.737   0.868  11.116
79387W        W47750   2.901  27.627  11.936
79388W        W47751  21.188  22.731   0.460
79389W        W47752  26.107  34.607  11.452
79390W        W47753  39.462  23.587   0.463
79391W        W47754  26.585   9.238   4.696
79392W        W47755  27.678  36.555   3.362
79393W        W47756  37.966   2.415  10.993
79394W        W47757  36.985   4.310  14.937
79395W        W47758  42.928  32.098   0.733
79396W        W47759  14.731   9.320  13.816
79397W        W47760  34.374  31.577   3.181
79398W        W47761  10.821   3.311   0.365
79399W        W47762  25.665  40.847  10.459
79400W        W47763  11.733  29.059   3.168
79401W        W47764  32.398  28.073   9.991
79402W        W47765  23.205  14.147   4.312
79403W        W47766  32.621  35.026   1.442
79404W        W47767  37.581  29.123  13.828
79405W        W47768  17.781  24.561  11.978
79406W        W47769  32.101  11.809  11.966
79407W        W47770  23.568  42.853  12.060
79408W        W47771  14.737   4.741   4.160
79409W        W47772  25.164   8.278  12.880
79410W        W47773   3.889  37.931   3.716
79411W        W47774  21.231  20.038   2.313
79412W        W47775  36.908  42.342  14.952
79413W        W47776  41.485  27.047  10.633
79414W        W47777  20.043  41.967  13.497
79415W        W47778  10.332  10.872   1.273
79416W        W47779  15.708  21.185  13.373
79417W        W47780  22.017  41.997  10.893
79418W        W47781  31.469  19.600  12.926
79419W        W47782  24.990  41.411   2.389
79420W        W47783  31.630  34.412  11.504
79421W        W47784   7.669  27.147  13.999
79422W        W47785  27.596  39.366  12.435
79423W        W47786  36.978  20.734  12.929
79424W        W47787  36.083  17.102  12.475
79425W        W47788  23.677  42.927  12.353
79426W        W47789  41.805  30.591   9.970
79427W        W47790  19.249  22.063   4.185
79428W        W47791   7.387  13.227  12.841
79429W        W47792  19.274  23.108  14.974
79430W        W47793  44.354   7.820  14.402
79431W        W47794  21.732   3.816   0.968
79432W        W47795  37.944  20.029   0.806
79433W        W47796  42.357  44.333   3.257
79434W        W47797  43.309  13.780  14.856
79435W        W47798  38.399  30.913  11.104
79436W        W47799   0.820  14.829   0.885
79437W        W47800   0.472  40.427  13.912
79438W        W47801  19.125  42.936   3.645
79439W        W47802  19.279  24.010   1.437
79440W        W47803  40.001  14.829   0.290
79441W        W47804  10.274  13.673   3.283
79442W        W47805   6.229  39.389  11.570
79443W        W47806   6.362   7.682   3.378
79444W        W47807  29.989   9.771  13.061
79445W        W47808  14.152   0.968  14.013
79446W        W47809  42.363   2.297   1.336
79447W        W47810  35.428  33.465   3.822
79448W        W47811   9.151  31.640  14.452
79449W        W47812  22.009   8.382  14.489
79450W        W47813  42.304   0.423  14.381
79451W        W47814  34.118   0.316  12.518
79452W        W47815  12.161  13.171  11.921
79453W        W47816   0.860   0.265  11.007
79454W        W47817  38.820  16.283  11.431
79455W        W47818   9.812  41.833  12.440
79456W        W47819  16.742  10.754  10.908
79457W        W47820  44.789  27.130   4.253
79458W        W47821   3.239  34.104   3.177
79459W        W47822  28.931  11.354  10.512
79460W        W47823  15.585  12.243  12.836
79461W        W47824  19.058  32.900   3.631
79462W        W47825  41.303  11.280   2.225
79463W        W47826  11.226  42.779  12.368
79464W        W47827  29.524   4.783   1.714
79465W        W47828  10.321  12.797  13.052
79466W        W47829  31.462  38.390  13.424
79467W        W47830  14.685  40.824   3.862
79468W        W47831  19.146  32.016  14.358
79469W        W47832  28.006  13.797  14.497
79470W        W47833  32.986  23.172  12.832
79471W        W47834   4.331  39.415   3.646
79472W        W47835  39.558  20.736   0.344
79473W        W47836  43.937  43.350   3.869
79474W        W47837  11.666  25.688  14.487
79475W        W47838  15.236   6.313  14.496
79476W        W47839   1.378  42.454  14.355
79477W        W47840  10.218  33.063   2.901
79478W        W47841  24.985   0.341   1.279
79479W        W47842  23.180  39.894  10.480
79480W        W47843  37.402  41.979  13.385
79481W        W47844  14.115  18.726  12.380
79482W        W47845  41.349  43.382   0.442
79483W        W47846   6.202  13.670  10.459
79484W        W47847   9.230  40.012  13.799
79485W        W47848  25.077  31.560   4.791
79486W        W47849   3.813   5.906  14.792
79487W        W47850   5.286  35.009  14.806
79488W        W47851   4.818  20.711   0.754
79489W        W47852  16.789   1.933   4.227
79490W        W47853  44.373  35.434  10.579
79491W        W47854   1.374   2.846   0.830
79492W        W47855  38.876  34.894   0.375
79493W        W47856   9.285  39.982   2.741
79494W        W47857  37.413  10.658  10.492
79495W        W47858  22.141  40.909  13.973
79496W        W47859  33.555  14.142   9.928
79497W        W47860  40.901  35.590  12.055
79498W        W47861  16.799  15.808  10.926
79499W        W47862   7.811  25.194   0.315
79500W        W47863  12.630  16.177  13.979
79501W        W47864  27.080  17.152  11.497
79502W        W47865  43.276  24.611  14.392
79503W        W47866  15.209  43.873   0.762
79504W        W47867  27.528  24.532   4.349
79505W        W47868  30.080   3.902   3.870
79506W        W47869   9.858  12.157   4.612
79507W        W47870   0.786   4.281  14.766
79508W        W47871  10.234  21.517  12.020
79509W        W47872   2.856  40.428  12.522
79510W        W47873  20.732   3.751   2.206
79511W        W47874  37.046  13.844   5.767
79512W        W47875  19.546   1.449  13.403
79513W        W47876  13.339  29.119  13.887
79514W        W47877  44.918  19.209   4.832
79515W        W47878  16.312  39.883  14.405
79516W        W47879   0.769  15.790  11.588
79517W        W47880   7.286   0.374  11.423
79518W        W47881  25.013  22.632   2.720
79519W        W47882  14.256  13.735   1.751
79520W        W47883   0.953  24.493  13.899
79521W        W47884   4.775  33.622  10.595
79522W        W47885  16.777  22.111   1.726
79523W        W47886   1.900  18.203  13.519
79524W        W47887  15.105  41.855  12.494
79525W        W47888  32.513  29.140  10.588
79526W        W47889  36.555   3.732  13.009
79527W        W47890  23.119  12.119   3.251
79528W        W47891  35.955  21.067   0.925
79529W        W47892  20.682  41.339   0.798
79530W        W47893   1.904  32.583  10.492
79531W        W47894   7.773  18.702  13.387
79532W        W47895  31.148  44.825   0.343
79533W        W47896  22.236   2.269   1.893
79534W        W47897  35.084  20.214   4.644
79535W        W47898   0.436   7.394   3.700
79536W        W47899  32.142  40.949  13.375
79537W        W47900   7.902   5.387   1.825
79538W        W47901  12.221   7.203   1.771
79539W        W47902  43.945  39.380  14.399
79540W        W47903  43.270  15.696  12.463
79541W        W47904  43.913  19.258   3.769
79542W        W47905  37.521   4.924   4.681
79543W        W47906  11.153  30.021  10.953
79544W        W47907  24.685  12.692   1.806
79545W        W47908  23.523   4.704   0.401
79546W        W47909  10.861  34.113  11.880
79547W        W47910  41.401   6.426   2.831
79548W        W47911   6.218  14.686  12.945
79549W        W47912  36.880  31.944   0.319
79550W        W47913  27.059  43.300  14.462
79551W        W47914  18.755  27.055   2.344
79552W        W47915  39.028  39.852   3.815
79553W        W47916   0.880   1.895  12.030
79554W        W47917  10.864  43.318   2.418
79555W        W47918  28.998  26.134  12.965
79556W        W47919  15.321   8.230  11.056
79557W        W47920   6.393  19.044  14.929
79558W        W47921  19.047  16.163  14.394
79559W        W47922  43.011  44.842  13.836
79560W        W47923  44.492  33.129   0.258
79561W        W47924  23.586  20.157  11.012
79562W        W47925  35.958  32.561  11.076
79563W        W47926   9.863  16.708  10.519
79564W        W47927   9.216  22.106   3.193
79565W        W47928  42.835  36.091  10.906
79566W        W47929  11.277  22.667   1.876
79567W        W47930  14.313  25.657   3.203
79568W        W47931  38.006  19.109  14.440
79569W        W47932   6.347  41.937   5.208
79570W        W47933  26.560  30.152  13.905
79571W        W47934   3.727  23.645  14.326
79572W        W47935  40.375   7.687  11.031
79573W        W47936  17.685   0.959   4.125
79574W        W47937  39.898  18.681  11.948
79575W        W47938  24.032   4.716  10.482
79576W        W47939  14.699   0.801  10.924
79577W        W47940  38.355  39.903   0.483
79578W        W47941   9.220  29.579   4.755
79579W        W47942  24.107  19.226   0.937
79580W        W47943  30.005  11.151  11.411
79581W        W47944  11.286  33.604  12.876
79582W        W47945   8.765  17.295   1.802
79583W        W47946  36.937  41.833   0.470
79584W        W47947   5.736   9.849  13.423
79585W        W47948  17.254  29.639   4.740
79586W        W47949  28.127   8.230   2.890
79587W        W47950  34.902  17.108  14.399
79588W        W47951  34.602   5.386  10.988
79589W        W47952  26.096  32.989  11.518
79590W        W47953  21.095  29.640   0.281
79591W        W47954   0.479  33.521   2.338
79592W        W47955  35.371  13.225   2.674
79593W        W47956  26.695   2.273   2.860
79594W        W47957  21.077  38.408  12.844
79595W        W47958  24.667  33.120  10.452
79596W        W47959  27.086   7.202   1.827
79597W        W47960   4.434  39.028  11.446
79598W        W47961  42.806   0.840   4.204
79599W        W47962  23.493  23.148  12.014
79600W        W47963  35.902  27.976  12.960
79601W        W47964  43.383  20.533  14.762
79602W        W47965   3.254  29.560   4.202
79603W        W47966  16.741  40.971  11.081
79604W        W47967  17.296  19.637  14.856
79605W        W47968  23.043  25.091   0.263
79606W        W47969  15.197  35.510  11.862
79607W        W47970  25.545  10.815  11.460
79608W        W47971  10.671   1.303  13.426
79609W        W47972  15.591  27.022  14.859
79610W        W47973   0.863   1.852   1.275
79611W        W47974  26.152   3.717  10.586
79612W        W47975   3.812   3.895  10.500
79613W        W47976  22.567  33.089  13.374
79614W        W47977  14.260  31.477   3.275
79615W        W47978  41.847   9.691  11.959
79616W        W47979  19.065  18.137  11.957
79617W        W47980   1.255   1.865   2.293
79618W        W47981   3.920   7.389   3.186
79619W        W47982  16.271   6.899   4.198
79620W        W47983  19.082  31.493   1.450
79621W        W47984  41.391   9.861   4.635
79622W        W47985  35.529  34.056   1.424
79623W        W47986  13.742  24.488   0.846
79624W        W47987  39.399  19.131  13.350
79625W        W47988  30.940  37.538  12.573
79626W        W47989  22.565  44.884  14.313
79627W        W47990  37.976  24.576  10.626
79628W        W47991  11.148  12.194   3.156
79629W        W47992  27.089  30.595   3.852
79630W        W47993   3.753  11.733   4.755
79631W        W47994  36.377  30.073  11.449
79632W        W47995  32.553  32.621  13.387
79633W        W47996  32.418   5.739   1.866
79634W        W47997  40.835  29.444   1.876
79635W        W47998  35.603  19.213   2.684
79636W        W47999  43.463   3.286  11.956
79637W        W48000  15.745  25.021  11.379
79638W        W48001  24.614  11.674  11.039
79639W        W48002  44.806  41.965  14.417
79640W        W48003  15.627  44.463  10.445
79641W        W48004  38.466  37.399  13.355
79642W        W48005  39.831  31.958   0.248
79643W        W48006  20.184  34.447  14.895
79644W        W48007  40.006  30.136   1.265
79645W        W48008  11.722  32.588   1.763
79646W        W48009  12.261  17.791   2.896
79647W        W48010  34.393  10.868   2.237
79648W        W48011   5.298   9.809   3.278
79649W        W48012  34.417  42.934   4.241
79650W        W48013   2.447  13.133   2.752
79651W        W48014   1.455  23.209   3.657
79652W        W48015  42.024   0.970   3.853
79653W        W48016  29.529  36.875  14.355
79654W        W48017  10.676  14.808   0.431
79655W        W48018  42.886  12.285  13.343
79656W        W48019  44.268  18.065   0.912
79657W        W48020  44.395  18.644  13.465
79658W        W48021  33.118  13.176   2.778
79659W        W48022  37.494  38.880   1.267
79660W        W48023   1.400  35.562  13.979
79661W        W48024  19.668  20.076   0.901
79662W        W48025   0.826  25.033   2.381
79663W        W48026   2.882  35.489  11.022
79664W        W48027  36.916   2.929  11.979
79665W        W48028  27.692  21.665  13.829
79666W        W48029  43.415   8.886   0.882
79667W        W48030  10.147  12.773   0.739
79668W        W48031  42.306  43.813  11.419
79669W        W48032  33.935  44.860  14.808
79670W        W48033  32.980  19.683   0.865
79671W        W48034  40.030  10.338  12.979
79672W        W48035  25.079  11.820  12.361
79673W        W48036   6.819   3.336  11.119
79674W        W48037  12.334   7.816  11.029
79675W        W48038  41.440  29.477  11.074
79676W        W48039  25.011  22.181  11.036
79677W        W48040  17.771  27.054  11.025
79678W        W48041  36.470   6.843   4.665
79679W        W48042  34.553  15.098  10.996
79680W        W48043  35.533  28.127   1.440
79681W        W48044  37.036  35.007  11.039
79682W        W48045  44.807  39.350   2.792
79683W        W48046  17.098   9.728  10.602
79684W        W48047  12.692  24.525  14.374
79685W        W48048  23.506   6.370  10.974
79686W        W48049  14.774  17.598  12.529
79687W        W48050  20.036  19.089  11.984
79688W        W48051  14.189  30.442   1.701
79689W        W48052  14.106  39.893  10.606
79690W        W48053  15.249  25.572  12.368
79691W        W48054  29.960  11.823   1.393
79692W        W48055  29.554  17.138  11.467
79693W        W48056  28.654  15.086  10.135
79694W        W48057  21.617  36.545  11.869
79695W        W48058  15.774   6.733   3.251
79696W        W48059  40.422  33.079  11.895
79697W        W48060   4.294   0.412  13.020
79698W        W48061  20.718   4.231  13.031
79699W        W48062   2.292  17.599   3.190
79700W        W48063  27.641  32.031   1.860
79701W        W48064  38.972   5.900   2.231
79702W        W48065  41.384   0.490   1.211
79703W        W48066  44.936  10.663  12.092
79704W        W48067  11.282   4.358  13.064
79705W        W48068  43.301  40.354   1.241
79706W        W48069  43.403  23.671  14.825
79707W        W48070  41.952   9.700  10.557
79708W        W48071   5.330  32.499   0.317
79709W        W48072  18.656  12.120   0.243
79710W        W48073   8.386   8.302  12.509
79711W        W48074  37.467   3.742   1.384
79712W        W48075  37.935   0.785  11.019
79713W        W48076  18.590   5.717  14.471
79714W        W48077  38.435  10.636  11.544
79715W        W48078   2.876  41.368   0.795
79716W        W48079  26.181   0.440   3.789
79717W        W48080  17.125  28.627   1.217
79718W        W48081   5.881  29.446  11.541
79719W        W48082  37.037  11.278  11.490
79720W        W48083  43.485  19.747  10.522
79721W        W48084  11.230   8.220   4.164
79722W        W48085   1.301  27.140   0.348
79723W        W48086  33.419  37.933  14.907
79724W        W48087  44.456  36.375   3.758
79725W        W48088  22.138  31.989  14.472
79726W        W48089  19.265  37.918   1.269
79727W        W48090  42.297  40.963  12.875
79728W        W48091   7.171  42.428  12.973
79729W        W48092   1.386  19.650  13.881
79730W        W48093   8.660   5.204   0.801
79731W        W48094  14.771  28.623   3.842
79732W        W48095   5.426  39.820  14.843
79733W        W48096  32.894  33.504  10.990
79734W        W48097   5.753  34.504   3.344
79735W        W48098  13.322  40.497  12.418
79736W        W48099  37.027  28.626   0.883
79737W        W48100  17.256  42.841   2.901
79738W        W48101  18.617  20.686   0.908
79739W        W48102  14.207  23.692   2.377
79740W        W48103   3.733  27.978  14.507
79741W        W48104  19.640   6.186   2.307
79742W        W48105  44.505   7.309   0.793
79743W        W48106  20.135   9.365   0.302
79744W        W48107  10.290   6.861  13.833
79745W        W48108  14.690  38.523  11.930
79746W        W48109  32.054  29.478   5.798
79747W        W48110  19.739   5.778  11.024
79748W        W48111  21.187  33.525   5.282
79749W        W48112  23.596  23.095   3.331
79750W        W48113  18.596  31.935  12.346
79751W        W48114  29.652  11.690   2.233
79752W        W48115  39.882  22.719  14.426
79753W        W48116   3.247  30.925  13.499
79754W        W48117   6.282   2.234   1.756
79755W        W48118   9.225  41.294   3.813
79756W        W48119  42.967  24.596   4.687
79757W        W48120  29.170  43.859   4.147
79758W        W48121  12.707  31.562  13.989
79759W        W48122  27.130  21.241   2.213
79760W        W48123  23.596  32.517  10.938
79761W        W48124   2.804  19.600  12.507
79762W        W48125   7.901   5.274  13.438
79763W        W48126   8.372  16.603   3.711
79764W        W48127  33.053  39.862  10.421
79765W        W48128  34.421  40.890  13.928
79766W        W48129  39.961   3.714  10.525
79767W        W48130  28.994  17.287   4.152
79768W        W48131  18.684  33.041  12.871
79769W        W48132   6.861  21.219   4.831
79770W        W48133  24.541   3.903  13.544
79771W        W48134  12.262  21.111  12.366
79772W        W48135  24.599  38.853  14.882
79773W        W48136  17.106   0.367   3.659
79774W        W48137  24.060  24.693  13.041
79775W        W48138   7.295   7.909  11.122
79776W        W48139  39.339  28.579   2.860
79777W        W48140  16.683  25.169   1.793
79778W        W48141   9.315  28.619   2.244
79779W        W48142  33.977  18.687  14.000
79780W        W48143  28.604  17.100   1.733
79781W        W48144  31.053   4.227   0.830
79782W        W48145  25.597  16.241   1.756
79783W        W48146  24.560  23.029  14.471
79784W        W48147  35.070   3.884  11.867
79785W        W48148  33.069  16.241   0.468
79786W        W48149  43.307  27.009   3.865
79787W        W48150  16.761  19.250   3.384
79788W        W48151  28.665  29.615  12.990
79789W        W48152  19.049   6.411  11.423
79790W        W48153  32.030  36.092  10.564
79791W        W48154   5.882  10.353   3.772
79792W        W48155  42.864  37.952  12.010
79793W        W48156  37.557  30.658  13.852
79794W        W48157   5.294   1.364  13.420
79795W        W48158  16.752  33.485   3.276
79796W        W48159  36.076  30.561   0.336
79797W        W48160  42.875  35.567   1.883
79798W        W48161   7.806   7.180   0.938
79799W        W48162  23.629  37.864  13.470
79800W        W48163   7.842  36.910  12.576
79801W        W48164  27.635  38.850  13.546
79802W        W48165  30.563   4.226  10.577
79803W        W48166  18.104  30.014  10.433
79804W        W48167  39.866   1.274   4.602
79805W        W48168  22.520  15.107  14.339
79806W        W48169  31.063  41.312  11.562
79807W        W48170  23.011  42.505   2.317
79808W        W48171  21.042  18.698   2.833
79809W        W48172  41.333  37.041   4.837
79810W        W48173  37.863  35.491  11.025
79811W        W48174  16.085  19.248  14.824
79812W        W48175   5.264  37.858   2.327
79813W        W48176  38.347   0.275   0.807
79814W        W48177  26.691  23.085  14.029
79815W        W48178   9.837   7.390   1.841
79816W        W48179   4.443  12.644   0.941
79817W        W48180  15.792   5.850   3.231
79818W        W48181  19.271  36.388   0.957
79819W        W48182  20.141  15.318  14.389
79820W        W48183   8.180  19.740  12.007
79821W        W48184  19.741  43.356   3.739
79822W        W48185  16.722  11.155   2.833
79823W        W48186  31.950  40.373  10.948
79824W        W48187  42.377  32.521  12.980
79825W        W48188   9.335  33.035   4.714
79826W        W48189  29.131  21.556  13.837
79827W        W48190  27.625  12.625   5.248
79828W        W48191  14.128  21.060  11.985
79829W        W48192  22.736  28.962   4.627
79830W        W48193  32.020  14.698   4.740
79831W        W48194  41.348  16.138   0.745
79832W        W48195  35.061  14.291  14.814
79833W        W48196  30.630  27.117  10.121
79834W        W48197   1.425  31.024   3.862
79835W        W48198  19.669   3.767  10.956
79836W        W48199  26.525  44.391   1.774
79837W        W48200  16.317  31.406   0.421
79838W        W48201  38.558  31.529   0.836
79839W        W48202  28.474  11.289  11.943
79840W        W48203   0.387  21.564  10.491
79841W        W48204  37.516  44.326   0.907
79842W        W48205  32.560  39.487   4.695
79843W        W48206  15.166  16.600   1.415
79844W        W48207  26.181  17.281  14.470
79845W        W48208  38.961  24.723   2.746
79846W        W48209  15.152   3.808   5.154
79847W        W48210   6.753  17.753   3.162
79848W        W48211   8.791   5.412   1.774
79849W        W48212  40.884  41.449  12.410
79850W        W48213  42.430  13.831   0.732
79851W        W48214  20.273  24.655  10.558
79852W        W48215  24.153  26.638   4.167
79853W        W48216  36.969  22.178  11.577
79854W        W48217  19.553  36.436  10.638
79855W        W48218  29.473   2.401  14.434
79856W        W48219  20.572  25.100   3.831
79857W        W48220  21.658  18.612  12.917
79858W        W48221   7.840  22.697  12.530
79859W        W48222  25.109   5.439   3.330
79860W        W48223   6.348  30.084  10.458
79861W        W48224   9.198   8.873   0.459
79862W        W48225   3.278  19.684  13.960
79863W        W48226   7.795  43.449   4.705
79864W        W48227   0.447  35.557  11.387
79865W        W48228  43.338   5.906  11.376
79866W        W48229  11.151   1.428   2.340
79867W        W48230  34.454   6.371  11.114
79868W        W48231   5.870  29.490   2.373
79869W        W48232  13.797  11.809   3.373
79870W        W48233  41.328   9.888  12.902
79871W        W48234  12.840  31.048   4.163
79872W        W48235  10.830  40.986  14.874
79873W        W48236  24.639   7.347   0.868
79874W        W48237  29.566  28.634   2.201
79875W        W48238  34.098  44.407   4.347
79876W        W48239  40.940   1.737  14.923
79877W        W48240  21.167  43.889   3.839
79878W        W48241   2.455  29.175   0.249
79879W        W48242  28.493   0.465  10.901
79880W        W48243  15.141   5.836  11.557
79881W        W48244   2.731   9.761   1.787
79882W        W48245  18.283  34.976  12.368
79883W        W48246  42.956   2.891   4.160
79884W        W48247  22.148  14.754  13.320
79885W        W48248   7.181   4.869  10.500
79886W        W48249  31.442  16.594   0.285
79887W        W48250  27.500  43.500   4.826
79888W        W48251   7.678  20.654   2.723
79889W        W48252  15.306  30.005  11.575
79890W        W48253   6.191  26.654   1.404
79891W        W48254  43.353  12.667  10.963
79892W        W48255  24.663  24.213   1.888
79893W        W48256  11.146  36.393   3.172
79894W        W48257  10.141  21.629  10.033
79895W        W48258  41.398  23.089  14.423
79896W        W48259  38.368  21.667   1.717
79897W        W48260  29.600  41.848  11.452
79898W        W48261  33.075  20.112  11.547
79899W        W48262   9.710  17.608   2.209
79900W        W48263  40.333  11.341  10.496
79901W        W48264  36.898  18.583  14.831
79902W        W48265  41.821  24.055  12.017
79903W        W48266   6.409  20.142   2.398
79904W        W48267  42.920   2.281   4.303
79905W        W48268  18.156  33.956   0.901
79906W        W48269   7.806  21.130   3.335
79907W        W48270  10.381   8.838   3.795
79908W        W48271   1.850  44.779  12.409
79909W        W48272  41.437  33.121  14.000
79910W        W48273   1.256  32.501   3.266
79911W        W48274  40.387  40.467   2.760
79912W        W48275  35.109  13.295   2.885
79913W        W48276  42.396  32.554  13.481
79914W        W48277   2.891  26.678  14.813
79915W        W48278  28.600   9.303  11.936
79916W        W48279  27.945  25.206  12.896
79917W        W48280  36.440  14.696  10.892
79918W        W48281   8.755   9.269  11.535
79919W        W48282  34.987  19.159   2.678
79920W        W48283  13.305  20.086   2.864
79921W        W48284   0.877  39.002  12.887
79922W        W48285   6.295  23.643   1.408
79923W        W48286  35.946  43.293   4.229
79924W        W48287   7.297  33.515  11.565
79925W        W48288   8.692  27.998  14.026
79926W        W48289   5.701  18.255   3.292
79927W        W48290  21.031  23.055  13.020
79928W        W48291  30.658   0.413   3.162
79929W        W48292   0.783  21.629   4.338
79930W        W48293  21.661  11.229  13.900
79931W        W48294  17.737  41.346  12.832
79932W        W48295  40.455  32.906  14.297
79933W        W48296   1.269  15.107  11.990
79934W        W48297  21.649  27.645  13.363
79935W        W48298   1.768  42.483  12.043
79936W        W48299  42.381  19.593  13.064
79937W        W48300  16.729  11.813   3.679
79938W        W48301  12.191  14.175   2.307
79939W        W48302  37.357   0.922  14.908
79940W        W48303  39.957  33.384   1.285
79941W        W48304  35.006  40.362  12.050
79942W        W48305  33.886  34.052  13.873
79943W        W48306  18.105  36.513   2.815
79944W        W48307  38.821  33.909   4.672
79945W        W48308  22.597  42.303   2.807
79946W        W48309  22.223  33.605  12.034
79947W        W48310   6.275  31.018   0.746
79948W        W48311  19.610   7.712   0.448
79949W        W48312   9.164  33.537  10.538
79950W        W48313   2.250  14.309   4.765
79951W        W48314  14.329  12.712  14.822
79952W        W48315  12.816  38.890   3.697
79953W        W48316  38.436   9.253  10.513
79954W        W48317  26.972   2.409  12.432
79955W        W48318  24.976  39.328  11.980
79956W        W48319  22.175  36.974  12.056
79957W        W48320  15.207  43.930  10.924
79958W        W48321  11.781  21.166   4.685
79959W        W48322   4.373   2.439   3.677
79960W        W48323  17.251  29.500   4.220
79961W        W48324  13.672  37.847  14.952
79962W        W48325  11.303  31.148   4.606
79963W        W48326  21.533   7.303   5.316
79964W        W48327   9.238  34.426   5.163
79965W        W48328  20.626  26.531  14.961
79966W        W48329  20.028  42.896  10.500
79967W        W48330  31.463   4.740   2.814
79968W        W48331   0.347  36.530   9.939
79969W        W48332  18.147   9.349   3.220
79970W        W48333  13.672   1.831   4.235
79971W        W48334  38.950  19.104   1.718
79972W        W48335  27.663  20.731   3.221
79973W        W48336  39.925  13.132  13.841
79974W        W48337  13.682  42.928  11.555
79975W        W48338  30.579  16.261   4.698
79976W        W48339  29.431  42.902   0.402
79977W        W48340   6.310   1.788   5.180
79978W        W48341  10.209  23.603   1.400
79979W        W48342  21.560   3.372  11.100
79980W        W48343  23.638  17.756   1.739
79981W        W48344  16.249  22.514   4.234
79982W        W48345  31.909  21.253   1.444
79983W        W48346  38.436  23.022  11.435
79984W        W48347  42.823  12.800   1.217
79985W        W48348   4.865  34.531   1.867
79986W        W48349  24.660  37.576  10.498
79987W        W48350  12.831   6.352   3.160
79988W        W48351  15.602  13.337  12.009
79989W        W48352  29.426  17.697  14.498
79990W        W48353  29.068  37.377  12.957
79991W        W48354  28.501   4.303   3.653
79992W        W48355  34.490  11.651   1.271
79993W        W48356  29.132  17.736   0.818
79994W        W48357   6.212  34.119   0.307
79995W        W48358  23.988  18.091   2.183
79996W        W48359  19.692   8.186  14.507
79997W        W48360  33.122  14.744   1.415
79998W        W48361  11.300  32.434  13.803
79999W        W48362  11.640  11.815  12.847
80000W        W48363  34.561  15.621  11.091
80001W        W48364  18.621  25.583  11.423
80002W        W48365  19.039   7.189   2.846
80003W        W48366   9.354  43.432  10.947
80004W        W48367  35.027   4.827  13.824
80005W        W48368  21.640  34.477  14.275
80006W        W48369   5.893  13.133  11.885
80007W        W48370   4.749  37.409   0.393
80008W        W48371  26.560  36.076  13.423
80009W        W48372   5.717  37.438  12.022
80010W        W48373  42.846  30.093  13.792
80011W        W48374   9.253  36.372   0.841
80012W        W48375  25.613  18.673   1.930
80013W        W48376  21.649   1.479  13.942
80014W        W48377  24.635  21.731   3.748
80015W        W48378  14.100  19.572  14.315
80016W        W48379   7.825  36.367   4.764
80017W        W48380  36.930  43.464   4.719
80018W        W48381  12.170   0.789   4.297
80019W        W48382  13.111  42.499   2.898
80020W        W48383  21.177   2.255  13.542
80021W        W48384   8.277   0.326   2.317
80022W        W48385  17.247  29.092  12.339
80023W        W48386  35.437  14.822   1.277
80024W        W48387  41.311  36.575   4.605
80025W        W48388  30.414  24.551   3.690
80026W        W48389  40.829  22.200  10.941
80027W        W48390  26.495  30.147   0.376
80028W        W48391  14.324  41.964   0.337
80029W        W48392  44.997   9.264   2.187
80030W        W48393  11.706  33.008   4.248
80031W        W48394  25.527  44.477  13.856
80032W        W48395  35.963  28.457  11.952
80033W        W48396   3.399  24.137  14.489
80034W        W48397   1.939  30.504  12.854
80035W        W48398   0.875  38.478  14.770
80036W        W48399   1.425  16.093   3.205
80037W        W48400  14.696  41.328   4.753
80038W        W48401  29.453  26.634   0.411
80039W        W48402  16.665  20.739   0.282
80040W        W48403  36.912  42.901  14.489
80041W        W48404  18.203  20.268   4.776
80042W        W48405  35.037  31.896   5.277
80043W        W48406  20.601  30.052  14.862
80044W        W48407   1.318   0.306  12.413
80045W        W48408  36.890  25.562   4.345
80046W        W48409  41.395  37.027  13.382
80047W        W48410  37.048  13.712  10.417
80048W        W48411  16.588  36.368  13.988
80049W        W48412  39.471  31.064   4.263
80050W        W48413  43.904  17.264   0.255
80051W        W48414  28.984  10.870   0.469
80052W        W48415   4.421  19.280  12.503
80053W        W48416   7.774  38.401  10.976
80054W        W48417  29.507  13.124   1.217
80055W        W48418  39.985  26.611  10.971
80056W        W48419  21.194  40.509   3.838
80057W        W48420  13.688  33.400   1.913
80058W        W48421  13.611   3.920  14.866
80059W        W48422  24.222  28.616   4.830
80060W        W48423  19.264  30.485   4.128
80061W        W48424  18.591  17.638   4.674
80062W        W48425  23.735  38.041   1.916
80063W        W48426  12.746  12.646   4.150
80064W        W48427   1.948  29.126  10.943
80065W        W48428   4.850  40.918   0.480
80066W        W48429  35.873  34.974   1.734
80067W        W48430  38.063   3.761  11.938
80068W        W48431  25.565  43.911  14.936
80069W        W48432   8.679   2.299   0.901
80070W        W48433  29.007   0.845   0.455
80071W        W48434   6.865   7.249   3.758
80072W        W48435  41.983  39.440  11.899
80073W        W48436  27.148   9.223  13.454
80074W        W48437  19.097  21.227   4.646
80075W        W48438  21.152  40.970   2.395
80076W        W48439  19.196   8.340  10.537
80077W        W48440   4.317  35.442  11.014
80078W        W48441  15.616  37.415   0.429
80079W        W48442  32.490  24.691  10.625
80080W        W48443  32.581  34.538  13.542
80081W        W48444  17.093  44.973   2.328
80082W        W48445  19.043   4.387  14.921
80083W        W48446  11.269   1.944  10.639
80084W        W48447  44.368   9.864  11.000
80085W        W48448  22.650  17.769  11.946
80086W        W48449  33.965  28.563  14.346
80087W        W48450   7.870  43.801   4.698
80088W        W48451   5.795   0.480  11.420
80089W        W48452  10.226  10.160   3.301
80090W        W48453  33.460  15.232   4.326
80091W        W48454  10.747   3.215  12.852
80092W        W48455  25.689  17.063   3.690
80093W        W48456  23.726  38.837  10.597
80094W        W48457  14.097  44.262   0.918
80095W        W48458   0.854  32.021   4.329
80096W        W48459  16.177  21.078   1.900
80097W        W48460  44.302  39.984  13.850
80098W        W48461   1.959  27.952  12.536
80099W        W48462  18.745  10.633   2.687
80100W        W48463  24.082  27.049  14.481
80101W        W48464  20.587  23.704   4.637
80102W        W48465  24.993   6.374  12.027
80103W        W48466  22.686  24.585  11.982
80104W        W48467  35.038  11.366  14.376
80105W        W48468   7.835  30.097   4.688
80106W        W48469  10.762  44.962   0.270
80107W        W48470  27.154  35.061   4.712
80108W        W48471  21.602  35.562   0.398
80109W        W48472  39.472  14.255   1.758
80110W        W48473   7.400  40.325  14.812
80111W        W48474  42.894  19.107   3.213
80112W        W48475  32.975  33.943   3.828
80113W        W48476  43.886   9.281  12.531
80114W        W48477  34.524  37.517  12.889
80115W        W48478   6.891  14.725   3.242
80116W        W48479  24.138  44.258  11.412
80117W        W48480  23.490  31.528  11.479
80118W        W48481   0.938  29.006   4.628
80119W        W48482  13.638  17.101   1.310
80120W        W48483  15.620  43.381   1.304
80121W        W48484  37.477  40.473   0.413
80122W        W48485  21.615  42.400   3.298
80123W        W48486  39.002   1.423   3.210
80124W        W48487  35.598  24.510   1.901
80125W        W48488   3.217  34.579  10.918
80126W        W48489  43.381   4.204  11.425
80127W        W48490  43.388  10.202  12.420
80128W        W48491  39.383  43.867   2.402
80129W        W48492  26.024  43.330  12.360
80130W        W48493   1.239   1.478   1.390
80131W        W48494  14.636   9.283   4.228
80132W        W48495  20.153  33.452   4.703
80133W        W48496   8.723  32.043  10.554
80134W        W48497  11.704  36.977  14.976
80135W        W48498   3.364  19.670  10.414
80136W        W48499  27.643  31.542  12.889
80137W        W48500  27.494  31.094   0.798
80138W        W48501   3.441   5.741  13.043
80139W        W48502  36.936  34.448   0.266
80140W        W48503  41.342  33.589  11.988
80141W        W48504  31.078  17.619   1.886
80142W        W48505  38.036   6.217  12.458
80143W        W48506  21.674  16.747  12.480
80144W        W48507  44.772   3.249   3.187
80145W        W48508  23.563   2.739   1.256
80146W        W48509   1.474  26.478  12.495
80147W        W48510  24.203  19.544  11.483
80148W        W48511  40.921   7.682   2.843
80149W        W48512  17.587  24.019   4.275
80150W        W48513  19.144   9.874  13.484
80151W        W48514  34.442   1.832   0.372
80152W        W48515  24.164  39.557  13.035
80153W        W48516   7.365   5.819  12.839
80154W        W48517  37.474  26.695  12.502
80155W        W48518  38.400  31.928  13.426
80156W        W48519  34.083  12.611  14.410
80157W        W48520   5.237   8.402  11.432
80158W        W48521  15.723   6.268   2.285
80159W        W48522   3.274  15.284  10.534
80160W        W48523  19.210  24.222  13.406
80161W        W48524   4.232  13.732  14.360
80162W        W48525   7.281  26.659   1.344
80163W        W48526  24.631  12.345  13.795
80164W        W48527  16.574  43.851   5.647
80165W        W48528   6.262  33.592   1.337
80166W        W48529  13.650   3.733   4.778
80167W        W48530  26.674  20.636  12.852
80168W        W48531  35.012   4.705  14.899
80169W        W48532  35.585   6.776  12.824
80170W        W48533  23.114  14.805  13.535
80171W        W48534  24.121   6.195  11.872
80172W        W48535  27.095  10.703   4.239
80173W        W48536  42.291  29.469   1.734
80174W        W48537   9.221  15.232   3.170
80175W        W48538  23.707  40.488   1.726
80176W        W48539  24.663  14.224  14.477
80177W        W48540   3.810  21.664   2.263
80178W        W48541  36.898  11.283  10.584
80179W        W48542  25.529  22.714  12.905
80180W        W48543  15.301  23.112   4.654
80181W        W48544  29.601  43.991   0.811
80182W        W48545  13.274  33.044  13.475
80183W        W48546  28.583  39.853  12.381
80184W        W48547   3.845  44.925   1.715
80185W        W48548  38.983  40.386  13.901
80186W        W48549  22.595  19.090   1.356
80187W        W48550   5.245  38.903  14.921
80188W        W48551  44.862  37.572  14.782
80189W        W48552  19.161  38.881  10.501
80190W        W48553  18.737  24.149  14.837
80191W        W48554  12.798  15.649   4.262
80192W        W48555   4.918  35.486  11.372
80193W        W48556  37.939  26.543   4.151
80194W        W48557  39.985  25.550  10.547
80195W        W48558  19.055  38.030  11.875
80196W        W48559  39.812  15.625  12.448
80197W        W48560  15.278   6.718   9.559
80198W        W48561   8.404   0.986   0.897
80199W        W48562  17.166  17.764  12.029
80200W        W48563  17.556   1.837   1.306
80201W        W48564  22.150  13.336  12.943
80202W        W48565  30.969  14.309  13.356
80203W        W48566  11.178  21.121   3.314
80204W        W48567   0.364   9.162   4.245
80205W        W48568  29.941  21.719   1.723
80206W        W48569  20.045  19.749   0.482
80207W        W48570  24.102  13.721   0.434
80208W        W48571  12.297  33.382  11.942
80209W        W48572  16.265  13.753   3.719
80210W        W48573  39.966  26.488   2.829
80211W        W48574  43.326   6.328   2.248
80212W        W48575  31.986  22.216  10.485
80213W        W48576  14.660  36.970  12.342
80214W        W48577  21.190   2.249  12.021
80215W        W48578   9.794  22.145   4.285
80216W        W48579  10.268   9.301   2.835
80217W        W48580   6.285  17.583   1.934
80218W        W48581   8.850   9.343  11.987
80219W        W48582  28.623  24.050  12.865
80220W        W48583   6.250  16.174  12.415
80221W        W48584   0.253  44.462   1.770
80222W        W48585  29.165  15.738   2.367
80223W        W48586  15.804  21.088  12.090
80224W        W48587  32.567  10.137  12.957
80225W        W48588  22.131  22.194  13.977
80226W        W48589  25.620  41.361   5.115
80227W        W48590   3.367  38.388   1.925
80228W        W48591  36.850   9.819   0.354
80229W        W48592  37.074  36.447   1.735
80230W        W48593  29.593  14.762  12.339
80231W        W48594  35.004   8.270  12.837
80232W        W48595   2.451  10.633   3.808
80233W        W48596  34.083  42.910  13.354
80234W        W48597   9.283  11.294   1.699
80235W        W48598   7.833   5.822  10.964
80236W        W48599  18.777  13.208  14.934
80237W        W48600  21.045  44.800  10.606
80238W        W48601   1.304  36.430   0.794
80239W        W48602  10.688   2.274   1.911
80240W        W48603  21.637  32.120   1.366
80241W        W48604   7.237  31.592   0.868
80242W        W48605  14.177   1.431   0.902
80243W        W48606  13.823  40.544  12.420
80244W        W48607   1.850   2.400  13.856
80245W        W48608  14.831  20.088  13.335
80246W        W48609  16.165   2.396  10.493
80247W        W48610  43.309  22.029  13.825
80248W        W48611  26.165  11.734  10.573
80249W        W48612   1.263  32.043   2.400
80250W        W48613  11.708  14.609   1.694
80251W        W48614   7.796  42.360   0.920
80252W        W48615  41.339  39.380  10.495
80253W        W48616  15.687   6.751  11.588
80254W        W48617  34.890  29.173  14.916
80255W        W48618  14.668  24.155   2.390
80256W        W48619   3.316  34.371   2.396
80257W        W48620  38.870  15.777   2.855
80258W        W48621  23.615  34.979   2.286
80259W        W48622   6.798  39.503  14.006
80260W        W48623  32.972  35.572   3.339
80261W        W48624  44.432  28.034   4.258
80262W        W48625   1.757  20.096   3.180
80263W        W48626  39.946  32.462   3.360
80264W        W48627  34.517  37.439  14.893
80265W        W48628  30.925   3.839   0.401
80266W        W48629  40.887  44.796  13.355
80267W        W48630  32.538  19.774   3.667
80268W        W48631  10.698  14.169  12.088
80269W        W48632  38.914  40.904   3.281
80270W        W48633  30.104   6.206  14.361
80271W        W48634   7.713   6.803   0.762
80272W        W48635  27.123  22.698   0.315
80273W        W48636  35.096   9.854   1.235
80274W        W48637  21.079   1.324  11.442
80275W        W48638  19.735  30.145  14.866
80276W        W48639  32.470  28.935   5.627
80277W        W48640  21.187  25.469  10.416
80278W        W48641  38.421   6.254   3.747
80279W        W48642  22.060  26.066   1.233
80280W        W48643  16.690  28.006  11.380
80281W        W48644  25.610  18.148   4.753
80282W        W48645  22.215  43.398   3.750
80283W        W48646   8.677  29.535   1.299
80284W        W48647  14.208  42.033  12.416
80285W        W48648  26.662  16.682  14.847
80286W        W48649  42.941   1.920   3.244
80287W        W48650   1.953   6.397   3.689
80288W        W48651  27.604  18.076  13.367
80289W        W48652  29.990   1.776   1.849
80290W        W48653  28.090  40.873  11.431
80291W        W48654  27.075  44.490   1.296
80292W        W48655  17.229  27.533  13.011
80293W        W48656  30.104  35.095  12.356
80294W        W48657  42.800  25.071  14.836
80295W        W48658  26.089  35.990   2.701
80296W        W48659  42.357  10.687   3.871
80297W        W48660  18.585  16.638   2.212
80298W        W48661  26.065   9.267  11.448
80299W        W48662   0.286  24.982  14.358
80300W        W48663  40.313  20.209  13.876
80301W        W48664  43.407  24.553  11.564
80302W        W48665  28.138  44.932   2.875
80303W        W48666  30.615  19.279   3.783
80304W        W48667  25.635   4.795   0.801
80305W        W48668  31.564  18.750  13.332
80306W        W48669  19.171  43.468  12.399
80307W        W48670  14.729  11.648  11.879
80308W        W48671  12.244  16.117   0.918
80309W        W48672  41.453  14.675   2.181
80310W        W48673  38.004  14.268   1.886
80311W        W48674  34.101   4.852  13.808
80312W        W48675  22.662  35.481  12.384
80313W        W48676  40.880  23.093  12.860
80314W        W48677   4.319  10.657  12.090
80315W        W48678   6.917  34.115  13.899
80316W        W48679   0.968   9.875  11.584
80317W        W48680   1.878   6.412  12.895
80318W        W48681  20.201  42.806   4.680
80319W        W48682   2.779  19.156   2.196
80320W        W48683   9.234  38.569  13.412
80321W        W48684   0.943   6.832  10.975
80322W        W48685  17.644  15.250   1.310
80323W        W48686  11.346  13.758   3.768
80324W        W48687  24.980  27.110  14.805
80325W        W48688  11.782  41.373  13.980
80326W        W48689  40.311  43.367  14.426
80327W        W48690  41.355  25.495   2.212
80328W        W48691  20.542   7.718   0.765
80329W        W48692  30.010  43.988  13.486
80330W        W48693  41.517  39.948   2.302
80331W        W48694   5.412  32.087  13.996
80332W        W48695  12.283  42.912   0.827
80333W        W48696  34.076  43.392   3.299
80334W        W48697  38.539  16.142   3.309
80335W        W48698  37.006  19.750   2.782
80336W        W48699   3.299  31.008  11.896
80337W        W48700   7.799  28.164   5.147
80338W        W48701  36.540   3.388   1.833
80339W        W48702  23.990  24.492   4.712
80340W        W48703  28.005  23.228   2.727
80341W        W48704  16.801  36.032  11.465
80342W        W48705  10.723   9.254   4.297
80343W        W48706  44.269  30.601   3.218
80344W        W48707  18.130  18.266  11.033
80345W        W48708  16.636   8.185  14.489
80346W        W48709  13.837  30.908  14.279
80347W        W48710   2.964  10.729   1.729
80348W        W48711  20.079  35.042  12.047
80349W        W48712  42.362  36.415   3.168
80350W        W48713  21.238  21.249   1.770
80351W        W48714  16.785  43.838   1.816
80352W        W48715  38.971  38.363   0.903
80353W        W48716  38.425  23.694  11.405
80354W        W48717   4.207  11.323  11.092
80355W        W48718   8.672  28.633  13.319
80356W        W48719  20.165  14.759   1.852
80357W        W48720  16.217  41.475   3.720
80358W        W48721  18.228  26.655  12.560
80359W        W48722   0.426  16.661   2.851
80360W        W48723   5.394  43.434   2.827
80361W        W48724  13.335  12.294   1.727
80362W        W48725   9.784  37.526   3.728
80363W        W48726  13.133  35.459  12.443
80364W        W48727   7.673   6.716   3.209
80365W        W48728  18.643  28.443  12.910
80366W        W48729  35.405  31.933   5.267
80367W        W48730  34.955   5.877   1.318
80368W        W48731  32.047  13.309  11.013
80369W        W48732  31.492  42.469   4.820
80370W        W48733  29.660  23.629   4.323
80371W        W48734  16.582  23.091   1.322
80372W        W48735   0.258  17.801   3.193
80373W        W48736  38.522   8.808  12.477
80374W        W48737  39.999  11.189  12.355
80375W        W48738  31.522   8.326  12.367
80376W        W48739   5.267   6.766   2.677
80377W        W48740  39.873  23.998  14.484
80378W        W48741  31.046  14.663   1.363
80379W        W48742   1.480  24.636   5.256
80380W        W48743   3.927  22.042   3.808
80381W        W48744   8.385  39.811  10.552
80382W        W48745  12.120  38.842  13.945
80383W        W48746  41.821   3.402   5.206
80384W        W48747  34.507  30.428  12.996
80385W        W48748  41.943   6.713  13.476
80386W        W48749   8.345   9.258  12.943
80387W        W48750  29.152  31.907  13.031
80388W        W48751  44.319   7.224   3.293
80389W        W48752   2.853  23.622   1.258
80390W        W48753  27.597   2.228   4.603
80391W        W48754  44.848  16.785   2.717
80392W        W48755   9.202  27.638   2.682
80393W        W48756   8.792  44.451   4.718
80394W        W48757  32.950  25.679  12.092
80395W        W48758   9.789  40.364  13.815
80396W        W48759  20.539  39.809   3.219
80397W        W48760  18.687  10.148  11.055
80398W        W48761  27.034  16.582   3.325
80399W        W48762  17.593  31.442   1.895
80400W        W48763  44.493  21.743   3.661
80401W        W48764   1.268  16.573   2.209
80402W        W48765  24.499  32.553   0.808
80403W        W48766  42.398  32.584  14.837
80404W        W48767   8.353  11.206  10.557
80405W        W48768  33.574  43.278  10.958
80406W        W48769   5.747  19.106   4.340
80407W        W48770   2.907  44.267  11.585
80408W        W48771  18.695  29.068   0.436
80409W        W48772  34.605  13.787   0.356
80410W        W48773  10.306  31.413  14.823
80411W        W48774   6.422  39.480  14.514
80412W        W48775  20.230  31.545   1.386
80413W        W48776  31.101   3.911   2.302
80414W        W48777   8.272  32.019  10.587
80415W        W48778  41.495   8.824   4.771
80416W        W48779   3.236   3.939   3.805
80417W        W48780  17.067  15.222   1.233
80418W        W48781  36.370  16.575   2.887
80419W        W48782  15.319   4.388   3.864
80420W        W48783  24.700   3.759  14.478
80421W        W48784   7.245  10.696   4.679
80422W        W48785  30.068  40.948   1.395
80423W        W48786   6.797  26.114   3.346
80424W        W48787   8.728  14.154   3.690
80425W        W48788  18.295   0.360   4.200
80426W        W48789  34.497  42.461  13.485
80427W        W48790  13.608  14.745  13.443
80428W        W48791   1.934  39.369  13.450
80429W        W48792   1.267  20.084   2.741
80430W        W48793  33.912  16.114   4.720
80431W        W48794   8.216  25.547  10.465
80432W        W48795  19.226  33.508  11.430
80433W        W48796   0.835  43.477   2.293
80434W        W48797  12.616  21.575   4.118
80435W        W48798  26.958  24.596  13.464
80436W        W48799  39.492   0.363   1.436
80437W        W48800  11.268  40.840   4.641
80438W        W48801   9.873   3.732  13.942
80439W        W48802  42.842   2.348  14.790
80440W        W48803  40.457  20.213   4.190
80441W        W48804   2.244  38.520   3.726
80442W        W48805  34.404  36.499   4.203
80443W        W48806  12.140  22.720  14.386
80444W        W48807   9.702   9.716   1.327
80445W        W48808  26.040  40.978  12.561
80446W        W48809   1.962  43.821   5.680
80447W        W48810   1.934  34.481   0.401
80448W        W48811  14.301  30.508  14.282
80449W        W48812  15.229  19.593   2.343
80450W        W48813  36.588  39.401   3.759
80451W        W48814  43.914  38.915   0.401
80452W        W48815  32.087  10.730   4.692
80453W        W48816   1.835   4.251  14.930
80454W        W48817  11.647  21.245  10.611
80455W        W48818  24.172  38.546   3.358
80456W        W48819   6.291  17.141   4.164
80457W        W48820   3.894  18.551   4.302
80458W        W48821   6.904  42.480  11.078
80459W        W48822  32.961  44.975   2.709
80460W        W48823  23.990  22.515   5.249
80461W        W48824  30.592  30.908   2.395
80462W        W48825  42.465  16.315   4.169
80463W        W48826  27.036  14.633  12.924
80464W        W48827  16.711  44.927   5.607
80465W        W48828  28.446   0.448  11.393
80466W        W48829  25.468  32.615   3.149
80467W        W48830  37.880  25.211   5.279
80468W        W48831  36.592  44.467  10.546
80469W        W48832  15.622  23.640  10.579
80470W        W48833  13.837  16.695   9.545
80471W        W48834  41.335  31.053   3.649
80472W        W48835  10.727  27.646   3.842
80473W        W48836  31.616  33.419   1.298
80474W        W48837  29.942  31.943   0.935
80475W        W48838  26.571  19.590  13.987
80476W        W48839   6.880  44.437   1.345
80477W        W48840  15.237  37.541   0.375
80478W        W48841  36.529  44.833  14.028
80479W        W48842   4.828   7.332   0.826
80480W        W48843  19.629  21.640   2.829
80481W        W48844  44.786   2.928   4.756
80482W        W48845  28.623  14.194  13.515
80483W        W48846  20.101  34.471  13.022
80484W        W48847   3.765  42.392   3.768
80485W        W48848  19.731  21.532   4.262
80486W        W48849  14.283  38.027   2.846
80487W        W48850   4.921  34.448  10.139
80488W        W48851  38.891  32.115  12.943
80489W        W48852  32.437  12.669   1.858
80490W        W48853   4.907  31.446  14.468
80491W        W48854  40.305  22.625  13.018
80492W        W48855  20.097  20.755  14.421
80493W        W48856  28.620  21.605   0.888
80494W        W48857  32.960  27.085  12.898
80495W        W48858  24.064  37.851   0.958
80496W        W48859  30.928  25.074  12.386
80497W        W48860  21.527  44.916   4.655
80498W        W48861  24.518  14.714   1.241
80499W        W48862  30.500  40.942  14.999
80500W        W48863  27.965  20.137   4.729
80501W        W48864   3.897  16.097   2.829
80502W        W48865  22.047   3.459   2.731
80503W        W48866  11.313  36.998  12.827
80504W        W48867  43.924  23.241  14.349
80505W        W48868   5.867  27.642   0.353
80506W        W48869  28.075  12.719  10.071
80507W        W48870  11.855   3.843   3.809
80508W        W48871  35.381  29.515  14.803
80509W        W48872  41.370  29.141   3.238
80510W        W48873  17.633  31.058  11.557
80511W        W48874  39.987  41.353  11.010
80512W        W48875  43.969  27.682   4.239
80513W        W48876   3.916  18.625   0.312
80514W        W48877  35.455  36.416  14.420
80515W        W48878   1.369   8.769  12.967
80516W        W48879  33.592  19.203   1.302
80517W        W48880  36.875  30.146   0.376
80518W        W48881  21.120  38.851   0.352
80519W        W48882  18.557  32.085   0.400
80520W        W48883  12.188  35.898  13.049
80521W        W48884  12.328  14.232  11.403
80522W        W48885   4.882  25.138   0.338
80523W        W48886  32.920  13.652  14.443
80524W        W48887  24.219  12.143  12.984
80525W        W48888  14.195  35.916  10.523
80526W        W48889   0.824  35.440   2.369
80527W        W48890   0.776  19.538  14.777
80528W        W48891  21.196   7.869   0.248
80529W        W48892   6.312  18.580   4.757
80530W        W48893  44.301  37.001  11.047
80531W        W48894   8.375  41.346   1.273
80532W        W48895  26.466   7.900  10.976
80533W        W48896   7.681  42.434   1.379
80534W        W48897  12.673  12.307  14.420
80535W        W48898   9.838   2.312   0.897
80536W        W48899  31.947  34.074   3.254
80537W        W48900   0.441  41.852  11.455
80538W        W48901  41.886  10.794  14.403
80539W        W48902   3.350  42.525  10.994
80540W        W48903  14.273  44.003  11.001
80541W        W48904   2.441  24.484  11.565
80542W        W48905  35.963  29.105   4.145
80543W        W48906  29.580  38.973  10.610
80544W        W48907  42.843   4.333   0.941
80545W        W48908  40.845  39.058  14.017
80546W        W48909  35.864  28.172   3.386
80547W        W48910  12.120  26.677  10.141
80548W        W48911  22.221   0.443  14.838
80549W        W48912  20.075  34.458  11.946
80550W        W48913  30.044  38.855  12.022
80551W        W48914  32.554  31.024  10.543
80552W        W48915   7.369  37.082  13.937
80553W        W48916   5.394  18.743   0.480
80554W        W48917  23.599  10.265  12.989
80555W        W48918   7.795  22.607  14.303
80556W        W48919   2.257  39.969  13.398
80557W        W48920   4.323  44.345  12.020
80558W        W48921  15.284  15.284  12.845
80559W        W48922  27.944  43.352   0.478
80560W        W48923  17.772  24.061   0.294
80561W        W48924   9.716  22.689   1.784
80562W        W48925   0.749   5.400  13.336
80563W        W48926  31.929  15.661   0.432
80564W        W48927  37.979   6.377   0.352
80565W        W48928  33.617  13.709  13.470
80566W        W48929  12.150  43.785   2.831
80567W        W48930  20.529   5.345   2.384
80568W        W48931  29.086  20.528  14.812
80569W        W48932  39.387  42.972  13.000
80570W        W48933   5.267  29.940   4.785
80571W        W48934   3.727  17.077   2.330
80572W        W48935   4.810  32.584   2.256
80573W        W48936  33.537   2.769  14.774
80574W        W48937  20.559  42.411  14.373
80575W        W48938  34.446  39.555  14.418
80576W        W48939  26.642   9.714  12.838
80577W        W48940  32.047  29.026   5.099
80578W        W48941  12.162  29.924   2.270
80579W        W48942   1.893  41.819  13.023
80580W        W48943  23.187   0.917   4.218
80581W        W48944  40.435   1.346  11.037
80582W        W48945  44.784  42.826   1.826
80583W        W48946  23.607  33.510   3.686
80584W        W48947  11.862   4.244  12.435
80585W        W48948   9.338  35.983  10.583
80586W        W48949   9.888  12.144  12.453
80587W        W48950  20.731  11.344   0.881
80588W        W48951  36.572  32.051   3.677
80589W        W48952  13.628  26.067  12.950
80590W        W48953  17.219  41.914  11.436
80591W        W48954  24.983  21.676   2.216
80592W        W48955   8.831   6.762   3.258
80593W        W48956   3.742   3.880   0.449
80594W        W48957   7.395   6.915   0.370
80595W        W48958  13.183  36.854   0.877
80596W        W48959   2.760  18.731   2.889
80597W        W48960  34.382   6.412   4.668
80598W        W48961  28.565   1.263  12.947
80599W        W48962   9.757   4.340  10.913
80600W        W48963  34.092   3.814  10.426
80601W        W48964  32.442  34.602   2.748
80602W        W48965  25.041  22.225   1.852
80603W        W48966  33.438  28.000   0.807
80604W        W48967  13.767  38.920  13.028
80605W        W48968  44.269  29.659   4.767
80606W        W48969   1.875  12.145   1.428
80607W        W48970   2.936  35.086  14.937
80608W        W48971  12.297   6.777   3.307
80609W        W48972   7.328  33.876   2.338
80610W        W48973  42.441  35.559   1.296
80611W        W48974  30.083  28.497   0.765
80612W        W48975  37.982   5.358   1.914
80613W        W48976  23.194  37.858   2.334
80614W        W48977  32.511   5.759   4.685
80615W        W48978   5.833  13.639  11.486
80616W        W48979  44.983  31.520  11.016
80617W        W48980   3.315  15.220   3.222
80618W        W48981   3.812  28.584  11.876
80619W        W48982  34.953  34.472   3.673
80620W        W48983  23.017  17.753   2.760
80621W        W48984  38.356  26.185  11.550
80622W        W48985  33.990  43.010  12.070
80623W        W48986   0.779   3.837   2.667
80624W        W48987  38.382  43.864  14.464
80625W        W48988  36.449  30.476  13.920
80626W        W48989   9.190  21.203   1.921
80627W        W48990  38.826  29.492   1.375
80628W        W48991  22.657  40.339   2.360
80629W        W48992  25.688  35.964   0.381
80630W        W48993  14.637  30.577  13.052
80631W        W48994  39.438  25.165   4.156
80632W        W48995  35.886   7.824   1.768
80633W        W48996  43.346  13.324   0.855
80634W        W48997  18.637   8.874  13.020
80635W        W48998  18.755  11.241  13.967
80636W        W48999  19.758  13.731  13.542
80637W        W49000  10.269  36.056   0.905
80638W        W49001  26.474  31.412  11.404
80639W        W49002  19.745  31.099  12.921
80640W        W49003   0.288  10.187   1.407
80641W        W49004  19.600  14.810  13.979
80642W        W49005  12.128  21.673  13.892
80643W        W49006   9.780  34.396  14.806
80644W        W49007   1.847  41.020  10.916
80645W        W49008  22.681  38.853   1.362
80646W        W49009  16.072  18.603   4.625
80647W        W49010  43.961  20.531   0.801
80648W        W49011   1.959   8.686   4.302
80649W        W49012  21.167  36.554  10.477
80650W        W49013  20.744  42.311   3.720
80651W        W49014   8.657  42.963   1.335
80652W        W49015   6.866  37.392  11.465
80653W        W49016  31.069  24.209   4.744
80654W        W49017   3.951  25.642  14.431
80655W        W49018  34.382  33.920   3.818
80656W        W49019   7.264  15.291  14.331
80657W        W49020  16.183  20.271  12.087
80658W        W49021  10.180  43.795  13.058
80659W        W49022   7.813   8.655  11.026
80660W        W49023  13.176  10.331  10.445
80661W        W49024   9.180  24.082   1.404
80662W        W49025  18.098  23.990  12.922
80663W        W49026  21.233  19.278   1.249
80664W        W49027  43.891  18.597   1.749
80665W        W49028   3.414  39.355  10.983
80666W        W49029  37.366  20.539  11.069
80667W        W49030   3.746  19.072  13.328
80668W        W49031  32.519  36.563  14.458
80669W        W49032   7.744  17.241  11.587
80670W        W49033  30.156  43.007   1.275
80671W        W49034   1.267  44.474   0.934
80672W        W49035  27.565  23.504   0.328
80673W        W49036  37.563  24.209  11.099
80674W        W49037  43.453  38.916   4.138
80675W        W49038  39.984  24.651   2.808
80676W        W49039  44.827  32.442   3.758
80677W        W49040  12.352   0.474   0.968
80678W        W49041  37.515   7.352  10.549
80679W        W49042  15.685  41.372  10.419
80680W        W49043   6.257  17.295   1.413
80681W        W49044  11.809  23.048   4.303
80682W        W49045  32.124   2.331  12.868
80683W        W49046  41.870  32.141  12.528
80684W        W49047  36.951  28.168   1.223
80685W        W49048  28.130  32.080  11.900
80686W        W49049  31.009  29.957   9.615
80687W        W49050  31.532   5.299   0.331
80688W        W49051  38.868   4.434  13.970
80689W        W49052  12.773  25.149  14.796
80690W        W49053  44.436  22.591   2.283
80691W        W49054  29.647  31.070  10.560
80692W        W49055  27.118  22.567   4.809
80693W        W49056   8.240  39.327  13.828
80694W        W49057  19.063  13.680  10.632
80695W        W49058  42.339  25.638  14.433
80696W        W49059  26.110  32.546   1.302
80697W        W49060  41.983  39.811   0.837
80698W        W49061  27.175  21.543   3.374
80699W        W49062  43.346  15.256   4.639
80700W        W49063  38.999  43.359   0.729
80701W        W49064  41.873  11.284   3.633
80702W        W49065   2.347  20.240   0.780
80703W        W49066  42.891  44.982  11.009
80704W        W49067  34.077  44.853   3.768
80705W        W49068  10.841   8.402   2.369
80706W        W49069  42.325  44.862  11.003
80707W        W49070  11.867   7.241  14.426
80708W        W49071  41.916  39.815  11.534
80709W        W49072   2.786  30.047  14.942
80710W        W49073  39.933   4.944  14.459
80711W        W49074  20.727  12.810   0.476
80712W        W49075  10.374  10.233   4.736
80713W        W49076  12.310  42.844  10.902
80714W        W49077   2.447   3.784  14.460
80715W        W49078  24.141   4.298   4.661
80716W        W49079  22.726  23.520  10.533
80717W        W49080  25.699  30.510  12.886
80718W        W49081   7.330  18.621   4.681
80719W        W49082   2.767  12.243  13.007
80720W        W49083  31.589   1.956   9.608
80721W        W49084  39.539  12.715   5.668
80722W        W49085  11.673   3.344   0.250
80723W        W49086   8.794  11.642   4.801
80724W        W49087  26.961   9.326   3.341
80725W        W49088   7.699  26.958   2.258
80726W        W49089  32.497   1.307  11.969
80727W        W49090  38.498  32.555   0.836
80728W        W49091   4.918  30.022   3.287
80729W        W49092  31.536  26.960   1.321
80730W        W49093  34.562   2.459  10.497
80731W        W49094  43.415  37.490  10.611
80732W        W49095  16.758   4.346  11.974
80733W        W49096  14.749   6.304   1.699
80734W        W49097  21.252  36.588   0.885
80735W        W49098  26.970  36.052   3.809
80736W        W49099  11.234  38.517   0.373
80737W        W49100   2.802   0.762   2.727
80738W        W49101  40.916  11.242   4.339
80739W        W49102  12.249  19.155   2.899
80740W        W49103  24.620  41.025  13.979
80741W        W49104  10.353   5.841   4.350
80742W        W49105   6.200  31.465  14.988
80743W        W49106   5.330  36.000  11.388
80744W        W49107   7.333  25.668   2.831
80745W        W49108  43.314   5.718   4.766
80746W        W49109  38.475  34.561   4.300
80747W        W49110   2.886  12.621   2.258
80748W        W49111  19.758  11.851   3.758
80749W        W49112  26.493  24.028  14.504
80750W        W49113  24.201  15.222   0.898
80751W        W49114  38.555  32.036  13.961
80752W        W49115   8.336  31.941   4.154
80753W        W49116  27.613  35.992  11.002
80754W        W49117   1.431   8.304  11.860
80755W        W49118  19.229  21.696   3.771
80756W        W49119  37.512  34.552  14.415
80757W        W49120  18.658   4.779   5.242
80758W        W49121   3.933  10.242  11.067
80759W        W49122  20.195   1.807  12.052
80760W        W49123  39.488  11.777  10.492
80761W        W49124   7.236  12.184  14.455
80762W        W49125   6.319  15.582  13.985
80763W        W49126  29.932  17.671   2.721
80764W        W49127  36.542  25.149   5.274
80765W        W49128   8.796  38.017  14.335
80766W        W49129  23.549   2.407   1.239
80767W        W49130   3.338  41.955  12.400
80768W        W49131  44.438  19.248   1.445
80769W        W49132  21.671  30.434  14.347
80770W        W49133  27.500  39.917   4.136
80771W        W49134  11.866   4.226   4.709
80772W        W49135  37.009  11.840  14.403
80773W        W49136  35.094  16.169   2.829
80774W        W49137  43.493  27.502  14.844
80775W        W49138  19.053  42.922   5.698
80776W        W49139  29.131  32.105  13.460
80777W        W49140  24.079   1.323  12.467
80778W        W49141  18.706  28.169  14.006
80779W        W49142  12.653  42.823  10.538
80780W        W49143  38.967  38.414  11.909
80781W        W49144  18.704  12.621   3.309
80782W        W49145  40.316   9.342  11.382
80783W        W49146   3.788  32.405   2.816
80784W        W49147   3.812  19.728  10.558
80785W        W49148  29.120   3.903  12.897
80786W        W49149  37.925  37.377   1.695
80787W        W49150  17.683  11.312   4.215
80788W        W49151  31.030  43.898   4.633
80789W        W49152  21.536  32.431   1.415
80790W        W49153  19.681  42.009   4.638
80791W        W49154  43.833  37.882   1.296
80792W        W49155  18.653  10.260   1.738
80793W        W49156  43.804  34.566  11.412
80794W        W49157   8.266  16.764  10.637
80795W        W49158   9.223  35.430   0.792
80796W        W49159  14.276  32.928  14.338
80797W        W49160  18.294  12.678   3.661
80798W        W49161  23.035  35.852  11.959
80799W        W49162  34.864  10.751   2.379
80800W        W49163   7.296  37.877  13.528
80801W        W49164  33.505  31.131   1.759
80802W        W49165  41.799  30.636  13.904
80803W        W49166  35.539  38.981  14.850
80804W        W49167  17.106  25.156  14.781
80805W        W49168  43.933   9.185  10.636
80806W        W49169  39.490  39.412  13.506
80807W        W49170  19.684  24.130  14.946
80808W        W49171   2.467  39.963  11.584
80809W        W49172  40.831  27.600  10.434
80810W        W49173  34.955  30.657   3.846
80811W        W49174  40.970   0.935   2.788
80812W        W49175  39.398  19.655   3.832
80813W        W49176  19.186  38.525  10.476
80814W        W49177  14.750  17.781  14.868
80815W        W49178  28.517  33.553  12.547
80816W        W49179  39.313  14.659   4.298
80817W        W49180   6.710  19.048   0.394
80818W        W49181  19.210   5.375  13.001
80819W        W49182  22.538  15.768   2.848
80820W        W49183  20.085  27.990   1.357
80821W        W49184  27.510  32.973  13.469
80822W        W49185  16.261  14.273  13.030
80823W        W49186  30.970  11.829  13.451
80824W        W49187  11.291  11.163  14.309
80825W        W49188  28.991  19.721   3.704
80826W        W49189  43.424  35.869  11.004
80827W        W49190  39.857  38.956  13.002
80828W        W49191  19.116  18.278   0.783
80829W        W49192  16.689   5.748   4.710
80830W        W49193  20.237  26.962  10.967
80831W        W49194  36.484  20.259  13.052
80832W        W49195   9.665  23.136   1.718
80833W        W49196   5.436   7.235   4.736
80834W        W49197  43.304  12.712  10.413
80835W        W49198  30.503   3.942   4.655
80836W        W49199  23.101   6.789   0.447
80837W        W49200  18.251   4.716   3.329
80838W        W49201  12.813  35.434   4.316
80839W        W49202   8.374  33.062   3.341
80840W        W49203   8.749  19.667   2.299
80841W        W49204   1.250  43.773  13.424
80842W        W49205  23.686  12.824  11.393
80843W        W49206  25.966  10.819   1.440
80844W        W49207   9.823  31.916   4.655
80845W        W49208   9.785   2.418   3.208
80846W        W49209  38.879   7.679  10.546
80847W        W49210   7.898  19.766  11.456
80848W        W49211   0.420   1.936   2.340
80849W        W49212   5.194  31.509   0.928
80850W        W49213  16.733   3.870   1.253
80851W        W49214  36.473  14.125  10.927
80852W        W49215  35.502  23.565   2.817
80853W        W49216  29.460   5.209  12.509
80854W        W49217  25.195  17.287  14.452
80855W        W49218  22.087  42.313   2.224
80856W        W49219   7.689  13.231  13.316
80857W        W49220  39.964  22.599  13.897
80858W        W49221   2.439   9.646   0.343
80859W        W49222  36.396   2.388  11.917
80860W        W49223   4.878  26.969  12.916
80861W        W49224   7.306  14.186  10.583
80862W        W49225   3.814  41.928  10.994
80863W        W49226  18.062  11.658   0.437
80864W        W49227   4.305  35.930  14.419
80865W        W49228  23.161  25.681  13.393
80866W        W49229   9.727  41.373   1.876
80867W        W49230   1.927  22.209  14.430
80868W        W49231  21.674  14.128  13.327
80869W        W49232  29.946  24.678   2.725
80870W        W49233   1.323  44.887  11.407
80871W        W49234  25.620  14.772  14.428
80872W        W49235  29.060  31.642   2.787
80873W        W49236   2.921   0.873  11.062
80874W        W49237  28.468   6.862   1.236
80875W        W49238  16.269  19.162   3.673
80876W        W49239  18.546  19.241  11.088
80877W        W49240  41.939   1.963   0.330
80878W        W49241  23.557  22.029  12.864
80879W        W49242  31.908   2.278  10.585
80880W        W49243  39.544  38.844  11.595
80881W        W49244   8.725  12.147   0.782
80882W        W49245  14.794  29.482  10.530
80883W        W49246   2.761  10.198   0.822
80884W        W49247   4.390   1.378   0.331
80885W        W49248  30.623  44.267  11.514
80886W        W49249   8.171   5.252   1.343
80887W        W49250  33.527   2.251  13.901
80888W        W49251  15.296  29.498  11.392
80889W        W49252   8.798   9.738   0.251
80890W        W49253  35.486   9.732   2.405
80891W        W49254  43.011  20.241  14.009
80892W        W49255  31.551   1.466  14.828
80893W        W49256  34.895  10.727   4.642
80894W        W49257  11.641  33.442   1.798
80895W        W49258   8.311  27.661  11.089
80896W        W49259  34.567   4.296   2.280
80897W        W49260  33.016  44.416   5.252
80898W        W49261   9.311  12.674   0.339
80899W        W49262  31.094  21.690  11.883
80900W        W49263   9.161  39.456  13.333
80901W        W49264   7.745   0.449   2.280
80902W        W49265  29.007  40.320   3.685
80903W        W49266  25.608  20.675  12.414
80904W        W49267  13.247  37.578   4.250
80905W        W49268  29.454  22.665   5.160
80906W        W49269  25.477  10.348   3.257
80907W        W49270  44.371  20.693   0.470
80908W        W49271   4.733  39.964   4.689
80909W        W49272  39.377  37.394  12.366
80910W        W49273   2.306  29.456  11.112
80911W        W49274   1.834   2.881  11.106
80912W        W49275  12.126  10.755   2.361
80913W        W49276  33.023  22.663  12.964
80914W        W49277  36.878   4.891  11.520
80915W        W49278  17.250   2.444   4.168
80916W        W49279  33.044  29.115   4.273
80917W        W49280  42.302   9.265   4.224
80918W        W49281  25.561  25.591   1.728
80919W        W49282  19.697  38.821  12.522
80920W        W49283  17.595  40.528   2.885
80921W        W49284  44.304  30.654   9.964
80922W        W49285  20.667  18.196  12.419
80923W        W49286  31.595  40.344  13.997
80924W        W49287  16.765   8.863   0.336
80925W        W49288  28.033  22.649   3.209
80926W        W49289  11.743  37.418   2.901
80927W        W49290   2.791  14.731  14.938
80928W        W49291  40.306  24.205   4.130
80929W        W49292  14.657  19.058  14.363
80930W        W49293   6.890  17.565   1.299
80931W        W49294  41.514   2.458   0.256
80932W        W49295  27.071  27.009   1.421
80933W        W49296  12.348  41.966  13.503
80934W        W49297  32.549  34.947  11.016
80935W        W49298  44.390  21.203   2.245
80936W        W49299  26.998  12.343   3.250
80937W        W49300  11.201  15.819  14.402
80938W        W49301  40.984  38.023  11.610
80939W        W49302  32.981  33.020   2.184
80940W        W49303  37.082  24.098   2.838
80941W        W49304  28.130  21.612  14.910
80942W        W49305  13.351  34.377   4.768
80943W        W49306  43.432  35.602   9.635
80944W        W49307   7.308  23.226   1.272
80945W        W49308  40.341  39.395  14.805
80946W        W49309  40.967   0.379   2.708
80947W        W49310  17.140  19.225  11.870
80948W        W49311  26.463   4.753  12.973
80949W        W49312   9.887  43.824  13.831
80950W        W49313   8.291  30.423  13.840
80951W        W49314  21.571  18.745   0.267
80952W        W49315  40.382  37.368   3.729
80953W        W49316  13.251  41.890  12.026
80954W        W49317  41.795  26.552  13.412
80955W        W49318  36.924   0.744   1.875
80956W        W49319  28.514  34.533   3.700
80957W        W49320   4.930  16.114   0.759
80958W        W49321  26.463  24.669  13.521
80959W        W49322  30.499  28.989  14.361
80960W        W49323  16.701   2.835  12.992
80961W        W49324  19.056  35.430   0.964
80962W        W49325  42.408  44.810  14.784
80963W        W49326  28.658  29.126  10.562
80964W        W49327   5.755   8.181  14.373
80965W        W49328  24.701  36.567  14.275
80966W        W49329  36.495  32.046   2.248
80967W        W49330  16.123  17.590  14.457
80968W        W49331   8.191  39.891   2.893
80969W        W49332  12.210   3.861   1.428
80970W        W49333   8.252  29.569  13.389
80971W        W49334  31.519  22.218   2.755
80972W        W49335  41.326   1.392  13.348
80973W        W49336  18.231  21.724   3.714
80974W        W49337   1.300   1.899  10.991
80975W        W49338  11.248   6.713   0.449
80976W        W49339   9.149   9.860   4.131
80977W        W49340  17.604  16.180   3.698
80978W        W49341  27.648  36.006   4.328
80979W        W49342  16.197   0.376  12.906
80980W        W49343  36.499  39.978  14.313
80981W        W49344  29.557  43.429   0.885
80982W        W49345   8.663  23.027   0.399
80983W        W49346  19.153  27.587   4.253
80984W        W49347  18.266  34.092  13.544
80985W        W49348  25.116   4.882  11.383
80986W        W49349   9.314  42.490   0.740
80987W        W49350  33.091  19.596  12.412
80988W        W49351  34.993  22.152   0.471
80989W        W49352  12.118  23.576  10.600
80990W        W49353  41.309  19.267   3.352
80991W        W49354  22.732   0.389  12.423
80992W        W49355  18.640  19.052   2.748
80993W        W49356   2.901  42.353   1.839
80994W        W49357  17.749  24.640   0.385
80995W        W49358  16.116  41.839  12.449
80996W        W49359  27.588  25.621   3.278
80997W        W49360  27.606   5.875  13.807
80998W        W49361  43.939   8.338   1.852
80999W        W49362  15.168   9.372   0.866
81000W        W49363  34.605  14.314  14.348
81001W        W49364  29.637  29.936  11.915
81002W        W49365  41.395  30.562   2.691
81003W        W49366  44.942  36.579  13.349
81004W        W49367   0.925  38.012   3.210
81005W        W49368  10.250   7.885   2.663
81006W        W49369  38.971  31.902  13.998
81007W        W49370  32.509   4.205  14.792
81008W        W49371  32.601   1.810   0.323
81009W        W49372  25.155  16.805   1.446
81010W        W49373  12.344  33.974  10.998
81011W        W49374  30.590   4.352   2.374
81012W        W49375  33.053  21.216  13.816
81013W        W49376  31.558  21.031   3.257
81014W        W49377  24.109   6.920   2.830
81015W        W49378  14.605   3.754  10.069
81016W        W49379  43.951  29.940  12.528
81017W        W49380  40.862  15.322   4.837
81018W        W49381   0.851  40.427   4.250
81019W        W49382  18.123  12.687  10.911
81020W        W49383  33.510  16.748  13.496
81021W        W49384  43.331  34.502  14.463
81022W        W49385   5.698  18.791  13.021
81023W        W49386   0.905  14.260   4.183
81024W        W49387  22.066   7.766   0.246
81025W        W49388  37.453  28.524  13.419
81026W        W49389   0.486  32.984  12.362
81027W        W49390  34.048   9.173  13.845
81028W        W49391  24.653  16.782  11.103
81029W        W49392   7.761  40.939  10.580
81030W        W49393  16.098  43.419   1.790
81031W        W49394   5.319   7.666   1.934
81032W        W49395  31.538  21.175  14.935
81033W        W49396  22.625  27.493  14.392
81034W        W49397  34.549  22.119  10.979
81035W        W49398  20.726  21.744  11.445
81036W        W49399  35.567  25.686   4.285
81037W        W49400  34.905  44.898   3.164
81038W        W49401  36.987  20.267   0.740
81039W        W49402   8.822  36.044  14.783
81040W        W49403  28.662   8.778  10.442
81041W        W49404  17.217  15.143   2.254
81042W        W49405   4.319  26.146  13.990
81043W        W49406  33.383  18.751   5.270
81044W        W49407  15.609   2.965   0.939
81045W        W49408  24.020  27.562   4.248
81046W        W49409  22.730  40.375   4.180
81047W        W49410  34.056  35.961   1.714
81048W        W49411  14.655  14.273   0.757
81049W        W49412  28.104  30.576   3.293
81050W        W49413  28.642  32.951  12.471
81051W        W49414   4.801  26.579   0.279
81052W        W49415  18.760  12.784   0.268
81053W        W49416  25.078   2.398  13.034
81054W        W49417  35.042  20.710   4.614
81055W        W49418   2.871  11.679  11.895
81056W        W49419  33.046  44.483  10.535
81057W        W49420  35.463   5.798  12.919
81058W        W49421   4.704  19.179   0.323
81059W        W49422   9.178   1.972   5.242
81060W        W49423  27.088  39.830   0.440
81061W        W49424   3.277  10.817   2.339
81062W        W49425  30.560  29.096  10.944
81063W        W49426  30.078  12.677   2.664
81064W        W49427  11.837  37.381   3.813
81065W        W49428  42.003  37.024   0.439
81066W        W49429   6.802  43.903   0.830
81067W        W49430  25.033   5.855   0.959
81068W        W49431  25.614  19.743  11.989
81069W        W49432  20.604   9.361  14.772
81070W        W49433  26.510  29.561  13.794
81071W        W49434  29.449   5.401   2.781
81072W        W49435  42.895  28.134  12.547
81073W        W49436  43.991   8.691   0.884
81074W        W49437  21.756   5.233  11.405
81075W        W49438  37.051  13.844   9.503
81076W        W49439  13.827   0.806   2.738
81077W        W49440  39.530  31.455   1.764
81078W        W49441  33.047  31.030  14.015
81079W        W49442  28.069  30.128  12.367
81080W        W49443  17.782  14.120  14.959
81081W        W49444   4.402   3.764   0.809
81082W        W49445  31.136  33.957  13.001
81083W        W49446  27.961  16.149   0.902
81084W        W49447  34.380  30.962   3.210
81085W        W49448  20.045  11.737  13.536
81086W        W49449   5.412  17.760   4.755
81087W        W49450   9.834   6.762  10.928
81088W        W49451  35.570  10.636   3.841
81089W        W49452  11.752  15.287   1.388
81090W        W49453  21.525   4.853   1.881
81091W        W49454  25.540  32.110  12.091
81092W        W49455   9.781  13.826   1.296
81093W        W49456  36.420  11.339  12.060
81094W        W49457  11.171  28.612  10.974
81095W        W49458  31.554  34.107  14.761
81096W        W49459  11.751   4.764  13.348
81097W        W49460  13.213   8.184  11.896
81098W        W49461  23.670   6.843   0.387
81099W        W49462  18.756  44.843   2.218
81100W        W49463   4.876  32.549  10.999
81101W        W49464   6.878  35.425   3.751
81102W        W49465  36.894   4.310  12.972
81103W        W49466  30.014  34.900   0.773
81104W        W49467   0.940  14.716   1.360
81105W        W49468   8.858  32.080   0.935
81106W        W49469  24.624  42.028   3.666
81107W        W49470  24.142  25.004   1.867
81108W        W49471   8.228  36.956   2.816
81109W        W49472   0.816  18.684   3.236
81110W        W49473  36.521  18.791   2.381
81111W        W49474  19.176  43.986   5.227
81112W        W49475   1.358  41.468   3.712
81113W        W49476  32.414  40.466  13.948
81114W        W49477  16.660  20.041   3.260
81115W        W49478  33.888  28.980   2.338
81116W        W49479   4.218  31.647  12.071
81117W        W49480  39.535   8.274   0.906
81118W        W49481  24.695  44.420   3.726
81119W        W49482   3.724  20.550  14.499
81120W        W49483  23.136  33.121  11.860
81121W        W49484  40.006  40.825   3.221
81122W        W49485   7.837  13.804   3.275
81123W        W49486   9.744  29.529  14.360
81124W        W49487  20.273  17.800  13.813
81125W        W49488  34.545  26.681  13.845
81126W        W49489  29.173  29.432   2.187
81127W        W49490   9.667  11.158  11.480
81128W        W49491  25.707  24.043   3.372
81129W        W49492  39.418  17.070   0.331
81130W        W49493   6.403  12.775   4.196
81131W        W49494  25.630  17.070  11.967
81132W        W49495  30.908   1.912  14.772
81133W        W49496   7.790   4.843  10.494
81134W        W49497   5.301  16.089   3.344
81135W        W49498  15.804  18.147  12.432
81136W        W49499  38.571  38.450   3.247
81137W        W49500  10.705   0.986  10.611
81138W        W49501  35.600  11.804   0.870
81139W        W49502  36.855  28.941   2.719
81140W        W49503  29.102  37.508   1.915
81141W        W49504  35.361   3.842   2.738
81142W        W49505   8.378   7.767  11.919
81143W        W49506  32.430  37.389  12.838
81144W        W49507   7.803  41.493   4.344
81145W        W49508  40.938  26.143  13.956
81146W        W49509  23.156   9.388   2.743
81147W        W49510   4.795  16.140  13.999
81148W        W49511  20.247   2.301   1.723
81149W        W49512  19.093  12.137   3.699
81150W        W49513  23.984  16.740  13.343
81151W        W49514  22.019  13.657  11.496
81152W        W49515   1.352   5.830  12.095
81153W        W49516  21.182  40.449  14.923
81154W        W49517  13.791  33.387  12.016
81155W        W49518  11.653  24.654   4.126
81156W        W49519  35.065  22.086   3.182
81157W        W49520  38.557   9.753  12.864
81158W        W49521  16.233  31.962  12.067
81159W        W49522   3.420   1.459  12.554
81160W        W49523  22.540   5.396   2.278
81161W        W49524  27.632  23.568   3.157
81162W        W49525  33.530  14.232   0.411
81163W        W49526  39.061  14.216   3.259
81164W        W49527  43.862  39.509  12.539
81165W        W49528   4.891  39.449   1.782
81166W        W49529  29.020   6.796  12.517
81167W        W49530  26.970  41.973   0.251
81168W        W49531  40.339   7.767   5.118
81169W        W49532   9.222  20.688   0.301
81170W        W49533   6.810  16.293  11.124
81171W        W49534  16.587  37.992   4.741
81172W        W49535  27.145   0.765  10.893
81173W        W49536  27.992  28.473   2.249
81174W        W49537  21.640  21.620   2.377
81175W        W49538  15.689  35.865  11.124
81176W        W49539  33.581   1.827  11.513
81177W        W49540  12.346  22.578  10.902
81178W        W49541   4.831   5.866  13.462
81179W        W49542  42.933  38.047  13.351
81180W        W49543  19.707  35.886  11.408
81181W        W49544   1.822  41.515   3.375
81182W        W49545   2.958  22.604  13.932
81183W        W49546   9.652  39.965  12.081
81184W        W49547  23.015  23.151  14.459
81185W        W49548  10.804  18.166  11.118
81186W        W49549   9.382  29.557  13.501
81187W        W49550   3.943  25.059   1.417
81188W        W49551  35.955  39.357  12.409
81189W        W49552  25.566  30.059   1.389
81190W        W49553  23.624  41.307   1.814
81191W        W49554   3.900  10.803  10.626
81192W        W49555  41.961  20.093   4.169
81193W        W49556  17.629  26.469  10.909
81194W        W49557  31.064  29.005   0.893
81195W        W49558  19.671  42.340   0.928
81196W        W49559  24.182  36.894  11.409
81197W        W49560   0.487  10.864  10.616
81198W        W49561  11.308  26.477  11.898
81199W        W49562  42.391   3.405   4.619
81200W        W49563  13.628  22.544   2.713
81201W        W49564  37.982   6.852   1.820
81202W        W49565  17.224  29.555  12.051
81203W        W49566   8.235  44.439  10.568
81204W        W49567  28.041  17.786   3.745
81205W        W49568  34.582  44.919   9.931
81206W        W49569   9.283   9.779   1.307
81207W        W49570  41.401   2.880  10.979
81208W        W49571  25.072   3.324  11.042
81209W        W49572  42.411   7.802  12.531
81210W        W49573  17.758  42.442   0.875
81211W        W49574  32.079  39.497   3.788
81212W        W49575   1.753   7.784   0.337
81213W        W49576  32.041  43.495   2.284
81214W        W49577   1.299  31.896  13.915
81215W        W49578  24.188   7.843  11.568
81216W        W49579  32.525   9.356   4.835
81217W        W49580   6.340  14.242  13.320
81218W        W49581  20.529  15.627   3.778
81219W        W49582   7.711  17.634  11.862
81220W        W49583  39.016   4.415   4.636
81221W        W49584  17.729  38.015  13.528
81222W        W49585   7.845  41.406  10.070
81223W        W49586  36.406  12.691   5.185
81224W        W49587   9.822  39.840   2.404
81225W        W49588  15.598  12.189   2.346
81226W        W49589  21.579  18.099   0.465
81227W        W49590  16.809  32.967  12.447
81228W        W49591  13.211  17.777   3.843
81229W        W49592   8.381   8.218  14.349
81230W        W49593  15.642  30.027  14.926
81231W        W49594  10.651  14.329   0.766
81232W        W49595   2.941  35.593   3.756
81233W        W49596   5.724  13.604   0.421
81234W        W49597  41.403  30.444  13.937
81235W        W49598  40.416   1.470   4.600
81236W        W49599  16.721   1.321   2.327
81237W        W49600  15.740   1.847  14.876
81238W        W49601  16.253  21.155  12.487
81239W        W49602  31.540  35.562  12.578
81240W        W49603  30.161  30.590   2.357
81241W        W49604   5.231   9.851   4.793
81242W        W49605  13.188   2.885   4.131
81243W        W49606   4.206   8.820   5.081
81244W        W49607  39.817  21.613   1.324
81245W        W49608  31.635  31.488   3.371
81246W        W49609   1.456  19.651   2.345
81247W        W49610  12.155  27.121  12.063
81248W        W49611  33.030  24.622  13.374
81249W        W49612  28.659  33.967  14.933
81250W        W49613  44.959  36.481  14.924
81251W        W49614  15.688  19.732  14.865
81252W        W49615  38.551   0.451   3.269
81253W        W49616  21.512  11.694   4.227
81254W        W49617  29.019   2.817  11.383
81255W        W49618  10.758  11.849   4.837
81256W        W49619  16.226  42.523   2.669
81257W        W49620  10.359  27.547  13.479
81258W        W49621  22.631  28.640  11.587
81259W        W49622  39.399  24.978   4.677
81260W        W49623  35.431   2.756   3.371
81261W        W49624  35.869   5.338   1.402
81262W        W49625  28.082   1.741   3.865
81263W        W49626  43.997  36.063  13.490
81264W        W49627  26.624  18.742  14.441
81265W        W49628   0.370  38.387   2.747
81266W        W49629   8.349  16.657   1.860
81267W        W49630  41.917   2.450   3.781
81268W        W49631  11.814  41.891  10.954
81269W        W49632  11.347  21.143  11.419
81270W        W49633  32.054  24.600   2.304
81271W        W49634   8.402  18.608   4.155
81272W        W49635  14.710  40.832  11.586
81273W        W49636  40.966  26.469   1.828
81274W        W49637  19.045   9.339   3.750
81275W        W49638  18.213   7.326  13.820
81276W        W49639  18.611  21.662   4.346
81277W        W49640  24.604  28.027   3.730
81278W        W49641  38.029  20.543  10.927
81279W        W49642  32.550  39.008   1.759
81280W        W49643  37.982  23.110  10.924
81281W        W49644  11.822  31.926   4.186
81282W        W49645   0.357  10.846  14.876
81283W        W49646   7.197  39.853  12.027
81284W        W49647  23.711  30.926   0.284
81285W        W49648  14.657  28.962  11.972
81286W        W49649  15.273   2.421   1.338
81287W        W49650  15.822  32.593  14.332
81288W        W49651  29.078  35.525   2.682
81289W        W49652  16.310  33.073   4.282
81290W        W49653   7.834  14.710   1.304
81291W        W49654   4.210  29.002   0.349
81292W        W49655  25.122  24.579   1.331
81293W        W49656  28.558  29.430  13.901
81294W        W49657  13.664  35.036   2.812
81295W        W49658   4.208   2.330   3.219
81296W        W49659  42.493   7.669  11.975
81297W        W49660  40.375  21.719  11.121
81298W        W49661  25.589   8.239  10.915
81299W        W49662  19.056  35.529   1.838
81300W        W49663  30.586   6.396  13.523
81301W        W49664  30.083  37.526  10.611
81302W        W49665  29.489  26.523   2.369
81303W        W49666  22.069   8.854   1.832
81304W        W49667   9.180  32.471   1.249
81305W        W49668  26.090  19.268   3.723
81306W        W49669  14.775   4.261   0.312
81307W        W49670  43.806   7.257   0.261
81308W        W49671  13.136  34.879   3.767
81309W        W49672  20.238  42.433  13.033
81310W        W49673  30.497  32.488  13.907
81311W        W49674  25.637  37.432   1.259
81312W        W49675  38.887  20.530  12.489
81313W        W49676  17.159   2.412  13.370
81314W        W49677   8.364   9.267   0.886
81315W        W49678   1.972  18.621   0.444
81316W        W49679  34.547  25.560  13.876
81317W        W49680  14.183  15.274  12.477
81318W        W49681  18.630  13.818  14.502
81319W        W49682  42.833  19.604   4.354
81320W        W49683   2.813  10.686  14.759
81321W        W49684   5.741   3.304  12.965
81322W        W49685  15.764  31.432   1.921
81323W        W49686  38.908  18.241   0.348
81324W        W49687   1.969   0.962   0.341
81325W        W49688  32.440   4.442   3.370
81326W        W49689  18.207   4.419   0.338
81327W        W49690  23.069  43.954   0.466
81328W        W49691   9.816  36.587  12.831
81329W        W49692  30.918  31.143   1.436
81330W        W49693  39.357  10.149   1.245
81331W        W49694   8.834  28.454  12.375
81332W        W49695  33.585  22.099  12.502
81333W        W49696  31.486  41.991   2.737
81334W        W49697  41.037  39.872   0.410
81335W        W49698  20.699   2.814   3.151
81336W        W49699  34.459  20.697  10.503
81337W        W49700  22.617  29.551  14.408
81338W        W49701  40.882   2.796   4.235
81339W        W49702   7.731  35.030   1.820
81340W        W49703  39.557  15.248   3.199
81341W        W49704  18.055  32.406   2.790
81342W        W49705   5.815   4.793   2.407
81343W        W49706   2.729   2.809   4.255
81344W        W49707  38.985   9.868  13.803
81345W        W49708  12.155  41.437  13.867
81346W        W49709  15.144   6.886  12.875
81347W        W49710  39.439  14.704  13.807
81348W        W49711  28.643   7.286  14.811
81349W        W49712  37.549  10.640  12.057
81350W        W49713  31.148  19.663   3.279
81351W        W49714  36.385  21.731   4.651
81352W        W49715  38.029  38.877  10.976
81353W        W49716  11.199  18.253   3.730
81354W        W49717   5.415  33.534   4.257
81355W        W49718  12.742  35.575   3.335
81356W        W49719  18.221  23.071  10.553
81357W        W49720  43.825   3.290  12.963
81358W        W49721  26.462  38.071   3.738
81359W        W49722  17.753  31.055   3.164
81360W        W49723   6.904   0.886   3.661
81361W        W49724  36.852   0.259   2.742
81362W        W49725   1.401  14.711  11.887
81363W        W49726  38.854  17.717   1.787
81364W        W49727  18.055   2.242  12.993
81365W        W49728  15.678  35.551   2.723
81366W        W49729   9.693  16.739  11.487
81367W        W49730  28.491  35.393  10.482
81368W        W49731   2.369  39.341   4.743
81369W        W49732  11.336  28.045   4.344
81370W        W49733  41.036  44.871  10.477
81371W        W49734  19.224  26.173  12.523
81372W        W49735  31.614  44.298   0.760
81373W        W49736  17.709  24.595  13.944
81374W        W49737  26.605  18.243  14.791
81375W        W49738  21.667  31.478   1.899
81376W        W49739  18.134  10.147   9.986
81377W        W49740  24.512   2.962   0.926
81378W        W49741  19.109  37.843  14.008
81379W        W49742  30.570  32.089   2.212
81380W        W49743  21.718  21.650  10.912
81381W        W49744  36.096  35.594   1.835
81382W        W49745  42.332  23.198   4.759
81383W        W49746  42.378  33.556  13.968
81384W        W49747  17.276  20.715  10.599
81385W        W49748   2.738  27.109  13.358
81386W        W49749  14.654  27.456  14.007
81387W        W49750  32.535  15.708  10.096
81388W        W49751  33.409  42.812  10.037
81389W        W49752  16.602  28.559   1.699
81390W        W49753  38.936   0.798   3.192
81391W        W49754   7.261  17.698  13.427
81392W        W49755  10.673  38.892  14.758
81393W        W49756   5.834  44.485   4.699
81394W        W49757   4.429  28.018   4.743
81395W        W49758  30.525  12.792   3.778
81396W        W49759  32.988  13.674  13.892
81397W        W49760  19.266  29.984   1.924
81398W        W49761  13.746  41.873   0.732
81399W        W49762  38.957  15.812   3.370
81400W        W49763  42.988   2.797  12.376
81401W        W49764  33.033  38.951  13.923
81402W        W49765  44.784  31.082  10.639
81403W        W49766  20.086  25.669   1.300
81404W        W49767  35.391   4.797  13.414
81405W        W49768  14.325  27.160   0.421
81406W        W49769  36.378  33.507  14.374
81407W        W49770  39.979  25.672   3.276
81408W        W49771  27.636  34.474  14.805
81409W        W49772  36.493  38.339   2.836
81410W        W49773   1.237  10.230   1.835
81411W        W49774  43.836  42.324  11.869
81412W        W49775   2.380  36.074  10.102
81413W        W49776  12.669  15.134   4.819
81414W        W49777  21.732  17.689  12.027
81415W        W49778   7.733  24.662   2.726
81416W        W49779  33.971  24.077  10.929
81417W        W49780  19.189   0.795  13.349
81418W        W49781  40.378   8.831   2.758
81419W        W49782   3.940   4.271  12.420
81420W        W49783  10.324  33.900   1.881
81421W        W49784   4.360  40.929  11.533
81422W        W49785  15.264   2.886  11.940
81423W        W49786  39.817   7.813  12.840
81424W        W49787  28.625  13.746  10.033
81425W        W49788  36.896  40.350   3.818
81426W        W49789  39.450  20.544   3.295
81427W        W49790  13.259  23.537   2.248
81428W        W49791  23.713  39.484   1.438
81429W        W49792  39.552  10.822  13.910
81430W        W49793  13.783  26.088  14.940
81431W        W49794  40.942  25.978   4.156
81432W        W49795   2.735  10.367   1.907
81433W        W49796   8.309  36.026  11.528
81434W        W49797   9.370   0.866  12.833
81435W        W49798   9.371  14.832   4.310
81436W        W49799  21.724  25.024   1.322
81437W        W49800  34.016   7.766  14.838
81438W        W49801  17.204  14.729   1.276
81439W        W49802  36.499   3.857  11.458
81440W        W49803  20.172  13.743  10.638
81441W        W49804   7.258   2.891  11.059
81442W        W49805  42.441  42.004  13.832
81443W        W49806  33.877  27.592   1.746
81444W        W49807  27.573  44.922   4.679
81445W        W49808  42.857  17.659   2.705
81446W        W49809  29.971  25.078  12.571
81447W        W49810  38.537  40.049  12.540
81448W        W49811  43.407  16.225   2.258
81449W        W49812  32.575   0.860   2.767
81450W        W49813  13.773  35.594  14.483
81451W        W49814   3.378  38.828   1.895
81452W        W49815  34.563   5.866   4.329
81453W        W49816  18.219  37.544   0.878
81454W        W49817  19.042  38.994   0.806
81455W        W49818   9.284  23.508  12.554
81456W        W49819   1.858  22.581   0.290
81457W        W49820  20.632  43.909  14.416
81458W        W49821   8.334  17.101  10.558
81459W        W49822   5.421   8.862   1.731
81460W        W49823  11.672  22.116   3.183
81461W        W49824  24.517  13.824  12.952
81462W        W49825  44.368  15.601  11.432
81463W        W49826   9.662  16.212  10.514
81464W        W49827  36.923  32.536  12.029
81465W        W49828  33.055  25.137  12.008
81466W        W49829  25.713  44.859   2.676
81467W        W49830   9.229   8.336   3.723
81468W        W49831   5.363  29.548   1.325
81469W        W49832  26.602  34.101  14.862
81470W        W49833  23.691  37.998   1.402
81471W        W49834   8.801  25.181   2.744
81472W        W49835  20.758   9.163   2.686
81473W        W49836  33.038  22.050   4.747
81474W        W49837  15.631  31.567  13.864
81475W        W49838  18.773  35.451  13.452
81476W        W49839  44.329  12.343  12.837
81477W        W49840  21.144  32.633  14.842
81478W        W49841  18.147  38.987   4.317
81479W        W49842  28.168   1.763   5.224
81480W        W49843  16.723  17.689   4.820
81481W        W49844   9.253  32.058  10.603
81482W        W49845  16.679  16.254  14.896
81483W        W49846   2.444  25.054  14.373
81484W        W49847  29.619  22.092  12.855
81485W        W49848   8.893  40.409  13.405
81486W        W49849  32.141   6.385  11.450
81487W        W49850  18.203  39.445  14.343
81488W        W49851   8.363  39.983  10.982
81489W        W49852  43.418   8.696   1.920
81490W        W49853  27.647   6.187   4.634
81491W        W49854  20.613  37.913   4.642
81492W        W49855  26.114  15.738   2.894
81493W        W49856  25.142  12.761  12.982
81494W        W49857  30.078   0.365  11.601
81495W        W49858  32.908   5.771   0.859
81496W        W49859  44.427   8.706   1.721
81497W        W49860   8.167  27.664   1.890
81498W        W49861  17.162   8.355  13.985
81499W        W49862   1.816  27.583   1.439
81500W        W49863   2.260  19.655   2.667
81501W        W49864  28.989  23.614  10.431
81502W        W49865  31.633  39.952  12.981
81503W        W49866  44.906  18.575  11.982
81504W        W49867  33.415   3.824   2.665
81505W        W49868  20.731  17.663   2.693
81506W        W49869  26.483  23.143  13.024
81507W        W49870  14.104  19.075   4.781
81508W        W49871  20.565   9.882  12.010
81509W        W49872   3.815  25.600  12.525
81510W        W49873  37.832  15.725   0.481
81511W        W49874   8.813  40.500   1.331
81512W        W49875  18.112  14.126   1.879
81513W        W49876  41.378  39.923  11.019
81514W        W49877  27.150  34.493   2.849
81515W        W49878  37.344  15.816  14.456
81516W        W49879  19.604  23.622  11.999
81517W        W49880  19.224  44.777   5.677
81518W        W49881  26.054  10.736  14.276
81519W        W49882  36.967  16.672  11.405
81520W        W49883  42.460   3.276  11.584
81521W        W49884  16.722   0.304  11.423
81522W        W49885  20.271  29.619   4.813
81523W        W49886  35.432  24.093   0.898
81524W        W49887  30.057  36.959  12.843
81525W        W49888  15.740   0.956  14.295
81526W        W49889  21.240  30.649   0.844
81527W        W49890  10.660  39.364  12.488
81528W        W49891  13.720  19.283  12.022
81529W        W49892  14.322  34.443  14.321
81530W        W49893   6.361  43.995  13.509
81531W        W49894  38.416  25.020  14.961
81532W        W49895   0.348  22.592  14.883
81533W        W49896  25.494   3.364   0.822
81534W        W49897  44.773  44.835  10.901
81535W        W49898  12.666  28.119   0.471
81536W        W49899   3.828  23.025  13.021
81537W        W49900  22.520   9.285  11.990
81538W        W49901  32.117  22.559  10.420
81539W        W49902  12.154   6.234  13.969
81540W        W49903  23.525  10.838   0.266
81541W        W49904   9.292  17.578  14.878
81542W        W49905  21.201  30.500   0.300
81543W        W49906  19.073  35.904  13.933
81544W        W49907  39.015  29.959  13.342
81545W        W49908  10.863  14.619   4.326
81546W        W49909  21.070  34.566   5.281
81547W        W49910  20.032  30.529   0.371
81548W        W49911  26.575  36.894   4.819
81549W        W49912   1.800  23.004   0.813
81550W        W49913  20.754   9.777  13.402
81551W        W49914  12.854   1.351  11.858
81552W        W49915  44.430   5.424  13.427
81553W        W49916  13.181   2.250  13.312
81554W        W49917  29.624  24.098  12.994
81555W        W49918  20.749  34.430   3.841
81556W        W49919  41.427  29.981   3.170
81557W        W49920  14.316  19.206  11.429
81558W        W49921  33.390   9.363  12.894
81559W        W49922  11.856  15.105  12.478
81560W        W49923  27.113  32.944   3.325
81561W        W49924  23.186  28.129  11.560
81562W        W49925  26.029  34.064  14.327
81563W        W49926  31.615  18.224   0.344
81564W        W49927  40.976  40.488  12.398
81565W        W49928  38.368  21.557  11.983
81566W        W49929  19.569  32.079   0.936
81567W        W49930  34.498  19.045   4.140
81568W        W49931  19.770   0.986  11.860
81569W        W49932  42.843   9.189  13.062
81570W        W49933  17.797  22.155  10.896
81571W        W49934  43.820  37.547  11.462
81572W        W49935  12.170   7.200  13.002
81573W        W49936   4.915  15.809   4.768
81574W        W49937  33.091  36.984   0.264
81575W        W49938  22.179  28.513   4.797
81576W        W49939  37.040  37.947  14.440
81577W        W49940  33.566  40.045   1.442
81578W        W49941  28.522  33.512   3.734
81579W        W49942  33.943  20.715   0.729
81580W        W49943   4.320  24.121  13.844
81581W        W49944  44.430   7.403  12.877
81582W        W49945  44.429   9.220  14.780
81583W        W49946  29.951  22.747  10.927
81584W        W49947   5.291  10.219  14.502
81585W        W49948  13.137  10.299   4.331
81586W        W49949  24.528  10.868  14.832
81587W        W49950  40.468   1.481  14.826
81588W        W49951  22.703   0.384   0.386
81589W        W49952  29.525  29.459  14.478
81590W        W49953  16.282  32.619  12.863
81591W        W49954  18.762   3.848   2.818
81592W        W49955  11.637  43.898  14.888
81593W        W49956  22.571  10.341  14.342
81594W        W49957  15.639   3.749   1.423
81595W        W49958   4.865   4.771   4.697
81596W        W49959  19.184  37.061   1.245
81597W        W49960  25.634  16.237   3.806
81598W        W49961  26.024   9.162  10.529
81599W        W49962  41.933  41.846   2.746
81600W        W49963  18.592  16.161   0.901
81601W        W49964  36.442  40.937  11.452
81602W        W49965  37.542  22.648  12.037
81603W        W49966  32.141  29.598  14.356
81604W        W49967   9.204  31.143  11.493
81605W        W49968  42.473  37.455   5.720
81606W        W49969  29.523  43.787   3.195
81607W        W49970  22.648   7.396  14.352
81608W        W49971  11.138  31.986  13.429
81609W        W49972  27.090  32.586  13.797
81610W        W49973   8.820  34.049   0.894
81611W        W49974   5.765  18.149  12.518
81612W        W49975  20.733  41.790  10.468
81613W        W49976  19.262  18.247   3.166
81614W        W49977   5.783   6.300   4.738
81615W        W49978   5.858  10.364  10.548
81616W        W49979  31.484  16.251   2.212
81617W        W49980  18.110  11.312  12.427
81618W        W49981  29.974  38.968  12.529
81619W        W49982  43.955  38.380   0.945
81620W        W49983  42.359  44.798   4.298
81621W        W49984  11.740   3.445   5.238
81622W        W49985   7.333  11.324   0.798
81623W        W49986  29.074  14.228  11.051
81624W        W49987   7.857  23.543  12.408
81625W        W49988   9.765  37.555   0.868
81626W        W49989  42.440  26.041  10.583
81627W        W49990  19.049   1.368  14.863
81628W        W49991  10.774  25.068  14.280
81629W        W49992   9.295  40.827  10.920
81630W        W49993  13.680  13.205   3.751
81631W        W49994  27.473  36.541   0.272
81632W        W49995  23.014  39.930  11.981
81633W        W49996  12.614   4.819   2.889
81634W        W49997  21.114  19.747   9.951
81635W        W49998  41.436  21.168  14.010
81636W        W49999   6.295  21.131   1.839
81637W        W50000  17.282  26.180  14.494
81638W        W50001  37.041  35.873  12.042
81639W        W50002  29.976  10.222  11.380
81640W        W50003   6.427  44.322   2.208
81641W        W50004  18.592  34.906  11.986
81642W        W50005  24.593  20.704   3.245
81643W        W50006  37.006  38.394  12.009
81644W        W50007  34.500  40.969  14.451
81645W        W50008  42.503  13.685   3.726
81646W        W50009  24.572  22.738  11.029
81647W        W50010  19.117  13.711  11.412
81648W        W50011  31.619  25.189   1.401
81649W        W50012  11.661  12.303   1.926
81650W        W50013  31.484   6.237  14.926
81651W        W50014  33.063  28.013  10.562
81652W        W50015  27.553  12.713   2.820
81653W        W50016  25.100  38.034  12.536
81654W        W50017  20.682  11.766   2.253
81655W        W50018  31.087  32.620  10.939
81656W        W50019  20.194  43.781  12.054
81657W        W50020  21.036  17.740  11.410
81658W        W50021  36.853  34.410  12.005
81659W        W50022  24.990  44.296  10.981
81660W        W50023  21.216   9.724  12.865
81661W        W50024  21.657  24.500  10.640
81662W        W50025  32.056  28.672   2.804
81663W        W50026  37.836  11.208  12.000
81664W        W50027  30.145  10.164  14.912
81665W        W50028  13.842   9.310   1.865
81666W        W50029  34.950  28.998  10.900
81667W        W50030  34.578  17.203   3.306
81668W        W50031  18.214   0.924  11.050
81669W        W50032  23.024  43.865   1.305
81670W        W50033  15.663  43.843   2.364
81671W        W50034  41.511  10.347   1.322
81672W        W50035  11.371  35.504  14.494
81673W        W50036   4.752  20.629  12.929
81674W        W50037  29.093  19.564  10.591
81675W        W50038  24.628  34.473  14.361
81676W        W50039  32.637  43.479   2.356
81677W        W50040  16.667  37.996  10.968
81678W        W50041  13.235  21.151   5.246
81679W        W50042  26.150  39.323   0.898
81680W        W50043  11.239  27.067  10.563
81681W        W50044  21.246  11.729   1.822
81682W        W50045   0.799  36.947   0.839
81683W        W50046   4.870   5.438  11.125
81684W        W50047   0.921   8.167   0.743
81685W        W50048   5.915   6.211  11.425
81686W        W50049  26.520  11.807   5.176
81687W        W50050  23.167  44.837   0.288
81688W        W50051  18.735  43.901   2.194
81689W        W50052  37.917  41.383  14.820
81690W        W50053  25.129  37.567  11.420
81691W        W50054  23.127   6.235   1.860
81692W        W50055  17.594  10.730   4.635
81693W        W50056  34.883  13.766  13.431
81694W        W50057  39.934  40.977   4.599
81695W        W50058   6.846  16.691   4.740
81696W        W50059  25.000  20.550  13.877
81697W        W50060  28.165  28.501   4.274
81698W        W50061  16.611  42.871  14.772
81699W        W50062   9.879   4.288   1.913
81700W        W50063  11.246  31.102   3.279
81701W        W50064  31.907  32.069  12.094
81702W        W50065  23.519   6.310   2.872
81703W        W50066   9.679  15.173  12.533
81704W        W50067   1.903  13.788  11.017
81705W        W50068  39.407   5.248  13.978
81706W        W50069   4.882  15.804  14.764
81707W        W50070  25.480  25.549   0.364
81708W        W50071  34.935   4.756   2.861
81709W        W50072  30.491  21.156   1.880
81710W        W50073  39.489   6.864  13.425
81711W        W50074  43.311  14.791  12.500
81712W        W50075  26.580  23.082  10.603
81713W        W50076   4.320  42.016  10.455
81714W        W50077  29.160  12.134  14.283
81715W        W50078  19.125   5.382   0.870
81716W        W50079  31.409  10.829  10.448
81717W        W50080  29.546  42.457   1.842
81718W        W50081  29.564  29.527  10.933
81719W        W50082   0.874  44.996   2.675
81720W        W50083  20.699  31.647   3.321
81721W        W50084  32.977  37.080  14.877
81722W        W50085   0.365  22.507  10.973
81723W        W50086  35.550   0.464  12.397
81724W        W50087  31.103   3.255  14.850
81725W        W50088  28.671  12.691  13.507
81726W        W50089  35.523   2.367  14.989
81727W        W50090  23.987   0.743   4.602
81728W        W50091  36.568  14.195   0.471
81729W        W50092   4.439  18.638  12.374
81730W        W50093  32.938   7.821  13.311
81731W        W50094  38.003  36.545  14.891
81732W        W50095  29.534  25.614  12.515
81733W        W50096  39.030  19.160   4.250
81734W        W50097  42.819  35.966  13.808
81735W        W50098  41.499  38.405   1.241
81736W        W50099  38.923   4.828   4.288
81737W        W50100  31.971   4.873  11.489
81738W        W50101  34.427  38.893  14.895
81739W        W50102  34.923  13.621  12.870
81740W        W50103  36.541   6.899  12.447
81741W        W50104  44.473  40.486   0.760
81742W        W50105  28.084   1.865   1.747
81743W        W50106  13.326  43.471   3.357
81744W        W50107  37.371  30.146  13.332
81745W        W50108  18.057  43.845   4.217
81746W        W50109  33.991  21.654   3.854
81747W        W50110   1.368  20.671  10.601
81748W        W50111  36.058   8.302  10.408
81749W        W50112  31.897  21.218   4.631
81750W        W50113  21.650   6.823   3.701
81751W        W50114  34.984   2.248   2.376
81752W        W50115  26.072  22.181  12.999
81753W        W50116  11.708  43.003  13.531
81754W        W50117  30.626  15.322  13.962
81755W        W50118  42.829  17.180  12.825
81756W        W50119  13.162  17.155   0.452
81757W        W50120  23.642  26.019  13.530
81758W        W50121   0.371  16.691   0.888
81759W        W50122  34.559  21.107   3.227
81760W        W50123   3.245  28.930  14.439
81761W        W50124  15.760   3.825  14.005
81762W        W50125   3.245  10.154  14.776
81763W        W50126  34.959  27.474  14.301
81764W        W50127  38.845  42.439   0.753
81765W        W50128  24.979  27.455  11.505
81766W        W50129   8.712  35.883   3.718
81767W        W50130  38.408  17.089   2.873
81768W        W50131  34.963   2.924   3.195
81769W        W50132  30.975   1.853  12.420
81770W        W50133  44.475  18.699  10.636
81771W        W50134  16.699  37.519   2.237
81772W        W50135   8.310  23.720   1.789
81773W        W50136  44.811  35.021   0.243
81774W        W50137  28.012  40.394   0.264
81775W        W50138  13.184  30.141   2.412
81776W        W50139  29.067  29.537   9.531
81777W        W50140  42.004   9.856  10.934
81778W        W50141  33.880  35.929  13.355
81779W        W50142   5.902  35.500   3.370
81780W        W50143  21.210  26.043  12.017
81781W        W50144   7.784  32.045  12.571
81782W        W50145  10.320  16.791  13.413
81783W        W50146  29.621   9.279  12.044
81784W        W50147  23.038  10.254  14.481
81785W        W50148   0.944  31.066  10.619
81786W        W50149  31.094   6.214   3.272
81787W        W50150  43.954   2.923  14.333
81788W        W50151  33.589  13.174   0.868
81789W        W50152  24.709  44.912   0.895
81790W        W50153  32.528   1.969   3.215
81791W        W50154  25.664   6.414  13.021
81792W        W50155  39.819  21.543   1.930
81793W        W50156  41.389   5.288   1.744
81794W        W50157  41.962  22.185   1.738
81795W        W50158  28.017   8.696   4.803
81796W        W50159   6.844  37.860  12.485
81797W        W50160  43.412  30.476  14.759
81798W        W50161  38.482   8.335  14.771
81799W        W50162   3.798  18.288  11.976
81800W        W50163   5.311   7.809   0.394
81801W        W50164  31.485  41.015   4.837
81802W        W50165  33.402  20.260   1.426
81803W        W50166  42.993   2.458   2.849
81804W        W50167  42.430  44.289   3.869
81805W        W50168   6.850  30.474  13.902
81806W        W50169  25.016  40.943  12.051
81807W        W50170   0.764  39.335  11.552
81808W        W50171  18.145  16.261   3.176
81809W        W50172   8.830  11.211  10.983
81810W        W50173  15.587   2.938   4.600
81811W        W50174  41.375  38.068   2.900
81812W        W50175  35.555  33.077   4.761
81813W        W50176  42.882   0.297   3.717
81814W        W50177  33.417   6.397   3.837
81815W        W50178  29.152  21.594   4.226
81816W        W50179  13.837  32.072   1.392
81817W        W50180  21.685  36.406  10.488
81818W        W50181   0.429   3.409  11.062
81819W        W50182  17.124  11.853   1.426
81820W        W50183  21.589  37.870   0.337
81821W        W50184  17.141  40.439   4.637
81822W        W50185  42.898  33.933  13.895
81823W        W50186  14.691  10.216  11.043
81824W        W50187  30.993  38.949   5.272
81825W        W50188  41.332  30.057   2.727
81826W        W50189  41.845  43.764  14.299
81827W        W50190  13.149  21.687   3.173
81828W        W50191   6.185  35.474  14.322
81829W        W50192  31.924  29.160   0.318
81830W        W50193   6.795  17.730   4.786
81831W        W50194  43.347  40.497   4.834
81832W        W50195  23.172  13.741   0.824
81833W        W50196   2.470  27.564  10.898
81834W        W50197  37.903  42.387  10.426
81835W        W50198  44.408   5.738   3.307
81836W        W50199  32.495  27.599   3.154
81837W        W50200  12.242   7.782  14.840
81838W        W50201   1.764   5.411  11.006
81839W        W50202  41.437  31.454   2.739
81840W        W50203  44.927  10.704  14.900
81841W        W50204  36.993  36.575  11.042
81842W        W50205   2.372   5.699  10.937
81843W        W50206   5.909  22.732   3.255
81844W        W50207   1.735   7.828  13.969
81845W        W50208  16.600  39.918  12.555
81846W        W50209   9.804  20.642   1.332
81847W        W50210  38.396   1.850   4.158
81848W        W50211  43.021   1.473   4.829
81849W        W50212   4.230  18.548  12.092
81850W        W50213  33.422  18.660  11.611
81851W        W50214  24.159  42.001   3.656
81852W        W50215   7.399   4.287   3.758
81853W        W50216  25.672  21.554   4.342
81854W        W50217  33.901  15.320   0.905
81855W        W50218  19.231  15.743   0.424
81856W        W50219  10.354  12.201   3.686
81857W        W50220  16.645  31.550  14.448
81858W        W50221  35.871  15.227   2.750
81859W        W50222  41.342  18.564  11.488
81860W        W50223  39.943  43.880  11.932
81861W        W50224  43.339  12.212  13.475
81862W        W50225  18.580  42.523  11.508
81863W        W50226   5.343  43.484   3.206
81864W        W50227  13.135  30.975   1.762
81865W        W50228  25.046  14.316   3.799
81866W        W50229   0.253  31.915   2.847
81867W        W50230  25.602  11.280   1.924
81868W        W50231  13.246  21.661   3.709
81869W        W50232  41.919  11.828  12.562
81870W        W50233  33.966   4.816   4.239
81871W        W50234   2.863  17.232   3.629
81872W        W50235  12.132   4.425   2.406
81873W        W50236  21.077  10.632   2.712
81874W        W50237  35.523  31.634  10.503
81875W        W50238  27.446  11.340   3.295
81876W        W50239  41.432  10.172  12.417
81877W        W50240   2.762  31.475  13.954
81878W        W50241  41.976  37.859  13.532
81879W        W50242  31.086  27.664   5.801
81880W        W50243  40.000   0.898   3.793
81881W        W50244  25.176  19.079   1.934
81882W        W50245  14.122  17.690  11.398
81883W        W50246  38.482  39.372  14.489
81884W        W50247  30.129  38.418   3.677
81885W        W50248   5.920   4.852   3.257
81886W        W50249  38.408  27.943  12.457
81887W        W50250  32.623  38.346  11.494
81888W        W50251  28.663  41.913   3.821
81889W        W50252  21.232   2.383   3.653
81890W        W50253  14.285  26.189  12.431
81891W        W50254  33.087  32.071   2.219
81892W        W50255   4.821   3.386   5.169
81893W        W50256  17.693   7.188  12.390
81894W        W50257  22.521  15.598  12.933
81895W        W50258  30.520  43.411   0.948
81896W        W50259  13.156  10.680  13.520
81897W        W50260  17.250  44.484   9.472
81898W        W50261  20.683   7.330  14.279
81899W        W50262  15.090  28.096  13.940
81900W        W50263  21.174  19.580  10.597
81901W        W50264  31.431  33.882  11.070
81902W        W50265  18.191  26.459  13.964
81903W        W50266   4.436  13.246   1.266
81904W        W50267  12.133  25.713   4.324
81905W        W50268  16.087  42.904  11.009
81906W        W50269  38.005   8.262   1.726
81907W        W50270  42.799  39.371  12.343
81908W        W50271  35.547  17.219   3.327
81909W        W50272  37.054  43.492  12.367
81910W        W50273   2.750  14.308   3.791
81911W        W50274   7.272  13.148   0.871
81912W        W50275  34.920   3.316  14.813
81913W        W50276  12.622  43.343   2.671
81914W        W50277  30.954  30.984   2.786
81915W        W50278  34.435   9.297  11.451
81916W        W50279   8.167  23.545  10.542
81917W        W50280  22.130  39.015   4.733
81918W        W50281  10.144  18.689   1.788
81919W        W50282  41.380  16.684  12.830
81920W        W50283  36.353   1.970  11.076
81921W        W50284  43.840   1.972   4.745
81922W        W50285   5.895   0.415  13.044
81923W        W50286  15.087  18.155  12.852
81924W        W50287  44.964  19.712   0.442
81925W        W50288  40.315  20.069  14.853
81926W        W50289  42.844  14.297  14.004
81927W        W50290  23.501  20.718   4.599
81928W        W50291   5.922   1.847  14.028
81929W        W50292  10.217  10.187  13.381
81930W        W50293   7.674  33.562  12.847
81931W        W50294  35.042  12.359   2.275
81932W        W50295  39.982  11.778   2.748
81933W        W50296  28.550  33.874  14.436
81934W        W50297  11.198  18.765   2.259
81935W        W50298   2.353  43.341   9.513
81936W        W50299   8.284  39.360  11.560
81937W        W50300  25.966   5.418   0.756
81938W        W50301   8.725   8.721   4.325
81939W        W50302  21.088  25.497  12.873
81940W        W50303  12.678  34.889   2.831
81941W        W50304  11.132  30.529   2.829
81942W        W50305  39.828  12.845  14.978
81943W        W50306  37.977  11.689  13.933
81944W        W50307  11.309  28.590  12.869
81945W        W50308   2.849  22.665  11.469
81946W        W50309   1.938  42.974   0.784
81947W        W50310  30.428  26.205  11.087
81948W        W50311  14.109   9.233   4.320
81949W        W50312  33.071  43.842  11.874
81950W        W50313   0.907   7.176  14.828
81951W        W50314  38.414   8.302  13.392
81952W        W50315  25.151  29.157   0.811
81953W        W50316  32.531  17.637  10.591
81954W        W50317  30.481  33.454  10.487
81955W        W50318   4.394  32.022  12.073
81956W        W50319   8.657   2.861   4.636
81957W        W50320  38.022  27.566   2.210
81958W        W50321  19.067  38.908  14.314
81959W        W50322   7.197  21.136  10.978
81960W        W50323  14.714  27.127   3.180
81961W        W50324  27.639   8.189   3.221
81962W        W50325  17.093  20.144   0.257
81963W        W50326  42.895   3.710  13.405
81964W        W50327   7.821  29.122   2.747
81965W        W50328  16.185  34.986  11.920
81966W        W50329   3.778  41.906   3.149
81967W        W50330  34.509   6.880   1.290
81968W        W50331   5.890  12.210  13.055
81969W        W50332   5.268  14.168   4.260
81970W        W50333   1.265  14.735  13.538
81971W        W50334   2.417   2.834   4.193
81972W        W50335  25.163  41.989   1.281
81973W        W50336  31.481  36.923  10.943
81974W        W50337  40.538   5.732   2.205
81975W        W50338  20.658  40.819  11.947
81976W        W50339  32.450  11.270   1.711
81977W        W50340   6.223  18.588  10.456
81978W        W50341   6.772   5.736  11.537
81979W        W50342   6.356  27.672  10.920
81980W        W50343  42.447  43.905   1.447
81981W        W50344   5.828  27.121   0.802
81982W        W50345  12.830  23.075  11.992
81983W        W50346   7.698   7.267  13.926
81984W        W50347  38.538   9.696  14.416
81985W        W50348  40.815  16.677   4.726
81986W        W50349  31.502   1.395  13.396
81987W        W50350  39.927  33.487  13.368
81988W        W50351  42.836  29.635   3.864
81989W        W50352  42.480   0.947  14.994
81990W        W50353  11.256   5.221   2.705
81991W        W50354  43.846  26.027  12.036
81992W        W50355  19.664  44.488   2.248
81993W        W50356  31.442  26.058   4.762
81994W        W50357  22.995  39.365  10.474
81995W        W50358  17.100  33.403   4.346
81996W        W50359  10.805  16.167  13.483
81997W        W50360  12.763  28.552  12.496
81998W        W50361  33.013  14.809   4.149
81999W        W50362   1.797  44.377  12.988
82000W        W50363  42.781  17.684   4.653
82001W        W50364   5.252   1.808   0.829
82002W        W50365  29.479   8.854   0.427
82003W        W50366   2.734  21.212   3.784
82004W        W50367  17.072  24.134  13.490
82005W        W50368  26.095  41.345   4.690
82006W        W50369  14.686  31.103   3.846
82007W        W50370  18.552  44.951  12.893
82008W        W50371  37.349  41.508   1.284
82009W        W50372   5.784  37.568  11.381
82010W        W50373  20.609  29.150  11.380
82011W        W50374  35.417  25.666  10.593
82012W        W50375  23.034  20.101  12.570
82013W        W50376  11.275  26.999  13.499
82014W        W50377  17.656  23.201  13.922
82015W        W50378  16.714  16.301  14.296
82016W        W50379  32.565   9.667   4.636
82017W        W50380   2.410  10.168   0.960
82018W        W50381  31.608  43.857   4.348
82019W        W50382  27.022  41.420  14.800
82020W        W50383  13.154  33.425   4.641
82021W        W50384  18.610  16.287   4.638
82022W        W50385   6.907  26.498  10.587
82023W        W50386  25.082  30.469   1.295
82024W        W50387  44.291  33.946  13.354
82025W        W50388   6.292   1.273   3.317
82026W        W50389  39.437   9.768  11.924
82027W        W50390  39.355   7.696   4.751
82028W        W50391  25.191   7.236   0.928
82029W        W50392  26.987  13.282   9.602
82030W        W50393   7.402  18.734   1.785
82031W        W50394   8.227  43.842  12.397
82032W        W50395   0.837  25.163  10.426
82033W        W50396   0.370  30.081  10.486
82034W        W50397  15.120  40.905  14.900
82035W        W50398  43.920   4.824  11.548
82036W        W50399  16.760  22.245   4.657
82037W        W50400  35.890   0.819  10.508
82038W        W50401  29.530  44.944  13.849
82039W        W50402  30.957  40.510  13.994
82040W        W50403  24.215  34.868   5.239
82041W        W50404  11.756  12.778  11.575
82042W        W50405  34.896  43.897   4.153
82043W        W50406   9.713  24.522  14.420
82044W        W50407  33.003  37.358  13.903
82045W        W50408  29.615   4.908   9.960
82046W        W50409  33.000  22.528   0.896
82047W        W50410  33.436   7.334  13.414
82048W        W50411  41.817   5.736   4.733
82049W        W50412  10.282  36.454   1.752
82050W        W50413   5.242  38.544  11.558
82051W        W50414   9.735  30.446  13.014
82052W        W50415   2.382  23.649  11.925
82053W        W50416  44.965  18.687  14.318
82054W        W50417  25.559  14.664   4.614
82055W        W50418   9.250  12.788  13.474
82056W        W50419  35.423  15.601  12.503
82057W        W50420  14.806  39.456  10.506
82058W        W50421  43.497   1.401   2.203
82059W        W50422   5.343  27.619   4.353
82060W        W50423  18.699  12.231   3.193
82061W        W50424  32.413  43.465  11.483
82062W        W50425  12.180   6.809  14.002
82063W        W50426  21.141  39.365  14.447
82064W        W50427  11.158  25.686  12.396
82065W        W50428  17.657  19.582   1.219
82066W        W50429  26.197  39.854  10.916
82067W        W50430   8.776  41.400  11.515
82068W        W50431  10.198  33.578   2.382
82069W        W50432  39.543  40.399   4.817
82070W        W50433   7.817  25.540   3.631
82071W        W50434  12.124  33.452  10.473
82072W        W50435   4.299  15.262   2.704
82073W        W50436  41.298  43.469   4.342
82074W        W50437  27.973  20.180  12.374
82075W        W50438  35.928   2.443   1.733
82076W        W50439  34.403  37.559  12.401
82077W        W50440  18.089  33.593  11.586
82078W        W50441  31.898  36.401  13.546
82079W        W50442  24.002   5.712   2.208
82080W        W50443  41.997  25.186  10.110
82081W        W50444   5.298  40.350   4.116
82082W        W50445  18.118  27.461   1.451
82083W        W50446   0.308   1.255   2.240
82084W        W50447  24.614  31.531  10.547
82085W        W50448  37.410  28.096  11.104
82086W        W50449  19.750  29.998  14.424
82087W        W50450  14.136  13.135  13.947
82088W        W50451   6.785  23.658   3.255
82089W        W50452  15.149   0.793   4.818
82090W        W50453   8.318  34.998  10.483
82091W        W50454  16.089  30.098   3.330
82092W        W50455  36.951  32.962  11.028
82093W        W50456  24.722  39.021   1.826
82094W        W50457  40.343  10.682  11.882
82095W        W50458  34.076   1.440   4.183
82096W        W50459  14.811   9.821   2.726
82097W        W50460  44.261   0.937   1.931
82098W        W50461   6.719  10.300  11.074
82099W        W50462  34.456  28.110   0.264
82100W        W50463  23.567  29.517   4.347
82101W        W50464  18.648  14.222   0.927
82102W        W50465   5.731  38.357   1.370
82103W        W50466   8.215  39.405   2.822
82104W        W50467  23.528   6.381  14.452
82105W        W50468   6.839  30.524   1.436
82106W        W50469   6.907  38.328  12.014
82107W        W50470  29.599   9.764   4.791
82108W        W50471  44.982  23.730   4.272
82109W        W50472   6.423  30.109   4.161
82110W        W50473   6.278  26.000   1.738
82111W        W50474  29.922  36.495  12.858
82112W        W50475  22.246  13.774   1.305
82113W        W50476  16.234  27.462  10.457
82114W        W50477  30.971  44.997   5.615
82115W        W50478  19.149  42.820  11.036
82116W        W50479   9.250  31.101   3.797
82117W        W50480   2.747  22.518  12.576
82118W        W50481  36.879  31.067  13.804
82119W        W50482  28.047  24.558  14.428
82120W        W50483  39.449  20.588   4.760
82121W        W50484  36.007  39.445   0.473
82122W        W50485  25.966  19.250  14.024
82123W        W50486  10.805  34.057   2.811
82124W        W50487  24.983  17.597  12.081
82125W        W50488   8.882  28.507   3.658
82126W        W50489  41.926   8.772  12.834
82127W        W50490  35.465  19.774  11.879
82128W        W50491  23.150  30.164  11.386
82129W        W50492   5.327  13.700  13.980
82130W        W50493  32.033   7.411   4.182
82131W        W50494  25.045  23.172  12.955
82132W        W50495  18.706  29.651  13.034
82133W        W50496  23.733  12.207   1.869
82134W        W50497  27.680   9.887   1.349
82135W        W50498   2.298  27.136  14.429
82136W        W50499  21.730   6.332  14.471
82137W        W50500  33.046  16.698  12.836
82138W        W50501  35.474  20.069  10.492
82139W        W50502   7.708  21.529   4.137
82140W        W50503   0.403  34.008  14.982
82141W        W50504  26.127  20.111  10.410
82142W        W50505   1.247  15.640  14.805
82143W        W50506  41.322   2.722  13.326
82144W        W50507   5.381  23.505  14.376
82145W        W50508  44.372  13.282   4.598
82146W        W50509  16.169  21.129   4.836
82147W        W50510   1.895  14.648  12.973
82148W        W50511  21.716  19.238  11.964
82149W        W50512  16.150  33.557   3.720
82150W        W50513  28.619  40.826   3.836
82151W        W50514  13.205  23.201   1.705
82152W        W50515   5.710  18.635  14.410
82153W        W50516   6.209  38.424   3.819
82154W        W50517  39.411  29.039  12.472
82155W        W50518  24.540  22.021   1.746
82156W        W50519  39.467  29.942  14.391
82157W        W50520  35.942  42.826  14.455
82158W        W50521  13.815   1.391  10.405
82159W        W50522  21.583  25.564   4.729
82160W        W50523  35.372  25.641   2.881
82161W        W50524   5.368  28.968   0.904
82162W        W50525  41.811  41.498   4.773
82163W        W50526  36.502  37.335   0.841
82164W        W50527  33.026  36.943  12.944
82165W        W50528  33.077   3.451   0.912
82166W        W50529  43.871  21.106  14.944
82167W        W50530  40.320  27.509  12.075
82168W        W50531  37.965  36.443  11.070
82169W        W50532  14.131  10.273  13.382
82170W        W50533  29.528  30.928   2.192
82171W        W50534  16.678   8.717   2.312
82172W        W50535   5.732  31.531  12.900
82173W        W50536  22.640  14.607  13.035
82174W        W50537  18.760  20.571   2.677
82175W        W50538  18.659  39.333   2.280
82176W        W50539  27.070  31.462   0.410
82177W        W50540   1.320  39.963   2.730
82178W        W50541  22.207  10.764   4.679
82179W        W50542  42.905  22.585   2.265
82180W        W50543  14.324   2.248   1.401
82181W        W50544  28.566  17.559  10.966
82182W        W50545   6.182  21.557   2.851
82183W        W50546  17.612  30.908   0.410
82184W        W50547  16.770  24.658  10.889
82185W        W50548  20.522  43.460   2.685
82186W        W50549  29.026  28.999   2.868
82187W        W50550   8.727  14.223   2.324
82188W        W50551  34.978   8.829  10.642
82189W        W50552  18.266  19.658  13.841
82190W        W50553   8.682  31.964  10.946
82191W        W50554  29.111   2.936   4.817
82192W        W50555  15.604  16.156  10.137
82193W        W50556  23.229  26.652  10.640
82194W        W50557  41.445  12.282  10.527
82195W        W50558  42.463  40.479  12.356
82196W        W50559  20.193  33.601  14.872
82197W        W50560   3.851  28.055   3.354
82198W        W50561  26.619   6.306  13.830
82199W        W50562   1.472  26.208  13.521
82200W        W50563   9.173  14.196  14.024
82201W        W50564  13.761  37.353  13.923
82202W        W50565  22.211  40.481   3.351
82203W        W50566  42.852   6.231   4.739
82204W        W50567  39.937  16.217   1.927
82205W        W50568  23.127  37.402  12.522
82206W        W50569  32.398  28.503  11.442
82207W        W50570  29.951  40.024  13.853
82208W        W50571  31.102   4.779  11.095
82209W        W50572   9.653  10.664  13.400
82210W        W50573  16.588   5.288  10.415
82211W        W50574  41.345  22.156   3.694
82212W        W50575   2.431  24.568   4.256
82213W        W50576  22.510  11.355   2.758
82214W        W50577  42.431  41.040   4.246
82215W        W50578  40.431  44.312   4.723
82216W        W50579  35.471  24.138   1.703
82217W        W50580  12.733  10.693  10.971
82218W        W50581  21.702  42.996   0.373
82219W        W50582  15.681  40.885   4.834
82220W        W50583  11.690  33.417  11.484
82221W        W50584  44.401  38.944   3.760
82222W        W50585   7.718  37.959  11.118
82223W        W50586  38.487  25.166  11.102
82224W        W50587   3.399   1.434  11.894
82225W        W50588  33.405  26.198   1.705
82226W        W50589  42.296   5.400   3.737
82227W        W50590  32.613  10.151  12.069
82228W        W50591  21.616   5.234   3.291
82229W        W50592  28.086  21.662   3.701
82230W        W50593  15.107   5.756   5.168
82231W        W50594  29.605  22.999   4.821
82232W        W50595  31.903  30.528  13.533
82233W        W50596  40.423  33.393  10.990
82234W        W50597  39.055  27.616   2.897
82235W        W50598  39.433  42.824  12.411
82236W        W50599  12.151  33.893  14.320
82237W        W50600  35.050  35.375  12.892
82238W        W50601  42.850  10.364   2.670
82239W        W50602   5.247  15.239  13.533
82240W        W50603  10.683  28.960   1.855
82241W        W50604  23.055  24.141  11.890
82242W        W50605  44.967  28.067   0.402
82243W        W50606  33.970  26.100  10.907
82244W        W50607   5.305  28.533  13.379
82245W        W50608  29.997  23.032  13.542
82246W        W50609  16.174  24.123  11.577
82247W        W50610  31.547   1.762   5.221
82248W        W50611  35.048   0.287   4.775
82249W        W50612  38.882  19.160  11.551
82250W        W50613   7.366   4.803   0.877
82251W        W50614   4.872  40.435   2.336
82252W        W50615   2.861  33.620   4.294
82253W        W50616  14.233  30.986   3.345
82254W        W50617  13.697  17.262   5.754
82255W        W50618  34.931  26.039   4.189
82256W        W50619  25.476  14.803   9.450
82257W        W50620  20.751  24.066  10.638
82258W        W50621  23.130  34.913   4.161
82259W        W50622  17.192  19.754   0.301
82260W        W50623  25.614   6.270  13.918
82261W        W50624  31.550   9.229   2.740
82262W        W50625   9.195  26.583  11.915
82263W        W50626  21.756  11.241   2.879
82264W        W50627   6.776  33.457   3.162
82265W        W50628  24.185  39.488  11.435
82266W        W50629   7.266  42.355   4.607
82267W        W50630   3.817  38.482  11.450
82268W        W50631  19.769   2.846  11.903
82269W        W50632  22.505  43.901   0.851
82270W        W50633   7.670  15.314  13.941
82271W        W50634  36.001  18.186  12.877
82272W        W50635  28.477  37.560  12.005
82273W        W50636  18.285   5.726   1.873
82274W        W50637  12.238   4.900  11.410
82275W        W50638  40.474  29.526  12.068
82276W        W50639  37.074   2.952  12.880
82277W        W50640   4.420  39.862  12.971
82278W        W50641   8.357  39.020   4.342
82279W        W50642  38.532  20.597  11.124
82280W        W50643  24.158   0.805   4.143
82281W        W50644  38.892  26.148   0.754
82282W        W50645  36.983  41.982   1.915
82283W        W50646  11.243   9.184   3.742
82284W        W50647  16.590  23.078  14.473
82285W        W50648  44.987  39.020  10.422
82286W        W50649  12.852  21.699  11.389
82287W        W50650  27.627  23.050   4.711
82288W        W50651  39.809  14.233  13.985
82289W        W50652   2.947  30.038  13.829
82290W        W50653   3.822  30.645  13.020
82291W        W50654  17.098  39.919  12.548
82292W        W50655  16.591  43.957  10.134
82293W        W50656  35.528  22.173   1.900
82294W        W50657   0.890  18.154  12.825
82295W        W50658  43.882  10.877   4.133
82296W        W50659  24.005  21.245   3.162
82297W        W50660  16.148   4.810   2.342
82298W        W50661  27.049   4.935  10.621
82299W        W50662  33.887  35.449  12.565
82300W        W50663  15.820   1.423   3.363
82301W        W50664  25.985  28.551   1.424
82302W        W50665   6.293  36.401   0.828
82303W        W50666  25.082  36.423   5.281
82304W        W50667   2.396   2.387  13.800
82305W        W50668  15.579  32.987   4.761
82306W        W50669   6.776   0.924  14.759
82307W        W50670   9.707  25.491   4.312
82308W        W50671   6.241   8.342   2.700
82309W        W50672   7.782  43.328  13.453
82310W        W50673  36.449  20.733  14.349
82311W        W50674  44.811  31.602   0.259
82312W        W50675  42.885  11.861   5.306
82313W        W50676  23.510   0.938   0.757
82314W        W50677   5.274  17.131   3.342
82315W        W50678  44.008  36.842   0.941
82316W        W50679  38.981  36.936  11.377
82317W        W50680  37.923   8.767   2.248
82318W        W50681  20.676  12.325  14.947
82319W        W50682   6.721  24.222   4.201
82320W        W50683  21.167   7.412  12.391
82321W        W50684  25.070  28.047  14.875
82322W        W50685  37.987  39.861   2.316
82323W        W50686  10.795  44.303  10.048
82324W        W50687  14.260  34.067  14.765
82325W        W50688  37.424  12.299   0.399
82326W        W50689  11.363   1.894  12.853
82327W        W50690  12.628  26.525   0.258
82328W        W50691   7.186  13.603   4.623
82329W        W50692  31.407  29.133   0.924
82330W        W50693  12.156  38.042  12.898
82331W        W50694  20.581  26.598  13.926
82332W        W50695  19.078   1.350   3.285
82333W        W50696  23.145  44.317   4.313
82334W        W50697   8.177  32.552  10.496
82335W        W50698  20.044  20.239  14.394
82336W        W50699  25.690  32.021   2.764
82337W        W50700  43.278  21.660  14.822
82338W        W50701  16.614  26.629  13.964
82339W        W50702  29.952  24.640   4.788
82340W        W50703  14.670  12.834   4.181
82341W        W50704   5.879  30.005  11.397
82342W        W50705  27.949   5.328  11.527
82343W        W50706  17.796  35.949  11.861
82344W        W50707  12.625   9.748   4.173
82345W        W50708  40.041  35.503  14.865
82346W        W50709   2.363  44.384  14.852
82347W        W50710  17.251  24.039  12.832
82348W        W50711  13.134   4.754   2.773
82349W        W50712  29.099  12.648  12.489
82350W        W50713  22.729  26.686   0.396
82351W        W50714   4.349   0.291   5.147
82352W        W50715  43.287  29.122  12.021
82353W        W50716  26.579  25.569   0.962
82354W        W50717  43.504  26.552  12.848
82355W        W50718   4.780  23.060   2.673
82356W        W50719  31.438   5.360   4.162
82357W        W50720  28.661  43.904  14.401
82358W        W50721  27.178  26.155   0.405
82359W        W50722  33.991  22.215   1.779
82360W        W50723  44.915  19.231  11.446
82361W        W50724   7.234  21.231   3.859
82362W        W50725   3.334   6.182  13.879
82363W        W50726  26.598  37.986  14.881
82364W        W50727   5.197   5.241   1.822
82365W        W50728   8.184  36.461   3.359
82366W        W50729  22.645   1.278   0.258
82367W        W50730   7.684  22.664  12.908
82368W        W50731  22.996  13.327  10.470
82369W        W50732  29.042   7.387   4.195
82370W        W50733  25.073  43.911   4.807
82371W        W50734  32.585   4.898   0.876
82372W        W50735  16.197  32.391   1.725
82373W        W50736   4.747   9.728   3.644
82374W        W50737  30.567  34.414  11.397
82375W        W50738   2.894  26.613  12.344
82376W        W50739   4.899  22.185   2.285
82377W        W50740  38.046  40.900  13.020
82378W        W50741  12.674   5.880   4.692
82379W        W50742  34.524   3.454  13.943
82380W        W50743  25.491  16.199   5.778
82381W        W50744  40.533   1.747  10.007
82382W        W50745  32.991  26.627  13.864
82383W        W50746  30.642  23.701  13.421
82384W        W50747  44.381   7.175   2.308
82385W        W50748   0.433   8.782  11.963
82386W        W50749  32.537  28.118   3.254
82387W        W50750  23.546   6.760   3.185
82388W        W50751   1.755  37.345  12.439
82389W        W50752  12.207  37.544  13.908
82390W        W50753  25.492   9.823  13.062
82391W        W50754   9.251   9.801   1.843
82392W        W50755  43.318  23.027   1.776
82393W        W50756  23.104  14.235  11.509
82394W        W50757  10.293  44.799  12.490
82395W        W50758   0.859  43.795   2.414
82396W        W50759  24.029  28.978  12.090
82397W        W50760  37.067  21.556   4.684
82398W        W50761   0.285  37.969   2.410
82399W        W50762  40.439  40.358  10.457
82400W        W50763  24.553   5.397  13.844
82401W        W50764  43.015   7.708  10.532
82402W        W50765   9.361  40.034  13.357
82403W        W50766   5.307  30.450  10.559
82404W        W50767  41.969  39.887   4.737
82405W        W50768  11.241  33.988  13.001
82406W        W50769  35.036  24.095  14.373
82407W        W50770   7.671   2.748  13.048
82408W        W50771  19.749  43.953  14.327
82409W        W50772  44.307  34.959  11.456
82410W        W50773   4.335  19.039   2.878
82411W        W50774  34.384  32.602  13.469
82412W        W50775   5.746   2.317  11.105
82413W        W50776  31.552  20.671  12.025
82414W        W50777  40.946  19.679  12.974
82415W        W50778  29.127  25.664  12.578
82416W        W50779   6.401   1.318  14.489
82417W        W50780  24.484  27.662  14.316
82418W        W50781  35.390  43.340   1.760
82419W        W50782  44.446  12.720   1.338
82420W        W50783  27.049  10.675  14.896
82421W        W50784  19.544   6.419   5.088
82422W        W50785  44.343  31.908  11.034
82423W        W50786  34.411  27.670   1.840
82424W        W50787  23.511  10.646   4.257
82425W        W50788   7.852  12.656  14.941
82426W        W50789  31.406  10.178  11.593
82427W        W50790  35.097  40.468  14.966
82428W        W50791  15.118   8.810  14.992
82429W        W50792  23.062  24.088   3.252
82430W        W50793   0.825   2.854   0.737
82431W        W50794  38.385  35.547   2.286
82432W        W50795  19.721  25.583   3.861
82433W        W50796  29.983  39.398   1.374
82434W        W50797  22.695  15.209   3.809
82435W        W50798  18.101  30.487  11.556
82436W        W50799  25.709  11.365  11.543
82437W        W50800   7.308   1.333  13.342
82438W        W50801   6.785  33.566   1.407
82439W        W50802  42.497   1.280  14.869
82440W        W50803  27.099  27.543  12.498
82441W        W50804  25.480  18.606  11.856
82442W        W50805  33.577  31.494  11.394
82443W        W50806  35.919  10.660   1.418
82444W        W50807  10.721  28.579  11.468
82445W        W50808  33.053  38.535   3.339
82446W        W50809  22.720  30.616  11.485
82447W        W50810  27.113   9.670  10.915
82448W        W50811   9.689   5.250  11.022
82449W        W50812  13.638  28.155  10.467
82450W        W50813  13.809  14.200  14.326
82451W        W50814  15.626  27.632  12.446
82452W        W50815  31.415   0.979  12.348
82453W        W50816  18.617   6.193  10.971
82454W        W50817  12.613   1.469  14.776
82455W        W50818  28.614  31.621   0.813
82456W        W50819  35.077  24.721  14.385
82457W        W50820   8.816   4.239   2.375
82458W        W50821   1.868   5.719  12.068
82459W        W50822  30.949  12.162   3.285
82460W        W50823  21.516   6.352  13.899
82461W        W50824  36.405  18.633  11.478
82462W        W50825  14.756  32.590   3.828
82463W        W50826   4.237  21.130  10.512
82464W        W50827  10.826  30.934  11.932
82465W        W50828  41.483  40.891   1.867
82466W        W50829   8.860  36.927  11.106
82467W        W50830  39.049  25.202  10.540
82468W        W50831   0.743  38.835   0.749
82469W        W50832  38.470   4.337   1.752
82470W        W50833  26.125  39.960   4.804
82471W        W50834  19.551  20.045  14.355
82472W        W50835  34.970  40.319  11.428
82473W        W50836  36.519  25.074   0.287
82474W        W50837  31.025  16.157   0.450
82475W        W50838  25.594  42.982   4.213
82476W        W50839  41.811  26.558   3.269
82477W        W50840  26.052  18.200   1.792
82478W        W50841   4.286  12.313   3.821
82479W        W50842  28.162  20.754   3.206
82480W        W50843  24.086  33.421  12.938
82481W        W50844  37.013  22.733   3.197
82482W        W50845  40.398  29.568   4.612
82483W        W50846  18.065  24.695   3.701
82484W        W50847  27.621  26.139   4.658
82485W        W50848   9.319   2.388   4.227
82486W        W50849  22.613  15.729  11.019
82487W        W50850   8.247   7.864   2.210
82488W        W50851  41.427  29.102   1.923
82489W        W50852  15.123   0.951  12.466
82490W        W50853  11.365  13.221   4.120
82491W        W50854  37.078   2.412   2.189
82492W        W50855  35.083   1.799   0.309
82493W        W50856  38.510  30.639  10.960
82494W        W50857   5.197  16.601   1.732
82495W        W50858  13.621  40.310  13.045
82496W        W50859   6.677  44.833   0.378
82497W        W50860   2.420  19.111   3.268
82498W        W50861  32.043   4.303   1.408
82499W        W50862  41.382  40.302  14.956
82500W        W50863  31.902   4.424   2.278
82501W        W50864  21.217   0.460   4.299
82502W        W50865   3.954  27.642   4.117
82503W        W50866  33.549  20.727   3.693
82504W        W50867  36.088  29.571  10.514
82505W        W50868  39.043  25.056  14.834
82506W        W50869  20.102  24.147  12.525
82507W        W50870  11.244  19.695  14.923
82508W        W50871  22.191  17.072  12.091
82509W        W50872  42.457  21.693   1.407
82510W        W50873  20.738   6.400   0.816
82511W        W50874  43.962   6.362   4.299
82512W        W50875  33.592  10.317  14.290
82513W        W50876  30.595  16.080  13.463
82514W        W50877  37.483   9.205  14.503
82515W        W50878  28.975  24.642  13.983
82516W        W50879  24.530  20.743  10.631
82517W        W50880  21.673  27.630  10.439
82518W        W50881   6.314  17.060   0.437
82519W        W50882  33.126  39.492   2.245
82520W        W50883  13.776  41.808  11.064
82521W        W50884  32.444   2.403   5.174
82522W        W50885  20.768  14.228   2.729
82523W        W50886  10.146  25.629   3.211
82524W        W50887  20.610  41.360  14.409
82525W        W50888   9.676   7.377   2.227
82526W        W50889  17.076  10.339  13.060
82527W        W50890  15.592  18.743   4.765
82528W        W50891  17.091  43.364  10.091
82529W        W50892  44.865  13.347   1.302
82530W        W50893  15.820  12.234   3.376
82531W        W50894  41.321   9.318  10.522
82532W        W50895  15.602  28.604   2.851
82533W        W50896  22.132   3.255   4.286
82534W        W50897  18.685  30.921   3.864
82535W        W50898  15.234  30.983   0.471
82536W        W50899  30.510  28.622   2.728
82537W        W50900  24.633  16.780   2.840
82538W        W50901   7.194  23.518   2.222
82539W        W50902  40.954  43.398  13.864
82540W        W50903  25.696  14.641  14.970
82541W        W50904  33.532  34.507   2.217
82542W        W50905  41.322  32.501  11.467
82543W        W50906  26.041  13.145   2.297
82544W        W50907  22.232  32.520   3.269
82545W        W50908  39.340  41.834   3.363
82546W        W50909   2.725  17.742   2.388
82547W        W50910  30.565  20.180   4.794
82548W        W50911  40.900  21.121   3.310
82549W        W50912   3.428  28.934   2.395
82550W        W50913  10.801  42.289   4.786
82551W        W50914   2.792  31.598   1.866
82552W        W50915  24.703   3.447  11.021
82553W        W50916   1.450  40.866  11.566
82554W        W50917  44.811  19.244  12.907
82555W        W50918  13.827   6.225  11.417
82556W        W50919   4.698   8.837  14.460
82557W        W50920  26.150  18.570  14.814
82558W        W50921  26.034   3.864   2.832
82559W        W50922  26.063  41.967   1.805
82560W        W50923  44.285  40.511   4.248
82561W        W50924   9.647  22.703  13.496
82562W        W50925  20.118  20.207   4.719
82563W        W50926  22.139   5.420   3.700
82564W        W50927  12.160   1.871  13.991
82565W        W50928   4.445  29.008   1.729
82566W        W50929  39.038  26.040  11.062
82567W        W50930  29.502  14.175  14.858
82568W        W50931  21.080  37.965   4.701
82569W        W50932  31.595  12.330   3.278
82570W        W50933  40.508  40.887   2.383
82571W        W50934  10.163  40.485   1.849
82572W        W50935  30.542  37.464  11.510
82573W        W50936  27.088  12.187  11.980
82574W        W50937  22.202   0.491   3.202
82575W        W50938  18.605  42.424   2.699
82576W        W50939  24.662  20.593  11.583
82577W        W50940  39.999  33.472  11.044
82578W        W50941  36.532  18.253  12.570
82579W        W50942  21.557   4.844   4.605
82580W        W50943   9.774  17.590   0.332
82581W        W50944  17.601  39.489   0.958
82582W        W50945   3.832   6.296  13.796
82583W        W50946   2.833  27.639   3.201
82584W        W50947  41.826  10.311   1.905
82585W        W50948  30.487   1.809   0.431
82586W        W50949  22.574  16.263   0.887
82587W        W50950  19.636   3.435  13.495
82588W        W50951  28.973  39.517  11.951
82589W        W50952   8.383   2.939   1.404
82590W        W50953   6.776   3.419   0.468
82591W        W50954   6.333  37.046   0.746
82592W        W50955  43.479   2.401  12.966
82593W        W50956  40.807  32.975  10.977
82594W        W50957  34.961  35.964  12.440
82595W        W50958  24.584  16.596   2.250
82596W        W50959  19.621   0.444  11.997
82597W        W50960  30.603  31.621  12.036
82598W        W50961   3.755  14.770  13.044
82599W        W50962  37.928  38.854   2.717
82600W        W50963  20.189  14.698   4.707
82601W        W50964  25.633  27.609   4.344
82602W        W50965  38.972  30.949  14.343
82603W        W50966  40.354  14.166   5.110
82604W        W50967  16.213   2.356   0.912
82605W        W50968   4.331  25.669  11.952
82606W        W50969  44.822  34.115  11.447
82607W        W50970   3.354  40.819   1.810
82608W        W50971  44.889  26.615  11.389
82609W        W50972  34.913  27.054  13.953
82610W        W50973  34.478  43.385   0.422
82611W        W50974  24.670  23.647  11.455
82612W        W50975  13.768   2.779   3.869
82613W        W50976   9.268   6.677  12.940
82614W        W50977  35.411   8.888   0.861
82615W        W50978  10.685  32.008   2.380
82616W        W50979  19.073   3.456  11.107
82617W        W50980  14.775  13.613   2.717
82618W        W50981   3.389  42.861  14.359
82619W        W50982   9.741  11.152  14.347
82620W        W50983  44.979  14.195   2.862
82621W        W50984   8.857  36.379  11.417
82622W        W50985  32.502  38.059   2.384
82623W        W50986  41.797   0.475   4.305
82624W        W50987  31.011  36.375   2.242
82625W        W50988   0.425  29.451  14.763
82626W        W50989  15.299  31.938   3.835
82627W        W50990  21.683  19.680   4.625
82628W        W50991  40.474   2.920  11.528
82629W        W50992  32.960  20.143  14.975
82630W        W50993   3.859   4.428   4.787
82631W        W50994  38.889  38.339   5.250
82632W        W50995  14.280  37.407  12.873
82633W        W50996  29.133  25.044  11.590
82634W        W50997  12.160   8.826  12.907
82635W        W50998  41.033  40.936  12.955
82636W        W50999  16.810  24.200  14.026
82637W        W51000  41.911  24.506  14.451
82638W        W51001  13.193  20.620   1.300
82639W        W51002  35.507  37.419   3.285
82640W        W51003  33.971  16.691  10.593
82641W        W51004  25.666  20.179   3.162
82642W        W51005  11.171   0.856  13.489
82643W        W51006  12.154  40.961  14.307
82644W        W51007  21.235   9.191   1.324
82645W        W51008  32.005  31.009   3.239
82646W        W51009   7.414   7.700   2.245
82647W        W51010  36.846  13.125   1.338
82648W        W51011   9.867  42.835  10.501
82649W        W51012  44.457   2.930   2.844
82650W        W51013   6.266  11.319  11.007
82651W        W51014   8.303   8.236   4.286
82652W        W51015   9.767  24.605   1.757
82653W        W51016  35.364  16.755  13.899
82654W        W51017  38.468   6.920  11.875
82655W        W51018  37.963   8.275   3.377
82656W        W51019  21.256  13.348   2.289
82657W        W51020  35.468  28.478   3.243
82658W        W51021  19.175   8.228  13.803
82659W        W51022  24.977  30.914   4.773
82660W        W51023  19.571  29.446   3.629
82661W        W51024   5.267  11.650  11.868
82662W        W51025  12.669  13.721  12.883
82663W        W51026  19.674   3.713  10.430
82664W        W51027   6.799  26.571   1.712
82665W        W51028  25.481   0.872  12.480
82666W        W51029   9.695  41.904   2.760
82667W        W51030  38.038  31.465   0.291
82668W        W51031   1.366  22.601   9.521
82669W        W51032  25.965  26.009  10.940
82670W        W51033   7.791  23.048   0.302
82671W        W51034  22.188   4.730   4.125
82672W        W51035  34.053   7.855  10.968
82673W        W51036  12.129   3.905  12.039
82674W        W51037  14.155   3.919   5.654
82675W        W51038  36.422   8.218  11.865
82676W        W51039  24.642  20.184  13.447
82677W        W51040  14.688  40.970  10.554
82678W        W51041  32.577  37.977   0.459
82679W        W51042  13.268  41.810  13.876
82680W        W51043  33.590  13.189   4.784
82681W        W51044  41.803  32.453  13.541
82682W        W51045  22.700  13.230   3.223
82683W        W51046  27.448  41.963   2.303
82684W        W51047  35.974   8.844   1.704
82685W        W51048   0.977  12.781   4.625
82686W        W51049  10.646  33.038  10.983
82687W        W51050  41.880   6.378   1.708
82688W        W51051   7.750  22.203   1.912
82689W        W51052  41.016  18.640  12.828
82690W        W51053  17.717   7.273   0.819
82691W        W51054   0.312   0.886   4.832
82692W        W51055  44.871  18.114  12.352
82693W        W51056   5.244  24.069  13.952
82694W        W51057  22.048  33.933  11.105
82695W        W51058   2.788  10.661  10.926
82696W        W51059  39.942   9.339  12.955
82697W        W51060  24.584   6.682   1.423
82698W        W51061   3.887  10.357  10.027
82699W        W51062  26.684  18.233  13.808
82700W        W51063  40.966   9.351   2.379
82701W        W51064  43.295  20.663   1.430
82702W        W51065  28.603  39.412   3.798
82703W        W51066  29.553  44.782   4.208
82704W        W51067   0.482   6.394   1.397
82705W        W51068   0.776  13.691   2.268
82706W        W51069  39.486   6.207   1.756
82707W        W51070  44.801   0.428  14.462
82708W        W51071   7.223  25.663   1.429
82709W        W51072  42.413  21.741  13.382
82710W        W51073  18.230  25.098  10.956
82711W        W51074  24.092  19.234   2.199
82712W        W51075  43.826  23.215   1.810
82713W        W51076  26.613   2.751   0.431
82714W        W51077  43.288  18.684  10.888
82715W        W51078  25.060  28.510  14.286
82716W        W51079   9.886  18.710  14.846
82717W        W51080  39.005  43.462   3.291
82718W        W51081  23.080  34.894  12.077
82719W        W51082  40.517  16.192  12.854
82720W        W51083   1.279  16.627   0.931
82721W        W51084  21.725  28.072  12.090
82722W        W51085  10.314   6.418  12.431
82723W        W51086  15.644  14.822   4.690
82724W        W51087  18.750  40.890  11.391
82725W        W51088   5.245   7.762  14.008
82726W        W51089  39.844  14.170   1.898
82727W        W51090   8.318  16.754  14.389
82728W        W51091  43.283  36.540  12.427
82729W        W51092  29.967  28.623  13.439
82730W        W51093  30.601  27.461   2.404
82731W        W51094   5.836   9.370  14.287
82732W        W51095  10.803  41.882   1.772
82733W        W51096   6.753   2.881  10.622
82734W        W51097  12.667  36.967  14.808
82735W        W51098  24.612  17.067   4.824
82736W        W51099  39.058  29.615   1.886
82737W        W51100  26.199  21.711  14.869
82738W        W51101  16.732  35.364   3.298
82739W        W51102  42.316   5.808  10.995
82740W        W51103  24.483  28.530  11.486
82741W        W51104  22.680  13.626   0.900
82742W        W51105  23.097  27.598  12.351
82743W        W51106  27.681  20.632  11.057
82744W        W51107  10.329  38.894   4.120
82745W        W51108   3.308  29.456  10.628
82746W        W51109   7.410  43.874   0.769
82747W        W51110  42.469  41.429   1.787
82748W        W51111   8.729  32.412  14.993
82749W        W51112  22.169  17.749   0.289
82750W        W51113   3.266  18.781   5.314
82751W        W51114  13.165   9.823  14.959
82752W        W51115  34.435  12.153  13.519
82753W        W51116  17.224  17.600   4.262
82754W        W51117  35.949  19.164  13.913
82755W        W51118   4.309   8.877  10.906
82756W        W51119  18.253  40.981  14.913
82757W        W51120  43.853   4.932  14.005
82758W        W51121  10.314   8.817  12.411
82759W        W51122   5.343  15.088  14.830
82760W        W51123  12.193  26.574   0.887
82761W        W51124  17.663   5.383   4.825
82762W        W51125  13.756  39.865   2.877
82763W        W51126  11.126  21.745   4.240
82764W        W51127  38.534  40.887   0.818
82765W        W51128  12.216  29.612  11.421
82766W        W51129  36.858   6.811   1.259
82767W        W51130  19.582  21.656  13.944
82768W        W51131  24.226  12.296  14.866
82769W        W51132  13.734  22.226   1.266
82770W        W51133  37.843  23.693   1.755
82771W        W51134  43.820   4.880   2.363
82772W        W51135  28.142  28.119   9.996
82773W        W51136  34.435   9.261   0.403
82774W        W51137  10.788   2.857   2.800
82775W        W51138  32.067  19.776   1.423
82776W        W51139  31.447  41.327  11.578
82777W        W51140  22.663  16.138  10.536
82778W        W51141  33.967  14.255   2.268
82779W        W51142  15.296  15.643  12.909
82780W        W51143  23.726   0.467   4.627
82781W        W51144  29.644  31.453   1.368
82782W        W51145  30.656  28.456   1.874
82783W        W51146   7.251  10.715  10.521
82784W        W51147  43.421  17.193   4.621
82785W        W51148  29.557  13.826  14.458
82786W        W51149  15.133  29.140  12.559
82787W        W51150  26.050  40.480   0.878
82788W        W51151  24.042  29.625  10.141
82789W        W51152   3.800  27.971   2.283
82790W        W51153   9.280  32.967  12.914
82791W        W51154  30.466  42.895   1.739
82792W        W51155  23.586  29.564  13.927
82793W        W51156  23.671   5.898  13.379
82794W        W51157   5.379  40.856   4.343
82795W        W51158   7.857  31.001   0.765
82796W        W51159  24.152  15.792  14.275
82797W        W51160  16.758  32.127  11.552
82798W        W51161  15.258  26.126  10.906
82799W        W51162   3.873  42.410  10.898
82800W        W51163  34.953  10.177  10.630
82801W        W51164  44.964  42.490  12.365
82802W        W51165  28.440  33.948  13.996
82803W        W51166  39.386  10.749   9.648
82804W        W51167  17.676  13.141   0.445
82805W        W51168  34.563  22.041   0.483
82806W        W51169   9.239  16.141  11.417
82807W        W51170   7.690   1.280   1.786
82808W        W51171  18.602  44.820   2.822
82809W        W51172   9.279  18.071  11.022
82810W        W51173  39.051   1.306   1.880
82811W        W51174   6.748   1.856  11.489
82812W        W51175   9.718  24.985  12.855
82813W        W51176  32.138  29.492   4.158
82814W        W51177  15.706  12.761   2.197
82815W        W51178  44.364  22.036  13.437
82816W        W51179  14.652  28.056  10.961
82817W        W51180  21.153  44.007  14.920
82818W        W51181  15.158  41.929  14.779
82819W        W51182  27.177  31.581   2.416
82820W        W51183  16.273   8.664  10.983
82821W        W51184  17.581   0.308   1.360
82822W        W51185  30.062  27.092   3.332
82823W        W51186  25.558  22.166  10.533
82824W        W51187  34.445   0.882   4.734
82825W        W51188  10.139  35.471   4.827
82826W        W51189  15.707   9.169   2.706
82827W        W51190   1.906  16.239  13.493
82828W        W51191   3.330   8.335   4.731
82829W        W51192  22.537  41.006  11.402
82830W        W51193   6.245  30.519   3.653
82831W        W51194   1.945  31.620  11.926
82832W        W51195  13.198  38.522   0.466
82833W        W51196  32.432  27.158   3.205
82834W        W51197  12.263   6.885   2.726
82835W        W51198   7.260  29.989   4.267
82836W        W51199  31.514  33.982   1.249
82837W        W51200  39.368  23.116   1.231
82838W        W51201  26.483  44.862  12.560
82839W        W51202  39.486  31.090  14.374
82840W        W51203   4.337  43.863   2.316
82841W        W51204  33.539  18.614  14.934
82842W        W51205   0.846  16.774  11.980
82843W        W51206  17.068  43.389  11.543
82844W        W51207  31.906  29.580   0.943
82845W        W51208   3.758  23.678   1.853
82846W        W51209  13.116  19.718   0.482
82847W        W51210  29.148  24.558   0.423
82848W        W51211  16.303  21.517   3.182
82849W        W51212  17.762  33.885  11.930
82850W        W51213   6.818  19.682   0.373
82851W        W51214  39.422  33.954   1.369
82852W        W51215  13.680   1.794   0.372
82853W        W51216   5.403  39.963  12.894
82854W        W51217  23.126  35.997   2.202
82855W        W51218  44.315   7.746  13.933
82856W        W51219   9.220  10.274  10.583
82857W        W51220  10.345  42.348   2.779
82858W        W51221  15.589  38.008  10.075
82859W        W51222  13.623   5.357   2.776
82860W        W51223  24.173  21.587  14.458
82861W        W51224   2.942   6.791   2.851
82862W        W51225   7.718  42.858   4.617
82863W        W51226   7.411  38.460   2.231
82864W        W51227  16.202   2.884   2.800
82865W        W51228  19.535  14.731   3.867
82866W        W51229  31.567  39.478   1.249
82867W        W51230  35.897   7.772  14.785
82868W        W51231   0.868  17.295   4.622
82869W        W51232  20.629  26.173  14.489
82870W        W51233   7.779  40.503  13.901
82871W        W51234  23.712  39.493  11.542
82872W        W51235   6.881   5.738   3.846
82873W        W51236  27.576   7.912  13.960
82874W        W51237  12.202  22.031  13.922
82875W        W51238  43.504  32.612  14.793
82876W        W51239  41.946  11.642  12.928
82877W        W51240  27.547  29.048   1.288
82878W        W51241   2.917  39.417  12.081
82879W        W51242  28.944  33.379   1.787
82880W        W51243  18.747  41.320   4.326
82881W        W51244  21.173  29.580   0.737
82882W        W51245  40.388  21.019   2.805
82883W        W51246   6.306  35.473   4.117
82884W        W51247  25.486  18.105   0.364
82885W        W51248   1.345  39.494  13.825
82886W        W51249  14.687  21.601   0.960
82887W        W51250  26.671   4.884   5.249
82888W        W51251  34.040   7.902  13.889
82889W        W51252  30.107  10.176  12.850
82890W        W51253  30.100  43.445  14.790
82891W        W51254  23.041  15.276   2.861
82892W        W51255   9.705   5.756  11.523
82893W        W51256  15.671   9.657  14.778
82894W        W51257  32.078  25.134  14.829
82895W        W51258  41.792   7.762  13.379
82896W        W51259  14.677   5.905  12.039
82897W        W51260  10.156  36.997   0.864
82898W        W51261   7.377  29.968  11.025
82899W        W51262   5.338  29.098  14.772
82900W        W51263  31.035  11.217  10.406
82901W        W51264   4.833  31.416   3.227
82902W        W51265  30.010   4.811  11.899
82903W        W51266  31.102  37.050   2.800
82904W        W51267   8.250  18.091   3.726
82905W        W51268  22.247  39.938  12.401
82906W        W51269  19.079  41.924  14.909
82907W        W51270  22.543  38.026  12.080
82908W        W51271   4.786   5.853  11.582
82909W        W51272  26.669  32.562  14.493
82910W        W51273  23.103  15.222   4.639
82911W        W51274  21.754  23.121   0.424
82912W        W51275  29.528  34.590  11.375
82913W        W51276  28.075   7.858  10.959
82914W        W51277  28.435   8.748  14.883
82915W        W51278  29.557   4.816   0.961
82916W        W51279  18.254   7.241   1.280
82917W        W51280  14.666  29.050   2.251
82918W        W51281  21.551   1.344  12.875
82919W        W51282  31.080  14.282   1.833
82920W        W51283  34.447  31.133  10.973
82921W        W51284   1.829   8.759  14.389
82922W        W51285   9.235  11.851   4.741
82923W        W51286  15.319  35.601  11.478
82924W        W51287  32.397  44.357   4.778
82925W        W51288  17.710  15.122   3.253
82926W        W51289  33.382  11.192   9.948
82927W        W51290  27.096  32.129  11.873
82928W        W51291  19.112  18.584  12.372
82929W        W51292  43.812  39.387  14.923
82930W        W51293  36.918  12.717   2.664
82931W        W51294  14.797  23.131   1.237
82932W        W51295  33.975  43.490  10.507
82933W        W51296   8.900  18.196  13.001
82934W        W51297  35.943  35.863  13.841
82935W        W51298  15.116  26.668  14.813
82936W        W51299   6.739  11.859  12.829
82937W        W51300  33.886  37.936   1.723
82938W        W51301  30.443  31.042  13.460
82939W        W51302  19.216  32.572  14.921
82940W        W51303  42.434  28.437  14.315
82941W        W51304  19.204  37.427  11.597
82942W        W51305  37.834   0.975  13.953
82943W        W51306  24.656  29.923   0.916
82944W        W51307  16.186   1.344   0.305
82945W        W51308  44.287  37.371   2.798
82946W        W51309  12.790  34.536  11.873
82947W        W51310  41.403  40.974  14.005
82948W        W51311  37.500  18.685   3.223
82949W        W51312   7.760  34.430  14.374
82950W        W51313  29.124  26.964   0.766
82951W        W51314  33.577   9.772   1.241
82952W        W51315  14.751  23.230  12.552
82953W        W51316   0.955  33.891  12.523
82954W        W51317   8.182  37.385   1.721
82955W        W51318  42.844  20.621  13.042
82956W        W51319  12.833   6.248   5.187
82957W        W51320   5.770  29.487  12.045
82958W        W51321  33.128  20.251  14.450
82959W        W51322  23.734  16.275   0.913
82960W        W51323  11.177  33.550  11.374
82961W        W51324  24.149  22.537  12.450
82962W        W51325  31.567   2.958   1.845
82963W        W51326   8.262  24.181  14.298
82964W        W51327  17.081  39.963   2.197
82965W        W51328  19.619   4.317   0.850
82966W        W51329  30.552  16.635   3.866
82967W        W51330  35.387   2.331   2.178
82968W        W51331  37.009  15.303  13.810
82969W        W51332  24.991  42.437   1.894
82970W        W51333  43.881  14.601   1.908
82971W        W51334   8.395  43.455   0.469
82972W        W51335   5.367  17.577  12.074
82973W        W51336  11.662  14.631  12.523
82974W        W51337  35.905   6.723  10.543
82975W        W51338  42.302  37.422  14.797
82976W        W51339  39.815  37.493   0.395
82977W        W51340  18.280  29.001   1.804
82978W        W51341  16.191  14.307  13.547
82979W        W51342  20.736  32.949  14.948
82980W        W51343  32.026  36.965  14.331
82981W        W51344  33.565  39.531   0.324
82982W        W51345  29.962  12.349  13.834
82983W        W51346   7.800  14.320  11.855
82984W        W51347  20.221   6.751  12.495
82985W        W51348  42.349  15.580  10.513
82986W        W51349   6.703  18.223  14.000
82987W        W51350  25.630  19.224  11.585
82988W        W51351  44.279  12.632  14.406
82989W        W51352   9.200  37.963  12.094
82990W        W51353  43.291  38.457   0.428
82991W        W51354  42.299  42.298  12.490
82992W        W51355  31.562   7.344  11.393
82993W        W51356   5.929  23.558  13.023
82994W        W51357  28.062  41.021   1.227
82995W        W51358   6.790  20.106   2.416
82996W        W51359  42.331  24.216   3.647
82997W        W51360  18.701   3.785  11.492
82998W        W51361   1.858  37.830   2.410
82999W        W51362  44.298  24.641  10.634
83000W        W51363  32.989  40.997   0.451
83001W        W51364   5.789  37.005  12.056
83002W        W51365  24.554  28.681   0.861
83003W        W51366  32.539  29.974  14.455
83004W        W51367  13.168   9.384   3.725
83005W        W51368  31.526  26.475  10.561
83006W        W51369   2.354  11.764  11.484
83007W        W51370  10.736  37.836  12.938
83008W        W51371   8.867  30.048   0.823
83009W        W51372  16.230  38.347   3.847
83010W        W51373  10.305  20.570   0.325
83011W        W51374  14.274   6.426   4.249
83012W        W51375  18.587   1.901   0.755
83013W        W51376  10.712  10.369   3.282
83014W        W51377  37.883  13.806   3.661
83015W        W51378   6.370  21.719  10.436
83016W        W51379  13.675   7.756  14.956
83017W        W51380  24.110  29.609   0.417
83018W        W51381  11.315  28.106   0.251
83019W        W51382  22.176  42.820  14.938
83020W        W51383  20.586  38.483   4.717
83021W        W51384  27.171   8.254   0.803
83022W        W51385  25.043  36.375   0.338
83023W        W51386   1.739   6.400  14.836
83024W        W51387   7.324   1.877  10.601
83025W        W51388  37.072   9.244   4.313
83026W        W51389  22.691   1.277   2.779
83027W        W51390   4.214  24.149  11.463
83028W        W51391  35.474  27.627   2.217
83029W        W51392  44.481  20.687   2.326
83030W        W51393  35.420   6.303   0.860
83031W        W51394   7.673  12.178   0.469
83032W        W51395   6.823  31.607  11.478
83033W        W51396  14.767  43.778   2.748
83034W        W51397  16.723  15.307  11.084
83035W        W51398  22.519   3.829  13.317
83036W        W51399   7.361  44.839   4.698
83037W        W51400  32.953  19.244   4.295
83038W        W51401  17.079   5.865   1.872
83039W        W51402  33.547   5.272   0.425
83040W        W51403  26.541  43.817   3.744
83041W        W51404  44.794   4.361  13.914
83042W        W51405  28.070  28.133   2.229
83043W        W51406  37.545   8.281  14.791
83044W        W51407  29.933  34.503   4.232
83045W        W51408  38.569   0.463   0.387
83046W        W51409  25.662  11.196  12.060
83047W        W51410  12.338  33.509   4.624
83048W        W51411  36.391   4.793   4.287
83049W        W51412  17.577  19.612   0.837
83050W        W51413  26.659  15.102  12.404
83051W        W51414  37.001  21.074   1.823
83052W        W51415  26.461  39.521  13.988
83053W        W51416  31.465  31.059   0.942
83054W        W51417  44.901  11.768   3.162
83055W        W51418  15.813  28.597   4.270
83056W        W51419   0.352  43.456   2.870
83057W        W51420  23.008  26.583   5.131
83058W        W51421  19.769   9.373   1.784
83059W        W51422  30.654  22.036  10.639
83060W        W51423  26.466  18.573  10.498
83061W        W51424  39.472  24.504  14.456
83062W        W51425   0.786   1.968   4.740
83063W        W51426   1.738  34.026   1.448
83064W        W51427  38.449  42.002   2.212
83065W        W51428  26.000  20.194  14.816
83066W        W51429  16.084  44.008   4.602
83067W        W51430  37.514   8.169   0.281
83068W        W51431  11.745   4.300   1.743
83069W        W51432  26.969  19.057   2.739
83070W        W51433  42.486  12.801   3.380
83071W        W51434  23.062  12.338   4.310
83072W        W51435  11.821  27.177   4.309
83073W        W51436  28.049  31.141   2.855
83074W        W51437  23.996  42.829  14.473
83075W        W51438   8.369  14.783  13.039
83076W        W51439   0.862   9.353   2.768
83077W        W51440  33.071  37.995  11.398
83078W        W51441   3.921  20.638   4.173
83079W        W51442  16.266  25.009   2.346
83080W        W51443  25.170   4.341  13.921
83081W        W51444  17.294  35.527  11.120
83082W        W51445  17.730  23.710   4.305
83083W        W51446   1.759  39.522   3.857
83084W        W51447  10.749  31.576  14.381
83085W        W51448   6.677  31.630  10.979
83086W        W51449  44.973  35.590   5.600
83087W        W51450  17.629  44.380   3.151
83088W        W51451  19.741  23.677   4.805
83089W        W51452  29.606  17.743   4.637
83090W        W51453   3.278   5.761  12.569
83091W        W51454  31.973  21.663   0.448
83092W        W51455   6.205  10.319   0.918
83093W        W51456   8.167  22.056  14.834
83094W        W51457  19.709  23.082  11.112
83095W        W51458  32.627  15.214  14.288
83096W        W51459  34.059   5.229   0.301
83097W        W51460   2.450  44.294  13.346
83098W        W51461  33.968  38.357  13.442
83099W        W51462  40.417  38.405   1.210
83100W        W51463  32.061  22.609  11.402
83101W        W51464  34.580   4.902   2.341
83102W        W51465  29.488  40.021   1.228
83103W        W51466  42.815  16.642  10.078
83104W        W51467  34.035  26.209   4.218
83105W        W51468  44.999   1.971  10.586
83106W        W51469  33.023  36.031  10.429
83107W        W51470   5.352  28.476   1.727
83108W        W51471  33.127  17.258  10.417
83109W        W51472  16.104   2.265  11.447
83110W        W51473  34.061  31.971  10.584
83111W        W51474   0.767   1.407  14.764
83112W        W51475  17.126  39.527  11.596
83113W        W51476  10.645   3.363   1.876
83114W        W51477  42.903   9.885  10.540
83115W        W51478   3.745  29.038   2.273
83116W        W51479  29.987  24.544   4.270
83117W        W51480  44.901  16.212   1.748
83118W        W51481   1.328   7.725  12.957
83119W        W51482  33.524  19.683   0.426
83120W        W51483  40.870   7.716   4.341
83121W        W51484   5.379  33.531   1.240
83122W        W51485  36.445  24.007   2.221
83123W        W51486  42.287  17.621  14.290
83124W        W51487  38.032  37.515  14.474
83125W        W51488  25.524  42.308  12.898
83126W        W51489  31.144   0.349  12.022
83127W        W51490  22.552   8.328   0.456
83128W        W51491   2.435  23.532   1.799
83129W        W51492  36.995  26.051   1.444
83130W        W51493  37.062  31.432   4.644
83131W        W51494   8.267  30.917   4.355
83132W        W51495   3.887  43.312  14.904
83133W        W51496  21.635  39.375  12.985
83134W        W51497   2.446   0.894   1.843
83135W        W51498  27.972   0.784  14.477
83136W        W51499  35.073  12.833  12.972
83137W        W51500   4.371  40.493   0.834
83138W        W51501   6.897  18.674  14.778
83139W        W51502  40.799  36.842  11.031
83140W        W51503  17.726  16.789  11.411
83141W        W51504  32.901  40.359  10.452
83142W        W51505  44.854  17.149   1.921
83143W        W51506  14.149  35.992  12.420
83144W        W51507  30.973  43.476  10.891
83145W        W51508   2.849  25.542  11.545
83146W        W51509  42.956  36.041   1.844
83147W        W51510   2.417   4.888  14.917
83148W        W51511  38.461   9.762   0.302
83149W        W51512  26.094  25.641   2.717
83150W        W51513   0.881  15.631   2.270
83151W        W51514   0.286  10.250   2.327
83152W        W51515  20.122  12.641   2.662
83153W        W51516  30.654  40.050  13.792
83154W        W51517  43.387  31.030   2.734
83155W        W51518  44.907  26.685   1.751
83156W        W51519  17.135  17.652   9.984
83157W        W51520  28.476  25.988  11.415
83158W        W51521  36.869  27.527  12.370
83159W        W51522  36.088  44.908   2.291
83160W        W51523  11.641   8.165   0.463
83161W        W51524  12.162  28.607   1.708
83162W        W51525  19.065  32.554  11.378
83163W        W51526  43.337  42.381  11.489
83164W        W51527  36.448  39.401  13.311
83165W        W51528  32.957   7.292  14.414
83166W        W51529  11.855  40.954   2.722
83167W        W51530  33.967  36.015  13.954
83168W        W51531  27.082   0.789   2.771
83169W        W51532  15.578  25.983  12.061
83170W        W51533   3.886   4.836   4.625
83171W        W51534  16.314   9.839   0.942
83172W        W51535  26.991  37.932  10.539
83173W        W51536  16.319  38.570   2.363
83174W        W51537  20.146   2.392  10.944
83175W        W51538  35.919  42.440  13.373
83176W        W51539  13.711   5.922  11.446
83177W        W51540  14.748  12.797   0.862
83178W        W51541  31.481   2.384  13.035
83179W        W51542   3.258  30.604   3.698
83180W        W51543  37.926  18.149  14.980
83181W        W51544  12.850  39.376  11.996
83182W        W51545  20.111  12.192   2.419
83183W        W51546  18.282  16.666  10.575
83184W        W51547  29.452   4.839  12.063
83185W        W51548  34.102  31.999   1.384
83186W        W51549   4.438   0.808   3.151
83187W        W51550  39.420  38.415  14.304
83188W        W51551  35.072  42.783   0.790
83189W        W51552  10.289  15.725  12.053
83190W        W51553  12.630  21.211   2.728
83191W        W51554  33.976  25.095   2.785
83192W        W51555  17.139  35.390   3.199
83193W        W51556  24.642   3.796  10.617
83194W        W51557  39.549  35.017   1.390
83195W        W51558  40.421  22.006  11.464
83196W        W51559  26.185  32.490   0.472
83197W        W51560  44.391  44.931   0.801
83198W        W51561   3.928  14.121   4.235
83199W        W51562  43.876  31.105   0.398
83200W        W51563  28.157   6.881  13.053
83201W        W51564  38.045  12.688  14.922
83202W        W51565  38.004  31.063  10.510
83203W        W51566  14.252  16.314   4.619
83204W        W51567  31.050  37.536  12.871
83205W        W51568  21.581  35.949  10.590
83206W        W51569   0.369  13.751   4.120
83207W        W51570  42.339   5.822  10.489
83208W        W51571  22.062  38.825   0.399
83209W        W51572  34.972  10.173   1.268
83210W        W51573  10.257  40.848  10.524
83211W        W51574  16.169  36.520   0.295
83212W        W51575   9.713   6.234  13.388
83213W        W51576  15.688  36.899   0.441
83214W        W51577  40.828  36.437   4.780
83215W        W51578   4.402   5.868  11.542
83216W        W51579  31.130  38.389   4.148
83217W        W51580   9.321  33.026  11.086
83218W        W51581  27.661  13.149  12.469
83219W        W51582  34.607  22.116  10.486
83220W        W51583  19.631  20.179   4.125
83221W        W51584   9.838  14.593  12.449
83222W        W51585  10.232  25.599   2.675
83223W        W51586  18.109   8.763  12.562
83224W        W51587  37.907  16.764  10.617
83225W        W51588  18.162  22.672   4.160
83226W        W51589  41.473  37.549  10.958
83227W        W51590  24.552  26.135  14.986
83228W        W51591  37.939  12.199   3.861
83229W        W51592  32.416  23.071   3.803
83230W        W51593  18.131  37.859  11.400
83231W        W51594  11.267  12.717   1.864
83232W        W51595  41.875  10.828  14.843
83233W        W51596  14.781  30.107   2.831
83234W        W51597  42.946  18.209  14.916
83235W        W51598  28.442  16.091  13.902
83236W        W51599  38.333  44.839   3.832
83237W        W51600  28.973  21.169  14.829
83238W        W51601  42.495   2.470   4.676
83239W        W51602   9.686  13.673  12.525
83240W        W51603  28.146  18.788   3.319
83241W        W51604  31.476   9.782  10.547
83242W        W51605  40.897  42.346   3.154
83243W        W51606  35.073   6.358  11.398
83244W        W51607  15.225  25.998  12.888
83245W        W51608  42.464  11.850  14.437
83246W        W51609   6.793  21.626  14.993
83247W        W51610  22.064  27.091   0.850
83248W        W51611   7.905   5.788  12.852
83249W        W51612  33.606  39.446   1.255
83250W        W51613  35.067  44.311  13.845
83251W        W51614  13.704   1.272  10.902
83252W        W51615  35.421  26.558  11.608
83253W        W51616  35.087   5.238  11.890
83254W        W51617   5.739  34.498   1.430
83255W        W51618  35.601   9.726  14.001
83256W        W51619  16.318   7.225  11.859
83257W        W51620   8.387  35.913  12.357
83258W        W51621  37.995  25.032  10.911
83259W        W51622  33.025  30.459   2.303
83260W        W51623  14.695  39.369   4.204
83261W        W51624  40.944  12.238  11.475
83262W        W51625  23.081  36.870   3.332
83263W        W51626   4.350  29.475   1.436
83264W        W51627  15.749   4.334  14.843
83265W        W51628  42.813   7.237   0.815
83266W        W51629  21.555  23.572   2.228
83267W        W51630  31.565   7.717   2.296
83268W        W51631  40.854  19.536   0.269
83269W        W51632  10.860  22.733   0.256
83270W        W51633   8.805  10.800   1.378
83271W        W51634  15.610  24.155   5.232
83272W        W51635  24.134  37.526   2.219
83273W        W51636  24.677   8.795   3.769
83274W        W51637  17.662  18.145   4.315
83275W        W51638   4.902  12.296   1.720
83276W        W51639  13.700   0.762   2.338
83277W        W51640  43.468  42.520  12.092
83278W        W51641  26.695  20.660  12.546
83279W        W51642  39.827  28.521  13.328
83280W        W51643   6.202  11.821  11.962
83281W        W51644  25.536  21.536  13.058
83282W        W51645  17.150   1.453   0.333
83283W        W51646   3.891   7.259  13.055
83284W        W51647  32.955  21.136   0.335
83285W        W51648  11.849  22.543  12.022
83286W        W51649  19.769  32.436   1.862
83287W        W51650  19.536  41.006  12.881
83288W        W51651   3.261  42.488   2.208
83289W        W51652  16.110  19.539   4.704
83290W        W51653  24.532  36.968  10.608
83291W        W51654  12.273  28.110   1.852
83292W        W51655  15.649  38.934   0.257
83293W        W51656  41.462  12.635  14.767
83294W        W51657  15.299   7.295  13.372
83295W        W51658  24.609   0.430   1.317
83296W        W51659  25.496  30.458   0.914
83297W        W51660  17.658   4.775  14.829
83298W        W51661  21.035  27.131   1.316
83299W        W51662  24.658  29.927   4.281
83300W        W51663  24.005  10.330   1.360
83301W        W51664  11.220   9.750   2.324
83302W        W51665  23.073   7.669  14.447
83303W        W51666  13.635  35.897  11.023
83304W        W51667  39.531  34.389  14.852
83305W        W51668  41.492   5.345  12.832
83306W        W51669  19.620  11.855   1.897
83307W        W51670  20.604  20.568   0.818
83308W        W51671   6.391  18.764   0.459
83309W        W51672  29.455   4.362  11.455
83310W        W51673  13.165   1.890  14.381
83311W        W51674  39.512  43.394   4.272
83312W        W51675  35.076  43.331   4.770
83313W        W51676  43.358  28.446  11.604
83314W        W51677   7.313  38.053  10.943
83315W        W51678  43.393  10.875   0.352
83316W        W51679   5.212  34.424  12.921
83317W        W51680  29.643  12.796  11.382
83318W        W51681   9.334   4.702  11.921
83319W        W51682  19.156  26.581  11.592
83320W        W51683   6.309  35.493  10.579
83321W        W51684  41.805   3.345  13.819
83322W        W51685   1.958  14.721   2.799
83323W        W51686  25.981  39.363   4.717
83324W        W51687  14.690  38.884  12.427
83325W        W51688   0.824  38.484  10.957
83326W        W51689   3.810  35.918  12.848
83327W        W51690  16.685   3.337   1.705
83328W        W51691   6.357  15.700   3.351
83329W        W51692  10.211  37.437  11.012
83330W        W51693  28.185  23.636   5.250
83331W        W51694   2.899  32.905  13.307
83332W        W51695  27.078   5.438   4.233
83333W        W51696  28.002  29.930   0.825
83334W        W51697  12.288   3.319  11.118
83335W        W51698  24.982  31.547   4.168
83336W        W51699  37.507  42.816   1.211
83337W        W51700  27.971  24.566  13.510
83338W        W51701  15.710  41.794   4.643
83339W        W51702  12.173  10.291   4.168
83340W        W51703   1.959  21.198  12.992
83341W        W51704  23.097  15.822   0.475
83342W        W51705  19.259   6.208  10.460
83343W        W51706  39.386  23.177  14.381
83344W        W51707  34.482  10.741   2.809
83345W        W51708  43.943   4.299  11.960
83346W        W51709  37.965  33.501  11.874
83347W        W51710  41.907   6.346  10.111
83348W        W51711  25.092   1.264  13.052
83349W        W51712  18.764  11.846  14.766
83350W        W51713  22.538   6.784   1.868
83351W        W51714  19.053  23.570  10.485
83352W        W51715  28.657  37.920   1.926
83353W        W51716  34.028  20.084  13.442
83354W        W51717  39.328  33.037   3.656
83355W        W51718   8.736  16.245  11.534
83356W        W51719  29.959  16.150  11.400
83357W        W51720  22.584  22.071  12.378
83358W        W51721  21.018  32.895  11.419
83359W        W51722  17.063  43.901   0.251
83360W        W51723   8.383  15.228  14.761
83361W        W51724   2.349   0.987   3.858
83362W        W51725  16.267  13.165  10.993
83363W        W51726  41.937  27.569   2.792
83364W        W51727   4.727  24.722  12.949
83365W        W51728  20.210   1.285  11.502
83366W        W51729  29.539  11.327   0.812
83367W        W51730  31.062   0.916  10.419
83368W        W51731  36.874  27.647   4.662
83369W        W51732  37.044   0.433  14.341
83370W        W51733  10.305  25.646   2.309
83371W        W51734   3.291  14.804  11.892
83372W        W51735  40.402  11.767   4.823
83373W        W51736  14.823   0.846   4.615
83374W        W51737  17.214   4.783   3.257
83375W        W51738  11.162  42.307  12.993
83376W        W51739   3.250  14.694   3.215
83377W        W51740   7.314   9.758  13.871
83378W        W51741  32.109  34.036   0.854
83379W        W51742   7.279  33.923  12.051
83380W        W51743  14.765  41.806   2.209
83381W        W51744   8.893  18.770   1.838
83382W        W51745  30.527  37.856   2.204
83383W        W51746  33.088   2.283   1.261
83384W        W51747  35.916  10.817   4.663
83385W        W51748  24.576  28.518   0.278
83386W        W51749  16.100  39.046   4.728
83387W        W51750  42.816   6.728   0.788
83388W        W51751  28.072  29.999   4.806
83389W        W51752  19.734  26.035   3.786
83390W        W51753  16.300  27.615   1.375
83391W        W51754  24.086  35.559   3.373
83392W        W51755  25.512  34.113   3.701
83393W        W51756  19.088  17.240   2.224
83394W        W51757  20.227  25.706  11.086
83395W        W51758  18.065  14.220  13.400
83396W        W51759  25.011   3.223  13.492
83397W        W51760  27.598  43.473   0.869
83398W        W51761  22.511  44.760   3.658
83399W        W51762   0.443  35.882  13.920
83400W        W51763  40.049  30.134   3.738
83401W        W51764  17.276   7.895   1.725
83402W        W51765  22.527  15.282   2.346
83403W        W51766  34.446  44.762  11.494
83404W        W51767  44.490   3.285  10.511
83405W        W51768   2.256  36.511   2.671
83406W        W51769  25.525  39.002   2.662
83407W        W51770   4.730   9.307   3.200
83408W        W51771  34.545  18.081   1.909
83409W        W51772  11.667  34.035   2.188
83410W        W51773  13.759  16.658   2.258
83411W        W51774  39.522  41.338  11.582
83412W        W51775  32.938   1.438   5.673
83413W        W51776  31.075  37.503   4.201
83414W        W51777  19.664  13.697  13.876
83415W        W51778   5.878   9.674  10.915
83416W        W51779  24.653  16.304  11.377
83417W        W51780  14.236  23.667   3.351
83418W        W51781   2.393  32.087   4.131
83419W        W51782  15.203  12.628  13.470
83420W        W51783  36.506  35.577  13.413
83421W        W51784   4.309  37.004  14.412
83422W        W51785   8.807  31.557  10.925
83423W        W51786  15.795  16.121  12.378
83424W        W51787  44.930  20.756   0.920
83425W        W51788  36.573  31.081  14.502
83426W        W51789  19.171  10.874   2.837
83427W        W51790  14.177  25.549  13.058
83428W        W51791  28.163  21.518  10.532
83429W        W51792   1.935  38.943  14.339
83430W        W51793  30.566  40.006  12.500
83431W        W51794  28.439  23.707  12.517
83432W        W51795  26.201   8.282  13.948
83433W        W51796  33.075  16.706  10.891
83434W        W51797  34.470  15.100  11.396
83435W        W51798  41.899   2.942   1.450
83436W        W51799   1.949  33.383  14.957
83437W        W51800  13.610  33.547  12.351
83438W        W51801  17.561  18.241  13.898
83439W        W51802  30.918  39.320   4.677
83440W        W51803  17.773  40.492   0.359
83441W        W51804  42.779   4.738   3.311
83442W        W51805  10.679  22.563  11.434
83443W        W51806   6.899   4.275  14.331
83444W        W51807   2.902  40.384   3.294
83445W        W51808  43.493  43.934  11.052
83446W        W51809   2.928  41.002  13.007
83447W        W51810  16.593  44.376  14.848
83448W        W51811  36.077  37.059  11.555
83449W        W51812  42.877  25.995   1.259
83450W        W51813  20.629  26.519   1.321
83451W        W51814  19.207  10.207  12.518
83452W        W51815  43.862  23.679  13.946
83453W        W51816  27.094   9.388   0.346
83454W        W51817   3.886  40.417   1.721
83455W        W51818  33.978  21.242   3.757
83456W        W51819  32.996  39.970  12.062
83457W        W51820   6.835  30.130  11.921
83458W        W51821  38.355   0.920   0.400
83459W        W51822  37.008  22.664   0.870
83460W        W51823  35.525  43.797  12.469
83461W        W51824   3.931  23.613  12.580
83462W        W51825  26.175  18.617   1.916
83463W        W51826  22.192  40.879  12.962
83464W        W51827  14.205   8.656   3.295
83465W        W51828  42.004  23.695   4.348
83466W        W51829   1.371  43.886  11.585
83467W        W51830  44.424  18.259   9.970
83468W        W51831  24.550  18.727  11.911
83469W        W51832  28.677  42.836   2.717
83470W        W51833  17.074   4.768  10.904
83471W        W51834  13.181  17.618  13.052
83472W        W51835  40.957  28.155  13.827
83473W        W51836  32.633   1.917   0.965
83474W        W51837  21.019  39.958  12.455
83475W        W51838  25.018  34.476  14.320
83476W        W51839  19.068  10.333   4.292
83477W        W51840  30.551  32.521   2.198
83478W        W51841  26.578  38.000   0.366
83479W        W51842  15.724  23.224  12.344
83480W        W51843  39.513   5.799  10.922
83481W        W51844  34.551  38.465   0.941
83482W        W51845  19.553  24.115  10.924
83483W        W51846  12.296  27.999  10.601
83484W        W51847  31.413   2.354   0.312
83485W        W51848  35.428  19.572  12.916
83486W        W51849  42.849   0.286   4.323
83487W        W51850   4.934  33.553   4.188
83488W        W51851   8.670  20.261   2.202
83489W        W51852  24.495  43.902   0.423
83490W        W51853  17.267  26.696  12.954
83491W        W51854  41.027  35.872   3.246
83492W        W51855  29.937  25.602  14.393
83493W        W51856  17.579   4.318   4.613
83494W        W51857   4.922  25.164   3.723
83495W        W51858  15.716  18.225   2.877
83496W        W51859   9.673  33.515  13.845
83497W        W51860  34.468  21.052  14.964
83498W        W51861   4.911  29.008  13.463
83499W        W51862  30.625  14.648  13.037
83500W        W51863  11.134  33.992  11.107
83501W        W51864  15.797  41.515   9.979
83502W        W51865   9.304  42.478   4.326
83503W        W51866  30.040  31.953   4.750
83504W        W51867  18.617   1.326  12.458
83505W        W51868  10.196  28.008   4.688
83506W        W51869  44.792   7.305   1.934
83507W        W51870  44.309  11.346   0.780
83508W        W51871  20.092  11.146   0.898
83509W        W51872  28.121  19.045  12.888
83510W        W51873  40.006  19.557  12.517
83511W        W51874  33.074   3.770  14.927
83512W        W51875  23.694  39.425   4.671
83513W        W51876  42.958   5.345  11.405
83514W        W51877  44.766  25.177  12.568
83515W        W51878  34.118  25.163  14.924
83516W        W51879  22.021  11.324  14.514
83517W        W51880  43.351   3.923   2.692
83518W        W51881  29.015   1.435   3.291
83519W        W51882  18.679  40.433  12.870
83520W        W51883   3.285  28.958   0.786
83521W        W51884  21.713   6.354   3.868
83522W        W51885  23.003  31.951   0.432
83523W        W51886  26.634  30.967   4.742
83524W        W51887  15.814  13.759  12.073
83525W        W51888   2.870  41.453  13.380
83526W        W51889   6.703  26.070   1.836
83527W        W51890  17.633  42.499  14.009
83528W        W51891  34.896   0.277   9.930
83529W        W51892  16.785  35.491  11.928
83530W        W51893  26.681  25.112   4.124
83531W        W51894  26.146  24.194   1.342
83532W        W51895   9.274  43.885   4.654
83533W        W51896  31.133  30.983   3.235
83534W        W51897  39.066  39.334   4.797
83535W        W51898  30.564  28.112  11.904
83536W        W51899  41.795  20.034   1.393
83537W        W51900  16.215  15.293   0.270
83538W        W51901   1.789   2.937  13.447
83539W        W51902  12.776  29.997  14.405
83540W        W51903  32.579  32.918   3.822
83541W        W51904   3.330  24.174  13.888
83542W        W51905  36.977  35.899   1.847
83543W        W51906   4.768  25.523   2.736
83544W        W51907   9.231  14.307   0.769
83545W        W51908  44.957  18.270  12.957
83546W        W51909  27.161  41.836   3.275
83547W        W51910  36.015  12.245   0.867
83548W        W51911  16.126  23.639  10.934
83549W        W51912  36.052   9.225  13.826
83550W        W51913  36.977  11.152   1.451
83551W        W51914  26.030  11.760  12.836
83552W        W51915  43.426  43.445  11.947
83553W        W51916  43.385  38.034  12.853
83554W        W51917   7.347  39.425  13.467
83555W        W51918  20.749  29.634  14.773
83556W        W51919  40.313  17.639  14.829
83557W        W51920  39.822  35.954   0.445
83558W        W51921  18.273  42.826   0.815
83559W        W51922  38.837   5.320  13.896
83560W        W51923   1.902   2.768   0.345
83561W        W51924   2.926  22.138   5.707
83562W        W51925   0.810  19.276   2.850
83563W        W51926  39.358   3.805   0.426
83564W        W51927  41.035  24.560   1.798
83565W        W51928   8.405  34.946  13.030
83566W        W51929  44.372  12.120   3.214
83567W        W51930  21.054   1.434   1.708
83568W        W51931  31.641   0.747   2.227
83569W        W51932  42.853  23.651   2.279
83570W        W51933   3.353   9.749   1.777
83571W        W51934  16.597  28.143   1.909
83572W        W51935  14.717  12.655   3.870
83573W        W51936  13.664   7.902  11.519
83574W        W51937  36.011   6.828   0.953
83575W        W51938  20.249  19.746  11.562
83576W        W51939   2.888  40.493  11.414
83577W        W51940  31.408  33.568  10.953
83578W        W51941  29.952  33.460   2.399
83579W        W51942  38.378   4.252  12.090
83580W        W51943   3.752   4.238   2.387
83581W        W51944  20.598  28.990   0.418
83582W        W51945  28.543   7.842  11.927
83583W        W51946  27.509  19.196   4.760
83584W        W51947  22.143  30.533   2.880
83585W        W51948  29.450  29.159  14.771
83586W        W51949  12.185   2.798   4.142
83587W        W51950  13.310   2.874   3.365
83588W        W51951  24.201  14.602   3.758
83589W        W51952  33.944  25.211   3.788
83590W        W51953  10.365  25.040   1.328
83591W        W51954  13.779  41.884   3.213
83592W        W51955  16.622  41.511  10.976
83593W        W51956  39.556   5.809   3.357
83594W        W51957   4.928  42.446  11.584
83595W        W51958  19.599  26.123  11.051
83596W        W51959  27.147  29.959   0.937
83597W        W51960  29.632  28.129  12.840
83598W        W51961   4.246  17.140   4.602
83599W        W51962  38.989   7.398  14.894
83600W        W51963  17.269  16.728  10.926
83601W        W51964  22.054  39.888   2.783
83602W        W51965  34.552  43.340   2.244
83603W        W51966  20.756   6.774  13.382
83604W        W51967  29.638  20.102  12.580
83605W        W51968   9.298   6.923  14.825
83606W        W51969   8.252  32.498   0.910
83607W        W51970  39.516  30.046   1.780
83608W        W51971  25.183  21.600   4.764
83609W        W51972   5.810  14.318  14.320
83610W        W51973  26.035  41.361   2.693
83611W        W51974   5.257  18.072   0.769
83612W        W51975  19.229  44.802  13.324
83613W        W51976  14.798  28.506   1.862
83614W        W51977  32.966   4.857  14.900
83615W        W51978  10.791  26.515  14.332
83616W        W51979  31.130  34.920   4.787
83617W        W51980  34.084  22.073  12.557
83618W        W51981   4.840  16.752  13.900
83619W        W51982  41.506   4.396  12.979
83620W        W51983  12.233  16.172  11.932
83621W        W51984  26.525  13.714  14.347
83622W        W51985  10.262  16.134   0.869
83623W        W51986   9.859  29.589  13.390
83624W        W51987  17.144  18.639  13.506
83625W        W51988  33.419   0.947  11.451
83626W        W51989  18.545  17.712   0.454
83627W        W51990  43.780  19.039  11.118
83628W        W51991   0.796  30.072   0.895
83629W        W51992  43.487  37.420  11.546
83630W        W51993  11.787  40.835   3.361
83631W        W51994  13.648   8.282   1.800
83632W        W51995  12.311  32.091  14.763
83633W        W51996  25.982  11.767   0.243
83634W        W51997  39.870  17.684  13.061
83635W        W51998   5.314  38.863   3.379
83636W        W51999   3.778   6.832  11.046
83637W        W52000   3.353  41.383   1.214
83638W        W52001  32.600  10.266   0.401
83639W        W52002  34.416  19.592   0.262
83640W        W52003  14.146  21.557  10.407
83641W        W52004  36.919  13.749   0.327
83642W        W52005  12.265  31.603   2.228
83643W        W52006  15.786  42.511  13.405
83644W        W52007   4.918  39.444  10.605
83645W        W52008   1.323  17.589   1.267
83646W        W52009  44.873   9.276   3.680
83647W        W52010   5.730  38.483  14.760
83648W        W52011   8.810   8.812  10.150
83649W        W52012  40.842  35.032   3.211
83650W        W52013  18.747  22.612  10.461
83651W        W52014  15.650  44.337   1.321
83652W        W52015  24.210  15.138  12.521
83653W        W52016  35.403   4.894   0.453
83654W        W52017  21.261  41.971   0.900
83655W        W52018  21.740  20.191   1.349
83656W        W52019  37.526  37.582   4.801
83657W        W52020  19.188  23.021  11.923
83658W        W52021   9.700  16.806  13.360
83659W        W52022  24.997   3.849   1.801
83660W        W52023  26.604  12.292  14.002
83661W        W52024   3.349  38.869  14.456
83662W        W52025   5.743  32.397   4.291
83663W        W52026  24.702   6.860   4.157
83664W        W52027  43.955  16.119   3.260
83665W        W52028  15.325   9.712   2.707
83666W        W52029   9.262  26.535   0.948
83667W        W52030  30.082  30.084   4.620
83668W        W52031  39.483  15.771   9.963
83669W        W52032  12.719  15.590   0.262
83670W        W52033  18.170  10.228   3.161
83671W        W52034   5.241  14.597  13.313
83672W        W52035  36.385   9.341  14.393
83673W        W52036  23.192  27.147  13.325
83674W        W52037  13.350  26.694   1.816
83675W        W52038  12.663  41.413  14.954
83676W        W52039  19.543  17.203  12.824
83677W        W52040  41.389   4.826  11.001
83678W        W52041   3.877  22.687  11.412
83679W        W52042  18.616  39.413  11.424
83680W        W52043   2.873  40.392   1.883
83681W        W52044  16.649  27.603   0.854
83682W        W52045  19.732  17.596  12.513
83683W        W52046   7.875  32.612   0.965
83684W        W52047  17.771  41.829   0.845
83685W        W52048  21.606  40.364  12.525
83686W        W52049   2.260   3.278   2.250
83687W        W52050  12.242  14.730  11.524
83688W        W52051  28.966  31.072   0.425
83689W        W52052   8.257  37.397  11.909
83690W        W52053   7.824   6.901  14.964
83691W        W52054  32.635  27.675  11.575
83692W        W52055  16.312  41.932  14.863
83693W        W52056  33.883  16.196   2.877
83694W        W52057   2.824  21.069   1.796
83695W        W52058  15.281  35.986   2.200
83696W        W52059  13.349  35.064   2.327
83697W        W52060  25.092   9.686  10.921
83698W        W52061  22.236   7.375   4.645
83699W        W52062  21.674  43.764  13.976
83700W        W52063  24.103   9.712   1.299
83701W        W52064  19.120  16.790  14.761
83702W        W52065  44.965  26.104   4.332
83703W        W52066  11.808   4.366  13.541
83704W        W52067  31.122  18.119  11.522
83705W        W52068  38.462  15.127  14.811
83706W        W52069  44.878  21.038  10.471
83707W        W52070   5.737  30.499   4.221
83708W        W52071  19.218   5.860   2.252
83709W        W52072  39.933   9.873  14.398
83710W        W52073  44.505  22.234   4.263
83711W        W52074  23.690  21.189  14.301
83712W        W52075   1.845  22.567   2.854
83713W        W52076  36.017  25.650  11.963
83714W        W52077  44.492  17.094  12.938
83715W        W52078   3.811  19.562  14.840
83716W        W52079  11.346  39.979  11.469
83717W        W52080  34.376  38.048   2.662
83718W        W52081  11.151  22.534   3.662
83719W        W52082  38.011  23.634  11.089
83720W        W52083  39.030  10.764   9.991
83721W        W52084  39.530  21.260  13.507
83722W        W52085  43.822  10.660   0.406
83723W        W52086  38.868  19.711   4.706
83724W        W52087  39.009  17.770   5.285
83725W        W52088   5.825  39.447  11.383
83726W        W52089  41.404  27.556  13.986
83727W        W52090  20.642  22.521   0.301
83728W        W52091   1.296  26.680   0.826
83729W        W52092  43.430  34.539  13.858
83730W        W52093   8.658   3.244  10.978
83731W        W52094  43.480  36.996   3.691
83732W        W52095  38.847  28.046  12.002
83733W        W52096  23.597  26.051   2.899
83734W        W52097   5.429  19.179   1.224
83735W        W52098  44.459  18.079   4.218
83736W        W52099  10.179   0.367   4.250
83737W        W52100  22.223   5.211   0.842
83738W        W52101   7.880  33.908   4.348
83739W        W52102  17.666  39.033   1.878
83740W        W52103  22.118  38.423  14.360
83741W        W52104  32.512  33.103  11.575
83742W        W52105  18.158  18.609  11.464
83743W        W52106   0.318  21.620  12.046
83744W        W52107  22.012  10.257   1.370
83745W        W52108  39.001   0.305  10.132
83746W        W52109   6.786   8.708   1.887
83747W        W52110  23.658  22.171   0.457
83748W        W52111  42.403   4.764   4.644
83749W        W52112  15.609  34.433   4.223
83750W        W52113   2.267   2.806   3.682
83751W        W52114  31.519  37.897   1.881
83752W        W52115   3.236  33.008  12.905
83753W        W52116   4.440   3.402  11.454
83754W        W52117  19.649  12.311  11.090
83755W        W52118  43.315  12.260   1.863
83756W        W52119  17.637  11.227  14.942
83757W        W52120  14.630  24.073   4.610
83758W        W52121  38.530  40.040   2.850
83759W        W52122  29.021  18.237  14.510
83760W        W52123   6.910  39.980   1.908
83761W        W52124  39.498  13.331   3.811
83762W        W52125  25.131  40.317  13.867
83763W        W52126  13.252   1.913  11.856
83764W        W52127  27.664  15.180   0.844
83765W        W52128  35.876  15.620  10.488
83766W        W52129  31.454  34.575   2.316
83767W        W52130  15.296  19.564   3.800
83768W        W52131  26.459   6.191   5.143
83769W        W52132  25.122  19.563   3.320
83770W        W52133  11.784  35.951   4.770
83771W        W52134  24.085  22.692   1.934
83772W        W52135  14.778  10.144   3.297
83773W        W52136   7.195   6.276  11.049
83774W        W52137  43.484  35.886   0.450
83775W        W52138  41.877  43.443  10.612
83776W        W52139  23.654  37.436   2.367
83777W        W52140  33.041   2.333  13.481
83778W        W52141  11.271  16.786  13.339
83779W        W52142  31.119  40.520  10.995
83780W        W52143  11.711  23.658  12.050
83781W        W52144  39.063   4.285   4.205
83782W        W52145  29.087  17.243   1.242
83783W        W52146  30.101  19.132   1.931
83784W        W52147  16.304  13.630   0.939
83785W        W52148  41.405   4.713   0.824
83786W        W52149  33.561  21.581  13.814
83787W        W52150  41.910  29.086  14.388
83788W        W52151  41.846  35.359  14.936
83789W        W52152  29.579   0.264  14.919
83790W        W52153  27.650   3.364   0.383
83791W        W52154   6.922  35.378  11.961
83792W        W52155  26.148   4.233  14.434
83793W        W52156  22.154  14.704   3.256
83794W        W52157  30.529  23.143  14.275
83795W        W52158  15.588  36.542  11.964
83796W        W52159   1.270  12.163  11.008
83797W        W52160  36.032  16.599  11.973
83798W        W52161  20.583   5.869  12.041
83799W        W52162  41.350   6.821   3.173
83800W        W52163   1.949   6.762   4.153
83801W        W52164  43.486  18.680  10.478
83802W        W52165  10.247  12.650  11.548
83803W        W52166  25.032   6.305  11.409
83804W        W52167   2.406  36.062   3.813
83805W        W52168  35.885   2.774  11.566
83806W        W52169   2.898  13.212  12.840
83807W        W52170  22.190  23.620   4.249
83808W        W52171  16.072  39.546   2.667
83809W        W52172  16.234  25.998   3.778
83810W        W52173  39.449  23.188   3.832
83811W        W52174  31.073   1.464   4.291
83812W        W52175  19.160  18.119   3.845
83813W        W52176   4.405   5.696   2.774
83814W        W52177   2.819  29.128   3.660
83815W        W52178  17.266  44.443   3.806
83816W        W52179   2.792  12.349   0.462
83817W        W52180   6.831   7.287  14.806
83818W        W52181  16.168   2.391   2.800
83819W        W52182  34.885  22.177  14.331
83820W        W52183   9.793   9.149  14.012
83821W        W52184  11.131  17.652   2.282
83822W        W52185  16.094  13.777  13.948
83823W        W52186  24.122  13.764  11.436
83824W        W52187   2.386  22.156  10.976
83825W        W52188  21.532  32.923  10.631
83826W        W52189  25.060  37.927  11.908
83827W        W52190  24.538  34.114   4.187
83828W        W52191  10.261  37.504   4.311
83829W        W52192  40.398  17.257  11.872
83830W        W52193  26.580   6.241  13.413
83831W        W52194  25.144  32.119   5.211
83832W        W52195  42.394  33.478   3.823
83833W        W52196  39.956   4.942   0.470
83834W        W52197   6.733  26.469   0.768
83835W        W52198  19.247  11.658   4.613
83836W        W52199   4.331  16.152   3.745
83837W        W52200  15.754   3.887   0.389
83838W        W52201  20.114  23.130  11.060
83839W        W52202  29.119   4.311  10.990
83840W        W52203  22.720   0.763   2.245
83841W        W52204  11.703  15.197  13.862
83842W        W52205  28.524  35.502  13.470
83843W        W52206   5.299  36.077  13.399
83844W        W52207  12.217  40.807  10.479
83845W        W52208  18.226  12.128  13.902
83846W        W52209  20.595  14.096   4.162
83847W        W52210  30.090   7.761   2.703
83848W        W52211   7.294  40.856   4.140
83849W        W52212  26.079  10.685   3.354
83850W        W52213  23.580  18.619   1.774
83851W        W52214   3.783   3.289   3.182
83852W        W52215  21.253   3.412   4.710
83853W        W52216  28.435  40.914   0.264
83854W        W52217  27.487   8.168   4.787
83855W        W52218  23.175   0.966   0.341
83856W        W52219  27.617  43.925  12.953
83857W        W52220  17.574   1.259  14.906
83858W        W52221  19.068  11.361  13.880
83859W        W52222   0.377   5.326   4.662
83860W        W52223  43.382   4.832  14.498
83861W        W52224  26.660  27.477  14.999
83862W        W52225  38.339  12.718   4.160
83863W        W52226  11.238  18.167   0.905
83864W        W52227   9.790   3.458   0.807
83865W        W52228   3.769  41.477  11.034
83866W        W52229  22.036  29.127   4.832
83867W        W52230  10.689  17.104  14.907
83868W        W52231  23.038  31.519  13.455
83869W        W52232  32.134  12.289  12.944
83870W        W52233   6.238   6.856  10.908
83871W        W52234  29.021   3.894   2.290
83872W        W52235  29.942  38.444  11.910
83873W        W52236  25.545  16.743  11.010
83874W        W52237   6.892  40.459   4.791
83875W        W52238  35.434  26.021  14.857
83876W        W52239  21.045   9.727  12.419
83877W        W52240  10.832  39.505  14.453
83878W        W52241  29.058  20.191   4.629
83879W        W52242   7.787  21.056  14.822
83880W        W52243  23.094  32.552  11.507
83881W        W52244   9.186   9.165   2.819
83882W        W52245  42.442  41.386  14.986
83883W        W52246  20.690  27.184   0.478
83884W        W52247  21.653  12.311  14.502
83885W        W52248  27.001  14.217   5.674
83886W        W52249  13.700  14.677  11.585
83887W        W52250  42.319   8.799  13.985
83888W        W52251  35.565  22.204  12.096
83889W        W52252  11.141  20.586  11.036
83890W        W52253  11.754  24.206   0.329
83891W        W52254  16.801  43.787  13.487
83892W        W52255   6.746  21.143  13.451
83893W        W52256  24.599   0.902   3.384
83894W        W52257   1.240  24.576   0.360
83895W        W52258  28.621   8.165  14.406
83896W        W52259  20.570   6.345  11.047
83897W        W52260  43.934  14.733   3.814
83898W        W52261  25.618  37.514   0.368
83899W        W52262  35.471  23.182  10.474
83900W        W52263  30.070   5.251  12.341
83901W        W52264  11.256   7.313   3.242
83902W        W52265  26.096   4.234   4.812
83903W        W52266   1.404  17.620  12.453
83904W        W52267  16.219   4.907  10.601
83905W        W52268  34.872  42.299   0.820
83906W        W52269  29.574   4.787  14.784
83907W        W52270  21.709  22.225  10.951
83908W        W52271  10.766  39.515  11.078
83909W        W52272   7.778  43.825  13.500
83910W        W52273  29.138  28.474   3.844
83911W        W52274  25.621  18.642   4.609
83912W        W52275  28.646  35.917  12.555
83913W        W52276  21.064  27.536  11.453
83914W        W52277  36.913  34.584  10.593
83915W        W52278  11.849  34.602  14.991
83916W        W52279  39.484  18.096   1.896
83917W        W52280   2.817  40.001  13.890
83918W        W52281  23.021  19.705  14.473
83919W        W52282  30.530  31.982   3.190
83920W        W52283  31.953  14.636  13.325
83921W        W52284  34.565   4.278  14.966
83922W        W52285  16.174  38.489  12.850
83923W        W52286   6.261  27.119  13.856
83924W        W52287   7.773   8.797  13.489
83925W        W52288  19.213  18.752  14.499
83926W        W52289   7.406   7.703   0.483
83927W        W52290  26.126  19.100   2.202
83928W        W52291  15.667   0.267  10.920
83929W        W52292  23.530  16.742  11.874
83930W        W52293  36.399  43.440  13.948
83931W        W52294   3.238  11.627   0.914
83932W        W52295  12.324  30.434  13.866
83933W        W52296  27.996  30.155   3.218
83934W        W52297  22.063   6.289  10.958
83935W        W52298  31.545   1.970   2.309
83936W        W52299  33.463  34.052   3.381
83937W        W52300  25.533  32.447  11.597
83938W        W52301  11.749  21.027  11.968
83939W        W52302  35.050  33.031  11.534
83940W        W52303  20.718  18.220  13.384
83941W        W52304   3.325  25.035  14.306
83942W        W52305  28.505  41.484  12.503
83943W        W52306   8.658  36.399   0.287
83944W        W52307   1.304   4.242  10.935
83945W        W52308  14.594  34.056   3.356
83946W        W52309  44.260   5.708   1.815
83947W        W52310  17.200  19.181  10.003
83948W        W52311  26.504  27.123   4.707
83949W        W52312  20.523  14.248  12.088
83950W        W52313  24.624  30.523   1.333
83951W        W52314   2.472  37.083   2.348
83952W        W52315  29.959  32.092  12.881
83953W        W52316  23.627  16.569  14.025
83954W        W52317  18.651   6.348   3.657
83955W        W52318  15.653  31.447   3.285
83956W        W52319  39.327  18.642   2.776
83957W        W52320  37.447  31.995  10.035
83958W        W52321  34.002  18.274  12.080
83959W        W52322   9.217   8.177   2.390
83960W        W52323   0.779   2.911  14.875
83961W        W52324   1.929  37.459   4.280
83962W        W52325  33.900  29.488   1.254
83963W        W52326  15.134  42.319   0.404
83964W        W52327   4.410   6.904  10.522
83965W        W52328  15.710  16.095  14.507
83966W        W52329  14.307   5.384   3.660
83967W        W52330   5.389   2.369   4.814
83968W        W52331  32.891   2.910  12.399
83969W        W52332  10.297   9.749  13.031
83970W        W52333  27.957  22.055   0.907
83971W        W52334  31.489  44.929   4.806
83972W        W52335  42.895  41.416   0.318
83973W        W52336   1.756   3.292   1.315
83974W        W52337  43.402  38.915  14.311
83975W        W52338  42.414   3.894   0.800
83976W        W52339  36.513   3.249  12.538
83977W        W52340  10.858  15.588  11.883
83978W        W52341  37.496  18.757   1.751
83979W        W52342  40.368  32.042   1.819
83980W        W52343   8.805  33.131  14.297
83981W        W52344  22.742  10.661  11.373
83982W        W52345  38.466  41.023  14.952
83983W        W52346  24.702  11.818   3.739
83984W        W52347   7.806  44.976  13.839
83985W        W52348   5.300  31.626   2.399
83986W        W52349   2.816  11.682   4.254
83987W        W52350   1.313  29.150   1.429
83988W        W52351  18.664   6.769  11.448
83989W        W52352   7.894  44.276  10.509
83990W        W52353  17.086  44.002  12.828
83991W        W52354   7.702  11.815   3.867
83992W        W52355  15.148   4.268   2.881
83993W        W52356  33.916  15.264  12.439
83994W        W52357  31.976  33.556  10.617
83995W        W52358  14.325  28.104   2.309
83996W        W52359  44.816  44.961  14.801
83997W        W52360   9.192  12.243  10.999
83998W        W52361  28.504  32.001  12.892
83999W        W52362  10.256  44.920   0.444
84000W        W52363  44.305  12.855   4.776
84001W        W52364   6.188  14.130  14.799
84002W        W52365  28.562  19.238  12.383
84003W        W52366  14.754  43.000   2.880
84004W        W52367  19.217  30.007   4.615
84005W        W52368   7.251   5.875   0.470
84006W        W52369  40.475  32.497   1.268
84007W        W52370  35.372  11.129  14.812
84008W        W52371  41.414  18.589  14.866
84009W        W52372   4.903  23.031  12.972
84010W        W52373  10.140  11.722  13.887
84011W        W52374  19.141   9.336  10.586
84012W        W52375  43.834   4.870   0.756
84013W        W52376  15.663  41.851   2.843
84014W        W52377  14.220  18.289  13.056
84015W        W52378  12.644  35.498  12.070
84016W        W52379   4.911   3.873   3.710
84017W        W52380   8.670  39.808   3.856
84018W        W52381   5.303  43.985  13.354
84019W        W52382   0.866  26.644   2.406
84020W        W52383   8.895  34.944   4.680
84021W        W52384  36.060  31.444   3.630
84022W        W52385  12.832  15.249  14.877
84023W        W52386   5.406  26.105   4.249
84024W        W52387  14.273   6.718   2.322
84025W        W52388  35.509   0.429   2.259
84026W        W52389  36.884   8.379  13.331
84027W        W52390  11.162  27.121  11.474
84028W        W52391  11.630  14.331  13.485
84029W        W52392  28.608   8.309  14.868
84030W        W52393  23.015  43.469   3.290
84031W        W52394   8.325   1.751   3.841
84032W        W52395   5.894  16.607  13.044
84033W        W52396  34.524  23.239   4.669
84034W        W52397  44.890  32.076  14.814
84035W        W52398  37.076   1.854   2.293
84036W        W52399  37.067  35.485  10.948
84037W        W52400  32.997  31.937  10.520
84038W        W52401   1.896  40.936   3.252
84039W        W52402  30.956  11.288   1.350
84040W        W52403  28.066  33.115   4.139
84041W        W52404   1.770  12.247  14.506
84042W        W52405  24.564  25.537   3.814
84043W        W52406  32.544  36.859  12.077
84044W        W52407  10.695  28.000  10.128
84045W        W52408  40.497  38.021   0.396
84046W        W52409  20.718  13.192  13.312
84047W        W52410  12.116  17.646   3.357
84048W        W52411  41.874  27.082  10.480
84049W        W52412  15.685  20.092   3.284
84050W        W52413  13.767  40.043  13.383
84051W        W52414  31.095  29.926  12.081
84052W        W52415   2.260   1.768  11.075
84053W        W52416  25.474  41.795  14.786
84054W        W52417   4.434  24.703  10.616
84055W        W52418   5.344  22.224  11.371
84056W        W52419   7.720  38.920   0.962
84057W        W52420  13.129  18.197  10.147
84058W        W52421  37.452   9.763   3.844
84059W        W52422  35.464  41.953   0.330
84060W        W52423  43.481  11.793  13.312
84061W        W52424  13.762   1.951  14.354
84062W        W52425   3.862  34.055   2.340
84063W        W52426  19.621   3.339  10.988
84064W        W52427  38.860  28.960   2.731
84065W        W52428  25.646  18.603  12.870
84066W        W52429  35.537   8.160  10.638
84067W        W52430  15.684   5.376  10.918
84068W        W52431  35.537  44.416   2.774
84069W        W52432  29.981  15.114  14.391
84070W        W52433  28.014   5.402  14.414
84071W        W52434   7.184  31.108  12.360
84072W        W52435  10.685  43.505   2.771
84073W        W52436  41.888  22.129  13.918
84074W        W52437   9.827  32.050   0.361
84075W        W52438  30.556  20.043   1.809
84076W        W52439   6.820  42.987  14.899
84077W        W52440  18.237  31.480   4.219
84078W        W52441   8.672   4.887   2.323
84079W        W52442  15.583  22.568  14.934
84080W        W52443   7.890  37.952  13.004
84081W        W52444  10.382  36.033   2.195
84082W        W52445  12.222  32.984  12.880
84083W        W52446   8.656  11.330  12.023
84084W        W52447  10.875   9.668   2.775
84085W        W52448  32.039  19.097   3.195
84086W        W52449  37.340  31.107   3.253
84087W        W52450  22.163  38.904   3.741
84088W        W52451  42.999  42.361   1.789
84089W        W52452  19.189  18.602  11.608
84090W        W52453  10.167   1.468  14.490
84091W        W52454  29.581   0.433  10.562
84092W        W52455  18.099  41.888  13.360
84093W        W52456   3.754  34.994  11.015
84094W        W52457  17.557   5.217  13.980
84095W        W52458   0.933  30.134  13.925
84096W        W52459   5.822  35.896   0.290
84097W        W52460   9.747   0.762   4.334
84098W        W52461  43.846  36.067  14.433
84099W        W52462  36.591   7.182   4.691
84100W        W52463  10.338  23.540   2.317
84101W        W52464  44.833  38.973   4.137
84102W        W52465  15.226   7.370   1.321
84103W        W52466  23.533  21.642   1.712
84104W        W52467  36.450  22.124   3.150
84105W        W52468  36.086  24.119   1.846
84106W        W52469  22.650  23.086   0.932
84107W        W52470   8.182   3.817  14.469
84108W        W52471   3.330   9.197   2.726
84109W        W52472  33.113  41.330  13.471
84110W        W52473  23.031  17.135   0.900
84111W        W52474  32.070   3.772   4.189
84112W        W52475  24.087  34.486   1.257
84113W        W52476  13.772  37.475  11.900
84114W        W52477  37.466  19.639  12.400
84115W        W52478  22.228  33.483  14.393
84116W        W52479  41.888  27.944  13.312
84117W        W52480  32.096  32.412   4.797
84118W        W52481  10.661  25.598   3.185
84119W        W52482  24.554  18.166  12.354
84120W        W52483  28.491  28.620  14.029
84121W        W52484  25.478  28.580   3.813
84122W        W52485  15.107  40.308  11.494
84123W        W52486  35.023   0.420   4.276
84124W        W52487  35.601  40.980  11.094
84125W        W52488   2.394  27.122   3.802
84126W        W52489  26.072  19.715   1.902
84127W        W52490  13.752  43.270   1.409
84128W        W52491   1.896   3.398   0.313
84129W        W52492   4.800  13.760   3.669
84130W        W52493  23.498  36.042   0.380
84131W        W52494  44.419   0.322  13.026
84132W        W52495  41.952  20.737  10.482
84133W        W52496  36.551  23.502  13.861
84134W        W52497   3.712   1.476  12.385
84135W        W52498  14.747  39.455  14.026
84136W        W52499  40.969  33.064   1.313
84137W        W52500   7.281   4.840  11.914
84138W        W52501  14.631   5.835   4.724
84139W        W52502  24.053  36.577  12.360
84140W        W52503  22.501  10.647  10.487
84141W        W52504  12.710  21.721  13.960
84142W        W52505  22.638  12.146   1.842
84143W        W52506  31.457  23.014   2.193
84144W        W52507  36.000  41.902   2.728
84145W        W52508  24.177  34.414  10.904
84146W        W52509  40.422  37.354   5.115
84147W        W52510  42.793  18.228  10.406
84148W        W52511  20.212  33.432  12.457
84149W        W52512  17.766  32.550   3.198
84150W        W52513   1.472  39.514  12.519
84151W        W52514  14.105  18.764  10.150
84152W        W52515  20.232  29.425   1.232
84153W        W52516  37.062  12.193  10.575
84154W        W52517  21.582  15.150  14.475
84155W        W52518  21.718   6.296   3.322
84156W        W52519  31.115  28.147  11.059
84157W        W52520  33.975  30.156  10.926
84158W        W52521   6.318  13.835   1.392
84159W        W52522  22.633  20.177   4.745
84160W        W52523  26.680  33.944  10.502
84161W        W52524   2.884  33.129   1.291
84162W        W52525  25.186  20.049   5.127
84163W        W52526  38.984  30.471   2.739
84164W        W52527  35.898   0.800   1.808
84165W        W52528   8.805  15.171  10.607
84166W        W52529  20.636  30.100  13.801
84167W        W52530  10.702  37.917  14.373
84168W        W52531   4.204  43.993   2.740
84169W        W52532  37.991  22.566  13.916
84170W        W52533  18.725  10.714  12.903
84171W        W52534  36.975  14.309   3.866
84172W        W52535  17.601   8.764   3.663
84173W        W52536  26.543  12.734  11.553
84174W        W52537  15.631  22.028   4.634
84175W        W52538  14.265  32.414  14.452
84176W        W52539   1.764   1.374   4.783
84177W        W52540  28.506  39.348   3.168
84178W        W52541  18.700   6.221   3.373
84179W        W52542  33.586  44.790  10.961
84180W        W52543  17.601  16.255  12.006
84181W        W52544   9.307   4.712   4.307
84182W        W52545  32.022  39.408   0.854
84183W        W52546  11.827  12.199   4.242
84184W        W52547   0.392  10.185  13.449
84185W        W52548  27.132  31.150   4.353
84186W        W52549  11.629  27.632   3.735
84187W        W52550   2.806  12.815   0.337
84188W        W52551  37.558  28.144   3.225
84189W        W52552   3.725   2.770   1.910
84190W        W52553   0.983  13.309  12.884
84191W        W52554  38.966  23.988  14.439
84192W        W52555   2.354  34.883  13.046
84193W        W52556  20.733  13.674   0.273
84194W        W52557  32.558   3.852   0.962
84195W        W52558  39.975  40.422  13.418
84196W        W52559  38.960  36.013  13.313
84197W        W52560  28.482   6.391   1.763
84198W        W52561   8.663  17.725   4.204
84199W        W52562  32.137  14.307  11.931
84200W        W52563  31.526  22.705  11.126
84201W        W52564   1.263  13.269   4.279
84202W        W52565  36.375  36.985   0.863
84203W        W52566  36.517   7.375  12.998
84204W        W52567  27.513  15.122  14.387
84205W        W52568  15.217  28.932   0.270
84206W        W52569  16.739  21.202   3.763
84207W        W52570  26.668   9.732  13.878
84208W        W52571  25.069  39.314   2.222
84209W        W52572  38.540  19.678   4.718
84210W        W52573  20.166  24.597   1.314
84211W        W52574  16.143  13.294  12.508
84212W        W52575   6.417  21.128   2.733
84213W        W52576  12.818  31.963  14.777
84214W        W52577   8.189  32.557  14.831
84215W        W52578   2.432  24.008  13.390
84216W        W52579  17.139  32.987  12.922
84217W        W52580  18.560  40.504   2.349
84218W        W52581  31.507  15.282  10.590
84219W        W52582  27.572   9.317  10.513
84220W        W52583  28.449  27.614   1.364
84221W        W52584  42.997  10.735  11.908
84222W        W52585  33.469   4.429   2.827
84223W        W52586  19.256  11.699   3.363
84224W        W52587   8.737  15.747  10.591
84225W        W52588  26.548  19.224   1.894
84226W        W52589  34.446  42.359   0.444
84227W        W52590  27.656  18.671   0.881
84228W        W52591  37.571  37.046  12.836
84229W        W52592  22.566   2.293   1.295
84230W        W52593  33.129   1.940   3.263
84231W        W52594   9.780  24.011  11.499
84232W        W52595  26.999  25.217  14.951
84233W        W52596  44.846  15.205  10.912
84234W        W52597   3.347   8.355   2.862
84235W        W52598  31.114  11.801  14.783
84236W        W52599   9.868  16.210   3.382
84237W        W52600  10.656   7.272  11.019
84238W        W52601  27.057   2.964   3.205
84239W        W52602   8.864  29.937   1.713
84240W        W52603  28.493  12.731   0.387
84241W        W52604  22.056   3.772  14.515
84242W        W52605   2.914   2.959   0.333
84243W        W52606  16.705  16.266   9.633
84244W        W52607  15.703   6.339  13.955
84245W        W52608  16.259  41.302  11.393
84246W        W52609  43.452  43.002   5.195
84247W        W52610   8.270  11.760  12.983
84248W        W52611  13.294   4.781  12.346
84249W        W52612  12.640  16.183   3.208
84250W        W52613  42.024  31.573   4.343
84251W        W52614   3.862   3.858   1.923
84252W        W52615  41.850   6.837   2.894
84253W        W52616  14.716  21.667   1.332
84254W        W52617  11.783  15.223   0.795
84255W        W52618  43.771  16.765   2.667
84256W        W52619  38.874  31.441  14.798
84257W        W52620   2.789   7.391   3.177
84258W        W52621  23.493  36.464  13.464
84259W        W52622  14.706  21.112  10.001
84260W        W52623  10.833  34.384   0.307
84261W        W52624  10.660  36.088   1.731
84262W        W52625  35.374  26.613  11.064
84263W        W52626  35.017  19.189  13.865
84264W        W52627  44.983  19.259  10.514
84265W        W52628   3.375   5.267   1.315
84266W        W52629  18.740  43.412  10.141
84267W        W52630   1.930  31.926  14.841
84268W        W52631   7.292  34.105   3.226
84269W        W52632   0.424  27.122   0.963
84270W        W52633  21.055  17.646  13.458
84271W        W52634  20.230  18.063  12.348
84272W        W52635  27.181  19.640  12.029
84273W        W52636  29.039  30.051  13.396
84274W        W52637  38.962  15.664  11.050
84275W        W52638   0.799  36.957   5.162
84276W        W52639  32.510  36.436   2.898
84277W        W52640  18.635  25.689  10.957
84278W        W52641  31.079  29.007   2.355
84279W        W52642  26.480  10.311   1.907
84280W        W52643  22.674  21.048  11.506
84281W        W52644   0.374  13.678  13.526
84282W        W52645  37.459  20.239   3.350
84283W        W52646   5.389  19.613  14.763
84284W        W52647  36.499  11.129  13.482
84285W        W52648  41.863  11.748  13.935
84286W        W52649  31.964  16.096  14.992
84287W        W52650  16.206  44.465   1.902
84288W        W52651  12.349  29.172  13.929
84289W        W52652  33.514   1.760  10.024
84290W        W52653   9.227  34.950  12.828
84291W        W52654   5.839  34.901  11.093
84292W        W52655  23.104   0.745  13.026
84293W        W52656  17.600   2.282   0.798
84294W        W52657  11.231  36.938   1.707
84295W        W52658  30.915  24.125   0.794
84296W        W52659  16.230   8.223   3.315
84297W        W52660  11.796  21.155   1.933
84298W        W52661  26.197  23.733   2.671
84299W        W52662  14.109  35.601   4.251
84300W        W52663   4.848   2.229  11.124
84301W        W52664  41.879  33.616   1.277
84302W        W52665  34.508  26.656   4.347
84303W        W52666  11.340   8.213   2.188
84304W        W52667  11.188  30.162  14.484
84305W        W52668  20.048  19.566  13.828
84306W        W52669  34.568  33.128  14.447
84307W        W52670  25.482   5.401   2.281
84308W        W52671   1.452  36.465  11.103
84309W        W52672  41.333  37.963  11.461
84310W        W52673  12.288   1.240   3.812
84311W        W52674  29.442   8.338   4.132
84312W        W52675   7.220  25.629   4.668
84313W        W52676  17.742   5.734   2.715
84314W        W52677  25.543  19.618  14.792
84315W        W52678   7.209  43.347   0.953
84316W        W52679  15.759  40.978   0.897
84317W        W52680  38.844  12.173  14.987
84318W        W52681  32.543  11.809  11.398
84319W        W52682   6.851  41.334  12.448
84320W        W52683  31.081  20.049   3.759
84321W        W52684  25.660  12.729  12.514
84322W        W52685  11.279   0.864  13.933
84323W        W52686  15.619   4.394   4.832
84324W        W52687   5.914  41.416   0.812
84325W        W52688  37.064  10.782   2.233
84326W        W52689   2.431  12.730  12.575
84327W        W52690  22.642  33.397   2.331
84328W        W52691  38.337  30.023  13.926
84329W        W52692  21.108   7.907  10.411
84330W        W52693  40.485  38.073   0.951
84331W        W52694  19.096  31.954   0.833
84332W        W52695  42.022  20.550  14.476
84333W        W52696  32.396  37.894   4.682
84334W        W52697  13.738  34.437  13.874
84335W        W52698  15.706  25.118   1.733
84336W        W52699  30.605  30.972   0.806
84337W        W52700  33.606  39.828   4.204
84338W        W52701  26.627  38.856   0.353
84339W        W52702  26.050   3.248   4.253
84340W        W52703   5.826  17.635   3.702
84341W        W52704  12.747   0.344  14.920
84342W        W52705  42.844  28.959  10.636
84343W        W52706  18.548  16.127  12.986
84344W        W52707  21.661   8.327   0.287
84345W        W52708  40.361  18.572   0.315
84346W        W52709  43.778  36.027  12.844
84347W        W52710  20.170  21.066  11.385
84348W        W52711  43.363  23.735  11.020
84349W        W52712  22.062  35.066  13.866
84350W        W52713   3.323   5.814  10.450
84351W        W52714  26.545  19.200   2.398
84352W        W52715   8.190  14.188   3.803
84353W        W52716  43.927  34.394  14.769
84354W        W52717  29.429  28.950   0.374
84355W        W52718  31.538  41.434  12.039
84356W        W52719  28.126  28.434  12.895
84357W        W52720  39.374  39.034   0.455
84358W        W52721   8.336  38.918   3.225
84359W        W52722  12.292  32.441   3.182
84360W        W52723  44.786  11.824  13.033
84361W        W52724  35.456  43.458   4.222
84362W        W52725   9.702  29.932   1.369
84363W        W52726  37.370  20.057   5.108
84364W        W52727   2.722   8.242  11.527
84365W        W52728   7.689  20.189  12.826
84366W        W52729  39.908  36.088  12.349
84367W        W52730   3.890   8.163   3.371
84368W        W52731  23.109  36.017  13.523
84369W        W52732  43.492  12.361  11.584
84370W        W52733  16.575  23.175   4.250
84371W        W52734  42.995  27.635  13.363
84372W        W52735  18.147   6.192   1.746
84373W        W52736  37.037  10.317   4.248
84374W        W52737   2.425   8.233   3.635
84375W        W52738  15.228  19.567  14.365
84376W        W52739  21.743   0.801  11.867
84377W        W52740  38.008  12.672  13.878
84378W        W52741   0.406  28.114   4.345
84379W        W52742  22.075  30.007   3.336
84380W        W52743  20.668  30.967   1.779
84381W        W52744   0.491   7.381   0.435
84382W        W52745   1.307  43.415   1.307
84383W        W52746  18.213  14.320  13.924
84384W        W52747  12.677  36.426   3.678
84385W        W52748   9.222   3.382  11.533
84386W        W52749  27.541  41.532  14.470
84387W        W52750  20.646  19.632  12.043
84388W        W52751  24.126  39.855   1.849
84389W        W52752  34.953  10.637  11.435
84390W        W52753   7.873  36.878   3.749
84391W        W52754  18.185  37.411  13.505
84392W        W52755  17.645   7.877   4.656
84393W        W52756  12.834  41.963  12.400
84394W        W52757  16.745  22.089  14.867
84395W        W52758  20.261  22.683   4.747
84396W        W52759  19.555  39.491   0.912
84397W        W52760  29.144  32.498  13.482
84398W        W52761  34.066  28.673  11.036
84399W        W52762  41.346   2.393   3.737
84400W        W52763  41.819  25.623   1.335
84401W        W52764  16.674  13.703  11.917
84402W        W52765   4.242   0.899   1.329
84403W        W52766   1.385  19.045  12.520
84404W        W52767   9.842  10.380  14.397
84405W        W52768   1.391  34.601   1.718
84406W        W52769  11.166   2.355   0.875
84407W        W52770  44.996  12.272  12.879
84408W        W52771  19.636  15.722   2.869
84409W        W52772  18.246  25.098  13.392
84410W        W52773   8.717   6.364  12.413
84411W        W52774   0.854  28.022   0.406
84412W        W52775  32.587   2.468   2.758
84413W        W52776  39.974   9.293  11.901
84414W        W52777  26.507  34.094  11.965
84415W        W52778   7.177  18.736  10.573
84416W        W52779  23.506   0.774  11.580
84417W        W52780  29.443  43.446   1.695
84418W        W52781  19.236  27.071  13.321
84419W        W52782   2.257  20.148  14.859
84420W        W52783  36.431  32.585  14.423
84421W        W52784   9.699   1.932   4.264
84422W        W52785   9.818   9.325   4.298
84423W        W52786  21.756  19.119   0.356
84424W        W52787   0.861  21.625   3.252
84425W        W52788  13.728  26.534   0.302
84426W        W52789  20.610   1.864  14.514
84427W        W52790   4.271   4.843   3.739
84428W        W52791  38.037   8.391   0.801
84429W        W52792  19.702  28.996  11.911
84430W        W52793  43.800   1.812  14.283
84431W        W52794  13.656  38.842   3.260
84432W        W52795   9.646  38.477  14.956
84433W        W52796   8.743  44.495   0.762
84434W        W52797   8.765  15.106  13.535
84435W        W52798   9.259  32.953   2.331
84436W        W52799  35.464   8.195   1.256
84437W        W52800  27.058  17.095  13.891
84438W        W52801  10.851  37.047   4.716
84439W        W52802  20.705  42.282  13.435
84440W        W52803   6.224  18.212   1.395
84441W        W52804   0.947   1.381   0.416
84442W        W52805  42.310  31.900   2.205
84443W        W52806   9.847  26.568  13.318
84444W        W52807  10.167   8.749  11.110
84445W        W52808  38.943   6.887   4.185
84446W        W52809  33.590  16.093   0.937
84447W        W52810  33.613   7.388   1.829
84448W        W52811  25.696  15.253   3.179
84449W        W52812  20.658  20.161  11.896
84450W        W52813  35.593  22.070  14.379
84451W        W52814  10.156   4.821   1.310
84452W        W52815   0.952  32.458  10.611
84453W        W52816  17.649  18.730  11.092
84454W        W52817  42.385  24.174  11.391
84455W        W52818  24.586  37.086  13.362
84456W        W52819  24.653  30.049   1.782
84457W        W52820  31.973  34.501   4.673
84458W        W52821  44.775  40.912   2.383
84459W        W52822   7.346  43.319   4.157
84460W        W52823  23.678  40.991   4.728
84461W        W52824  39.002  37.856   0.764
84462W        W52825   0.492  25.131  12.090
84463W        W52826  21.111  18.763   5.187
84464W        W52827  40.815  33.927   1.373
84465W        W52828  30.002  22.501  11.417
84466W        W52829  29.924  19.093   4.224
84467W        W52830  10.175  18.684  12.933
84468W        W52831   7.779  19.681   9.956
84469W        W52832  44.952   1.341   3.362
84470W        W52833  33.468   9.759  11.500
84471W        W52834  29.939  39.834  14.412
84472W        W52835  14.255  42.501   1.238
84473W        W52836  35.482  16.199  13.342
84474W        W52837  22.232  11.140   1.797
84475W        W52838   8.672  27.568  14.892
84476W        W52839  40.823  19.148  11.960
84477W        W52840  40.847  17.249  13.537
84478W        W52841   5.848  13.799  12.868
84479W        W52842  12.646  24.141   1.767
84480W        W52843  29.935  30.110   1.297
84481W        W52844  44.395  20.762  12.940
84482W        W52845  44.936  15.717   3.240
84483W        W52846   5.829  37.880  12.085
84484W        W52847  42.819  34.392  13.815
84485W        W52848  42.287   7.714   0.804
84486W        W52849  10.654  24.672   0.385
84487W        W52850  13.346  42.012  12.426
84488W        W52851  32.089   5.437   4.117
84489W        W52852  16.591  21.175   4.794
84490W        W52853  25.472   0.341   2.673
84491W        W52854   8.684  26.111   4.685
84492W        W52855  24.661  31.037  10.500
84493W        W52856  30.093  28.071   9.974
84494W        W52857   7.320  13.218   4.817
84495W        W52858  34.871  14.642   4.340
84496W        W52859  38.351  42.947  10.896
84497W        W52860  44.950  22.081  13.031
84498W        W52861   3.951  33.124  14.764
84499W        W52862   1.790   0.901  14.820
84500W        W52863  33.577  21.155   2.341
84501W        W52864  30.514  40.498  12.472
84502W        W52865  27.966  30.649  13.505
84503W        W52866  14.143  14.789  13.908
84504W        W52867  33.409  19.731  10.002
84505W        W52868  15.695  37.522  11.109
84506W        W52869  20.223  39.439   3.240
84507W        W52870  28.178  41.816   0.266
84508W        W52871  38.346  18.228   4.684
84509W        W52872  32.951  15.167   0.439
84510W        W52873   9.283  44.348  11.466
84511W        W52874  10.856  27.965  10.598
84512W        W52875  19.101   8.734  10.116
84513W        W52876  35.999  16.103  13.396
84514W        W52877  17.658  28.978  13.843
84515W        W52878  20.273  30.433   0.733
84516W        W52879  12.264  22.181   2.726
84517W        W52880  32.028  42.344  14.906
84518W        W52881  15.299   7.720   3.197
84519W        W52882   9.189  39.963  10.125
84520W        W52883   4.721  37.882  13.468
84521W        W52884   3.848  23.660   2.875
84522W        W52885  13.759  17.165  11.092
84523W        W52886   4.726  36.557  10.493
84524W        W52887  29.073  35.541  13.979
84525W        W52888  24.504  35.531  14.308
84526W        W52889  10.203  30.616   2.860
84527W        W52890  19.740  17.595   2.822
84528W        W52891  18.173  33.905  11.096
84529W        W52892  25.582  31.117   0.771
84530W        W52893  17.731  38.528  10.495
84531W        W52894   1.260  28.614  14.419
84532W        W52895   8.209  32.522  13.040
84533W        W52896  37.917  19.721   0.361
84534W        W52897  21.069  36.435   3.764
84535W        W52898  28.524   6.912   2.854
84536W        W52899  20.211  21.716  14.022
84537W        W52900  14.230  14.617  14.408
84538W        W52901  37.517  40.438  13.409
84539W        W52902  33.989   9.350  12.480
84540W        W52903  18.225  31.591   0.397
84541W        W52904   2.812  26.201  12.483
84542W        W52905  22.619  15.212  10.602
84543W        W52906  34.392   5.868  13.471
84544W        W52907  33.461  32.961   3.296
84545W        W52908  42.385  24.506  12.882
84546W        W52909  20.590   9.695  11.586
84547W        W52910  34.433  33.028  11.047
84548W        W52911  38.922  15.700   2.280
84549W        W52912   0.291  22.600   2.271
84550W        W52913  13.316  11.808   0.469
84551W        W52914  29.102  20.708   0.814
84552W        W52915   5.362   8.350   4.630
84553W        W52916  32.893  11.751  14.811
84554W        W52917  19.263  23.037  13.424
84555W        W52918   2.954   1.930  13.836
84556W        W52919  26.017   7.382   1.888
84557W        W52920  44.859  36.416   2.749
84558W        W52921  14.319  25.170  10.514
84559W        W52922  17.203  30.931   2.896
84560W        W52923  10.185  42.967   0.959
84561W        W52924   1.929   8.893  13.448
84562W        W52925  32.893   3.367   4.654
84563W        W52926   6.392  22.218  14.908
84564W        W52927  28.443  39.423   4.737
84565W        W52928  28.569  19.178  11.930
84566W        W52929  38.959  36.081  11.501
84567W        W52930  11.772  34.489   0.731
84568W        W52931  42.358  35.881   9.507
84569W        W52932  26.092  15.755  11.436
84570W        W52933   6.204  18.628   3.640
84571W        W52934  10.274   7.697   2.262
84572W        W52935  33.040   5.880   2.259
84573W        W52936  24.686  29.135   4.182
84574W        W52937  31.954  17.226   2.674
84575W        W52938  23.048  21.563  11.432
84576W        W52939  18.666  29.574   1.900
84577W        W52940  17.622   4.770  10.526
84578W        W52941  16.286   3.897  12.420
84579W        W52942  31.999   8.270  13.353
84580W        W52943  11.637  19.234  12.069
84581W        W52944  32.076  44.440   5.755
84582W        W52945  13.819  34.514   0.270
84583W        W52946  10.749  36.560  11.606
84584W        W52947  22.623  43.015   0.816
84585W        W52948  33.471  44.351   2.689
84586W        W52949  22.088  40.434  10.600
84587W        W52950  35.557  16.660  10.913
84588W        W52951  19.273   2.343   3.867
84589W        W52952  31.617  37.842  11.911
84590W        W52953  23.167  23.223  13.013
84591W        W52954  34.980  27.684   2.229
84592W        W52955   3.719  33.927   4.697
84593W        W52956  40.799   4.760   1.427
84594W        W52957  40.867  15.155   3.352
84595W        W52958  29.013   8.720  11.005
84596W        W52959   7.670   2.934   1.898
84597W        W52960  26.632   6.195   0.747
84598W        W52961  16.779   7.839  14.012
84599W        W52962  34.529  30.511   4.670
84600W        W52963  14.289   6.742  12.071
84601W        W52964  40.928  27.641   1.295
84602W        W52965  42.825  32.930  12.437
84603W        W52966   2.967  40.906   2.390
84604W        W52967  11.678   1.350   1.312
84605W        W52968   4.895  31.561  11.015
84606W        W52969  12.651  12.795   0.823
84607W        W52970   3.792  44.844  14.280
84608W        W52971   2.744  30.077   0.430
84609W        W52972  43.509  24.062   0.349
84610W        W52973  41.898  36.461   4.294
84611W        W52974  39.340  30.077  13.895
84612W        W52975   0.828  34.028  14.991
84613W        W52976  12.326  35.873   2.410
84614W        W52977  29.576  24.547  13.052
84615W        W52978   3.953   0.851   0.463
84616W        W52979  15.215  39.510   2.856
84617W        W52980  15.279  43.844   3.742
84618W        W52981  41.965   7.724   2.674
84619W        W52982  25.501  31.627   3.673
84620W        W52983  27.988  22.155  12.536
84621W        W52984  22.507  33.504   0.827
84622W        W52985  38.057  37.990   4.150
84623W        W52986  15.180  41.491  12.859
84624W        W52987  19.766  35.943   2.740
84625W        W52988  39.049  27.068   0.288
84626W        W52989  37.455  11.243   1.750
84627W        W52990  23.119  12.256  14.351
84628W        W52991  17.758  44.922   9.649
84629W        W52992  24.224   8.794  13.012
84630W        W52993  38.886  18.727  14.276
84631W        W52994  29.573  20.584  10.408
84632W        W52995  30.124  13.236  10.913
84633W        W52996  39.973   2.334   2.276
84634W        W52997   3.322   6.208   5.321
84635W        W52998  17.777   9.717   0.881
84636W        W52999  10.658  10.370   4.116
84637W        W53000   8.272   3.850  12.967
84638W        W53001  22.108  11.368  11.429
84639W        W53002  37.494  12.343  14.950
84640W        W53003  20.192  19.151  14.394
84641W        W53004   6.292   3.273   0.412
84642W        W53005  36.032  35.514   4.604
84643W        W53006   1.748  31.428   1.697
84644W        W53007  20.649   9.836  13.922
84645W        W53008  13.257   0.469  11.046
84646W        W53009  34.384  44.845   3.779
84647W        W53010  37.022  30.056   3.367
84648W        W53011  30.576  20.719   3.696
84649W        W53012  19.283   1.967   4.659
84650W        W53013   1.930  36.862  12.921
84651W        W53014  31.999  38.517   1.429
84652W        W53015  38.875  29.502   3.155
84653W        W53016  13.754  24.627  14.498
84654W        W53017  25.117  10.706  12.499
84655W        W53018  16.711  15.783   3.332
84656W        W53019  30.552   9.225  14.296
84657W        W53020   5.846  17.158   2.390
84658W        W53021  17.678  20.041  14.828
84659W        W53022  28.652  24.230  14.760
84660W        W53023  43.369   6.714   4.718
84661W        W53024  31.555  44.883  10.516
84662W        W53025  22.714  41.888  12.579
84663W        W53026   3.459  10.827  13.018
84664W        W53027  43.371   5.692   2.756
84665W        W53028  28.141   6.249   3.730
84666W        W53029   9.832   6.269  10.995
84667W        W53030  18.124  27.158   0.464
84668W        W53031  18.694  12.839   0.940
84669W        W53032   7.357  40.402  12.534
84670W        W53033  32.606  22.694   3.366
84671W        W53034   8.655  38.343  11.538
84672W        W53035   7.211  29.071  14.873
84673W        W53036  14.817  44.818   4.724
84674W        W53037  29.079  10.747   2.840
84675W        W53038   5.218  34.503   3.796
84676W        W53039  33.994  44.863   0.291
84677W        W53040  26.466  30.512  10.484
84678W        W53041  34.989   8.889  14.787
84679W        W53042  19.177  41.511  14.307
84680W        W53043  29.145  21.671  12.079
84681W        W53044  21.679  23.563   0.870
84682W        W53045   1.432  25.713  14.889
84683W        W53046  31.513  41.509   3.181
84684W        W53047  40.437   6.211  14.870
84685W        W53048  16.278   1.876   0.845
84686W        W53049  17.735  40.513  10.449
84687W        W53050  38.973  24.480   0.250
84688W        W53051  20.740  42.986  14.397
84689W        W53052   1.409   2.916   3.308
84690W        W53053  23.102  38.038   3.802
84691W        W53054  37.058  31.424   4.244
84692W        W53055  33.086  39.978   4.249
84693W        W53056  16.751  18.146  12.428
84694W        W53057  35.527  27.078  10.932
84695W        W53058  30.984  15.729   2.335
84696W        W53059   4.331  12.136  11.598
84697W        W53060  11.805  18.216  11.976
84698W        W53061  32.078  40.944  14.782
84699W        W53062  38.423  38.926   2.294
84700W        W53063  41.822  32.493   4.301
84701W        W53064  17.639  31.927   4.156
84702W        W53065  34.067  40.421  13.325
84703W        W53066  36.097  11.634   1.272
84704W        W53067  43.831  23.568   2.668
84705W        W53068   1.909   1.460   1.821
84706W        W53069  19.686  23.116   4.144
84707W        W53070  15.645  35.089  11.023
84708W        W53071  13.785  16.631   5.720
84709W        W53072  34.975  34.513  13.868
84710W        W53073  11.708  15.765  13.507
84711W        W53074  44.932  37.073   3.276
84712W        W53075  20.145  44.265  12.839
84713W        W53076  22.103  37.025   2.897
84714W        W53077  31.412  40.516  10.577
84715W        W53078  42.026  23.235   2.325
84716W        W53079  12.201   6.811   1.347
84717W        W53080  24.070  39.355   3.639
84718W        W53081  31.083  28.059   0.382
84719W        W53082  27.654   0.958   0.951
84720W        W53083  16.227  31.530  14.770
84721W        W53084  26.628  42.843   3.316
84722W        W53085   7.353  40.347   4.743
84723W        W53086   0.870  28.651  11.552
84724W        W53087  20.711  39.416   1.902
84725W        W53088   7.335  30.073  12.424
84726W        W53089  14.224  44.795   4.684
84727W        W53090   9.219   4.226  12.996
84728W        W53091  19.684  15.329   4.659
84729W        W53092   6.824  26.633   3.706
84730W        W53093   8.739  35.890  10.462
84731W        W53094  31.630  31.027   4.681
84732W        W53095  28.105   7.396   3.340
84733W        W53096   3.368  24.700  12.493
84734W        W53097  20.042  11.729   9.932
84735W        W53098   2.442  37.997  12.096
84736W        W53099  24.113  17.638  13.982
84737W        W53100  22.684  44.309  13.462
84738W        W53101   5.284  33.052  13.033
84739W        W53102  44.445  33.394  13.531
84740W        W53103  33.408  21.217  10.970
84741W        W53104  14.786   8.674  11.883
84742W        W53105   1.766   4.921   0.875
84743W        W53106  44.421  21.221  12.434
84744W        W53107  29.623  10.321  10.972
84745W        W53108  10.236  29.069  11.048
84746W        W53109  28.065  39.950  14.914
84747W        W53110  33.079  12.682   2.197
84748W        W53111   9.396  33.995  13.821
84749W        W53112  33.567  29.048  12.859
84750W        W53113  37.865  25.069  13.444
84751W        W53114  12.664  15.103   2.723
84752W        W53115  25.587  23.120   1.872
84753W        W53116  20.700  20.558  11.062
84754W        W53117  37.560  30.651  11.400
84755W        W53118  31.505  11.706   3.833
84756W        W53119  40.959   2.796  12.840
84757W        W53120  10.241  12.818  13.422
84758W        W53121   9.772   9.691  10.898
84759W        W53122  21.222  36.919  11.500
84760W        W53123   3.769   8.784   0.947
84761W        W53124  38.968   6.783  12.074
84762W        W53125  17.617   9.310   1.778
84763W        W53126  35.540  20.268  13.996
84764W        W53127  29.048  14.767  12.063
84765W        W53128  21.217  31.071   4.187
84766W        W53129  33.898  19.078  13.906
84767W        W53130  13.733  18.288  14.933
84768W        W53131   0.296  30.469   3.673
84769W        W53132  32.566  39.937  13.939
84770W        W53133   6.257  10.187  14.784
84771W        W53134  22.204  42.447  13.831
84772W        W53135  10.718  42.506   0.742
84773W        W53136   3.771  32.083   3.159
84774W        W53137  18.744  42.861  11.571
84775W        W53138  11.289   5.365   3.851
84776W        W53139  27.998   9.153   4.717
84777W        W53140   1.356  19.135  13.519
84778W        W53141   6.236  14.822  11.870
84779W        W53142  30.457  24.672   1.422
84780W        W53143  26.553   8.369  11.860
84781W        W53144  34.967  28.678   3.211
84782W        W53145  44.482  42.458   3.334
84783W        W53146  39.877  19.572   0.911
84784W        W53147   1.973   4.712  13.422
84785W        W53148  32.888  27.635   4.695
84786W        W53149   0.281  44.291  14.360
84787W        W53150  43.368  30.067  11.986
84788W        W53151  30.978  31.898  10.978
84789W        W53152  33.072  39.542  12.870
84790W        W53153  26.146  36.061  12.854
84791W        W53154   7.846  40.470  13.366
84792W        W53155  26.116  25.627  10.516
84793W        W53156   6.233  35.595  13.954
84794W        W53157  22.009  44.312  12.026
84795W        W53158  23.033  29.995  11.916
84796W        W53159  26.124   1.466  10.919
84797W        W53160  18.104  39.555   1.843
84798W        W53161  35.098  30.952   0.472
84799W        W53162  10.363  10.262   2.696
84800W        W53163   2.270  36.354   3.237
84801W        W53164  22.217  35.480   3.817
84802W        W53165  32.570   9.211  13.483
84803W        W53166   0.391  42.388  13.536
84804W        W53167   1.795  14.702   4.647
84805W        W53168   4.707   4.913   2.817
84806W        W53169  35.462  20.143   4.695
84807W        W53170  13.192  44.316   2.362
84808W        W53171  30.920  44.792  14.459
84809W        W53172  20.162  26.487  11.462
84810W        W53173  17.626  12.202  13.901
84811W        W53174  43.307  29.121  14.486
84812W        W53175   7.766  18.294  13.543
84813W        W53176  42.478   9.315   3.719
84814W        W53177   3.318  19.533  14.439
84815W        W53178   0.883  36.071  11.460
84816W        W53179  11.652  10.297  10.128
84817W        W53180   9.869   6.770   2.293
84818W        W53181   9.783  15.749   1.364
84819W        W53182   2.923  17.156  14.758
84820W        W53183  26.675  10.681  11.566
84821W        W53184  40.937  11.371   0.782
84822W        W53185   7.715  25.481  13.391
84823W        W53186  18.149   2.406   1.374
84824W        W53187  14.723  12.647   3.322
84825W        W53188  10.229  18.201  10.633
84826W        W53189  31.598   9.282   3.691
84827W        W53190  27.652  27.116  11.984
84828W        W53191  20.194  22.090  11.386
84829W        W53192  13.150  41.890   4.788
84830W        W53193   0.983  44.416  10.141
84831W        W53194  44.907  39.829  14.999
84832W        W53195  15.197  35.094  14.456
84833W        W53196   3.365  34.446  14.287
84834W        W53197  40.522  35.511   2.267
84835W        W53198  34.417   1.763  13.056
84836W        W53199  13.232  28.465   2.733
84837W        W53200  30.978  11.645   1.811
84838W        W53201  31.067  38.479  11.599
84839W        W53202  28.600  17.644  12.011
84840W        W53203  41.459  33.392   3.690
84841W        W53204   0.254  32.131   3.844
84842W        W53205   0.895  43.436   4.632
84843W        W53206   5.845  14.631  14.922
84844W        W53207  40.044  39.893   3.377
84845W        W53208  40.435  22.722   5.196
84846W        W53209  19.106  17.121   1.883
84847W        W53210  31.030   0.785  14.345
84848W        W53211  16.744  43.005  13.048
84849W        W53212  41.480  37.564  14.441
84850W        W53213  19.718  16.132   2.332
84851W        W53214  32.041  38.469  10.960
84852W        W53215  15.729  17.568  10.092
84853W        W53216  37.837  10.669  12.008
84854W        W53217  28.568  18.297  12.980
84855W        W53218  36.074  20.238  10.605
84856W        W53219  36.408  29.983   2.697
84857W        W53220  12.841  11.354   1.280
84858W        W53221  39.847   9.859  11.550
84859W        W53222  20.758  37.006  11.922
84860W        W53223  11.696  21.024  12.899
84861W        W53224  27.990  35.006   2.188
84862W        W53225  39.819  37.449  14.976
84863W        W53226  21.045  24.109  13.864
84864W        W53227  34.582   7.302   1.262
84865W        W53228   1.294  24.176   2.373
84866W        W53229  10.323   3.944  12.082
84867W        W53230  17.698  19.097  13.547
84868W        W53231  43.430  25.699  14.006
84869W        W53232   5.317  33.531  13.330
84870W        W53233  20.138  36.439   2.681
84871W        W53234  44.504  35.936   1.328
84872W        W53235  18.106   8.745  10.620
84873W        W53236   9.831   5.326  13.903
84874W        W53237   2.351   3.831   2.293
84875W        W53238  25.005  33.406   2.902
84876W        W53239  21.675  39.377  14.344
84877W        W53240  37.923  36.431  14.031
84878W        W53241  38.988  33.394  14.912
84879W        W53242  33.466   8.327  10.902
84880W        W53243  20.113  26.188  11.529
84881W        W53244  41.800  11.239  11.612
84882W        W53245  25.580  34.937   3.232
84883W        W53246   4.358  24.066   2.792
84884W        W53247   1.881   7.844  12.866
84885W        W53248  17.216  34.531   0.371
84886W        W53249  35.398  21.678   2.664
84887W        W53250  38.008  43.969   4.685
84888W        W53251  29.509  14.834  10.523
84889W        W53252  15.088  15.128  10.427
84890W        W53253   3.819  36.489  14.899
84891W        W53254  32.125  13.278   2.902
84892W        W53255   7.282  19.734  12.069
84893W        W53256  21.749   9.359   1.327
84894W        W53257  38.075  19.584   3.374
84895W        W53258  20.678  15.739  11.963
84896W        W53259  26.495  12.771  12.823
84897W        W53260   8.824  20.661  13.891
84898W        W53261  10.762  19.656  11.901
84899W        W53262  42.971  31.574   4.188
84900W        W53263   4.814   3.866   0.424
84901W        W53264  28.965  33.964   1.736
84902W        W53265  39.533   9.221   0.865
84903W        W53266  14.095  29.050   1.694
84904W        W53267  28.553  24.209   4.174
84905W        W53268  19.200   6.692  12.537
84906W        W53269  38.927  18.678   3.145
84907W        W53270  19.548  32.049   3.335
84908W        W53271  10.770   8.405   4.737
84909W        W53272  28.659  22.128   1.411
84910W        W53273  39.524  23.212   1.847
84911W        W53274  31.082  16.302  11.409
84912W        W53275  40.374  24.479   2.289
84913W        W53276  20.569   6.830   2.360
84914W        W53277   8.740  16.608   4.824
84915W        W53278  12.220  16.141   0.466
84916W        W53279   8.802  19.537  14.414
84917W        W53280   4.342  30.612  12.992
84918W        W53281   0.931  26.654  13.851
84919W        W53282  35.485  37.540  11.060
84920W        W53283   7.906  25.699  13.027
84921W        W53284  11.241   2.821  10.510
84922W        W53285  13.213  29.087  13.368
84923W        W53286   5.853   2.459   0.963
84924W        W53287  30.989  44.768   1.804
84925W        W53288   7.820  12.337   4.299
84926W        W53289   4.739  21.520  14.446
84927W        W53290  16.113  27.063   0.782
84928W        W53291  29.044  16.073   5.724
84929W        W53292  18.196  21.129  11.008
84930W        W53293  17.162  22.671  13.545
84931W        W53294   2.418  27.510  12.835
84932W        W53295  23.619  22.046   4.806
84933W        W53296  36.479  15.688  13.468
84934W        W53297  13.666   2.768   4.728
84935W        W53298   8.830  34.083  12.389
84936W        W53299   1.393  21.181   0.786
84937W        W53300   2.754  19.284   0.769
84938W        W53301  25.065  38.459   4.271
84939W        W53302  44.468  39.035   2.252
84940W        W53303   4.750  40.366  14.444
84941W        W53304  34.998  40.977   4.310
84942W        W53305  41.308   4.861  13.496
84943W        W53306  36.501   3.285   4.793
84944W        W53307  20.197  22.185  10.638
84945W        W53308  43.851  22.586   0.868
84946W        W53309  28.025  33.398  10.542
84947W        W53310   6.851  25.100  14.854
84948W        W53311  43.437   2.776   4.118
84949W        W53312  27.193  36.975  11.925
84950W        W53313  42.372  17.290  13.029
84951W        W53314  41.414  17.798   3.864
84952W        W53315  22.693   4.912  13.387
84953W        W53316   6.725  35.460   0.749
84954W        W53317  39.009   3.935  10.509
84955W        W53318  33.427   7.370  12.054
84956W        W53319  33.035  23.711  13.448
84957W        W53320   3.444  21.172   0.262
84958W        W53321  28.046  22.549   1.720
84959W        W53322  24.502  29.018   1.370
84960W        W53323  14.829  41.308   5.245
84961W        W53324  37.043  44.324  11.862
84962W        W53325   6.422  29.482  10.922
84963W        W53326  42.333  25.982  14.808
84964W        W53327   7.673  22.547   0.873
84965W        W53328  36.992  10.799   2.663
84966W        W53329  22.680  41.356   2.884
84967W        W53330  25.177  28.011   0.295
84968W        W53331  11.342  22.035   4.269
84969W        W53332  14.800   4.747   1.859
84970W        W53333  27.565  35.434   3.667
84971W        W53334  30.910  30.580  13.922
84972W        W53335  17.070  25.519   2.707
84973W        W53336  19.236  12.676   0.359
84974W        W53337  33.093  28.007  13.032
84975W        W53338  29.427  19.731  13.322
84976W        W53339  25.127  43.442  12.984
84977W        W53340  26.183  17.152  11.605
84978W        W53341  35.931  34.389   1.872
84979W        W53342  32.094  38.452  12.550
84980W        W53343  14.604  42.915   4.789
84981W        W53344  15.256  40.949   2.367
84982W        W53345  20.112   0.455  14.818
84983W        W53346  15.123  13.602  11.088
84984W        W53347  17.613  23.162  14.323
84985W        W53348  23.727   6.418   3.692
84986W        W53349   6.778   8.729   4.175
84987W        W53350  41.378  43.291   2.221
84988W        W53351  25.628  11.224   0.733
84989W        W53352  42.392   6.807  13.350
84990W        W53353   0.890  34.086  14.012
84991W        W53354  43.925  17.761   4.755
84992W        W53355  43.019  28.187  13.375
84993W        W53356  42.837  30.929   0.344
84994W        W53357  15.806  23.231  13.436
84995W        W53358  36.048  41.310  10.555
84996W        W53359   3.888  41.400  12.973
84997W        W53360   9.830   1.446   0.356
84998W        W53361  44.841  42.382   1.892
84999W        W53362  38.538  22.042   1.451
85000W        W53363   7.381  10.331   3.271
85001W        W53364   9.697  20.717   2.384
85002W        W53365  24.479   2.277  14.030
85003W        W53366  32.112  16.166  12.376
85004W        W53367  31.136  19.644  11.048
85005W        W53368  35.457  30.579  13.334
85006W        W53369   1.921  22.215  12.850
85007W        W53370   6.686   0.910  13.529
85008W        W53371  20.563  21.038   1.816
85009W        W53372  18.697  26.130  13.407
85010W        W53373  44.387  24.068  12.852
85011W        W53374  34.600  44.883   3.220
85012W        W53375  41.468  36.523  10.528
85013W        W53376  10.821  19.101  11.892
85014W        W53377   7.367  37.844  11.463
85015W        W53378   2.460  34.479   2.667
85016W        W53379  34.488  17.724   0.280
85017W        W53380  23.541  32.616   0.859
85018W        W53381   1.941  19.130   4.692
85019W        W53382  24.006  21.113  11.106
85020W        W53383   7.840  34.615   2.207
85021W        W53384  44.826   5.745   1.771
85022W        W53385  43.294   0.842  13.380
85023W        W53386  35.983  25.541  14.343
85024W        W53387  35.931  41.920  11.463
85025W        W53388   1.449  41.395  14.900
85026W        W53389  26.036  19.144  13.472
85027W        W53390  28.556  37.513   2.301
85028W        W53391  41.897  19.131  11.562
85029W        W53392   6.707  35.042  12.453
85030W        W53393  15.602  43.394   3.859
85031W        W53394  26.062  36.414   0.249
85032W        W53395  33.039  30.465  10.485
85033W        W53396  36.999   7.396   0.811
85034W        W53397   9.782  32.013  10.411
85035W        W53398  27.456  42.867  12.068
85036W        W53399  30.554  29.981   2.856
85037W        W53400   7.732  28.176  13.334
85038W        W53401   4.337   7.241  13.853
85039W        W53402  32.101  15.724  10.591
85040W        W53403  28.136  32.446   0.824
85041W        W53404  17.598   6.268  12.019
85042W        W53405  36.953  19.684   2.355
85043W        W53406  15.279  28.490   4.219
85044W        W53407  20.651  30.918   2.399
85045W        W53408  21.548  33.512   2.374
85046W        W53409  12.176  18.154  14.846
85047W        W53410  25.089  10.382  12.863
85048W        W53411  26.464  35.377  12.367
85049W        W53412  43.497   8.776   4.225
85050W        W53413  28.953   4.886   4.262
85051W        W53414  16.574  27.453   3.763
85052W        W53415   1.411  35.495  14.781
85053W        W53416  25.534   8.402   3.712
85054W        W53417   3.740  15.624  14.790
85055W        W53418   1.370  16.098  12.521
85056W        W53419   7.886  44.392   3.184
85057W        W53420   2.872   4.446   1.796
85058W        W53421  20.685  35.486   2.777
85059W        W53422  33.539  40.925   3.343
85060W        W53423   2.311  29.627   1.866
85061W        W53424  31.532  33.515   3.382
85062W        W53425  10.876  37.046   2.829
85063W        W53426  26.963  12.843   1.331
85064W        W53427   8.869   1.952   3.300
85065W        W53428  38.412  18.106  14.965
85066W        W53429  19.248  18.099   0.326
85067W        W53430  44.804  40.444   1.724
85068W        W53431  27.008  27.493   4.762
85069W        W53432  38.045   4.798   3.321
85070W        W53433  16.174  44.895  11.571
85071W        W53434  42.375  11.854   1.351
85072W        W53435   5.219  14.816  14.919
85073W        W53436  36.350  42.415  11.982
85074W        W53437  35.366  30.144  14.465
85075W        W53438  27.039  44.957  14.951
85076W        W53439  34.471  19.751   4.274
85077W        W53440  38.415   2.958   3.320
85078W        W53441  38.424  32.577  11.597
85079W        W53442  12.198  29.117   0.745
85080W        W53443  37.387  10.342  10.524
85081W        W53444  34.090  22.706  13.917
85082W        W53445  35.521   1.850  14.002
85083W        W53446   7.283   7.256   1.769
85084W        W53447  35.909  14.641  11.481
85085W        W53448  23.718  36.505  13.902
85086W        W53449  40.018  38.838  11.085
85087W        W53450  13.794  31.109  12.988
85088W        W53451  23.561  44.265   4.675
85089W        W53452  22.208  32.052  12.946
85090W        W53453  26.467  42.326   4.278
85091W        W53454  24.091  17.139   0.776
85092W        W53455  27.550  31.535   3.632
85093W        W53456  38.488  36.509  10.972
85094W        W53457  13.156  34.438   3.276
85095W        W53458  33.073  43.508  13.389
85096W        W53459  33.599  38.873   0.902
85097W        W53460  19.678  44.773   1.895
85098W        W53461  14.674  38.438  13.529
85099W        W53462  26.067  19.049   3.193
85100W        W53463  21.102  15.580  11.376
85101W        W53464   1.454   2.448   3.657
85102W        W53465  33.124  11.820   2.838
85103W        W53466  36.532  16.616  12.905
85104W        W53467   3.426   4.813  11.590
85105W        W53468  36.064  31.921  13.902
85106W        W53469  32.482   2.358  12.991
85107W        W53470  40.313   8.655   0.872
85108W        W53471  12.814  29.997  13.806
85109W        W53472   4.245  38.342   1.220
85110W        W53473  19.718  22.195   4.815
85111W        W53474   4.829  12.117  14.304
85112W        W53475  37.502  13.345  14.760
85113W        W53476  39.055  23.547  12.551
85114W        W53477  27.978  12.177  14.790
85115W        W53478   7.286  25.049  13.972
85116W        W53479   6.899   7.249  13.854
85117W        W53480   2.338  25.093   9.571
85118W        W53481  25.125   2.383  13.925
85119W        W53482   6.217  25.494  11.385
85120W        W53483   0.389  24.074  12.517
85121W        W53484  37.516  30.652   2.827
85122W        W53485  21.706   3.902  12.970
85123W        W53486  38.428  12.129   4.719
85124W        W53487  41.524  24.483   1.299
85125W        W53488  38.389   2.305  10.567
85126W        W53489  26.047  32.438  11.856
85127W        W53490   9.879   7.211  10.985
85128W        W53491  32.446   2.824   4.720
85129W        W53492   4.228  35.855   3.154
85130W        W53493  35.584  32.956  13.011
85131W        W53494  42.299  18.783  11.904
85132W        W53495  43.411  10.195  13.408
85133W        W53496  23.236   5.301  11.422
85134W        W53497   1.275  19.561  14.385
85135W        W53498  18.255  12.731  13.841
85136W        W53499  13.624  18.764  14.320
85137W        W53500  23.175   8.163   3.658
85138W        W53501  22.694  26.992  14.344
85139W        W53502  28.995  39.527   1.836
85140W        W53503  15.668   8.211   4.305
85141W        W53504  15.737   2.288  11.058
85142W        W53505  35.573  19.124   3.158
85143W        W53506  31.495  25.582  10.504
85144W        W53507  19.271  25.538   4.755
85145W        W53508   8.256  40.004   2.294
85146W        W53509   9.394   3.434   4.141
85147W        W53510  16.144  16.709   1.804
85148W        W53511   0.401  12.313   3.711
85149W        W53512  12.656  17.647  11.911
85150W        W53513   0.339  43.845  10.526
85151W        W53514  13.600  21.116   1.895
85152W        W53515  20.647  16.104   1.386
85153W        W53516  17.765   0.439   3.254
85154W        W53517  19.079   5.437  13.423
85155W        W53518  35.528   9.232  13.362
85156W        W53519   0.901  25.089   2.760
85157W        W53520   8.381  44.007   0.856
85158W        W53521  10.205  34.979  12.075
85159W        W53522  44.295  23.663   3.737
85160W        W53523  13.244   5.837   0.468
85161W        W53524  33.998  14.132   1.725
85162W        W53525  33.571  33.570   3.377
85163W        W53526   5.204  40.341   0.307
85164W        W53527  10.365  35.036  14.415
85165W        W53528  29.019  26.573   3.843
85166W        W53529   3.784   1.773  10.142
85167W        W53530  24.500  17.123  12.951
85168W        W53531  38.038  13.750  12.341
85169W        W53532   8.693  40.371   1.803
85170W        W53533  13.740  38.384  13.346
85171W        W53534   7.401  34.574   3.804
85172W        W53535  17.203  35.365   2.403
85173W        W53536  18.613  24.580  13.047
85174W        W53537   9.229  20.663  14.842
85175W        W53538  30.133  33.943  13.388
85176W        W53539  20.197  30.060  10.624
85177W        W53540  37.923  22.010   4.178
85178W        W53541  32.624   8.255   1.395
85179W        W53542  41.853  34.886  10.563
85180W        W53543  26.615  15.312  10.412
85181W        W53544  25.670  20.086  13.027
85182W        W53545  33.020  15.269   0.778
85183W        W53546  38.950  14.654   3.343
85184W        W53547  44.310  10.254  12.856
85185W        W53548  23.561  39.521   1.736
85186W        W53549  11.845  21.230  11.551
85187W        W53550  39.053  25.503  11.946
85188W        W53551  39.916  34.867   3.660
85189W        W53552  30.977  44.954   2.862
85190W        W53553  16.608  39.380   4.266
85191W        W53554  35.525  13.332  12.868
85192W        W53555   1.269  44.924   4.734
85193W        W53556  35.979   9.320  14.482
85194W        W53557   4.828  31.575  10.604
85195W        W53558   9.732  31.580  12.492
85196W        W53559  43.784   1.312   1.750
85197W        W53560  27.523  43.776  10.538
85198W        W53561  13.766   0.814  14.422
85199W        W53562  31.132  12.717   2.390
85200W        W53563  33.400   2.248  12.021
85201W        W53564  29.465  13.820   5.228
85202W        W53565   4.809  20.178   4.166
85203W        W53566  32.415   9.263   4.330
85204W        W53567  34.607  42.831   1.276
85205W        W53568  35.969  36.573  11.098
85206W        W53569  38.539  35.882   1.355
85207W        W53570  18.224  44.930  13.048
85208W        W53571   6.826  21.701   1.309
85209W        W53572   1.406  27.644   3.331
85210W        W53573   1.277  15.323  14.346
85211W        W53574   0.825  19.730   0.885
85212W        W53575  17.723  23.654  11.581
85213W        W53576  35.984   6.815   1.756
85214W        W53577  39.370  38.398   3.362
85215W        W53578  12.695  34.577   4.659
85216W        W53579   7.702  27.518  13.332
85217W        W53580  29.099  16.599  13.887
85218W        W53581  10.663   8.364   3.367
85219W        W53582  24.213  35.977  10.461
85220W        W53583   0.941  41.003  12.911
85221W        W53584   8.297  37.428   3.332
85222W        W53585  16.796  16.571  13.496
85223W        W53586   1.281  43.311  14.449
85224W        W53587  38.411  44.300   4.756
85225W        W53588   1.376  38.382   3.712
85226W        W53589  30.494  33.996  11.562
85227W        W53590  26.692  25.649  12.546
85228W        W53591  36.937   3.401  11.530
85229W        W53592  43.961  36.975  13.832
85230W        W53593  39.025  17.228   3.867
85231W        W53594   3.780   6.894   2.677
85232W        W53595  34.081  43.011  13.958
85233W        W53596  33.514  10.240   2.901
85234W        W53597  31.503   7.790   4.118
85235W        W53598  20.240  27.079   3.718
85236W        W53599   5.835   3.411   3.162
85237W        W53600  15.624  13.702   0.453
85238W        W53601  35.964   3.832   1.832
85239W        W53602  27.554  38.888  10.626
85240W        W53603   8.313   3.365  14.428
85241W        W53604  25.487  30.109  14.909
85242W        W53605  29.649  31.915  10.909
85243W        W53606  34.025  38.935  12.051
85244W        W53607  26.007  38.546  11.574
85245W        W53608   1.305  18.160   3.856
85246W        W53609   8.699  17.692  14.993
85247W        W53610  44.455  23.116   4.640
85248W        W53611  44.877   9.805  12.340
85249W        W53612   8.852  41.371  11.984
85250W        W53613  32.393  26.521   2.352
85251W        W53614   1.340  21.095  14.440
85252W        W53615  29.128  32.912  11.856
85253W        W53616  16.083  30.550  14.854
85254W        W53617   0.363  32.127  11.598
85255W        W53618  44.358   1.942  11.128
85256W        W53619  21.678  43.459   2.891
85257W        W53620  13.243  32.597   3.249
85258W        W53621  29.445   0.813   0.756
85259W        W53622  31.149   5.247   3.158
85260W        W53623  32.137  24.627  14.295
85261W        W53624  26.655  18.083   0.815
85262W        W53625  40.346  15.797   5.152
85263W        W53626  12.333  24.717   0.891
85264W        W53627  19.608   3.218   4.128
85265W        W53628  32.560  21.228  12.880
85266W        W53629  13.718   0.966  10.476
85267W        W53630  15.267  40.387  13.402
85268W        W53631  30.954  26.531  10.570
85269W        W53632  40.361  16.712  11.452
85270W        W53633  35.555  20.174   0.729
85271W        W53634  17.614  23.584   0.743
85272W        W53635  25.634   2.320   0.771
85273W        W53636   5.694  22.157  14.953
85274W        W53637  36.025   9.327   4.677
85275W        W53638  22.560  38.926  12.028
85276W        W53639  42.525  15.707   0.361
85277W        W53640   7.909  16.779  13.481
85278W        W53641  26.032   4.328  11.858
85279W        W53642  15.730  18.089  10.502
85280W        W53643  37.396  29.475   2.230
85281W        W53644  34.938  36.573  14.331
85282W        W53645  38.892   4.854   1.226
85283W        W53646  12.164  24.139   1.735
85284W        W53647  43.470  22.204  11.946
85285W        W53648  36.513   4.362   3.703
85286W        W53649  11.177   3.422  14.410
85287W        W53650   4.722  11.786  11.063
85288W        W53651  35.588  22.695  11.455
85289W        W53652  39.045  33.890   0.773
85290W        W53653  13.113  43.981  14.784
85291W        W53654  29.100  31.076   0.771
85292W        W53655  39.993   8.257   4.655
85293W        W53656  24.167  16.159   1.883
85294W        W53657   2.392  44.503  10.963
85295W        W53658  36.886   5.722   2.361
85296W        W53659   6.211   8.333   1.235
85297W        W53660  44.962  25.471  13.919
85298W        W53661  44.278  38.846   3.211
85299W        W53662  20.569  35.422   3.187
85300W        W53663  12.736   2.267   4.161
85301W        W53664  22.249  29.490  10.934
85302W        W53665  20.733  26.671   0.244
85303W        W53666  24.089  23.505   0.889
85304W        W53667   1.460  24.187   0.315
85305W        W53668  29.981  39.026   3.814
85306W        W53669  36.918  42.847  13.974
85307W        W53670  13.845   2.319   0.889
85308W        W53671   1.435  22.590   5.700
85309W        W53672   7.853  15.680   9.941
85310W        W53673  30.585  21.542  14.492
85311W        W53674  11.732  39.394  13.942
85312W        W53675  21.038  11.766  12.358
85313W        W53676  26.522  38.956   3.805
85314W        W53677  35.930  27.507  12.340
85315W        W53678  20.190  12.140  14.412
85316W        W53679  44.447   0.283  13.979
85317W        W53680  21.671  25.977   3.295
85318W        W53681  12.723  14.620   4.795
85319W        W53682   0.485   5.290   0.808
85320W        W53683  29.940   8.898  11.050
85321W        W53684  38.417   2.464   4.140
85322W        W53685  28.613  18.256   2.181
85323W        W53686  24.982  16.698  13.900
85324W        W53687  36.957  29.583   4.699
85325W        W53688  15.709  15.650   4.315
85326W        W53689   0.341  38.398  13.000
85327W        W53690  43.906  23.189   0.897
85328W        W53691  36.447  11.300   1.839
85329W        W53692  19.639   4.386  10.963
85330W        W53693   3.916  25.138   3.750
85331W        W53694  10.152  15.136   3.762
85332W        W53695  35.551  32.027   1.875
85333W        W53696   7.388  34.914  11.000
85334W        W53697  42.800  16.709   0.329
85335W        W53698   1.973  28.006   0.480
85336W        W53699   6.688   2.264  11.860
85337W        W53700   3.878  25.128  12.038
85338W        W53701  19.229  33.984  12.578
85339W        W53702  33.602  34.904  10.561
85340W        W53703  37.523   7.314  11.903
85341W        W53704   6.783  37.337   2.828
85342W        W53705  34.597   3.306   4.321
85343W        W53706  27.097  30.560  11.421
85344W        W53707  37.400  31.058   4.326
85345W        W53708  17.764  34.563  12.356
85346W        W53709  37.432  34.614   2.192
85347W        W53710  36.420   2.784   4.205
85348W        W53711  43.873  39.019   4.284
85349W        W53712  16.265  28.179   1.354
85350W        W53713  34.375   0.750  14.411
85351W        W53714  31.507  29.019  11.944
85352W        W53715  34.529  44.379   0.815
85353W        W53716  14.215  14.281  13.915
85354W        W53717  21.647  37.960   2.180
85355W        W53718  22.026   4.265   1.872
85356W        W53719  39.391  39.926  14.019
85357W        W53720   3.451  30.964  11.599
85358W        W53721  14.249  43.453   4.135
85359W        W53722  32.503  41.936   4.145
85360W        W53723  26.492  11.267   1.821
85361W        W53724  43.980  16.732   0.461
85362W        W53725   0.320  19.053  11.875
85363W        W53726  18.090  27.133  12.547
85364W        W53727  39.832  29.954   4.204
85365W        W53728  18.654   5.784  12.523
85366W        W53729  36.367  29.160   0.411
85367W        W53730  28.485  14.749  12.498
85368W        W53731  28.586  19.168   4.121
85369W        W53732  40.329  11.668  11.413
85370W        W53733   5.415  44.970   9.969
85371W        W53734  15.694   8.674  14.798
85372W        W53735   4.217   3.792   3.298
85373W        W53736  17.577  42.980  12.962
85374W        W53737  34.011  20.249   2.716
85375W        W53738  39.426  43.355   0.906
85376W        W53739  43.277   3.348   1.832
85377W        W53740  15.670   0.784   2.258
85378W        W53741  34.428  29.951  12.855
85379W        W53742  40.346  19.753  11.554
85380W        W53743  19.227  30.043   3.164
85381W        W53744  32.519  39.898   4.790
85382W        W53745  18.202   7.752   3.789
85383W        W53746  27.159   0.462  13.490
85384W        W53747  16.794  34.999  10.408
85385W        W53748  41.495  38.428   4.835
85386W        W53749   5.342  39.519   4.726
85387W        W53750  12.177  23.174   2.255
85388W        W53751  27.105  27.975   0.918
85389W        W53752  31.458  27.448  12.018
85390W        W53753  44.981  38.373  13.850
85391W        W53754  38.039  16.805  13.992
85392W        W53755   0.867  42.954  11.951
85393W        W53756   3.864  38.819  11.989
85394W        W53757  41.806  14.739   4.708
85395W        W53758  15.090   9.162  10.983
85396W        W53759  21.218  34.056   1.359
85397W        W53760   3.266  19.267   1.882
85398W        W53761  14.662  36.049   0.865
85399W        W53762  16.155  23.671   0.411
85400W        W53763  42.948  34.432  13.333
85401W        W53764  22.516  24.002   0.929
85402W        W53765  15.304  35.438   0.325
85403W        W53766  30.028  19.643  14.390
85404W        W53767  40.438  30.128  11.423
85405W        W53768   8.711  39.487   4.784
85406W        W53769  42.869  12.687   0.391
85407W        W53770  14.718  21.649   2.238
85408W        W53771  31.635  35.059   1.244
85409W        W53772  37.911  15.196   3.184
85410W        W53773  18.072   4.927   3.871
85411W        W53774   3.885   4.328   1.261
85412W        W53775  20.669  44.496  11.953
85413W        W53776  13.842  17.778  13.434
85414W        W53777  23.189  11.316  10.969
85415W        W53778  33.062  39.848   1.919
85416W        W53779  28.611  31.032  12.339
85417W        W53780   4.927   1.812   0.290
85418W        W53781  15.198  20.528  13.856
85419W        W53782  27.661  42.839  12.932
85420W        W53783  41.912  18.774  10.452
85421W        W53784  10.752  39.441  12.932
85422W        W53785  17.279   1.805  14.806
85423W        W53786  24.190  23.113  12.482
85424W        W53787  30.162  22.997  10.644
85425W        W53788  37.903  29.052  10.938
85426W        W53789  24.136  35.944   1.752
85427W        W53790  30.464   9.177  14.880
85428W        W53791   5.292   6.378   2.874
85429W        W53792   8.252  27.196  11.977
85430W        W53793   6.850   6.274  14.485
85431W        W53794  22.540  16.316   2.201
85432W        W53795   8.338  25.590  11.565
85433W        W53796  43.412  19.052  11.088
85434W        W53797  19.257  16.721  13.518
85435W        W53798   4.365   0.833   0.424
85436W        W53799  29.487  27.958   2.277
85437W        W53800  30.095  18.776   1.706
85438W        W53801  17.303  12.817   1.695
85439W        W53802  10.206  11.715  12.891
85440W        W53803  31.100  35.563  13.031
85441W        W53804  27.472  36.441  11.506
85442W        W53805  30.122  24.605   1.904
85443W        W53806  10.844   2.455  14.335
85444W        W53807  37.556  27.105   2.733
85445W        W53808  39.397  21.140  12.081
85446W        W53809  30.600  19.665   0.418
85447W        W53810  32.099  38.496   4.808
85448W        W53811   8.716  35.417   1.246
85449W        W53812  34.036  16.202  12.383
85450W        W53813  20.234   7.905   2.181
85451W        W53814  30.558  34.445   0.786
85452W        W53815   3.794  40.427   3.662
85453W        W53816  40.319   4.707   5.290
85454W        W53817  15.151  28.081  13.434
85455W        W53818  15.677  22.573  12.981
85456W        W53819   1.283   9.365  14.784
85457W        W53820  14.727  15.088  11.447
85458W        W53821  16.077  44.922  12.940
85459W        W53822  16.185  17.641   2.216
85460W        W53823  16.573   1.361  11.975
85461W        W53824  27.148  23.007   3.725
85462W        W53825  23.086  21.558  11.063
85463W        W53826  21.152  27.659   0.410
85464W        W53827   8.863  16.115   1.703
85465W        W53828  42.982  33.614  12.056
85466W        W53829   2.746  27.601  14.881
85467W        W53830   2.926  28.963  14.019
85468W        W53831  13.842  34.439   2.391
85469W        W53832  25.019  26.638   3.256
85470W        W53833   5.428  31.636  14.893
85471W        W53834   3.887  35.570   2.748
85472W        W53835  42.459  33.031   0.366
85473W        W53836  31.948   8.841   9.984
85474W        W53837  33.481  40.006  12.081
85475W        W53838  27.515  37.542   2.819
85476W        W53839   7.397   7.892   1.238
85477W        W53840  42.889   9.801   4.660
85478W        W53841  12.746  11.807   2.878
85479W        W53842  24.201  17.280   4.774
85480W        W53843  10.650  29.589  14.396
85481W        W53844  21.675  41.411   4.269
85482W        W53845  32.469  42.520  10.458
85483W        W53846  27.020  41.906   2.699
85484W        W53847  18.095  20.536   2.817
85485W        W53848  23.194  18.709   2.845
85486W        W53849  11.226   3.402   2.818
85487W        W53850   4.254  16.580   1.866
85488W        W53851  35.446   5.919  11.379
85489W        W53852  16.159  14.155  10.497
85490W        W53853  44.344  29.176  10.134
85491W        W53854  37.537   2.443   0.760
85492W        W53855  34.389  15.798   4.225
85493W        W53856  18.577  27.524   3.346
85494W        W53857   2.803  42.863  11.373
85495W        W53858  13.120  13.313   4.161
85496W        W53859   9.287  35.990   2.673
85497W        W53860  34.898  17.712  12.434
85498W        W53861  16.201  32.621  12.502
85499W        W53862  15.732  27.180   3.359
85500W        W53863  27.056   4.809   3.174
85501W        W53864  27.078  27.026   0.890
85502W        W53865  40.021   9.388  10.512
85503W        W53866   1.769  32.046  13.941
85504W        W53867  33.551  41.962  12.348
85505W        W53868  44.385  19.603  14.275
85506W        W53869  35.548  30.000  12.481
85507W        W53870  40.382  32.032  13.534
85508W        W53871   0.828  44.820  11.606
85509W        W53872   7.886  43.939  14.792
85510W        W53873   3.378  18.189   0.392
85511W        W53874  21.515  40.331   4.754
85512W        W53875  40.803  14.821  12.920
85513W        W53876   6.851  20.206  14.770
85514W        W53877  34.446  12.248  12.451
85515W        W53878  36.965  24.129  10.486
85516W        W53879  12.806   5.345   1.246
85517W        W53880  29.137  28.520  14.953
85518W        W53881  40.849  18.050   4.823
85519W        W53882  27.492  20.576  14.296
85520W        W53883  17.114  19.771   4.658
85521W        W53884   6.728  15.614  12.457
85522W        W53885  25.970  35.489   4.616
85523W        W53886   8.220   9.364  14.773
85524W        W53887   2.777  23.018  11.894
85525W        W53888   1.266   9.366  14.437
85526W        W53889  20.044   8.262  10.940
85527W        W53890  31.046  27.959   9.967
85528W        W53891  22.508  18.092  12.888
85529W        W53892  36.525  23.150  13.546
85530W        W53893   3.348  40.814   4.620
85531W        W53894  13.189  20.754  12.853
85532W        W53895  28.962   3.955   4.798
85533W        W53896   7.705  30.076  13.537
85534W        W53897  38.467  38.881  12.017
85535W        W53898   8.677  13.152   5.123
85536W        W53899  19.042   3.844  14.295
85537W        W53900  27.002  33.615  12.359
85538W        W53901  37.878  18.172  13.417
85539W        W53902   4.703  19.253   0.834
85540W        W53903  33.438  40.051  12.555
85541W        W53904  43.821  39.877  14.417
85542W        W53905   8.395  39.350   3.846
85543W        W53906  10.843   6.911   2.724
85544W        W53907  19.243   7.699   2.762
85545W        W53908  35.076  38.943   4.121
85546W        W53909  10.664  11.270  10.571
85547W        W53910  28.180   1.272  10.503
85548W        W53911  29.595  41.498   1.935
85549W        W53912  34.065  35.583   1.793
85550W        W53913  24.997  21.110   4.183
85551W        W53914  16.633  14.628  10.643
85552W        W53915  35.474  35.506  10.643
85553W        W53916  29.550  34.953  14.285
85554W        W53917  13.767  22.075   2.829
85555W        W53918  24.131   5.737   1.730
85556W        W53919  15.692  34.402  14.765
85557W        W53920   4.348  26.063   3.871
85558W        W53921  32.070   0.382  12.977
85559W        W53922  27.961   0.747  12.919
85560W        W53923  36.854  43.870   2.189
85561W        W53924  41.388  35.868  14.891
85562W        W53925  19.121  41.967   0.308
85563W        W53926   7.237  43.329  11.595
85564W        W53927  35.962  23.735  11.485
85565W        W53928  27.493  33.084   3.638
85566W        W53929  44.897  16.682   1.748
85567W        W53930  41.974  15.761  14.303
85568W        W53931  22.692   2.318   3.845
85569W        W53932  25.664   7.690   2.178
85570W        W53933  44.884  17.246   2.760
85571W        W53934  29.424   4.394   4.208
85572W        W53935  18.758  44.823   0.472
85573W        W53936  35.475  15.253  12.875
85574W        W53937  12.628  24.702  10.997
85575W        W53938  29.492   7.219   2.244
85576W        W53939   7.776   1.266   2.385
85577W        W53940  13.690  10.380  11.934
85578W        W53941  36.403  21.672   1.898
85579W        W53942  34.557  22.044   4.297
85580W        W53943  41.351  26.693  10.966
85581W        W53944  28.438  13.677   2.776
85582W        W53945  24.658   7.671  12.572
85583W        W53946  29.423  22.600  12.885
85584W        W53947   5.266  23.192   4.834
85585W        W53948  16.666  21.124   4.283
85586W        W53949  26.530  23.611  14.878
85587W        W53950  31.943  21.671  12.954
85588W        W53951  21.215  44.311   1.801
85589W        W53952   7.182  17.189  12.826
85590W        W53953  15.777  15.689  11.017
85591W        W53954  26.965  16.273   5.242
85592W        W53955  29.995  33.471  10.499
85593W        W53956  21.690   7.172  12.454
85594W        W53957  43.860  31.133  13.393
85595W        W53958  28.579  19.681  14.405
85596W        W53959   3.246  12.789   1.380
85597W        W53960   2.760  31.606   4.278
85598W        W53961  36.030   8.340   1.423
85599W        W53962  14.791  40.527  12.401
85600W        W53963   1.733  24.658   3.299
85601W        W53964   5.431  39.939   0.329
85602W        W53965  21.090  14.330  11.945
85603W        W53966  16.780  35.548  11.116
85604W        W53967  30.139  37.847   0.308
85605W        W53968  33.895  10.234   4.676
85606W        W53969  32.057  39.892   3.174
85607W        W53970  11.849  36.920   0.275
85608W        W53971  41.027  42.477   1.438
85609W        W53972   0.342  38.029  10.536
85610W        W53973  39.979  25.993  11.055
85611W        W53974  33.948  30.447   1.845
85612W        W53975  15.298   7.680   0.393
85613W        W53976  19.551  31.583  10.972
85614W        W53977  26.196  30.625  13.512
85615W        W53978   0.936  17.208  12.370
85616W        W53979   4.725  41.892  11.072
85617W        W53980   3.731  21.031  12.559
85618W        W53981  18.154  27.064  11.033
85619W        W53982  10.785  33.605   4.139
85620W        W53983  43.359  31.465   3.856
85621W        W53984  18.150  22.616   2.889
85622W        W53985  22.585   9.746  12.015
85623W        W53986  11.775  38.846  11.995
85624W        W53987  28.436  20.755  13.473
85625W        W53988   5.207   5.910   4.698
85626W        W53989   2.780  17.671  12.829
85627W        W53990  15.809  24.661  13.893
85628W        W53991  32.471  17.160   2.692
85629W        W53992  27.617  17.728   2.212
85630W        W53993  21.092  21.612   0.838
85631W        W53994  12.289  35.537  14.305
85632W        W53995   4.743   1.420   0.964
85633W        W53996  34.079   5.840   3.370
85634W        W53997  18.054  12.803   2.287
85635W        W53998  16.811  23.511  14.506
85636W        W53999  39.538  18.154   2.352
85637W        W54000  21.185  26.596   3.270
85638W        W54001  17.632  21.036   3.228
85639W        W54002   3.804  41.791   4.175
85640W        W54003   8.797  13.141   1.905
85641W        W54004  20.754  35.495   4.754
85642W        W54005  27.168  17.771  14.479
85643W        W54006   0.392  18.226  13.971
85644W        W54007  38.035  23.032   3.762
85645W        W54008  35.038  32.007  11.063
85646W        W54009  29.928   6.336  13.903
85647W        W54010   4.214   8.725   4.348
85648W        W54011   2.874   4.934  10.576
85649W        W54012  42.881  30.037   4.806
85650W        W54013   7.800  15.780   0.256
85651W        W54014  11.678   6.724   3.248
85652W        W54015  20.651  26.060  14.932
85653W        W54016   8.331  17.287  12.829
85654W        W54017  40.494  27.983   5.149
85655W        W54018  36.992   2.392  14.945
85656W        W54019  26.021  28.621  10.641
85657W        W54020  20.216  27.138   0.263
85658W        W54021  24.113  23.102   3.251
85659W        W54022  30.976  28.009  12.022
85660W        W54023  35.975  27.189   2.872
85661W        W54024  18.061  19.048  11.105
85662W        W54025  14.797  43.394  11.111
85663W        W54026  10.843  44.982  14.462
85664W        W54027   4.938   9.807   4.674
85665W        W54028   9.852   1.430  14.849
85666W        W54029  39.826  32.078   3.374
85667W        W54030  28.045  29.988   2.743
85668W        W54031  37.001  43.816   4.187
85669W        W54032  37.898  30.923  10.892
85670W        W54033  41.916  38.884  11.481
85671W        W54034  28.116  39.527   3.312
85672W        W54035   9.284  29.172  10.945
85673W        W54036  35.970  38.057  11.564
85674W        W54037  15.241  10.152  11.923
85675W        W54038  44.376   0.790  13.937
85676W        W54039   7.880   8.871   4.618
85677W        W54040  24.641   4.862  10.041
85678W        W54041  16.318   1.404  13.890
85679W        W54042  41.878  18.211   0.909
85680W        W54043  43.000  38.898  13.367
85681W        W54044  24.215  29.637   1.215
85682W        W54045  36.918   7.282   4.257
85683W        W54046  31.560   3.337  13.347
85684W        W54047  31.147  41.786  12.917
85685W        W54048  29.515  26.565   4.699
85686W        W54049  33.096  10.198   0.328
85687W        W54050  13.134  44.943  14.316
85688W        W54051  41.931  31.135   0.809
85689W        W54052   7.723   6.396   1.806
85690W        W54053  20.268  14.809  12.545
85691W        W54054  21.660  42.873   1.792
85692W        W54055   6.232   6.400  13.829
85693W        W54056  14.708  40.375  10.483
85694W        W54057  24.177  25.963   1.811
85695W        W54058   0.418   6.747   0.351
85696W        W54059  31.994  44.949   3.864
85697W        W54060  27.972  17.214  11.467
85698W        W54061  14.196  43.781  10.444
85699W        W54062   5.901  18.282   0.936
85700W        W54063  25.087  28.482  12.493
85701W        W54064   0.804  38.932  11.033
85702W        W54065   8.207  20.189  11.065
85703W        W54066   1.269   8.729   1.738
85704W        W54067  33.928  35.054   1.793
85705W        W54068  29.656  35.531   4.275
85706W        W54069  44.010   1.905  12.432
85707W        W54070   3.911   7.854  13.369
85708W        W54071  31.006  20.028   1.893
85709W        W54072  11.826   4.211  10.518
85710W        W54073  43.990  17.160  11.498
85711W        W54074  34.894  25.541  12.891
85712W        W54075  19.180  34.466   1.830
85713W        W54076  38.489  36.030   3.344
85714W        W54077  15.311  23.652  11.560
85715W        W54078  27.562   8.359   2.184
85716W        W54079  26.496  34.941  13.840
85717W        W54080  32.477  22.085  11.454
85718W        W54081   6.250  41.883   3.216
85719W        W54082  12.226  42.380   3.674
85720W        W54083  22.572  35.036  13.503
85721W        W54084  40.452  33.566   1.343
85722W        W54085  36.349   0.385  14.415
85723W        W54086  22.739  17.257   1.903
85724W        W54087  39.434  26.602  14.792
85725W        W54088  16.776  13.650   0.350
85726W        W54089  18.089  30.563   2.872
85727W        W54090   4.904  16.795  12.349
85728W        W54091  12.757  13.746   3.745
85729W        W54092  21.730  42.524  10.976
85730W        W54093   4.361  41.449   2.397
85731W        W54094  21.175   4.806   0.314
85732W        W54095  24.479  31.632  14.882
85733W        W54096  30.995  39.423  12.458
85734W        W54097   2.338  31.017   3.367
85735W        W54098  36.449  44.502   3.153
85736W        W54099  34.465  27.004   3.175
85737W        W54100  32.097   0.467   1.271
85738W        W54101  15.148  25.097   4.651
85739W        W54102  16.626  17.179  14.307
85740W        W54103  37.937   2.424  12.022
85741W        W54104   5.218  12.820   0.369
85742W        W54105  38.327  23.549  11.890
85743W        W54106  23.529  16.316  11.015
85744W        W54107  33.899  43.956   9.677
85745W        W54108  44.362  10.835   0.244
85746W        W54109  27.663  26.475   2.892
85747W        W54110  12.314  13.688   3.720
85748W        W54111  24.224   9.804  14.284
85749W        W54112   0.878  32.508  12.536
85750W        W54113  19.538  27.976   4.692
85751W        W54114  17.293  39.316  14.487
85752W        W54115   0.392  34.412   2.873
85753W        W54116  31.524  44.924   2.848
85754W        W54117  14.128   7.399  14.928
85755W        W54118  16.802  19.049  11.038
85756W        W54119  39.038  42.455   2.748
85757W        W54120  17.779   6.306  10.912
85758W        W54121  19.085  42.489  13.953
85759W        W54122  27.544   1.298  14.410
85760W        W54123  13.700  13.772   2.726
85761W        W54124  10.356  26.702  13.942
85762W        W54125   4.312  40.018  10.464
85763W        W54126  25.217  34.875  14.296
85764W        W54127  15.169  34.948   3.744
85765W        W54128   7.245   8.178  13.037
85766W        W54129  33.040   8.684  13.395
85767W        W54130  34.017  13.126   2.661
85768W        W54131   3.919  44.799  12.963
85769W        W54132  15.806  37.903  12.028
85770W        W54133   4.797   0.865  13.464
85771W        W54134  32.576  41.523   1.765
85772W        W54135  14.153   6.806  11.479
85773W        W54136  18.577  14.260  14.366
85774W        W54137   4.709  33.092  10.932
85775W        W54138  32.457   9.773  11.910
85776W        W54139  32.939  19.252  13.793
85777W        W54140  35.396   5.770   0.341
85778W        W54141  34.436  41.470   2.223
85779W        W54142  24.571  17.147  14.360
85780W        W54143  37.432  42.906   3.731
85781W        W54144  33.572  35.898  14.328
85782W        W54145  25.103  37.408   1.906
85783W        W54146   7.729  14.650  12.832
85784W        W54147  13.144   2.780  13.342
85785W        W54148  34.024   0.480  14.364
85786W        W54149  33.973  24.692   2.772
85787W        W54150  42.359   9.790  10.580
85788W        W54151  17.203   7.177   1.881
85789W        W54152   2.840   0.392  11.927
85790W        W54153   9.361   6.366  14.862
85791W        W54154  23.553  24.180   2.244
85792W        W54155  18.775  14.136   9.988
85793W        W54156  11.776  35.408   0.483
85794W        W54157  27.499  35.594  13.521
85795W        W54158  39.897  23.730  12.394
85796W        W54159  40.036  28.587  13.933
85797W        W54160  25.024   2.376   3.813
85798W        W54161   9.761  15.329  12.902
85799W        W54162   3.412   7.408  12.532
85800W        W54163  22.623  18.253   9.991
85801W        W54164  30.614  26.111  13.316
85802W        W54165  36.579  13.245  10.604
85803W        W54166  19.651  31.511   2.343
85804W        W54167  30.135  23.705  13.989
85805W        W54168   1.273  31.939   4.733
85806W        W54169  30.604  12.168  13.874
85807W        W54170  29.442  16.219   3.268
85808W        W54171  40.938  27.088   4.116
85809W        W54172  40.874   8.860  11.565
85810W        W54173  44.444  28.147  14.960
85811W        W54174  14.164  16.202   0.885
85812W        W54175  36.935   3.863   0.392
85813W        W54176  43.410  43.893  11.901
85814W        W54177  30.007  12.339   1.705
85815W        W54178  32.891  27.942  11.872
85816W        W54179  25.526  21.645   1.828
85817W        W54180  30.470  36.854  13.016
85818W        W54181  35.897  15.186  13.976
85819W        W54182   0.846  11.669  12.864
85820W        W54183  16.661   6.743  13.045
85821W        W54184  38.839  42.436  10.632
85822W        W54185  21.651   9.859   2.368
85823W        W54186  22.135  41.414  11.509
85824W        W54187  24.523  21.038  11.060
85825W        W54188  22.012  33.532  14.855
85826W        W54189  14.657   3.329  12.969
85827W        W54190  16.782  34.873  12.900
85828W        W54191  36.996  14.657   4.222
85829W        W54192  29.640  38.834  10.120
85830W        W54193  28.650   3.243  10.409
85831W        W54194   2.276  23.572  13.325
85832W        W54195  22.683   5.856  12.489
85833W        W54196  14.831  44.268   1.734
85834W        W54197  19.592  20.030  12.839
85835W        W54198  41.428  17.673  14.301
85836W        W54199   0.452  30.628  11.428
85837W        W54200  26.528  19.768  11.909
85838W        W54201  30.946  33.082   1.926
85839W        W54202  17.734   8.805  11.401
85840W        W54203  15.232  42.470   1.832
85841W        W54204  44.481  11.258  13.993
85842W        W54205  15.680  37.984   1.762
85843W        W54206  17.172   6.410  12.513
85844W        W54207  43.910   1.455  10.973
85845W        W54208   3.316  23.694  11.384
85846W        W54209   2.864  16.659  12.999
85847W        W54210  37.865  20.165   3.783
85848W        W54211  18.282  34.576   4.353
85849W        W54212  20.634  40.846  12.366
85850W        W54213  29.669  14.295   3.740
85851W        W54214  14.665   5.384   1.885
85852W        W54215  34.048  33.426   3.351
85853W        W54216  28.436  34.056   4.244
85854W        W54217  21.061  42.870   4.600
85855W        W54218  31.897  32.091   0.430
85856W        W54219  12.745   7.698  11.865
85857W        W54220  35.995  20.742   4.804
85858W        W54221  26.954  22.188  11.592
85859W        W54222  23.666  25.011   1.266
85860W        W54223  39.997   0.918  14.348
85861W        W54224   8.352  42.503  13.910
85862W        W54225   2.749  44.366   3.269
85863W        W54226  43.351  13.298   3.726
85864W        W54227  27.958   5.242   1.721
85865W        W54228   6.211  19.661   3.203
85866W        W54229  40.344  23.125  11.034
85867W        W54230  33.411  15.657  13.466
85868W        W54231  43.501  36.538  14.976
85869W        W54232  16.180  16.085   4.683
85870W        W54233  10.280  27.500   0.907
85871W        W54234  25.706  43.813   1.706
85872W        W54235  27.517  23.566  10.895
85873W        W54236   2.892  20.198  14.958
85874W        W54237  31.502  42.428   0.742
85875W        W54238   1.475  18.790   3.231
85876W        W54239  17.786  33.026   2.747
85877W        W54240   0.762  18.291  14.934
85878W        W54241  16.203  29.121  11.587
85879W        W54242   0.785  28.644  12.484
85880W        W54243  13.314  28.086   1.858
85881W        W54244  43.783  33.017   0.262
85882W        W54245  22.690  31.493  14.876
85883W        W54246  39.830  33.096  13.961
85884W        W54247  37.965  15.774  13.484
85885W        W54248  21.052  18.557  11.545
85886W        W54249  17.067  44.258  14.425
85887W        W54250   8.807  29.019   3.267
85888W        W54251  19.698  23.600  14.375
85889W        W54252  20.130   1.429  13.909
85890W        W54253   1.384  40.955   3.766
85891W        W54254  19.046  35.395   4.196
85892W        W54255  38.033  24.090   4.279
85893W        W54256   4.774  10.682  12.541
85894W        W54257  43.819  31.412   3.813
85895W        W54258  44.952  40.830  13.519
85896W        W54259  28.975  24.645  12.452
85897W        W54260   8.720  15.218  12.539
85898W        W54261  13.329   4.753  11.087
85899W        W54262   5.293  25.148  10.472
85900W        W54263  17.755  39.056   0.244
85901W        W54264  44.839  25.163   0.750
85902W        W54265   5.193  44.755  11.502
85903W        W54266  13.289  30.106   1.880
85904W        W54267   9.723  14.296   3.791
85905W        W54268  38.876  43.452  12.558
85906W        W54269  26.488  35.073  10.474
85907W        W54270  14.647  37.927  10.985
85908W        W54271  10.693  15.665  10.609
85909W        W54272   7.808  22.637   0.315
85910W        W54273   5.764  40.014   1.213
85911W        W54274  43.022  15.224  12.461
85912W        W54275  24.531  41.904  10.460
85913W        W54276   3.260  36.452  12.404
85914W        W54277  32.131  17.760  12.407
85915W        W54278  22.217  10.646  12.891
85916W        W54279  44.802   6.722  12.905
85917W        W54280  15.598  20.041  13.493
85918W        W54281  28.633  26.078   0.834
85919W        W54282  10.840  30.081  14.423
85920W        W54283  25.113  30.453  12.439
85921W        W54284  21.167  30.038   0.758
85922W        W54285  42.866  34.924   2.313
85923W        W54286  22.545  14.097   4.294
85924W        W54287  29.488  25.027   4.266
85925W        W54288  13.105  39.432   0.246
85926W        W54289   2.727  39.430   1.260
85927W        W54290  44.302  19.114  11.863
85928W        W54291  31.028  36.562   1.232
85929W        W54292   9.243   5.350  14.287
85930W        W54293  29.579  13.741  11.098
85931W        W54294  14.834  25.029  11.445
85932W        W54295  21.088  15.101   0.337
85933W        W54296  15.580  29.131   3.686
85934W        W54297   2.948  37.543   0.825
85935W        W54298  34.021   8.194   2.695
85936W        W54299   5.886  25.208   2.664
85937W        W54300  20.146  19.773  14.343
85938W        W54301   8.293   8.723   4.746
85939W        W54302  23.550   5.765   3.652
85940W        W54303  17.748  44.947  13.879
85941W        W54304  41.475  10.783   3.637
85942W        W54305  10.636  15.684   4.173
85943W        W54306  43.933  41.840   3.665
85944W        W54307  25.598   3.232   3.667
85945W        W54308   8.313  28.590  14.516
85946W        W54309  43.951  28.173   3.701
85947W        W54310  25.513  44.424   0.332
85948W        W54311  39.480  44.305   0.380
85949W        W54312  31.489  31.646   0.796
85950W        W54313  41.861  35.916   4.639
85951W        W54314   9.881  29.573  11.495
85952W        W54315  29.107   5.316   0.772
85953W        W54316  13.329   7.365   1.871
85954W        W54317   4.899  17.256  14.310
85955W        W54318  28.503  18.204  12.410
85956W        W54319  27.946   9.322   0.855
85957W        W54320  22.640   8.765  11.070
85958W        W54321  11.747  10.147   4.637
85959W        W54322  38.912  40.483  13.482
85960W        W54323  32.486  29.489  13.002
85961W        W54324  15.174  24.641   3.815
85962W        W54325  24.543  33.456   4.289
85963W        W54326   0.756  15.083  10.577
85964W        W54327  37.529  22.648  11.098
85965W        W54328  11.667  27.490  10.906
85966W        W54329  27.599  29.999   1.876
85967W        W54330  33.518  27.600   1.393
85968W        W54331  20.666  11.675  12.949
85969W        W54332   2.807  14.177   4.204
85970W        W54333  24.615  22.694   1.264
85971W        W54334  30.423  37.565   1.376
85972W        W54335  25.477  23.502   0.254
85973W        W54336   3.288  38.334  13.502
85974W        W54337  20.636  29.608   3.360
85975W        W54338  13.141  43.976  11.049
85976W        W54339  17.620  42.295  14.278
85977W        W54340   3.895  15.144   3.843
85978W        W54341  14.338  10.204  13.873
85979W        W54342  27.083  26.591   1.267
85980W        W54343  40.811   2.882   0.778
85981W        W54344   7.714   9.321  11.116
85982W        W54345  37.870  38.499  11.487
85983W        W54346  23.686  10.308   3.286
85984W        W54347  12.676   2.423  13.879
85985W        W54348  31.583  33.939   2.392
85986W        W54349  18.059  42.469   4.674
85987W        W54350   4.325  38.821   0.426
85988W        W54351  38.071  38.871  10.059
85989W        W54352   7.898  41.831   2.777
85990W        W54353  17.083  34.610   3.681
85991W        W54354  38.947  43.279   1.902
85992W        W54355  15.762  11.288  13.307
85993W        W54356  11.359  38.025   0.288
85994W        W54357   6.234  17.103  14.501
85995W        W54358   2.268   1.892   4.597
85996W        W54359   5.917  11.738   3.737
85997W        W54360  11.351  35.488   2.197
85998W        W54361  26.577   9.850  12.578
85999W        W54362  26.993  33.403   0.815
86000W        W54363  35.595  22.664   1.218
86001W        W54364  26.090  33.453   2.836
86002W        W54365  27.585  42.002   4.764
86003W        W54366  29.027  32.088   5.289
86004W        W54367   9.777  16.600   2.268
86005W        W54368  30.429  35.080  12.953
86006W        W54369  40.374  23.687   5.190
86007W        W54370  26.695   6.895   2.821
86008W        W54371   0.388  27.505  13.979
86009W        W54372  31.134   2.378  13.441
86010W        W54373  36.096   0.453  10.420
86011W        W54374  24.051  37.926  10.988
86012W        W54375   6.232  19.586   1.290
86013W        W54376   3.931  32.419   3.777
86014W        W54377   5.411  11.266  13.547
86015W        W54378  17.596  21.092   4.771
86016W        W54379   5.737  33.947   4.726
86017W        W54380  28.072  34.982  14.778
86018W        W54381  19.186   2.422  11.439
86019W        W54382  33.084  24.707  12.016
86020W        W54383  27.981  11.335  12.995
86021W        W54384  28.118  15.700   2.340
86022W        W54385  38.521  26.657  10.513
86023W        W54386  38.555  37.015   2.769
86024W        W54387  29.475  25.169   4.653
86025W        W54388   1.419  24.085   5.594
86026W        W54389  33.556  30.444  12.876
86027W        W54390  12.854   4.739  14.932
86028W        W54391  11.141   8.665   3.380
86029W        W54392  37.374  27.692  13.483
86030W        W54393  19.748  19.243  11.063
86031W        W54394  16.239  32.591   2.769
86032W        W54395  44.366   8.655  14.316
86033W        W54396  44.348  10.659   4.217
86034W        W54397  20.210  25.128   0.866
86035W        W54398  35.528  33.071   3.833
86036W        W54399   8.216   2.437   1.792
86037W        W54400  16.112  31.086  13.383
86038W        W54401  11.273  19.551   5.192
86039W        W54402  27.504  25.005   1.361
86040W        W54403  13.324  40.960   4.790
86041W        W54404  31.932  41.524  12.372
86042W        W54405  30.480  21.731   1.271
86043W        W54406  42.959  23.113   0.760
86044W        W54407  44.363  12.135  10.597
86045W        W54408   3.928  25.478   2.900
86046W        W54409  37.338   2.926   0.793
86047W        W54410  24.649   4.418   0.352
86048W        W54411  44.330   7.295   3.818
86049W        W54412  30.974  18.277  14.315
86050W        W54413   8.768   1.460  14.030
86051W        W54414  15.167   0.961   1.779
86052W        W54415  21.199  42.027  13.408
86053W        W54416  42.447  31.434  10.451
86054W        W54417  27.116  19.114   3.645
86055W        W54418  20.762  11.339   2.878
86056W        W54419   8.750  26.087  12.550
86057W        W54420  19.643  27.142  11.371
86058W        W54421  14.625  11.142   3.219
86059W        W54422  34.510  21.743   2.254
86060W        W54423  34.074  41.295  11.074
86061W        W54424  30.143  22.723  13.934
86062W        W54425  29.919  10.333  10.943
86063W        W54426  27.098  15.084   0.260
86064W        W54427  21.236   6.194   4.669
86065W        W54428   9.289   8.277  13.359
86066W        W54429   7.789  44.447  10.153
86067W        W54430  34.024  24.149  13.528
86068W        W54431  30.939  17.625  10.467
86069W        W54432   3.826  16.268  11.074
86070W        W54433   1.405  17.192   2.180
86071W        W54434  25.490  42.368   1.261
86072W        W54435  21.147  22.209   4.656
86073W        W54436  24.612   3.329   2.677
86074W        W54437   8.238  13.790  12.434
86075W        W54438  30.105  22.567   1.803
86076W        W54439   8.763   3.345   2.775
86077W        W54440  13.166   1.255   0.750
86078W        W54441  23.235  21.185   2.857
86079W        W54442   2.959  21.723  12.578
86080W        W54443   0.458   9.885   3.288
86081W        W54444  30.915  17.183  13.889
86082W        W54445  43.837  15.650  14.840
86083W        W54446  13.804  18.130   3.188
86084W        W54447  24.595  42.949   4.308
86085W        W54448  30.587  26.681  14.814
86086W        W54449  32.613  44.762  14.478
86087W        W54450  40.975  24.684   3.203
86088W        W54451  17.628  22.119  11.999
86089W        W54452  14.711  32.511   0.256
86090W        W54453  27.485  23.578   0.837
86091W        W54454  12.348  33.405   2.708
86092W        W54455  26.169  14.634  11.886
86093W        W54456  13.112  30.650  14.876
86094W        W54457  11.278  13.735   1.721
86095W        W54458  40.447  14.173  14.349
86096W        W54459   2.263   8.858  12.408
86097W        W54460  13.639  43.953   4.313
86098W        W54461  11.661   8.708  13.496
86099W        W54462   4.418   5.392  10.916
86100W        W54463  32.435  28.937   2.664
86101W        W54464  42.862  24.708   1.933
86102W        W54465   0.335  31.640  14.848
86103W        W54466  41.400  41.419   3.236
86104W        W54467  22.543  21.535   4.653
86105W        W54468  41.807   1.886   4.189
86106W        W54469  24.575  11.660   1.841
86107W        W54470  21.070  24.149   2.348
86108W        W54471   3.355  23.063  13.022
86109W        W54472  41.295  23.205  14.866
86110W        W54473   9.789   4.765  11.920
86111W        W54474  12.657  42.960  14.492
86112W        W54475   6.378  12.673  12.494
86113W        W54476  29.170  34.508   4.785
86114W        W54477  35.994  12.775  12.373
86115W        W54478  26.529   7.714  14.441
86116W        W54479  10.323  42.880   3.846
86117W        W54480   6.228  36.012   3.673
86118W        W54481  44.817  31.575   0.911
86119W        W54482  24.207  29.173   2.795
86120W        W54483  41.509  39.408  14.969
86121W        W54484  27.078  24.089   1.366
86122W        W54485   6.261  19.573   4.222
86123W        W54486  41.343  16.188  10.922
86124W        W54487  44.830  37.845   9.935
86125W        W54488  37.420   7.748   3.841
86126W        W54489  22.682  42.996   1.754
86127W        W54490  23.564  16.260  12.410
86128W        W54491  44.972  40.866  13.905
86129W        W54492  14.257  18.070  10.464
86130W        W54493  35.932  15.695   3.847
86131W        W54494  12.625  30.591   3.777
86132W        W54495  26.189  36.074   1.756
86133W        W54496  26.115   0.795   2.678
86134W        W54497  40.824  10.265   1.924
86135W        W54498  14.141  34.974   4.815
86136W        W54499   6.228  33.576   4.250
86137W        W54500  23.102  33.906   4.235
86138W        W54501  31.592  12.142  12.899
86139W        W54502  14.746  14.324   5.141
86140W        W54503  15.134  36.529  12.526
86141W        W54504   6.782  11.760   3.789
86142W        W54505  34.533  11.803   0.739
86143W        W54506  24.720  10.318   1.817
86144W        W54507  42.784  24.531  13.379
86145W        W54508  11.771   4.340   9.934
86146W        W54509  20.145   2.802   3.725
86147W        W54510  13.244  44.835  13.401
86148W        W54511  24.120  44.281  11.085
86149W        W54512  23.089   4.246   0.482
86150W        W54513  41.800   0.947  13.451
86151W        W54514  14.695  10.755  14.501
86152W        W54515   6.420  10.744  10.613
86153W        W54516  39.816  16.787  13.913
86154W        W54517  16.233  39.363   0.474
86155W        W54518   2.789  39.992  11.471
86156W        W54519  29.075   8.294   3.757
86157W        W54520  36.551  28.583   3.226
86158W        W54521  41.038  24.050   1.851
86159W        W54522  16.318  23.002  13.948
86160W        W54523  40.951  42.836   4.200
86161W        W54524   2.746  26.531  10.623
86162W        W54525   9.693  16.693  13.031
86163W        W54526  25.061  21.063   1.906
86164W        W54527   2.330  34.949  13.510
86165W        W54528  14.686  21.628  11.454
86166W        W54529  31.409  42.466  12.054
86167W        W54530  23.696   8.681  14.032
86168W        W54531  18.692   6.866   0.386
86169W        W54532   3.848   8.180  12.540
86170W        W54533  33.028  26.688   2.790
86171W        W54534  10.734  40.860   0.403
86172W        W54535  23.178  43.413   2.819
86173W        W54536   3.239   0.403   1.753
86174W        W54537  21.637  36.439  12.879
86175W        W54538  32.427  30.415  13.419
86176W        W54539  42.485  34.415   1.389
86177W        W54540  17.790   5.782   1.804
86178W        W54541  32.479   7.701  10.639
86179W        W54542  13.247  44.477  11.122
86180W        W54543  22.579  18.076   3.369
86181W        W54544  18.154   1.266   2.705
86182W        W54545   9.731  12.340  13.366
86183W        W54546  31.069   7.222   1.743
86184W        W54547  14.710   3.858   3.756
86185W        W54548  17.153   8.791   2.715
86186W        W54549   2.338  24.503  11.033
86187W        W54550  27.501  10.731  11.077
86188W        W54551  39.974   7.831   1.846
86189W        W54552  14.644  18.689   3.712
86190W        W54553  25.121  41.962  10.465
86191W        W54554  27.544   0.302   4.290
86192W        W54555  39.502   2.754  11.034
86193W        W54556  22.183  28.567   0.874
86194W        W54557  31.512  30.926  10.578
86195W        W54558  32.512  25.693  14.976
86196W        W54559   3.346   6.262   1.427
86197W        W54560  38.037   0.306  14.447
86198W        W54561  36.890  32.061  11.443
86199W        W54562  30.605  30.541   2.898
86200W        W54563  23.520  34.512  11.090
86201W        W54564  31.995  24.604   1.318
86202W        W54565  30.436  17.672  10.588
86203W        W54566   7.739  42.324   2.725
86204W        W54567  42.296  41.524  13.028
86205W        W54568   3.809  25.688  13.805
86206W        W54569  30.984   5.783   1.444
86207W        W54570  37.980  39.434   1.710
86208W        W54571  21.672  43.776  14.865
86209W        W54572  26.130  27.676   1.887
86210W        W54573  33.018  40.821  11.461
86211W        W54574   9.340  10.742   1.386
86212W        W54575  43.400  40.306  10.540
86213W        W54576  19.090  20.760   3.792
86214W        W54577  40.393  22.163  12.910
86215W        W54578   8.719   7.312   0.882
86216W        W54579  33.907  32.970   2.362
86217W        W54580  17.759  35.069   3.646
86218W        W54581  36.492  41.469   4.691
86219W        W54582  41.856  22.115  11.980
86220W        W54583  44.823  25.204  11.030
86221W        W54584  31.566  12.143   2.729
86222W        W54585  18.210  44.265  12.085
86223W        W54586   0.965  13.295   4.312
86224W        W54587  26.506  29.599  13.524
86225W        W54588  24.650  30.576   5.276
86226W        W54589   2.858  39.440   1.701
86227W        W54590  12.638  33.130   2.802
86228W        W54591  12.726  21.714   2.358
86229W        W54592  20.200  10.325  12.484
86230W        W54593   4.244   6.395  12.912
86231W        W54594   4.258   8.880  14.884
86232W        W54595  35.872  17.703   4.203
86233W        W54596  24.677   6.678  11.954
86234W        W54597  31.422   1.363  10.628
86235W        W54598  18.128  37.931  12.855
86236W        W54599  27.079  39.997  12.495
86237W        W54600  44.941  34.010  13.898
86238W        W54601   0.448  39.367  11.415
86239W        W54602   7.718  16.152   3.386
86240W        W54603  10.147   7.732  13.814
86241W        W54604   8.333   3.955   4.631
86242W        W54605  15.634  18.768  12.530
86243W        W54606   2.822  23.587  13.887
86244W        W54607  30.151  36.878   2.376
86245W        W54608   7.821  10.696  11.487
86246W        W54609   2.942  29.990   2.866
86247W        W54610  39.318   7.735  14.874
86248W        W54611  44.471  34.518   4.641
86249W        W54612  44.413  39.553   1.881
86250W        W54613  29.611  23.519  11.959
86251W        W54614  17.071   0.843   1.823
86252W        W54615  42.298  23.603  11.061
86253W        W54616   1.408  20.668  12.416
86254W        W54617  17.674  20.562  13.317
86255W        W54618   7.780   4.293  11.078
86256W        W54619  11.749  16.299   0.914
86257W        W54620  30.634   0.292   4.769
86258W        W54621  43.320  30.618  11.981
86259W        W54622  22.142   5.802  12.368
86260W        W54623  26.141  36.997  13.414
86261W        W54624   6.863  26.019  11.540
86262W        W54625   1.892  13.247   1.301
86263W        W54626  15.143  27.145   4.202
86264W        W54627   3.792  16.681   2.181
86265W        W54628   7.708  22.198   0.256
86266W        W54629  30.923   5.750  12.966
86267W        W54630   1.828   1.445   1.352
86268W        W54631  15.577  37.350   2.275
86269W        W54632   4.827  19.623   4.697
86270W        W54633  14.286  25.532  12.566
86271W        W54634  13.142  42.427   1.810
86272W        W54635  14.632   0.326  12.051
86273W        W54636  15.281  14.192   1.365
86274W        W54637  19.113  13.278  11.442
86275W        W54638  41.928  38.914   1.422
86276W        W54639  37.451  35.402   0.818
86277W        W54640  33.550  30.428  11.045
86278W        W54641   8.794  18.714   4.658
86279W        W54642  15.251  27.489   4.151
86280W        W54643  41.968  32.085   1.713
86281W        W54644  14.167  33.009   0.739
86282W        W54645  20.524  21.632  14.395
86283W        W54646  32.036  40.046   3.792
86284W        W54647  42.880  21.610  10.538
86285W        W54648  14.588  41.321   9.974
86286W        W54649  14.136  38.059   0.285
86287W        W54650  28.977   5.832  11.022
86288W        W54651  23.053  40.971  14.023
86289W        W54652   9.743  38.006  13.842
86290W        W54653  43.817  40.529  13.547
86291W        W54654   5.223  22.565  10.591
86292W        W54655  28.532   7.240   0.437
86293W        W54656  14.690  34.477  14.281
86294W        W54657   1.899  18.109   4.127
86295W        W54658   9.240  21.733   1.446
86296W        W54659  29.054  34.567   0.748
86297W        W54660   5.757  12.181   4.208
86298W        W54661  31.929  27.470  13.433
86299W        W54662  22.212  19.763   1.254
86300W        W54663   4.933  20.244  12.480
86301W        W54664  14.679  10.227   2.834
86302W        W54665  35.438  15.139   3.836
86303W        W54666  40.530  44.259   3.172
86304W        W54667  25.124  24.078  12.848
86305W        W54668   7.822   4.248   4.347
86306W        W54669  17.596  21.227  10.600
86307W        W54670  34.027  13.278   2.360
86308W        W54671  34.523  24.221   3.690
86309W        W54672  29.479  34.110   2.336
86310W        W54673  31.990  14.130  10.598
86311W        W54674  17.135  33.890  12.082
86312W        W54675  34.097   5.720  10.951
86313W        W54676  28.070   1.947  11.977
86314W        W54677  20.540  24.535   1.935
86315W        W54678  17.651  11.650  14.790
86316W        W54679   1.466   4.258   2.755
86317W        W54680  17.233  19.625   5.164
86318W        W54681  19.129  35.424  14.872
86319W        W54682  11.220  44.805   0.878
86320W        W54683  15.282  21.246  14.345
86321W        W54684  26.020   7.222   3.790
86322W        W54685  29.441  41.004  13.837
86323W        W54686  37.460  38.523  13.334
86324W        W54687  14.319  20.272  14.431
86325W        W54688   7.238  10.682   0.939
86326W        W54689  29.969  16.699   2.240
86327W        W54690  32.569  30.637   3.313
86328W        W54691  15.584  43.811   4.689
86329W        W54692  43.808  18.722  11.511
86330W        W54693   5.806  32.900   0.391
86331W        W54694   4.844   2.410  14.913
86332W        W54695  38.447   8.693   1.779
86333W        W54696  25.214  32.560   1.292
86334W        W54697  14.094  12.259   0.354
86335W        W54698  28.961   0.868  10.902
86336W        W54699   2.375   4.295   0.311
86337W        W54700  30.546  27.553  13.452
86338W        W54701  38.076  42.826  10.412
86339W        W54702  26.201  25.567  13.829
86340W        W54703  34.524  31.063   2.694
86341W        W54704  34.576   8.708  11.917
86342W        W54705  41.856  22.528   2.893
86343W        W54706   3.725  29.432   0.804
86344W        W54707  44.852  37.966  14.828
86345W        W54708  26.506   6.852  14.815
86346W        W54709  30.534   9.731  13.540
86347W        W54710  23.641  34.395  12.439
86348W        W54711  44.292  10.804   2.355
86349W        W54712   7.302  15.118  10.415
86350W        W54713  13.180  24.057   5.254
86351W        W54714   7.903  33.071   2.749
86352W        W54715  22.628   8.269   2.804
86353W        W54716  20.044   6.688   3.237
86354W        W54717  21.580   0.372  10.543
86355W        W54718  20.136  27.941  12.390
86356W        W54719   7.880  10.326  13.956
86357W        W54720  32.955   7.780  11.028
86358W        W54721  26.681  21.196   4.135
86359W        W54722  22.205  33.518  13.535
86360W        W54723  44.409   9.320  12.017
86361W        W54724  22.185  15.729  14.816
86362W        W54725   5.425  27.981  11.542
86363W        W54726  41.373   7.313  10.533
86364W        W54727  42.021  43.805   1.232
86365W        W54728  16.186  41.856  10.530
86366W        W54729  18.165  26.498  13.454
86367W        W54730  32.989  37.950  10.540
86368W        W54731  13.666   8.300   4.760
86369W        W54732  21.663  41.492   2.371
86370W        W54733  42.980  16.606   2.193
86371W        W54734  21.085  44.795   0.402
86372W        W54735   9.253  12.688   0.916
86373W        W54736  41.803  21.626   0.895
86374W        W54737  36.007  26.594  12.987
86375W        W54738  13.676  10.780  12.506
86376W        W54739  10.215  43.819   2.273
86377W        W54740  15.721   3.369   4.286
86378W        W54741   9.745  36.931  13.949
86379W        W54742  22.633  42.817   0.273
86380W        W54743   0.820  25.563  14.277
86381W        W54744  34.498  35.422   2.207
86382W        W54745  12.768  41.855   3.352
86383W        W54746  38.461  21.202  14.783
86384W        W54747  22.726  17.734  14.006
86385W        W54748  13.326  16.073   4.683
86386W        W54749   5.339  39.553  10.505
86387W        W54750  29.170  15.686   4.319
86388W        W54751  21.596  18.728   1.914
86389W        W54752   0.779  10.364  13.912
86390W        W54753  41.466  39.922  14.388
86391W        W54754  31.524   1.283   4.237
86392W        W54755  40.012   1.291  14.946
86393W        W54756  20.153  29.433  10.477
86394W        W54757  42.922  18.576  13.846
86395W        W54758  23.495   5.792   3.347
86396W        W54759  28.470   0.819   3.329
86397W        W54760  39.417  16.202   2.817
86398W        W54761  42.446  23.105  13.803
86399W        W54762  44.788  30.468   1.928
86400W        W54763   3.296   7.302  10.985
86401W        W54764  38.979  28.554   4.180
86402W        W54765   3.875  26.623   2.772
86403W        W54766   8.365  15.131   3.273
86404W        W54767   7.388  41.382   4.317
86405W        W54768   8.342  11.787  13.316
86406W        W54769  40.347   9.829   1.749
86407W        W54770  39.324  42.861  11.019
86408W        W54771  13.275  24.536  14.782
86409W        W54772  29.437   7.222  11.012
86410W        W54773  25.105   9.711  12.526
86411W        W54774  28.959  38.849   0.838
86412W        W54775  12.225   9.231  14.904
86413W        W54776  30.113  43.942   1.779
86414W        W54777   2.314  36.549   1.831
86415W        W54778   9.650  11.353  12.911
86416W        W54779   0.811  24.105   5.115
86417W        W54780  31.445   1.252  14.338
86418W        W54781  35.414  36.418  13.396
86419W        W54782  35.947   3.841  13.999
86420W        W54783  20.657  21.080  12.901
86421W        W54784  35.903  20.714   1.838
86422W        W54785  44.260   3.857   4.223
86423W        W54786   6.862  17.302   4.602
86424W        W54787  42.355  20.545   1.889
86425W        W54788   2.424  36.921   4.322
86426W        W54789  23.581  41.380  11.925
86427W        W54790  37.888  27.132  11.442
86428W        W54791  33.549  32.920  13.543
86429W        W54792  21.635  43.400   4.772
86430W        W54793  15.745  20.522  10.511
86431W        W54794  11.269  20.269   0.742
86432W        W54795  28.153  29.498   5.202
86433W        W54796  38.026  17.785  13.919
86434W        W54797  43.340  27.104  12.993
86435W        W54798   6.709  22.541  10.559
86436W        W54799   2.936  17.756   3.235
86437W        W54800  16.233  43.939  11.913
86438W        W54801  41.443   4.299  13.424
86439W        W54802  38.391   1.780  11.531
86440W        W54803  14.654   0.302   2.316
86441W        W54804  24.037  22.595  12.854
86442W        W54805   9.329  17.109   2.728
86443W        W54806  10.722  40.987   4.697
86444W        W54807  14.720  35.560   4.130
86445W        W54808  12.650  34.066  11.905
86446W        W54809  41.845  29.019   0.885
86447W        W54810  35.501  30.621  14.322
86448W        W54811  19.750  32.036  11.886
86449W        W54812  30.000  26.963  12.488
86450W        W54813  28.660  32.536   3.198
86451W        W54814   1.873  30.156   2.347
86452W        W54815  43.828  40.998   3.795
86453W        W54816  12.829   9.875  13.836
86454W        W54817  16.645  14.615  11.116
86455W        W54818  33.519  20.097  14.769
86456W        W54819  31.988  19.232  11.381
86457W        W54820   0.267  40.820  11.096
86458W        W54821   0.955   2.262   1.228
86459W        W54822   6.271  25.502  10.992
86460W        W54823  31.078  34.570   1.775
86461W        W54824  23.518  34.054  10.435
86462W        W54825  16.598   6.683   1.817
86463W        W54826  27.164   3.894   4.220
86464W        W54827  26.107  25.980  14.337
86465W        W54828  31.028  24.000   3.807
86466W        W54829  43.304  15.736   2.719
86467W        W54830  40.518  13.686   3.640
86468W        W54831  42.005  22.550  10.497
86469W        W54832   8.261  35.413   1.852
86470W        W54833  40.851  26.986   2.825
86471W        W54834  36.060   0.834  13.453
86472W        W54835  19.184   8.839  12.905
86473W        W54836  41.035  35.960  10.627
86474W        W54837  12.223  36.518   2.799
86475W        W54838  40.359  10.794  12.410
86476W        W54839  40.548  34.107   3.313
86477W        W54840   4.851  32.142   1.254
86478W        W54841  11.830  12.264   1.366
86479W        W54842   4.866  31.138  14.340
86480W        W54843  10.140  33.100  11.519
86481W        W54844  11.660  36.954   3.331
86482W        W54845  19.669  42.944  11.094
86483W        W54846   0.962  35.410  11.513
86484W        W54847  34.880  11.325   3.373
86485W        W54848  44.354   5.776   4.285
86486W        W54849  43.991  40.912  13.817
86487W        W54850  20.549  41.345   0.254
86488W        W54851  14.311  24.064   4.677
86489W        W54852  16.753  44.444  12.091
86490W        W54853  41.480  44.950  10.970
86491W        W54854   4.939   1.831   1.853
86492W        W54855   4.832  22.605   2.405
86493W        W54856  36.936  39.466  13.342
86494W        W54857  21.031  10.211   0.873
86495W        W54858   0.908  18.569   1.727
86496W        W54859  28.118  28.536   0.419
86497W        W54860  28.141  29.438   2.724
86498W        W54861  27.986  38.984   2.785
86499W        W54862   5.862  13.724  14.475
86500W        W54863  37.929   3.941   1.222
86501W        W54864  34.416   7.351  14.365
86502W        W54865  25.534   4.773   4.353
86503W        W54866   1.285  23.205  10.557
86504W        W54867  20.606   7.873   3.216
86505W        W54868  38.429  32.613   3.327
86506W        W54869   5.832  25.526   2.340
86507W        W54870  24.060  13.296  13.940
86508W        W54871  11.861  18.111   3.791
86509W        W54872  16.230  27.610   2.418
86510W        W54873  40.457  44.464  13.328
86511W        W54874  19.147  36.425  11.936
86512W        W54875  39.436  36.373  11.912
86513W        W54876  18.163  41.360   1.896
86514W        W54877  12.703  25.528   2.701
86515W        W54878  27.096   2.767   2.872
86516W        W54879  44.008   9.325  11.097
86517W        W54880  23.219  16.721   1.765
86518W        W54881   2.329   7.672   1.365
86519W        W54882   3.927   9.821  12.409
86520W        W54883  44.427  22.714  12.529
86521W        W54884  10.221  23.556   2.764
86522W        W54885  35.551  14.785  11.888
86523W        W54886  22.631  18.548  12.017
86524W        W54887  32.930  34.409   1.780
86525W        W54888  19.633  18.748   4.736
86526W        W54889  12.318  30.985   4.345
86527W        W54890  27.584  31.071   2.326
86528W        W54891  24.689  25.038  11.094
86529W        W54892  10.718  15.709   1.333
86530W        W54893  38.827  39.543  14.006
86531W        W54894  20.146  38.937  13.862
86532W        W54895  12.674  39.056   1.804
86533W        W54896   3.832  43.445   4.217
86534W        W54897  34.058  15.252  11.589
86535W        W54898  29.571  25.140  13.984
86536W        W54899   6.251  33.437  12.564
86537W        W54900  43.796  11.841  13.928
86538W        W54901  31.118  14.599  11.124
86539W        W54902   0.946  27.543  14.854
86540W        W54903   5.254  26.540   2.680
86541W        W54904  32.048  31.132   4.330
86542W        W54905  14.754  12.137  13.028
86543W        W54906  28.998   7.266  12.077
86544W        W54907  39.884  19.172  13.972
86545W        W54908  34.508  33.440   4.151
86546W        W54909  40.031  39.953   2.742
86547W        W54910  27.191   6.829  14.976
86548W        W54911  31.055  15.704   4.178
86549W        W54912  26.986  31.063   0.795
86550W        W54913  43.405  44.267   0.384
86551W        W54914  10.174  43.917   1.816
86552W        W54915  34.986  22.166   4.123
86553W        W54916  28.961  15.324  11.411
86554W        W54917  43.379  21.666  13.406
86555W        W54918  23.555   8.684   2.709
86556W        W54919  14.276   5.342  14.874
86557W        W54920  13.251  24.665   2.313
86558W        W54921  18.269  40.544  12.939
86559W        W54922  25.654  31.479   4.761
86560W        W54923   1.776  25.547   4.304
86561W        W54924   4.801  44.871   3.818
86562W        W54925  39.878  23.225  12.537
86563W        W54926  39.863  30.498   4.818
86564W        W54927  30.157  34.974   4.193
86565W        W54928  17.723  33.554   3.714
86566W        W54929  42.000  23.535   1.873
86567W        W54930  30.610  43.956   0.281
86568W        W54931  44.422   9.709   3.317
86569W        W54932  31.623   9.173   4.718
86570W        W54933  33.953   3.275  14.282
86571W        W54934  18.694   2.722   3.353
86572W        W54935  31.136  29.059  14.512
86573W        W54936  17.725   6.729  13.908
86574W        W54937  20.741  39.826   2.822
86575W        W54938  35.524   6.877   1.868
86576W        W54939  17.085  34.385   1.733
86577W        W54940   6.393  24.620   4.305
86578W        W54941   0.831  39.833   0.398
86579W        W54942  10.834  24.002  12.888
86580W        W54943  28.452  19.541   3.665
86581W        W54944  31.424   3.940  13.545
86582W        W54945  36.593  36.383   2.887
86583W        W54946   1.321   2.398   0.288
86584W        W54947  23.170   0.762   2.681
86585W        W54948  28.118   0.982   4.131
86586W        W54949  42.939  22.157   2.780
86587W        W54950  39.817  26.485   0.415
86588W        W54951  13.320  33.997  11.880
86589W        W54952  28.496   5.704   1.894
86590W        W54953  31.614   7.263  13.861
86591W        W54954  16.617  30.432  10.912
86592W        W54955  16.287  38.444  13.361
86593W        W54956   9.825  28.526  13.963
86594W        W54957  11.767  43.465   1.298
86595W        W54958  38.871  30.118  14.811
86596W        W54959  25.661  12.740  13.912
86597W        W54960  24.565  42.362  13.981
86598W        W54961  42.016  12.262  12.844
86599W        W54962   2.779  33.106   4.770
86600W        W54963  16.724  23.123  10.611
86601W        W54964   1.244  11.801   2.180
86602W        W54965   1.937  21.026   3.666
86603W        W54966   2.339  44.922   2.365
86604W        W54967  43.288  31.983  14.317
86605W        W54968   6.371  15.792   3.841
86606W        W54969  35.420  27.941   3.241
86607W        W54970   4.835  24.018  14.448
86608W        W54971  39.948  40.414   4.830
86609W        W54972   0.370  24.016  10.532
86610W        W54973  42.323  40.024   4.210
86611W        W54974  38.399  21.089   4.672
86612W        W54975   3.856  44.383   2.203
86613W        W54976  28.596  22.150  12.557
86614W        W54977  24.697  42.487   3.716
86615W        W54978  34.006   8.701   0.294
86616W        W54979  42.835  34.463  14.477
86617W        W54980  28.116  24.583   3.275
86618W        W54981   9.224  22.698  12.565
86619W        W54982  40.466   2.422  11.502
86620W        W54983  27.601  38.846  13.805
86621W        W54984   0.387  11.646  12.477
86622W        W54985   5.703  17.561   0.368
86623W        W54986  44.935  30.029   0.333
86624W        W54987  13.236  28.037  10.639
86625W        W54988  20.215  43.015  11.406
86626W        W54989   1.269  37.440  12.931
86627W        W54990   9.800  22.682   0.900
86628W        W54991  18.640  16.178  12.018
86629W        W54992   7.825  33.450  11.569
86630W        W54993  37.922   9.341  13.992
86631W        W54994  38.966  44.806   0.467
86632W        W54995   7.805   2.254   1.351
86633W        W54996   3.782  44.903  14.800
86634W        W54997  33.018  13.138   1.710
86635W        W54998  17.239   3.450   4.605
86636W        W54999  10.703  14.143   0.433
86637W        W55000  12.642   4.393  14.969
86638W        W55001   4.398  33.130  12.847
86639W        W55002   4.362  39.809   4.294
86640W        W55003  21.609   5.909  11.961
86641W        W55004  25.616   4.730  12.552
86642W        W55005  13.824  21.225  10.994
86643W        W55006  21.511  40.406  14.821
86644W        W55007  38.415   6.703  13.916
86645W        W55008  12.136  27.493   3.861
86646W        W55009  12.362  41.502  10.936
86647W        W55010  18.688  40.385  11.559
86648W        W55011   2.291  12.135   0.855
86649W        W55012  40.454  41.946   0.384
86650W        W55013  33.005  34.072  14.896
86651W        W55014  23.108  26.955   4.657
86652W        W55015  39.320  14.647   2.801
86653W        W55016  12.630  40.484  10.487
86654W        W55017  37.520  10.657   1.370
86655W        W55018  35.094  29.134   2.902
86656W        W55019   2.430  34.480  11.087
86657W        W55020  11.743  11.196   0.799
86658W        W55021  38.967  23.668   2.209
86659W        W55022  38.373  42.459  11.422
86660W        W55023  11.316   9.277   1.364
86661W        W55024  17.067  15.319  11.602
86662W        W55025  11.329  41.000   3.686
86663W        W55026  24.652   4.771  14.392
86664W        W55027   1.391  38.937   1.922
86665W        W55028  31.144  31.108   5.275
86666W        W55029   9.171   7.348   3.866
86667W        W55030  40.044  31.138   4.192
86668W        W55031  20.597  31.534  13.399
86669W        W55032   2.462   9.871   4.776
86670W        W55033  20.129  32.985  13.905
86671W        W55034  31.016   3.459   0.944
86672W        W55035  36.868  42.391   0.461
86673W        W55036   2.290   3.395   3.727
86674W        W55037  43.967  16.205   0.308
86675W        W55038  31.530  29.131  14.906
86676W        W55039  11.202  29.936  13.004
86677W        W55040  32.885  28.645  10.915
86678W        W55041  19.250  27.143   2.337
86679W        W55042  27.542  41.409  12.871
86680W        W55043   4.279  41.451  10.524
86681W        W55044  24.090  20.045  13.928
86682W        W55045  20.634  27.178  11.050
86683W        W55046  22.523  41.476  13.036
86684W        W55047  20.642  24.148   0.365
86685W        W55048  32.021  29.134   0.734
86686W        W55049  24.697  22.141  10.444
86687W        W55050  30.160  19.164  14.440
86688W        W55051  22.169  17.706   4.820
86689W        W55052  28.106   5.390  13.857
86690W        W55053   5.283  37.913  11.044
86691W        W55054  26.112  40.378  12.825
86692W        W55055  44.375  35.561   4.770
86693W        W55056  20.598   4.394  10.960
86694W        W55057  23.990  14.762   1.852
86695W        W55058  36.016  22.567  11.972
86696W        W55059   0.320  26.470  12.438
86697W        W55060  20.178  13.634  11.406
86698W        W55061  41.974  36.868   4.293
86699W        W55062  17.155  28.652   0.929
86700W        W55063  43.952  10.145  14.914
86701W        W55064   6.705  14.232  10.510
86702W        W55065  13.283   9.321  13.982
86703W        W55066  41.452  16.094  14.005
86704W        W55067   8.749  15.794  11.903
86705W        W55068   6.228  31.026   2.854
86706W        W55069  36.867  43.290   3.644
86707W        W55070  25.595  16.092   9.529
86708W        W55071  28.449  40.879   0.795
86709W        W55072  24.159  22.123  14.005
86710W        W55073   4.772  30.966  11.012
86711W        W55074  13.126  20.040   0.316
86712W        W55075  17.652  28.034  14.948
86713W        W55076  31.059  44.459   3.377
86714W        W55077  17.774  10.798   1.912
86715W        W55078  22.039  16.809   3.860
86716W        W55079  15.239   5.720  13.500
86717W        W55080  19.585  11.748  10.894
86718W        W55081  16.212  10.169   2.195
86719W        W55082  44.977  42.923   2.868
86720W        W55083  15.626  34.591  13.825
86721W        W55084   6.399  10.311  13.043
86722W        W55085  17.564   4.235   1.722
86723W        W55086  43.379   5.294  10.971
86724W        W55087   5.331  12.732   3.737
86725W        W55088  26.555  10.784   1.933
86726W        W55089  24.590  26.658  13.486
86727W        W55090  43.962  16.301   4.175
86728W        W55091  11.290  37.031   2.380
86729W        W55092  38.898  10.380   1.753
86730W        W55093  31.936  16.197   0.918
86731W        W55094  29.930   3.320  13.958
86732W        W55095  27.497  25.980  13.813
86733W        W55096  41.421  27.612   3.214
86734W        W55097  43.380  10.372   3.297
86735W        W55098  25.040   3.253   5.280
86736W        W55099  25.128  10.691   1.738
86737W        W55100  42.309  33.975  13.450
86738W        W55101   9.815  37.518   2.798
86739W        W55102  13.766  33.882  12.851
86740W        W55103  23.186   0.965  11.974
86741W        W55104  13.690  44.487   2.767
86742W        W55105  15.746  44.345   1.716
86743W        W55106   5.216   8.825  14.991
86744W        W55107  18.685  30.433   1.238
86745W        W55108   7.276   1.774  11.466
86746W        W55109  27.083  38.358  10.480
86747W        W55110   7.255  24.593  11.954
86748W        W55111  18.126  38.039   4.340
86749W        W55112   3.726  42.780   1.810
86750W        W55113  11.796   2.468  12.056
86751W        W55114   1.851   0.317   9.992
86752W        W55115  43.013  19.039   1.265
86753W        W55116  40.460   6.720   3.818
86754W        W55117  26.978   5.318  13.904
86755W        W55118  22.506  17.636   0.288
86756W        W55119  24.543  40.322   0.910
86757W        W55120   1.798  29.133  11.542
86758W        W55121  22.695   1.279   3.821
86759W        W55122  28.039  17.165  13.866
86760W        W55123  27.574  38.394  11.510
86761W        W55124  23.240   3.851  13.489
86762W        W55125  33.986  37.527  14.998
86763W        W55126  31.071  25.597   4.340
86764W        W55127  39.921  29.512   4.175
86765W        W55128  29.982  14.117  11.042
86766W        W55129  22.675  33.959   1.264
86767W        W55130  32.492  21.556  12.392
86768W        W55131  16.572  41.789  14.932
86769W        W55132  32.473   2.322   5.715
86770W        W55133  38.047   6.342  14.988
86771W        W55134  36.414  44.006  13.892
86772W        W55135   2.470  15.256  10.557
86773W        W55136  22.121  22.249   2.335
86774W        W55137  19.726   7.856  13.961
86775W        W55138  35.584  27.468  13.798
86776W        W55139  28.171  26.495  14.463
86777W        W55140  27.982  30.563  11.479
86778W        W55141  25.994  16.277  10.045
86779W        W55142  11.163   3.323  11.041
86780W        W55143   4.329  24.117   4.686
86781W        W55144  16.788  13.651   1.831
86782W        W55145  39.366   9.249  11.386
86783W        W55146  10.245   1.743  11.016
86784W        W55147  12.668  42.806  13.823
86785W        W55148  21.237   3.323   2.264
86786W        W55149   8.842   8.769  14.857
86787W        W55150  12.117  29.106  14.499
86788W        W55151  19.574  30.163  12.853
86789W        W55152  39.389   4.277   0.373
86790W        W55153  38.934  27.158   2.362
86791W        W55154  10.348  20.063   4.808
86792W        W55155   2.413  40.854  10.567
86793W        W55156  34.444  44.983  12.389
86794W        W55157  17.286  25.576  13.361
86795W        W55158  36.869   3.872   2.675
86796W        W55159   0.970  36.910  13.312
86797W        W55160  13.713  23.174  13.866
86798W        W55161   6.295  13.206   2.339
86799W        W55162  36.041  32.960   3.164
86800W        W55163  37.360  23.126  10.565
86801W        W55164   4.727  41.008  14.806
86802W        W55165  27.456  12.262   4.286
86803W        W55166  19.259  41.822  12.531
86804W        W55167  27.663  35.447  10.998
86805W        W55168  19.142  17.193   1.320
86806W        W55169  18.103   5.340  14.381
86807W        W55170  33.106  16.594   2.386
86808W        W55171  19.751  24.552  12.552
86809W        W55172   7.325   2.906   3.321
86810W        W55173  32.523  17.759   1.377
86811W        W55174  15.688  37.549  12.450
86812W        W55175  25.691  17.585  14.506
86813W        W55176  14.780  21.121  12.951
86814W        W55177  34.900  32.427   3.306
86815W        W55178  44.839  17.257   2.318
86816W        W55179  20.595  27.167   3.213
86817W        W55180   4.371  30.472  10.489
86818W        W55181   4.821  31.098   2.268
86819W        W55182   2.300  37.427   2.340
86820W        W55183  29.119  42.810   3.261
86821W        W55184  23.039  24.694   2.320
86822W        W55185  27.977   5.212  12.878
86823W        W55186   2.413  20.702   0.440
86824W        W55187  10.667  43.903   1.830
86825W        W55188  33.396  42.920   3.766
86826W        W55189   9.360  24.061  11.977
86827W        W55190   0.944  40.804  11.377
86828W        W55191  28.449  11.807   3.262
86829W        W55192  40.314  21.040   0.443
86830W        W55193  19.129   9.226   3.360
86831W        W55194  19.179  36.422   0.300
86832W        W55195   4.251  28.177  11.044
86833W        W55196  43.495  42.976   1.858
86834W        W55197  32.520  26.493  12.343
86835W        W55198   7.694   1.767   4.648
86836W        W55199   5.837  36.843   4.815
86837W        W55200  29.546  39.503   2.874
86838W        W55201   5.315  42.400   0.869
86839W        W55202  44.369   6.353   3.219
86840W        W55203   1.297   1.334  14.427
86841W        W55204  23.165  30.121  13.394
86842W        W55205   5.810  15.236   1.392
86843W        W55206   6.184   6.857  10.628
86844W        W55207  22.013  12.300   0.921
86845W        W55208  44.264   8.754   0.394
86846W        W55209   0.876  42.948   0.944
86847W        W55210  15.214   1.894   1.785
86848W        W55211   8.226  32.534   3.768
86849W        W55212  39.976  31.539  12.487
86850W        W55213   2.276   3.837  14.857
86851W        W55214  31.084  11.732   2.855
86852W        W55215  38.885  35.032  10.521
86853W        W55216  32.418  27.556   0.738
86854W        W55217  20.271  19.094  14.811
86855W        W55218  29.953  27.595   9.965
86856W        W55219   8.394  35.423   4.676
86857W        W55220  35.016   2.824  14.797
86858W        W55221  23.233   8.688  12.945
86859W        W55222  40.885  19.732   4.720
86860W        W55223  43.849  12.193  11.092
86861W        W55224  23.607  20.619  14.290
86862W        W55225  29.933  32.937  12.000
86863W        W55226  32.895  22.736   2.198
86864W        W55227  32.984  43.392  10.612
86865W        W55228  33.005  33.072  11.574
86866W        W55229  23.141  34.116  14.980
86867W        W55230  23.176  29.175   0.911
86868W        W55231  44.488  26.183   2.392
86869W        W55232  25.205  23.599  11.869
86870W        W55233  22.547  26.602   2.355
86871W        W55234  22.238  37.483   4.152
86872W        W55235  20.200  42.415   2.260
86873W        W55236  35.941  27.558  14.956
86874W        W55237  27.947   2.295   3.687
86875W        W55238  18.287  28.537  13.876
86876W        W55239  29.660   0.986   0.465
86877W        W55240   7.353  22.108   3.854
86878W        W55241   5.840   6.205  10.449
86879W        W55242  22.565  26.539  11.047
86880W        W55243   6.250  27.976   4.724
86881W        W55244  43.836  35.363  13.037
86882W        W55245   2.459   5.240  11.038
86883W        W55246   4.442  17.564   4.653
86884W        W55247  20.720   2.281  12.944
86885W        W55248   4.279  26.156  10.898
86886W        W55249  16.685  26.607   3.695
86887W        W55250   2.958  38.486  11.954
86888W        W55251  20.547  30.584   0.914
86889W        W55252  36.924  36.384   3.365
86890W        W55253  38.405   1.285  11.981
86891W        W55254  11.644  32.971   2.236
86892W        W55255  13.185   1.772  14.900
86893W        W55256   3.453  15.297   3.856
86894W        W55257   8.186   8.237  13.540
86895W        W55258   8.756  44.297  11.082
86896W        W55259  40.426   9.212  14.030
86897W        W55260   7.378  24.575  13.008
86898W        W55261   5.231  33.453   9.939
86899W        W55262  42.990  11.289  11.418
86900W        W55263  27.531  15.681  14.488
86901W        W55264   6.185  35.091   0.251
86902W        W55265  19.762  30.475   3.163
86903W        W55266  26.544  21.560  10.579
86904W        W55267  32.003  24.231   2.261
86905W        W55268  24.591  36.071   4.156
86906W        W55269   8.788   2.339   0.381
86907W        W55270   6.271  25.189  12.362
86908W        W55271  43.904  22.740   2.301
86909W        W55272  12.221  21.650  10.888
86910W        W55273   5.272  35.104  10.426
86911W        W55274   8.768  22.666   0.953
86912W        W55275   8.758   3.832   3.810
86913W        W55276  20.205   0.924   3.254
86914W        W55277  10.349  30.132  10.528
86915W        W55278  12.168  21.708   1.284
86916W        W55279   8.206  31.957   0.737
86917W        W55280  24.125   2.306   3.680
86918W        W55281  44.927  32.591  10.603
86919W        W55282  42.994  42.838   1.372
86920W        W55283  23.610   6.416   3.346
86921W        W55284  42.303  19.150   2.400
86922W        W55285  13.153  27.542   2.232
86923W        W55286  38.529   0.919  14.845
86924W        W55287  28.041  42.995  11.088
86925W        W55288  28.964  23.085   3.710
86926W        W55289  36.464  37.965  13.385
86927W        W55290  33.113  26.692  12.029
86928W        W55291  29.494   3.333   2.234
86929W        W55292   8.731   7.890  12.538
86930W        W55293  44.966  28.014  13.347
86931W        W55294  36.876  26.670  13.363
86932W        W55295  34.996  31.434   3.725
86933W        W55296  42.501  29.652   4.161
86934W        W55297  19.741  31.074  10.508
86935W        W55298  36.415   8.319   3.796
86936W        W55299  16.103  29.991   3.715
86937W        W55300  10.330   2.745   9.986
86938W        W55301  22.184   9.671  14.955
86939W        W55302  40.891   3.421  14.516
86940W        W55303   8.667  23.193   2.834
86941W        W55304  36.560  14.670   3.206
86942W        W55305  25.172  37.579  12.339
86943W        W55306  41.019  29.612  14.765
86944W        W55307   4.257   0.319   0.371
86945W        W55308  17.136  29.977  10.466
86946W        W55309  19.069  10.370   0.839
86947W        W55310  22.723   8.352  14.402
86948W        W55311  37.062  43.906  12.908
86949W        W55312  16.765  39.523  12.492
86950W        W55313  29.569  15.764   1.293
86951W        W55314  10.843  38.873  12.880
86952W        W55315  19.772  31.969  11.511
86953W        W55316  27.651  35.596   2.259
86954W        W55317  19.688  15.116  13.002
86955W        W55318  25.572  24.604  11.556
86956W        W55319  16.582  33.087  14.349
86957W        W55320  19.688   5.781   3.829
86958W        W55321  18.180  30.540  10.620
86959W        W55322   1.921  22.103  11.116
86960W        W55323  25.970  33.906   3.702
86961W        W55324  22.064  10.838   1.331
86962W        W55325  33.087   6.358  13.380
86963W        W55326  23.680  30.484   0.832
86964W        W55327  35.954  29.048   1.895
86965W        W55328  43.772  12.652  14.445
86966W        W55329  28.035  12.629   1.398
86967W        W55330  11.217  27.102   0.250
86968W        W55331  22.679  27.631   3.806
86969W        W55332  23.490  31.910  11.996
86970W        W55333  25.479  21.046   1.439
86971W        W55334  44.959  26.185   1.767
86972W        W55335  22.589  20.064  14.839
86973W        W55336   4.326   3.729  10.996
86974W        W55337   9.383  39.403  10.505
86975W        W55338  30.624  13.240  13.492
86976W        W55339  26.152  21.609   2.338
86977W        W55340  22.096  24.601   4.330
86978W        W55341  17.617  26.513  12.500
86979W        W55342   0.885  28.571  10.611
86980W        W55343  35.482  13.712   3.375
86981W        W55344  30.054  34.480  13.977
86982W        W55345   6.264  43.962  12.452
86983W        W55346  29.977   3.919   1.764
86984W        W55347  30.649   9.817  12.477
86985W        W55348  43.440  19.745   2.272
86986W        W55349  38.923   4.378  12.864
86987W        W55350  40.325   9.299   1.337
86988W        W55351   1.439  35.916  10.998
86989W        W55352  41.345  40.822   2.740
86990W        W55353  22.712  12.186   0.808
86991W        W55354  22.705  38.896   4.745
86992W        W55355   6.790  11.868  14.021
86993W        W55356  35.596  30.930   3.214
86994W        W55357  33.448  16.811  11.968
86995W        W55358  32.497   2.392  13.499
86996W        W55359  10.818   2.804   1.843
86997W        W55360   7.835  35.017  13.434
86998W        W55361  18.569  39.990   3.365
86999W        W55362   1.422  40.840   0.899
87000W        W55363   2.919  30.129  11.586
87001W        W55364  16.268  21.744   2.670
87002W        W55365   3.266  31.609   4.709
87003W        W55366  35.878   4.926  14.987
87004W        W55367  30.423  27.122  13.977
87005W        W55368  30.559  36.958   2.847
87006W        W55369  37.550  10.383   5.251
87007W        W55370  12.782  42.476   2.362
87008W        W55371   6.884  19.177   3.267
87009W        W55372  20.724   1.261  11.579
87010W        W55373  40.866  16.233   0.888
87011W        W55374   2.279  30.640   4.725
87012W        W55375  18.641  25.532  10.478
87013W        W55376   9.235  32.433   3.339
87014W        W55377  20.735  12.265   2.378
87015W        W55378   3.451  13.806  11.459
87016W        W55379  37.050  29.630  11.054
87017W        W55380  10.149   5.778  13.056
87018W        W55381   7.307  24.032  11.008
87019W        W55382  24.561  35.384  10.629
87020W        W55383  15.186  23.100   0.868
87021W        W55384  16.196   2.316  14.907
87022W        W55385  28.646   6.326   0.391
87023W        W55386  37.440  30.089   2.343
87024W        W55387  11.864  20.176   3.158
87025W        W55388  12.830  15.116  13.346
87026W        W55389   8.752   6.878  13.798
87027W        W55390  29.624  23.654  12.890
87028W        W55391  12.789  31.555  12.468
87029W        W55392  37.944   9.851  11.987
87030W        W55393  28.565  32.599  11.540
87031W        W55394  19.709  19.589   4.202
87032W        W55395  15.794  17.562  11.555
87033W        W55396  21.250  29.114  11.423
87034W        W55397  33.608  27.673   0.364
87035W        W55398   4.935  42.999  12.970
87036W        W55399   9.156  20.231  14.472
87037W        W55400  27.156  21.088   3.707
87038W        W55401  25.210  27.018   4.167
87039W        W55402  18.771  24.062  11.883
87040W        W55403   3.367   7.186  12.826
87041W        W55404  27.097   7.899  11.520
87042W        W55405  10.219  37.034  14.447
87043W        W55406  38.507  18.200   1.443
87044W        W55407  44.812  33.992  13.027
87045W        W55408  17.636  18.077  12.900
87046W        W55409  24.975  44.265   2.732
87047W        W55410   5.914  15.724   3.864
87048W        W55411  16.131  42.394  11.969
87049W        W55412  32.416  28.069   9.651
87050W        W55413  13.710  30.487  11.030
87051W        W55414  44.963  10.775  12.455
87052W        W55415  28.439  30.521  10.971
87053W        W55416  37.481  24.678  12.968
87054W        W55417  24.669  44.364  11.383
87055W        W55418   6.810  21.177  13.951
87056W        W55419   9.797  41.021  13.453
87057W        W55420  31.518  10.151  10.132
87058W        W55421   7.693  42.952  12.487
87059W        W55422   9.871  25.501  12.437
87060W        W55423  21.210  25.128   3.640
87061W        W55424  34.538  26.969   2.298
87062W        W55425  26.111   2.404  10.448
87063W        W55426  19.642   0.913   2.777
87064W        W55427  18.790   7.818  14.480
87065W        W55428  36.352  26.558   1.768
87066W        W55429  27.005  39.960   3.850
87067W        W55430   6.311  39.899   3.789
87068W        W55431  38.413  41.957   1.258
87069W        W55432  19.606  17.666  14.961
87070W        W55433  10.865  11.765  12.435
87071W        W55434  21.722   3.922  10.609
87072W        W55435  14.231  13.230   1.343
87073W        W55436  26.477  33.437   1.375
87074W        W55437  40.844   5.430  11.469
87075W        W55438  39.400  26.026   0.909
87076W        W55439   0.404  13.633  14.374
87077W        W55440  39.487   2.914   0.881
87078W        W55441  23.500  44.432  13.512
87079W        W55442  19.157  44.474   3.703
87080W        W55443  43.941  35.015  11.597
87081W        W55444  15.676   9.173  13.493
87082W        W55445  26.459  44.832   3.180
87083W        W55446  29.154   0.786   1.901
87084W        W55447  41.986  18.605  11.042
87085W        W55448  30.109  18.722  13.448
87086W        W55449   3.903  32.963   4.808
87087W        W55450  19.540   6.819  11.533
87088W        W55451  22.519   2.770   4.639
87089W        W55452  21.163  42.485  11.114
87090W        W55453  34.887  23.581  12.498
87091W        W55454  33.005  15.673   0.428
87092W        W55455  26.575   8.669  12.412
87093W        W55456  38.474  29.567  12.344
87094W        W55457  41.411  19.118  11.593
87095W        W55458  37.541   1.273   3.229
87096W        W55459  13.819  28.042  13.994
87097W        W55460  13.761  30.158  13.476
87098W        W55461   9.374  24.099  14.285
87099W        W55462   6.210  22.649  11.088
87100W        W55463  25.673  14.118   4.172
87101W        W55464  39.043   5.889   4.289
87102W        W55465  30.065  10.715   3.244
87103W        W55466  19.780  19.745   1.267
87104W        W55467  10.183  23.523  12.928
87105W        W55468  40.312  35.991   3.260
87106W        W55469  31.949  44.428   1.782
87107W        W55470  22.567  21.204   4.705
87108W        W55471  28.561  36.090  14.453
87109W        W55472  25.161  19.617   0.896
87110W        W55473   5.439  32.026   4.314
87111W        W55474  32.430  10.644   0.444
87112W        W55475  13.298  40.964   3.160
87113W        W55476  15.104   2.798  11.410
87114W        W55477  12.837   3.229   4.790
87115W        W55478  43.829  38.053   0.338
87116W        W55479  41.800  40.860  12.872
87117W        W55480  31.903  10.338   3.753
87118W        W55481  12.679  26.961   1.308
87119W        W55482  13.309  39.330   3.709
87120W        W55483   9.673   6.718   2.749
87121W        W55484  18.731  39.935  10.536
87122W        W55485  29.582  43.502  12.897
87123W        W55486  39.548  42.782  13.898
87124W        W55487  22.179   2.898   2.199
87125W        W55488  17.256  11.295   0.472
87126W        W55489  44.280   4.409  12.030
87127W        W55490  14.152  35.385  13.331
87128W        W55491  12.305   4.845   4.821
87129W        W55492   6.281   9.769  11.971
87130W        W55493  10.754  29.650   3.377
87131W        W55494   5.379  23.990  10.992
87132W        W55495  31.581   2.237   1.695
87133W        W55496   9.224  20.264  12.342
87134W        W55497  21.743  18.159  14.826
87135W        W55498  18.585  41.824  13.985
87136W        W55499  32.528  27.530   0.267
87137W        W55500  22.173  19.766  12.493
87138W        W55501  36.417  27.574  12.562
87139W        W55502   3.883  38.953  12.453
87140W        W55503  42.811  15.289  10.003
87141W        W55504   5.398  42.901  10.965
87142W        W55505  21.039  42.393   2.665
87143W        W55506   4.370   3.928  13.057
87144W        W55507  38.449  41.827   0.907
87145W        W55508  41.354   1.890   0.315
87146W        W55509  29.544  16.776  11.030
87147W        W55510  14.188  24.153  10.509
87148W        W55511  27.040  27.640  14.827
87149W        W55512  22.240  33.946   2.833
87150W        W55513  34.562  25.146  11.443
87151W        W55514  17.623  23.511  10.456
87152W        W55515  35.366  31.142   3.696
87153W        W55516  20.684  27.057   2.412
87154W        W55517   7.846   1.843  10.020
87155W        W55518   4.310   9.330   4.209
87156W        W55519   4.914  41.469   4.603
87157W        W55520   4.942  11.648  12.370
87158W        W55521  12.149  35.407   0.920
87159W        W55522  15.739  43.889   2.712
87160W        W55523  19.278  27.655  12.340
87161W        W55524  42.922  17.723  13.413
87162W        W55525  33.477   9.677   2.761
87163W        W55526  13.263   4.386  13.363
87164W        W55527  32.025   2.723   4.650
87165W        W55528   6.298  11.796   3.765
87166W        W55529  35.496   3.884  14.020
87167W        W55530  42.880   4.431  13.896
87168W        W55531  37.868  37.429   3.636
87169W        W55532   9.884   9.748   0.792
87170W        W55533  43.470   5.420  12.966
87171W        W55534  37.983  25.068  12.910
87172W        W55535  30.136  33.518   3.686
87173W        W55536  14.262  30.559  11.901
87174W        W55537  20.608  43.357  13.381
87175W        W55538  39.498  25.159  12.560
87176W        W55539   4.363  18.126   1.815
87177W        W55540  21.665  21.731  13.950
87178W        W55541  34.481   7.707  13.920
87179W        W55542  28.128   2.868  13.021
87180W        W55543  26.472  18.778   0.251
87181W        W55544   6.715  24.989  13.490
87182W        W55545   8.368  21.047   3.281
87183W        W55546   2.769   1.822   0.841
87184W        W55547  11.154   1.789  14.370
87185W        W55548   0.335  35.416  10.543
87186W        W55549  34.537  16.260  12.029
87187W        W55550  36.906  10.642   0.782
87188W        W55551  23.493  26.043   4.146
87189W        W55552   2.857  44.919   4.613
87190W        W55553  14.645  33.559  11.491
87191W        W55554  22.686  13.334   1.874
87192W        W55555  15.179  23.015  10.949
87193W        W55556  30.592  19.722  12.924
87194W        W55557  13.702  15.093  14.873
87195W        W55558  27.090  28.602   0.885
87196W        W55559  18.589  17.569  11.445
87197W        W55560  44.988   8.685  12.838
87198W        W55561  15.135  39.038   4.311
87199W        W55562   7.797  33.027  12.861
87200W        W55563  37.419  33.600   0.245
87201W        W55564   8.666   2.271  14.312
87202W        W55565  31.091  23.593   0.272
87203W        W55566   8.776   1.393   1.815
87204W        W55567  17.174  15.320  11.033
87205W        W55568  42.924  31.461   2.212
87206W        W55569  36.502  19.273  14.791
87207W        W55570  15.329  40.324  13.003
87208W        W55571  16.797  24.033   3.166
87209W        W55572  41.840  25.606   2.824
87210W        W55573  10.233  35.068   1.300
87211W        W55574  29.668   8.218  10.462
87212W        W55575  21.233  28.647   1.928
87213W        W55576  16.139   1.398  12.943
87214W        W55577  28.013  36.920  11.535
87215W        W55578   2.941  11.635   1.754
87216W        W55579  36.494  35.919   0.935
87217W        W55580  36.862  15.293   0.256
87218W        W55581  24.584   6.190   0.815
87219W        W55582  18.266   1.239  14.412
87220W        W55583  32.909  12.686   0.808
87221W        W55584  23.986  35.873  13.375
87222W        W55585  41.444  13.253   3.781
87223W        W55586  21.732  38.441   3.658
87224W        W55587  31.535  32.998  12.954
87225W        W55588  43.321  38.886   3.289
87226W        W55589  14.105   8.239  14.902
87227W        W55590  37.077  16.143  11.410
87228W        W55591  34.094  32.901   2.888
87229W        W55592  25.518  40.444  13.486
87230W        W55593  25.184   7.209  13.858
87231W        W55594  40.466   1.973  12.944
87232W        W55595   5.262  23.073  11.051
87233W        W55596  13.611  15.680   2.862
87234W        W55597  13.130  29.042   1.901
87235W        W55598  37.950  34.884  11.940
87236W        W55599  11.183   3.794   0.417
87237W        W55600  18.188  29.570   3.830
87238W        W55601  26.140  37.499   1.401
87239W        W55602  13.617  31.527   4.605
87240W        W55603  25.629  40.389  13.828
87241W        W55604   7.238  42.360  11.573
87242W        W55605  15.246  11.253  11.422
87243W        W55606  34.504   7.895  14.374
87244W        W55607   4.320  11.687  12.464
87245W        W55608  29.034   2.921  12.578
87246W        W55609  35.372  27.456   3.337
87247W        W55610  21.160  14.230  13.518
87248W        W55611  40.033  20.743  14.305
87249W        W55612  36.943  32.134   3.303
87250W        W55613  23.535  34.028  12.537
87251W        W55614  26.642  15.259  12.089
87252W        W55615   5.903  17.131  11.957
87253W        W55616   3.928  20.677  12.550
87254W        W55617  24.178  18.222  11.993
87255W        W55618  30.591   2.814   2.269
87256W        W55619  18.631  30.062   3.170
87257W        W55620  42.314  12.613  14.474
87258W        W55621   6.716   5.914   1.893
87259W        W55622  31.967  24.486   2.855
87260W        W55623  17.124  23.034  12.515
87261W        W55624  44.428  34.597  14.305
87262W        W55625   3.752  11.187  14.420
87263W        W55626   4.764   7.279   3.772
87264W        W55627  24.533  14.601   3.641
87265W        W55628  41.938  14.263   1.293
87266W        W55629  36.584  10.690   1.927
87267W        W55630  33.023   9.219  14.341
87268W        W55631   2.299  25.188   3.293
87269W        W55632  32.608  17.668   1.921
87270W        W55633  40.433  29.442   1.911
87271W        W55634  26.145  20.671  13.935
87272W        W55635  17.263  39.348  14.921
87273W        W55636   8.695  19.649  10.907
87274W        W55637  33.950   4.720   0.314
87275W        W55638   4.306   1.974  13.917
87276W        W55639  43.974   5.293   2.673
87277W        W55640   6.342  24.537   3.686
87278W        W55641  35.574  25.545  14.374
87279W        W55642  12.836  43.908   3.284
87280W        W55643  38.464  16.604   3.763
87281W        W55644  25.039  20.105   3.201
87282W        W55645  33.980   8.206   1.428
87283W        W55646  15.815  34.521  11.935
87284W        W55647  17.665  24.169   1.234
87285W        W55648   3.221  32.065   1.933
87286W        W55649  26.579  43.947  14.810
87287W        W55650  40.455  18.243   2.225
87288W        W55651  38.999  10.709  13.013
87289W        W55652   5.345   2.447   4.339
87290W        W55653  10.350  32.944  10.888
87291W        W55654   1.894   3.431   3.158
87292W        W55655  28.022  36.094  12.524
87293W        W55656  14.641  39.918  13.915
87294W        W55657  39.834  14.654   3.270
87295W        W55658   2.910   6.210   2.329
87296W        W55659  24.655  35.979   1.793
87297W        W55660  42.864  24.644  12.399
87298W        W55661  42.818  27.485  11.878
87299W        W55662  11.846   2.321  14.389
87300W        W55663  43.923  19.745   3.840
87301W        W55664  31.563  37.993   4.829
87302W        W55665  37.347  42.791   1.828
87303W        W55666  11.168  27.000  13.939
87304W        W55667   3.318   2.249   0.404
87305W        W55668  19.047  20.193  14.031
87306W        W55669  32.539  37.505  12.027
87307W        W55670  18.617   6.355  13.987
87308W        W55671  37.377  37.347  12.926
87309W        W55672  36.462  17.172  12.420
87310W        W55673  10.695  18.165  13.868
87311W        W55674  41.406   3.324   5.204
87312W        W55675  26.095   0.374  13.965
87313W        W55676  15.640  26.041   0.245
87314W        W55677  12.168  29.444  14.431
87315W        W55678  30.575  42.900  13.820
87316W        W55679  24.054  34.387   3.363
87317W        W55680  41.486  17.215  13.964
87318W        W55681  28.643  15.771   3.825
87319W        W55682  23.503  37.016   2.884
87320W        W55683   9.306  25.189  13.036
87321W        W55684  35.048  41.297   3.182
87322W        W55685  26.673  19.751   1.811
87323W        W55686   3.819  43.416   3.662
87324W        W55687  26.192  14.698  13.523
87325W        W55688  43.014  21.753  13.869
87326W        W55689   9.328  11.282   2.797
87327W        W55690  43.390  29.918  10.501
87328W        W55691  21.260  14.630   0.330
87329W        W55692  25.101  27.002   1.258
87330W        W55693  30.545  29.489   0.945
87331W        W55694   0.872   1.855   2.295
87332W        W55695  26.139  10.370  13.802
87333W        W55696  42.842  38.376   0.843
87334W        W55697  40.927  24.979   3.733
87335W        W55698  43.885  32.410   4.176
87336W        W55699  40.894  23.642  14.292
87337W        W55700  42.897   8.786  13.946
87338W        W55701  24.683  14.715   2.206
87339W        W55702  32.399  40.307   2.672
87340W        W55703  29.585  23.181  13.956
87341W        W55704  18.726   9.199  14.372
87342W        W55705  28.027  31.983   3.708
87343W        W55706  14.591  21.658   4.711
87344W        W55707   9.324  30.128   3.168
87345W        W55708   3.440   8.687  14.516
87346W        W55709  38.556  39.525  14.780
87347W        W55710  17.787  40.906   0.337
87348W        W55711  13.787  33.892  13.993
87349W        W55712  44.793  13.818  12.014
87350W        W55713  33.545   3.885   2.407
87351W        W55714  10.267  27.113  13.796
87352W        W55715  13.779  40.814   4.311
87353W        W55716  10.857  21.628   4.750
87354W        W55717  19.039   8.266  11.037
87355W        W55718  21.612  35.425  10.889
87356W        W55719  10.832  19.218  10.497
87357W        W55720   4.281  12.344  14.380
87358W        W55721   3.838  42.972   4.600
87359W        W55722   1.320  37.872  11.483
87360W        W55723  36.090   0.359   1.810
87361W        W55724   7.348  35.437   0.827
87362W        W55725   8.249   9.366   2.184
87363W        W55726  32.564   3.282  11.583
87364W        W55727  35.477  28.496  11.606
87365W        W55728  14.638   6.699   0.420
87366W        W55729  29.643  44.401   1.387
87367W        W55730  44.995   9.822  11.506
87368W        W55731   2.438  26.175   2.357
87369W        W55732   7.237  20.656  12.863
87370W        W55733  27.165  16.072   4.125
87371W        W55734  32.047  18.260   3.805
87372W        W55735  14.767   6.810  11.033
87373W        W55736  38.863   8.382  14.937
87374W        W55737  21.163  29.541  14.867
87375W        W55738   9.746   6.797  12.932
87376W        W55739  10.171  12.701   4.307
87377W        W55740  32.471   4.846  11.574
87378W        W55741  35.993  22.031   2.823
87379W        W55742  25.142  34.582   4.783
87380W        W55743   8.330  18.592  11.976
87381W        W55744   2.261  10.240   4.654
87382W        W55745  11.167  26.104   2.183
87383W        W55746   4.338  42.844   4.245
87384W        W55747  15.625  18.078   5.776
87385W        W55748  19.609  21.116  11.865
87386W        W55749  21.216  23.203  14.443
87387W        W55750  44.010   2.815   0.896
87388W        W55751  44.280  37.876   4.203
87389W        W55752  25.003  30.639  14.278
87390W        W55753  19.195   0.859   2.801
87391W        W55754  28.989  14.611   0.402
87392W        W55755  10.854  14.180  12.865
87393W        W55756  39.836  10.284  11.120
87394W        W55757  22.121   6.416   2.368
87395W        W55758   4.268  30.477  13.539
87396W        W55759  16.724  34.596   0.366
87397W        W55760  23.592   5.216  11.987
87398W        W55761  31.414   5.921  13.809
87399W        W55762  38.446  18.231  10.623
87400W        W55763  25.055  32.417  13.547
87401W        W55764  34.950  25.512   4.338
87402W        W55765  41.804  12.356  12.456
87403W        W55766  42.459   4.931  12.937
87404W        W55767   6.829   6.873  10.560
87405W        W55768   9.216  36.893  10.435
87406W        W55769   2.886  24.544   4.806
87407W        W55770  12.701  21.717   3.682
87408W        W55771   3.416  26.966   3.162
87409W        W55772  32.984  19.172  11.608
87410W        W55773  44.369  11.237  11.972
87411W        W55774  10.717  23.639   1.267
87412W        W55775  12.357  36.981   2.295
87413W        W55776   7.880  19.557  14.434
87414W        W55777   0.843  37.417   1.220
87415W        W55778   0.414  38.055  11.085
87416W        W55779  11.773  20.131   2.745
87417W        W55780  17.638  32.003   3.832
87418W        W55781  40.051  32.013   9.929
87419W        W55782  32.403  23.661  10.440
87420W        W55783  42.406   8.740  10.425
87421W        W55784  10.735  43.400  11.396
87422W        W55785  11.803   2.231   1.362
87423W        W55786  18.270  16.197  12.574
87424W        W55787  19.776  20.593   3.758
87425W        W55788  10.283   1.786  11.885
87426W        W55789  28.559   3.280  13.059
87427W        W55790  37.937   7.808  12.558
87428W        W55791  35.962  22.068  11.064
87429W        W55792  25.151  28.631   2.887
87430W        W55793  18.292  16.708  11.875
87431W        W55794   5.719  22.230   0.866
87432W        W55795   6.200   8.242  14.505
87433W        W55796   5.360  38.554   3.368
87434W        W55797  23.638   8.759  14.960
87435W        W55798   5.283  38.565  14.432
87436W        W55799   0.770  16.658  12.918
87437W        W55800   1.895  20.239  11.071
87438W        W55801  15.631  32.558  10.616
87439W        W55802  20.539  21.702   2.787
87440W        W55803  24.712  28.517   1.837
87441W        W55804  15.812  14.318   3.333
87442W        W55805  13.287   9.718   2.754
87443W        W55806   3.360  35.980   1.717
87444W        W55807  22.195  25.177  10.507
87445W        W55808  20.530  33.522  13.318
87446W        W55809  20.191  16.215   3.689
87447W        W55810  33.464  43.473   4.126
87448W        W55811   0.343  43.340  13.014
87449W        W55812  31.555  41.813   1.853
87450W        W55813  27.643  43.340  12.993
87451W        W55814  10.334  20.533   1.322
87452W        W55815  38.822  27.097  12.488
87453W        W55816  29.514  37.412  11.913
87454W        W55817  21.082  30.052   3.304
87455W        W55818  11.688  41.497   0.469
87456W        W55819   8.719   2.966   0.415
87457W        W55820  43.408  40.344  13.947
87458W        W55821  36.354   3.277  14.287
87459W        W55822   3.365  35.078   0.854
87460W        W55823  42.933  29.055   0.950
87461W        W55824  37.418   2.746  13.421
87462W        W55825  42.287  29.112   2.273
87463W        W55826  10.143  24.180   5.200
87464W        W55827   3.399  13.314  10.556
87465W        W55828  37.576  11.321   3.677
87466W        W55829  28.436  25.684  10.980
87467W        W55830  27.682   9.647  12.490
87468W        W55831  33.467   8.845   3.255
87469W        W55832   2.951  24.110   2.894
87470W        W55833   9.659  14.776  13.966
87471W        W55834  40.978  19.638  10.579
87472W        W55835  44.764  26.008  12.082
87473W        W55836  34.611  37.419   2.183
87474W        W55837   6.917   5.824   4.688
87475W        W55838  40.024  18.073  12.425
87476W        W55839  42.383   4.381   4.129
87477W        W55840  31.453  23.212   1.784
87478W        W55841  14.702  40.306  10.958
87479W        W55842  24.648   2.379   4.158
87480W        W55843  38.839  44.940   4.677
87481W        W55844  29.481   0.753  11.482
87482W        W55845   0.467  20.678   0.749
87483W        W55846  39.418   3.243   0.281
87484W        W55847  14.199  21.753  13.337
87485W        W55848  36.895  35.429  11.989
87486W        W55849   4.757  29.041   0.774
87487W        W55850   9.648  14.111  12.023
87488W        W55851  31.070  26.472   5.310
87489W        W55852  27.613   6.357  10.889
87490W        W55853  27.158  24.222  12.861
87491W        W55854  12.767  32.454   3.678
87492W        W55855  44.890  22.601  10.521
87493W        W55856  31.606  32.905   3.777
87494W        W55857  44.910   3.458   4.151
87495W        W55858  34.541  11.640  11.383
87496W        W55859  26.023  37.027  10.422
87497W        W55860  11.622  10.781  10.423
87498W        W55861   0.262  24.611   1.795
87499W        W55862  24.616   6.866   2.289
87500W        W55863  10.357   2.347   1.792
87501W        W55864   3.334  28.010  13.843
87502W        W55865   8.279   0.484  10.964
87503W        W55866  30.961  40.902  10.524
87504W        W55867  44.291   7.304  12.438
87505W        W55868   4.323   6.699   3.359
87506W        W55869  42.353  40.810   1.304
87507W        W55870  14.294  20.624   0.841
87508W        W55871   2.757  29.638   0.915
87509W        W55872  13.213  39.050   2.325
87510W        W55873  30.072  43.933  11.507
87511W        W55874   6.221   0.755   0.827
87512W        W55875  12.643  19.250  11.603
87513W        W55876  36.471  35.061   1.445
87514W        W55877  20.589   5.372  12.564
87515W        W55878   6.256  41.009   0.267
87516W        W55879   1.970   6.396   1.314
87517W        W55880  43.362   0.898   0.876
87518W        W55881  18.257  42.444  11.093
87519W        W55882  29.125  14.208  11.455
87520W        W55883  20.078  12.225  12.013
87521W        W55884   1.334  38.327  11.971
87522W        W55885  11.215  11.708   4.731
87523W        W55886  30.989  13.137  12.989
87524W        W55887  38.439  37.868  12.913
87525W        W55888  35.884   9.327   0.404
87526W        W55889  27.620  22.732  11.545
87527W        W55890  27.017  43.441   2.758
87528W        W55891   9.381  13.156   4.792
87529W        W55892  15.145  13.201  14.770
87530W        W55893  35.530   0.838  14.833
87531W        W55894  32.569  24.542  12.035
87532W        W55895  22.516   0.891   5.282
87533W        W55896   8.782  33.572  10.443
87534W        W55897   9.850  27.090   2.244
87535W        W55898  29.107  36.422  11.080
87536W        W55899  13.839  35.990   4.350
87537W        W55900   9.697  17.232   4.823
87538W        W55901  39.910   6.379  13.430
87539W        W55902  38.479  39.901   2.383
87540W        W55903  19.094   2.361   2.206
87541W        W55904  42.988  12.302  11.381
87542W        W55905  40.535   8.720  11.906
87543W        W55906  11.846  38.503   1.294
87544W        W55907  29.496   5.207   0.323
87545W        W55908  32.503  43.500  12.057
87546W        W55909  30.926  30.421   0.290
87547W        W55910  16.574   8.784  13.041
87548W        W55911  16.576  39.412  11.040
87549W        W55912  33.037  14.601  12.933
87550W        W55913  41.861  26.614  14.867
87551W        W55914   3.387  21.023  14.428
87552W        W55915  18.270  11.686   3.196
87553W        W55916   1.329  33.986  12.965
87554W        W55917  28.574  11.719  10.554
87555W        W55918  41.352  33.490  13.840
87556W        W55919  14.153  12.683  13.966
87557W        W55920  38.066  22.696  11.414
87558W        W55921  25.563  19.580  10.003
87559W        W55922  39.833  27.077  14.783
87560W        W55923  32.400  35.045  13.806
87561W        W55924  27.181  43.452   1.835
87562W        W55925  38.895  35.564   1.760
87563W        W55926  30.920  33.519   0.747
87564W        W55927  26.612  35.958   1.844
87565W        W55928   9.230  35.999   1.236
87566W        W55929  30.039  26.468   1.213
87567W        W55930  32.997  43.409  11.129
87568W        W55931  13.308  44.774   3.263
87569W        W55932  17.086  40.872  13.309
87570W        W55933  14.690  20.640   0.334
87571W        W55934  16.286  34.985  13.402
87572W        W55935   8.811  39.406  14.759
87573W        W55936  41.854  27.942   3.287
87574W        W55937   6.232  30.460   5.168
87575W        W55938  29.447  30.510  14.447
87576W        W55939  30.961  23.182  12.454
87577W        W55940  38.457   8.310  14.340
87578W        W55941  13.127  11.246   4.709
87579W        W55942  23.987   8.238   4.269
87580W        W55943  19.208  20.260  11.968
87581W        W55944   8.335   8.254   3.704
87582W        W55945  30.645  18.165   0.951
87583W        W55946  20.564   1.909  12.927
87584W        W55947   7.337  29.640   3.732
87585W        W55948   4.212  41.454   4.737
87586W        W55949  21.148  24.524   5.146
87587W        W55950  11.192   0.764   3.702
87588W        W55951  15.602  17.749   4.804
87589W        W55952  25.111  38.491  14.392
87590W        W55953  41.885  28.067   1.824
87591W        W55954   4.357  22.610   4.776
87592W        W55955  22.225   3.794   0.300
87593W        W55956  25.020  38.545  11.525
87594W        W55957   5.724  43.805  13.007
87595W        W55958  27.084  38.400  11.984
87596W        W55959  26.602  32.133   1.821
87597W        W55960  21.754  30.958  12.528
87598W        W55961  30.160   3.895   0.411
87599W        W55962  33.061  41.387   0.858
87600W        W55963  28.594   9.163   1.307
87601W        W55964  10.320  28.593  14.953
87602W        W55965  14.316  29.057  12.867
87603W        W55966   9.316  11.257   2.301
87604W        W55967  40.867  21.178   2.292
87605W        W55968  42.934  36.531   2.791
87606W        W55969  40.446  38.455   3.252
87607W        W55970  21.086  12.341   0.903
87608W        W55971  16.607   4.943   1.356
87609W        W55972  39.382  31.995   0.348
87610W        W55973  44.385  30.573   0.399
87611W        W55974  44.878  39.818  13.419
87612W        W55975  27.000  37.382   4.116
87613W        W55976  34.613   2.945   3.862
87614W        W55977   7.360   3.413  13.470
87615W        W55978  25.151  36.959  12.488
87616W        W55979  23.627  15.670  14.458
87617W        W55980  36.409  24.053   3.778
87618W        W55981   9.228  11.197   4.665
87619W        W55982   1.820  12.668   0.448
87620W        W55983  32.467  19.593  10.523
87621W        W55984  36.915  19.234  14.356
87622W        W55985  38.491   9.755  14.967
87623W        W55986  22.511  22.132  13.828
87624W        W55987  11.847   1.863   1.804
87625W        W55988  15.298  41.302   2.793
87626W        W55989  44.400   3.929   1.391
87627W        W55990  10.294  15.214  13.009
87628W        W55991  16.724  18.224  14.429
87629W        W55992  18.267  43.421  11.038
87630W        W55993  41.354  15.288  12.539
87631W        W55994   1.471  22.688   1.931
87632W        W55995  23.045   1.450  11.448
87633W        W55996  33.574  18.195  11.586
87634W        W55997   5.306  32.076   2.847
87635W        W55998  12.696  43.913  12.475
87636W        W55999   4.785  31.022  12.547
87637W        W56000  33.912   8.200  13.471
87638W        W56001  24.600  17.800   1.735
87639W        W56002  34.102  19.225   0.825
87640W        W56003  38.388  22.092   2.727
87641W        W56004  12.334  43.984  12.442
87642W        W56005  30.576  23.020   4.741
87643W        W56006  11.784  17.072  10.572
87644W        W56007  12.800  38.372   3.780
87645W        W56008  38.424  21.026  13.939
87646W        W56009   7.203  32.103  11.006
87647W        W56010  27.082  10.667   4.707
87648W        W56011  33.546  33.101   4.731
87649W        W56012  16.770   2.318  14.469
87650W        W56013   8.803  24.541   1.811
87651W        W56014  34.100  16.725  11.581
87652W        W56015  18.788   3.761  14.394
87653W        W56016   5.353  11.208  11.974
87654W        W56017  40.014   6.289   0.291
87655W        W56018   0.310   0.260   2.736
87656W        W56019  42.415  10.713   3.189
87657W        W56020  29.485  30.974  14.357
87658W        W56021  17.188  32.516   0.933
87659W        W56022  12.856  20.158  11.122
87660W        W56023  19.640  10.210   2.848
87661W        W56024  20.056  41.312   2.898
87662W        W56025  16.647   5.426  14.455
87663W        W56026  40.923   7.884  12.095
87664W        W56027  33.075  21.061   0.788
87665W        W56028   2.958   9.722  12.924
87666W        W56029  22.011   1.832  12.061
87667W        W56030  27.514  15.773   1.870
87668W        W56031  36.861  21.201  14.026
87669W        W56032  32.503  43.926  11.522
87670W        W56033   9.236  12.779  10.599
87671W        W56034  21.537  35.512  11.494
87672W        W56035  31.911  36.583  12.444
87673W        W56036   2.422  18.705  13.940
87674W        W56037  36.426  40.982   1.440
87675W        W56038  32.421  17.244  12.361
87676W        W56039  13.743  14.746   1.264
87677W        W56040  29.595  11.674   4.728
87678W        W56041  35.539   5.688   2.395
87679W        W56042  38.894  13.838  10.536
87680W        W56043  34.044   7.682   4.271
87681W        W56044  13.278  28.605  11.938
87682W        W56045  40.533  17.751   4.783
87683W        W56046  35.955   2.903   3.809
87684W        W56047  36.057  43.865   1.378
87685W        W56048  31.405   3.404   3.215
87686W        W56049   2.733  25.011  10.964
87687W        W56050  13.661  34.056  14.314
87688W        W56051  11.173  25.653   2.223
87689W        W56052  13.623   7.408   4.238
87690W        W56053  25.639  33.035   2.373
87691W        W56054  25.146  41.883  12.004
87692W        W56055   9.735  44.846   0.418
87693W        W56056  12.662  28.448  14.929
87694W        W56057  12.630   4.820   3.194
87695W        W56058   5.295  15.264   2.384
87696W        W56059  21.738  39.824   4.838
87697W        W56060  19.564  30.515  12.910
87698W        W56061  24.188   5.879  14.833
87699W        W56062   0.971  21.182   1.915
87700W        W56063  24.056  27.554   2.726
87701W        W56064  37.934  14.163   3.781
87702W        W56065   4.735  32.904  11.889
87703W        W56066   4.869   3.234   4.201
87704W        W56067   2.248  38.924   1.328
87705W        W56068   6.686  29.461  10.501
87706W        W56069  20.590   8.674  12.962
87707W        W56070   7.695  27.953  12.968
87708W        W56071  19.066  39.990   3.668
87709W        W56072  16.607   7.901  14.860
87710W        W56073  18.229  37.946   1.782
87711W        W56074  37.035  38.012   2.214
87712W        W56075  31.047   9.650   3.773
87713W        W56076  15.087  14.604   4.723
87714W        W56077   5.382  10.852   1.737
87715W        W56078  42.994  29.520  13.513
87716W        W56079  36.969  15.665  10.980
87717W        W56080  30.599  12.781  12.867
87718W        W56081   9.367   3.417   0.296
87719W        W56082  11.839  32.534   2.897
87720W        W56083  43.794  18.780  12.952
87721W        W56084  27.583  29.647  11.113
87722W        W56085  22.566   0.305  13.493
87723W        W56086   4.818  26.517   0.775
87724W        W56087  12.175  42.486   3.365
87725W        W56088   5.405  41.018  13.051
87726W        W56089  31.949  32.516  12.474
87727W        W56090   7.394  25.124  11.047
87728W        W56091  17.304   5.360   4.669
87729W        W56092  11.640   7.877   1.356
87730W        W56093  25.096  32.415   0.305
87731W        W56094  14.694  11.196   2.409
87732W        W56095  35.460   2.861   0.439
87733W        W56096  43.880  33.093   4.287
87734W        W56097   3.813  26.509   1.334
87735W        W56098  10.302   1.289   1.929
87736W        W56099  21.263  11.249   3.642
87737W        W56100  24.069  37.383   4.744
87738W        W56101  19.739   7.202  12.483
87739W        W56102  25.696  20.721   0.964
87740W        W56103   1.264  25.091   4.248
87741W        W56104  38.541  11.795  10.891
87742W        W56105  34.582  12.221  14.439
87743W        W56106  40.318   9.684  11.401
87744W        W56107  25.966  37.374  10.075
87745W        W56108  35.380  21.514  12.075
87746W        W56109   1.303  43.320  12.058
87747W        W56110  13.707  29.053  10.616
87748W        W56111  18.632  36.437  11.960
87749W        W56112  30.011  18.702  11.418
87750W        W56113  19.635  22.606   3.742
87751W        W56114  42.487  35.559   5.096
87752W        W56115  30.466  25.066  10.909
87753W        W56116   4.888  11.177  13.454
87754W        W56117  41.006  14.618  13.317
87755W        W56118  44.757  10.176  10.485
87756W        W56119  29.128   3.956  12.401
87757W        W56120   0.977  19.545  11.600
87758W        W56121  15.753  25.055  13.534
87759W        W56122  17.065  28.467  13.352
87760W        W56123   0.870  44.795   2.283
87761W        W56124  17.729  27.455  13.827
87762W        W56125  26.568  32.061   0.286
87763W        W56126  20.765  32.585  12.556
87764W        W56127  40.334  37.479  13.844
87765W        W56128  23.217   5.829   3.738
87766W        W56129  41.949  16.587   3.653
87767W        W56130  18.734  21.722   1.757
87768W        W56131  10.149  26.960   2.726
87769W        W56132  15.197  41.826  12.915
87770W        W56133  32.021  14.656  11.519
87771W        W56134  15.692  13.677  12.452
87772W        W56135  34.408   2.914  10.963
87773W        W56136  14.197  36.350  14.375
87774W        W56137   8.679  35.945   0.363
87775W        W56138  40.042  35.490  11.057
87776W        W56139   4.340   5.920   0.289
87777W        W56140   7.843  18.119  12.395
87778W        W56141  17.654  17.220  13.480
87779W        W56142  13.758  41.972  13.834
87780W        W56143  32.516  40.952  14.333
87781W        W56144   9.771  11.240  12.014
87782W        W56145  42.970  41.892   1.748
87783W        W56146  32.576  32.034  13.974
87784W        W56147  31.555   3.428  13.824
87785W        W56148  40.013  17.741   2.661
87786W        W56149   3.247  39.445   1.825
87787W        W56150  36.000   9.705   4.297
87788W        W56151  10.223  36.018   0.390
87789W        W56152  25.671  18.242   4.311
87790W        W56153   2.366  23.000  11.008
87791W        W56154  21.573  21.581   0.357
87792W        W56155  24.078  18.650  12.397
87793W        W56156  37.860  24.618  12.898
87794W        W56157  35.531  10.856  12.831
87795W        W56158  28.465  14.147   2.364
87796W        W56159  34.613  42.779  12.422
87797W        W56160  44.301   2.334   1.818
87798W        W56161  17.140  20.629  12.023
87799W        W56162  10.878  36.370   0.300
87800W        W56163  24.516  19.249  14.291
87801W        W56164  26.053  20.713   1.849
87802W        W56165   5.402  23.717  11.885
87803W        W56166  10.767  18.610   1.754
87804W        W56167  29.987  11.828  14.279
87805W        W56168  30.981  32.947   0.745
87806W        W56169  44.864   6.419  13.054
87807W        W56170  36.948  33.596  14.789
87808W        W56171  44.828  43.465  12.982
87809W        W56172  37.556  15.258  14.931
87810W        W56173   8.751   5.927   2.273
87811W        W56174  16.804  34.948  14.426
87812W        W56175  22.724   5.345   1.385
87813W        W56176  20.141  18.632   0.279
87814W        W56177  10.818  17.207   4.341
87815W        W56178  35.944  25.127   4.128
87816W        W56179  24.580  25.562   0.427
87817W        W56180  15.649  39.463   2.884
87818W        W56181  33.529  39.870   2.673
87819W        W56182  23.022   5.248   4.634
87820W        W56183  11.705  20.758  12.395
87821W        W56184  14.272  43.434   2.187
87822W        W56185  34.585  37.533  11.422
87823W        W56186  26.974  33.386  13.488
87824W        W56187  17.080  35.473   3.793
87825W        W56188  20.614  43.438   0.922
87826W        W56189  21.176   3.451   1.303
87827W        W56190  27.186  32.401   4.614
87828W        W56191   5.213  41.481   5.112
87829W        W56192  10.154  35.872   9.996
87830W        W56193  21.531  12.341   3.213
87831W        W56194  21.073  28.031   3.311
87832W        W56195  36.872  26.124  10.926
87833W        W56196  39.317  35.096  13.371
87834W        W56197  24.570  28.046   3.312
87835W        W56198   0.451  10.343   1.888
87836W        W56199   7.254  40.909  14.763
87837W        W56200  43.306   9.713  12.038
87838W        W56201  37.465  20.627   3.303
87839W        W56202  40.804  25.061  12.416
87840W        W56203   1.944  33.409  10.982
87841W        W56204  30.539   4.754  10.624
87842W        W56205  23.534  37.444  12.373
87843W        W56206  27.598  14.718   2.401
87844W        W56207  43.923   4.368  10.460
87845W        W56208  27.529  17.694  11.594
87846W        W56209  18.110   1.268  10.537
87847W        W56210  42.796  31.440   1.394
87848W        W56211  14.245  13.644  12.480
87849W        W56212  34.106   4.273  11.566
87850W        W56213  22.038  38.547   3.363
87851W        W56214  10.210   8.319  14.870
87852W        W56215  10.299   5.260  10.633
87853W        W56216  14.658   6.885   0.861
87854W        W56217  27.987  41.943   4.151
87855W        W56218  32.110  43.792   2.368
87856W        W56219   4.258  25.711   3.734
87857W        W56220  30.537   0.777   4.633
87858W        W56221  20.240   9.786  11.040
87859W        W56222  12.843  39.017  10.502
87860W        W56223   7.357   1.909   3.686
87861W        W56224  26.143  25.667   4.218
87862W        W56225  33.965  32.128   2.715
87863W        W56226  19.574  42.925   0.248
87864W        W56227  23.505   9.830  13.024
87865W        W56228  10.321  22.572   2.204
87866W        W56229  39.398  13.146   9.464
87867W        W56230  31.128  28.982  10.128
87868W        W56231   5.207  10.337   1.762
87869W        W56232   8.680   3.244   4.246
87870W        W56233   3.320  19.672   2.245
87871W        W56234  44.469  35.517   5.160
87872W        W56235  30.413  19.047  14.974
87873W        W56236   3.813  40.969  11.556
87874W        W56237  13.104  41.005  12.378
87875W        W56238  13.707  12.765   0.351
87876W        W56239  19.173  10.706   3.692
87877W        W56240  10.639  12.180  12.469
87878W        W56241  17.168  38.055  13.350
87879W        W56242  24.047  15.615  12.412
87880W        W56243  17.103  26.105   1.762
87881W        W56244  30.026  13.710  13.060
87882W        W56245   2.424   9.750  12.041
87883W        W56246  34.992  39.476   2.776
87884W        W56247  42.814   8.305  13.033
87885W        W56248   2.260  25.148   0.279
87886W        W56249  15.280  36.352   4.746
87887W        W56250  26.173  30.956  14.338
87888W        W56251  35.386   6.418  13.053
87889W        W56252  18.066  32.437   0.844
87890W        W56253   2.281  39.951   0.382
87891W        W56254  39.850  15.784   1.724
87892W        W56255  31.947  25.052  13.036
87893W        W56256  37.853  24.140   1.256
87894W        W56257   7.398  19.108  12.458
87895W        W56258  28.531  22.122   3.172
87896W        W56259  39.407  24.603  12.543
87897W        W56260   4.225  14.120   1.784
87898W        W56261  39.020   7.365  12.863
87899W        W56262  22.525  33.111  14.478
87900W        W56263  28.590   4.820  10.921
87901W        W56264  42.787  30.161  10.621
87902W        W56265  34.426  27.667   3.855
87903W        W56266  24.228  34.073   4.682
87904W        W56267  35.551  35.872  10.931
87905W        W56268  23.235  17.210   0.465
87906W        W56269  10.291  31.598  13.896
87907W        W56270  41.904  22.732  11.129
87908W        W56271  30.947   3.434   1.900
87909W        W56272  30.625   0.321  10.571
87910W        W56273  28.124   7.696   3.178
87911W        W56274  32.905  14.224  11.570
87912W        W56275  14.237  23.045   4.137
87913W        W56276  11.705  22.065   0.773
87914W        W56277  13.258  33.468  11.521
87915W        W56278  33.546  42.502   0.376
87916W        W56279   3.858  32.119  14.485
87917W        W56280  22.534  12.796  14.026
87918W        W56281  32.507  41.920   0.418
87919W        W56282   5.688  16.170  13.321
87920W        W56283   1.923   5.743  11.080
87921W        W56284  29.075  14.097  14.934
87922W        W56285  15.582  11.823  11.463
87923W        W56286  17.580  10.262   4.609
87924W        W56287  29.081  21.219   2.860
87925W        W56288  22.622  11.859   0.937
87926W        W56289  44.858  10.742  10.910
87927W        W56290   6.228  40.815   2.780
87928W        W56291  29.436  26.652  12.541
87929W        W56292   0.776  15.664   5.152
87930W        W56293   1.318  30.476   2.318
87931W        W56294   1.239   6.201  11.110
87932W        W56295   6.800  43.909  11.386
87933W        W56296  15.205  29.117   1.223
87934W        W56297  23.730   1.429  11.910
87935W        W56298  25.541  36.432   2.877
87936W        W56299  38.972  33.574  12.030
87937W        W56300  28.178  11.637   1.802
87938W        W56301  15.171  18.569  11.570
87939W        W56302  18.665  12.258   1.836
87940W        W56303  14.789   7.744  13.018
87941W        W56304  40.881  13.270   3.650
87942W        W56305  29.966   7.896   0.778
87943W        W56306  26.090  19.693  13.868
87944W        W56307   3.427  24.648  11.382
87945W        W56308  38.059  26.500  14.863
87946W        W56309  13.315  30.585   4.121
87947W        W56310  16.121  27.073  13.405
87948W        W56311   9.162  35.085   0.730
87949W        W56312  32.399  41.537  12.462
87950W        W56313  12.307  26.958   1.742
87951W        W56314  11.647  30.475  12.882
87952W        W56315  19.752  40.939   2.695
87953W        W56316  40.934   4.419   3.782
87954W        W56317  14.150  41.293  14.395
87955W        W56318  35.891  22.529   1.919
87956W        W56319  16.589  22.009   0.768
87957W        W56320  14.689  11.690  14.378
87958W        W56321  13.664  17.236  14.954
87959W        W56322   9.835  31.124   4.207
87960W        W56323  12.689   9.811  13.454
87961W        W56324  38.900  16.314   4.644
87962W        W56325  13.644  31.977   2.184
87963W        W56326  31.428  29.588   3.228
87964W        W56327  19.065  27.542   4.613
87965W        W56328  39.052  12.727   4.613
87966W        W56329  12.207   2.389  11.401
87967W        W56330   7.691  33.070  14.483
87968W        W56331  22.097  13.678   0.802
87969W        W56332  25.992  26.687   0.848
87970W        W56333  35.599  22.060   2.797
87971W        W56334  10.319   6.265   3.310
87972W        W56335  32.636  19.253   3.352
87973W        W56336   4.785  33.568  13.439
87974W        W56337  20.100  43.457   4.286
87975W        W56338  22.036  34.017  14.030
87976W        W56339   8.662  22.534  11.997
87977W        W56340   5.358  22.129  10.947
87978W        W56341   3.894   8.815  14.934
87979W        W56342   8.166  42.793   0.750
87980W        W56343   4.243  12.811  12.055
87981W        W56344  34.417  10.278   1.903
87982W        W56345  19.745  13.237  11.442
87983W        W56346  10.660  17.566   0.425
87984W        W56347  39.808   5.215   4.301
87985W        W56348  11.740  28.162   3.644
87986W        W56349  17.593  27.591   1.758
87987W        W56350  13.710  22.690  12.038
87988W        W56351  15.646  29.050  10.563
87989W        W56352  13.682  26.002   2.284
87990W        W56353  33.034  21.042   3.755
87991W        W56354  24.702  25.637  11.491
87992W        W56355  35.598  30.654   4.135
87993W        W56356   7.770  40.422  14.330
87994W        W56357  24.023  42.521   3.226
87995W        W56358   1.285   5.211   3.335
87996W        W56359  25.043  22.617  13.930
87997W        W56360  31.023  11.314   0.951
87998W        W56361  37.570  29.148  14.301
87999W        W56362  13.785  16.166   1.221
88000W        W56363  10.844  44.788   1.872
88001W        W56364  31.145   4.293   3.800
88002W        W56365  44.368  32.899   3.846
88003W        W56366  25.991  13.721   5.254
88004W        W56367  44.275  40.363  11.441
88005W        W56368  41.940   9.730  12.396
88006W        W56369  32.895  44.259   2.741
88007W        W56370  34.086  24.697   3.243
88008W        W56371  33.922   3.838   0.462
88009W        W56372  27.106  19.708  10.889
88010W        W56373  17.099   0.364  13.376
88011W        W56374  28.052  13.193   1.813
88012W        W56375   3.825  34.593   0.313
88013W        W56376  42.814  38.329  10.913
88014W        W56377  16.220  44.414  14.880
88015W        W56378  33.451  19.263   3.191
88016W        W56379  39.906  30.001   1.911
88017W        W56380   5.261  22.079  10.516
88018W        W56381  39.422  25.574   2.796
88019W        W56382   8.697  37.899   4.817
88020W        W56383  34.523  22.725  11.040
88021W        W56384  18.166  12.186  11.069
88022W        W56385   3.320  39.034   3.742
88023W        W56386  40.864   6.415  13.805
88024W        W56387   8.196  25.626  13.955
88025W        W56388  34.436   0.415   0.866
88026W        W56389  38.436  44.825   4.636
88027W        W56390   2.333  11.635  14.931
88028W        W56391  37.899  43.440  11.381
88029W        W56392   6.801  28.123  12.837
88030W        W56393  26.164  38.942   4.336
88031W        W56394  22.581  11.153  14.980
88032W        W56395  25.969  30.472   1.218
88033W        W56396   0.492  13.253   4.692
88034W        W56397  22.153  12.714   0.836
88035W        W56398  37.429   9.846  12.024
88036W        W56399  24.059  13.701  12.834
88037W        W56400   4.797  13.198  14.345
88038W        W56401  20.539  31.990   2.402
88039W        W56402   3.875   7.412   4.819
88040W        W56403  41.458   0.875  13.397
88041W        W56404  10.706  33.524   0.853
88042W        W56405  27.643   2.232   1.365
88043W        W56406   4.365  31.116  10.922
88044W        W56407   4.284  38.526   2.798
88045W        W56408   7.845  10.177  12.942
88046W        W56409   3.264  42.869   3.779
88047W        W56410  31.482  16.720   4.273
88048W        W56411   2.239   9.745   0.944
88049W        W56412  24.042  32.470   1.249
88050W        W56413  23.005   9.668   0.752
88051W        W56414  41.871  19.089  10.496
88052W        W56415  26.665  25.065  13.440
88053W        W56416  38.513  15.634   4.806
88054W        W56417   9.207  36.369  14.013
88055W        W56418  34.021   7.848   1.829
88056W        W56419  30.554  35.964  14.281
88057W        W56420  34.380  32.904  11.406
88058W        W56421  42.801  37.463   1.891
88059W        W56422  24.067  38.412  13.371
88060W        W56423  24.091  12.768  12.973
88061W        W56424  11.267  39.048   0.824
88062W        W56425  38.019  24.165  14.316
88063W        W56426  37.577  21.539   1.702
88064W        W56427  44.282  25.686   4.309
88065W        W56428  31.136  33.946   1.234
88066W        W56429  29.529   2.351   3.658
88067W        W56430  41.439  27.059   4.637
88068W        W56431  37.538  30.492   4.740
88069W        W56432  44.977  42.286  10.457
88070W        W56433   2.334   2.898   4.738
88071W        W56434  44.321  33.423  11.542
88072W        W56435  41.862  36.401  12.864
88073W        W56436  18.678  36.473  13.996
88074W        W56437  11.723  32.049  11.998
88075W        W56438  43.976  26.524  12.480
88076W        W56439  12.811  25.024  11.986
88077W        W56440  38.068  11.680   1.930
88078W        W56441  35.581   2.271  11.002
88079W        W56442   4.412  27.179  13.418
88080W        W56443  43.988  40.027  10.993
88081W        W56444  29.443  26.537   2.861
88082W        W56445  44.852  18.166   0.873
88083W        W56446  43.849   2.862   3.801
88084W        W56447  29.036  37.048  14.027
88085W        W56448  44.427   4.744  14.515
88086W        W56449   6.739  22.522  13.312
88087W        W56450  35.430   7.782   4.233
88088W        W56451  11.222  24.681  10.900
88089W        W56452   8.312   0.434   3.217
88090W        W56453  31.151  39.462  12.992
88091W        W56454  24.222  40.872  10.478
88092W        W56455  32.497   1.865   5.085
88093W        W56456  28.674  39.999  11.080
88094W        W56457  42.396  21.190  12.438
88095W        W56458  26.580  29.583  11.488
88096W        W56459  40.495   8.837  11.544
88097W        W56460   3.822  10.788  11.906
88098W        W56461  38.878  39.814  13.938
88099W        W56462  41.527  12.851  11.126
88100W        W56463  19.108  14.274   2.348
88101W        W56464  11.675  44.405  12.345
88102W        W56465  11.641  42.812   5.176
88103W        W56466  29.531   9.716   3.149
88104W        W56467  28.654  14.614   3.337
88105W        W56468  19.745   7.216   1.891
88106W        W56469  35.893  31.903  10.492
88107W        W56470  43.935  20.583  11.953
88108W        W56471  23.033  32.132   5.139
88109W        W56472  35.933  21.106  13.391
88110W        W56473   8.206  16.140   1.709
88111W        W56474   1.737   3.946  13.865
88112W        W56475  43.383  34.022  14.494
88113W        W56476   5.366  13.310  14.985
88114W        W56477  44.835   3.379   2.707
88115W        W56478  16.138  25.203   0.872
88116W        W56479  26.033  37.417   4.291
88117W        W56480  25.215   3.711  12.014
88118W        W56481  42.869  22.632   0.243
88119W        W56482  14.340  14.667  14.902
88120W        W56483   4.289   8.319   1.740
88121W        W56484  13.140   8.733  12.575
88122W        W56485  42.877  29.529   4.816
88123W        W56486  27.028   4.938  11.038
88124W        W56487   5.415  43.773   4.822
88125W        W56488  23.018   8.369  12.368
88126W        W56489  36.902  11.842  12.978
88127W        W56490  28.676  28.486   4.601
88128W        W56491   0.475  23.049   1.769
88129W        W56492   5.376   3.741   4.732
88130W        W56493   1.829  22.516  10.504
88131W        W56494  39.415  26.623   2.250
88132W        W56495   3.356  19.663  11.125
88133W        W56496  22.214  34.986  11.060
88134W        W56497   0.431  30.956   4.683
88135W        W56498   5.239  41.984  12.353
88136W        W56499  38.356  40.839  14.337
88137W        W56500  12.647  28.008  12.923
88138W        W56501  42.886  19.739   3.194
88139W        W56502  10.309  35.038   0.429
88140W        W56503  14.136   2.283   3.797
88141W        W56504   5.873  34.388   3.794
88142W        W56505  28.621  35.503   4.646
88143W        W56506   1.762   4.346  11.879
88144W        W56507  34.913  35.084   5.186
88145W        W56508  20.195  32.563  14.471
88146W        W56509  25.138  22.223   3.654
88147W        W56510  44.370  26.593   0.476
88148W        W56511  29.484  20.543   3.341
88149W        W56512   4.338  17.795  11.464
88150W        W56513  29.634   2.808   1.814
88151W        W56514   2.746   9.288   4.164
88152W        W56515  17.116  35.549   4.283
88153W        W56516  36.990  26.483  13.826
88154W        W56517  32.493  20.760  14.491
88155W        W56518  40.953  26.619  11.515
88156W        W56519  17.169  44.440   2.725
88157W        W56520   4.790  23.160   0.264
88158W        W56521   2.335  38.856  11.425
88159W        W56522  10.343  29.492  14.993
88160W        W56523   0.837  37.503   0.755
88161W        W56524  24.651  20.128   1.794
88162W        W56525  34.872   7.871  10.532
88163W        W56526  10.858   7.798   2.324
88164W        W56527  34.507  21.261   0.266
88165W        W56528  18.701   9.311  10.606
88166W        W56529  34.962  26.608  11.393
88167W        W56530  33.430  17.702  11.972
88168W        W56531  15.745  14.590   1.722
88169W        W56532  26.610  35.893  10.493
88170W        W56533  44.897  28.105   3.385
88171W        W56534  38.049  29.927  11.395
88172W        W56535  22.089  22.719  13.409
88173W        W56536  15.143  29.002  13.444
88174W        W56537   3.459  38.847  14.905
88175W        W56538  35.962  20.155   0.771
88176W        W56539  13.186   9.390  13.440
88177W        W56540  22.024  43.784   3.367
88178W        W56541  31.421   9.794   4.139
88179W        W56542  25.498   3.370  14.425
88180W        W56543  13.696  11.335  12.034
88181W        W56544  40.394   4.430  10.992
88182W        W56545   8.777  25.145  14.870
88183W        W56546  41.407  38.379   2.825
88184W        W56547  34.453  42.957  13.518
88185W        W56548  39.489   9.344  12.432
88186W        W56549   0.451  16.159   1.838
88187W        W56550   8.253  25.618   1.898
88188W        W56551   7.725   1.248  13.950
88189W        W56552  17.774  10.252  14.885
88190W        W56553   3.930  24.135   0.734
88191W        W56554  16.244  14.595   2.206
88192W        W56555   9.782  32.560  13.972
88193W        W56556  39.437  22.684   3.164
88194W        W56557  26.028  43.297  10.514
88195W        W56558  26.186   9.178  12.884
88196W        W56559   8.311   1.342   3.240
88197W        W56560  43.449  10.164   0.920
88198W        W56561  41.020  30.556  14.931
88199W        W56562   9.359  33.035  11.584
88200W        W56563  12.818   3.740   0.783
88201W        W56564  39.935  20.258   1.293
88202W        W56565  44.781   4.896   4.225
88203W        W56566   0.407  39.813  13.004
88204W        W56567  36.453   1.927   1.438
88205W        W56568  40.447   6.824   3.251
88206W        W56569  38.343  30.468   2.860
88207W        W56570  40.515   4.844   1.447
88208W        W56571  27.545  33.049  13.009
88209W        W56572  31.035  40.989   1.396
88210W        W56573  20.128  37.841  11.574
88211W        W56574  27.467  34.379  13.862
88212W        W56575  17.614   8.815   4.349
88213W        W56576  34.958  19.663   2.394
88214W        W56577  33.451  33.435   4.314
88215W        W56578  35.545  39.485  12.071
88216W        W56579  29.054   3.805  14.305
88217W        W56580  33.125  17.061   2.295
88218W        W56581  27.041  33.547  11.855
88219W        W56582   3.805   0.458   4.720
88220W        W56583  20.155  10.195   0.882
88221W        W56584  41.978  32.075   3.695
88222W        W56585   3.919  37.535  12.958
88223W        W56586  10.665  12.355   3.149
88224W        W56587  11.855  25.605   4.352
88225W        W56588  23.235  20.757  10.610
88226W        W56589  32.433   7.354  13.833
88227W        W56590  40.479   1.733  14.442
88228W        W56591  11.139  16.083   1.222
88229W        W56592  13.774   2.398  12.884
88230W        W56593   8.696  17.580  14.020
88231W        W56594  24.668  19.594  11.963
88232W        W56595  17.203  38.352   2.749
88233W        W56596   0.459  28.002   1.222
88234W        W56597  40.998  11.230   3.707
88235W        W56598  16.297  28.652  11.896
88236W        W56599  28.526  28.443   4.181
88237W        W56600  31.905  18.081   1.415
88238W        W56601  12.842  32.012  11.084
88239W        W56602  31.102  36.442  13.323
88240W        W56603  29.119  44.485   2.805
88241W        W56604   4.773  12.249   4.158
88242W        W56605  43.475   3.900  14.420
88243W        W56606  25.177  32.977  12.559
88244W        W56607  35.500  18.658   4.119
88245W        W56608  30.917  37.982  14.776
88246W        W56609  19.748  44.852  12.401
88247W        W56610  24.531  14.240  10.406
88248W        W56611  18.104  44.765  11.964
88249W        W56612  19.174  10.834   2.414
88250W        W56613  40.382  28.518   4.307
88251W        W56614   2.848  26.473  11.096
88252W        W56615  44.866  25.218   2.371
88253W        W56616  33.624  34.416   3.834
88254W        W56617  44.964   6.289   0.464
88255W        W56618  37.484  14.651   2.731
88256W        W56619  14.133  36.456  13.386
88257W        W56620   6.272   3.390   3.765
88258W        W56621  33.905  20.664  14.769
88259W        W56622  33.936  31.088  14.829
88260W        W56623  33.562  25.638   0.404
88261W        W56624  22.603  41.959  14.509
88262W        W56625  17.180  14.329   3.683
88263W        W56626  27.650  39.560  13.940
88264W        W56627  11.176  40.324   2.327
88265W        W56628  15.171  13.760   2.891
88266W        W56629   8.288  11.836  12.402
88267W        W56630  43.970   9.274   0.309
88268W        W56631  39.813  19.648  11.925
88269W        W56632   4.701  27.962   2.287
88270W        W56633  29.492  43.943  14.439
88271W        W56634  15.144   2.344   2.280
88272W        W56635  40.516  18.562  11.915
88273W        W56636   9.382  39.499  12.340
88274W        W56637  38.848  31.145   0.403
88275W        W56638  10.272  10.367  14.770
88276W        W56639  29.032  18.731  10.468
88277W        W56640  38.410  25.027  14.508
88278W        W56641  37.436  23.542  11.979
88279W        W56642  37.027   1.343  14.874
88280W        W56643  30.577   6.267  13.822
88281W        W56644  13.308   3.801  12.089
88282W        W56645   2.420  36.035  11.097
88283W        W56646   8.746   9.315   0.912
88284W        W56647  16.125  20.107   1.810
88285W        W56648  12.145  37.053  13.816
88286W        W56649  33.468  42.824   4.768
88287W        W56650  38.409  22.506  13.465
88288W        W56651  43.795  17.293   1.223
88289W        W56652  42.297  37.381  10.031
88290W        W56653  15.325  21.023  13.026
88291W        W56654   1.949  28.488   2.401
88292W        W56655  20.665  19.168  13.508
88293W        W56656   4.282   2.467   0.470
88294W        W56657  29.554  30.480   0.428
88295W        W56658  20.668  27.653   1.427
88296W        W56659  41.446  25.991   1.414
88297W        W56660  12.160   3.404   1.759
88298W        W56661   4.450   7.823  12.850
88299W        W56662  17.213  43.798   5.141
88300W        W56663  20.627  10.369  11.935
88301W        W56664  44.260   7.180   2.720
88302W        W56665  12.750  16.796   2.405
88303W        W56666  11.373  33.078   0.315
88304W        W56667   4.944  18.608  11.542
88305W        W56668  31.956   5.766   3.859
88306W        W56669  43.892  25.547   2.387
88307W        W56670  38.452  24.662   4.678
88308W        W56671  29.477   4.329   1.212
88309W        W56672  17.573  41.944   0.438
88310W        W56673  26.464  36.516   3.187
88311W        W56674  28.482  10.337   0.895
88312W        W56675  42.285  31.113  10.932
88313W        W56676  34.441   8.838   1.444
88314W        W56677   5.305  17.594   2.765
88315W        W56678  24.681  40.381   3.707
88316W        W56679  30.021  12.131   2.881
88317W        W56680  28.082  43.422   4.788
88318W        W56681  21.647   5.915  13.852
88319W        W56682  24.530  20.247  13.929
88320W        W56683  16.293  42.377  10.633
88321W        W56684  16.583  44.757   2.873
88322W        W56685  11.632  19.660   4.353
88323W        W56686   6.212  37.416   0.412
88324W        W56687  12.785  39.944  11.053
88325W        W56688  35.595  44.333  11.525
88326W        W56689  16.713   2.333  14.902
88327W        W56690  14.818  39.410  13.308
88328W        W56691  26.600  43.355   1.773
88329W        W56692  36.453  44.371  12.458
88330W        W56693  30.497   0.248  11.873
88331W        W56694  20.162  18.684  13.909
88332W        W56695  37.521  43.863   2.196
88333W        W56696   0.303  21.627   0.905
88334W        W56697  38.836  35.973  14.871
88335W        W56698  33.085   3.898   2.718
88336W        W56699  26.557  16.107  10.942
88337W        W56700  36.460  22.059  10.955
88338W        W56701  17.591   4.771   4.803
88339W        W56702  37.837  17.627   2.307
88340W        W56703  33.930  36.372  13.509
88341W        W56704  10.186  11.693   0.752
88342W        W56705  36.367   4.860   4.601
88343W        W56706   7.289  19.564  12.499
88344W        W56707  15.621  10.187   5.275
88345W        W56708  33.930  21.132   2.225
88346W        W56709  35.524  31.438   0.435
88347W        W56710  17.122   0.377   3.265
88348W        W56711   8.379   4.932   0.377
88349W        W56712  18.760  17.618   3.221
88350W        W56713   4.313  14.696   0.277
88351W        W56714   3.304  26.024   2.248
88352W        W56715   8.888  18.074   4.209
88353W        W56716  25.194  10.257  12.003
88354W        W56717  29.952  15.127   0.829
88355W        W56718  14.633  15.775  11.024
88356W        W56719  44.938  18.711   1.906
88357W        W56720  13.697   4.245   0.423
88358W        W56721  32.467   2.944   0.857
88359W        W56722  35.978  26.017   3.365
88360W        W56723   4.259  23.504   5.587
88361W        W56724  24.022   6.764   1.698
88362W        W56725   2.866   1.368  12.095
88363W        W56726  24.035  35.523   1.906
88364W        W56727   9.660  22.617   2.358
88365W        W56728  23.645   0.893   0.449
88366W        W56729  41.846  41.861   0.483
88367W        W56730  40.523   2.383   0.899
88368W        W56731  34.950  44.302  12.567
88369W        W56732   9.821  29.552   3.818
88370W        W56733  31.564  30.973   2.290
88371W        W56734  31.965  22.058  12.378
88372W        W56735  41.944   1.395  12.893
88373W        W56736   5.338  12.219   2.877
88374W        W56737  18.594   6.333   4.776
88375W        W56738  22.723  34.592   0.248
88376W        W56739   6.373   9.740   2.183
88377W        W56740  32.562   5.268   1.872
88378W        W56741  37.492  36.356  13.328
88379W        W56742   7.192  14.745   2.895
88380W        W56743   7.176  12.293   0.776
88381W        W56744   0.789  13.293  11.086
88382W        W56745  16.091  12.670   4.159
88383W        W56746  20.562  24.215   4.134
88384W        W56747  24.115   3.304  13.345
88385W        W56748   8.765   0.252   4.322
88386W        W56749  25.688  44.436   0.954
88387W        W56750  22.700  35.868   4.832
88388W        W56751  17.076  38.565   0.473
88389W        W56752  20.735  13.172   3.202
88390W        W56753  16.704  38.877   0.335
88391W        W56754  10.227  25.475   0.322
88392W        W56755  23.539  35.582  11.563
88393W        W56756  11.754  37.068   4.792
88394W        W56757   5.293  19.116  10.888
88395W        W56758  10.637  16.682  13.794
88396W        W56759  25.152  24.209   3.222
88397W        W56760  35.963  25.564  13.337
88398W        W56761   7.877  19.570  12.885
88399W        W56762  38.505   0.754  14.509
88400W        W56763  25.016  44.989  10.450
88401W        W56764  23.671  16.233   3.767
88402W        W56765   1.894  25.210   4.175
88403W        W56766  42.959  17.601  10.950
88404W        W56767  26.191   2.428   3.334
88405W        W56768  18.224  33.512  14.314
88406W        W56769   7.186  44.948  13.330
88407W        W56770  41.437  26.119  14.877
88408W        W56771  39.018  26.682  11.504
88409W        W56772  31.134  22.632   2.368
88410W        W56773  42.877  35.924  14.919
88411W        W56774  31.028  37.076   3.285
88412W        W56775   5.378   9.770   1.820
88413W        W56776   3.379  25.158  13.395
88414W        W56777  17.120  44.284  11.885
88415W        W56778  40.938  15.190  10.574
88416W        W56779  10.671  37.461  14.281
88417W        W56780  35.947  44.947  12.007
88418W        W56781   2.331  42.883   5.122
88419W        W56782  34.532  43.944  11.055
88420W        W56783  12.692  34.078   4.689
88421W        W56784   3.335  35.444   1.867
88422W        W56785  15.785   7.385   1.722
88423W        W56786  41.873   9.380   3.735
88424W        W56787   3.296   9.266  10.946
88425W        W56788   7.306  31.513   4.138
88426W        W56789   7.903   7.780   4.193
88427W        W56790  25.999  20.643   2.297
88428W        W56791  44.888  35.943  11.395
88429W        W56792   8.820  12.281   2.245
88430W        W56793   4.255  17.207  13.043
88431W        W56794  37.503  14.156  12.384
88432W        W56795  44.447  21.649  14.029
88433W        W56796  21.700  27.169  14.445
88434W        W56797  21.551  30.480  13.056
88435W        W56798  14.263  24.999  11.019
88436W        W56799  25.068   8.222  13.965
88437W        W56800  24.000  42.520  12.013
88438W        W56801   5.930   1.898   3.161
88439W        W56802  14.267  24.218  12.005
88440W        W56803  29.974  35.404   3.238
88441W        W56804  30.984  41.897   2.225
88442W        W56805  31.595   0.445  12.491
88443W        W56806   0.322  29.542  13.538
88444W        W56807   6.259  28.055  10.012
88445W        W56808   4.205  18.633   4.320
88446W        W56809   7.207   9.851  13.540
88447W        W56810  11.280  44.756   3.310
88448W        W56811  39.024  10.273  12.551
88449W        W56812  16.787  24.535   1.323
88450W        W56813  10.774  43.308  13.792
88451W        W56814  20.551   4.222   3.760
88452W        W56815   3.739  44.444  13.962
88453W        W56816  14.631  17.660   3.199
88454W        W56817  39.946  26.532   1.835
88455W        W56818  14.175  44.494  13.063
88456W        W56819   5.401  26.058  11.408
88457W        W56820  10.671   1.871  13.520
88458W        W56821  14.218  10.779   4.175
88459W        W56822   1.845  34.873  12.005
88460W        W56823  28.942  19.779  13.899
88461W        W56824   0.286  42.917  10.026
88462W        W56825  24.614   4.852  11.536
88463W        W56826  31.132  34.098   3.643
88464W        W56827  43.923  30.913   3.753
88465W        W56828  14.160  39.045  12.912
88466W        W56829  30.952   5.707   4.807
88467W        W56830  16.676  40.501   3.787
88468W        W56831   2.922  11.151  11.012
88469W        W56832  37.558  22.106  14.461
88470W        W56833  29.525  28.936  13.001
88471W        W56834   3.257  12.149   1.729
88472W        W56835  21.116  36.865  13.841
88473W        W56836  27.082  38.968  11.557
88474W        W56837  12.159  41.890   1.268
88475W        W56838  42.850  28.658  13.871
88476W        W56839  33.583  43.943   1.882
88477W        W56840  17.104   3.272  10.153
88478W        W56841  39.841  10.704   1.818
88479W        W56842  23.168  11.807   3.303
88480W        W56843   8.188  22.502  11.598
88481W        W56844  36.542   1.762   1.901
88482W        W56845  29.589  39.376  14.865
88483W        W56846  34.872  35.440  11.590
88484W        W56847  31.929  40.980  12.082
88485W        W56848  23.189  15.805   3.771
88486W        W56849   4.415  22.624  12.959
88487W        W56850  34.032   6.233   1.278
88488W        W56851   1.273  10.760  14.883
88489W        W56852   2.806  41.485  11.049
88490W        W56853   6.191  34.441  11.425
88491W        W56854   9.679  25.009  10.516
88492W        W56855  26.585  16.234  14.907
88493W        W56856  30.560   1.884  11.997
88494W        W56857   3.411   7.375   0.871
88495W        W56858  42.301  24.643  12.507
88496W        W56859  22.681  27.069  11.118
88497W        W56860  32.398  44.865   0.855
88498W        W56861   6.741   6.185   3.632
88499W        W56862  40.493  29.097  13.023
88500W        W56863  40.818  14.653   0.838
88501W        W56864  33.002   3.321   4.168
88502W        W56865  22.239  40.854   0.813
88503W        W56866  36.445   5.221  13.442
88504W        W56867  19.592  13.814   2.831
88505W        W56868  26.615  33.594   4.707
88506W        W56869  31.581  39.062   3.220
88507W        W56870  39.408  26.119  14.507
88508W        W56871   3.835  24.139  14.325
88509W        W56872  38.819  15.239  12.022
88510W        W56873  15.591  36.883   1.731
88511W        W56874  44.791   7.743   0.361
88512W        W56875  15.603  23.524   4.653
88513W        W56876  31.467  24.024   3.358
88514W        W56877  32.052  36.558   1.225
88515W        W56878  15.267  19.565   0.922
88516W        W56879  33.074  32.127  14.967
88517W        W56880  19.101  12.613  10.530
88518W        W56881  24.552  23.654   2.720
88519W        W56882  37.460  13.774   5.784
88520W        W56883  13.313  35.401   4.613
88521W        W56884  21.712  16.785   1.782
88522W        W56885  13.620  14.326  13.369
88523W        W56886   5.862  21.193  14.313
88524W        W56887  24.222  21.192  11.447
88525W        W56888  42.858  35.513   9.439
88526W        W56889  29.608  19.599  13.903
88527W        W56890  26.150   8.291   4.217
88528W        W56891  12.648  21.142   0.265
88529W        W56892  36.094  26.629  13.499
88530W        W56893   9.709  10.255  12.579
88531W        W56894  29.167  38.351   3.710
88532W        W56895   2.821  20.651  14.906
88533W        W56896  41.524  17.292  14.989
88534W        W56897  11.725  23.566  14.358
88535W        W56898  30.626  35.064  14.937
88536W        W56899  17.099  17.070   5.697
88537W        W56900  14.296  40.845  14.399
88538W        W56901  14.748  13.809  12.515
88539W        W56902  12.798  10.653   4.209
88540W        W56903  20.571  14.146  11.430
88541W        W56904  22.597  27.487   1.879
88542W        W56905  39.355  18.140   2.776
88543W        W56906  28.120  38.416   1.745
88544W        W56907   3.858   8.350   2.803
88545W        W56908  26.694  11.371  11.512
88546W        W56909  41.498  36.074   1.700
88547W        W56910   1.327  25.478  14.481
88548W        W56911  25.216  16.319   1.766
88549W        W56912   1.742   0.402  12.960
88550W        W56913  40.422  12.623  10.949
88551W        W56914  19.041  17.586  14.330
88552W        W56915  10.732  16.768   0.733
88553W        W56916  22.592  14.792  13.892
88554W        W56917   6.392  15.810   0.821
88555W        W56918   5.810  40.397   4.243
88556W        W56919  10.765   1.759  11.524
88557W        W56920   4.364  17.585  12.998
88558W        W56921  14.756  21.629  14.007
88559W        W56922   0.391   1.859   0.753
88560W        W56923  15.108   4.787   0.953
88561W        W56924  28.639  17.222  12.471
88562W        W56925  33.011  43.835  14.848
88563W        W56926  23.241  39.532   0.409
88564W        W56927  40.385  12.645   4.816
88565W        W56928  42.960  27.587   1.913
88566W        W56929  37.855   2.750  14.926
88567W        W56930  24.060  30.932  11.965
88568W        W56931  31.965  36.515  13.986
88569W        W56932  13.617  33.875   2.226
88570W        W56933   0.260  35.999   1.425
88571W        W56934  17.741  14.779  10.911
88572W        W56935  27.125  14.144   3.745
88573W        W56936  37.046  13.735  11.471
88574W        W56937  24.593   0.942  11.985
88575W        W56938  41.813  10.374  11.042
88576W        W56939   0.349  26.022   0.956
88577W        W56940  11.718  17.626   1.887
88578W        W56941  17.602  39.900  11.409
88579W        W56942  26.695  35.866   2.288
88580W        W56943  36.505  10.189  12.048
88581W        W56944  39.986  31.416  10.921
88582W        W56945   5.207   5.369   3.155
88583W        W56946  29.536  33.523   5.273
88584W        W56947  27.619   0.410   3.714
88585W        W56948  18.134  18.058   3.173
88586W        W56949  26.689  14.094   2.689
88587W        W56950   3.727   8.820   4.772
88588W        W56951  16.284  21.674  11.487
88589W        W56952   5.259  15.804   2.741
88590W        W56953  44.463  25.468   4.614
88591W        W56954  35.866  32.060   0.901
88592W        W56955  22.198  13.133  12.063
88593W        W56956  42.881  36.042  13.371
88594W        W56957   0.988   6.258   0.330
88595W        W56958  16.708   4.399   4.732
88596W        W56959  13.636  23.140  14.763
88597W        W56960  40.928   6.244   2.180
88598W        W56961  44.963  18.619  10.048
88599W        W56962   7.671  10.818   2.721
88600W        W56963  42.972   1.452   1.354
88601W        W56964  10.355   1.939  12.883
88602W        W56965   8.676  37.447  11.459
88603W        W56966   1.251  34.053  13.532
88604W        W56967  17.718  33.893  10.405
88605W        W56968   9.156  18.787  13.425
88606W        W56969  35.979  30.116   0.340
88607W        W56970  13.789   9.840  11.374
88608W        W56971  27.674  30.477   3.297
88609W        W56972  40.007   1.438  12.092
88610W        W56973  44.411  10.698  11.417
88611W        W56974  13.831  19.580  14.344
88612W        W56975  21.150  36.877   3.219
88613W        W56976  13.222   2.903  14.820
88614W        W56977   8.763  24.658   2.674
88615W        W56978  26.486  27.449   3.793
88616W        W56979  33.466  34.457   0.876
88617W        W56980  12.676  28.068  14.327
88618W        W56981  31.605  38.498  12.978
88619W        W56982  14.627   1.482  12.391
88620W        W56983  25.028  34.982  12.528
88621W        W56984   5.203  34.056  13.496
88622W        W56985  11.748  32.410  11.935
88623W        W56986   9.718  27.196   4.164
88624W        W56987  44.805  27.080  12.382
88625W        W56988  29.159  26.136  11.087
88626W        W56989  23.570  12.335   3.164
88627W        W56990  24.517  30.060   4.728
88628W        W56991   3.737   3.231  13.036
88629W        W56992   8.208   6.368   2.253
88630W        W56993  32.466  10.794  13.409
88631W        W56994   3.738  36.528  12.957
88632W        W56995  15.765  25.173  11.041
88633W        W56996  16.596  14.224  13.512
88634W        W56997   1.346  40.026   2.282
88635W        W56998  28.978   1.853  13.944
88636W        W56999  18.118  14.275   3.177
88637W        W57000  10.208  20.678  13.445
88638W        W57001   5.377   0.801   9.958
88639W        W57002  10.140  22.082   1.719
88640W        W57003  40.007  14.106  11.577
88641W        W57004  15.617  11.310   3.159
88642W        W57005  37.337  19.734  13.385
88643W        W57006  32.106  33.128  14.459
88644W        W57007  44.941   3.928  12.930
88645W        W57008  39.521  39.525   0.787
88646W        W57009  15.756  25.972  12.886
88647W        W57010  29.498  26.118  12.899
88648W        W57011  31.145  11.748  13.993
88649W        W57012   2.806   6.912   4.242
88650W        W57013  29.452  41.994  14.497
88651W        W57014   5.804  33.926  14.276
88652W        W57015   2.447  34.110   1.384
88653W        W57016  24.721  24.170  10.615
88654W        W57017  34.964  44.974  13.430
88655W        W57018   0.318  44.400   3.230
88656W        W57019  32.979  24.210  12.852
88657W        W57020   6.687  41.948  14.422
88658W        W57021  19.579  30.920  12.432
88659W        W57022  16.787  30.426  14.456
88660W        W57023  35.530  21.023  10.974
88661W        W57024  35.957   6.867  10.956
88662W        W57025   9.172   2.805  13.431
88663W        W57026  38.341   2.451   1.247
88664W        W57027  41.917  15.665   4.692
88665W        W57028   7.843  13.207   4.628
88666W        W57029  27.080  33.491   4.346
88667W        W57030  10.270  26.649  13.310
88668W        W57031  26.489  44.386   4.163
88669W        W57032  30.517  43.327  14.879
88670W        W57033  28.095  29.999  14.779
88671W        W57034  21.549   5.722   1.793
88672W        W57035  26.122  26.105  11.911
88673W        W57036  30.592  13.282   4.712
88674W        W57037  42.837  40.362   0.957
88675W        W57038  35.006  23.016   4.637
88676W        W57039  28.158  42.485  14.819
88677W        W57040  18.106  35.395   3.640
88678W        W57041  43.941  13.347  11.567
88679W        W57042  17.720   1.908  14.901
88680W        W57043  27.022  29.426  13.323
88681W        W57044  23.036   5.342   1.873
88682W        W57045  35.090  34.545   1.377
88683W        W57046  41.031  27.603  11.486
88684W        W57047  21.244  38.425  11.533
88685W        W57048   1.922   7.793   1.716
88686W        W57049   1.329  23.646   4.330
88687W        W57050   3.861   8.672   3.826
88688W        W57051  26.619  19.242  11.862
88689W        W57052  10.192  28.041   3.705
88690W        W57053  20.102  22.735   0.255
88691W        W57054  36.461  38.421  12.840
88692W        W57055  19.107   3.819  11.108
88693W        W57056  39.812  42.395   0.842
88694W        W57057  42.872  42.876   4.324
88695W        W57058   3.387  10.159   1.430
88696W        W57059  40.918   6.370   3.384
88697W        W57060  34.434  20.703   4.299
88698W        W57061   8.821  34.389   4.173
88699W        W57062   6.185  23.056  13.501
88700W        W57063  42.526  43.472   0.479
88701W        W57064  17.716  38.344  12.526
88702W        W57065  31.954  44.861   0.878
88703W        W57066  11.351  37.525  14.439
88704W        W57067  31.552  22.151  12.381
88705W        W57068  36.351  11.636   1.219
88706W        W57069  19.718   0.876   0.851
88707W        W57070  42.951  38.863  11.496
88708W        W57071  30.454   5.740  11.090
88709W        W57072  41.033   1.433  13.915
88710W        W57073  24.673  31.423   1.749
88711W        W57074  34.411  39.505  10.928
88712W        W57075  29.023  11.213   1.732
88713W        W57076  38.428  30.069   2.760
88714W        W57077  12.156  44.977   2.757
88715W        W57078   7.672  38.006   0.827
88716W        W57079  40.009  11.211   0.732
88717W        W57080  22.610  38.353   3.740
88718W        W57081  30.059   0.284   4.714
88719W        W57082  11.660   2.786   1.863
88720W        W57083   8.695  19.097   3.682
88721W        W57084  22.534  35.898   0.926
88722W        W57085  38.059  28.489   0.926
88723W        W57086  11.324  33.474  13.528
88724W        W57087   4.822   1.274   0.405
88725W        W57088  30.466   9.650  14.838
88726W        W57089  43.303  27.946  13.480
88727W        W57090   7.706  14.097   1.256
88728W        W57091   0.969   6.712   2.237
88729W        W57092  24.549   6.794  14.817
88730W        W57093  39.905  37.839  12.382
88731W        W57094  22.105  26.599   2.250
88732W        W57095  22.668   3.442  10.575
88733W        W57096  22.633   6.234   1.251
88734W        W57097  20.659   5.407   0.259
88735W        W57098   4.771   5.907  10.121
88736W        W57099   5.317  33.984  13.846
88737W        W57100  27.157  29.574   1.245
88738W        W57101  27.103  35.515  13.046
88739W        W57102  31.971  35.983  11.969
88740W        W57103  15.253  42.796  14.771
88741W        W57104  30.618  42.431  12.389
88742W        W57105  12.201  19.282   4.206
88743W        W57106   8.723  15.199   2.287
88744W        W57107  36.939  18.693  11.922
88745W        W57108  12.180  22.570   3.205
88746W        W57109  29.165  15.770  12.398
88747W        W57110  12.299  12.828   0.374
88748W        W57111  36.064  21.655  10.563
88749W        W57112  18.076   7.744  12.367
88750W        W57113  19.569  29.090   0.404
88751W        W57114   4.845  13.642  11.582
88752W        W57115   5.925   8.167   2.824
88753W        W57116  17.186  33.987  10.066
88754W        W57117   6.770  18.563   1.403
88755W        W57118  13.825   6.734   4.666
88756W        W57119   7.881  43.348   1.758
88757W        W57120  21.095  43.937   3.218
88758W        W57121  24.120  23.198  10.408
88759W        W57122  38.533   2.745   4.774
88760W        W57123   4.373  19.576  11.962
88761W        W57124  10.698  14.618  13.866
88762W        W57125   5.888   7.872   2.666
88763W        W57126  32.106  23.603   3.359
88764W        W57127  39.553  26.028  11.962
88765W        W57128  30.429   3.444  11.076
88766W        W57129   0.760  22.106  14.953
88767W        W57130  28.585   7.703   4.334
88768W        W57131  39.500  38.356  10.583
88769W        W57132   9.739  14.762   0.790
88770W        W57133  27.027   6.368  13.929
88771W        W57134  15.255  22.661  10.613
88772W        W57135   0.874  27.677   4.149
88773W        W57136  33.532  11.780   1.878
88774W        W57137  39.820   4.826  12.008
88775W        W57138  31.933  24.055   2.755
88776W        W57139  34.113   1.267   2.713
88777W        W57140  28.566  35.425   0.385
88778W        W57141   0.900  26.197   4.130
88779W        W57142  44.868  23.680   3.314
88780W        W57143  29.654  39.004   3.772
88781W        W57144  35.399  33.996  10.998
88782W        W57145  32.467  33.470  13.414
88783W        W57146  30.492  28.082  10.100
88784W        W57147  13.809   5.844  12.418
88785W        W57148  24.541  38.339   2.308
88786W        W57149   5.348  38.912   4.327
88787W        W57150  11.249  17.150  14.386
88788W        W57151   5.287  25.126  11.390
88789W        W57152  32.020  10.303  10.464
88790W        W57153   7.697   4.931  10.103
88791W        W57154  25.548   0.420  12.403
88792W        W57155  38.046  24.494   3.648
88793W        W57156  24.505  27.100   4.313
88794W        W57157   0.453  11.746   3.251
88795W        W57158   0.827  37.047   1.350
88796W        W57159  29.507  14.695  12.885
88797W        W57160   9.769   7.753  13.846
88798W        W57161  26.687   2.832   4.280
88799W        W57162  34.885  27.643  12.004
88800W        W57163   0.297   9.751  14.428
88801W        W57164  44.398  39.431   2.357
88802W        W57165   9.380  43.348  11.944
88803W        W57166  12.635  39.025   5.247
88804W        W57167  44.845  24.184   3.695
88805W        W57168  24.202  16.178  13.865
88806W        W57169  44.313  37.970  14.870
88807W        W57170  16.763  41.033   1.399
88808W        W57171  39.357  39.957   1.813
88809W        W57172  32.548  30.038   1.442
88810W        W57173   1.397  35.057   1.423
88811W        W57174  36.024  27.484   3.848
88812W        W57175  35.030  38.932  13.360
88813W        W57176  36.422   9.745   4.641
88814W        W57177  37.540  37.336  14.340
88815W        W57178   0.958   4.745   0.330
88816W        W57179  10.254  24.140  11.978
88817W        W57180  34.455  30.640  14.320
88818W        W57181  36.886  36.915  14.332
88819W        W57182  35.500  37.441   1.907
88820W        W57183  20.218  35.030  13.370
88821W        W57184  32.552  39.940  11.017
88822W        W57185  22.161  28.938   2.236
88823W        W57186  41.364   0.261  12.497
88824W        W57187  29.965  43.789   0.762
88825W        W57188   2.915  24.207   1.725
88826W        W57189  44.840  17.601   1.760
88827W        W57190   9.763  19.108   4.777
88828W        W57191  25.206  14.594  10.054
88829W        W57192   7.206  38.463  11.451
88830W        W57193  41.427  25.523   5.229
88831W        W57194  42.916  17.780   4.310
88832W        W57195  28.642  30.018  10.490
88833W        W57196   1.956  31.524  12.403
88834W        W57197   4.923  27.022  14.936
88835W        W57198  26.119  16.783  14.982
88836W        W57199  33.959  26.983   4.287
88837W        W57200  16.285  43.864   5.638
88838W        W57201   9.764  25.994  11.117
88839W        W57202   1.319  30.929  12.957
88840W        W57203  43.382  25.480   1.813
88841W        W57204  22.544  16.291  12.562
88842W        W57205  38.437  34.493  14.447
88843W        W57206   6.905   5.698  10.619
88844W        W57207  38.870  38.559   1.251
88845W        W57208  19.649  12.781   2.375
88846W        W57209  29.128  28.613  13.009
88847W        W57210   1.872  41.875  12.069
88848W        W57211  39.475   8.224  13.409
88849W        W57212   1.850  12.118   3.190
88850W        W57213  15.306  18.115   1.270
88851W        W57214  43.987  14.734   2.781
88852W        W57215  25.176   5.321  12.015
88853W        W57216   2.400   7.839   2.280
88854W        W57217  43.776   8.673  10.510
88855W        W57218  27.455  21.698   4.829
88856W        W57219  43.504  34.392   0.748
88857W        W57220  35.994  11.186   5.260
88858W        W57221  21.618  28.464  10.892
88859W        W57222  18.258  34.874  10.473
88860W        W57223  21.720  21.081   3.704
88861W        W57224  43.408   9.726  12.494
88862W        W57225   3.432   8.285  14.453
88863W        W57226  41.531  24.626   1.852
88864W        W57227  33.057  26.079   1.294
88865W        W57228  10.795   5.405   4.338
88866W        W57229   3.747  25.124  12.851
88867W        W57230  39.855  40.826  10.455
88868W        W57231  26.490   0.894  12.853
88869W        W57232  13.150  31.049   0.412
88870W        W57233  44.793   4.928  13.507
88871W        W57234  32.444  41.386  13.396
88872W        W57235  39.350   8.406  12.553
88873W        W57236  17.068  39.413  10.527
88874W        W57237  32.045  21.170  10.574
88875W        W57238  34.931   9.810  14.996
88876W        W57239  24.559  39.903   1.284
88877W        W57240   8.322  14.259  12.919
88878W        W57241   3.719  10.185   0.330
88879W        W57242  33.399  42.026  13.871
88880W        W57243   2.422  24.198  12.874
88881W        W57244  24.022   7.385   3.331
88882W        W57245  32.109  35.105   1.425
88883W        W57246   4.386  28.529  13.001
88884W        W57247  36.885   2.368  11.535
88885W        W57248  19.627   4.833   3.214
88886W        W57249  36.358  12.314  14.354
88887W        W57250  22.532   5.774  12.028
88888W        W57251  13.706  18.062   2.664
88889W        W57252  18.783   7.778   3.849
88890W        W57253  34.087  19.695  10.548
88891W        W57254  16.312  19.198   9.605
88892W        W57255  16.610  19.042   0.861
88893W        W57256  40.932  40.911   4.722
88894W        W57257  26.952  42.494  13.049
88895W        W57258  12.788   3.906  11.083
88896W        W57259  17.603  21.106  14.007
88897W        W57260  18.650  29.937   2.212
88898W        W57261  21.513  23.515   1.345
88899W        W57262  10.637  29.598  14.809
88900W        W57263   3.932   4.909  14.830
88901W        W57264  21.127   1.927   0.958
88902W        W57265  27.966  12.817  12.078
88903W        W57266  21.591   6.726  13.501
88904W        W57267  24.724  39.445  12.484
88905W        W57268   3.939  30.571  10.973
88906W        W57269  10.191  11.133   2.791
88907W        W57270  19.114  37.385   4.122
88908W        W57271  16.267  43.928   5.134
88909W        W57272  10.676  22.513   3.268
88910W        W57273   3.853  11.772  10.518
88911W        W57274  37.467  38.060   0.824
88912W        W57275  36.356  21.537  13.952
88913W        W57276   8.732  16.235   2.830
88914W        W57277  39.522  21.687  13.956
88915W        W57278  32.481  44.453   5.252
88916W        W57279  42.922  39.988  11.985
88917W        W57280  14.742   3.310  11.597
88918W        W57281  33.069  11.277   4.312
88919W        W57282  29.022  40.812   4.701
88920W        W57283  35.967  12.329   1.800
88921W        W57284   3.874  24.493   1.320
88922W        W57285  25.154   1.922  12.858
88923W        W57286  23.123  22.512   0.749
88924W        W57287  34.994  25.660  12.513
88925W        W57288  44.312  43.930  13.434
88926W        W57289  17.743  11.788  12.358
88927W        W57290  15.177  18.244   4.249
88928W        W57291  10.359   1.971   4.278
88929W        W57292  32.080  38.507   5.104
88930W        W57293  14.590  14.138   4.303
88931W        W57294  16.719   5.793  10.438
88932W        W57295  11.207  34.870   3.714
88933W        W57296  16.140  33.609   3.387
88934W        W57297   9.797  24.992  11.408
88935W        W57298   7.865  40.852  13.407
88936W        W57299  44.272  31.636   2.811
88937W        W57300   4.879  42.956   2.826
88938W        W57301  20.168  43.842   2.891
88939W        W57302  30.428  32.912   3.827
88940W        W57303  44.770   8.764   1.225
88941W        W57304  35.997   1.244   1.327
88942W        W57305  18.653  44.865  10.448
88943W        W57306  41.932  31.034  13.328
88944W        W57307  12.130   6.390  11.561
88945W        W57308  33.508  44.918   3.289
88946W        W57309  12.781  17.627  12.342
88947W        W57310  17.202  34.033   0.319
88948W        W57311  10.204  39.423  14.005
88949W        W57312  32.555   4.912  14.450
88950W        W57313  13.768  41.441   2.391
88951W        W57314  23.514  11.163  14.772
88952W        W57315  41.408  32.130  10.462
88953W        W57316   0.416  38.342   0.281
88954W        W57317  40.004  42.832   2.406
88955W        W57318  43.464  35.963  13.384
88956W        W57319  33.023  35.879   3.718
88957W        W57320  22.020  20.685  13.875
88958W        W57321  13.213  14.706   1.797
88959W        W57322  25.119  34.907  10.615
88960W        W57323   7.670  33.883   0.856
88961W        W57324  19.138  38.925  11.049
88962W        W57325  31.963  15.754  11.387
88963W        W57326  13.655  12.610  10.897
88964W        W57327  30.508  11.664  14.306
88965W        W57328  32.941  12.732   3.736
88966W        W57329   3.404   7.413  13.369
88967W        W57330  37.832  25.598  13.909
88968W        W57331   5.770  14.729   0.794
88969W        W57332  21.092  27.593  10.463
88970W        W57333  11.350  20.260   4.126
88971W        W57334   4.435   0.791  14.311
88972W        W57335  41.339  13.608  11.473
88973W        W57336  40.986  26.535  13.001
88974W        W57337   4.205  38.393  10.618
88975W        W57338   0.292  36.418   2.321
88976W        W57339  11.750  21.212   2.752
88977W        W57340  25.190  38.000  10.411
88978W        W57341  15.675  23.537   2.293
88979W        W57342  35.415  34.037   0.471
88980W        W57343  41.956  36.428   2.796
88981W        W57344  12.324  24.609   4.351
88982W        W57345  42.299  33.424   1.742
88983W        W57346  21.715  27.072  13.464
88984W        W57347  33.479   2.902   1.781
88985W        W57348   1.356  23.225   9.972
88986W        W57349   3.915   7.265  10.543
88987W        W57350  27.463  41.795   2.841
88988W        W57351   1.405  34.590   0.776
88989W        W57352  25.658  15.700   1.301
88990W        W57353   9.818  11.641  12.912
88991W        W57354  38.822  39.984   4.822
88992W        W57355  26.057  12.740  12.828
88993W        W57356  26.149  19.751  12.064
88994W        W57357   5.727   8.852   2.738
88995W        W57358   2.386  26.497   1.903
88996W        W57359  25.197  29.973  13.953
88997W        W57360  43.979   0.835  11.474
88998W        W57361  40.979  28.073  13.003
88999W        W57362   4.326   6.730   4.269
89000W        W57363  36.935  31.977   2.316
89001W        W57364  13.346  27.583  12.555
89002W        W57365  33.591  24.546   2.346
89003W        W57366  41.027  34.529   3.378
89004W        W57367  41.444  27.981   4.286
89005W        W57368   7.772  43.407   2.205
89006W        W57369  35.994  23.163   1.390
89007W        W57370  30.511  27.955   3.682
89008W        W57371  30.934  37.432  14.419
89009W        W57372  41.512  13.690  12.548
89010W        W57373   4.877  17.618   2.329
89011W        W57374  20.265  22.210  12.005
89012W        W57375   3.892  10.266  11.859
89013W        W57376  27.521  18.749   3.716
89014W        W57377   2.945  22.640   1.273
89015W        W57378   7.321  41.848   0.758
89016W        W57379  23.066   5.417  10.645
89017W        W57380  29.473  39.897   2.884
89018W        W57381  20.538   8.386  10.618
89019W        W57382  22.233  38.342   4.213
89020W        W57383  34.962   2.736   2.894
89021W        W57384  29.654   3.228   0.836
89022W        W57385  13.646   8.197  11.040
89023W        W57386   6.763  32.061   0.456
89024W        W57387  33.466  12.703   4.822
89025W        W57388  24.601  14.783  14.798
89026W        W57389  41.033  39.419   1.855
89027W        W57390   3.399   5.253   3.315
89028W        W57391  36.919  24.677   3.693
89029W        W57392  16.750  32.987   4.753
89030W        W57393  39.870  18.558  12.498
89031W        W57394   2.940  13.824   4.803
89032W        W57395  16.588  30.493   0.307
89033W        W57396   2.789  32.079  11.444
89034W        W57397  41.396  36.952   0.245
89035W        W57398  32.616  32.458  11.994
89036W        W57399  26.478   4.828   3.376
89037W        W57400  14.252  24.666  12.522
89038W        W57401  30.595  30.534  13.828
89039W        W57402   4.223   1.466  13.322
89040W        W57403  37.360  35.528   4.796
89041W        W57404  15.230  34.389  10.910
89042W        W57405  14.607   9.209  14.446
89043W        W57406  34.606  39.452   0.883
89044W        W57407  21.108   7.250   0.943
89045W        W57408  23.507  17.593   0.824
89046W        W57409   6.420   4.876  11.536
89047W        W57410  39.909  23.608   3.234
89048W        W57411  13.277  42.816   5.085
89049W        W57412  30.966   4.836   4.632
89050W        W57413  29.125  40.476  12.973
89051W        W57414  37.018  38.566   2.799
89052W        W57415  22.189  38.389   2.312
89053W        W57416  31.994  14.752   3.852
89054W        W57417  42.512   5.903   0.443
89055W        W57418  14.253  32.515   4.764
89056W        W57419   3.881  17.073  14.338
89057W        W57420  29.464   5.889  11.039
89058W        W57421  34.076  41.842   1.696
89059W        W57422  42.936  33.524   5.318
89060W        W57423  30.645  18.212  11.535
89061W        W57424  34.510  20.609   4.600
89062W        W57425  18.118   3.422   3.168
89063W        W57426   6.190  39.409   3.635
89064W        W57427  35.535   0.493   4.309
89065W        W57428  41.399   4.390  13.859
89066W        W57429  25.125  29.561   1.228
89067W        W57430  14.603   6.873   4.270
89068W        W57431  12.340  42.491   1.712
89069W        W57432  31.956   8.673  14.285
89070W        W57433  31.947  22.069   3.636
89071W        W57434  35.420  21.692   0.319
89072W        W57435  34.566  18.152   0.851
89073W        W57436   1.399  33.393  12.056
89074W        W57437   9.323   9.779  10.598
89075W        W57438   7.316   9.761  10.436
89076W        W57439  43.270  39.933  13.326
89077W        W57440   6.350  36.952   3.853
89078W        W57441  24.006  11.862   1.863
89079W        W57442  31.645  13.163   1.255
89080W        W57443  32.599  42.797  11.941
89081W        W57444   0.986   8.334  12.467
89082W        W57445  17.242   3.225   2.694
89083W        W57446  17.633  21.647  14.486
89084W        W57447   7.326  35.001  11.613
89085W        W57448  23.167   7.387  10.423
89086W        W57449  32.576   0.476   1.388
89087W        W57450   5.200   6.331   1.276
89088W        W57451  43.299  44.845   2.839
89089W        W57452  24.525  27.978  13.458
89090W        W57453  20.596  30.948  13.376
89091W        W57454  44.835  37.465   1.764
89092W        W57455  15.312  30.979  11.493
89093W        W57456  29.033  35.409   4.227
89094W        W57457  26.583  34.589   1.714
89095W        W57458  10.191  32.560  10.602
89096W        W57459  13.838  42.408  14.841
89097W        W57460  16.781   9.671  13.881
89098W        W57461  27.685  13.240   4.613
89099W        W57462   8.825   3.404  11.936
89100W        W57463   3.392  18.628  10.909
89101W        W57464  18.098   4.699  14.976
89102W        W57465  41.790  44.442   0.912
89103W        W57466  39.915   3.414   3.259
89104W        W57467  40.422  36.965   3.269
89105W        W57468  10.283   6.904  10.534
89106W        W57469  22.610  38.394   2.897
89107W        W57470  13.673  32.479  11.957
89108W        W57471   1.769  18.206  13.046
89109W        W57472  32.137  22.232   1.769
89110W        W57473  23.179  15.097   3.723
89111W        W57474  29.007  25.016   3.287
89112W        W57475  37.005  40.969  13.857
89113W        W57476   8.206  36.567   0.244
89114W        W57477  33.584  24.217  12.550
89115W        W57478  34.917  28.963  11.483
89116W        W57479   3.748  44.452  12.916
89117W        W57480  25.587   1.305   1.408
89118W        W57481  10.314  31.022   5.283
89119W        W57482  26.607  25.968  13.810
89120W        W57483  35.547   7.199   4.215
89121W        W57484  15.615  14.611   0.879
89122W        W57485   9.231   0.388  11.990
89123W        W57486   0.466  20.711   1.895
89124W        W57487   7.332  31.916   9.969
89125W        W57488  30.582  33.531  12.566
89126W        W57489  16.659  17.713  11.109
89127W        W57490  20.715  14.276   3.724
89128W        W57491  38.912   3.898   4.113
89129W        W57492   9.671  37.429  10.974
89130W        W57493  18.209  36.053   4.206
89131W        W57494  20.156   9.852   2.319
89132W        W57495  28.982  14.207   4.237
89133W        W57496  11.142  20.175   0.319
89134W        W57497  14.650  34.022  14.896
89135W        W57498  21.599  42.796  10.906
89136W        W57499  43.804  44.819  11.074
89137W        W57500  22.119  25.999  13.414
89138W        W57501  27.638  10.330  11.065
89139W        W57502  12.202  36.867   1.761
89140W        W57503   4.316  37.869   0.821
89141W        W57504   2.291  23.683   4.640
89142W        W57505  27.546  35.931  13.906
89143W        W57506  17.594  41.821  10.529
89144W        W57507  40.040   8.265   3.311
89145W        W57508   4.340  14.633   4.667
89146W        W57509  29.949   1.950   0.868
89147W        W57510  31.543  19.586  10.915
89148W        W57511   6.833   3.777   0.352
89149W        W57512  19.203  36.081  14.420
89150W        W57513   8.215   6.831  11.919
89151W        W57514  19.690  29.061  11.540
89152W        W57515  28.054  36.531   1.805
89153W        W57516   4.841   3.358  11.561
89154W        W57517  40.354  20.186  12.864
89155W        W57518  29.073   9.236   0.378
89156W        W57519  26.189   6.383  14.383
89157W        W57520   1.441  36.023  14.008
89158W        W57521  26.652  33.400   3.272
89159W        W57522  44.868  10.369   2.196
89160W        W57523  28.599  41.984  14.456
89161W        W57524   3.226   0.333   2.299
89162W        W57525  30.633  29.578   3.817
89163W        W57526  43.352  23.079  14.815
89164W        W57527  15.665  27.089   2.278
89165W        W57528  25.050  27.046   3.754
89166W        W57529  23.617  20.631   2.801
89167W        W57530  26.101  17.227   5.109
89168W        W57531  17.213  42.854  14.287
89169W        W57532  12.830  25.063   0.833
89170W        W57533  10.733  24.643   2.877
89171W        W57534  42.027  16.741   1.716
89172W        W57535  12.740   5.237  13.519
89173W        W57536  14.758  35.075  13.042
89174W        W57537  17.221  34.934  11.119
89175W        W57538  44.980  44.972  14.303
89176W        W57539  14.167   4.260  12.499
89177W        W57540  16.680  23.075   2.777
89178W        W57541   8.272  15.750  13.910
89179W        W57542  32.947  37.973   2.203
89180W        W57543  32.107  13.724  10.598
89181W        W57544  44.348   0.483  10.004
89182W        W57545  39.864  35.897  13.881
89183W        W57546  22.502  12.813   4.771
89184W        W57547  11.134  16.744  11.452
89185W        W57548  14.758  39.399   0.322
89186W        W57549  30.962  38.460  14.848
89187W        W57550  35.530   7.394   2.689
89188W        W57551  35.556  39.457   1.783
89189W        W57552  17.269  41.031   0.404
89190W        W57553  10.157  28.174   0.863
89191W        W57554  35.024  30.577   1.355
89192W        W57555  33.062  13.781  11.579
89193W        W57556   3.806  39.540   4.636
89194W        W57557  17.066   3.241   3.177
89195W        W57558  25.165  36.005  12.863
89196W        W57559  31.413  31.100  11.896
89197W        W57560  18.218  26.474   3.832
89198W        W57561  43.335  21.070  10.949
89199W        W57562  12.337  23.162  13.856
89200W        W57563  20.191  25.195  10.634
89201W        W57564  39.869  27.682   3.767
89202W        W57565  44.272  27.492  11.895
89203W        W57566  44.422  30.478  12.920
89204W        W57567  25.611  23.602  12.368
89205W        W57568  34.897   8.384  12.536
89206W        W57569  23.172  26.961   0.770
89207W        W57570   8.827  12.841   2.289
89208W        W57571  25.568  12.827   2.409
89209W        W57572  12.687   3.886   1.215
89210W        W57573   2.228  34.866   4.748
89211W        W57574  31.514  12.149  13.909
89212W        W57575  42.327  31.633   4.711
89213W        W57576  35.977   5.879  13.964
89214W        W57577  37.845  22.060  14.347
89215W        W57578  44.001   7.892  13.806
89216W        W57579  23.535  43.769   1.436
89217W        W57580  33.499  22.112  10.029
89218W        W57581   6.886   1.240  11.924
89219W        W57582  12.236   2.880   3.371
89220W        W57583  13.755   4.287  11.030
89221W        W57584  43.799  18.095   3.369
89222W        W57585   1.427  34.509  12.834
89223W        W57586   3.440  27.143   0.313
89224W        W57587  34.418  44.489  13.848
89225W        W57588   2.392  12.231  12.072
89226W        W57589  10.321   5.697   1.797
89227W        W57590  42.988  11.754   4.731
89228W        W57591   9.273   0.425   0.727
89229W        W57592  10.738  19.105   3.246
89230W        W57593  27.053   7.693  11.869
89231W        W57594  20.171  23.140  11.936
89232W        W57595  34.449  37.552   3.732
89233W        W57596  13.629  10.301   0.427
89234W        W57597  43.439  12.783  14.307
89235W        W57598  27.196  32.046   3.712
89236W        W57599  40.336  10.227   0.332
89237W        W57600  15.299  31.923   4.714
89238W        W57601  24.673  10.652  10.616
89239W        W57602  10.267  22.519  13.448
89240W        W57603  14.594   6.890   2.783
89241W        W57604  18.608  16.606   1.422
89242W        W57605  10.259  27.071  10.546
89243W        W57606  31.416  44.437   1.840
89244W        W57607  28.977   9.857  14.907
89245W        W57608   9.718   6.904  11.885
89246W        W57609  12.727  22.532   3.844
89247W        W57610  26.670  33.958   1.743
89248W        W57611  30.041  44.920  11.954
89249W        W57612  11.238  38.871  14.362
89250W        W57613   9.377  25.105   3.380
89251W        W57614   3.753  21.576  13.418
89252W        W57615  34.043  36.378  12.444
89253W        W57616   4.834   8.687   2.814
89254W        W57617  22.216  38.838   0.795
89255W        W57618  40.029  13.673  14.962
89256W        W57619   4.443  44.852  11.035
89257W        W57620  18.077  25.503  14.904
89258W        W57621   4.345  24.595   4.767
89259W        W57622  34.525  33.498   0.321
89260W        W57623  36.353  39.823  10.972
89261W        W57624  38.920   8.707  13.802
89262W        W57625  40.521  39.337   1.910
89263W        W57626   6.866   2.943   3.723
89264W        W57627  35.872  14.814  11.082
89265W        W57628  13.179  24.135   4.165
89266W        W57629  38.461  24.982   3.372
89267W        W57630  32.947  31.079  14.384
89268W        W57631  11.351   7.334  13.858
89269W        W57632  17.139  29.662   0.291
89270W        W57633  22.172  28.966   2.683
89271W        W57634  26.983  27.126   0.319
89272W        W57635  37.525   6.370  11.040
89273W        W57636  38.427  41.492   2.793
89274W        W57637  37.072  27.626   3.768
89275W        W57638   5.791  44.324  13.955
89276W        W57639  30.496  11.713  10.426
89277W        W57640   2.452   1.436   2.776
89278W        W57641  11.636   9.665  11.597
89279W        W57642  29.549   5.912   2.183
89280W        W57643  10.220  30.072  11.007
89281W        W57644  23.696   8.715  14.399
89282W        W57645  21.697  34.421   4.655
89283W        W57646   8.382   2.905  14.952
89284W        W57647  11.623  19.236   3.822
89285W        W57648  22.719   0.411   5.137
89286W        W57649  21.531  35.487   3.778
89287W        W57650  20.197  28.091   3.787
89288W        W57651   0.285  24.124   4.170
89289W        W57652   1.770  38.350  11.530
89290W        W57653  16.591  15.150   4.778
89291W        W57654   6.412  11.215   2.898
89292W        W57655  11.826  37.940   0.328
89293W        W57656  12.207   2.377   4.787
89294W        W57657  14.782  29.565   3.693
89295W        W57658   4.919  37.532  14.431
89296W        W57659  39.355  32.928  10.448
89297W        W57660  35.384  23.590   0.888
89298W        W57661   9.300   5.365   3.300
89299W        W57662  29.948  34.045  14.767
89300W        W57663  36.059  41.958   5.261
89301W        W57664  31.463  41.410  12.415
89302W        W57665   2.760  11.626  14.355
89303W        W57666  17.614  43.501  12.409
89304W        W57667   6.209   6.853  13.990
89305W        W57668   4.395  12.830  12.438
89306W        W57669   4.397  38.551   3.192
89307W        W57670  36.950  20.585  13.412
89308W        W57671  30.635  16.180  10.525
89309W        W57672   5.884  15.757   3.177
89310W        W57673  12.216   4.765   4.142
89311W        W57674  42.324  36.878   4.313
89312W        W57675   6.689  34.461  12.968
89313W        W57676  33.463  35.469   2.740
89314W        W57677  37.507  23.674   4.183
89315W        W57678  41.407  19.638  11.532
89316W        W57679  13.184   1.744   4.690
89317W        W57680  24.125  39.318  14.473
89318W        W57681   9.190  24.615  12.075
89319W        W57682  23.703   0.254  12.983
89320W        W57683  27.461  20.206  13.043
89321W        W57684  44.977   8.849  12.474
89322W        W57685  19.747  23.006  10.639
89323W        W57686  22.575  42.917  13.844
89324W        W57687  13.128  37.880  12.425
89325W        W57688  18.733  41.396  10.920
89326W        W57689  33.011  41.309   2.717
89327W        W57690  43.490  31.051  11.975
89328W        W57691  22.688   3.431  13.929
89329W        W57692  44.364   2.323  11.568
89330W        W57693   7.785  16.571  10.514
89331W        W57694  22.249   7.416   3.194
89332W        W57695  40.818   4.900  13.023
89333W        W57696   8.301  31.905   3.368
89334W        W57697   2.433  31.413   1.392
89335W        W57698  17.660   4.862   0.901
89336W        W57699  34.565  11.686   4.200
89337W        W57700   7.815   7.402   1.364
89338W        W57701   5.754  39.520  14.876
89339W        W57702  33.131  39.457  10.589
89340W        W57703   3.901   7.670   3.272
89341W        W57704  11.221  35.491   1.289
89342W        W57705  36.914  25.495  13.390
89343W        W57706   5.867   1.920  14.921
89344W        W57707   2.753  34.585   0.476
89345W        W57708  36.098  22.521  12.838
89346W        W57709  41.799  19.096   4.135
89347W        W57710  27.954   3.288  12.426
89348W        W57711  30.490  14.818  14.977
89349W        W57712  19.046  14.157  14.972
89350W        W57713   4.437  15.214  13.883
89351W        W57714   0.474  10.812   4.199
89352W        W57715  21.240  30.964  13.511
89353W        W57716  35.518  39.397   2.810
89354W        W57717   7.820  12.782  10.946
89355W        W57718  28.668  29.557   3.683
89356W        W57719  16.088  35.542  13.419
89357W        W57720  22.143   1.809   3.737
89358W        W57721   8.210  38.384  12.876
89359W        W57722  18.627  20.071   4.280
89360W        W57723  21.136  14.109  12.859
89361W        W57724  26.145  24.648   1.839
89362W        W57725  14.693  36.396   1.300
89363W        W57726  37.485  26.143  10.990
89364W        W57727  39.064   0.802   0.833
89365W        W57728  34.544  33.464   2.697
89366W        W57729  37.353  21.206  11.607
89367W        W57730  27.674   5.888   0.419
89368W        W57731  42.826  17.304   1.809
89369W        W57732  44.827  41.877   4.113
89370W        W57733  27.133   0.479   3.839
89371W        W57734  32.089  27.672   1.758
89372W        W57735  10.763   3.741   4.701
89373W        W57736  44.281  44.780   2.249
89374W        W57737  30.475  24.138  11.575
89375W        W57738   0.332   3.275   1.210
89376W        W57739  32.909  16.675  13.333
89377W        W57740  36.490   9.823  11.454
89378W        W57741  40.492  39.420   1.245
89379W        W57742  21.747  36.060  12.992
89380W        W57743  25.975  21.183  13.969
89381W        W57744  26.013  29.495   2.200
89382W        W57745  31.516  18.186   3.708
89383W        W57746  26.672  12.230  13.429
89384W        W57747  10.856  36.047   3.813
89385W        W57748  16.780  27.966   3.361
89386W        W57749  23.196  27.550  10.432
89387W        W57750  14.268   4.211   2.696
89388W        W57751  32.474  15.158  11.576
89389W        W57752  21.195   1.440   3.826
89390W        W57753  38.019  12.810   0.324
89391W        W57754  30.071   3.890  12.931
89392W        W57755  32.606  15.260   1.282
89393W        W57756  30.509   9.785   3.260
89394W        W57757  22.713  15.593   3.353
89395W        W57758  38.454  31.551   3.776
89396W        W57759  11.349   4.800   1.358
89397W        W57760   6.794  25.556   3.283
89398W        W57761  20.529  39.910   4.212
89399W        W57762  30.444  36.355   5.321
89400W        W57763  34.510   9.744   3.674
89401W        W57764  13.829  40.938  12.405
89402W        W57765  13.726   6.865   2.883
89403W        W57766  27.599  25.130   2.792
89404W        W57767  30.940  22.063   0.259
89405W        W57768  11.729  12.620   4.628
89406W        W57769  26.590  31.142  10.925
89407W        W57770  26.604  35.474  10.553
89408W        W57771  23.167  31.598   2.902
89409W        W57772  43.486  28.946   1.355
89410W        W57773  33.408  32.546  11.472
89411W        W57774  14.694  40.960  12.033
89412W        W57775   8.374  16.101   0.353
89413W        W57776  21.087  14.817  11.013
89414W        W57777  44.357  28.140   1.429
89415W        W57778  16.578  20.139   2.387
89416W        W57779   8.753   4.737   0.760
89417W        W57780   9.886  41.486  11.018
89418W        W57781   2.890  28.045   2.404
89419W        W57782  40.947  11.153   1.765
89420W        W57783  35.088  22.068   4.830
89421W        W57784  27.051   4.338   4.140
89422W        W57785   8.815   0.841   3.846
89423W        W57786   1.827  40.845  13.974
89424W        W57787  41.365   0.369  12.073
89425W        W57788   7.835  28.066   2.366
89426W        W57789   2.471  39.042  11.867
89427W        W57790  33.469  19.642  10.409
89428W        W57791  15.693  36.081  11.886
89429W        W57792   7.383  15.802   4.349
89430W        W57793  31.639   6.678  14.008
89431W        W57794  32.123  31.571   0.952
89432W        W57795   2.728  16.268  10.507
89433W        W57796  25.569   8.385  11.465
89434W        W57797  38.877  17.661   4.622
89435W        W57798  42.477  23.071   2.778
89436W        W57799  13.648  33.032  13.825
89437W        W57800   1.823  15.708  12.825
89438W        W57801  31.026   9.305  11.570
89439W        W57802  23.586  44.400   3.268
89440W        W57803   2.800  36.413  12.936
89441W        W57804  28.049  17.247   3.643
89442W        W57805  10.703  34.460  14.446
89443W        W57806  10.750  41.387   3.861
89444W        W57807  17.577   3.904  14.841
89445W        W57808   3.361  19.691   4.817
89446W        W57809  41.944  23.682  12.972
89447W        W57810  22.739  41.004  13.980
89448W        W57811   6.341  10.218  12.347
89449W        W57812  19.114  31.055  14.332
89450W        W57813  43.503  37.004  14.304
89451W        W57814  42.810  20.605  14.799
89452W        W57815   5.780  15.300  10.926
89453W        W57816  27.463  24.702  10.415
89454W        W57817   0.911  14.164   2.359
89455W        W57818  17.671  13.837  13.428
89456W        W57819  40.924  26.637   4.315
89457W        W57820  40.803  38.332  13.322
89458W        W57821  31.010  37.877   3.381
89459W        W57822  31.121  37.858   1.412
89460W        W57823  39.887  35.907   1.405
89461W        W57824  44.860  29.489   3.291
89462W        W57825  43.365  42.864  13.918
89463W        W57826   1.252  32.416  10.529
89464W        W57827   7.858  22.160   3.844
89465W        W57828   5.300   6.816   3.334
89466W        W57829  41.984   3.857  13.363
89467W        W57830   9.346  17.574   3.707
89468W        W57831  20.129  23.089  13.545
89469W        W57832  15.108  17.091  10.560
89470W        W57833   2.292  24.632  13.804
89471W        W57834  19.259  34.588   3.166
89472W        W57835  38.887  28.515  12.433
89473W        W57836  11.343   8.734   1.705
89474W        W57837  13.182  18.723  13.418
89475W        W57838   6.867   9.390  12.826
89476W        W57839  41.477  37.497  13.491
89477W        W57840  10.184  39.976   4.215
89478W        W57841  38.518  33.440   3.745
89479W        W57842  44.359  25.546   3.230
89480W        W57843  22.184  24.513  12.964
89481W        W57844  34.933  19.649  12.543
89482W        W57845  21.046  31.421   4.349
89483W        W57846  28.511  39.848   0.344
89484W        W57847  27.197  41.345   4.803
89485W        W57848  38.064   7.391  10.425
89486W        W57849  12.775  29.965   2.317
89487W        W57850  14.164  18.547  13.022
89488W        W57851  21.095  40.971  11.381
89489W        W57852  44.260   4.924   4.600
89490W        W57853  17.725  27.960   4.729
89491W        W57854   3.807  37.428  10.424
89492W        W57855  10.189  20.721  11.493
89493W        W57856  44.786   2.931   1.795
89494W        W57857   8.309  10.370  13.379
89495W        W57858  39.436  23.125   4.232
89496W        W57859   9.341   3.729   1.311
89497W        W57860   5.266  35.012   1.211
89498W        W57861  30.556   6.358  10.929
89499W        W57862  16.603  33.399  12.041
89500W        W57863  37.897  35.568   4.632
89501W        W57864   2.772  15.780  14.467
89502W        W57865  26.549  33.901  11.403
89503W        W57866  28.587   1.411   0.951
89504W        W57867   3.835  18.632   4.804
89505W        W57868  15.766  14.224   0.470
89506W        W57869  30.998  28.677   4.340
89507W        W57870  28.612  26.115   4.834
89508W        W57871   2.763  34.392   2.684
89509W        W57872   4.739  43.865  13.319
89510W        W57873  26.193   8.305   0.837
89511W        W57874  22.567   2.724   2.767
89512W        W57875  39.427  25.602  12.840
89513W        W57876  10.256  32.919  14.394
89514W        W57877   7.820  36.005  12.378
89515W        W57878  27.042  16.567   2.873
89516W        W57879   5.782   1.380  11.961
89517W        W57880   3.443  43.827  12.841
89518W        W57881   6.423  10.845  11.863
89519W        W57882   1.292  29.574   4.601
89520W        W57883  12.849  20.752  11.458
89521W        W57884  24.555   6.369   3.832
89522W        W57885  18.670  10.779  10.978
89523W        W57886  16.573  14.817   1.765
89524W        W57887  13.637  29.926   0.308
89525W        W57888  14.738  34.589   1.799
89526W        W57889  21.728   1.737   2.287
89527W        W57890  29.924   9.362  11.509
89528W        W57891  41.906  43.007  14.485
89529W        W57892  30.951   8.196   3.724
89530W        W57893  15.756   9.278  14.832
89531W        W57894  19.074  43.006  12.480
89532W        W57895  39.467  39.809  14.780
89533W        W57896  15.816  32.952  11.120
89534W        W57897  35.465  34.038   3.361
89535W        W57898  17.683  35.967   2.741
89536W        W57899  23.107  27.592  11.009
89537W        W57900  43.289  34.523   3.272
89538W        W57901  35.056  40.995  14.020
89539W        W57902  20.181  36.420   4.617
89540W        W57903  20.617  23.008  10.631
89541W        W57904   7.173  17.648   4.345
89542W        W57905  20.700  32.619  13.816
89543W        W57906  21.217   3.876  13.520
89544W        W57907  20.689  12.698  12.517
89545W        W57908   5.254  12.720  14.407
89546W        W57909  34.565  23.087   4.154
89547W        W57910  18.646  23.720  11.473
89548W        W57911   3.812   6.413  10.024
89549W        W57912  15.122  26.123   0.371
89550W        W57913  10.813  32.034   4.611
89551W        W57914  38.918  13.215  11.107
89552W        W57915  19.743  12.265  13.339
89553W        W57916  27.134   0.914   4.786
89554W        W57917  40.485   5.347  13.061
89555W        W57918  32.399   5.913  10.608
89556W        W57919  27.996  17.095   4.630
89557W        W57920  35.998  11.848  14.937
89558W        W57921  19.581  19.229  14.487
89559W        W57922  10.193  41.427   5.300
89560W        W57923  33.534  33.923  13.010
89561W        W57924  23.660  11.256   1.893
89562W        W57925  21.040   0.351  14.385
89563W        W57926   4.727   2.769  12.993
89564W        W57927  36.954  10.866  12.504
89565W        W57928  37.894   4.340   1.406
89566W        W57929  23.714  40.938   0.893
89567W        W57930  18.275  10.665   1.416
89568W        W57931   6.722  27.118  14.508
89569W        W57932  21.149  39.907   2.685
89570W        W57933   5.902  36.532   2.303
89571W        W57934  37.450  32.491  14.279
89572W        W57935  39.471  19.577  10.479
89573W        W57936  43.454  25.100  13.547
89574W        W57937  27.452  20.642  13.358
89575W        W57938   0.870  27.145  10.417
89576W        W57939  30.038  24.005   3.368
89577W        W57940  35.034   4.312  13.041
89578W        W57941  20.173  28.568  11.969
89579W        W57942  25.220  39.055  14.801
89580W        W57943  33.091  42.404  12.391
89581W        W57944   8.744  31.529   2.664
89582W        W57945  23.603  15.105  11.426
89583W        W57946  44.905  44.343   2.181
89584W        W57947  44.945  22.680  13.921
89585W        W57948  16.802  39.435  13.883
89586W        W57949  40.467   6.779  10.914
89587W        W57950  40.930  42.844  10.101
89588W        W57951   9.394  22.205   4.259
89589W        W57952  42.411  31.925   3.696
89590W        W57953  28.652  19.779   3.330
89591W        W57954  18.657  42.885   0.245
89592W        W57955  35.973  25.147  12.838
89593W        W57956  38.530  24.048  13.349
89594W        W57957   5.796  23.616   4.799
89595W        W57958  17.169  16.140  14.340
89596W        W57959  44.431  32.584  12.919
89597W        W57960  37.496   1.414  14.840
89598W        W57961  37.339  30.952  12.929
89599W        W57962  42.021  36.567  12.517
89600W        W57963  29.169  44.922  12.534
89601W        W57964  25.516   8.744  12.364
89602W        W57965  30.429  18.229   1.244
89603W        W57966  23.070   3.216   3.767
89604W        W57967  20.731  36.393  10.441
89605W        W57968  22.045  10.327   3.762
89606W        W57969  19.716   0.836   0.251
89607W        W57970  34.096  26.584  12.091
89608W        W57971   0.449  21.626  12.513
89609W        W57972  42.920  38.529   9.637
89610W        W57973  24.026  17.111  12.520
89611W        W57974  24.697  23.231  12.033
89612W        W57975   8.282   8.732  11.571
89613W        W57976  38.068  39.013   3.711
89614W        W57977  13.694  23.564  14.817
89615W        W57978  26.034  37.084   0.835
89616W        W57979  43.860  22.503   4.710
89617W        W57980  20.110   8.815   5.248
89618W        W57981  39.507  10.156  12.449
89619W        W57982   9.773  20.199   2.891
89620W        W57983  41.440  16.641  11.501
89621W        W57984   7.889  22.181   3.153
89622W        W57985  44.295  21.713  10.603
89623W        W57986  42.412  27.512  13.801
89624W        W57987  43.964  13.337   3.253
89625W        W57988  39.443  24.581   4.704
89626W        W57989  15.148  19.253  13.011
89627W        W57990  42.439  28.953   1.740
89628W        W57991   3.243   8.242   0.428
89629W        W57992  33.941  36.034  11.602
89630W        W57993  43.917  20.093  10.476
89631W        W57994  18.275  41.458  11.499
89632W        W57995   9.240  44.434  10.419
89633W        W57996  28.501   7.260   4.766
89634W        W57997  39.551  38.536   1.917
89635W        W57998  22.614   0.832  11.446
89636W        W57999  25.578  36.548  13.794
89637W        W58000   1.283  27.161  13.894
89638W        W58001   7.183  33.127  12.406
89639W        W58002  39.421   9.224   3.803
89640W        W58003  15.798  10.229  13.506
89641W        W58004  27.496  40.927  12.873
89642W        W58005  18.735  22.131  13.812
89643W        W58006  44.260  25.645  11.994
89644W        W58007  28.126  19.257   0.404
89645W        W58008   8.243   1.339  14.832
89646W        W58009  20.651  37.934  13.446
89647W        W58010  10.273  16.294   3.719
89648W        W58011  22.558  36.354  14.410
89649W        W58012  28.637   2.420   3.269
89650W        W58013  35.429  30.124  11.574
89651W        W58014   5.411  16.164  12.569
89652W        W58015   4.763   9.729  13.852
89653W        W58016  12.776  41.319  11.591
89654W        W58017  36.485  31.151   4.761
89655W        W58018  44.920  44.834   1.319
89656W        W58019  39.537  36.487  13.500
89657W        W58020  40.475  10.819   0.834
89658W        W58021  36.847   9.383   1.882
89659W        W58022  35.006   1.952  11.579
89660W        W58023   1.793  33.945  10.910
89661W        W58024  15.303  23.667  12.378
89662W        W58025   2.271  30.105   0.272
89663W        W58026  35.475  38.941   1.781
89664W        W58027   9.353  30.085   0.955
89665W        W58028  22.082  35.410   1.241
89666W        W58029  44.920  44.302  14.968
89667W        W58030  26.457  13.212  10.584
89668W        W58031  20.240  27.073  10.484
89669W        W58032  12.760  12.266   1.775
89670W        W58033  22.723  16.210  13.794
89671W        W58034  20.143  40.000   0.768
89672W        W58035  15.597   7.301  13.885
89673W        W58036  16.184   0.761   3.345
89674W        W58037  10.684  22.124   0.757
89675W        W58038  41.811   1.420   4.775
89676W        W58039  22.678   8.890   1.214
89677W        W58040   9.190  16.718   3.263
89678W        W58041  35.853  26.548  14.821
89679W        W58042  21.064   5.768   0.844
89680W        W58043  42.396  44.455  12.878
89681W        W58044  37.512  17.158   3.145
89682W        W58045  44.978  30.475   3.699
89683W        W58046  29.982   7.356   2.402
89684W        W58047  22.087   1.401  13.826
89685W        W58048  13.327  25.091  13.976
89686W        W58049  27.532  27.948  11.505
89687W        W58050  36.091   9.345  12.525
89688W        W58051   4.893  20.238   0.255
89689W        W58052   1.828  23.008  11.071
89690W        W58053   9.649   7.286  14.902
89691W        W58054  22.136  24.659   4.633
89692W        W58055  26.124   9.215   2.855
89693W        W58056  36.513   1.453  13.872
89694W        W58057  25.054  29.928  13.454
89695W        W58058  29.440   7.676  14.314
89696W        W58059  44.767  42.954   4.739
89697W        W58060  31.064  12.117   1.708
89698W        W58061  27.557  21.130   1.774
89699W        W58062  18.724   4.700  13.520
89700W        W58063  38.404  44.427   1.834
89701W        W58064   7.217  24.184   0.404
89702W        W58065  31.434   3.740  12.406
89703W        W58066   2.874  41.022   3.855
89704W        W58067  22.047   4.252  12.374
89705W        W58068  39.466  12.821  10.515
89706W        W58069  15.156  27.141   2.289
89707W        W58070  11.197   6.693   3.770
89708W        W58071  29.442  37.487  13.822
89709W        W58072  32.923  31.072  14.772
89710W        W58073   4.394  12.349   2.708
89711W        W58074  34.548  33.391   3.283
89712W        W58075   0.858   9.225  14.340
89713W        W58076  42.500  18.282   4.838
89714W        W58077   1.916  33.443   3.676
89715W        W58078  34.890  42.465   3.826
89716W        W58079  24.002  38.854  11.547
89717W        W58080  39.445   0.356  11.518
89718W        W58081  15.135  10.184  11.560
89719W        W58082  34.037  42.505  12.935
89720W        W58083  32.089   8.885   0.784
89721W        W58084  32.587  30.525  10.545
89722W        W58085   9.240   0.341  13.399
89723W        W58086  10.667  19.579   3.673
89724W        W58087  27.985  35.033   1.301
89725W        W58088  28.078  37.952   4.801
89726W        W58089  36.853  13.171  10.140
89727W        W58090  22.201   5.294  14.993
89728W        W58091  12.775   7.904  11.536
89729W        W58092  38.436  13.648   0.429
89730W        W58093   5.845  18.757  11.562
89731W        W58094  36.070  40.521   5.159
89732W        W58095  23.496  40.306  13.883
89733W        W58096   3.327   2.903   3.190
89734W        W58097  12.725  43.360   4.756
89735W        W58098   6.851  24.201  14.993
89736W        W58099  42.947   7.417   4.646
89737W        W58100  35.948  43.368  10.898
89738W        W58101   6.343  17.653  12.418
89739W        W58102  33.468  34.899   1.342
89740W        W58103  26.035   2.807   3.688
89741W        W58104  13.631  37.972  11.087
89742W        W58105  38.554  11.235  10.996
89743W        W58106   3.769  43.369  13.829
89744W        W58107  44.330  27.529   9.952
89745W        W58108  15.641  29.533  10.927
89746W        W58109  34.931  42.821  14.301
89747W        W58110  41.943  36.906  11.891
89748W        W58111  44.877   6.790   0.275
89749W        W58112  44.454  10.288   3.660
89750W        W58113  40.816   6.704  13.995
89751W        W58114   4.443   3.852   2.825
89752W        W58115  31.508   9.767   0.888
89753W        W58116  14.614  13.610   2.205
89754W        W58117  10.194   9.822   0.813
89755W        W58118  42.875  38.904  12.352
89756W        W58119  36.037  42.380   2.190
89757W        W58120   2.922  39.483  13.033
89758W        W58121   7.365  40.813  13.519
89759W        W58122  27.179  38.972   0.353
89760W        W58123  33.409  31.573  10.421
89761W        W58124  32.525   1.733   9.520
89762W        W58125  28.448  19.716  14.977
89763W        W58126  18.664   4.759  13.910
89764W        W58127  25.995  42.449   1.913
89765W        W58128  27.471  28.099  10.598
89766W        W58129  30.520   6.884  14.929
89767W        W58130  29.026   5.226  10.452
89768W        W58131  26.486  43.486  12.981
89769W        W58132  24.630  34.487  13.329
89770W        W58133  20.208  15.106   4.236
89771W        W58134  26.549   3.256   1.856
89772W        W58135   2.448  24.707  12.341
89773W        W58136   9.254  34.568  10.597
89774W        W58137  28.664  23.234   0.456
89775W        W58138  44.763  34.048   4.208
89776W        W58139  44.894   6.387   3.834
89777W        W58140  14.686  34.444  13.889
89778W        W58141  41.961  36.372  13.343
89779W        W58142  13.190  12.725  13.867
89780W        W58143  22.736  37.349   2.717
89781W        W58144  41.962   6.286  13.869
89782W        W58145  13.745  32.531   3.305
89783W        W58146  39.808  24.222  12.998
89784W        W58147   6.419  42.997   2.696
89785W        W58148  26.526  13.241  12.910
89786W        W58149  11.171  24.683  14.403
89787W        W58150  11.718  10.202   0.378
89788W        W58151   4.340  37.968  14.882
89789W        W58152   6.261  11.212   4.817
89790W        W58153  35.522  44.979  11.021
89791W        W58154   8.853  11.270   1.309
89792W        W58155  11.812  37.356  11.956
89793W        W58156  44.453   5.405  10.952
89794W        W58157  35.964   7.404   0.441
89795W        W58158   3.381  31.441  12.447
89796W        W58159   0.931  22.721   2.189
89797W        W58160  13.167  15.762  11.482
89798W        W58161  22.196  37.966   2.889
89799W        W58162  20.754  38.404   0.310
89800W        W58163  41.857  11.865   4.665
89801W        W58164  22.612  10.697   3.368
89802W        W58165   9.767  38.959  11.562
89803W        W58166  38.967   2.917  12.505
89804W        W58167  15.639   7.820  13.885
89805W        W58168  15.328  22.516   0.896
89806W        W58169   6.292  16.193   4.606
89807W        W58170  37.336   9.809   2.674
89808W        W58171  26.953  41.346   2.328
89809W        W58172   1.931  18.625   3.845
89810W        W58173  21.555  40.989  11.061
89811W        W58174  38.955  29.971   5.205
89812W        W58175  25.683  40.546   0.353
89813W        W58176  27.672  19.745  11.093
89814W        W58177  21.564  44.357   1.323
89815W        W58178  18.545  21.062   4.612
89816W        W58179  29.963   0.803  13.497
89817W        W58180  27.551  18.553   1.700
89818W        W58181  44.775   6.255   2.271
89819W        W58182  30.001  32.116  14.381
89820W        W58183  13.718   3.890  14.498
89821W        W58184  38.929   9.774   2.282
89822W        W58185  16.247   3.766  12.041
89823W        W58186  14.127   5.341  11.469
89824W        W58187  34.612  17.242   1.431
89825W        W58188   5.817  20.557   2.761
89826W        W58189  26.657  43.366   4.146
89827W        W58190  42.322  30.620   2.841
89828W        W58191   8.685  36.430   5.081
89829W        W58192   2.809  37.529  14.856
89830W        W58193  21.587  42.925   3.209
89831W        W58194  23.571  24.717  11.949
89832W        W58195   6.263  12.614   3.222
89833W        W58196  34.562  42.439  14.983
89834W        W58197  24.566  21.028  12.485
89835W        W58198  10.801  37.085   3.795
89836W        W58199   1.443  41.396  12.402
89837W        W58200  15.321  41.816   3.291
89838W        W58201  22.239  17.249   2.797
89839W        W58202  22.667   0.285   2.662
89840W        W58203  29.093  13.117  14.306
89841W        W58204  33.975  31.021   1.325
89842W        W58205  33.396   7.791  12.900
89843W        W58206  19.155  26.623  13.794
89844W        W58207  41.835  24.156   2.765
89845W        W58208  44.877  16.675   0.271
89846W        W58209  22.509  31.502  11.099
89847W        W58210  12.212  27.667  12.073
89848W        W58211  12.281  37.517   3.256
89849W        W58212  39.808   7.171  12.537
89850W        W58213  39.333  44.868  10.411
89851W        W58214  14.612  39.061  10.149
89852W        W58215  18.673   6.272  13.047
89853W        W58216   6.419  13.299   1.302
89854W        W58217  37.436   0.248   2.275
89855W        W58218  15.200  24.584  13.052
89856W        W58219  18.228  44.829  10.132
89857W        W58220   1.899  18.546   4.339
89858W        W58221  40.850   0.949   0.792
89859W        W58222  29.947  32.890  14.780
89860W        W58223  27.601  17.670  12.905
89861W        W58224  41.843  13.811  11.996
89862W        W58225  23.703  14.662  13.333
89863W        W58226  29.940  15.584   0.842
89864W        W58227  12.833  10.352  11.917
89865W        W58228  16.313  14.672  12.351
89866W        W58229  34.055  32.603  13.458
89867W        W58230  20.632   6.359  12.387
89868W        W58231  43.392  40.494  11.952
89869W        W58232  17.238   0.942   3.375
89870W        W58233  32.402  41.503   1.270
89871W        W58234  42.004  25.056   0.392
89872W        W58235  12.206  37.402  10.505
89873W        W58236  30.419  31.554  14.304
89874W        W58237  16.779  44.408  12.987
89875W        W58238  22.048   3.421   0.948
89876W        W58239   6.727   9.349  13.976
89877W        W58240  31.601  30.937   1.277
89878W        W58241   9.830  26.957  10.588
89879W        W58242  43.859  29.108  13.465
89880W        W58243  29.470  44.853  12.529
89881W        W58244  44.283  19.544  11.037
89882W        W58245  12.804  28.175   1.248
89883W        W58246  43.461  37.544   3.667
89884W        W58247  32.959  39.936   2.861
89885W        W58248  42.390  24.611  13.488
89886W        W58249  36.577  15.083  10.554
89887W        W58250  22.683   9.324   2.199
89888W        W58251  19.204   6.255   3.338
89889W        W58252   2.730  32.507   4.227
89890W        W58253  26.156   5.401   1.251
89891W        W58254  28.186  38.038  11.983
89892W        W58255  41.820  27.109  10.975
89893W        W58256   8.357  24.148  12.453
89894W        W58257   1.261  40.817   1.313
89895W        W58258   0.490  23.536   0.329
89896W        W58259  43.943  13.315  10.476
89897W        W58260  33.938  21.625  13.536
89898W        W58261  41.982   0.301  12.362
89899W        W58262  25.489  15.114   3.688
89900W        W58263  17.690  40.993   4.165
89901W        W58264  14.211  36.990  12.439
89902W        W58265  23.161   7.328   1.362
89903W        W58266  24.987   4.826   3.177
89904W        W58267  22.635  24.077   3.241
89905W        W58268  42.494  41.830   4.709
89906W        W58269   6.224   9.802   0.483
89907W        W58270  36.462  34.931  11.865
89908W        W58271  31.518  17.147  11.101
89909W        W58272  10.276  42.925  14.357
89910W        W58273   5.261  15.162   1.812
89911W        W58274  36.037  40.386  11.931
89912W        W58275  41.906  15.329  12.951
89913W        W58276  33.399  39.046  10.513
89914W        W58277  27.494  23.615  12.031
89915W        W58278   5.408   8.305   0.850
89916W        W58279   6.838  34.416  11.858
89917W        W58280  23.621  39.961   3.385
89918W        W58281   8.353  11.227  12.475
89919W        W58282  19.218   7.784   1.755
89920W        W58283  37.058  40.025   1.757
89921W        W58284  17.075  17.249   3.321
89922W        W58285  31.917  23.698  12.823
89923W        W58286  29.132  32.431  14.323
89924W        W58287   4.240  18.088   3.342
89925W        W58288   7.817  33.554  14.349
89926W        W58289  32.974  19.770  10.979
89927W        W58290  31.902  43.412  11.879
89928W        W58291  10.697  40.986   4.286
89929W        W58292   1.874  11.222   3.718
89930W        W58293  10.670  44.950   2.273
89931W        W58294  14.604  20.632  10.531
89932W        W58295   1.754  10.213   3.770
89933W        W58296   6.352  41.336  10.543
89934W        W58297  38.435   4.934   1.745
89935W        W58298  12.788   0.463   2.726
89936W        W58299  42.793   7.905   0.337
89937W        W58300   0.476  19.207   2.353
89938W        W58301  34.048  44.793  13.548
89939W        W58302  42.869  22.701   4.174
89940W        W58303  32.990  10.633  13.968
89941W        W58304  20.041   9.855  10.479
89942W        W58305   4.404  31.951   4.679
89943W        W58306  23.672  26.576  12.823
89944W        W58307  30.636  26.567  11.097
89945W        W58308  28.612  31.911  11.946
89946W        W58309  17.197  40.402   0.402
89947W        W58310  19.112  25.117   1.762
89948W        W58311  30.593   6.228  11.872
89949W        W58312  36.947  20.566   1.748
89950W        W58313  14.318   2.911  12.417
89951W        W58314  39.839  14.800  14.981
89952W        W58315  14.785  27.021  13.848
89953W        W58316  21.676  15.700  14.445
89954W        W58317  32.036  34.882   0.245
89955W        W58318  18.156   7.292  14.324
89956W        W58319  41.920  20.678   2.366
89957W        W58320  16.626  42.330   3.335
89958W        W58321   9.709  19.671  11.373
89959W        W58322   5.424  12.260   0.342
89960W        W58323  34.073   2.381   5.133
89961W        W58324  30.594  11.290   2.703
89962W        W58325  30.421   1.351  11.539
89963W        W58326  20.640   0.486   2.844
89964W        W58327  26.465  19.180  10.920
89965W        W58328   1.898   4.887  11.924
89966W        W58329  30.164  42.446  10.921
89967W        W58330   5.385  18.670  11.037
89968W        W58331  39.410   8.196   4.711
89969W        W58332  23.023  25.529  11.966
89970W        W58333  19.180  14.624   3.642
89971W        W58334  36.087  30.946  14.413
89972W        W58335  33.497  22.695   2.885
89973W        W58336   7.856  32.556   4.332
89974W        W58337  14.684  25.471   4.183
89975W        W58338  15.106  20.561   3.297
89976W        W58339  26.063  11.372  14.397
89977W        W58340  11.794  15.752   0.347
89978W        W58341  36.900  25.672   1.756
89979W        W58342  13.804  37.469   1.312
89980W        W58343  35.436   8.338   3.640
89981W        W58344  27.541  13.308   4.284
89982W        W58345  19.060  26.498  11.062
89983W        W58346  41.433  28.567   1.776
89984W        W58347  30.574  34.411  11.899
89985W        W58348  37.400  24.571  10.934
89986W        W58349  20.609   6.202   1.381
89987W        W58350  31.029  44.382  14.487
89988W        W58351  41.354  12.163   4.278
89989W        W58352   2.394  22.733   4.649
89990W        W58353   4.871  30.432  14.008
89991W        W58354  43.863  26.539  11.492
89992W        W58355  11.729  32.084   3.679
89993W        W58356   5.430  34.531  11.876
89994W        W58357   9.887  26.000   4.292
89995W        W58358  14.635  10.725  10.940
89996W        W58359  10.325  29.644  12.467
89997W        W58360  39.512   6.719  13.826
89998W        W58361  40.991  14.095   3.672
89999W        W58362  15.314  18.789  14.283
90000W        W58363   0.477  16.721  11.470
90001W        W58364  21.209  21.093  13.998
90002W        W58365  37.582   7.318  10.045
90003W        W58366   5.825  39.341  14.383
90004W        W58367  36.493  15.323   1.915
90005W        W58368   1.395  38.843  13.518
90006W        W58369   8.773  35.032   0.950
90007W        W58370  27.060  37.053  10.414
90008W        W58371  32.109  36.364   2.364
90009W        W58372  22.629  41.034   2.345
90010W        W58373   5.720  30.508  14.955
90011W        W58374  23.560   0.972  13.959
90012W        W58375   2.937  38.075  14.485
90013W        W58376  23.197  37.565   4.223
90014W        W58377  24.025  27.172  13.976
90015W        W58378  29.049  17.648  10.903
90016W        W58379  42.518  33.405   4.771
90017W        W58380  41.024  41.324   4.175
90018W        W58381   3.301   6.784   0.793
90019W        W58382  42.369  29.999   4.184
90020W        W58383  18.058  12.318  13.032
90021W        W58384   6.211  32.037   1.797
90022W        W58385  22.654  19.693   0.378
90023W        W58386  17.289  11.308   2.717
90024W        W58387  30.651  35.513  10.923
90025W        W58388  35.028  41.437   0.443
90026W        W58389  25.534  17.213   5.178
90027W        W58390  44.379  14.822   4.213
90028W        W58391  28.979  27.524  11.031
90029W        W58392  27.451  19.258   2.724
90030W        W58393  23.203  21.079  12.569
90031W        W58394  13.114   7.751  14.509
90032W        W58395  18.238  43.281   5.581
90033W        W58396   5.424  34.476   4.708
90034W        W58397  26.696  41.309  11.976
90035W        W58398  28.681   4.922  14.864
90036W        W58399  30.139  29.629  11.939
90037W        W58400  36.941  33.485   2.775
90038W        W58401  13.751  36.995  12.535
90039W        W58402  13.342  26.185  10.638
90040W        W58403  25.204  13.136  13.440
90041W        W58404  23.117  21.699  13.840
90042W        W58405  28.609  17.741  14.790
90043W        W58406  44.293  35.014   2.219
90044W        W58407  25.578  38.569   1.257
90045W        W58408  42.470   6.782   4.165
90046W        W58409  35.946  18.145   4.114
90047W        W58410  27.553  23.207  14.407
90048W        W58411  14.702   9.314  10.412
90049W        W58412  27.110  25.128  10.433
90050W        W58413   3.717  41.792  11.595
90051W        W58414  31.618  36.939   3.337
90052W        W58415  11.713  15.224  11.974
90053W        W58416  24.056  25.606   2.348
90054W        W58417  13.152  18.562  14.792
90055W        W58418  22.017  12.759  14.956
90056W        W58419  35.903   3.389  11.976
90057W        W58420  24.984  15.632   3.384
90058W        W58421  32.941   2.268   4.814
90059W        W58422  39.035  40.023   0.468
90060W        W58423  20.272   1.392  12.833
90061W        W58424  15.231  14.604  13.801
90062W        W58425   3.858  20.198   0.855
90063W        W58426  31.417  44.807   1.383
90064W        W58427   3.832  38.964  14.926
90065W        W58428  12.801  41.040   0.323
90066W        W58429  30.049  13.747  13.834
90067W        W58430  27.127  28.651   4.614
90068W        W58431  21.182  40.384   1.815
90069W        W58432  27.959  41.927  10.501
90070W        W58433   6.821  21.684  14.376
90071W        W58434  27.087  25.056   0.324
90072W        W58435   7.759  27.954   1.847
90073W        W58436  39.339  41.948   1.860
90074W        W58437  40.516  14.794  13.311
90075W        W58438  27.034  35.023  10.922
90076W        W58439  44.353   3.427  14.471
90077W        W58440   0.788  13.738  10.954
90078W        W58441  23.504  10.243   4.335
90079W        W58442  26.495  11.792  12.869
90080W        W58443  19.755  33.409   4.687
90081W        W58444  34.605  21.640  11.006
90082W        W58445  18.731  34.117  14.423
90083W        W58446   0.487  11.287   1.262
90084W        W58447  17.791  20.268  10.986
90085W        W58448  11.734  34.915  13.412
90086W        W58449  33.980   3.726  13.346
90087W        W58450  11.181  30.085  10.481
90088W        W58451  21.135  44.764  11.543
90089W        W58452  12.272   2.757  12.401
90090W        W58453  42.820  13.807   4.122
90091W        W58454   4.868   8.374   0.373
90092W        W58455  28.524  24.613  13.357
90093W        W58456  12.822  41.496   0.892
90094W        W58457  19.050  39.386  13.320
90095W        W58458  40.846   5.365  13.374
90096W        W58459   3.343  25.080  14.830
90097W        W58460  26.501   0.760  14.328
90098W        W58461  41.407  35.494   2.196
90099W        W58462  16.217  23.568   1.844
90100W        W58463  22.574  39.866   2.757
90101W        W58464  18.242  30.591   3.309
90102W        W58465   9.740  40.959   4.175
90103W        W58466  24.144  27.459  14.027
90104W        W58467  19.542   0.352  11.099
90105W        W58468   9.255  43.848  12.386
90106W        W58469  25.472  13.751  12.467
90107W        W58470  34.416  23.167   0.339
90108W        W58471  40.390  37.012  11.932
90109W        W58472  26.957  15.690  10.544
90110W        W58473  20.714  17.647   3.281
90111W        W58474  10.183  22.630   1.235
90112W        W58475  10.232  42.397   3.649
90113W        W58476  16.204  40.465  13.865
90114W        W58477  14.191  17.722  13.996
90115W        W58478   2.453  15.778   0.959
90116W        W58479  23.214  18.130  13.469
90117W        W58480   6.853  13.633   0.863
90118W        W58481  20.532   0.255  13.913
90119W        W58482   8.229   4.810  14.420
90120W        W58483  38.858  41.919   0.268
90121W        W58484  25.060  44.847  13.315
90122W        W58485   2.367   0.973   0.754
90123W        W58486  39.515  44.819   0.257
90124W        W58487  28.040  19.607  10.974
90125W        W58488  26.992  10.370   0.461
90126W        W58489   6.811  15.754   2.770
90127W        W58490  31.449   4.837  11.536
90128W        W58491   6.368  28.941  10.462
90129W        W58492  35.063  39.997   3.737
90130W        W58493  43.804  20.046  14.301
90131W        W58494  29.041   0.350   2.197
90132W        W58495  10.243  38.324   1.376
90133W        W58496   9.167  15.180  12.340
90134W        W58497  17.736   0.896   0.285
90135W        W58498  40.411  18.575   5.283
90136W        W58499  17.185   4.723   4.126
90137W        W58500   7.727  26.694  11.030
90138W        W58501  15.815  18.079  11.499
90139W        W58502  13.831  15.205  10.526
90140W        W58503  22.699  32.558  11.535
90141W        W58504  43.777  32.584  10.970
90142W        W58505  32.432  24.577  11.093
90143W        W58506  21.038  32.621  13.367
90144W        W58507  24.989  39.951   1.309
90145W        W58508   4.902  26.053   0.450
90146W        W58509  18.762  40.986  10.578
90147W        W58510  27.144  19.680   4.654
90148W        W58511  28.606  17.666   4.773
90149W        W58512   1.298  12.756   4.163
90150W        W58513  25.679   2.753   1.276
90151W        W58514  26.028  23.734   3.654
90152W        W58515  33.467  28.657   3.342
90153W        W58516  41.503  12.847   1.872
90154W        W58517  20.106   4.211   1.262
90155W        W58518   2.726  28.118  11.416
90156W        W58519  42.344  18.079  12.536
90157W        W58520  30.420  42.445  13.025
90158W        W58521   3.289  36.952   3.821
90159W        W58522   6.749  44.843  13.957
90160W        W58523  40.840  40.470  12.034
90161W        W58524  27.617   8.346  13.834
90162W        W58525   7.343  42.372  14.820
90163W        W58526  14.122   7.385   0.431
90164W        W58527  30.484   6.799   1.725
90165W        W58528  16.072  24.098   3.159
90166W        W58529  10.148  42.433  14.444
90167W        W58530  40.354  16.188   0.446
90168W        W58531  31.459   8.403   1.439
90169W        W58532   1.281  24.220   4.806
90170W        W58533  41.528  11.829  13.360
90171W        W58534  20.075  33.956  11.047
90172W        W58535  38.373  36.983  14.773
90173W        W58536  35.572  36.571   2.286
90174W        W58537  33.920  37.924  12.427
90175W        W58538  40.491  35.410   1.804
90176W        W58539   4.327   2.753  12.041
90177W        W58540  38.013  37.915   1.261
90178W        W58541  11.682  41.461   2.290
90179W        W58542  31.486   9.332  14.859
90180W        W58543  21.208   5.406  11.039
90181W        W58544  21.033  23.123   1.932
90182W        W58545   7.353  17.648  10.444
90183W        W58546   4.814   4.910   4.242
90184W        W58547  27.590  17.594  11.925
90185W        W58548  43.931  41.455  11.893
90186W        W58549  35.591   5.840  10.893
90187W        W58550  30.078  27.986   4.179
90188W        W58551  37.461  23.562   1.892
90189W        W58552   9.840   1.810  13.509
90190W        W58553  34.897   4.882   5.270
90191W        W58554   1.965  27.558   4.675
90192W        W58555  18.224  27.610   4.662
90193W        W58556  19.060  40.500   1.398
90194W        W58557  29.593  42.964  10.134
90195W        W58558  17.736  44.436   0.333
90196W        W58559  10.243  41.471  13.523
90197W        W58560   2.400   4.903   3.153
90198W        W58561  20.142  17.613  13.488
90199W        W58562  32.114  10.165   4.141
90200W        W58563  29.443  42.797   2.866
90201W        W58564   8.160  32.524   2.390
90202W        W58565  22.508   0.985   4.600
90203W        W58566  14.674  17.579  13.871
90204W        W58567  39.882   7.390   1.348
90205W        W58568  22.503  33.092  14.791
90206W        W58569  11.782  22.072  13.367
90207W        W58570  33.913  25.471  12.837
90208W        W58571  30.521  40.996  12.964
90209W        W58572   8.394  31.460   2.789
90210W        W58573   4.378  21.735  13.317
90211W        W58574  28.526   2.782   3.854
90212W        W58575  17.775  40.357   1.888
90213W        W58576   6.358  33.032  12.472
90214W        W58577  13.153  33.000   3.789
90215W        W58578  13.297  43.363  11.457
90216W        W58579  16.237  38.948   3.304
90217W        W58580   0.337   8.894   3.662
90218W        W58581  43.316   9.178  14.314
90219W        W58582  23.699   1.734  11.607
90220W        W58583  36.402   9.350   2.901
90221W        W58584  33.539  13.275  11.004
90222W        W58585  13.718  33.025   3.329
90223W        W58586  27.083  12.225   0.467
90224W        W58587  23.671  39.839   1.848
90225W        W58588   8.793  24.171  12.536
90226W        W58589  40.467  28.973  11.582
90227W        W58590   4.248  22.684   5.309
90228W        W58591  32.017  42.821  11.090
90229W        W58592  12.771  19.649  14.492
90230W        W58593  22.153  21.148   2.220
90231W        W58594  37.830  10.775   2.231
90232W        W58595  10.343  10.757  11.516
90233W        W58596  31.454  21.227   1.809
90234W        W58597  22.195   3.221  11.068
90235W        W58598  22.037  11.783  13.916
90236W        W58599  27.130   6.852  14.481
90237W        W58600  39.946   7.718  13.322
90238W        W58601  36.394  41.868  14.769
90239W        W58602   2.461  39.851  10.444
90240W        W58603   2.235  11.169   4.731
90241W        W58604  24.160   7.226   1.211
90242W        W58605  13.698  17.604   1.930
90243W        W58606  16.795  18.088  11.383
90244W        W58607  43.407  22.746   2.406
90245W        W58608   0.454  34.483  14.792
90246W        W58609  39.443  16.749  12.464
90247W        W58610   0.256  32.007  14.473
90248W        W58611  35.890   4.304   1.241
90249W        W58612  39.400   0.884   0.923
90250W        W58613  38.465  31.980   2.792
90251W        W58614  32.414  28.641   3.382
90252W        W58615  34.541  41.435   3.679
90253W        W58616  34.587   6.200  14.425
90254W        W58617  37.928  30.088   1.436
90255W        W58618  12.715  14.785   2.886
90256W        W58619   1.435  21.531   4.610
90257W        W58620  29.563  28.184  10.966
90258W        W58621  11.749   2.770   4.349
90259W        W58622  40.941  23.117   3.321
90260W        W58623  23.705  10.790  13.064
90261W        W58624  15.757  11.244   3.639
90262W        W58625   5.377  33.100  14.405
90263W        W58626  33.083  22.671  11.044
90264W        W58627   8.658  17.735  11.877
90265W        W58628   4.785   1.825  10.120
90266W        W58629   8.784   3.414  14.884
90267W        W58630  14.199  36.877  12.919
90268W        W58631  10.734  26.080   4.143
90269W        W58632  11.662  20.573  14.979
90270W        W58633  18.594  13.828  11.399
90271W        W58634  19.765  44.345   1.313
90272W        W58635  19.647  14.289   2.673
90273W        W58636   6.269  41.829  13.940
90274W        W58637   2.944  24.050  11.028
90275W        W58638  38.953  36.498  12.406
90276W        W58639  30.614  43.867  14.905
90277W        W58640  29.930   4.897  13.825
90278W        W58641  25.519  16.310  11.522
90279W        W58642  10.868  40.357  12.952
90280W        W58643  23.578  23.712   0.736
90281W        W58644  14.164  10.201   0.811
90282W        W58645  15.663  44.343   3.344
90283W        W58646  34.391  29.663  10.414
90284W        W58647  16.686   9.799   3.369
90285W        W58648  22.182  40.988   4.139
90286W        W58649  28.155  14.653   0.837
90287W        W58650  10.719  28.107   4.271
90288W        W58651  20.730  23.626   3.256
90289W        W58652  33.048  26.627   3.710
90290W        W58653   0.743  19.562   2.374
90291W        W58654   6.764  40.896   3.382
90292W        W58655  41.927  32.500   3.861
90293W        W58656  13.664  18.102   0.437
90294W        W58657   4.731   6.350   3.352
90295W        W58658   4.718   9.295  10.898
90296W        W58659  28.968  13.301   4.681
90297W        W58660  37.492  10.285   1.263
90298W        W58661   8.260   6.692   4.251
90299W        W58662   8.840  10.869   3.187
90300W        W58663  16.605  27.642   2.315
90301W        W58664   8.269  24.157  10.913
90302W        W58665  20.039   3.244   0.299
90303W        W58666  16.769  19.277   0.308
90304W        W58667  28.604   2.738   4.698
90305W        W58668  22.997   1.801   1.858
90306W        W58669  37.491  13.783  11.927
90307W        W58670   4.872   4.298  13.825
90308W        W58671  28.066  17.146   1.352
90309W        W58672  20.570  42.294   2.666
90310W        W58673  29.152  21.616   3.696
90311W        W58674  17.255  12.757  12.931
90312W        W58675  40.324   4.308  10.502
90313W        W58676  33.445  22.094  12.962
90314W        W58677  10.708   5.307   2.688
90315W        W58678  34.891   4.377   2.865
90316W        W58679  33.474  26.690  10.407
90317W        W58680  29.984  12.362  11.127
90318W        W58681  10.664   9.657  13.795
90319W        W58682   3.267  26.188   2.814
90320W        W58683  40.848   2.748   3.786
90321W        W58684  43.968   3.256  12.362
90322W        W58685  36.093   7.912  12.938
90323W        W58686  18.753  22.702  12.380
90324W        W58687   8.260   0.912   3.679
90325W        W58688  25.973  27.645  10.519
90326W        W58689  18.235  27.461  13.393
90327W        W58690  14.589  41.377  10.965
90328W        W58691  34.598   1.958  14.884
90329W        W58692  39.444  26.202   1.907
90330W        W58693  43.382   4.275  13.847
90331W        W58694   3.243   9.188   0.895
90332W        W58695  40.944  24.974   4.213
90333W        W58696  36.900  17.298  14.405
90334W        W58697   6.254  12.828  14.022
90335W        W58698   1.863  11.864  13.328
90336W        W58699  15.609  26.685   2.266
90337W        W58700  11.814   0.785   1.274
90338W        W58701  32.490  24.205  14.488
90339W        W58702  17.598  28.641   1.299
90340W        W58703  15.616  25.635   3.849
90341W        W58704  43.879   9.681   3.848
90342W        W58705  21.033  31.104   1.748
90343W        W58706  11.320   6.221  13.958
90344W        W58707  39.922   9.229   2.887
90345W        W58708   1.819  31.945  14.413
90346W        W58709  26.690  27.675   4.761
90347W        W58710  38.888   9.846   0.424
90348W        W58711  35.925   6.398   3.818
90349W        W58712  39.434  34.065  14.971
90350W        W58713   0.357  36.429  13.952
90351W        W58714  31.937  10.677  12.512
90352W        W58715  23.035  19.139  12.993
90353W        W58716  24.107  21.046   2.305
90354W        W58717  42.354  36.914   1.798
90355W        W58718  25.096  25.706  11.123
90356W        W58719  40.954  43.277   1.715
90357W        W58720   3.349  34.948  12.051
90358W        W58721  25.982  40.382   0.297
90359W        W58722  40.039   7.815  13.895
90360W        W58723  20.144  34.597  13.357
90361W        W58724  31.921  18.788   2.773
90362W        W58725  27.984  25.968  11.082
90363W        W58726  17.284  37.840  12.501
90364W        W58727  16.663  44.347  11.040
90365W        W58728  22.229  17.638  10.453
90366W        W58729  44.914  19.553   4.766
90367W        W58730  43.495  41.798  13.935
90368W        W58731   9.842  13.135   4.727
90369W        W58732  32.569  10.188   2.790
90370W        W58733  23.510  44.351   0.867
90371W        W58734  28.467  38.474  11.890
90372W        W58735  21.632  44.794   3.753
90373W        W58736  12.243   5.810   3.855
90374W        W58737  28.950  33.582   3.181
90375W        W58738   8.294  35.954  14.481
90376W        W58739  14.706  43.805  12.004
90377W        W58740  14.805  36.094   3.843
90378W        W58741   7.241  16.110  11.065
90379W        W58742   1.804  40.967  14.413
90380W        W58743   5.302  14.126   1.419
90381W        W58744  22.504  10.234  12.429
90382W        W58745  31.418  37.976  10.589
90383W        W58746  27.994  40.455  12.032
90384W        W58747  10.383  34.514  10.536
90385W        W58748  17.697  44.307  12.469
90386W        W58749  39.984  34.573   0.875
90387W        W58750  44.485  19.234  13.402
90388W        W58751  40.006  13.183   1.306
90389W        W58752  35.911  10.636  13.010
90390W        W58753  32.616   9.812  13.000
90391W        W58754  14.798  10.154   4.194
90392W        W58755  39.415  11.350  14.000
90393W        W58756  12.801  18.102   2.365
90394W        W58757  19.039  21.643   0.735
90395W        W58758  41.853   1.965  10.410
90396W        W58759  40.393  35.864  13.865
90397W        W58760  19.267  26.100  14.378
90398W        W58761  28.612  42.337  11.496
90399W        W58762  14.235  29.635   1.234
90400W        W58763   9.189   7.857   4.325
90401W        W58764  18.634  40.544   0.358
90402W        W58765  28.940  32.032   3.707
90403W        W58766   2.957  16.178   0.921
90404W        W58767  18.205  21.074  14.787
90405W        W58768  35.568   0.809  11.567
90406W        W58769  25.138  30.590   0.308
90407W        W58770  31.441   1.256   0.472
90408W        W58771  16.715  42.922  13.333
90409W        W58772   7.413   0.788   5.112
90410W        W58773  20.764  24.707  11.082
90411W        W58774  22.732  18.768  10.045
90412W        W58775  32.491  22.685  11.070
90413W        W58776  13.290  16.303   0.291
90414W        W58777  22.014  13.647  12.466
90415W        W58778  38.962  31.947   3.638
90416W        W58779  14.161  33.893   1.277
90417W        W58780   6.697  14.144  14.957
90418W        W58781  17.714   2.325  14.415
90419W        W58782  40.964  37.453   4.653
90420W        W58783  26.591  20.552   1.838
90421W        W58784  28.099  22.995   2.365
90422W        W58785   0.354   6.312  13.871
90423W        W58786  14.676  28.958  10.129
90424W        W58787  10.321  20.563   2.871
90425W        W58788  40.930  41.529   0.332
90426W        W58789   8.269  15.769   0.439
90427W        W58790  27.961  37.082  11.113
90428W        W58791  41.359  36.055   2.383
90429W        W58792  32.508  11.705   0.315
90430W        W58793  10.737  16.225  10.448
90431W        W58794  44.944  35.566  12.964
90432W        W58795   8.681  43.356  13.833
90433W        W58796  33.520  25.498  13.482
90434W        W58797  21.540  29.515   2.317
90435W        W58798  38.348  42.507  13.929
90436W        W58799  38.993  26.674   0.414
90437W        W58800  31.535  25.620   0.468
90438W        W58801  24.112  22.615  10.408
90439W        W58802  24.078  25.975   0.338
90440W        W58803  15.308  32.057   3.208
90441W        W58804  25.502  40.322  14.395
90442W        W58805  38.401  13.791  13.892
90443W        W58806  10.824  20.744   1.377
90444W        W58807   8.896  16.584   3.794
90445W        W58808  16.125  31.962  13.448
90446W        W58809  20.524  17.288  13.360
90447W        W58810  16.306   5.299  14.989
90448W        W58811  39.896  11.362  13.318
90449W        W58812  38.382  37.897   1.306
90450W        W58813  18.102  35.997  14.416
90451W        W58814   9.740  44.411  12.832
90452W        W58815  31.561  40.537  12.540
90453W        W58816   0.938   8.331   0.302
90454W        W58817  25.709  12.642  11.977
90455W        W58818   6.268   0.813  11.938
90456W        W58819   3.874  13.627   3.259
90457W        W58820  18.108  22.652  10.411
90458W        W58821  19.233  21.735   2.193
90459W        W58822   9.733  19.624   0.888
90460W        W58823  38.414  39.513   2.787
90461W        W58824   9.815  36.983  14.818
90462W        W58825   2.891  35.561   3.331
90463W        W58826   4.732  12.653   0.392
90464W        W58827   1.467  37.066   2.838
90465W        W58828  44.360   2.451   0.957
90466W        W58829  32.904  17.216  13.847
90467W        W58830  39.420  34.576  12.831
90468W        W58831  26.085  28.966  10.964
90469W        W58832   7.405  30.432   1.872
90470W        W58833  34.396  34.566  11.447
90471W        W58834  22.094  26.968   3.821
90472W        W58835   9.389   2.302   0.258
90473W        W58836  27.035  32.408  12.056
90474W        W58837  39.501   5.709  13.365
90475W        W58838   4.790  32.126  14.466
90476W        W58839   5.350   8.221   0.427
90477W        W58840  23.544  33.015   4.269
90478W        W58841   9.827  35.496  11.855
90479W        W58842  39.519  25.633  10.560
90480W        W58843  17.180  17.292  10.619
90481W        W58844  18.222  32.952  11.099
90482W        W58845  13.820  25.539   2.707
90483W        W58846   6.705  35.000  11.029
90484W        W58847  31.009  11.775  14.436
90485W        W58848  31.910   1.751  13.917
90486W        W58849   8.398  39.059  11.566
90487W        W58850  34.984  11.625   0.320
90488W        W58851  41.479   0.307   2.875
90489W        W58852  38.847  40.991   1.364
90490W        W58853   3.868   6.858  13.455
90491W        W58854  31.418   3.411  14.502
90492W        W58855  21.673  43.384   4.291
90493W        W58856  13.347  17.215   1.346
90494W        W58857  36.429  38.846  14.495
90495W        W58858  43.272  13.314   2.385
90496W        W58859   0.373  25.543  10.965
90497W        W58860   6.274  33.896  11.948
90498W        W58861  14.240  21.663   1.827
90499W        W58862   9.775   5.340   1.267
90500W        W58863  16.595  26.532  11.480
90501W        W58864   8.358  25.194  13.944
90502W        W58865  42.311  26.682   4.164
90503W        W58866  16.297  17.654   2.675
90504W        W58867  15.168  35.963  13.339
90505W        W58868  25.204  10.642  11.611
90506W        W58869  14.798  16.161   2.233
90507W        W58870  15.709  20.632  10.100
90508W        W58871  28.539  22.239  12.860
90509W        W58872  15.257  11.627  11.578
90510W        W58873  10.221  10.226  12.511
90511W        W58874  27.013  18.671   4.615
90512W        W58875   7.178   5.372   2.229
90513W        W58876  21.178  41.368   3.712
90514W        W58877  35.877   4.418  11.041
90515W        W58878  32.004  32.052  12.417
90516W        W58879  20.666  37.344  12.911
90517W        W58880   3.833  33.512   1.851
90518W        W58881  43.865  34.896  12.492
90519W        W58882  44.761  12.170  14.511
90520W        W58883  25.535   0.838  10.433
90521W        W58884  11.683  29.155  11.052
90522W        W58885  35.967  16.307  13.999
90523W        W58886  17.132  18.086  12.536
90524W        W58887  30.003  25.053   2.737
90525W        W58888  23.558  19.261  10.975
90526W        W58889  19.100   8.885   3.252
90527W        W58890  37.831  32.033   0.808
90528W        W58891  21.726   5.204   0.362
90529W        W58892  42.822  28.567   2.728
90530W        W58893  41.993  16.222   1.742
90531W        W58894  39.348  35.487   1.929
90532W        W58895  14.335  34.483   2.827
90533W        W58896  22.232  42.840   2.313
90534W        W58897  11.673  27.526  11.441
90535W        W58898  19.147   6.374   4.117
90536W        W58899  23.550  13.331   3.695
90537W        W58900  10.304  44.346   3.851
90538W        W58901  12.700  39.468   1.820
90539W        W58902  35.067  23.506   2.848
90540W        W58903  12.301  35.577   2.261
90541W        W58904  23.693  23.520  11.911
90542W        W58905   8.728  15.121   2.701
90543W        W58906  12.241  24.156  13.868
90544W        W58907  19.098   0.294  13.064
90545W        W58908  38.888  37.365   1.900
90546W        W58909  12.786  37.373   3.632
90547W        W58910  17.103  17.556  13.024
90548W        W58911   5.719   5.709   2.194
90549W        W58912   6.200   0.434   4.631
90550W        W58913   6.871  36.466  12.921
90551W        W58914  25.537  29.061  11.014
90552W        W58915  39.830  34.496   2.381
90553W        W58916   0.980  27.131  14.777
90554W        W58917  24.165  33.052   2.217
90555W        W58918  22.076   9.800  13.055
90556W        W58919  43.831   1.795  11.942
90557W        W58920  44.805   1.438   3.718
90558W        W58921  16.680  10.767  14.955
90559W        W58922  30.656  19.703  12.428
90560W        W58923  38.505   1.462  14.802
90561W        W58924  20.552  33.499  11.425
90562W        W58925   9.675   9.210  14.398
90563W        W58926  19.192  29.063   4.345
90564W        W58927  37.550   8.857  13.013
90565W        W58928  23.681   7.807  11.392
90566W        W58929   0.275  37.503   2.206
90567W        W58930  26.096  29.536   0.424
90568W        W58931  31.601  32.994   2.241
90569W        W58932  10.690  37.895   4.820
90570W        W58933  29.075  33.414  14.933
90571W        W58934  42.330  19.192  14.283
90572W        W58935   8.796  12.257   2.704
90573W        W58936  31.533  44.005  14.305
90574W        W58937  43.397   6.693  12.049
90575W        W58938  10.685  29.516   1.279
90576W        W58939  35.537  21.609  14.936
90577W        W58940  43.451  43.869   0.467
90578W        W58941  14.258  33.563  14.883
90579W        W58942   4.223  22.537   4.131
90580W        W58943  36.849  20.158  10.512
90581W        W58944  13.295  29.093  14.915
90582W        W58945  40.869   4.224   4.710
90583W        W58946  42.841   1.421  10.901
90584W        W58947  10.329  13.215   3.227
90585W        W58948  19.572  43.014   5.134
90586W        W58949  28.138  27.955   3.729
90587W        W58950  13.697   9.370  13.540
90588W        W58951  31.519  20.139  13.485
90589W        W58952  28.486   3.362  10.905
90590W        W58953  28.011  19.598   1.792
90591W        W58954   9.808  23.988  10.452
90592W        W58955   4.319  24.479   5.703
90593W        W58956  31.647  29.946   9.987
90594W        W58957   2.244  11.864   4.603
90595W        W58958  26.188  27.138   3.369
90596W        W58959   9.156   1.935   2.190
90597W        W58960  23.181   9.319   2.238
90598W        W58961  10.774  10.285   1.379
90599W        W58962  40.445   4.266  14.964
90600W        W58963  17.241   7.865  10.904
90601W        W58964  41.408  31.643  12.569
90602W        W58965  13.708   0.262   0.444
90603W        W58966  26.162  33.538  14.343
90604W        W58967   0.409  19.088   0.917
90605W        W58968  34.461   4.903   3.256
90606W        W58969   0.316  30.581   1.783
90607W        W58970  30.136  27.671   4.297
90608W        W58971  36.508  36.086   3.339
90609W        W58972  28.146  28.657  14.447
90610W        W58973  18.140  40.020   0.826
90611W        W58974  40.047  24.215   1.851
90612W        W58975  26.140  24.081   3.649
90613W        W58976  28.599  40.915  14.816
90614W        W58977  37.568   6.746   2.330
90615W        W58978  16.672   1.898   2.768
90616W        W58979   5.308   2.398  10.979
90617W        W58980  13.649  22.591   4.148
90618W        W58981   4.273   6.184   1.380
90619W        W58982   6.751  32.116   2.328
90620W        W58983  35.425  19.253  11.009
90621W        W58984  29.664   2.810  12.864
90622W        W58985  11.737  44.335  14.350
90623W        W58986  28.575   0.837  11.521
90624W        W58987  31.520   2.776   1.304
90625W        W58988  44.761   7.861  12.540
90626W        W58989  37.038  14.121  12.394
90627W        W58990  16.089  13.125   3.302
90628W        W58991  25.697  33.536  14.763
90629W        W58992  32.084  31.025   3.681
90630W        W58993  41.922  16.100  11.375
90631W        W58994  19.272  32.943   3.251
90632W        W58995   0.747  44.444  10.597
90633W        W58996   0.887  36.062   2.675
90634W        W58997  30.085   3.242   2.260
90635W        W58998  30.524  17.573   1.721
90636W        W58999   8.781   9.750  10.569
90637W        W59000  30.543  44.853   2.356
90638W        W59001  26.474   6.359  14.497
90639W        W59002  44.755  27.186   1.294
90640W        W59003  10.154  19.685   4.674
90641W        W59004  11.277  37.352  11.045
90642W        W59005  30.026  34.056  11.442
90643W        W59006  28.604  43.954  13.430
90644W        W59007  14.616  42.283  10.445
90645W        W59008  18.268  24.988   1.835
90646W        W59009  18.140  43.391   3.257
90647W        W59010  27.127  25.203   2.349
90648W        W59011  25.053  10.221  11.479
90649W        W59012  25.586   7.366   2.306
90650W        W59013  25.049  25.628   1.931
90651W        W59014  12.703  16.567  10.990
90652W        W59015  19.740   5.249  13.530
90653W        W59016  34.524  29.142  12.407
90654W        W59017  42.960  38.447   5.196
90655W        W59018  41.506  32.634  12.374
90656W        W59019  38.392  20.713  12.479
90657W        W59020  26.520  18.771   5.250
90658W        W59021  40.984  44.499  11.120
90659W        W59022   9.832  32.901   4.709
90660W        W59023  14.784  27.566  11.956
90661W        W59024  39.908  42.804  12.095
90662W        W59025  11.865  13.247   4.648
90663W        W59026  22.620  39.365  13.001
90664W        W59027  42.349  14.112   3.230
90665W        W59028  32.011  39.346  11.485
90666W        W59029  25.188  40.535   0.733
90667W        W59030  25.621  33.427   4.277
90668W        W59031  24.493  20.073   3.848
90669W        W59032  19.163  14.130   2.846
90670W        W59033  13.613  35.944  14.975
90671W        W59034   9.390  40.969   2.374
90672W        W59035  23.578  39.348  13.898
90673W        W59036  28.554  24.100  11.117
90674W        W59037  10.870  27.497  12.023
90675W        W59038  44.381  22.200  11.080
90676W        W59039  40.852  31.446   0.795
90677W        W59040  20.044  18.569  14.436
90678W        W59041   4.245  10.862   4.144
90679W        W59042  27.457  37.985  11.856
90680W        W59043  39.397  30.908  10.616
90681W        W59044  15.632  22.546  10.941
90682W        W59045  29.592   7.285  13.470
90683W        W59046  19.553  30.435  14.910
90684W        W59047  41.441  23.588  10.411
90685W        W59048  19.757  17.610  11.514
90686W        W59049   0.407  33.898  11.396
90687W        W59050  25.639  14.304  12.876
90688W        W59051  43.788   1.824   1.319
90689W        W59052  24.700  38.515  14.951
90690W        W59053  28.164  16.625   1.928
90691W        W59054  35.892  32.060   3.712
90692W        W59055  13.207  43.469  13.893
90693W        W59056  12.171  39.354  12.963
90694W        W59057  20.552  26.545  13.436
90695W        W59058  16.222  27.035  10.606
90696W        W59059  29.582  15.132  14.008
90697W        W59060   8.807   7.357   2.880
90698W        W59061   4.412  43.326   3.184
90699W        W59062  29.658  41.535   2.345
90700W        W59063  34.998   1.280   2.888
90701W        W59064  14.337   6.832   2.807
90702W        W59065  16.691  14.608  13.353
90703W        W59066  40.825  13.763   1.780
90704W        W59067  19.716  13.270   1.451
90705W        W59068  27.981   8.716   0.852
90706W        W59069  41.343  34.516   2.708
90707W        W59070  26.649  40.366   3.766
90708W        W59071  20.677  36.437  13.479
90709W        W59072  18.560  27.148   2.758
90710W        W59073  16.650  17.134  11.043
90711W        W59074  22.166  31.502   1.419
90712W        W59075   7.765  23.088   3.176
90713W        W59076   9.365   6.216   0.751
90714W        W59077   9.853  28.477   1.231
90715W        W59078  33.469  30.128   0.398
90716W        W59079  32.065  27.686  14.912
90717W        W59080   7.871   7.296  13.385
90718W        W59081  44.836  18.738   3.790
90719W        W59082  15.770  13.156  10.973
90720W        W59083  40.045  31.149   1.304
90721W        W59084  33.045   1.259   4.711
90722W        W59085  28.110  13.256   2.730
90723W        W59086  27.028  25.543  10.906
90724W        W59087  10.231   9.203   1.791
90725W        W59088  28.176  30.433   2.881
90726W        W59089  29.447  14.706   3.756
90727W        W59090  41.449  33.459   1.870
90728W        W59091  16.737  15.776   1.353
90729W        W59092  41.330  24.523  10.515
90730W        W59093  30.500   9.207  12.379
90731W        W59094  23.507  31.089   2.871
90732W        W59095  39.021   8.380  10.429
90733W        W59096   3.819  37.902   3.277
90734W        W59097  25.212  37.050  14.457
90735W        W59098  35.962  36.079  12.344
90736W        W59099  41.015  16.295   4.279
90737W        W59100  21.082  37.476  14.287
90738W        W59101  34.591  34.975   2.831
90739W        W59102  25.661  16.722   3.155
90740W        W59103  28.570  37.901  13.992
90741W        W59104  14.780   9.273  14.954
90742W        W59105   4.737   6.845   0.374
90743W        W59106  36.436  37.990  10.541
90744W        W59107  38.007   3.374  13.809
90745W        W59108  31.441   1.880  12.386
90746W        W59109  24.705  39.013   0.959
90747W        W59110   7.868  22.733  10.156
90748W        W59111  27.453  39.516   0.466
90749W        W59112  28.056   6.895   4.702
90750W        W59113  23.166  18.574  12.013
90751W        W59114   2.882  21.040   4.627
90752W        W59115  22.699  37.075  13.837
90753W        W59116  24.162   0.389   2.247
90754W        W59117   1.864  40.869   0.940
90755W        W59118  25.703  10.200  14.030
90756W        W59119   9.300  35.080   1.443
90757W        W59120  44.810  38.999   4.804
90758W        W59121   8.223  26.572   3.709
90759W        W59122  31.006  33.008   2.669
90760W        W59123  42.440  36.992   4.652
90761W        W59124  26.457  14.330  10.525
90762W        W59125  20.700  33.028   1.894
90763W        W59126  43.408  19.697  12.489
90764W        W59127  14.601  12.178  11.611
90765W        W59128  38.017  27.073  11.931
90766W        W59129   5.436  20.525  11.922
90767W        W59130   9.224   9.680   0.739
90768W        W59131  39.841   0.880   0.920
90769W        W59132  27.047  24.581   0.815
90770W        W59133  13.766  23.162   4.634
90771W        W59134   5.852  22.091  11.537
90772W        W59135  35.934  23.074   0.749
90773W        W59136  38.850  10.362   4.708
90774W        W59137  12.648  38.006  10.597
90775W        W59138  24.720  19.150   0.320
90776W        W59139  30.155   4.441  14.915
90777W        W59140  33.900  32.899   4.286
90778W        W59141  28.042  16.740  11.595
90779W        W59142   0.830  43.945  13.014
90780W        W59143  41.335  22.539  10.433
90781W        W59144  41.835   4.714   9.963
90782W        W59145  25.697  36.005  13.916
90783W        W59146  36.515   4.800  13.842
90784W        W59147  34.537  10.239   0.920
90785W        W59148  23.508   1.834  11.892
90786W        W59149  28.936  13.241   4.116
90787W        W59150   1.821   8.806  12.456
90788W        W59151  19.590  30.005   3.168
90789W        W59152  27.041  29.919   2.874
90790W        W59153  13.254   0.382   0.392
90791W        W59154  12.255  34.445  10.909
90792W        W59155   5.694   5.269  11.398
90793W        W59156  15.324  35.505   2.781
90794W        W59157  32.583  43.771   9.552
90795W        W59158  16.694  30.430   4.718
90796W        W59159  31.983  20.030  14.972
90797W        W59160  33.495  15.683   3.178
90798W        W59161  28.093  35.549   9.927
90799W        W59162  25.194   6.240  14.318
90800W        W59163  22.622   2.821   1.401
90801W        W59164  15.682  43.406  10.623
90802W        W59165  16.187  37.474  14.336
90803W        W59166  13.701  19.239   3.213
90804W        W59167  19.681   4.290   1.841
90805W        W59168  43.514  19.659  14.795
90806W        W59169  21.595   5.913  10.433
90807W        W59170  28.119   9.198  13.349
90808W        W59171   8.212  13.653   1.311
90809W        W59172  26.109  27.619  11.862
90810W        W59173  21.164   4.813  11.413
90811W        W59174   6.828   2.297   2.697
90812W        W59175   0.818  36.071  13.892
90813W        W59176  34.438  28.614   4.168
90814W        W59177  19.055   3.265   1.826
90815W        W59178  11.854  28.142   2.401
90816W        W59179  36.380  35.888  10.642
90817W        W59180   4.240  17.674  14.413
90818W        W59181   1.906   5.386  12.569
90819W        W59182  24.101  26.120  13.423
90820W        W59183  39.058  35.086  12.515
90821W        W59184  35.370   3.358  14.364
90822W        W59185  17.785  29.988  11.592
90823W        W59186   5.327   8.320  10.962
90824W        W59187  17.714  24.635   3.186
90825W        W59188  41.872  25.611  13.503
90826W        W59189  12.243   0.978   4.817
90827W        W59190  14.313  29.144  13.395
90828W        W59191  25.528  22.161   2.351
90829W        W59192   7.396  20.228  13.515
90830W        W59193   0.787   0.803   0.340
90831W        W59194  36.449   0.756   0.953
90832W        W59195  31.938  29.172  10.895
90833W        W59196  22.207  24.675  13.489
90834W        W59197  34.023  15.167  10.634
90835W        W59198   7.274  28.983   1.217
90836W        W59199  28.468   7.201   3.785
90837W        W59200  34.875   0.867  13.517
90838W        W59201  14.250  32.066   2.395
90839W        W59202  38.049  29.117   1.344
90840W        W59203  31.519  30.158  11.065
90841W        W59204   7.284  39.954   2.861
90842W        W59205  20.687   8.205   4.278
90843W        W59206  25.086   8.161  11.502
90844W        W59207  33.379  36.909  11.472
90845W        W59208   4.439  16.313  12.903
90846W        W59209  31.566   3.928  11.525
90847W        W59210   2.374  44.406   2.396
90848W        W59211   1.946  22.180   0.400
90849W        W59212  21.579  39.965   1.320
90850W        W59213  30.121  27.648  13.311
90851W        W59214   4.310  42.299  11.594
90852W        W59215   8.176   1.759   3.203
90853W        W59216  13.305  27.640   1.291
90854W        W59217  10.744  33.429  10.004
90855W        W59218  37.578   8.840   4.686
90856W        W59219  32.990  26.472   2.249
90857W        W59220  26.080  37.548   2.314
90858W        W59221  27.621   3.349   3.637
90859W        W59222  34.936  23.720  13.368
90860W        W59223  38.909  26.670   4.723
90861W        W59224  33.561  40.036   2.348
90862W        W59225  18.689  42.310   3.382
90863W        W59226  21.067  36.951   0.924
90864W        W59227  26.099  28.012   2.272
90865W        W59228   4.263  21.167  13.489
90866W        W59229  14.685   8.845   5.087
90867W        W59230  42.344  33.971   3.776
90868W        W59231  25.618   7.200   0.793
90869W        W59232  18.726  27.612  14.883
90870W        W59233  15.694  17.790  13.841
90871W        W59234   3.820  18.569   2.294
90872W        W59235   6.840  12.197  14.006
90873W        W59236  32.409  25.034   0.361
90874W        W59237  27.495  35.037   2.402
90875W        W59238  23.175   8.397   0.341
90876W        W59239  24.136  13.732  10.405
90877W        W59240  41.813   3.345   4.275
90878W        W59241  42.811   2.814   2.802
90879W        W59242   9.164   7.804  14.417
90880W        W59243   7.711  40.977   2.894
90881W        W59244  44.785  26.474   4.226
90882W        W59245  16.127  18.588  13.828
90883W        W59246  35.917  16.633   4.247
90884W        W59247  13.264   7.186  13.442
90885W        W59248  28.539  25.034  11.028
90886W        W59249  12.693  25.156  11.473
90887W        W59250   0.288   4.441   3.706
90888W        W59251   1.799  36.549   2.362
90889W        W59252   7.187  18.683  11.024
90890W        W59253  35.508  20.538   4.281
90891W        W59254   0.377  35.522  12.993
90892W        W59255  10.170  34.969   4.682
90893W        W59256   5.830  23.529   3.191
90894W        W59257  10.690  15.205  12.476
90895W        W59258  18.259  23.641  12.390
90896W        W59259  40.024  32.140   0.769
90897W        W59260  14.306   2.902  14.801
90898W        W59261  34.391  43.920   1.802
90899W        W59262  21.066   2.726   1.388
90900W        W59263   6.216  42.015  10.620
90901W        W59264  19.053  19.600   1.842
90902W        W59265   9.368  37.860  12.555
90903W        W59266  25.108  34.094   3.715
90904W        W59267  38.856  20.558  14.477
90905W        W59268  30.948  13.108  11.533
90906W        W59269   9.707   2.966  13.870
90907W        W59270  19.599  39.823  13.413
90908W        W59271   5.258  27.974   0.390
90909W        W59272  41.004  22.062   3.259
90910W        W59273  39.817  38.870  12.565
90911W        W59274  26.542  41.445   1.412
90912W        W59275  31.555   6.792  14.849
90913W        W59276  12.362  13.649  14.945
90914W        W59277   7.694   2.752   2.377
90915W        W59278  18.556   5.853  13.373
90916W        W59279  40.873  37.428   3.238
90917W        W59280   6.798   7.801   3.176
90918W        W59281  20.762  43.826  11.908
90919W        W59282  19.566  21.645   0.931
90920W        W59283  36.093   4.836  12.086
90921W        W59284   7.191  43.968  14.002
90922W        W59285  16.707  40.877  11.433
90923W        W59286  12.618  44.956   2.242
90924W        W59287  27.548  30.950  12.080
90925W        W59288  17.555  36.523  12.091
90926W        W59289  25.646  19.691  13.500
90927W        W59290  38.508  32.467   2.252
90928W        W59291   9.855  43.436   3.260
90929W        W59292   6.749  44.803   4.623
90930W        W59293  11.353  17.636   0.476
90931W        W59294  11.170  15.140  12.414
90932W        W59295  25.500  33.097  13.881
90933W        W59296  23.223  37.053   1.428
90934W        W59297  14.763  18.587  13.026
90935W        W59298   5.688  28.446   4.648
90936W        W59299   2.334  41.022  11.490
90937W        W59300  18.162  26.520   2.849
90938W        W59301  22.569   4.927  10.099
90939W        W59302  43.938  23.081  13.405
90940W        W59303  17.146  35.515   4.672
90941W        W59304  21.221  22.585  13.819
90942W        W59305  14.312  34.582   1.380
90943W        W59306  36.925  38.864   1.388
90944W        W59307  19.774  35.068   2.178
90945W        W59308  18.548  29.497  13.426
90946W        W59309   2.436  19.592  11.521
90947W        W59310  11.265   8.275  11.015
90948W        W59311  36.521  38.836  11.981
90949W        W59312  28.447  22.666   1.826
90950W        W59313   7.178  19.174  11.511
90951W        W59314   3.861  12.196   0.843
90952W        W59315   6.263  43.790   4.627
90953W        W59316  10.674  27.456   4.141
90954W        W59317  27.654  20.186   2.773
90955W        W59318   5.198  35.929   3.677
90956W        W59319  28.089  15.594   0.856
90957W        W59320   1.254  38.906   3.723
90958W        W59321  26.517  19.748  13.341
90959W        W59322   3.325  16.738  10.003
90960W        W59323  26.484  11.164  14.374
90961W        W59324  29.486  25.186  10.155
90962W        W59325   0.398  39.336  13.495
90963W        W59326  18.143  33.530  12.348
90964W        W59327  34.554  10.216   0.448
90965W        W59328  38.882  40.440  12.508
90966W        W59329  13.120  19.692   2.339
90967W        W59330  11.667  10.263  11.046
90968W        W59331  10.878  38.444  14.786
90969W        W59332  12.155  25.600  14.816
90970W        W59333  24.690  39.908  13.847
90971W        W59334  14.174  24.103  14.833
90972W        W59335  22.680  30.102  14.460
90973W        W59336  25.085   7.768   3.203
90974W        W59337   8.162   6.222   0.279
90975W        W59338   8.780  42.321  13.037
90976W        W59339   4.396   9.236  11.452
90977W        W59340  21.612   1.838  11.880
90978W        W59341  18.055  11.246   3.345
90979W        W59342  41.797  39.009  11.886
90980W        W59343   1.935  21.160  10.981
90981W        W59344  21.569  41.474  14.511
90982W        W59345  37.065  13.303  10.958
90983W        W59346   8.284  16.146   4.176
90984W        W59347  22.660  15.122  10.974
90985W        W59348  13.233  32.945  10.602
90986W        W59349  25.213  16.124  11.999
90987W        W59350  36.569  12.731  12.534
90988W        W59351   4.348  18.594  14.946
90989W        W59352  16.317  31.078  13.917
90990W        W59353  10.715  14.830  14.299
90991W        W59354  14.823  21.654   2.845
90992W        W59355  38.444   0.306   4.335
90993W        W59356   7.895  22.579  14.763
90994W        W59357  37.563  20.274  14.405
90995W        W59358  41.488   7.225   3.151
90996W        W59359  28.939  41.417  13.859
90997W        W59360  30.958  11.792  12.472
90998W        W59361  17.274  24.681  11.994
90999W        W59362  40.958  26.141   4.734
91000W        W59363  34.411  10.749   4.305
91001W        W59364  32.477  25.471  13.539
91002W        W59365  18.248  21.059  13.868
91003W        W59366   6.420  26.956   2.188
91004W        W59367  29.571  11.842   3.205
91005W        W59368   5.781  11.648  11.090
91006W        W59369   3.927  36.419   1.798
91007W        W59370  15.241  19.734   3.302
91008W        W59371  21.596  20.648   0.866
91009W        W59372  26.553  31.588   2.784
91010W        W59373  36.571  13.273   0.431
91011W        W59374  21.620   9.264  12.537
91012W        W59375  30.964  19.150  13.439
91013W        W59376   2.405  40.011   3.316
91014W        W59377   3.755  25.630  12.993
91015W        W59378  28.994   3.781  11.475
91016W        W59379  42.952  33.459   0.751
91017W        W59380  32.623  22.539  13.323
91018W        W59381  19.134   7.719  12.972
91019W        W59382  40.871   4.277   0.753
91020W        W59383  13.729   4.275  10.524
91021W        W59384  24.141  17.150   2.249
91022W        W59385  21.143  38.416  12.409
91023W        W59386   6.344  39.839  11.120
91024W        W59387  31.523  26.160  13.454
91025W        W59388  38.058  38.373   0.963
91026W        W59389  21.073  41.980   5.082
91027W        W59390  23.223  30.568  13.975
91028W        W59391  28.070  18.129   2.761
91029W        W59392  37.905  10.311   5.668
91030W        W59393  24.985  15.655  14.322
91031W        W59394  19.713  24.197  12.511
91032W        W59395   1.820   1.361  12.348
91033W        W59396  43.797  19.110  10.449
91034W        W59397  12.822  14.738   1.766
91035W        W59398  20.270   1.274  12.500
91036W        W59399   6.796  18.174   0.410
91037W        W59400  19.672  31.511  10.524
91038W        W59401  20.709   9.362  11.009
91039W        W59402  32.017  15.201  14.403
91040W        W59403   1.845  23.588   3.861
91041W        W59404  22.625  15.798  13.525
91042W        W59405   4.830  44.274   1.304
91043W        W59406   7.731  43.362  10.461
91044W        W59407  17.576   6.358  10.474
91045W        W59408  22.222  30.554  12.413
91046W        W59409  42.516   1.899  10.426
91047W        W59410  41.810  30.038  10.481
91048W        W59411  13.300   3.742  11.019
91049W        W59412   3.734   8.289   0.328
91050W        W59413  15.260  18.263   0.330
91051W        W59414   4.329  20.039  12.463
91052W        W59415  11.733  21.206   5.243
91053W        W59416  25.177  20.705   3.646
91054W        W59417  17.732  33.558   1.263
91055W        W59418  41.963  43.850   2.848
91056W        W59419  13.703  26.633  14.476
91057W        W59420  33.384  19.552   5.251
91058W        W59421  13.106  24.088  11.957
91059W        W59422  30.560  30.609  10.953
91060W        W59423  40.904  22.734   4.235
91061W        W59424  43.475  22.241  10.997
91062W        W59425   0.372  43.356   1.315
91063W        W59426  17.612  13.629  12.544
91064W        W59427  34.488  38.071  14.433
91065W        W59428   9.302  10.766   4.746
91066W        W59429  43.944  21.218  13.515
91067W        W59430   7.306  33.522   4.323
91068W        W59431  33.048  13.134  13.876
91069W        W59432  21.194  11.160  14.983
91070W        W59433   9.774   4.242  11.934
91071W        W59434  32.920  13.179  11.551
91072W        W59435   1.849  33.558  14.372
91073W        W59436  43.933  40.986   0.411
91074W        W59437   9.873   0.979   0.733
91075W        W59438  31.439  16.724   4.769
91076W        W59439  16.234  25.061  11.045
91077W        W59440  27.037   9.248   4.177
91078W        W59441  13.715  10.641  14.287
91079W        W59442  43.402  18.684  14.803
91080W        W59443  44.988  14.663   2.387
91081W        W59444   6.724   2.243   0.448
91082W        W59445   7.806  39.018  14.371
91083W        W59446  19.100  15.736  12.921
91084W        W59447   3.383   3.821   5.320
91085W        W59448  14.199  27.547   1.234
91086W        W59449  41.885  37.992   2.800
91087W        W59450   9.785  14.660   2.676
91088W        W59451  28.015   1.344   2.303
91089W        W59452  21.193  20.533   4.307
91090W        W59453  25.060  31.896  14.889
91091W        W59454  24.118  29.612  13.912
91092W        W59455  31.045   0.825   0.864
91093W        W59456  17.182  10.730   2.402
91094W        W59457  30.023  19.215  11.418
91095W        W59458  10.341  36.955   2.686
91096W        W59459   1.352  24.188   3.373
91097W        W59460  23.516  39.441  12.515
91098W        W59461  29.017   5.782  14.834
91099W        W59462  22.013  31.429   0.404
91100W        W59463  35.920  21.550   1.278
91101W        W59464  12.319  11.339  10.437
91102W        W59465   7.183  29.587  14.822
91103W        W59466  37.342  42.314  13.313
91104W        W59467  34.562  19.119   1.293
91105W        W59468  42.811  11.264   2.728
91106W        W59469  33.964  43.871  10.902
91107W        W59470  40.485   4.934   0.764
91108W        W59471  26.495  21.260  11.026
91109W        W59472  42.455   4.933   0.813
91110W        W59473  38.836  17.761   1.352
91111W        W59474  25.071   7.725   4.824
91112W        W59475  27.677  42.470   2.669
91113W        W59476  19.669  41.822   4.161
91114W        W59477  11.180  37.961   0.964
91115W        W59478  10.640  20.689  11.125
91116W        W59479  18.603  29.009  11.013
91117W        W59480  31.633  23.134   0.852
91118W        W59481  18.222   9.345  12.414
91119W        W59482   6.370  26.078  12.944
91120W        W59483  11.672  44.285   2.245
91121W        W59484  33.429  44.296  13.961
91122W        W59485  36.018  36.086   4.197
91123W        W59486  30.029  21.193   3.313
91124W        W59487   5.782  25.150  14.358
91125W        W59488  20.088  28.041   0.796
91126W        W59489  38.971  40.824   3.712
91127W        W59490  29.047  24.189  12.881
91128W        W59491  32.464  44.807  14.949
91129W        W59492  35.032  13.337  11.393
91130W        W59493  21.063   0.868  12.431
91131W        W59494  11.751  16.120  13.826
91132W        W59495   5.315  17.172  13.394
91133W        W59496  30.969   4.348  11.014
91134W        W59497  27.665  22.078  11.855
91135W        W59498  22.026  30.655   3.823
91136W        W59499   3.893  13.786   0.827
91137W        W59500   5.346  36.373   1.415
91138W        W59501   9.773  12.835  14.374
91139W        W59502   4.854  23.658  11.008
91140W        W59503  25.631  30.907  13.994
91141W        W59504   4.253  42.820  10.461
91142W        W59505  10.232  28.106  14.442
91143W        W59506  36.097  30.023  12.500
91144W        W59507  16.080   9.184  13.331
91145W        W59508  21.197   3.762  11.027
91146W        W59509  19.638   6.770  13.014
91147W        W59510  32.619   8.774  13.366
91148W        W59511  10.672   4.841   0.311
91149W        W59512  34.096  26.097   0.347
91150W        W59513  25.994   0.444  12.366
91151W        W59514  31.001  33.397  13.334
91152W        W59515  36.499  30.599   3.194
91153W        W59516  30.476  32.590   0.311
91154W        W59517   1.348   7.834  11.386
91155W        W59518  37.924  33.983   0.269
91156W        W59519   1.881  28.463  11.430
91157W        W59520  13.772  21.736   1.210
91158W        W59521  33.977  15.264  14.352
91159W        W59522   2.352   1.455  13.307
91160W        W59523   9.653  28.493   0.324
91161W        W59524   0.926  19.211   3.173
91162W        W59525  27.547  19.055   2.255
91163W        W59526  35.938  41.038  11.442
91164W        W59527  36.457  36.427  10.938
91165W        W59528  18.282   5.722   3.369
91166W        W59529   0.820  37.975   2.732
91167W        W59530  19.206  11.834  12.953
91168W        W59531  15.324  33.111   3.371
91169W        W59532  34.085  38.528  10.449
91170W        W59533  27.551  23.507  11.480
91171W        W59534  22.042   3.458   3.719
91172W        W59535  39.918  22.637   3.836
91173W        W59536   0.475  20.075  12.006
91174W        W59537  33.087  39.350   1.413
91175W        W59538  44.422   7.805   2.691
91176W        W59539   0.464  23.695   2.667
91177W        W59540  21.215  15.779   3.686
91178W        W59541  26.073  17.749  13.942
91179W        W59542   4.318  40.848  14.282
91180W        W59543  37.537  40.891  14.381
91181W        W59544  17.638  43.322  13.398
91182W        W59545   0.433  38.460   0.928
91183W        W59546   4.409  44.957   4.257
91184W        W59547  15.288  24.180  14.760
91185W        W59548   3.719  25.707   3.665
91186W        W59549  38.931  31.595  10.628
91187W        W59550  42.779  43.866   2.211
91188W        W59551  30.468  40.435  12.870
91189W        W59552  39.448   5.205   0.396
91190W        W59553  16.272  32.942   1.261
91191W        W59554  23.527   0.914   2.784
91192W        W59555   8.217  16.662  13.924
91193W        W59556  40.459  39.467   3.184
91194W        W59557  37.429  32.002   0.750
91195W        W59558  42.967  22.008  12.930
91196W        W59559  10.800  41.910  12.826
91197W        W59560  27.095  16.592  10.480
91198W        W59561   7.719   9.337   0.931
91199W        W59562  42.289  17.084  14.009
91200W        W59563  41.990  31.952  14.994
91201W        W59564  20.096  21.110  12.933
91202W        W59565  41.949  16.145   3.820
91203W        W59566   8.758  14.205   0.407
91204W        W59567  38.382  15.311   2.731
91205W        W59568  12.807  40.366  12.830
91206W        W59569  27.624   8.794  12.841
91207W        W59570  37.863  18.592  13.003
91208W        W59571  22.702  16.268   0.384
91209W        W59572  43.995  20.157  13.453
91210W        W59573  19.228   8.787  10.595
91211W        W59574  31.631  21.525  13.848
91212W        W59575  15.630   8.683  13.509
91213W        W59576  35.101  10.789  13.874
91214W        W59577   7.756  21.103   3.704
91215W        W59578  24.639  23.662   4.730
91216W        W59579  14.813  34.944   2.684
91217W        W59580  16.299  22.154  13.531
91218W        W59581   9.656  24.091   0.398
91219W        W59582   9.660  39.866   1.754
91220W        W59583  40.453  40.015   2.243
91221W        W59584  29.564   1.942   4.661
91222W        W59585  41.851  16.125  12.422
91223W        W59586  10.260  12.631  13.966
91224W        W59587  27.545  13.187   5.094
91225W        W59588  21.640  24.153  13.995
91226W        W59589  26.697   7.898  14.023
91227W        W59590  23.238  13.781   3.279
91228W        W59591  11.145  14.291  12.915
91229W        W59592  44.355  28.549   3.246
91230W        W59593  31.419  41.304   4.317
91231W        W59594  20.148  24.140  14.930
91232W        W59595  30.461  23.638  11.379
91233W        W59596  17.793  24.226  14.866
91234W        W59597  14.193   5.742  13.957
91235W        W59598  35.048  21.720   0.358
91236W        W59599  29.919   6.904  14.335
91237W        W59600   0.981  44.418  13.528
91238W        W59601  33.550   5.422  13.394
91239W        W59602   9.860  30.023  12.475
91240W        W59603  38.872  38.945   0.871
91241W        W59604  33.422  33.548   2.341
91242W        W59605  19.755  31.482   3.739
91243W        W59606   8.867   0.968   4.149
91244W        W59607  23.211  30.641   1.903
91245W        W59608   7.816  32.078   2.347
91246W        W59609  41.488  16.117  11.421
91247W        W59610  38.831  31.489   0.401
91248W        W59611   7.755  41.448   2.793
91249W        W59612  33.911  37.445   3.233
91250W        W59613  18.231  10.266  12.830
91251W        W59614  36.886  36.886   3.832
91252W        W59615  17.075  31.564  14.375
91253W        W59616  32.634  24.714  13.448
91254W        W59617  17.268   8.733   0.731
91255W        W59618   8.287   9.848   3.818
91256W        W59619  32.393  24.077  12.554
91257W        W59620  44.849   7.316   4.754
91258W        W59621  24.011   8.266   0.252
91259W        W59622  17.079  39.358   3.238
91260W        W59623  27.127   8.827   3.254
91261W        W59624   2.956  13.665   3.164
91262W        W59625  23.090  28.065  11.101
91263W        W59626  19.756  31.436  11.560
91264W        W59627  19.083  29.027   3.367
91265W        W59628   0.322   5.927   2.824
91266W        W59629  12.324  12.327   2.755
91267W        W59630  29.427  17.594   0.845
91268W        W59631  18.587   6.777   4.173
91269W        W59632  26.156  16.097   3.336
91270W        W59633  20.596  44.427   2.864
91271W        W59634  21.716  38.017  14.872
91272W        W59635  17.636  23.696  12.442
91273W        W59636  12.349   4.799   1.697
91274W        W59637  25.542  14.111   9.929
91275W        W59638  42.796  39.350  13.818
91276W        W59639  24.101  37.540   3.163
91277W        W59640  10.674  28.604  13.404
91278W        W59641  29.086  43.999  10.953
91279W        W59642   1.958   5.309   1.270
91280W        W59643  27.506  16.280  13.993
91281W        W59644  20.711  26.623  10.405
91282W        W59645   7.675   5.408  12.020
91283W        W59646  42.510   9.359   0.361
91284W        W59647  36.984   2.233   0.330
91285W        W59648  28.548   8.832  12.375
91286W        W59649  15.653  36.077  13.450
91287W        W59650  36.054  23.624   1.385
91288W        W59651  34.866  43.970  13.904
91289W        W59652  41.293   8.332   4.164
91290W        W59653  28.084  20.259   1.807
91291W        W59654  28.135   6.196  13.520
91292W        W59655  31.917  27.664  14.028
91293W        W59656  21.119  40.030   9.972
91294W        W59657   6.695  13.105   1.254
91295W        W59658  18.174   6.829   2.418
91296W        W59659  40.896  31.474   4.199
91297W        W59660  13.795  26.952   1.277
91298W        W59661   7.310  17.620  12.008
91299W        W59662  26.635   4.925  13.400
91300W        W59663  43.415  42.281  14.982
91301W        W59664  25.189   1.346   0.944
91302W        W59665  22.081   5.766   1.774
91303W        W59666  35.458  22.201   3.163
91304W        W59667  43.853   3.434   4.604
91305W        W59668   2.915  43.776   4.806
91306W        W59669  41.450  29.457   0.819
91307W        W59670  39.998  37.875   1.311
91308W        W59671  37.488  23.061   2.663
91309W        W59672  39.345  25.186  14.777
91310W        W59673  28.024  26.047   3.643
91311W        W59674   6.764  23.180   1.228
91312W        W59675  35.575   5.413   0.337
91313W        W59676   9.885  41.028   4.600
91314W        W59677   0.477   9.161  13.363
91315W        W59678   6.343  34.929  12.567
91316W        W59679  36.466  30.077   0.934
91317W        W59680   4.406  24.124   0.818
91318W        W59681  15.804  37.034  14.364
91319W        W59682   6.311  25.588   3.205
91320W        W59683   5.411  26.627   2.284
91321W        W59684  39.467  36.560   4.601
91322W        W59685   9.317  16.307  13.843
91323W        W59686  13.209   3.406  11.472
91324W        W59687  22.122   2.360  14.972
91325W        W59688  16.085   5.896  12.993
91326W        W59689   5.431  40.936   3.747
91327W        W59690  22.523  26.040   9.952
91328W        W59691  41.411  21.698  12.447
91329W        W59692  37.395   1.375   1.862
91330W        W59693  14.271  43.964   2.327
91331W        W59694  38.911   2.369   0.907
91332W        W59695   3.313  32.495  13.796
91333W        W59696  17.557   3.246   1.360
91334W        W59697   9.218  17.739   3.205
91335W        W59698  42.936   8.789   1.265
91336W        W59699  19.278  25.646   1.266
91337W        W59700  23.637  26.209   3.767
91338W        W59701  12.349  41.940  12.898
91339W        W59702  35.395  18.598  10.542
91340W        W59703  11.717  37.985   4.353
91341W        W59704  11.672  27.016  11.873
91342W        W59705   9.194  22.650   9.973
91343W        W59706  26.081  22.555   0.926
91344W        W59707   2.901   1.797   2.718
91345W        W59708  29.174   6.761  12.943
91346W        W59709  31.545  13.813   0.786
91347W        W59710  14.151  32.982   1.377
91348W        W59711  29.936  34.010  11.101
91349W        W59712  23.123   3.803   1.782
91350W        W59713  21.243  12.701   2.735
91351W        W59714  35.366  36.404  11.377
91352W        W59715  26.548  16.654  12.532
91353W        W59716   4.354  26.591  10.407
91354W        W59717  43.500  39.360   0.909
91355W        W59718  14.336  28.583   3.385
91356W        W59719  44.401  29.636   1.407
91357W        W59720  27.638  30.135   3.167
91358W        W59721  31.966  31.097  12.014
91359W        W59722  22.069  40.844   2.902
91360W        W59723  20.170  42.893  14.018
91361W        W59724   7.699   4.289  11.900
91362W        W59725   8.887   0.301   0.450
91363W        W59726  31.935  11.337   3.787
91364W        W59727  39.025  12.288   1.386
91365W        W59728  43.907  21.748   1.327
91366W        W59729  40.033  34.877   2.757
91367W        W59730  36.985  25.135   1.378
91368W        W59731  43.954  37.941  14.801
91369W        W59732  40.427   9.780   0.936
91370W        W59733  40.366   4.875  10.921
91371W        W59734   5.699   5.740   4.633
91372W        W59735  34.561   2.248  14.959
91373W        W59736  10.681  26.126  10.624
91374W        W59737  12.304  39.469   4.790
91375W        W59738  18.720  18.150   4.822
91376W        W59739  19.582  27.131   3.160
91377W        W59740   9.815  10.845   3.693
91378W        W59741  18.773  16.576  11.515
91379W        W59742  12.281  43.339  13.329
91380W        W59743  25.147  18.612   2.207
91381W        W59744  29.113  33.619  10.623
91382W        W59745  25.210  38.515  10.951
91383W        W59746   4.389   8.877   3.817
91384W        W59747  16.102   5.774   3.356
91385W        W59748  25.980   9.235  13.546
91386W        W59749  28.043  24.091  14.386
91387W        W59750  17.297  23.698   2.679
91388W        W59751   5.860  42.464   0.462
91389W        W59752   1.357  10.192  13.858
91390W        W59753  12.683  37.485   1.444
91391W        W59754  27.593   1.835   3.348
91392W        W59755  34.892  22.531  12.355
91393W        W59756  15.317  34.462  13.347
91394W        W59757   1.800  25.615   4.796
91395W        W59758  17.288  15.663   4.253
91396W        W59759  14.771  21.186   4.206
91397W        W59760  35.913  43.375   0.383
91398W        W59761  42.994  15.127   3.644
91399W        W59762  11.228  38.567   0.923
91400W        W59763  35.881   7.910  13.354
91401W        W59764  18.187  41.502   2.687
91402W        W59765  37.345  30.605   4.343
91403W        W59766  24.602  12.253  10.474
91404W        W59767  35.043  34.456  14.878
91405W        W59768   7.680  26.149  13.850
91406W        W59769   8.803  23.683  11.406
91407W        W59770   2.317  26.069   0.287
91408W        W59771  41.846  42.024  14.460
91409W        W59772  23.035  18.130   2.374
91410W        W59773  44.897   1.280  13.512
91411W        W59774  38.384  24.683  10.447
91412W        W59775  34.489  39.049  11.911
91413W        W59776  28.002  35.048  13.497
91414W        W59777  18.680  15.798  13.895
91415W        W59778  16.727   9.867   0.877
91416W        W59779  25.615  40.001  11.078
91417W        W59780  42.511  25.064   2.828
91418W        W59781  42.887  15.155   4.801
91419W        W59782  37.060  15.697  14.382
91420W        W59783  30.489  15.621  13.976
91421W        W59784  31.909  15.801   1.715
91422W        W59785  16.582   3.441  13.370
91423W        W59786   2.386  15.591  10.894
91424W        W59787  12.296   2.271  12.446
91425W        W59788   0.430  39.330   4.277
91426W        W59789  41.409   7.713   0.372
91427W        W59790  20.550  15.603  13.049
91428W        W59791   6.315   3.787   1.734
91429W        W59792   7.762  20.638  14.942
91430W        W59793  43.392  32.119  12.420
91431W        W59794  23.707   4.811   3.267
91432W        W59795  23.536   0.801  12.426
91433W        W59796  17.281  36.456  10.629
91434W        W59797  10.303  20.713  10.587
91435W        W59798  14.120  34.596   4.160
91436W        W59799  30.947   3.884   1.210
91437W        W59800  22.235   2.799  11.390
91438W        W59801  31.526  18.089   4.645
91439W        W59802  19.236  15.109  12.512
91440W        W59803  26.497  29.174   1.265
91441W        W59804  16.681  24.080  14.455
91442W        W59805  42.527  35.901  12.346
91443W        W59806   5.764  27.100   1.867
91444W        W59807  26.688  44.477   3.321
91445W        W59808  17.558  27.163   3.365
91446W        W59809   8.222  13.811   4.731
91447W        W59810  32.524  37.864   1.871
91448W        W59811  29.156   8.254   4.658
91449W        W59812  41.535   9.157   4.727
91450W        W59813  10.819  23.014  11.487
91451W        W59814   9.373  44.364   3.348
91452W        W59815  38.983  10.840   0.957
91453W        W59816  23.570  12.636   1.337
91454W        W59817  36.516  20.646  14.905
91455W        W59818  38.379  17.580   1.282
91456W        W59819  14.170  18.726  11.600
91457W        W59820   2.309  32.419  13.064
91458W        W59821  25.039  38.515   3.782
91459W        W59822  24.648  32.399  12.909
91460W        W59823   0.895  41.455   9.976
91461W        W59824  31.523  33.897   4.335
91462W        W59825  28.953   7.209  13.340
91463W        W59826  28.472  18.256   3.154
91464W        W59827  22.170  40.808  11.117
91465W        W59828  27.020   5.200  11.378
91466W        W59829  15.090   9.663  14.002
91467W        W59830   4.924  16.159  10.497
91468W        W59831  34.444  40.446   2.855
91469W        W59832  25.642  25.205   3.387
91470W        W59833  40.855  42.450  13.356
91471W        W59834  16.750  37.882   4.254
91472W        W59835  19.615  32.888  12.536
91473W        W59836  19.761  43.908   4.720
91474W        W59837  24.663  32.936  12.009
91475W        W59838  22.175  38.409   3.784
91476W        W59839  34.504  11.357   2.829
91477W        W59840   6.184  37.931   1.413
91478W        W59841  25.560  38.883  13.340
91479W        W59842  26.126  17.712  13.334
91480W        W59843  37.027  37.831   0.765
91481W        W59844   4.293  21.248   0.296
91482W        W59845  15.638   7.897   0.936
91483W        W59846  23.166  18.682  10.529
91484W        W59847  22.014  31.074   3.790
91485W        W59848  41.430  16.636   1.749
91486W        W59849  33.488   7.416   0.770
91487W        W59850  10.640  35.975   1.254
91488W        W59851  20.634  38.549  14.359
91489W        W59852  17.259  35.506   0.361
91490W        W59853   4.436  10.869   2.200
91491W        W59854   4.820  39.319  11.405
91492W        W59855  12.333  37.539   4.317
91493W        W59856  10.142   8.389  12.544
91494W        W59857  39.407  41.878   2.857
91495W        W59858  27.183  42.971   2.384
91496W        W59859   3.304   1.351  14.832
91497W        W59860  31.958  44.397  11.592
91498W        W59861  28.959  30.998  10.573
91499W        W59862  22.209  34.012   0.370
91500W        W59863  26.684  34.865   3.819
91501W        W59864   5.348   7.388   2.674
91502W        W59865  34.957  10.760  10.622
91503W        W59866  37.464  30.038   1.428
91504W        W59867  21.228  43.781   1.921
91505W        W59868  22.729  15.679   3.806
91506W        W59869   4.767   7.710   2.385
91507W        W59870  18.660  42.353  13.011
91508W        W59871   3.378  37.551  10.470
91509W        W59872  34.080   7.734  12.436
91510W        W59873  42.498  16.198  11.597
91511W        W59874  35.522  15.693  11.029
91512W        W59875  19.683  15.212  13.383
91513W        W59876  37.971  14.115  14.774
91514W        W59877   3.871  32.609  14.944
91515W        W59878   7.808   7.338   4.126
91516W        W59879  36.926  27.968   3.781
91517W        W59880  25.039   0.405  12.488
91518W        W59881   7.905   2.846   0.784
91519W        W59882  26.005  33.514   4.631
91520W        W59883   7.741  37.387   2.394
91521W        W59884  44.393  13.115  13.022
91522W        W59885  25.057  25.082  12.346
91523W        W59886   3.275   5.787   0.817
91524W        W59887   9.700  28.125   3.671
91525W        W59888  17.690  13.311   3.773
91526W        W59889  34.602  26.543  12.388
91527W        W59890   6.789  35.061  13.912
91528W        W59891  21.644  25.653  11.385
91529W        W59892  30.920   6.894   4.676
91530W        W59893  23.555  34.903   0.733
91531W        W59894  42.418  28.999  10.976
91532W        W59895  25.097  44.839  11.037
91533W        W59896   7.912  28.084   3.635
91534W        W59897  33.489  25.051   4.227
91535W        W59898  40.333  37.078   0.822
91536W        W59899  32.580  43.341  13.891
91537W        W59900  16.609  42.949   4.291
91538W        W59901  18.274  38.480   0.427
91539W        W59902   9.319  43.881   0.901
91540W        W59903   6.784  37.547   2.383
91541W        W59904  25.639  22.161  13.537
91542W        W59905  18.099  29.050  13.521
91543W        W59906  28.978  20.239   3.182
91544W        W59907  33.522  15.170   2.334
91545W        W59908  37.501  37.527  13.980
91546W        W59909   5.273  28.608  12.410
91547W        W59910  22.647  24.016  12.368
91548W        W59911  23.056  22.519   2.396
91549W        W59912  31.572  17.285   4.639
91550W        W59913  41.410  17.709   2.844
91551W        W59914   8.778  32.055   2.364
91552W        W59915  37.895  10.681   4.710
91553W        W59916  13.343  10.745  11.408
91554W        W59917  15.758   3.308   9.957
91555W        W59918   8.206  11.834  11.013
91556W        W59919  41.931  26.087  11.462
91557W        W59920  38.033  30.130  13.373
91558W        W59921  14.825   7.785  14.400
91559W        W59922  39.466  26.476  10.909
91560W        W59923  13.155  32.489   2.237
91561W        W59924   9.203  42.314  11.971
91562W        W59925  31.438  30.493  10.890
91563W        W59926  39.542  19.627  14.449
91564W        W59927  24.490  11.288  10.953
91565W        W59928  14.148   2.356   2.711
91566W        W59929   0.816   6.241  12.954
91567W        W59930  18.054  43.021  13.953
91568W        W59931  13.836  12.253   4.834
91569W        W59932   7.249   8.253  14.494
91570W        W59933  37.553   3.931   2.380
91571W        W59934  38.397  21.638   0.331
91572W        W59935  40.965  39.932   1.808
91573W        W59936  35.464  17.198   0.390
91574W        W59937  16.091  14.735   2.664
91575W        W59938  14.806  13.761  14.929
91576W        W59939   2.738  31.485  13.032
91577W        W59940  11.373  26.477  12.983
91578W        W59941   1.810  22.716   4.151
91579W        W59942  10.875  32.048  12.839
91580W        W59943  32.463  13.710  13.866
91581W        W59944  24.553  31.962  11.863
91582W        W59945  32.432  12.684  14.803
91583W        W59946  17.183  34.093  12.403
91584W        W59947  40.862  22.706  12.038
91585W        W59948  20.068  40.372   0.852
91586W        W59949  33.484  32.140   0.338
91587W        W59950  23.173   5.434   2.666
91588W        W59951  26.124  29.505   1.829
91589W        W59952  16.104  37.872   0.468
91590W        W59953  33.443  17.610  13.929
91591W        W59954   1.936  32.467  12.396
91592W        W59955  38.870  15.236   5.206
91593W        W59956  19.776   2.306  14.463
91594W        W59957  10.367   1.801   9.983
91595W        W59958  29.563   3.788   1.871
91596W        W59959  24.227  17.658  10.967
91597W        W59960  17.567  19.587   2.376
91598W        W59961  18.655  42.334  11.879
91599W        W59962   3.353   8.312   1.223
91600W        W59963  15.823  16.100  13.911
91601W        W59964  37.862   9.381   1.744
91602W        W59965  38.485  10.148   2.686
91603W        W59966  38.870   9.811  14.995
91604W        W59967  21.514   1.805   3.336
91605W        W59968   6.845  22.655  12.352
91606W        W59969   6.784  41.851   0.255
91607W        W59970  12.140  20.625  12.499
91608W        W59971   9.812  33.991   2.845
91609W        W59972  36.858   9.767  11.985
91610W        W59973  41.292  43.789  10.587
91611W        W59974  24.036  42.012  13.310
91612W        W59975  31.109  23.698   1.793
91613W        W59976  14.264   6.339  14.397
91614W        W59977  18.108  17.634  13.519
91615W        W59978  29.538  16.647  11.914
91616W        W59979   3.340  18.733  14.963
91617W        W59980  43.773  29.923  11.039
91618W        W59981   4.325   6.705  10.990
91619W        W59982  16.699  21.692  11.867
91620W        W59983  44.876   9.758   0.417
91621W        W59984  31.551  34.523   3.742
91622W        W59985  34.492  20.198  12.832
91623W        W59986  31.110  28.463   5.165
91624W        W59987  16.604  19.119  11.450
91625W        W59988  34.022  20.135   0.856
91626W        W59989  19.169  29.440   1.862
91627W        W59990  26.519   0.271   0.291
91628W        W59991  36.879  37.932  10.462
91629W        W59992   8.214   9.293   3.153
91630W        W59993  20.077  22.084  13.510
91631W        W59994  28.496  28.034   1.440
91632W        W59995  40.806  11.821   4.272
91633W        W59996  33.515  41.883   0.367
91634W        W59997   6.842   1.362   2.831
91635W        W59998  17.636   8.820  12.515
91636W        W59999  42.874  18.678   0.394
91637W        W60000  33.574  11.664   2.368
91638W        W60001   2.417  29.100  12.951
91639W        W60002  41.012  28.106   2.835
91640W        W60003  40.958  33.047  11.915
91641W        W60004  44.351   6.827  13.345
91642W        W60005  21.215  26.604   0.304
91643W        W60006  41.948   9.294  12.882
91644W        W60007  18.186  35.946  10.902
91645W        W60008  37.985  20.233  14.386
91646W        W60009  42.365  13.328   3.846
91647W        W60010  30.975   5.726   2.717
91648W        W60011   7.205  32.004   3.665
91649W        W60012  16.304  40.461   0.889
91650W        W60013  20.529  29.645   2.256
91651W        W60014  20.549  20.627   3.818
91652W        W60015  44.872  43.295  11.074
91653W        W60016   4.827  31.087  12.893
91654W        W60017  43.988  10.362   2.365
91655W        W60018   2.272  20.536  11.857
91656W        W60019   2.955   1.952  13.064
91657W        W60020   9.678  14.789  11.092
91658W        W60021  16.306   0.988  14.890
91659W        W60022   8.291  44.275  11.863
91660W        W60023  29.039  39.869   3.770
91661W        W60024  18.709  34.524   1.266
91662W        W60025  36.084  43.890  14.464
91663W        W60026  40.003  25.531  12.562
91664W        W60027  37.853  31.441   2.818
91665W        W60028  26.560   1.298  12.971
91666W        W60029  23.072  22.185   4.725
91667W        W60030  35.949  13.346  13.840
91668W        W60031  36.391   9.270   2.243
91669W        W60032   0.352   8.885   2.416
91670W        W60033   1.324  31.493  14.955
91671W        W60034  20.594  26.515  11.084
91672W        W60035  15.681   5.297   5.199
91673W        W60036   3.241   4.364   3.384
91674W        W60037  34.379  36.532   3.222
91675W        W60038  12.845   5.301   2.747
91676W        W60039  35.558  44.477   3.649
91677W        W60040  38.890  41.872   2.673
91678W        W60041  43.862  30.455  14.030
91679W        W60042  36.073   7.709  12.047
91680W        W60043  17.248  15.253   0.926
91681W        W60044  29.578  42.510  11.107
91682W        W60045  15.630   5.810  10.945
91683W        W60046  13.600  35.071   3.219
91684W        W60047  18.649  26.991  12.923
91685W        W60048  40.917   0.903  10.416
91686W        W60049  23.630   3.933  13.059
91687W        W60050  17.225   4.369  13.353
91688W        W60051  32.132  42.923  10.565
91689W        W60052  28.598  42.919  10.466
91690W        W60053  10.797  23.552  12.894
91691W        W60054  12.156  10.270  10.442
91692W        W60055  12.746   6.809  12.052
91693W        W60056   6.748  39.895  12.472
91694W        W60057   8.354   2.402  12.038
91695W        W60058  37.359  21.550  11.414
91696W        W60059   3.758  27.516   2.901
91697W        W60060  25.608  31.582  14.931
91698W        W60061  36.855  11.762  14.878
91699W        W60062  44.867  14.703   3.288
91700W        W60063  35.475  17.568  10.891
91701W        W60064  31.912  26.480   1.704
91702W        W60065   4.251  32.929  10.476
91703W        W60066   1.263  13.118   4.621
91704W        W60067  10.339  17.651  13.041
91705W        W60068  40.812   2.905   3.182
91706W        W60069  35.059   2.450   4.145
91707W        W60070  28.513  16.665   9.613
91708W        W60071  44.409  35.874   4.188
91709W        W60072  30.546  10.186   0.330
91710W        W60073  25.641  11.672   1.752
91711W        W60074   7.793  37.470  11.086
91712W        W60075  22.578  13.799  11.396
91713W        W60076  36.497  37.046  10.960
91714W        W60077  11.862  26.073   2.840
91715W        W60078   8.256  27.640  12.006
91716W        W60079  31.132  27.178  11.410
91717W        W60080  21.051   2.870  14.488
91718W        W60081   9.192  22.680   1.805
91719W        W60082  12.294  17.297  12.906
91720W        W60083   8.748  29.573  13.846
91721W        W60084  23.718  35.936   4.240
91722W        W60085  15.682  39.905  12.368
91723W        W60086  16.264  26.159  13.382
91724W        W60087  28.522  23.098  10.417
91725W        W60088   1.830  29.608  13.896
91726W        W60089   5.735  29.083  10.974
91727W        W60090  37.846  38.885   3.348
91728W        W60091  26.999  24.510  13.011
91729W        W60092  16.603  31.431   2.201
91730W        W60093   6.306  22.519   4.155
91731W        W60094  40.338  16.728  14.887
91732W        W60095   9.310  26.597   4.698
91733W        W60096  39.550  36.397   1.756
91734W        W60097   1.394   4.403  14.949
91735W        W60098  44.771  42.893  13.547
91736W        W60099  16.160  20.695  13.863
91737W        W60100   1.472  40.548  14.880
91738W        W60101   1.887  40.971   4.274
91739W        W60102  10.878  23.733   0.339
91740W        W60103  14.601  30.489  12.055
91741W        W60104  41.495  12.338  13.483
91742W        W60105  22.231  13.836  14.429
91743W        W60106  43.885   0.294  11.028
91744W        W60107  26.695  39.920  11.457
91745W        W60108   3.399   2.938  12.402
91746W        W60109   2.767  42.431   1.393
91747W        W60110  42.021   6.261  14.914
91748W        W60111  22.588   3.316   4.791
91749W        W60112  41.850  33.501   4.258
91750W        W60113  44.502  42.385  14.333
91751W        W60114  13.271  26.585  13.828
91752W        W60115   3.898  15.626  12.887
91753W        W60116  34.884   7.901   3.866
91754W        W60117  11.258  24.706  10.434
91755W        W60118  26.641   8.862  10.450
91756W        W60119  10.875   1.756  13.056
91757W        W60120   3.766  39.537  14.812
91758W        W60121   3.271   8.247  12.012
91759W        W60122  35.446  13.608  11.429
91760W        W60123  23.224  36.439   4.190
91761W        W60124  43.964  42.943  11.041
91762W        W60125  37.442  19.730   3.789
91763W        W60126   3.899  10.692  12.962
91764W        W60127  34.404  39.931  14.937
91765W        W60128   3.876  23.208  14.026
91766W        W60129  38.363  11.799  13.055
91767W        W60130  27.112  38.514  12.486
91768W        W60131  13.276  11.705   0.904
91769W        W60132  31.621  36.396   2.770
91770W        W60133   2.813  20.595  12.392
91771W        W60134  35.558  43.945  13.545
91772W        W60135  37.047  29.443  10.517
91773W        W60136   2.377  43.801   9.967
91774W        W60137   4.351   3.232  12.422
91775W        W60138  21.627   4.858   3.837
91776W        W60139  15.634   5.857   2.668
91777W        W60140  30.425   2.753   1.804
91778W        W60141  15.620  34.092   5.212
91779W        W60142   7.210  44.392  13.046
91780W        W60143  11.212  23.071  11.539
91781W        W60144  38.063  43.272  14.504
91782W        W60145   1.805  34.527  11.608
91783W        W60146   0.863   5.827  12.065
91784W        W60147  29.594  24.488   0.836
91785W        W60148  25.468  24.193  11.488
91786W        W60149  10.783  36.543  10.927
91787W        W60150   7.227  18.745  12.007
91788W        W60151  36.446  10.741  12.089
91789W        W60152  15.309   0.429  13.519
91790W        W60153   7.731  41.497   0.884
91791W        W60154   3.884   9.736  11.010
91792W        W60155  29.170   6.837   4.742
91793W        W60156  18.177  20.579  14.281
91794W        W60157   7.765  21.565   4.759
91795W        W60158  22.650  17.184   0.405
91796W        W60159   6.185  12.853  11.584
91797W        W60160  36.004  14.664   3.706
91798W        W60161  11.196  32.449   3.745
91799W        W60162  21.671  28.945   0.954
91800W        W60163  32.575  44.931   5.180
91801W        W60164   8.243   8.306  12.916
91802W        W60165  29.125  23.548  13.896
91803W        W60166  10.787  11.216   1.446
91804W        W60167  13.282  33.903  10.967
91805W        W60168  22.687  30.091   4.651
91806W        W60169  35.460  24.498   0.339
91807W        W60170   1.395  28.166   2.681
91808W        W60171  39.517  16.112   2.238
91809W        W60172  14.720  44.918   1.812
91810W        W60173  11.303   4.442  13.847
91811W        W60174  21.197  23.531  10.438
91812W        W60175  26.166  35.425  14.023
91813W        W60176  14.831  29.975   4.161
91814W        W60177   9.804  15.705  11.924
91815W        W60178   9.731  24.175  12.503
91816W        W60179  20.529  15.241  13.420
91817W        W60180  10.747  14.210   4.809
91818W        W60181   6.230  19.551   1.837
91819W        W60182   0.479  34.562  12.565
91820W        W60183  10.163  44.314   4.316
91821W        W60184  37.036  17.281   1.872
91822W        W60185  33.543  22.510   3.798
91823W        W60186  42.972  35.404   4.788
91824W        W60187  29.531  29.667   2.206
91825W        W60188   1.247  39.961  11.894
91826W        W60189  24.713  32.495  13.815
91827W        W60190  26.102  28.001   0.788
91828W        W60191  15.198  24.016   0.964
91829W        W60192   6.417  12.157   4.210
91830W        W60193  22.031  19.541  14.900
91831W        W60194   3.378  16.786  13.795
91832W        W60195   0.319  14.290  11.413
91833W        W60196  12.745  10.691   0.845
91834W        W60197  40.375  34.101  13.416
91835W        W60198  16.265  36.578   2.745
91836W        W60199   0.923   5.233  12.349
91837W        W60200  28.931  41.900  11.993
91838W        W60201  18.609  27.102   3.637
91839W        W60202  26.585  36.511   4.662
91840W        W60203  28.041  29.581   0.820
91841W        W60204   4.834   8.227   2.899
91842W        W60205  24.070  31.416  13.017
91843W        W60206  20.162   1.311  14.960
91844W        W60207   3.237  37.082  14.844
91845W        W60208  19.223   3.241   4.248
91846W        W60209  15.214  15.325   0.885
91847W        W60210  29.996  29.644  12.433
91848W        W60211  16.221   4.275   9.437
91849W        W60212   5.223   9.291   1.226
91850W        W60213  43.282  19.578   4.332
91851W        W60214   8.164  38.346  12.502
91852W        W60215  29.986   3.295   3.653
91853W        W60216  30.044   3.793  12.395
91854W        W60217  23.491  28.077   1.707
91855W        W60218  25.137  19.053   3.261
91856W        W60219   4.799  31.981  12.003
91857W        W60220  31.959  26.072  10.924
91858W        W60221  22.738   5.403  12.424
91859W        W60222  30.151  21.227  13.060
91860W        W60223  33.623   9.673   4.138
91861W        W60224  29.954  41.444  11.388
91862W        W60225   9.847  39.392   1.856
91863W        W60226  33.601  27.088   2.336
91864W        W60227  37.887  27.120   4.207
91865W        W60228  42.336  13.721   1.823
91866W        W60229  12.123  33.045  14.442
91867W        W60230  23.585  19.672   4.660
91868W        W60231  31.409  31.054  14.803
91869W        W60232  23.148  34.963   3.337
91870W        W60233  14.696  42.990  11.074
91871W        W60234  15.780  28.953  11.549
91872W        W60235  42.973   0.964  10.526
91873W        W60236  26.703   0.953   1.372
91874W        W60237  42.990   5.753   4.252
91875W        W60238  20.082  41.514   4.760
91876W        W60239  36.507  17.073   4.644
91877W        W60240  29.645  29.018   2.303
91878W        W60241   4.909  21.539   2.698
91879W        W60242  26.571  12.648   5.225
91880W        W60243  36.478  32.921   2.683
91881W        W60244   2.847  18.661  13.809
91882W        W60245  24.634  19.281   4.204
91883W        W60246  27.625  24.643   4.660
91884W        W60247  33.521  10.714   3.746
91885W        W60248  17.573  39.956  11.870
91886W        W60249   0.963  15.713   3.260
91887W        W60250  13.314  26.965   3.239
91888W        W60251  38.482  23.076  14.457
91889W        W60252   5.863   1.257   0.769
91890W        W60253   1.270  12.723  14.378
91891W        W60254  10.852   7.826   0.392
91892W        W60255  28.025  38.838   3.301
91893W        W60256   7.378  36.078  10.578
91894W        W60257  40.373  22.169  11.013
91895W        W60258  14.710  20.147   3.674
91896W        W60259  34.461  33.413  10.513
91897W        W60260  15.734  32.067   5.133
91898W        W60261  10.847   1.248  12.924
91899W        W60262  18.616   7.748   4.682
91900W        W60263   7.883  17.683   2.203
91901W        W60264  30.134  41.351   4.124
91902W        W60265  31.482  16.203  13.324
91903W        W60266  22.744   1.901   0.910
91904W        W60267   2.337   2.242  10.980
91905W        W60268  43.280   1.883   1.217
91906W        W60269  27.164  39.048  14.759
91907W        W60270   2.820  37.447  10.911
91908W        W60271   7.390  24.037   3.786
91909W        W60272  29.638  42.811  10.930
91910W        W60273  35.573  29.026   3.715
91911W        W60274  12.200   7.227  14.805
91912W        W60275  15.608   0.249  10.557
91913W        W60276  20.049  37.899  12.506
91914W        W60277   7.197  41.344   2.712
91915W        W60278   4.838   6.691   2.873
91916W        W60279  18.550  37.080   2.697
91917W        W60280  41.532  30.459  14.301
91918W        W60281   0.251   4.425   0.769
91919W        W60282  33.607  43.873   3.231
91920W        W60283  17.220  21.635  13.792
91921W        W60284   8.716   4.909   1.275
91922W        W60285  20.103   4.762   1.234
91923W        W60286  32.010  16.198   4.647
91924W        W60287  44.282  23.603  11.061
91925W        W60288   1.973   7.730   0.920
91926W        W60289  24.059   9.239   2.191
91927W        W60290  36.410   5.389  14.351
91928W        W60291  30.600  40.840   3.737
91929W        W60292  10.317  33.909  13.480
91930W        W60293  18.280  14.792  14.275
91931W        W60294  42.447  33.062  11.441
91932W        W60295  29.122  22.060   2.809
91933W        W60296  13.829  13.229   1.856
91934W        W60297  17.606  10.715   4.228
91935W        W60298   8.789  29.100  14.768
91936W        W60299  36.022  19.049  14.278
91937W        W60300  36.015  31.436  11.006
91938W        W60301  23.714  23.060  10.459
91939W        W60302   6.367  39.547  12.380
91940W        W60303  32.458  29.430   9.975
91941W        W60304  27.491  34.951  12.823
91942W        W60305  40.801  38.951  11.569
91943W        W60306  28.525  16.314  13.423
91944W        W60307  29.434   9.878   1.425
91945W        W60308   3.934   3.263  13.415
91946W        W60309   7.846  20.750  10.513
91947W        W60310  41.481  38.332   0.251
91948W        W60311  13.699  28.469   3.371
91949W        W60312  37.533  16.611   0.781
91950W        W60313  24.483  17.263   0.894
91951W        W60314  29.584  27.040   1.810
91952W        W60315  34.522  20.548  14.851
91953W        W60316  16.146  31.003   1.431
91954W        W60317  17.099  22.116  11.611
91955W        W60318  20.624   4.434  12.437
91956W        W60319  12.178  15.635   1.421
91957W        W60320  43.868  22.118  10.466
91958W        W60321   7.312   7.257  11.376
91959W        W60322  17.105  12.828   4.780
91960W        W60323  39.460  17.561   3.782
91961W        W60324  23.653   2.263  10.506
91962W        W60325   4.756   6.817  10.456
91963W        W60326   1.428   1.481  13.874
91964W        W60327   3.775  20.239   3.705
91965W        W60328  35.105   2.811   4.638
91966W        W60329  34.997  17.718  14.917
91967W        W60330  35.966  37.883  10.523
91968W        W60331   7.777  41.825   0.878
91969W        W60332  25.486  27.149  12.454
91970W        W60333   5.849  26.510  14.016
91971W        W60334  28.548  17.246  14.001
91972W        W60335  27.608  32.942   2.249
91973W        W60336  35.098  41.325   5.208
91974W        W60337  11.832   4.850   3.660
91975W        W60338  28.092  18.599  10.468
91976W        W60339  17.704   3.337  12.378
91977W        W60340   2.831   0.899  10.024
91978W        W60341  15.806  21.073  10.598
91979W        W60342   8.396   8.335   2.847
91980W        W60343  18.771  26.500  11.037
91981W        W60344  20.560   8.200  11.905
91982W        W60345  36.087  19.567   1.442
91983W        W60346   8.365  12.120   3.196
91984W        W60347   2.390   9.681  12.880
91985W        W60348  23.036  20.033  11.127
91986W        W60349   0.824  29.579   3.206
91987W        W60350  38.942  11.819   2.863
91988W        W60351  22.656  44.899   2.295
91989W        W60352   6.758  14.141   2.201
91990W        W60353  43.948   1.897   0.253
91991W        W60354  30.514  38.485  10.450
91992W        W60355  28.083   0.965   1.754
91993W        W60356  42.365  44.483  14.917
91994W        W60357  20.522  24.038  13.822
91995W        W60358  25.025   1.735   1.234
91996W        W60359  36.897  27.072   1.728
91997W        W60360   7.819  38.415  12.825
91998W        W60361  32.971  33.387   3.337
91999W        W60362  35.044   1.974   5.157
92000W        W60363  41.443  26.514  13.932
92001W        W60364  17.083  13.175   0.921
92002W        W60365   3.948  34.991   1.328
92003W        W60366  43.393  25.576  10.512
92004W        W60367   0.388  35.441  10.949
92005W        W60368  36.985  43.413  14.400
92006W        W60369   8.228  44.343   4.239
92007W        W60370  32.907  37.039  13.904
92008W        W60371  27.942  13.784  14.810
92009W        W60372  17.795  30.531  10.586
92010W        W60373  18.724  29.137   0.737
92011W        W60374  31.644  22.521  14.922
92012W        W60375  20.587  10.319   2.302
92013W        W60376   4.329  39.039   2.801
92014W        W60377  16.803  20.065  11.374
92015W        W60378  16.228  43.006  13.348
92016W        W60379   3.423  32.942  10.484
92017W        W60380  22.056   4.731   1.278
92018W        W60381   0.777   8.852  14.947
92019W        W60382  19.635   4.336  12.089
92020W        W60383  37.524  13.145  10.416
92021W        W60384  18.221  41.350  12.447
92022W        W60385   1.962  24.113   3.167
92023W        W60386  25.135  14.754   3.720
92024W        W60387  44.866  10.156  12.487
92025W        W60388  28.960   6.184   4.271
92026W        W60389  35.601  10.706   1.450
92027W        W60390  36.954  26.995   2.353
92028W        W60391  21.100  31.471  12.464
92029W        W60392   7.821  29.136  14.789
92030W        W60393  44.981   9.844  11.945
92031W        W60394  12.297  35.895   4.304
92032W        W60395  33.535  31.984  11.455
92033W        W60396  33.598  12.353  13.502
92034W        W60397  15.182  19.618  10.632
92035W        W60398  34.469  10.765   1.355
92036W        W60399  25.015  38.548   0.447
92037W        W60400   9.662  33.077   4.253
92038W        W60401  22.722  29.512   4.664
92039W        W60402  32.604   2.396   0.918
92040W        W60403  17.290  17.229   0.296
92041W        W60404  11.753  12.683  11.122
92042W        W60405  22.743  23.994   1.912
92043W        W60406  37.564  37.362  12.576
92044W        W60407   1.790   4.260  13.315
92045W        W60408  23.527  21.051  11.995
92046W        W60409  34.865  21.148   2.398
92047W        W60410  24.025  28.470   3.207
92048W        W60411  29.963  35.368   3.788
92049W        W60412   8.392  34.000   3.716
92050W        W60413  12.275  30.962  12.343
92051W        W60414  23.639  26.061  10.937
92052W        W60415  12.208  19.078  13.334
92053W        W60416  14.672  40.407   1.841
92054W        W60417  26.090  42.455  11.943
92055W        W60418  17.557   2.886   2.401
92056W        W60419  33.617  40.976   2.785
92057W        W60420  18.184  43.977  13.496
92058W        W60421  30.014   1.806  13.837
92059W        W60422  32.520  21.120  13.429
92060W        W60423   9.248  11.194  10.978
92061W        W60424  40.484  34.600   1.913
92062W        W60425  21.198  31.038  11.001
92063W        W60426  37.386  42.816  12.501
92064W        W60427  18.172   4.732   1.868
92065W        W60428  22.666  11.694  10.967
92066W        W60429  30.562  21.257  10.577
92067W        W60430  14.280  17.195  10.527
92068W        W60431   4.370  13.206   0.452
92069W        W60432  29.433   5.302   4.636
92070W        W60433  36.351  27.559   4.665
92071W        W60434  21.669   3.750  14.479
92072W        W60435  31.471  17.634   0.947
92073W        W60436   7.822  35.906   4.765
92074W        W60437  40.458  21.156   1.260
92075W        W60438  38.862   8.708  11.883
92076W        W60439  29.644  16.240   3.666
92077W        W60440   5.704  37.056  13.826
92078W        W60441   0.965  25.701   4.725
92079W        W60442  28.180   9.205  14.382
92080W        W60443  22.675  17.627   2.703
92081W        W60444  38.927  36.491  11.533
92082W        W60445  32.056   5.262  13.518
92083W        W60446  16.743  14.777  14.796
92084W        W60447  38.348  37.521  11.555
92085W        W60448  41.433   9.826  11.908
92086W        W60449   4.814  43.817  12.419
92087W        W60450   0.970  34.468  10.935
92088W        W60451  40.036  15.725   3.665
92089W        W60452  28.668  20.763  11.126
92090W        W60453  44.863  23.198   2.209
92091W        W60454  38.916  44.331   2.784
92092W        W60455   9.655  36.474  11.452
92093W        W60456   3.710   3.369   1.411
92094W        W60457  43.406  44.794  14.386
92095W        W60458  41.454  18.286  13.428
92096W        W60459  25.590  11.633   3.221
92097W        W60460  36.567   5.294  11.536
92098W        W60461  39.451  41.860  14.834
92099W        W60462  20.736  12.162  10.476
92100W        W60463  12.674   1.349   1.712
92101W        W60464   3.763  10.340   1.743
92102W        W60465  13.126  27.104  14.391
92103W        W60466  29.625   7.275  12.965
92104W        W60467   2.425  37.450   0.870
92105W        W60468   5.337  30.472  14.315
92106W        W60469  12.298  37.887   0.295
92107W        W60470  27.581  22.038   3.816
92108W        W60471  28.987  11.270  12.399
92109W        W60472  41.333  38.007  12.370
92110W        W60473   7.211  37.018  12.447
92111W        W60474   3.822  28.446  11.486
92112W        W60475  41.415   8.761   1.794
92113W        W60476  33.983  44.974  14.424
92114W        W60477  13.226  35.481  13.820
92115W        W60478  22.131  13.686  10.444
92116W        W60479  34.049  43.481   2.246
92117W        W60480  15.797  12.856  13.921
92118W        W60481   5.703  31.034   1.829
92119W        W60482  21.101  10.867   0.922
92120W        W60483  42.331  36.393   2.882
92121W        W60484   8.357  28.109   2.826
92122W        W60485  30.586   6.886  14.024
92123W        W60486  44.385  18.106  10.640
92124W        W60487  19.557  40.356   1.367
92125W        W60488  15.631   5.399  11.942
92126W        W60489  38.564  21.143   1.445
92127W        W60490  19.058  37.062  10.435
92128W        W60491   1.479   3.770  10.963
92129W        W60492  12.819  34.969  14.411
92130W        W60493   4.373  28.574  14.820
92131W        W60494  33.525  39.334   0.955
92132W        W60495  11.213  17.150  10.566
92133W        W60496  16.584  21.730   2.310
92134W        W60497   4.404  20.042   3.240
92135W        W60498  25.543  43.976  12.395
92136W        W60499  41.972  18.265   2.266
92137W        W60500  21.633  18.612  13.458
92138W        W60501  30.595  14.788  10.486
92139W        W60502  41.338   8.899   3.755
92140W        W60503   4.762  40.381   4.253
92141W        W60504   8.842  36.577  11.093
92142W        W60505  15.100   0.850   3.792
92143W        W60506  20.584  29.091  12.571
92144W        W60507  39.027   3.859   1.354
92145W        W60508   9.210   2.762   1.856
92146W        W60509  29.920  19.694   2.778
92147W        W60510  42.439  13.108   4.344
92148W        W60511   8.847  18.599  11.601
92149W        W60512   4.738  29.459   1.364
92150W        W60513  38.415   7.855  11.535
92151W        W60514  44.825  10.735   2.741
92152W        W60515  13.778  28.476   0.967
92153W        W60516  32.001  38.851   0.358
92154W        W60517   9.889   2.354  13.887
92155W        W60518  10.187  24.664  12.405
92156W        W60519  37.477  37.914  14.014
92157W        W60520  16.691   6.207   1.914
92158W        W60521  16.107  38.558   4.349
92159W        W60522  29.479  39.911  11.034
92160W        W60523  39.021  25.044  12.570
92161W        W60524  14.640  35.981   1.372
92162W        W60525   3.399  34.379  10.470
92163W        W60526  44.802   2.376   1.747
92164W        W60527  22.633  25.489   2.861
92165W        W60528  41.971  12.265   4.270
92166W        W60529  13.798  24.993  12.998
92167W        W60530  40.926  24.037  12.950
92168W        W60531  34.020   8.678  13.054
92169W        W60532  41.517  35.904   5.120
92170W        W60533  22.187   9.645  12.578
92171W        W60534  31.496   5.229  12.350
92172W        W60535  14.160   5.931  14.874
92173W        W60536  41.900  33.521  10.442
92174W        W60537  19.166  27.576  14.935
92175W        W60538   9.257  12.760  12.056
92176W        W60539  44.329  30.626  10.586
92177W        W60540  43.864  33.529   0.821
92178W        W60541  40.003  26.994   4.760
92179W        W60542  11.721   2.446  11.043
92180W        W60543  28.943   1.903   4.119
92181W        W60544  35.568  14.156   5.180
92182W        W60545   3.794  40.022  14.790
92183W        W60546  12.280  18.090   2.213
92184W        W60547  28.084  15.678  10.020
92185W        W60548   5.334  44.940   2.855
92186W        W60549   5.386  28.593  14.426
92187W        W60550  37.034  15.084  13.421
92188W        W60551  43.018  43.273   1.323
92189W        W60552  38.840  23.199  10.593
92190W        W60553   3.886  31.991   2.773
92191W        W60554  40.905  11.159  13.527
92192W        W60555   6.791  39.490   1.332
92193W        W60556  44.857  27.449   1.397
92194W        W60557  17.570  30.499  14.414
92195W        W60558   9.650  32.637   1.287
92196W        W60559  18.639  19.083   0.884
92197W        W60560  34.396  36.467   2.901
92198W        W60561   0.941  30.105  14.984
92199W        W60562  24.723  28.087   2.735
92200W        W60563   7.717   5.419  14.497
92201W        W60564  44.467  29.045   3.157
92202W        W60565   4.755  16.621  13.016
92203W        W60566  24.626   4.439  11.503
92204W        W60567  27.572  27.506   4.211
92205W        W60568  39.018  17.595  14.872
92206W        W60569   2.935  32.421  10.540
92207W        W60570  20.633  22.223   2.810
92208W        W60571  44.851  19.539  11.054
92209W        W60572  21.033   0.437   1.703
92210W        W60573  21.698  23.639   4.325
92211W        W60574  11.649  17.296  11.529
92212W        W60575   7.243  37.412   2.337
92213W        W60576   6.234  35.866  12.486
92214W        W60577   1.470  27.480  14.312
92215W        W60578  10.342  21.156   0.781
92216W        W60579   9.868  42.362   3.738
92217W        W60580  43.417  12.230  13.902
92218W        W60581  10.807  39.828   4.247
92219W        W60582  43.451  32.399  12.469
92220W        W60583  34.595  20.607   2.860
92221W        W60584   8.331  16.694   2.237
92222W        W60585   9.392  41.521  11.510
92223W        W60586   8.173  20.109   2.376
92224W        W60587  23.725   6.827  14.811
92225W        W60588  32.481  36.883  10.562
92226W        W60589  11.740  33.450   0.469
92227W        W60590  27.578  40.390   4.331
92228W        W60591  28.645   4.404  11.539
92229W        W60592  25.713  43.876   4.206
92230W        W60593  41.420  34.396  13.387
92231W        W60594  20.053  24.158   0.475
92232W        W60595  16.643  11.317   3.368
92233W        W60596  22.610  28.596  10.910
92234W        W60597  19.772  28.040   0.401
92235W        W60598  10.140  32.964   1.844
92236W        W60599  17.647  37.351  12.853
92237W        W60600  35.437   1.447   2.238
92238W        W60601   5.790  21.115  12.422
92239W        W60602  44.267   3.399   4.603
92240W        W60603  14.654  33.916  13.333
92241W        W60604  21.063  41.437  12.479
92242W        W60605   6.814   8.224  10.961
92243W        W60606  15.661   3.943   4.643
92244W        W60607  11.355  25.074   1.813
92245W        W60608   5.210  21.146   4.745
92246W        W60609  24.707  15.275   1.741
92247W        W60610  35.392   5.280  11.882
92248W        W60611  31.413  18.732   4.728
92249W        W60612  11.770  14.140   2.326
92250W        W60613  24.070  15.241  12.876
92251W        W60614  10.316  30.090  13.372
92252W        W60615   9.206   0.450  12.561
92253W        W60616  13.137  28.655   1.816
92254W        W60617   2.740  19.044   3.266
92255W        W60618  29.136  19.087  12.451
92256W        W60619  26.002  17.294  10.614
92257W        W60620   3.232  15.204  10.076
92258W        W60621  23.163  15.717   4.211
92259W        W60622  39.841   7.698  11.472
92260W        W60623  31.643  39.523  14.400
92261W        W60624  40.336  34.482   3.239
92262W        W60625  32.471  12.686   1.234
92263W        W60626  14.769  33.883  13.921
92264W        W60627  43.330  30.480   2.732
92265W        W60628   9.280  38.391   1.834
92266W        W60629  44.885   9.178   0.858
92267W        W60630  13.756   9.314   0.944
92268W        W60631  14.771  43.300  12.080
92269W        W60632  24.163  32.600  12.544
92270W        W60633  32.031  14.736   2.665
92271W        W60634   0.846  19.202   3.692
92272W        W60635   5.380   2.292   2.378
92273W        W60636   1.828  17.171   3.267
92274W        W60637   8.895   1.975   1.859
92275W        W60638   5.363  10.206  11.859
92276W        W60639  38.912  31.054   2.214
92277W        W60640  17.142  44.296   9.955
92278W        W60641  36.917   1.479  14.372
92279W        W60642  33.534  33.382  10.892
92280W        W60643  43.329  17.095   1.451
92281W        W60644  16.166  28.460   2.778
92282W        W60645  38.494  11.333  10.058
92283W        W60646  26.557  38.939  12.509
92284W        W60647   1.471  44.988   0.799
92285W        W60648  14.653  34.116  12.549
92286W        W60649  41.004  24.103  14.381
92287W        W60650  26.017   8.754  14.925
92288W        W60651  41.933   4.780  13.461
92289W        W60652  29.035  30.132   0.421
92290W        W60653   2.408  11.365   3.770
92291W        W60654  29.136   9.169   2.885
92292W        W60655  19.669  16.800   1.289
92293W        W60656  12.206   6.784   0.881
92294W        W60657   5.244   2.943   1.840
92295W        W60658   1.480  36.042  14.395
92296W        W60659  30.068  33.428  12.852
92297W        W60660   4.351  25.982   1.703
92298W        W60661   5.431   0.290  14.456
92299W        W60662  36.042  37.079  14.866
92300W        W60663   2.331   1.444  12.395
92301W        W60664  36.978  31.507  12.398
92302W        W60665  15.630   2.225  12.018
92303W        W60666  14.138  28.076   0.825
92304W        W60667  29.598  17.196   3.634
92305W        W60668   9.773  16.568  13.904
92306W        W60669  37.906   2.292   0.801
92307W        W60670  38.926  14.676   0.854
92308W        W60671  33.028  26.158  13.835
92309W        W60672   6.905  15.180   4.213
92310W        W60673  13.170   4.877   4.341
92311W        W60674  41.521  31.507  10.895
92312W        W60675  28.663  26.480  10.028
92313W        W60676  40.510  40.935   3.718
92314W        W60677   2.373  22.057   1.268
92315W        W60678  30.476  15.301   0.291
92316W        W60679  22.729   2.745   3.181
92317W        W60680   2.267  27.669  12.571
92318W        W60681  38.538  38.823  14.299
92319W        W60682  28.480  41.381  10.954
92320W        W60683  12.249  12.632  10.433
92321W        W60684  28.971   4.308   4.701
92322W        W60685  18.666  28.447   2.225
92323W        W60686  17.074  31.611   3.721
92324W        W60687  19.747  39.447   3.222
92325W        W60688  40.311  27.463   0.380
92326W        W60689  22.647  36.377  11.952
92327W        W60690  29.099  41.019  10.909
92328W        W60691  25.624   8.883   1.855
92329W        W60692  17.295  29.138   1.791
92330W        W60693  16.805  40.331  10.638
92331W        W60694  13.339  40.471   0.338
92332W        W60695   0.753  37.043   0.268
92333W        W60696   4.878  44.408  10.468
92334W        W60697  24.990   3.777  14.922
92335W        W60698  12.829  17.231   0.771
92336W        W60699   5.358  44.888  14.321
92337W        W60700  10.708  43.954  12.518
92338W        W60701  20.232  18.693   3.823
92339W        W60702  37.344  30.941   5.187
92340W        W60703  11.248   3.397  11.595
92341W        W60704  10.273   8.390   4.338
92342W        W60705  13.128  11.838  10.593
92343W        W60706  12.789  22.037  11.998
92344W        W60707  20.217  26.546  10.932
92345W        W60708   1.285   9.288  13.496
92346W        W60709  16.652  21.216  14.432
92347W        W60710   0.987  20.126   2.242
92348W        W60711   3.949  29.581  12.419
92349W        W60712  11.263  39.446  12.519
92350W        W60713  36.587  39.883   3.638
92351W        W60714  37.480  22.686  14.891
92352W        W60715  33.430   6.239  10.486
92353W        W60716  23.017  32.412  12.022
92354W        W60717  34.110  37.511  14.373
92355W        W60718  27.009  11.671   2.786
92356W        W60719  14.707  23.090  10.562
92357W        W60720  34.462  13.350   0.304
92358W        W60721  25.675   9.204  12.399
92359W        W60722  24.218  33.933  14.436
92360W        W60723  33.973  33.891  11.978
92361W        W60724  22.036  36.539   4.685
92362W        W60725  11.829  28.479  12.827
92363W        W60726  44.883  22.163  14.806
92364W        W60727  35.588  36.989   3.303
92365W        W60728  28.026   2.947   2.751
92366W        W60729  38.912  10.853   4.198
92367W        W60730  26.003  16.699   0.426
92368W        W60731  26.004  31.484   2.412
92369W        W60732  18.188  10.168  14.418
92370W        W60733   4.283  37.017   4.263
92371W        W60734  43.993   0.836  13.887
92372W        W60735  11.868  12.752  13.031
92373W        W60736   0.911   8.883   4.148
92374W        W60737   6.788  12.190  11.858
92375W        W60738  24.665  38.432   1.265
92376W        W60739  20.109  41.829   4.712
92377W        W60740  33.546  33.955   9.929
92378W        W60741  39.929  14.705  10.937
92379W        W60742  34.464   7.218   3.160
92380W        W60743   1.769  10.766  13.048
92381W        W60744  31.027  42.873  10.578
92382W        W60745  10.367  41.412   4.315
92383W        W60746   1.855  28.959  13.993
92384W        W60747   7.911  24.148   9.991
92385W        W60748   0.894  37.065   3.789
92386W        W60749  34.411  44.935  12.952
92387W        W60750  32.467  19.737  12.489
92388W        W60751  15.252  10.252  13.324
92389W        W60752  23.002  42.394   2.662
92390W        W60753  44.876   1.878  14.850
92391W        W60754  21.757  13.732  11.076
92392W        W60755  11.140  10.773  12.499
92393W        W60756  36.945  11.203  14.510
92394W        W60757  20.604   0.944   3.656
92395W        W60758  42.344  15.191   1.392
92396W        W60759  10.840  28.521   4.190
92397W        W60760  32.514   8.400  12.065
92398W        W60761  18.232   2.731  11.542
92399W        W60762  28.121  20.742  14.323
92400W        W60763  27.056  15.330   4.218
92401W        W60764  14.686  28.154  14.381
92402W        W60765  40.348  26.566  11.912
92403W        W60766  28.037  42.303   9.984
92404W        W60767  15.210  33.915   3.767
92405W        W60768  37.356  27.164   1.383
92406W        W60769  16.638  37.076   0.253
92407W        W60770  13.739   4.904   4.674
92408W        W60771  30.980  23.721   3.174
92409W        W60772  24.147  43.868  10.901
92410W        W60773  37.356  34.563  10.890
92411W        W60774  33.109  38.958  12.489
92412W        W60775  20.261  43.349   3.683
92413W        W60776  31.490  34.445  13.326
92414W        W60777  14.793  13.289  13.436
92415W        W60778  18.632   5.868   2.250
92416W        W60779  33.055   2.389   0.303
92417W        W60780  11.176   6.374   4.204
92418W        W60781  37.857  36.454  12.976
92419W        W60782   4.868  28.586  10.638
92420W        W60783  11.825  42.302   2.249
92421W        W60784  40.925  11.741  13.823
92422W        W60785  36.862  27.477   0.940
92423W        W60786  23.083  28.593   1.450
92424W        W60787  38.068  23.230   0.898
92425W        W60788  22.078  22.722  11.023
92426W        W60789  18.733  33.523   0.967
92427W        W60790  29.440  42.393   2.281
92428W        W60791  16.139  21.057  13.843
92429W        W60792  38.011  18.714  13.364
92430W        W60793  26.521  38.531  14.423
92431W        W60794   1.851   0.890  13.014
92432W        W60795  17.604   5.708   3.757
92433W        W60796  35.940   9.175   2.261
92434W        W60797  38.503  28.154   4.323
92435W        W60798  22.649  41.329   3.363
92436W        W60799  37.874  34.951  11.418
92437W        W60800  34.883  37.856   3.286
92438W        W60801   1.926  25.033  11.906
92439W        W60802  36.029   4.724   3.771
92440W        W60803   4.807  18.198  11.873
92441W        W60804  29.004  27.999   9.673
92442W        W60805  31.898  25.516   1.759
92443W        W60806  13.271  37.380   2.675
92444W        W60807  19.256  43.301  13.443
92445W        W60808  13.680   3.830   5.159
92446W        W60809  21.575  26.501  11.988
92447W        W60810  25.692  26.541   2.718
92448W        W60811  29.618  18.144   3.815
92449W        W60812  26.068  10.655  14.964
92450W        W60813  11.852  21.059  13.920
92451W        W60814  32.129  44.870  11.059
92452W        W60815  16.188  16.587  12.039
92453W        W60816  30.458  13.773  14.429
92454W        W60817  37.066  15.263  11.512
92455W        W60818  37.514  29.598  14.350
92456W        W60819   5.419  19.628   4.659
92457W        W60820  27.541  10.366  14.365
92458W        W60821  38.431  30.646   3.675
92459W        W60822  19.232   4.291  10.480
92460W        W60823  30.565   7.187   0.838
92461W        W60824  43.447   4.900   2.193
92462W        W60825  19.207  13.759   1.724
92463W        W60826  18.596  28.168   2.804
92464W        W60827  26.098   9.710  11.571
92465W        W60828  21.234  41.447   9.945
92466W        W60829  11.799  26.544   0.427
92467W        W60830   5.781   2.828  12.416
92468W        W60831  25.137  29.041   2.870
92469W        W60832  42.479   4.934  11.946
92470W        W60833  17.063  17.220   1.727
92471W        W60834  35.037   9.383  14.336
92472W        W60835  18.268  25.204   0.859
92473W        W60836  14.263  16.283   5.692
92474W        W60837   2.319  27.197   2.665
92475W        W60838  39.947  16.673   2.299
92476W        W60839  24.491  33.098   4.132
92477W        W60840  12.171  40.886  14.892
92478W        W60841  25.216  38.898  12.457
92479W        W60842  38.329  35.083   2.319
92480W        W60843  35.476   4.212   4.191
92481W        W60844  13.303  10.808   1.305
92482W        W60845  44.899  15.761  12.419
92483W        W60846  42.862  14.732  12.949
92484W        W60847   0.915  25.037   5.271
92485W        W60848  25.668  39.404  12.361
92486W        W60849  13.134  25.011   0.456
92487W        W60850  21.075   9.158   4.355
92488W        W60851  16.665   0.248  11.987
92489W        W60852   2.880  36.404  12.417
92490W        W60853  13.630  17.603   3.294
92491W        W60854  17.569  17.286   2.845
92492W        W60855  29.660  32.424  10.525
92493W        W60856  31.528  12.837  12.346
92494W        W60857  29.597   2.745   3.269
92495W        W60858  25.565  12.337   4.755
92496W        W60859  43.310   1.966   0.432
92497W        W60860  44.830  11.672   1.870
92498W        W60861  24.664  35.023   3.859
92499W        W60862   3.288  36.010   3.725
92500W        W60863  34.041  37.892  11.985
92501W        W60864   7.191   7.674   4.163
92502W        W60865  37.073  31.640  12.930
92503W        W60866  33.434  13.804  14.339
92504W        W60867  40.045   3.360  12.086
92505W        W60868  18.625  23.091   4.599
92506W        W60869  36.394  16.234   1.790
92507W        W60870  14.730   0.860  13.359
92508W        W60871  38.566   0.918  13.418
92509W        W60872  29.592  44.411  11.382
92510W        W60873   0.489  14.764  11.420
92511W        W60874  29.665  22.646   1.851
92512W        W60875  12.635  20.038  14.439
92513W        W60876  43.310  40.033   2.225
92514W        W60877  29.494   7.201   0.472
92515W        W60878  35.028  24.693   4.707
92516W        W60879  10.722  11.215   3.765
92517W        W60880  17.774  43.897   1.378
92518W        W60881   9.854   7.683   2.318
92519W        W60882  34.956  26.071  14.014
92520W        W60883   7.788  30.007   3.801
92521W        W60884  34.050  38.524   3.839
92522W        W60885   7.245  39.555   2.180
92523W        W60886  35.537  19.223  14.888
92524W        W60887  28.932  13.131   2.831
92525W        W60888  12.756  10.244   3.862
92526W        W60889   1.418  29.438  13.834
92527W        W60890  36.378   8.363   4.280
92528W        W60891  13.213  10.222   1.726
92529W        W60892  21.070  39.882   3.288
92530W        W60893  42.982  41.880  13.996
92531W        W60894   9.808  28.124  12.552
92532W        W60895  14.792  30.470  10.496
92533W        W60896   4.399  29.983  12.520
92534W        W60897  27.119  12.235   2.838
92535W        W60898  27.608  22.572  10.562
92536W        W60899  10.874  11.821   3.176
92537W        W60900   2.420  26.048  12.429
92538W        W60901  19.617   2.845  10.558
92539W        W60902  28.673  42.351  10.525
92540W        W60903   6.899  15.660  11.063
92541W        W60904  11.210  39.004  13.024
92542W        W60905  22.615  29.144  13.535
92543W        W60906  21.688  43.979   3.319
92544W        W60907  37.026  38.029  12.961
92545W        W60908  25.558   9.820   2.884
92546W        W60909  12.304  28.979   3.198
92547W        W60910  12.272   1.456   1.910
92548W        W60911  26.959   8.260   1.354
92549W        W60912  16.625   7.288   3.252
92550W        W60913  12.821  31.621  10.493
92551W        W60914  23.560  35.537  13.339
92552W        W60915  15.759  39.841  14.417
92553W        W60916  15.727   8.799   4.273
92554W        W60917   3.364   4.240  14.017
92555W        W60918  28.160  16.244  13.969
92556W        W60919  41.477  40.928  12.395
92557W        W60920  28.162   6.186   1.884
92558W        W60921  30.560  40.400   3.773
92559W        W60922  27.119   6.290  12.878
92560W        W60923  41.868  40.347   1.368
92561W        W60924   0.283  16.678   3.162
92562W        W60925  25.983  33.468   3.201
92563W        W60926  35.469  22.035   3.851
92564W        W60927  37.502  27.964   2.373
92565W        W60928  19.045  15.693  13.321
92566W        W60929  35.092   4.848   3.234
92567W        W60930  23.612  41.325   0.415
92568W        W60931  32.430  10.878  12.881
92569W        W60932  38.926  24.176   3.352
92570W        W60933  16.132  14.720   0.750
92571W        W60934  42.819   0.470  12.902
92572W        W60935  42.909   1.481   2.185
92573W        W60936  40.826   6.424  13.335
92574W        W60937  25.557   0.835  14.839
92575W        W60938  19.234  39.961   4.218
92576W        W60939  30.136  35.571  13.328
92577W        W60940  18.583  14.802  11.428
92578W        W60941  31.008  14.230  12.968
92579W        W60942   9.276   2.939   3.270
92580W        W60943  41.920  41.527   2.700
92581W        W60944  24.074  15.237  14.470
92582W        W60945   4.708  44.778   0.283
92583W        W60946   1.792  36.427  14.505
92584W        W60947  33.069   1.245  14.853
92585W        W60948  15.184  10.674   0.956
92586W        W60949  26.465   1.770  13.899
92587W        W60950   0.446  12.757  10.526
92588W        W60951  25.044  12.611   1.301
92589W        W60952   5.197  16.092  13.335
92590W        W60953  11.770  13.660   1.711
92591W        W60954  22.155  27.626   1.259
92592W        W60955  32.016  41.998  12.423
92593W        W60956  13.821   7.756   2.742
92594W        W60957  33.124  30.122   3.745
92595W        W60958  13.706   4.759   2.304
92596W        W60959   5.731  10.698  12.490
92597W        W60960  15.103  21.036   9.952
92598W        W60961  30.514  41.334  10.432
92599W        W60962  31.043  20.765   1.394
92600W        W60963   5.421  14.187   2.733
92601W        W60964  25.153  20.069  14.422
92602W        W60965   0.343   8.701   3.167
92603W        W60966   1.964  30.954   0.866
92604W        W60967   3.758  38.828  11.582
92605W        W60968  44.775  13.612  12.357
92606W        W60969  30.989  22.205  14.277
92607W        W60970  24.563  24.528  12.469
92608W        W60971  20.156  32.024  14.887
92609W        W60972  19.065   0.784   3.175
92610W        W60973  19.559  11.222  14.810
92611W        W60974  42.956  39.515   0.957
92612W        W60975   2.250  43.986   3.856
92613W        W60976  29.978  29.003   3.827
92614W        W60977  17.230  42.461  14.356
92615W        W60978  27.467   3.917   3.707
92616W        W60979  15.087  23.660  10.986
92617W        W60980   5.774  33.901   2.205
92618W        W60981  15.278  27.655   1.697
92619W        W60982  37.483  42.364  12.379
92620W        W60983   5.295  18.682   1.214
92621W        W60984  36.347  23.522  13.032
92622W        W60985  25.071  42.369  13.792
92623W        W60986  35.377  16.161   1.261
92624W        W60987  13.770  12.148   0.911
92625W        W60988   6.356  31.896  14.348
92626W        W60989   9.351  44.269  11.904
92627W        W60990  37.876  27.623   4.308
92628W        W60991  30.108  19.132   0.324
92629W        W60992  32.628  33.523  10.620
92630W        W60993   3.238  21.064  11.016
92631W        W60994  37.994  27.163   2.317
92632W        W60995  41.038  17.245  11.905
92633W        W60996  38.012   4.278  11.440
92634W        W60997  11.843  36.850  14.509
92635W        W60998   2.842  32.561  11.516
92636W        W60999  28.566   7.362   2.804
92637W        W61000  41.314  22.236   0.243
92638W        W61001  31.461  26.535   1.841
92639W        W61002   4.269  23.204   5.643
92640W        W61003  23.587   6.296  13.920
92641W        W61004  43.880   2.405  11.483
92642W        W61005  15.293  36.882  13.928
92643W        W61006  35.875  11.747   4.126
92644W        W61007   2.403  23.122   2.790
92645W        W61008  12.305  33.477   0.297
92646W        W61009  33.072  35.474   1.761
92647W        W61010  16.292   4.820   0.347
92648W        W61011  41.880  29.611  14.283
92649W        W61012  16.162   1.307   2.188
92650W        W61013  20.147  18.133   3.259
92651W        W61014  23.735  28.640   2.324
92652W        W61015  15.165  19.125   2.830
92653W        W61016  34.959   5.790  14.818
92654W        W61017  26.504  16.075  11.469
92655W        W61018   2.824   6.873   0.393
92656W        W61019  18.671  22.015  12.491
92657W        W61020   8.222  37.007   2.382
92658W        W61021  14.141  14.736  10.534
92659W        W61022  43.450  23.706   4.759
92660W        W61023  37.437  25.199  12.977
92661W        W61024  18.611   0.392  13.306
92662W        W61025  18.189   6.306   1.326
92663W        W61026  42.013  35.528  12.406
92664W        W61027  15.773  13.335   3.803
92665W        W61028  14.252  19.585   0.917
92666W        W61029  17.698  13.261  14.858
92667W        W61030  27.505  23.654   3.770
92668W        W61031   1.450   2.926   0.467
92669W        W61032  26.585  31.969  10.915
92670W        W61033  42.402  19.152  12.837
92671W        W61034  26.954  42.951   0.250
92672W        W61035  29.442  36.845  13.460
92673W        W61036  34.522   7.279  13.823
92674W        W61037   1.801  21.628  11.402
92675W        W61038  21.692  42.298  10.632
92676W        W61039  19.724  13.174   1.931
92677W        W61040  25.652  26.553   1.898
92678W        W61041   8.862  42.366   2.894
92679W        W61042  27.496   1.904  12.954
92680W        W61043   2.786  17.076   4.216
92681W        W61044   3.779  21.231  14.476
92682W        W61045  44.375  35.577   4.276
92683W        W61046  23.137  32.919   4.626
92684W        W61047  30.981  37.550  10.923
92685W        W61048  43.921  35.929   4.245
92686W        W61049   4.802  40.001  13.358
92687W        W61050  13.120   6.199  10.568
92688W        W61051  44.963  35.070   2.198
92689W        W61052  43.310  29.984  12.943
92690W        W61053  41.992  17.615   0.457
92691W        W61054  30.137  40.829  13.953
92692W        W61055  42.028  29.542  11.118
92693W        W61056   9.820  24.599   3.360
92694W        W61057  39.534  37.059  13.514
92695W        W61058  12.775  19.189   1.777
92696W        W61059   8.783  22.211  12.936
92697W        W61060  14.105  42.974  14.845
92698W        W61061  41.291   7.395   1.718
92699W        W61062   5.404   9.656   0.374
92700W        W61063  30.659  38.061  11.600
92701W        W61064   2.905  39.402   2.409
92702W        W61065  34.376  24.023   4.805
92703W        W61066  19.674  36.555   3.256
92704W        W61067   2.249  35.391   1.321
92705W        W61068  14.681  27.948  10.130
92706W        W61069  33.104   6.337  12.947
92707W        W61070  36.038   3.904   3.766
92708W        W61071  30.542  37.892  12.845
92709W        W61072  40.996  22.548   1.812
92710W        W61073   6.390   6.278  11.122
92711W        W61074  20.652  15.594  14.789
92712W        W61075  31.110  43.487  14.486
92713W        W61076  42.461  42.439   0.453
92714W        W61077  44.909  16.156   0.327
92715W        W61078  36.476  19.046   1.295
92716W        W61079   8.694   9.755  13.527
92717W        W61080  42.031  20.525   4.151
92718W        W61081  17.274   9.789  14.834
92719W        W61082  13.249  35.002   2.703
92720W        W61083  18.760  11.691  11.114
92721W        W61084  43.812   5.208  13.383
92722W        W61085   6.320  34.525  10.422
92723W        W61086  39.486  22.162   2.180
92724W        W61087   3.917  17.795   0.358
92725W        W61088  26.184  38.844   2.231
92726W        W61089   0.952  28.079   5.158
92727W        W61090  33.513  24.145   2.752
92728W        W61091  31.506  37.906   0.780
92729W        W61092  28.002  28.516  14.838
92730W        W61093  17.251   5.857  13.393
92731W        W61094   9.881  42.417  11.573
92732W        W61095  16.146  30.072  12.823
92733W        W61096  32.633  34.596   4.213
92734W        W61097  36.991  20.633   0.863
92735W        W61098  20.527  35.560   0.354
92736W        W61099  25.989  42.515  13.988
92737W        W61100  15.125  17.565  12.973
92738W        W61101   9.849  18.748   0.946
92739W        W61102  10.235  29.573  11.426
92740W        W61103  10.233  33.482   3.313
92741W        W61104  22.226  34.578   4.707
92742W        W61105  34.882  40.883   3.685
92743W        W61106  40.517  37.455   0.756
92744W        W61107   1.255  26.649  10.464
92745W        W61108  33.977   5.433  14.357
92746W        W61109   1.754   3.428   2.797
92747W        W61110  10.726   4.898   3.653
92748W        W61111   8.224  20.692   1.805
92749W        W61112   7.685   3.326   0.328
92750W        W61113  13.174  19.572   1.308
92751W        W61114  37.843  37.862  10.998
92752W        W61115  28.447   1.870   3.661
92753W        W61116   2.359  23.712  13.939
92754W        W61117  13.641   3.324  13.402
92755W        W61118   5.234   0.398   9.475
92756W        W61119  26.515   3.334  10.953
92757W        W61120  28.646  15.630  10.958
92758W        W61121  15.591   7.303  11.918
92759W        W61122  19.683   6.219  10.888
92760W        W61123  25.080   5.213  13.792
92761W        W61124  29.447  17.070  10.453
92762W        W61125  13.732   2.848  13.348
92763W        W61126  21.147  21.601   3.662
92764W        W61127   9.183  23.562   3.172
92765W        W61128  15.211   4.319  11.922
92766W        W61129  29.141   1.799  11.977
92767W        W61130   8.893  31.935   3.751
92768W        W61131   9.245   8.185  14.781
92769W        W61132  33.468  23.519  10.954
92770W        W61133  18.097  41.409   2.363
92771W        W61134  26.694  20.090  12.498
92772W        W61135   5.317  20.677  10.505
92773W        W61136  21.058  27.477   4.759
92774W        W61137  18.559  38.483  14.314
92775W        W61138  35.013   4.426   2.395
92776W        W61139  19.730  21.045   2.661
92777W        W61140  24.979  29.652  12.946
92778W        W61141  22.089  20.224  11.896
92779W        W61142  29.150  27.008  13.918
92780W        W61143  10.352  43.496  13.052
92781W        W61144  21.160  23.735   1.706
92782W        W61145  41.501  28.992  10.985
92783W        W61146  39.927  14.249   0.802
92784W        W61147  37.914  42.363   2.859
92785W        W61148  37.434   1.759  12.069
92786W        W61149  39.874  27.980   3.806
92787W        W61150  35.570   5.307  14.433
92788W        W61151   7.363  32.034   0.867
92789W        W61152  11.737  11.326  11.116
92790W        W61153  27.981  42.435  12.393
92791W        W61154  10.265  29.106  12.944
92792W        W61155   2.408  35.497  13.399
92793W        W61156  10.158  43.419  12.435
92794W        W61157  25.097  41.450  13.344
92795W        W61158  10.277  20.576   4.127
92796W        W61159   5.825  34.895  12.833
92797W        W61160  28.164  31.502  11.925
92798W        W61161  35.000  38.962  12.036
92799W        W61162  12.336  39.488   0.820
92800W        W61163   5.728  38.452   3.690
92801W        W61164  35.490  32.565   2.900
92802W        W61165  39.395  27.651   4.241
92803W        W61166  28.595  10.146   3.232
92804W        W61167   5.279  28.527   2.768
92805W        W61168  19.538  14.148  12.342
92806W        W61169   5.734  25.992   3.220
92807W        W61170   7.296   2.311   3.263
92808W        W61171  28.610  29.546  14.992
92809W        W61172  39.477  36.355  11.529
92810W        W61173   3.294   5.860   1.446
92811W        W61174  27.979  27.979  13.877
92812W        W61175  28.132  44.831  13.477
92813W        W61176  43.370  14.227  14.498
92814W        W61177   2.355  22.180   2.418
92815W        W61178  12.179  43.781  13.413
92816W        W61179  19.258   9.264  14.937
92817W        W61180  25.484  26.456   0.814
92818W        W61181  18.117  24.664  14.816
92819W        W61182  34.091  40.371   3.672
92820W        W61183  38.535   3.361  13.437
92821W        W61184  31.916  35.437   3.865
92822W        W61185  31.622  14.331   1.895
92823W        W61186  24.712  22.063  13.497
92824W        W61187  17.595   2.787   1.851
92825W        W61188   9.660  40.326  10.488
92826W        W61189  37.447  32.975   1.322
92827W        W61190  33.535  42.322   0.895
92828W        W61191  34.424  29.999  14.837
92829W        W61192  11.859  13.711   4.644
92830W        W61193  24.632  33.974  14.322
92831W        W61194  38.398  28.992   1.828
92832W        W61195   0.744  39.921   2.808
92833W        W61196   6.730  12.625   3.656
92834W        W61197  42.367  33.002  12.397
92835W        W61198  40.354  32.929   4.136
92836W        W61199  37.887  14.796  13.811
92837W        W61200  43.316  22.661   4.167
92838W        W61201  37.990   5.319  11.502
92839W        W61202   4.231  43.771   0.820
92840W        W61203  28.613  17.077   0.749
92841W        W61204   7.808  33.967  11.890
92842W        W61205  11.663  23.197   3.232
92843W        W61206  33.002  29.990   4.117
92844W        W61207   4.340   1.373   5.574
92845W        W61208  39.884  33.443  14.892
92846W        W61209  31.919   1.882   3.239
92847W        W61210  40.871  36.996  11.376
92848W        W61211  39.441   3.349  13.844
92849W        W61212  34.386  27.046   4.204
92850W        W61213  44.471  22.115  13.013
92851W        W61214  17.569  32.621  14.847
92852W        W61215   9.768   4.385  13.379
92853W        W61216  32.921  12.138   1.695
92854W        W61217   3.352  24.076  14.945
92855W        W61218   2.283  35.442  14.834
92856W        W61219   1.410  42.525   2.393
92857W        W61220   6.220   4.299  12.962
92858W        W61221  43.306  23.706   2.699
92859W        W61222   4.699   6.835  13.515
92860W        W61223  41.991   8.170   1.756
92861W        W61224   8.798   1.325   1.368
92862W        W61225  20.548  13.186  14.859
92863W        W61226  16.802  17.614  13.372
92864W        W61227  28.571  23.132   2.326
92865W        W61228  31.923  41.397   1.894
92866W        W61229  35.982  15.755   2.355
92867W        W61230   0.304  25.525  10.614
92868W        W61231  18.557  28.469   0.816
92869W        W61232  44.873  15.634   2.385
92870W        W61233  29.486  18.223   4.829
92871W        W61234  37.961  34.550   3.849
92872W        W61235  22.180  31.613   3.773
92873W        W61236  17.574  16.690  12.403
92874W        W61237  36.569   9.771   2.808
92875W        W61238  41.394  38.033  13.954
92876W        W61239  21.617  29.490   3.214
92877W        W61240  37.512  14.221  10.927
92878W        W61241  44.471  36.993  10.015
92879W        W61242  35.016  22.665  13.804
92880W        W61243   7.403  35.044   1.856
92881W        W61244  11.852   8.805  12.578
92882W        W61245   9.810  24.064   3.682
92883W        W61246  27.684  32.548  14.346
92884W        W61247  38.545  17.664  13.441
92885W        W61248  16.593   6.261   3.232
92886W        W61249  31.481   4.938   4.824
92887W        W61250  14.628  11.275  13.434
92888W        W61251  38.451   4.726   2.783
92889W        W61252  36.454  28.039   9.952
92890W        W61253   9.343  19.536   9.961
92891W        W61254  42.507  17.570  14.977
92892W        W61255  37.468  15.654  12.996
92893W        W61256  42.955  44.995  13.055
92894W        W61257   7.813  15.771  10.536
92895W        W61258  11.338  16.597   1.764
92896W        W61259  15.243  29.952   0.482
92897W        W61260  13.826  15.810  14.930
92898W        W61261   1.769  22.685   5.103
92899W        W61262  33.129  26.657   4.786
92900W        W61263   2.852   2.908  14.437
92901W        W61264  27.612  12.206  12.054
92902W        W61265  25.037  42.998  11.540
92903W        W61266  29.054  41.424   2.702
92904W        W61267  13.656  24.586   1.904
92905W        W61268  12.168  36.426   1.877
92906W        W61269   3.789   4.282  13.871
92907W        W61270  28.530  39.523   1.856
92908W        W61271   2.867   6.357   4.180
92909W        W61272   6.273  35.518   2.257
92910W        W61273  19.170  14.784   2.324
92911W        W61274  28.071   0.791  12.058
92912W        W61275  22.230  20.654  12.575
92913W        W61276  29.527  24.987   2.672
92914W        W61277  25.601  33.435   4.689
92915W        W61278  18.130  17.239  13.990
92916W        W61279  15.686  25.043  12.395
92917W        W61280  14.177  19.048   3.765
92918W        W61281   6.247   8.241  11.503
92919W        W61282  18.228   0.268  12.890
92920W        W61283  12.241   6.268  11.962
92921W        W61284  13.205  30.054  13.942
92922W        W61285  23.704  32.493   1.815
92923W        W61286   3.779  30.917  12.513
92924W        W61287  27.195  21.025  11.408
92925W        W61288  33.506  12.318   3.233
92926W        W61289   8.214  34.604   0.243
92927W        W61290  11.665  19.167   2.419
92928W        W61291  37.867   4.299   2.803
92929W        W61292   2.837  15.689   2.826
92930W        W61293  14.680  39.039   4.627
92931W        W61294  16.150  29.121   0.265
92932W        W61295  25.564  23.510  10.054
92933W        W61296   6.690  40.440   0.865
92934W        W61297  36.075  27.196   0.763
92935W        W61298   6.425  24.171  12.966
92936W        W61299  24.193  11.315   3.870
92937W        W61300  29.430  13.624  13.517
92938W        W61301  35.909  39.373   2.300
92939W        W61302   9.798  40.971   2.742
92940W        W61303  15.622  17.248   0.809
92941W        W61304  15.643  33.453  11.373
92942W        W61305   3.367  26.560   0.475
92943W        W61306  35.552   9.149   2.786
92944W        W61307  11.294  17.138   0.816
92945W        W61308  27.514  13.262   1.759
92946W        W61309  23.080   7.414  14.844
92947W        W61310   3.254   4.843  13.840
92948W        W61311   7.314  14.181  10.897
92949W        W61312  16.205   4.832  13.832
92950W        W61313  25.501   8.312   3.312
92951W        W61314  20.103   1.348  14.463
92952W        W61315  10.195  25.058   2.794
92953W        W61316  26.614  26.973  12.852
92954W        W61317   1.959   7.669   3.178
92955W        W61318   6.282   9.884  12.521
92956W        W61319  15.778  15.141  13.024
92957W        W61320   2.881  19.285  12.954
92958W        W61321  43.392   5.896   3.275
92959W        W61322  37.893  43.787   3.341
92960W        W61323  25.106  36.929   1.328
92961W        W61324   8.898  29.085   0.459
92962W        W61325  40.009  36.889   1.795
92963W        W61326  18.166   0.961  14.394
92964W        W61327   6.798  16.605  11.582
92965W        W61328  38.549  30.091  12.477
92966W        W61329  14.686   4.373  10.155
92967W        W61330   8.702  39.533  13.484
92968W        W61331  31.044  29.954  13.984
92969W        W61332  34.539  36.565   2.365
92970W        W61333  18.758   8.708   0.847
92971W        W61334  13.275  30.528   0.408
92972W        W61335  39.426   3.885  14.776
92973W        W61336  19.654  44.855   0.891
92974W        W61337  39.320  41.407  13.880
92975W        W61338   7.224   3.823  10.412
92976W        W61339  16.219  29.502  13.538
92977W        W61340  10.873  24.198  11.875
92978W        W61341  39.530  29.476  14.373
92979W        W61342  31.636  37.459   0.835
92980W        W61343   2.385   9.341   3.788
92981W        W61344   0.292  29.526   1.363
92982W        W61345   3.900  37.462   3.277
92983W        W61346  14.125  41.992  11.485
92984W        W61347   4.252  32.962   0.246
92985W        W61348  35.035  16.764  11.409
92986W        W61349  30.059  24.119   3.639
92987W        W61350   4.758  12.356  12.373
92988W        W61351  30.540  22.067  12.884
92989W        W61352  44.464  36.348  11.874
92990W        W61353  35.021  17.593  13.822
92991W        W61354   5.412  10.795   0.368
92992W        W61355  43.486  33.917  11.439
92993W        W61356  32.970  23.101   4.114
92994W        W61357  42.952  17.251  11.004
92995W        W61358   7.259   5.819  13.832
92996W        W61359  16.806  16.126   4.330
92997W        W61360  39.435  32.547   3.257
92998W        W61361  24.719   9.767   3.837
92999W        W61362   5.265  42.854  11.907
93000W        W61363  31.639  36.988   3.736
93001W        W61364   0.253  13.790  14.845
93002W        W61365  31.412  32.635  10.976
93003W        W61366   8.364   1.474   2.747
93004W        W61367  18.195  14.598   0.947
93005W        W61368  22.581  11.832  13.429
93006W        W61369  36.842   0.432  13.423
93007W        W61370  37.356  14.176  13.336
93008W        W61371  30.643  20.116   3.781
93009W        W61372  39.413   8.371   1.771
93010W        W61373  11.270  26.037   3.184
93011W        W61374  38.881  31.975  14.468
93012W        W61375  14.818   7.847  13.456
93013W        W61376  44.853   8.309  11.958
93014W        W61377  31.441  44.889  12.071
93015W        W61378  13.630   9.846  14.285
93016W        W61379  18.174  25.631  14.402
93017W        W61380  41.982   7.174   3.274
93018W        W61381  37.415  36.847  14.344
93019W        W61382  34.506   6.856   2.780
93020W        W61383  42.899  44.903  14.441
93021W        W61384  17.616  17.075   9.953
93022W        W61385  18.685  38.896  12.070
93023W        W61386  26.482  29.584  13.010
93024W        W61387   1.296  28.134   1.831
93025W        W61388  10.697  25.193   1.449
93026W        W61389  16.738   2.739   0.465
93027W        W61390   0.956   7.908  12.959
93028W        W61391  19.584  14.262   4.752
93029W        W61392  26.663  21.718   5.090
93030W        W61393  25.608  30.080   3.854
93031W        W61394  43.797  21.663  12.080
93032W        W61395   9.655  25.471   2.891
93033W        W61396  14.312  25.041  14.367
93034W        W61397  32.902   4.340  11.027
93035W        W61398  13.321   3.946   0.893
93036W        W61399  29.050  37.830  14.326
93037W        W61400  44.260  16.087  13.339
93038W        W61401  11.156   0.969  10.477
93039W        W61402  37.445  39.993  13.974
93040W        W61403  14.304  24.573   4.162
93041W        W61404   1.821  30.059  12.564
93042W        W61405  36.531  38.361   0.341
93043W        W61406  37.034  44.426  12.855
93044W        W61407  28.507  14.609  12.855
93045W        W61408  43.805   0.296   2.414
93046W        W61409   3.448  16.718  10.556
93047W        W61410  21.732   6.880   0.270
93048W        W61411  43.912  19.736   2.876
93049W        W61412  24.588   7.237  11.971
93050W        W61413  28.171  15.100  12.565
93051W        W61414  16.688  31.452  12.499
93052W        W61415  37.967   4.803  12.562
93053W        W61416  15.652  19.094   9.974
93054W        W61417   5.747  13.813   4.728
93055W        W61418  13.600  42.852  12.955
93056W        W61419  32.513  23.666  14.003
93057W        W61420  36.088  26.056   2.202
93058W        W61421  26.503  11.182   0.248
93059W        W61422  28.591   2.316  13.812
93060W        W61423  16.656   2.261   3.762
93061W        W61424  13.150   7.679   4.795
93062W        W61425  41.375  41.491  11.042
93063W        W61426  26.635  23.571  12.910
93064W        W61427   4.928  29.922   1.814
93065W        W61428  21.609  44.275  12.436
93066W        W61429   2.933  11.625   1.294
93067W        W61430  35.426  36.389  12.345
93068W        W61431   4.775  10.707   1.883
93069W        W61432  29.466  24.723  13.826
93070W        W61433  24.553   6.218  13.903
93071W        W61434  32.600  25.668   3.170
93072W        W61435  29.440   4.810  14.474
93073W        W61436  16.803   5.896   2.306
93074W        W61437  38.538   5.269  14.957
93075W        W61438  22.207  44.430   3.281
93076W        W61439  40.857  23.714   4.118
93077W        W61440  42.857   0.448  14.509
93078W        W61441  43.922  27.952   0.258
93079W        W61442  23.132  18.214  12.393
93080W        W61443  42.922  39.551   1.448
93081W        W61444   7.761  31.590   3.783
93082W        W61445  20.630   7.696   4.294
93083W        W61446  15.624  37.389  10.126
93084W        W61447  21.044  23.501  12.528
93085W        W61448  25.568  38.985   0.827
93086W        W61449  14.635   3.795   1.214
93087W        W61450   3.274  33.874   4.130
93088W        W61451   2.241  18.267   2.380
93089W        W61452  13.250   1.352   4.599
93090W        W61453  44.267  41.452   3.640
93091W        W61454  12.671  39.923   3.273
93092W        W61455   5.739  37.841   2.886
93093W        W61456  14.122   0.370   0.477
93094W        W61457  42.999  12.810  10.896
93095W        W61458  22.176  20.217  11.045
93096W        W61459   1.927  28.603  13.017
93097W        W61460  19.243   7.756  14.497
93098W        W61461  35.872   6.199  10.475
93099W        W61462  44.436  10.190  12.049
93100W        W61463  40.374  23.149  11.878
93101W        W61464  30.509  44.314   3.224
93102W        W61465  20.104  35.470  12.476
93103W        W61466  17.707  18.112   3.678
93104W        W61467  37.472  27.021   0.746
93105W        W61468  42.304  44.812   2.186
93106W        W61469  37.513  14.279   0.265
93107W        W61470  33.880  27.072  12.385
93108W        W61471  18.667  31.948  11.121
93109W        W61472  26.194  44.496  11.996
93110W        W61473  28.545  19.084   3.326
93111W        W61474  39.010   3.414   2.688
93112W        W61475   1.976  19.103   3.198
93113W        W61476  23.085  41.331   1.727
93114W        W61477  14.599  31.434  12.008
93115W        W61478  11.674  33.073   0.881
93116W        W61479  18.284   7.805  11.043
93117W        W61480   3.242  19.677   1.248
93118W        W61481  22.548   9.296   2.884
93119W        W61482  20.523  27.548  10.474
93120W        W61483  15.137  21.252   2.197
93121W        W61484  10.307  33.555   0.311
93122W        W61485   7.902   0.386   2.776
93123W        W61486  31.970  22.510  14.927
93124W        W61487  33.610  32.892  12.471
93125W        W61488   8.311  41.959  11.593
93126W        W61489  13.286  31.116  14.308
93127W        W61490  19.046   4.734  14.431
93128W        W61491  41.995  28.585  13.792
93129W        W61492  42.015   5.786  11.425
93130W        W61493  28.157   1.916  11.063
93131W        W61494  30.490  38.326   2.215
93132W        W61495  40.372   0.394   1.223
93133W        W61496  40.411  19.729   1.421
93134W        W61497  27.190  36.012  10.053
93135W        W61498  22.212   0.927   1.227
93136W        W61499  14.763   2.905  12.373
93137W        W61500  23.698  29.020   2.182
93138W        W61501  21.589  37.537   4.317
93139W        W61502  40.485  11.259   2.297
93140W        W61503  40.827   6.208   0.381
93141W        W61504  26.978  17.264  14.960
93142W        W61505   2.308  26.089   4.776
93143W        W61506  32.546  17.597   4.681
93144W        W61507  42.889   7.773   4.728
93145W        W61508  13.236  43.493   0.912
93146W        W61509  16.155  14.631  13.839
93147W        W61510   2.763  11.208  14.776
93148W        W61511  44.264  13.786   4.739
93149W        W61512  12.763  38.063   4.604
93150W        W61513  23.541  12.753  12.416
93151W        W61514  18.661  15.714   5.173
93152W        W61515  30.483  41.436  13.815
93153W        W61516   8.749  15.786  12.502
93154W        W61517   1.972  34.373  13.368
93155W        W61518   3.935   7.783  13.895
93156W        W61519  14.179  16.717   3.771
93157W        W61520  43.345   4.922   0.368
93158W        W61521  23.169  23.595   4.290
93159W        W61522  20.753  21.261   1.266
93160W        W61523  19.714   2.363  10.419
93161W        W61524  37.526  18.572  10.512
93162W        W61525  13.632  24.216   3.231
93163W        W61526  42.784  13.241   1.712
93164W        W61527   6.305   3.250   1.840
93165W        W61528  25.202   2.381   4.224
93166W        W61529  10.244  36.925   4.838
93167W        W61530  44.500  13.748  11.860
93168W        W61531   0.349  29.030   4.291
93169W        W61532  24.596   7.408   1.252
93170W        W61533  11.809  36.524   2.400
93171W        W61534  24.061  34.565  14.808
93172W        W61535  13.224  31.600   1.910
93173W        W61536  42.405  37.538   4.819
93174W        W61537  40.900  28.638  11.471
93175W        W61538  40.811   2.307   3.696
93176W        W61539  32.540  44.302  13.795
93177W        W61540  41.392  37.863   1.885
93178W        W61541  29.580   8.729   4.691
93179W        W61542  20.270   3.925   1.230
93180W        W61543  39.437   7.729   3.649
93181W        W61544  43.921  28.050   2.200
93182W        W61545  28.149  28.562   4.700
93183W        W61546  39.338   3.331   3.782
93184W        W61547  16.104  12.299   1.787
93185W        W61548   7.668   1.736   1.403
93186W        W61549   6.683  44.367   2.772
93187W        W61550  26.183   3.346  14.288
93188W        W61551  28.175  40.383   0.769
93189W        W61552   8.282   8.288   1.342
93190W        W61553  10.196  42.349  11.564
93191W        W61554  43.997   7.773  11.036
93192W        W61555  24.110  31.509  11.520
93193W        W61556  17.186   6.878   0.932
93194W        W61557   9.371  38.539  11.118
93195W        W61558  24.995   0.766  13.374
93196W        W61559  18.584  31.015   0.377
93197W        W61560   1.944  11.706   5.096
93198W        W61561  22.714   9.789  11.492
93199W        W61562  25.469   2.860   3.806
93200W        W61563  26.490  31.643   5.089
93201W        W61564  16.276   8.740   3.777
93202W        W61565  37.503  44.384  12.560
93203W        W61566  32.039  38.353  12.935
93204W        W61567   2.956   5.752  11.452
93205W        W61568  12.837   3.410  13.017
93206W        W61569  11.653   9.204   0.772
93207W        W61570  29.432   8.292   0.415
93208W        W61571  12.342  41.426  11.595
93209W        W61572  30.117  21.649   3.245
93210W        W61573  41.296  42.993  11.889
93211W        W61574  39.345  19.241   0.823
93212W        W61575  44.396  43.467   1.378
93213W        W61576  27.150  44.468  12.851
93214W        W61577  41.866   5.251   3.294
93215W        W61578  37.847  10.289  14.321
93216W        W61579  10.820  20.635   3.350
93217W        W61580  23.512  14.796   0.446
93218W        W61581  13.841  21.544  13.467
93219W        W61582  26.990  35.965   1.311
93220W        W61583   0.920  23.599  14.337
93221W        W61584  20.127  43.298   4.639
93222W        W61585  26.559  33.111   2.667
93223W        W61586  25.534  22.598   2.790
93224W        W61587   2.961  29.650  11.454
93225W        W61588   4.839   3.406  13.372
93226W        W61589  32.452  40.365  12.986
93227W        W61590  21.151  11.735   4.319
93228W        W61591  35.075  17.219  12.882
93229W        W61592  42.320  24.632  11.564
93230W        W61593  16.678  29.490   3.814
93231W        W61594  42.309  27.622   4.639
93232W        W61595  29.987   3.455   4.278
93233W        W61596  41.486  25.595   4.742
93234W        W61597  23.541   8.399  11.491
93235W        W61598  40.509  28.638   3.286
93236W        W61599   1.913  16.125   0.756
93237W        W61600  12.749   3.847  13.905
93238W        W61601   4.828  26.561   3.848
93239W        W61602  10.172  39.869  13.508
93240W        W61603   7.823   8.362   1.884
93241W        W61604  31.405  17.110  12.041
93242W        W61605  44.923  10.303   9.947
93243W        W61606  29.030   5.244  11.880
93244W        W61607  41.801  41.437   0.745
93245W        W61608  24.546  15.612  13.419
93246W        W61609   9.736  36.020  11.893
93247W        W61610  37.020  32.110  14.861
93248W        W61611  14.661  11.256   0.787
93249W        W61612  23.203  32.491  10.448
93250W        W61613  12.661  18.634  12.975
93251W        W61614  16.751  17.227  13.474
93252W        W61615  34.418   1.252   3.636
93253W        W61616  26.126  26.086   4.158
93254W        W61617  40.835  12.321  14.347
93255W        W61618  14.737  28.108  13.863
93256W        W61619  22.614  28.534   2.340
93257W        W61620   1.347   1.864   3.868
93258W        W61621  42.958  21.112   4.635
93259W        W61622  38.404   7.238  12.978
93260W        W61623  19.082  12.786   3.215
93261W        W61624  32.034  22.730  12.832
93262W        W61625  17.722  31.961   0.818
93263W        W61626  20.121  33.959   3.761
93264W        W61627   1.948   4.313  11.482
93265W        W61628   0.869  10.728  10.500
93266W        W61629  35.923   5.230   0.265
93267W        W61630  27.561  35.602  12.987
93268W        W61631  30.982   4.380   1.336
93269W        W61632   0.969  26.655   9.989
93270W        W61633  23.203  40.883   4.696
93271W        W61634  37.946  42.838   2.794
93272W        W61635  44.768  30.145   2.371
93273W        W61636  30.645  15.738   0.397
93274W        W61637  38.342  19.081   3.848
93275W        W61638  19.591  21.518   2.409
93276W        W61639  12.846  36.928  14.448
93277W        W61640   4.925  22.244  11.859
93278W        W61641  39.341  32.552   2.881
93279W        W61642  41.320  13.166  13.862
93280W        W61643  23.153  44.300   3.837
93281W        W61644  36.580  12.266   1.760
93282W        W61645  44.368  24.493  10.892
93283W        W61646  35.552  29.073   1.721
93284W        W61647  37.968  19.150  13.966
93285W        W61648  26.995  15.125   0.730
93286W        W61649   3.449   8.880   4.687
93287W        W61650  12.336   2.866   0.352
93288W        W61651  36.465  36.999   0.288
93289W        W61652  10.323  19.126   4.754
93290W        W61653  18.601  38.942   0.390
93291W        W61654  42.915  18.241  12.889
93292W        W61655  14.286  15.778   2.216
93293W        W61656   2.788  43.410  12.014
93294W        W61657   7.176  15.809   3.287
93295W        W61658  32.115  27.467  13.037
93296W        W61659  13.139  11.819   1.926
93297W        W61660  17.104  43.342  14.506
93298W        W61661  32.112  22.140  12.984
93299W        W61662   8.821  29.498  12.510
93300W        W61663  18.581   8.296   3.828
93301W        W61664  23.528  22.143  13.487
93302W        W61665  30.437  34.605  10.991
93303W        W61666  40.975  42.284   2.347
93304W        W61667   0.459  33.991  12.489
93305W        W61668   5.699  32.543   3.265
93306W        W61669  44.834   6.784   0.747
93307W        W61670  35.033  13.773   3.157
93308W        W61671  28.101  32.141   1.795
93309W        W61672  27.533  24.106   4.781
93310W        W61673  44.916  17.224   0.906
93311W        W61674  35.051  17.167   5.101
93312W        W61675   9.857  27.113  14.980
93313W        W61676  19.166   6.766  11.568
93314W        W61677  17.148  10.326   2.864
93315W        W61678   3.396  43.393  13.897
93316W        W61679  36.007  31.501   2.792
93317W        W61680   9.728  35.932  14.325
93318W        W61681   6.800  10.257   0.342
93319W        W61682   5.386  38.984  13.891
93320W        W61683  29.044  39.922  11.004
93321W        W61684  43.909  43.914   2.850
93322W        W61685   6.280  18.165   2.730
93323W        W61686  16.583  20.262   4.649
93324W        W61687   3.823  15.172  13.382
93325W        W61688  29.596  43.852  14.791
93326W        W61689  14.754  17.668   4.829
93327W        W61690  13.196  44.000   4.322
93328W        W61691  28.443  19.733  13.466
93329W        W61692  19.246   0.483   0.857
93330W        W61693  16.254  39.858   2.353
93331W        W61694  19.741  19.551  14.455
93332W        W61695  16.785  33.411   4.196
93333W        W61696  17.246  20.576   1.336
93334W        W61697   8.280  24.175  14.913
93335W        W61698  11.290  44.364   3.207
93336W        W61699  10.369  27.171  10.950
93337W        W61700  25.659  19.737   0.340
93338W        W61701  24.677  21.147  13.394
93339W        W61702   2.779  11.195  10.618
93340W        W61703  10.754  42.973  14.815
93341W        W61704  36.890  37.392   3.233
93342W        W61705  41.378  26.982  14.979
93343W        W61706  29.011  44.987  10.909
93344W        W61707  34.992   3.263   0.792
93345W        W61708  35.072  15.118   3.796
93346W        W61709   4.385  28.521  11.027
93347W        W61710  35.479  20.245   1.217
93348W        W61711  14.807   8.255  14.380
93349W        W61712   0.955  22.736  11.973
93350W        W61713   6.390  36.413   2.348
93351W        W61714   4.373  26.558  12.868
93352W        W61715   7.404  29.638   4.207
93353W        W61716  43.380   9.822   4.164
93354W        W61717   0.469  14.141   2.288
93355W        W61718  30.099   6.910   0.871
93356W        W61719   5.378  12.732   4.819
93357W        W61720  43.001  10.266   4.187
93358W        W61721  36.084  26.555  12.073
93359W        W61722   8.817  31.488   3.327
93360W        W61723  30.568  11.244   2.395
93361W        W61724  27.456  22.114  12.575
93362W        W61725  40.867  22.653  10.608
93363W        W61726  21.528  12.731   3.215
93364W        W61727  14.727  21.136  10.530
93365W        W61728  20.084  10.140  14.514
93366W        W61729  44.467   8.356  13.501
93367W        W61730   3.228  20.056  10.459
93368W        W61731  16.778  34.387   4.635
93369W        W61732  32.635  23.603   3.244
93370W        W61733  39.857  14.778  14.384
93371W        W61734  38.541  10.668   5.797
93372W        W61735  37.404  22.145   0.805
93373W        W61736  10.259  24.178  12.381
93374W        W61737  14.678  11.833   3.824
93375W        W61738  35.384  17.293  13.852
93376W        W61739  23.630  20.083  14.332
93377W        W61740   8.738  18.546   0.279
93378W        W61741  29.070  20.595  10.610
93379W        W61742  19.733  27.509   4.671
93380W        W61743   4.244  18.549   3.168
93381W        W61744  35.432  20.143  13.313
93382W        W61745   0.462  33.032   1.772
93383W        W61746   8.360  28.149  12.971
93384W        W61747  24.107  35.442  12.394
93385W        W61748  33.584  17.134  10.897
93386W        W61749  11.674  20.672  13.925
93387W        W61750  40.868  36.546  12.849
93388W        W61751  21.602   7.822   1.221
93389W        W61752  29.666  11.280  13.329
93390W        W61753  26.463  43.449   3.326
93391W        W61754  16.620  17.567  14.300
93392W        W61755  31.517  43.458  14.889
93393W        W61756  36.081   7.317  10.632
93394W        W61757  40.465  23.689  13.989
93395W        W61758  19.259   1.754  13.887
93396W        W61759  24.720  28.982  10.540
93397W        W61760  31.642  25.028   4.158
93398W        W61761  32.033   9.230   1.274
93399W        W61762  15.807  10.762   0.899
93400W        W61763  38.485  37.340   3.349
93401W        W61764   2.246  31.503  14.922
93402W        W61765  12.801  29.633   4.647
93403W        W61766   1.878  38.930  13.934
93404W        W61767   0.330   7.760   4.296
93405W        W61768   6.830   6.877   1.215
93406W        W61769  10.171   5.347   1.807
93407W        W61770   8.308  20.713   3.209
93408W        W61771  38.503  38.345  14.498
93409W        W61772  44.409  10.323  13.343
93410W        W61773   9.211  13.810  11.406
93411W        W61774  41.809  24.148   0.441
93412W        W61775  16.229   3.892   0.741
93413W        W61776  35.555  18.723  14.992
93414W        W61777  11.372  25.997   0.390
93415W        W61778  17.598  25.701   2.782
93416W        W61779   1.903  10.383   0.264
93417W        W61780  21.526  32.100   2.843
93418W        W61781  37.428  34.068  12.887
93419W        W61782  25.573  26.620   9.935
93420W        W61783  12.746  12.734   3.236
93421W        W61784  29.993   2.451   0.401
93422W        W61785  31.982   8.654   1.345
93423W        W61786   5.288  40.841  14.770
93424W        W61787  17.636  22.674  12.456
93425W        W61788  19.661  19.079   2.862
93426W        W61789  20.228  21.625  12.344
93427W        W61790  20.221  26.555  14.491
93428W        W61791   8.737  23.996  11.429
93429W        W61792  26.463  44.259   0.828
93430W        W61793   0.910  26.129  13.352
93431W        W61794  23.558  21.548   4.633
93432W        W61795   7.348  10.191  12.024
93433W        W61796  22.199  31.025   4.122
93434W        W61797  37.951   1.277  13.967
93435W        W61798  33.994   6.813   3.188
93436W        W61799   9.842  42.518   0.858
93437W        W61800  21.196  31.627   4.702
93438W        W61801  17.189  19.577  10.616
93439W        W61802  29.456  22.074  14.822
93440W        W61803  36.924  42.322   1.321
93441W        W61804  32.554  41.515  10.574
93442W        W61805   0.473  21.106  12.972
93443W        W61806  33.495  27.183   2.687
93444W        W61807  18.258  11.725   1.361
93445W        W61808   8.178   8.359  14.796
93446W        W61809  21.713  14.117   4.604
93447W        W61810  20.698  15.106  11.082
93448W        W61811   2.472  19.242   1.359
93449W        W61812  20.266   5.767   5.226
93450W        W61813   5.211  36.036  14.831
93451W        W61814  17.218  23.585   1.268
93452W        W61815  11.628   2.890   3.300
93453W        W61816  39.474   9.776   3.272
93454W        W61817  33.620  11.699  11.449
93455W        W61818  27.515  26.081  11.420
93456W        W61819  33.432  11.322   1.246
93457W        W61820  12.169  31.601  13.463
93458W        W61821  22.691  12.652   2.215
93459W        W61822  13.706  32.591  14.494
93460W        W61823  14.710  23.662  14.960
93461W        W61824  39.029  27.492  10.915
93462W        W61825   7.242  15.298  11.868
93463W        W61826   3.409   3.790  10.579
93464W        W61827  11.174   7.308  11.866
93465W        W61828  10.225  25.662   4.270
93466W        W61829  20.604  11.305  12.527
93467W        W61830  16.779  18.745  14.302
93468W        W61831  35.018  25.663   1.752
93469W        W61832   8.167   1.806   1.859
93470W        W61833  30.476  11.246  12.953
93471W        W61834   8.301  33.394  10.434
93472W        W61835  37.893  35.927  14.282
93473W        W61836  20.151  37.543  10.928
93474W        W61837  43.280   2.365  12.552
93475W        W61838  13.154  24.702   4.808
93476W        W61839   6.181  44.436   1.376
93477W        W61840   3.226  39.903   4.201
93478W        W61841  35.000  28.551   0.836
93479W        W61842   0.316  25.079   0.921
93480W        W61843  24.663   5.696  12.922
93481W        W61844  36.512   2.956  11.857
93482W        W61845  21.127  22.635   1.240
93483W        W61846  34.979  32.912  12.456
93484W        W61847  31.064  42.829  12.390
93485W        W61848  39.993   0.891   4.761
93486W        W61849  40.957  38.845   3.683
93487W        W61850  14.618  13.764  10.414
93488W        W61851   0.956  18.136   0.874
93489W        W61852  36.969  16.758  11.896
93490W        W61853  25.182  22.026   1.376
93491W        W61854   9.725   2.907   2.831
93492W        W61855  16.752  19.212   4.647
93493W        W61856  20.157  17.611   4.335
93494W        W61857  21.209  29.478   1.728
93495W        W61858  41.938  11.795  11.976
93496W        W61859  21.161  29.155  14.899
93497W        W61860  38.475  38.018   0.817
93498W        W61861  28.457  37.570   1.408
93499W        W61862   8.764  25.496  14.505
93500W        W61863  10.178  31.619   1.398
93501W        W61864   1.817  11.258  10.609
93502W        W61865  35.887  10.735  13.378
93503W        W61866  13.205   3.800   1.216
93504W        W61867   8.164   7.688  11.500
93505W        W61868  19.602  12.838   4.233
93506W        W61869  34.560  19.709  13.367
93507W        W61870  28.462   5.208   0.376
93508W        W61871  33.109  21.728   2.684
93509W        W61872  17.678  38.448   1.217
93510W        W61873  33.588  44.911   1.737
93511W        W61874  14.209   5.293  14.427
93512W        W61875  20.272  43.451   2.753
93513W        W61876  15.794   4.889  14.876
93514W        W61877  38.908   3.322   5.297
93515W        W61878  27.984   9.253  10.483
93516W        W61879  33.961   1.968  10.050
93517W        W61880   9.214  40.466  14.440
93518W        W61881  31.901  18.219  11.091
93519W        W61882   4.318   0.285  14.811
93520W        W61883  29.649  28.491   1.746
93521W        W61884  23.224  37.411   1.387
93522W        W61885  12.728  39.940  13.496
93523W        W61886  30.031  10.233   0.394
93524W        W61887  10.217  30.596  12.911
93525W        W61888  14.323  43.430   3.799
93526W        W61889  24.596  38.492  13.370
93527W        W61890   0.946  21.693  14.313
93528W        W61891  17.792  44.952  10.637
93529W        W61892  29.638  41.467  10.635
93530W        W61893   2.824   1.352   3.798
93531W        W61894  15.140  38.449  13.843
93532W        W61895  10.745  19.260  10.963
93533W        W61896  31.476  15.736  13.388
93534W        W61897   4.784  29.662   0.864
93535W        W61898  18.674  39.434  12.391
93536W        W61899  38.536  36.898   3.205
93537W        W61900  30.010  13.817  12.413
93538W        W61901  29.173  31.066  11.557
93539W        W61902   8.860  44.492  12.577
93540W        W61903  18.710   5.709   2.800
93541W        W61904  44.361   8.836  10.920
93542W        W61905  13.629  16.593   0.460
93543W        W61906  36.016  11.258   4.117
93544W        W61907  17.607   1.316   4.170
93545W        W61908  15.647   4.377  12.027
93546W        W61909   0.808  17.263   1.805
93547W        W61910   9.761   9.707   2.699
93548W        W61911   8.219  43.296  13.977
93549W        W61912  31.513  24.635  12.860
93550W        W61913  13.160  16.793   3.862
93551W        W61914   7.265  17.071   2.709
93552W        W61915  31.544   9.172  13.346
93553W        W61916  21.249  35.961   3.274
93554W        W61917  13.338  29.983  11.532
93555W        W61918   5.278  35.058   2.758
93556W        W61919  21.140  28.070  14.907
93557W        W61920  16.698   3.942   2.275
93558W        W61921  38.459  23.535   0.291
93559W        W61922  43.382  41.035  13.898
93560W        W61923   5.688   1.363   2.412
93561W        W61924  34.965  10.667  13.332
93562W        W61925   5.810  34.499  12.499
93563W        W61926  12.723   0.250   3.239
93564W        W61927  19.127  44.998  10.101
93565W        W61928  40.430  43.454   2.406
93566W        W61929   3.372  25.477  14.792
93567W        W61930  24.705  41.903   0.962
93568W        W61931  42.343  13.220   4.770
93569W        W61932  43.767  30.535  13.322
93570W        W61933  25.628   2.779  13.800
93571W        W61934  16.293  33.622   4.814
93572W        W61935  34.923  16.225   4.192
93573W        W61936   8.377  35.475   3.317
93574W        W61937  23.158   2.958  14.423
93575W        W61938  11.692   1.337  11.993
93576W        W61939   4.858  43.434  10.616
93577W        W61940   3.818  43.792   1.326
93578W        W61941  43.808   7.407   0.890
93579W        W61942  41.488   5.215  14.310
93580W        W61943  18.276  19.582  13.021
93581W        W61944  35.414   8.882  13.989
93582W        W61945  16.675  15.583  10.598
93583W        W61946  26.058  38.883  12.344
93584W        W61947  31.432  26.059  14.444
93585W        W61948   7.365   2.252  13.017
93586W        W61949  34.525  44.946  10.524
93587W        W61950   3.854  36.030   4.641
93588W        W61951  14.248   7.785  11.970
93589W        W61952  25.085   5.288   3.667
93590W        W61953  26.020  43.820  11.895
93591W        W61954   4.790  28.105   1.276
93592W        W61955  39.952  20.124   4.273
93593W        W61956  12.665  21.088   0.848
93594W        W61957  10.140  23.049   2.238
93595W        W61958   2.916  43.458   1.847
93596W        W61959  38.889  21.240  14.512
93597W        W61960  18.604  30.522  13.914
93598W        W61961  11.641  16.805   4.192
93599W        W61962  10.855   2.251  12.402
93600W        W61963  19.078   9.385  12.414
93601W        W61964  14.125  28.553   4.160
93602W        W61965   6.699  23.165  14.336
93603W        W61966  29.469  24.988  10.582
93604W        W61967  39.833  23.069  13.953
93605W        W61968  42.439  35.100   2.762
93606W        W61969  13.784  17.109   0.432
93607W        W61970  35.381   3.712  11.573
93608W        W61971   0.814   0.797  14.777
93609W        W61972  19.639   5.707  11.599
93610W        W61973   6.806  18.671  13.005
93611W        W61974  12.842  41.391  12.398
93612W        W61975  33.952  25.539  10.610
93613W        W61976  28.458  22.622  10.417
93614W        W61977  33.947  10.364  11.978
93615W        W61978  31.010  24.980   4.836
93616W        W61979  36.497   1.267  14.508
93617W        W61980  33.057  42.283  10.441
93618W        W61981   7.234  11.701   4.821
93619W        W61982  31.040   5.829  11.866
93620W        W61983   6.910  15.094   3.340
93621W        W61984  25.156   7.270  14.303
93622W        W61985  42.348  35.577   4.288
93623W        W61986  17.210  41.349   4.287
93624W        W61987   8.334  18.231   4.705
93625W        W61988  25.702   1.364   2.371
93626W        W61989  35.911  20.581  10.557
93627W        W61990  24.018   5.262  12.934
93628W        W61991  20.088  20.055  11.551
93629W        W61992  22.196  12.286  12.434
93630W        W61993   2.265  13.761   2.679
93631W        W61994  40.434   4.409   3.307
93632W        W61995  31.558   3.748  14.412
93633W        W61996  10.851  24.685  10.891
93634W        W61997   2.873  28.124   4.604
93635W        W61998  34.998   7.415  13.823
93636W        W61999  12.148  37.997   3.300
93637W        W62000  32.539  12.773  12.084
93638W        W62001  32.098  17.616  11.401
93639W        W62002  31.525  37.431   1.439
93640W        W62003  28.500   8.262  12.554
93641W        W62004  34.948  34.429   4.614
93642W        W62005  31.563  21.229  13.793
93643W        W62006  22.142  10.181  11.487
93644W        W62007  26.955  20.541  12.903
93645W        W62008  27.108  19.700   2.866
93646W        W62009  32.935  36.031  11.118
93647W        W62010  34.899  19.538   4.117
93648W        W62011  32.467   1.393  14.337
93649W        W62012  11.623  36.954  13.514
93650W        W62013  38.018  20.651   0.777
93651W        W62014   6.287  16.626   2.887
93652W        W62015  32.585  35.038   4.675
93653W        W62016  20.574  15.618   3.260
93654W        W62017   5.348  34.994  12.570
93655W        W62018   0.279  20.109  11.001
93656W        W62019  41.040  32.610  14.471
93657W        W62020  13.157   6.890   2.823
93658W        W62021  24.211   5.219   4.742
93659W        W62022   1.912  36.482  11.856
93660W        W62023  20.252  15.248   3.749
93661W        W62024   7.891  19.637   0.809
93662W        W62025  39.036  39.988  14.279
93663W        W62026  37.478   3.273  12.027
93664W        W62027  36.967  30.150  14.369
93665W        W62028  40.809  38.375   1.335
93666W        W62029  33.044  42.290   0.802
93667W        W62030   9.782  34.887  10.974
93668W        W62031  34.987  42.812  12.393
93669W        W62032  25.962  19.745   4.160
93670W        W62033   0.940  18.294   2.782
93671W        W62034   0.979  41.793   2.209
93672W        W62035   2.856  28.040   4.298
93673W        W62036   7.869   4.922   1.314
93674W        W62037  16.119  34.512   0.853
93675W        W62038  39.958  31.516  14.503
93676W        W62039  38.508  20.084   4.803
93677W        W62040   6.428  31.413   4.690
93678W        W62041  30.590   4.233   3.844
93679W        W62042  39.002  15.281  14.443
93680W        W62043  32.414   2.895  11.045
93681W        W62044  31.461  22.561   3.745
93682W        W62045   2.455  28.129  12.444
93683W        W62046  23.673  14.161   5.190
93684W        W62047   0.470  30.933   2.307
93685W        W62048  44.868  36.070   9.961
93686W        W62049   9.795  38.552   3.745
93687W        W62050  37.900  41.853  10.975
93688W        W62051  31.991  36.986  14.763
93689W        W62052   9.169  35.474  10.434
93690W        W62053  15.102  22.709   3.747
93691W        W62054   3.732  38.914  13.823
93692W        W62055  33.447   3.256  10.954
93693W        W62056  21.575  21.517   4.235
93694W        W62057  43.498  30.975   1.900
93695W        W62058   6.248  18.696  14.282
93696W        W62059  31.901  21.180   1.767
93697W        W62060  43.780   1.262   3.301
93698W        W62061  41.487  31.648   1.773
93699W        W62062  43.801  38.471  10.094
93700W        W62063  44.501  40.931  11.469
93701W        W62064  30.964  32.450  11.959
93702W        W62065   2.745   2.281   4.633
93703W        W62066   9.725  15.595  10.943
93704W        W62067   5.432  28.056   4.276
93705W        W62068  41.956  32.450   4.692
93706W        W62069  20.756  41.979  14.460
93707W        W62070  44.409  12.706   3.176
93708W        W62071  20.144  40.829  14.840
93709W        W62072  14.318  34.545  13.909
93710W        W62073   3.867  16.196  11.466
93711W        W62074   9.739  38.934  14.959
93712W        W62075  38.445   0.928   0.757
93713W        W62076  41.953  31.431   3.262
93714W        W62077  37.892  38.938   0.271
93715W        W62078  34.912  39.369   4.801
93716W        W62079  25.688   9.732   3.659
93717W        W62080  35.444  26.547  14.829
93718W        W62081  19.263   1.301   2.343
93719W        W62082   4.334  40.366   2.804
93720W        W62083   3.235   9.822   1.356
93721W        W62084  31.089  32.608   3.373
93722W        W62085  35.903  42.905   0.855
93723W        W62086  32.610  41.429   4.739
93724W        W62087   9.200  35.568  11.921
93725W        W62088  42.411   0.856  14.375
93726W        W62089  18.178  18.249   0.354
93727W        W62090  14.167   0.485  12.405
93728W        W62091  32.911  34.433  11.971
93729W        W62092  33.982  21.042   0.812
93730W        W62093  41.858  35.040   0.263
93731W        W62094  42.921  16.229  12.018
93732W        W62095  40.366  26.565  12.974
93733W        W62096  22.207  20.742  14.470
93734W        W62097  16.569  19.043  11.912
93735W        W62098  38.368  17.111  11.075
93736W        W62099   2.467   2.874  14.010
93737W        W62100  16.149  41.939   1.426
93738W        W62101  11.744  34.452  13.956
93739W        W62102  23.551  33.931   4.680
93740W        W62103  22.225   1.339   1.780
93741W        W62104  42.412  21.232  12.929
93742W        W62105  25.071  12.815   3.212
93743W        W62106  10.722  44.390  10.421
93744W        W62107  33.951  19.652   5.206
93745W        W62108  15.146  12.351  12.578
93746W        W62109  21.022  10.347  12.926
93747W        W62110   6.751  22.105   4.688
93748W        W62111   0.456  29.955   4.698
93749W        W62112  42.935  31.436   4.659
93750W        W62113  36.481  35.586  11.490
93751W        W62114  16.691   2.895   3.735
93752W        W62115  10.357   1.870   1.707
93753W        W62116  28.639   6.695   0.363
93754W        W62117  27.606  13.132   5.715
93755W        W62118  13.743  27.101  13.894
93756W        W62119  25.636  23.711   2.323
93757W        W62120  15.244  33.086  11.416
93758W        W62121   4.351   6.884   4.771
93759W        W62122  27.590  27.069  12.512
93760W        W62123  13.283   4.758   0.947
93761W        W62124  38.051  29.920   2.314
93762W        W62125  26.078  42.803   4.791
93763W        W62126   6.259  37.831  13.445
93764W        W62127  37.948  17.615   4.600
93765W        W62128  19.589   8.244   2.763
93766W        W62129  11.232  36.931  13.948
93767W        W62130  38.907  42.392  11.443
93768W        W62131   9.163  39.552   4.267
93769W        W62132  18.685   3.924   1.768
93770W        W62133   5.318  15.808  13.792
93771W        W62134   6.311  38.547  10.433
93772W        W62135  42.492  37.953   4.289
93773W        W62136  32.131  26.648   4.647
93774W        W62137  14.222  35.062  13.364
93775W        W62138  29.545  17.276   2.271
93776W        W62139  12.645  11.765  14.975
93777W        W62140   9.332  18.556   2.259
93778W        W62141  23.192  11.245   2.370
93779W        W62142  21.560   7.740  14.856
93780W        W62143  12.307  40.502  11.024
93781W        W62144  19.655   4.298   4.751
93782W        W62145  29.648  40.916  14.366
93783W        W62146  33.487   0.910   2.210
93784W        W62147  40.851  20.648   4.647
93785W        W62148  42.908  41.353   4.667
93786W        W62149  28.037   7.743   0.930
93787W        W62150  32.087  39.520   1.703
93788W        W62151  31.980  34.371  13.358
93789W        W62152   6.335   6.830   2.267
93790W        W62153  18.681  36.459  13.409
93791W        W62154   3.865  24.006  10.115
93792W        W62155  10.165   9.189  10.520
93793W        W62156  24.992  23.180   3.293
93794W        W62157  32.902  29.943   1.215
93795W        W62158   3.755  26.574  12.013
93796W        W62159   6.198   1.763  13.504
93797W        W62160  19.681  40.042   2.680
93798W        W62161  17.142   3.259   1.796
93799W        W62162  38.508  33.487  11.888
93800W        W62163  39.865  20.547  11.976
93801W        W62164  22.582  17.087  14.803
93802W        W62165  34.615  32.598   2.195
93803W        W62166  27.010  37.547  13.987
93804W        W62167   5.794   3.334  12.001
93805W        W62168  35.079  13.194  12.433
93806W        W62169  36.066  25.026   2.184
93807W        W62170  10.325  20.118   1.402
93808W        W62171  18.619  19.618  13.816
93809W        W62172  41.455  23.137   4.800
93810W        W62173   6.701   9.736  14.878
93811W        W62174  41.961  29.974   0.940
93812W        W62175  35.382  10.855   1.921
93813W        W62176  24.722   3.238  14.900
93814W        W62177  19.716  42.833  10.511
93815W        W62178  29.488  36.579  13.801
93816W        W62179  24.615  22.652  11.388
93817W        W62180  32.025  29.987  12.868
93818W        W62181  42.458  23.557  14.869
93819W        W62182  20.030   8.368   1.765
93820W        W62183  32.899  28.468  11.578
93821W        W62184  44.452  10.646  12.860
93822W        W62185  26.151   8.387   2.803
93823W        W62186  44.920  38.381  12.055
93824W        W62187  37.427  14.680  12.370
93825W        W62188  41.004  42.814  14.800
93826W        W62189   5.439  18.546  13.040
93827W        W62190  14.313  21.059  14.930
93828W        W62191  26.998  43.412  11.372
93829W        W62192   1.388  29.496  13.417
93830W        W62193  30.104  41.990  12.440
93831W        W62194  17.654  40.333  10.977
93832W        W62195  20.083  38.047   0.329
93833W        W62196   5.750  21.512   3.680
93834W        W62197  12.186   9.877   0.375
93835W        W62198  34.031  23.554   0.784
93836W        W62199  37.921  31.416  13.925
93837W        W62200   1.387   8.180  11.081
93838W        W62201  28.561   2.871  12.397
93839W        W62202   3.913  22.055   4.242
93840W        W62203   5.269   2.798  10.929
93841W        W62204  27.472   4.895  10.498
93842W        W62205  13.197  34.904   5.289
93843W        W62206   4.362  33.925   4.338
93844W        W62207  35.405   3.334  14.797
93845W        W62208  12.761  35.459  12.960
93846W        W62209   5.375  33.007   1.235
93847W        W62210  12.816  42.441   0.447
93848W        W62211  36.500  37.408   0.461
93849W        W62212   8.351  11.310   0.824
93850W        W62213  26.666  39.879   2.341
93851W        W62214  28.591  21.660  12.838
93852W        W62215  39.036  17.703   3.850
93853W        W62216  37.076  38.405  13.348
93854W        W62217  19.775   9.714  10.445
93855W        W62218  33.895   6.815  10.982
93856W        W62219  15.112  37.968  11.098
93857W        W62220  17.592   8.381  12.428
93858W        W62221  19.714  18.695   3.146
93859W        W62222  41.428   3.439  10.514
93860W        W62223  23.685  30.030  14.353
93861W        W62224   8.205   4.826  11.577
93862W        W62225  40.403  19.123   3.163
93863W        W62226  33.049  20.042  10.501
93864W        W62227   4.370   6.225  14.921
93865W        W62228  14.134   7.742   0.476
93866W        W62229  38.066   2.798  14.433
93867W        W62230   4.781  13.332  11.589
93868W        W62231  33.042   1.962   9.506
93869W        W62232  39.535  28.111  13.964
93870W        W62233  35.985  13.725  14.343
93871W        W62234   4.234  10.370   2.337
93872W        W62235  23.128  43.452  13.938
93873W        W62236   2.962   9.157   2.889
93874W        W62237   5.329  36.518  13.980
93875W        W62238  33.401  20.725   2.717
93876W        W62239  34.943  28.067  11.897
93877W        W62240  39.045  21.527  10.925
93878W        W62241  21.061  35.976   0.962
93879W        W62242   2.933  33.504   3.811
93880W        W62243  29.583  22.587  14.330
93881W        W62244   7.825  37.086  10.480
93882W        W62245  21.522  34.967  14.340
93883W        W62246  14.824  18.243   4.708
93884W        W62247  10.260  15.616  12.866
93885W        W62248  19.200  18.648   3.268
93886W        W62249  27.668  20.224   0.252
93887W        W62250  41.457  22.997  11.910
93888W        W62251  33.423  15.314   3.231
93889W        W62252   8.863  30.025  14.346
93890W        W62253   6.309  13.317  10.954
93891W        W62254  32.440  40.042   3.660
93892W        W62255  40.388  13.220   5.322
93893W        W62256  38.885  13.619   9.555
93894W        W62257   7.298  12.620  13.506
93895W        W62258  37.843   0.851   3.267
93896W        W62259  20.160   2.926   0.957
93897W        W62260  32.928  27.479   0.911
93898W        W62261  44.976  43.486  13.972
93899W        W62262   0.436  18.148  14.913
93900W        W62263  25.120  28.450  10.604
93901W        W62264  36.034  42.934  12.397
93902W        W62265  15.594  28.175  10.561
93903W        W62266  27.166   3.722  13.821
93904W        W62267  44.373   6.322   5.130
93905W        W62268   5.894  38.542   4.229
93906W        W62269  32.072  18.644   3.783
93907W        W62270  33.596  12.638  10.909
93908W        W62271   9.657   1.760  12.042
93909W        W62272  35.089  30.563  10.521
93910W        W62273  41.495  28.541  14.828
93911W        W62274  13.692  13.825   2.308
93912W        W62275  21.223   3.862   1.755
93913W        W62276  30.090  37.513  11.551
93914W        W62277  37.405  44.444   1.285
93915W        W62278  26.599   6.797   0.861
93916W        W62279  15.293   2.917   0.274
93917W        W62280  14.119  12.229  13.976
93918W        W62281  36.572  42.778  14.332
93919W        W62282  26.012  22.246  10.614
93920W        W62283  18.697   7.292   4.663
93921W        W62284  16.288  21.205   4.178
93922W        W62285  24.493   2.921  12.490
93923W        W62286  34.512  38.344   1.808
93924W        W62287  40.384   1.765  13.813
93925W        W62288  34.931   2.267   3.806
93926W        W62289  25.177  22.702   4.795
93927W        W62290   7.790  35.533   0.251
93928W        W62291  23.665  23.711   3.259
93929W        W62292  27.546  39.523   0.876
93930W        W62293  18.087  34.479  14.316
93931W        W62294  20.614  12.196   1.248
93932W        W62295  36.419   2.751  13.409
93933W        W62296  44.366  25.669  10.440
93934W        W62297  23.017  12.648   4.736
93935W        W62298  40.831   8.168   1.349
93936W        W62299  36.007  20.766   0.272
93937W        W62300  13.640  36.487  11.969
93938W        W62301  10.851  22.177   1.327
93939W        W62302   6.816  20.764   2.395
93940W        W62303  11.688  33.594   1.278
93941W        W62304  38.517  13.185   9.505
93942W        W62305  19.744  36.387   4.738
93943W        W62306  30.051  10.157   4.770
93944W        W62307  23.046  14.632   0.962
93945W        W62308  22.650  40.406   2.751
93946W        W62309  34.038  27.532  10.480
93947W        W62310  29.461  38.953   2.398
93948W        W62311  44.491   7.235   9.995
93949W        W62312  24.612  10.223  10.899
93950W        W62313  27.106  17.120  12.934
93951W        W62314  42.301  14.604   0.799
93952W        W62315  39.422   0.985  14.777
93953W        W62316   6.686  44.334  10.485
93954W        W62317  32.909  27.105  14.931
93955W        W62318  37.069  27.609  13.013
93956W        W62319  44.786  10.756   1.904
93957W        W62320   5.421   5.401  11.090
93958W        W62321  28.109   0.417   0.791
93959W        W62322  25.210  15.304   3.725
93960W        W62323  36.444  35.508  14.927
93961W        W62324  25.480  14.729   0.316
93962W        W62325   4.702  28.153  14.492
93963W        W62326  21.181  19.726   3.184
93964W        W62327  38.977  12.635   0.746
93965W        W62328  32.521  25.705  11.118
93966W        W62329  15.085  19.191   3.698
93967W        W62330  27.581  15.616  14.027
93968W        W62331   8.848  28.939   2.283
93969W        W62332  13.131   6.844  10.050
93970W        W62333  15.292   7.194   3.800
93971W        W62334   4.909   0.929   0.425
93972W        W62335   5.216  25.150   3.631
93973W        W62336  42.465  37.843   5.192
93974W        W62337  24.178   7.712   0.913
93975W        W62338   1.441   4.944   2.197
93976W        W62339   6.347   3.430   4.609
93977W        W62340  39.504   5.200  12.834
93978W        W62341  22.610   6.273  10.978
93979W        W62342  28.545   0.861   0.247
93980W        W62343   7.743   6.763   1.306
93981W        W62344  41.299   8.766  12.908
93982W        W62345  33.624  22.054  13.817
93983W        W62346  21.715  27.590   2.896
93984W        W62347  40.504  11.246   5.152
93985W        W62348  24.651  35.917  14.356
93986W        W62349  37.971  22.217   1.731
93987W        W62350  21.055  43.980  13.923
93988W        W62351  26.033  19.741  12.556
93989W        W62352   8.672  16.159  13.316
93990W        W62353   1.968  32.514   0.335
93991W        W62354  22.997   6.213   0.393
93992W        W62355  31.445  20.090   2.321
93993W        W62356  40.493   8.842  12.531
93994W        W62357  32.589   7.397   0.844
93995W        W62358  14.111  33.904  10.536
93996W        W62359  22.032   7.308  14.456
93997W        W62360  39.344  15.129  10.940
93998W        W62361  26.693  18.631  10.917
93999W        W62362  28.609  14.122   0.765
94000W        W62363  29.517  41.420   4.296
94001W        W62364   9.798  32.964  11.115
94002W        W62365   6.782  38.032  13.837
94003W        W62366  26.561  29.020  11.910
94004W        W62367  13.825  24.662  10.553
94005W        W62368   1.771  10.359  12.521
94006W        W62369  42.307  38.069  11.970
94007W        W62370   2.738  13.717   3.691
94008W        W62371   3.344   5.912   2.834
94009W        W62372   9.750   8.855  12.011
94010W        W62373  21.620  24.172   2.692
94011W        W62374   7.822  27.577   2.256
94012W        W62375  26.113  26.471   3.331
94013W        W62376  22.121  37.989  13.033
94014W        W62377   7.911   5.315  13.938
94015W        W62378  25.103  16.634  12.361
94016W        W62379  37.924  22.243   3.703
94017W        W62380  37.502  38.328  12.851
94018W        W62381  32.932  14.604  14.853
94019W        W62382  37.031  36.557  14.312
94020W        W62383   0.353  28.061   0.387
94021W        W62384   0.264  40.967   4.315
94022W        W62385  44.262  43.806   4.172
94023W        W62386  20.228  37.546  11.901
94024W        W62387  10.209  42.347   1.282
94025W        W62388   5.193  34.611  13.844
94026W        W62389  33.502  20.271  12.509
94027W        W62390  36.392  29.067  14.431
94028W        W62391  36.415  41.791  14.317
94029W        W62392   2.345   8.805   1.850
94030W        W62393  40.004  22.647   4.133
94031W        W62394  15.318  19.664   1.898
94032W        W62395  21.737   7.194  12.931
94033W        W62396  28.661  10.253   3.785
94034W        W62397  11.196  37.396  14.893
94035W        W62398  36.593  38.076   2.706
94036W        W62399  13.638  17.776  10.404
94037W        W62400   2.286  10.769   4.811
94038W        W62401  10.252   9.890   3.633
94039W        W62402   1.413  40.512   3.697
94040W        W62403  17.143  33.041  13.823
94041W        W62404  35.009  37.847  11.077
94042W        W62405  42.960  18.230  10.990
94043W        W62406  26.574  37.899   1.889
94044W        W62407  23.500  33.580   2.831
94045W        W62408  33.481  34.113   1.723
94046W        W62409  28.998  13.704  13.328
94047W        W62410  12.158  14.685   3.278
94048W        W62411  22.090  44.779   2.300
94049W        W62412  19.183  23.094  12.451
94050W        W62413  30.000  33.557   0.346
94051W        W62414  13.277  15.122  14.821
94052W        W62415  10.835  21.256   2.270
94053W        W62416  12.761  14.159   0.789
94054W        W62417  38.454  26.975   3.832
94055W        W62418   4.304  17.795  13.546
94056W        W62419  41.454   4.917   4.159
94057W        W62420  16.742  22.175  11.492
94058W        W62421  37.972   9.262   0.811
94059W        W62422  38.954   5.313  14.799
94060W        W62423  23.614  17.167  14.478
94061W        W62424   3.837  22.137  10.447
94062W        W62425  43.342  18.610   4.694
94063W        W62426  29.005  24.644  11.578
94064W        W62427   0.946  10.634   1.245
94065W        W62428  13.158  35.601  14.511
94066W        W62429  16.304   6.760  11.017
94067W        W62430  27.668  11.826   4.219
94068W        W62431  23.995  13.255   3.677
94069W        W62432  34.463  36.977   4.243
94070W        W62433  10.789  39.448  13.504
94071W        W62434  17.113  44.295   4.234
94072W        W62435  28.182  15.654  13.537
94073W        W62436   2.817  24.622  12.397
94074W        W62437  31.063  40.038  11.451
94075W        W62438  19.154  38.072   4.146
94076W        W62439  35.005  19.765  10.129
94077W        W62440  29.561   5.423   3.200
94078W        W62441  37.919  39.008   1.417
94079W        W62442   3.849  12.225  11.915
94080W        W62443  22.155  27.474   4.643
94081W        W62444  44.328  30.049  14.999
94082W        W62445  33.965   0.889   0.281
94083W        W62446   4.931  38.565   1.267
94084W        W62447  12.139   9.887  13.410
94085W        W62448  17.102  28.671  14.411
94086W        W62449  24.205  41.796   1.710
94087W        W62450   9.210  21.681  13.439
94088W        W62451  20.671  20.084  11.572
94089W        W62452  32.594   4.841   1.330
94090W        W62453  14.129  33.941  11.428
94091W        W62454  33.475  41.478   4.685
94092W        W62455  22.652  20.230  10.546
94093W        W62456  37.570  39.524  13.005
94094W        W62457  12.219   7.259   3.671
94095W        W62458  11.213  19.622  11.118
94096W        W62459  19.198  12.752   2.301
94097W        W62460  40.019  15.255  13.465
94098W        W62461  32.997   3.446  13.800
94099W        W62462  38.409  44.458  13.051
94100W        W62463  24.112  35.556  10.982
94101W        W62464  13.709  40.345  11.855
94102W        W62465  22.017  21.682  10.444
94103W        W62466  11.695  17.257  12.830
94104W        W62467  29.490   8.765  12.907
94105W        W62468   5.771  36.514  12.901
94106W        W62469  35.434  13.343  12.409
94107W        W62470  19.279  13.815  13.490
94108W        W62471  29.496  19.732  10.931
94109W        W62472  14.102   8.676  12.521
94110W        W62473  21.019  17.258   2.700
94111W        W62474  22.067  10.255   2.251
94112W        W62475  19.544  41.012   2.280
94113W        W62476  19.730  41.870  11.004
94114W        W62477  31.116  32.530  13.829
94115W        W62478  22.575  15.213  14.951
94116W        W62479  29.005   7.698   4.170
94117W        W62480  38.365  13.191   5.182
94118W        W62481  37.451  34.049  12.427
94119W        W62482  18.124  11.210   2.349
94120W        W62483  38.516  44.299   4.221
94121W        W62484  36.970  32.534  14.020
94122W        W62485   5.769  24.720   3.671
94123W        W62486   3.826   3.382   0.441
94124W        W62487  37.416  19.280  12.393
94125W        W62488  16.685  12.836   0.796
94126W        W62489   0.441  13.287  11.040
94127W        W62490  26.089  29.431  11.487
94128W        W62491   4.755  40.853   0.956
94129W        W62492  33.593   6.308  14.346
94130W        W62493  28.665  41.808   0.752
94131W        W62494  40.940  42.812   1.274
94132W        W62495   9.696  41.875  13.537
94133W        W62496  32.462  37.552  13.370
94134W        W62497  44.443   1.262   0.478
94135W        W62498  37.074  43.970   1.420
94136W        W62499  15.782  37.571   1.239
94137W        W62500   5.341  18.110   4.641
94138W        W62501  38.490  38.848  14.841
94139W        W62502  34.913   8.389  14.771
94140W        W62503   9.276   5.289  13.909
94141W        W62504  24.134  32.946  11.067
94142W        W62505  13.148  31.946  14.833
94143W        W62506  19.231  28.969   2.287
94144W        W62507  25.702  33.104  13.458
94145W        W62508  18.056  16.207   1.374
94146W        W62509  10.819   1.241  12.473
94147W        W62510  34.382  26.696   3.165
94148W        W62511   4.944  22.206  11.380
94149W        W62512  18.596  26.487  12.924
94150W        W62513   5.767   7.381  12.448
94151W        W62514  24.052  34.041  12.491
94152W        W62515  19.536   7.874   1.411
94153W        W62516   8.227  25.104   3.316
94154W        W62517   7.323  21.746  14.421
94155W        W62518   7.739  37.490  10.561
94156W        W62519  38.443  41.521  13.366
94157W        W62520  40.036  32.512   1.769
94158W        W62521  41.864   9.880   4.696
94159W        W62522  22.166  19.266  12.881
94160W        W62523  41.944   7.719  10.509
94161W        W62524  43.785   0.361   1.825
94162W        W62525  39.037  15.662  13.983
94163W        W62526   5.719  41.881  14.868
94164W        W62527  37.542  16.208   4.307
94165W        W62528   6.219   9.701   3.831
94166W        W62529  26.205   5.820   4.629
94167W        W62530  35.555  22.694  14.324
94168W        W62531   2.330  24.219   2.417
94169W        W62532  41.009  33.453  11.391
94170W        W62533  12.183  27.176  13.977
94171W        W62534  40.985  25.670   0.781
94172W        W62535  39.495  39.435  11.551
94173W        W62536   4.349  43.978  14.293
94174W        W62537  28.066   1.964   0.876
94175W        W62538  31.525  22.573   2.274
94176W        W62539   3.338   0.285  14.509
94177W        W62540  42.975  11.158  13.046
94178W        W62541  30.992  31.437   4.695
94179W        W62542  22.630  29.104  14.996
94180W        W62543  33.030  27.586   0.470
94181W        W62544  12.804   4.758  10.631
94182W        W62545  28.567  11.338  14.416
94183W        W62546   2.382  20.154  13.899
94184W        W62547  15.298  18.099  10.562
94185W        W62548  25.473  44.816   1.873
94186W        W62549  38.926  40.803  13.026
94187W        W62550  24.034  38.441   0.373
94188W        W62551   6.218  32.011   4.163
94189W        W62552  15.728   7.767   2.338
94190W        W62553  29.633   6.250   2.217
94191W        W62554  32.509  36.843  12.401
94192W        W62555  27.549  41.977   4.211
94193W        W62556  14.106  11.351  10.434
94194W        W62557  42.918  17.307   1.270
94195W        W62558  29.072  43.791  11.471
94196W        W62559  33.550  23.735  14.769
94197W        W62560  35.892  39.825   0.419
94198W        W62561  28.633  22.027   0.805
94199W        W62562  25.532  34.904   4.603
94200W        W62563   7.852   8.375  11.858
94201W        W62564   7.265  37.395  13.886
94202W        W62565  43.898  18.196   4.179
94203W        W62566  22.631  38.931  13.322
94204W        W62567  11.346   4.771  14.939
94205W        W62568   5.280  13.842  12.579
94206W        W62569  10.147   1.383   0.314
94207W        W62570  32.132  20.765  11.499
94208W        W62571  21.088  12.341  14.459
94209W        W62572  24.608  10.714  12.371
94210W        W62573  15.643  37.955   3.247
94211W        W62574  41.807  18.131   9.920
94212W        W62575  41.820  40.324   3.641
94213W        W62576  30.963  39.007  14.312
94214W        W62577  41.834  10.218  13.044
94215W        W62578  24.652   5.845   1.301
94216W        W62579  35.416  34.433  10.442
94217W        W62580  24.620   3.709  11.099
94218W        W62581  37.084  19.551  13.853
94219W        W62582   4.315  36.062  11.989
94220W        W62583  31.003   8.204   0.414
94221W        W62584  13.220  42.930  11.450
94222W        W62585  23.995  38.887   2.821
94223W        W62586   1.825  12.702  10.612
94224W        W62587  26.580   9.775   1.420
94225W        W62588  17.116  10.287  13.380
94226W        W62589  12.790  10.633  11.942
94227W        W62590   8.670  13.770   1.801
94228W        W62591  24.699  41.293  11.417
94229W        W62592  42.283  13.756  10.929
94230W        W62593   7.768  15.681  14.372
94231W        W62594  24.148  40.329  11.456
94232W        W62595  19.276  43.850  14.319
94233W        W62596  38.058  28.011  10.066
94234W        W62597  14.825   2.918   2.807
94235W        W62598  39.431  41.354   3.751
94236W        W62599  14.645  32.454   1.433
94237W        W62600  20.535  15.768   0.736
94238W        W62601   1.868  31.994   0.460
94239W        W62602  32.503  43.329   3.215
94240W        W62603   7.828  19.221   1.393
94241W        W62604  39.907   0.866  12.433
94242W        W62605  15.629  24.658   3.706
94243W        W62606  23.583  39.034   0.730
94244W        W62607  30.554  12.320  11.945
94245W        W62608  31.473   1.417   0.726
94246W        W62609  26.167   2.303   3.715
94247W        W62610  31.426  44.449   4.687
94248W        W62611  23.089  30.650   3.704
94249W        W62612  10.147  42.815  14.018
94250W        W62613  17.728  23.078   0.746
94251W        W62614  31.110  31.913   1.863
94252W        W62615  32.557   5.924  13.912
94253W        W62616   4.875  13.153   4.348
94254W        W62617  10.733  17.192  10.917
94255W        W62618   2.387  43.391   2.282
94256W        W62619  33.595  29.014   3.274
94257W        W62620  16.285  34.491   3.856
94258W        W62621  12.689  31.071  12.964
94259W        W62622  31.642  43.408   4.635
94260W        W62623  16.206  34.103  11.906
94261W        W62624  25.578  17.619   3.848
94262W        W62625  34.597  24.513  14.372
94263W        W62626  18.132  12.226  10.444
94264W        W62627  37.513  36.036   3.177
94265W        W62628  44.323   4.833   1.353
94266W        W62629  33.100   2.296  11.073
94267W        W62630  20.092  13.777   3.163
94268W        W62631  34.578  28.179  11.065
94269W        W62632   9.807  13.132   3.686
94270W        W62633  44.490   6.820   3.354
94271W        W62634  26.626  32.443  12.899
94272W        W62635   9.180  16.085   2.354
94273W        W62636  13.289  10.855   0.815
94274W        W62637   9.331   8.383   1.222
94275W        W62638   6.873  42.522  13.985
94276W        W62639  28.555  12.298   2.243
94277W        W62640   6.751  37.513   3.159
94278W        W62641  24.499   1.247  11.027
94279W        W62642  25.138   0.365  11.119
94280W        W62643  35.069  17.298  11.923
94281W        W62644  33.090  24.058   3.312
94282W        W62645   4.774  16.314   3.206
94283W        W62646  39.009   9.691   9.980
94284W        W62647  37.505  39.489  11.069
94285W        W62648  25.539  33.545   3.871
94286W        W62649  18.114  15.601  11.377
94287W        W62650  12.255  21.061   0.920
94288W        W62651   5.904  29.946   2.743
94289W        W62652   1.849   8.356  14.390
94290W        W62653  13.824  11.353  14.490
94291W        W62654  20.730  13.179   0.452
94292W        W62655   9.736  22.697   0.421
94293W        W62656   1.868  15.637  10.954
94294W        W62657  19.625  41.479  14.973
94295W        W62658  14.132  30.431   2.396
94296W        W62659  20.265  25.072   3.725
94297W        W62660   2.388  31.985  14.027
94298W        W62661  14.288  14.260  13.433
94299W        W62662  18.739  34.078   2.841
94300W        W62663  13.610  16.285  10.950
94301W        W62664  40.475  14.706   3.214
94302W        W62665  31.591   4.310   2.765
94303W        W62666   2.231  32.595   1.752
94304W        W62667  42.931  24.078   0.328
94305W        W62668  12.643   6.888   0.883
94306W        W62669  39.363  11.654  13.506
94307W        W62670   7.855  18.240  14.331
94308W        W62671   5.269   1.278  11.984
94309W        W62672  23.594   1.419  13.448
94310W        W62673   4.899  28.457   1.283
94311W        W62674   0.360  32.583   0.481
94312W        W62675  17.149  15.232   2.805
94313W        W62676   4.928  11.362  12.991
94314W        W62677  41.504  13.137   1.327
94315W        W62678  13.209   3.885  13.340
94316W        W62679  11.244  34.389  13.903
94317W        W62680  39.899  42.503   2.796
94318W        W62681  38.958  20.061  12.888
94319W        W62682   3.821  18.640  14.789
94320W        W62683   5.705  33.886   3.645
94321W        W62684   8.404  35.520  12.057
94322W        W62685  18.177  25.086  10.576
94323W        W62686  34.553   7.260   4.827
94324W        W62687   3.817  11.860   2.248
94325W        W62688  34.988  11.709   0.792
94326W        W62689  37.411  27.450  14.017
94327W        W62690  17.588  16.197  11.499
94328W        W62691  23.206  38.839   0.776
94329W        W62692  21.086  37.569   1.779
94330W        W62693  33.432  35.485   0.927
94331W        W62694  25.150  32.479  11.995
94332W        W62695   6.677  18.126  12.529
94333W        W62696  39.367  28.161   2.355
94334W        W62697   0.480   2.241  11.935
94335W        W62698  31.902  38.922  12.880
94336W        W62699  15.798   2.955  14.303
94337W        W62700  40.007  13.116  12.551
94338W        W62701  32.052  25.545   0.883
94339W        W62702  40.306   4.756   9.991
94340W        W62703   0.825  30.965  13.912
94341W        W62704  24.482  41.372   2.827
94342W        W62705  32.068  26.517  12.854
94343W        W62706  41.901  23.046  10.491
94344W        W62707  16.252  14.297   2.375
94345W        W62708  43.899  40.051   1.706
94346W        W62709  41.849  38.904   0.461
94347W        W62710   6.302   0.774   4.789
94348W        W62711  14.743  22.641  11.603
94349W        W62712  16.150  25.695   0.299
94350W        W62713   8.811  22.734   1.892
94351W        W62714   6.308   9.701  11.463
94352W        W62715  38.848  10.677   4.751
94353W        W62716  42.420  20.634   0.886
94354W        W62717  32.115  14.206   4.174
94355W        W62718  28.524  27.585   0.838
94356W        W62719  23.192  37.503  10.452
94357W        W62720   2.391  30.158  13.032
94358W        W62721  40.396  40.808  12.452
94359W        W62722  32.636  30.479  11.528
94360W        W62723  18.075  20.208   0.460
94361W        W62724  16.733  13.212  10.438
94362W        W62725  40.526  30.979  13.847
94363W        W62726  39.869  37.044  14.873
94364W        W62727  39.325   8.196  14.469
94365W        W62728  36.000  33.594   2.838
94366W        W62729  12.633   7.243   2.370
94367W        W62730  37.990  14.759   2.277
94368W        W62731  40.391  27.642  13.011
94369W        W62732  35.385  24.587  11.965
94370W        W62733  34.066  27.085  14.446
94371W        W62734   5.925  30.924  13.369
94372W        W62735  19.607  22.111  14.858
94373W        W62736  21.239  32.916  14.993
94374W        W62737  35.945  17.746   1.427
94375W        W62738  35.494  36.022  14.782
94376W        W62739  24.089  30.556   2.350
94377W        W62740  31.604  27.965  11.048
94378W        W62741  17.223   8.393  11.520
94379W        W62742  37.048  24.712  11.418
94380W        W62743  44.425  11.362   2.750
94381W        W62744  21.670  33.955   3.359
94382W        W62745  35.110  14.291   2.302
94383W        W62746   6.269  19.160   3.828
94384W        W62747  20.543  20.535   4.307
94385W        W62748   7.903  20.601  12.891
94386W        W62749  19.277   1.885  12.540
94387W        W62750  44.894  28.437   3.721
94388W        W62751  20.631   7.725   0.371
94389W        W62752  30.997  24.657  11.077
94390W        W62753   2.400  30.449   2.270
94391W        W62754   5.789   4.401   0.371
94392W        W62755  13.118  39.008   4.240
94393W        W62756  25.608  36.370   1.794
94394W        W62757   3.388  36.464   3.782
94395W        W62758  28.054  14.184   0.824
94396W        W62759  32.958  23.106  11.030
94397W        W62760  38.386  22.236  12.532
94398W        W62761  25.125  15.796  12.004
94399W        W62762  11.652  18.617  12.453
94400W        W62763  32.516  40.495   2.388
94401W        W62764  28.083  38.994  12.438
94402W        W62765  19.559  38.000  11.080
94403W        W62766   2.940  22.528  13.028
94404W        W62767  19.221  30.916  11.533
94405W        W62768  34.532  22.500   2.184
94406W        W62769   2.949   8.706   0.929
94407W        W62770  25.113  35.511  12.843
94408W        W62771  23.692  22.073  11.543
94409W        W62772  27.522  22.697   3.150
94410W        W62773  36.547  32.605  12.557
94411W        W62774  36.086   3.749  13.545
94412W        W62775  39.339  17.068  12.567
94413W        W62776   2.345   1.437   1.441
94414W        W62777  37.544  23.707  13.921
94415W        W62778  27.483  34.601   4.322
94416W        W62779  14.319  26.656  14.340
94417W        W62780   0.976  12.175   0.870
94418W        W62781   2.793  36.376   4.215
94419W        W62782  32.506  31.487   4.763
94420W        W62783  38.545  23.178  14.969
94421W        W62784   4.243  19.269   3.771
94422W        W62785  12.838  10.758   1.296
94423W        W62786  44.303  12.213   4.317
94424W        W62787   8.245  25.589   4.726
94425W        W62788  33.626  40.312   2.888
94426W        W62789  18.551  27.075  14.291
94427W        W62790  19.114  20.250  11.437
94428W        W62791  22.034  15.766  12.369
94429W        W62792  20.274  12.134   0.417
94430W        W62793  42.323   7.215   4.297
94431W        W62794  27.487   9.345  14.343
94432W        W62795  16.794  31.612   2.858
94433W        W62796  11.358  37.466  13.352
94434W        W62797  31.916  13.832   3.232
94435W        W62798  14.263  22.130   3.230
94436W        W62799   5.882  14.612   4.262
94437W        W62800  39.006  28.977   2.269
94438W        W62801  44.323   4.861   1.726
94439W        W62802  37.963  41.496   1.757
94440W        W62803  32.109  14.729   2.185
94441W        W62804  25.700  28.484   3.154
94442W        W62805  24.043   7.818   1.796
94443W        W62806  31.905  27.155   4.193
94444W        W62807  27.508  30.647  11.476
94445W        W62808  17.124   6.242   2.244
94446W        W62809   8.876  33.907  11.010
94447W        W62810  16.109  39.865  14.915
94448W        W62811  41.533   2.905   4.336
94449W        W62812  12.223  43.448  14.513
94450W        W62813  15.188   2.383   0.733
94451W        W62814  37.038   1.262   2.900
94452W        W62815   3.382  15.742  12.378
94453W        W62816  27.072   9.375  14.953
94454W        W62817  23.079  42.916  13.884
94455W        W62818  20.110  17.110   4.765
94456W        W62819  10.782  31.521  11.873
94457W        W62820  16.152  10.659   2.243
94458W        W62821  39.002  37.420  12.417
94459W        W62822  25.544   0.421  14.456
94460W        W62823  42.022  36.067   0.327
94461W        W62824   2.330  39.433  14.966
94462W        W62825  42.970   3.803  11.581
94463W        W62826  39.027  21.036  12.916
94464W        W62827  10.721  27.178   4.616
94465W        W62828   4.310   0.812   2.728
94466W        W62829  20.736  25.640  13.935
94467W        W62830  32.886  11.695  12.010
94468W        W62831  27.055  26.976  11.949
94469W        W62832  11.335  37.917  10.487
94470W        W62833  33.103   0.334   2.321
94471W        W62834  30.142   6.244   4.296
94472W        W62835  39.403  10.825  13.312
94473W        W62836  28.013  12.132   2.747
94474W        W62837   5.719  16.197   1.425
94475W        W62838  31.079  31.906   1.221
94476W        W62839  11.757  19.067  10.589
94477W        W62840  39.035  14.148  10.133
94478W        W62841  31.955  18.095  12.523
94479W        W62842  18.059  21.209   2.268
94480W        W62843  31.057  12.692   0.415
94481W        W62844  43.504  21.550   1.383
94482W        W62845  18.614  34.980   0.432
94483W        W62846   7.902  20.769  13.890
94484W        W62847  31.589   1.954  12.854
94485W        W62848  26.575  41.516  11.592
94486W        W62849  44.779   5.819   2.886
94487W        W62850  32.032   0.419   2.418
94488W        W62851   6.370  17.665  13.938
94489W        W62852  35.002  32.109   3.181
94490W        W62853   7.385  42.477  13.411
94491W        W62854  14.241  17.269   4.806
94492W        W62855  31.429  31.408   1.258
94493W        W62856  36.490  36.899   4.253
94494W        W62857  37.525  19.779   3.157
94495W        W62858  26.652   8.365  12.571
94496W        W62859   5.896   7.333  10.905
94497W        W62860  22.670   5.734   0.933
94498W        W62861   9.237  15.658  10.891
94499W        W62862  19.724   7.268  14.307
94500W        W62863  29.565  41.898  10.972
94501W        W62864  13.167  22.133   3.385
94502W        W62865  37.375  43.916   4.644
94503W        W62866  35.489  14.248   1.900
94504W        W62867  29.638  20.221  11.525
94505W        W62868  19.211  32.909  12.008
94506W        W62869  24.646  23.038   0.326
94507W        W62870  14.182  43.462   1.828
94508W        W62871   6.189  16.223   3.276
94509W        W62872  11.682  34.959   4.771
94510W        W62873  18.605  22.201  11.041
94511W        W62874   9.716  21.139   1.251
94512W        W62875  18.149  37.085   0.866
94513W        W62876  13.196  26.604  14.899
94514W        W62877  25.560  13.611   1.247
94515W        W62878  25.097  26.089  12.487
94516W        W62879  43.465  28.465   2.885
94517W        W62880  18.290  14.615  13.375
94518W        W62881   0.252  12.629  11.029
94519W        W62882  12.819  29.061   1.291
94520W        W62883  25.613  31.031  10.933
94521W        W62884  30.019  22.079   2.841
94522W        W62885  33.031  10.835   0.281
94523W        W62886   2.306  11.175  13.027
94524W        W62887   8.692  20.210  11.043
94525W        W62888  21.123   9.241  12.092
94526W        W62889  41.507   9.850   2.777
94527W        W62890   7.748  12.269  13.523
94528W        W62891  15.117  35.029  10.485
94529W        W62892  35.552  29.017   0.278
94530W        W62893  32.534   8.217   2.893
94531W        W62894  31.554   4.264   2.336
94532W        W62895  42.398  23.615   2.234
94533W        W62896  44.009  23.703  10.460
94534W        W62897  23.658  28.654  11.002
94535W        W62898  23.142  36.434  13.979
94536W        W62899  15.213  43.946  14.420
94537W        W62900  14.813  21.565   3.766
94538W        W62901  10.355   6.283   0.381
94539W        W62902  29.145  40.400  10.410
94540W        W62903  25.533  10.652   1.739
94541W        W62904  27.573  21.740   1.739
94542W        W62905  39.883  22.628  14.785
94543W        W62906  14.112  10.174  12.933
94544W        W62907  27.478  43.850  14.305
94545W        W62908  26.998   3.398  13.847
94546W        W62909   2.817  12.659   4.827
94547W        W62910  36.921  29.556  12.437
94548W        W62911  18.081  39.978  13.857
94549W        W62912  22.743  42.968   4.758
94550W        W62913  20.749  10.660   4.785
94551W        W62914  30.116  27.037   2.232
94552W        W62915  44.860  20.636   2.243
94553W        W62916   8.282  23.525  11.015
94554W        W62917  25.044   1.419  14.769
94555W        W62918  34.479   5.693  11.939
94556W        W62919  31.492  11.626  14.980
94557W        W62920  20.636  37.983  12.393
94558W        W62921  15.244   7.726   2.251
94559W        W62922  27.010   3.262   3.781
94560W        W62923  43.319  14.615  11.938
94561W        W62924  25.048  15.128   4.692
94562W        W62925  11.284  27.970  10.579
94563W        W62926  21.224  43.405   0.299
94564W        W62927  14.122  10.669   2.896
94565W        W62928  38.410  39.472  12.423
94566W        W62929  30.553  16.073   1.267
94567W        W62930  28.656  38.892   2.696
94568W        W62931   7.251  13.223  11.393
94569W        W62932   0.261  35.097   4.204
94570W        W62933  12.348  25.097   0.479
94571W        W62934  20.103  36.554   0.433
94572W        W62935  11.285  20.599   3.349
94573W        W62936  10.276  39.525  14.323
94574W        W62937  44.814  34.916  12.847
94575W        W62938  30.076  18.063  14.782
94576W        W62939   8.378   5.371   4.309
94577W        W62940  15.592   0.402   4.180
94578W        W62941  20.560  19.761   2.726
94579W        W62942  32.442  39.900   0.895
94580W        W62943  23.625  11.213   0.876
94581W        W62944  30.930  24.161   3.182
94582W        W62945   5.904  34.396  10.528
94583W        W62946  32.987   4.759  11.970
94584W        W62947  22.022  39.520   4.320
94585W        W62948   0.299  18.165  13.324
94586W        W62949  40.908  12.180   2.223
94587W        W62950  18.747  37.051  14.285
94588W        W62951  19.063   2.817   2.776
94589W        W62952  31.150  38.893   1.854
94590W        W62953  44.954  27.592  10.974
94591W        W62954  14.329  22.544   2.683
94592W        W62955  40.399   4.733  12.923
94593W        W62956   5.316  13.311   3.202
94594W        W62957  36.545  39.832   1.413
94595W        W62958   7.205  15.693  12.027
94596W        W62959  25.708  27.643   3.217
94597W        W62960   1.419   7.197  13.468
94598W        W62961   6.382   8.852   4.120
94599W        W62962  15.627  10.219   4.117
94600W        W62963   3.418  37.388   0.442
94601W        W62964  33.038  15.088  14.833
94602W        W62965  42.453  26.537  12.058
94603W        W62966  16.136   0.923  10.914
94604W        W62967  24.565  40.394   2.373
94605W        W62968   9.755  23.585   4.250
94606W        W62969   6.754  44.894   1.926
94607W        W62970  26.000  17.274   4.226
94608W        W62971  20.747  37.473  13.813
94609W        W62972   7.856  11.703  11.012
94610W        W62973  40.528  28.471  14.290
94611W        W62974  24.636  38.007   2.249
94612W        W62975  21.678  26.999  11.920
94613W        W62976  21.732   8.746  13.822
94614W        W62977   3.773  20.246  13.342
94615W        W62978  12.780   3.261  13.471
94616W        W62979  39.430  22.529  14.812
94617W        W62980  35.519  43.422   0.443
94618W        W62981  38.046  26.061  13.976
94619W        W62982  15.253  28.455  14.415
94620W        W62983  38.388  22.516   0.424
94621W        W62984   2.920  25.614   2.710
94622W        W62985  15.584  15.130   0.900
94623W        W62986  38.072   5.265   0.410
94624W        W62987   0.448  44.937  14.944
94625W        W62988   1.974   5.712  14.975
94626W        W62989  15.207   7.853   0.814
94627W        W62990   5.344   8.326   1.923
94628W        W62991  44.404  22.071   3.815
94629W        W62992  42.396  35.989   3.654
94630W        W62993   3.803  24.063  13.375
94631W        W62994  10.271  32.603  14.429
94632W        W62995  37.835  17.297   1.698
94633W        W62996   5.309   1.769   0.318
94634W        W62997  24.015  33.595  11.955
94635W        W62998  35.052  17.728   3.666
94636W        W62999  40.048  41.795  14.439
94637W        W63000  12.224  19.554   2.714
94638W        W63001  18.696   0.295  11.418
94639W        W63002  20.627  32.479   3.775
94640W        W63003  44.901   9.821  13.453
94641W        W63004  32.102  41.437   0.735
94642W        W63005   4.374  16.094  12.507
94643W        W63006  10.213  14.236   3.742
94644W        W63007  17.236  14.677   4.759
94645W        W63008  32.066  25.484   4.813
94646W        W63009  22.109  44.472   3.750
94647W        W63010   4.359  13.674   3.647
94648W        W63011  32.611   1.444   0.743
94649W        W63012  30.114  11.722  13.926
94650W        W63013  39.000  34.866  14.000
94651W        W63014  13.718   9.162  13.905
94652W        W63015  33.077  27.165   1.236
94653W        W63016  40.384  10.352  11.866
94654W        W63017   4.261  39.014  12.399
94655W        W63018  19.132  35.567   3.664
94656W        W63019  27.184  14.721   4.798
94657W        W63020  15.313  12.803  10.620
94658W        W63021  25.022   8.771  12.374
94659W        W63022   8.163  13.219  10.535
94660W        W63023  27.590  32.549   1.761
94661W        W63024  26.144  14.280   1.720
94662W        W63025  25.667   5.792   4.772
94663W        W63026  40.904  31.104  11.459
94664W        W63027  21.112  11.156   4.633
94665W        W63028  22.587  25.054   3.299
94666W        W63029   5.812  15.615  13.918
94667W        W63030  29.632   6.237  10.504
94668W        W63031  27.974  40.486  13.853
94669W        W63032  17.295  42.834   3.343
94670W        W63033  37.543  24.015   4.664
94671W        W63034  32.500  20.245   1.329
94672W        W63035  34.575  42.906   2.730
94673W        W63036  11.176  42.925   2.303
94674W        W63037  17.190  42.951  12.493
94675W        W63038  33.512  17.115  14.767
94676W        W63039   6.817  24.153  14.393
94677W        W63040   1.773  42.864   3.380
94678W        W63041  23.067  29.163  14.317
94679W        W63042  16.149  13.607  12.925
94680W        W63043  10.281  42.895   1.252
94681W        W63044  36.933  35.533  14.896
94682W        W63045  21.063  37.493   4.195
94683W        W63046   3.766  37.483   0.966
94684W        W63047  27.057  25.700  10.637
94685W        W63048  39.942  14.143   3.676
94686W        W63049   5.204  29.939   3.843
94687W        W63050  30.597  24.985  12.561
94688W        W63051  30.120  36.380   4.268
94689W        W63052  27.516  38.040   2.359
94690W        W63053  20.611  22.172   0.444
94691W        W63054  12.342  44.346   4.713
94692W        W63055  33.516  22.089   3.764
94693W        W63056  18.608  38.925  12.388
94694W        W63057  24.652  32.543  13.476
94695W        W63058  41.446  16.605   1.240
94696W        W63059  27.607   1.940   0.251
94697W        W63060  26.059  35.053   1.932
94698W        W63061  41.336  12.134  11.374
94699W        W63062  18.267  19.150  14.386
94700W        W63063  16.122  28.973   3.788
94701W        W63064   9.713  17.265   0.940
94702W        W63065  21.547  22.683  11.869
94703W        W63066  42.001  42.029  14.947
94704W        W63067  13.328  41.906  10.488
94705W        W63068   5.257   4.264  13.993
94706W        W63069  25.036  17.247  13.950
94707W        W63070  22.645  33.910  10.487
94708W        W63071   0.849  40.454   1.722
94709W        W63072  17.665  31.500  12.960
94710W        W63073   7.704  15.123   0.328
94711W        W63074  24.161   7.709   1.335
94712W        W63075  22.194   5.891  11.999
94713W        W63076  24.680  36.572  10.537
94714W        W63077  34.564   7.778  10.581
94715W        W63078  31.985   0.355   0.839
94716W        W63079   8.237  21.174  14.927
94717W        W63080  15.144  25.523   4.698
94718W        W63081  20.105  38.911  14.786
94719W        W63082   2.357  15.239  14.449
94720W        W63083   1.283  19.713  11.492
94721W        W63084  24.724  20.745   0.776
94722W        W63085  36.496  36.077  13.393
94723W        W63086   1.238   6.693  10.935
94724W        W63087   0.361  43.403  10.978
94725W        W63088  25.164  33.449   0.961
94726W        W63089  15.212  15.617  13.856
94727W        W63090  23.638  12.312   4.239
94728W        W63091   1.775  19.566  11.928
94729W        W63092  41.792  36.524   1.906
94730W        W63093  20.079  18.571   1.847
94731W        W63094  31.063  14.213   5.117
94732W        W63095  18.120  10.859  10.493
94733W        W63096  34.505  43.903  14.898
94734W        W63097  44.916  17.767  14.785
94735W        W63098   2.275  35.915  12.531
94736W        W63099  15.784  44.823   2.749
94737W        W63100  29.457  14.170   3.372
94738W        W63101  17.572  15.656   3.178
94739W        W63102  26.112  21.226  14.468
94740W        W63103  40.338   8.390   4.325
94741W        W63104  28.535  20.270   0.433
94742W        W63105  30.138  25.565   0.349
94743W        W63106  38.940  34.974  11.516
94744W        W63107  43.348   8.335  13.890
94745W        W63108  41.527  29.137  13.312
94746W        W63109  17.573  12.144  11.406
94747W        W63110  32.033  29.926  11.095
94748W        W63111  10.236  38.075  10.924
94749W        W63112   1.938   8.210   3.182
94750W        W63113  29.925  35.423  11.017
94751W        W63114  37.482  41.371   0.947
94752W        W63115  32.616  31.499   4.271
94753W        W63116  35.875  33.883   2.411
94754W        W63117   7.177  16.108   0.823
94755W        W63118  41.867  26.158   4.633
94756W        W63119  38.863   9.814   3.870
94757W        W63120   2.967  18.098  13.362
94758W        W63121  34.533  19.258  14.281
94759W        W63122  28.474  17.662  10.551
94760W        W63123  28.064  42.872   1.832
94761W        W63124  23.591  10.648   0.824
94762W        W63125  26.114  39.958   3.215
94763W        W63126   1.356  35.473  11.077
94764W        W63127  21.711  33.083   3.648
94765W        W63128  10.760   7.385  12.076
94766W        W63129  25.497  10.834  13.008
94767W        W63130  15.590  19.633   4.280
94768W        W63131   4.932  37.984  12.515
94769W        W63132  15.615   4.242   5.687
94770W        W63133  26.531  36.015   3.826
94771W        W63134  24.691  23.008  13.419
94772W        W63135   4.819   3.306  14.760
94773W        W63136  12.712  40.306   3.732
94774W        W63137  43.882  24.572   1.922
94775W        W63138  19.731   1.375   0.794
94776W        W63139  21.653  43.481   1.708
94777W        W63140   5.370  32.507  14.938
94778W        W63141  41.845  29.978   2.332
94779W        W63142  14.789  13.339  12.528
94780W        W63143   7.256   5.854  10.969
94781W        W63144  16.166  33.382  14.913
94782W        W63145  36.464  17.274   1.448
94783W        W63146  39.825  21.530  10.519
94784W        W63147   1.265   7.390  10.643
94785W        W63148  26.175  29.426   2.699
94786W        W63149  11.739  11.694   4.142
94787W        W63150  19.582  28.073  12.509
94788W        W63151  35.050  36.028  13.330
94789W        W63152  22.655  44.368  13.902
94790W        W63153   6.210  31.120  10.607
94791W        W63154  20.125  10.768  14.398
94792W        W63155   5.309  25.683   0.252
94793W        W63156  11.842  35.979   1.854
94794W        W63157   4.369   6.686  13.826
94795W        W63158   8.685  31.060   1.901
94796W        W63159   7.236   6.795   3.780
94797W        W63160  24.204  25.107   0.925
94798W        W63161   1.922  20.688   4.297
94799W        W63162  41.924   4.934  14.884
94800W        W63163  26.515  12.665  10.916
94801W        W63164  39.481  10.185   1.933
94802W        W63165  20.569  42.949   3.198
94803W        W63166  34.528  28.957   3.192
94804W        W63167   8.163  13.841  12.050
94805W        W63168   0.347  30.129   3.661
94806W        W63169  12.218  27.534  12.925
94807W        W63170  20.680  17.211   3.849
94808W        W63171  33.037  19.547  14.994
94809W        W63172  25.548  15.159   0.453
94810W        W63173   5.837  25.187   1.329
94811W        W63174  40.821   8.253  14.795
94812W        W63175  13.816  16.581  10.520
94813W        W63176  39.472  34.550  12.569
94814W        W63177  28.681  18.281   2.831
94815W        W63178  43.906  27.174   2.268
94816W        W63179   1.290  11.671  14.502
94817W        W63180  30.579  28.991  10.579
94818W        W63181  26.627   4.927   1.800
94819W        W63182  12.831  16.725   1.849
94820W        W63183   6.376  42.893   0.336
94821W        W63184  16.779  13.796  11.451
94822W        W63185  43.348  27.644   0.350
94823W        W63186   6.893  31.575   2.311
94824W        W63187   6.421  38.384   3.266
94825W        W63188  42.031  25.576  12.482
94826W        W63189  34.523  18.694   2.704
94827W        W63190  12.708  30.475  11.019
94828W        W63191  24.682  10.860  13.492
94829W        W63192  37.532  14.208   1.327
94830W        W63193  33.971  43.271   3.766
94831W        W63194  12.319  35.474  13.022
94832W        W63195   8.657   8.265  13.921
94833W        W63196  17.061  40.549   4.298
94834W        W63197  12.286  12.851   0.840
94835W        W63198  44.375  35.038  12.347
94836W        W63199  12.300  29.497  13.403
94837W        W63200  15.170   6.715  10.954
94838W        W63201  19.251  18.248  14.292
94839W        W63202  30.163  44.955  12.449
94840W        W63203  12.685  25.570   0.819
94841W        W63204  31.957  42.294   0.807
94842W        W63205  22.635  30.537   0.446
94843W        W63206  41.309  44.778   2.345
94844W        W63207   1.441   7.180   4.275
94845W        W63208  33.397  39.367  11.095
94846W        W63209  12.234  37.875  14.507
94847W        W63210  31.940   4.827   0.928
94848W        W63211  32.393  34.953   2.894
94849W        W63212  26.975  12.211   0.746
94850W        W63213   1.954  39.065  10.965
94851W        W63214   4.794  42.030  11.388
94852W        W63215   1.973  35.438  11.022
94853W        W63216   1.412  13.636   2.733
94854W        W63217  31.511  38.338   1.359
94855W        W63218  31.530  32.018  12.892
94856W        W63219  38.327  29.521  14.975
94857W        W63220  17.157  43.858   3.337
94858W        W63221  25.536  17.613  12.877
94859W        W63222  24.072  24.167   0.395
94860W        W63223  32.460   1.397  13.383
94861W        W63224  37.424  40.799   1.298
94862W        W63225  34.986  43.421   3.632
94863W        W63226  44.834  21.197   2.674
94864W        W63227  37.979  33.097  10.448
94865W        W63228   8.309   0.756   2.740
94866W        W63229  19.221  39.981   3.207
94867W        W63230  12.855  41.929   1.424
94868W        W63231  18.097   6.207  11.880
94869W        W63232   3.828   0.940  11.003
94870W        W63233   6.874  12.187   0.910
94871W        W63234  27.473  20.671   3.750
94872W        W63235  33.076  20.273   0.408
94873W        W63236  22.138   3.711  13.499
94874W        W63237  31.130  36.089   2.191
94875W        W63238  29.628  30.427   3.294
94876W        W63239   0.747  42.994   4.319
94877W        W63240  19.657  23.610  14.822
94878W        W63241  43.432  17.241   0.319
94879W        W63242   8.405  24.062   3.277
94880W        W63243  12.170  13.268  14.311
94881W        W63244  31.584  10.772  11.497
94882W        W63245  31.132  27.565   2.783
94883W        W63246  24.143   9.702   2.690
94884W        W63247  22.569  19.039   3.260
94885W        W63248  29.108  14.153   1.697
94886W        W63249  38.076  34.918  10.520
94887W        W63250  14.140  39.491  12.895
94888W        W63251   9.821  17.240  10.903
94889W        W63252  40.836  36.360  13.974
94890W        W63253   0.939  38.988   1.842
94891W        W63254   6.395  12.672  14.394
94892W        W63255  40.808  39.320  13.483
94893W        W63256  33.917  27.157   2.772
94894W        W63257  20.193  27.978  11.527
94895W        W63258  15.134  10.674   4.653
94896W        W63259   7.668  13.765  11.599
94897W        W63260   9.728  31.528   0.757
94898W        W63261   7.393   8.668  14.506
94899W        W63262  38.485  41.823   4.312
94900W        W63263   6.777  26.076  11.982
94901W        W63264  44.494   0.799   5.286
94902W        W63265  22.102  34.971   4.319
94903W        W63266  41.915  31.931  11.880
94904W        W63267  34.017   4.205  11.944
94905W        W63268  13.162  40.033  10.978
94906W        W63269   0.303   7.235  14.447
94907W        W63270  22.558   7.904  11.129
94908W        W63271   4.448  10.185  13.482
94909W        W63272  42.292   3.226  14.016
94910W        W63273   4.430  36.932   4.760
94911W        W63274   7.176  13.310   2.199
94912W        W63275  35.103  27.994  14.966
94913W        W63276  23.606  32.967   3.834
94914W        W63277  20.087  18.581   1.282
94915W        W63278  26.475  20.545  14.926
94916W        W63279  27.007  30.989   4.603
94917W        W63280  29.425  21.660   2.383
94918W        W63281  17.150  22.211  14.982
94919W        W63282  23.072  37.495  14.386
94920W        W63283  42.426  10.381  12.063
94921W        W63284  33.441  33.454   0.755
94922W        W63285   2.442  23.708  12.356
94923W        W63286  24.036   9.885   4.748
94924W        W63287  18.575   4.715  14.440
94925W        W63288  10.294  17.656  13.896
94926W        W63289  39.998   6.328   0.917
94927W        W63290  20.261   2.960  14.027
94928W        W63291  28.652  18.171  14.406
94929W        W63292  21.554  15.585   3.334
94930W        W63293  36.901  29.450   2.740
94931W        W63294  39.436  32.899   1.929
94932W        W63295  23.523  37.475   1.809
94933W        W63296  34.591  42.963  10.581
94934W        W63297  19.620  25.085  13.885
94935W        W63298   8.380  33.928  11.529
94936W        W63299  14.203  12.208   3.272
94937W        W63300  18.295  35.516  11.462
94938W        W63301   8.369  15.329   4.780
94939W        W63302   6.906  26.967  11.429
94940W        W63303   7.232  13.141   2.889
94941W        W63304   5.752  20.192   1.254
94942W        W63305  41.343  10.802  13.504
94943W        W63306  42.404  42.809   4.740
94944W        W63307  42.370  37.018  12.876
94945W        W63308   5.913  29.922   4.599
94946W        W63309  28.554   5.900  11.010
94947W        W63310  43.764  43.512  11.978
94948W        W63311  29.441  20.726   4.622
94949W        W63312   1.476  40.809   2.351
94950W        W63313   2.279   8.806  10.524
94951W        W63314   9.772  20.704  10.569
94952W        W63315   2.302   0.302   1.800
94953W        W63316  27.574   3.399  13.847
94954W        W63317  28.631  39.419  11.450
94955W        W63318   6.775  21.250  14.291
94956W        W63319  25.566  43.971   3.819
94957W        W63320  11.708  25.018  14.321
94958W        W63321  18.118  23.133   3.809
94959W        W63322  25.139  32.563   3.281
94960W        W63323   6.256  25.600  14.934
94961W        W63324  43.443  26.636   0.917
94962W        W63325  37.368  39.929   2.207
94963W        W63326  28.444  15.139   3.695
94964W        W63327  15.665   5.910  12.937
94965W        W63328  18.667   8.219  10.916
94966W        W63329  33.883  19.708  14.922
94967W        W63330  28.580   5.901   2.745
94968W        W63331   2.922  10.272  12.447
94969W        W63332  19.235  34.016  11.998
94970W        W63333   9.787  14.170  11.472
94971W        W63334  22.051  44.857  13.993
94972W        W63335  26.515  19.695   0.816
94973W        W63336  24.183  27.531   0.853
94974W        W63337  41.822  32.631   1.811
94975W        W63338  11.257  27.533  14.963
94976W        W63339  42.287  34.547   1.746
94977W        W63340  32.596  16.215  12.027
94978W        W63341  30.635  14.123   2.250
94979W        W63342  26.196  15.135  11.999
94980W        W63343  34.615  25.665  11.590
94981W        W63344  11.141  38.958   1.736
94982W        W63345  14.231   2.400   0.325
94983W        W63346  24.065  35.423   2.308
94984W        W63347  40.910  33.604   4.165
94985W        W63348   4.726  35.500  12.072
94986W        W63349  14.742  37.354  11.600
94987W        W63350  21.193  39.423   4.793
94988W        W63351  27.679  15.749   1.317
94989W        W63352  11.781  27.616  13.909
94990W        W63353   3.392  29.592   0.381
94991W        W63354  28.009  31.576  11.044
94992W        W63355   6.278  24.680  11.019
94993W        W63356  27.653  10.161  11.467
94994W        W63357  25.539  41.922  10.600
94995W        W63358  30.124  11.711  10.957
94996W        W63359  17.209   9.769  11.479
94997W        W63360   5.826   0.250   1.386
94998W        W63361  32.511  40.995  11.584
94999W        W63362  37.018  38.873   4.772
95000W        W63363  40.979   1.448  12.546
95001W        W63364  35.907  39.017  12.449
95002W        W63365  35.855   5.899  11.100
95003W        W63366   0.942  41.312   1.773
95004W        W63367  32.031   6.406  10.479
95005W        W63368  16.568  40.861  10.487
95006W        W63369  36.357  14.097   1.911
95007W        W63370  18.779  35.071  11.389
95008W        W63371  18.125  19.199  10.523
95009W        W63372  39.414  35.887  11.552
95010W        W63373   9.792  23.098  11.467
95011W        W63374   7.784   1.874   0.271
95012W        W63375  33.499  36.405  10.992
95013W        W63376  11.741  38.975  14.997
95014W        W63377  27.555  36.053  10.414
95015W        W63378  17.771   3.325  12.014
95016W        W63379  17.151  27.049  10.453
95017W        W63380  22.747  31.045  13.004
95018W        W63381   7.838  43.460  12.406
95019W        W63382  41.026  44.410   2.835
95020W        W63383  41.408  20.665  12.855
95021W        W63384  29.430  23.523   2.343
95022W        W63385  34.067   4.446  10.415
95023W        W63386  27.027   6.795   3.363
95024W        W63387  13.310  24.709  11.935
95025W        W63388  43.975  11.167   3.697
95026W        W63389   7.830  36.437  12.361
95027W        W63390  25.063  29.561   3.296
95028W        W63391  42.791  31.568   9.956
95029W        W63392  21.753  24.522  10.922
95030W        W63393  42.936  42.440  11.056
95031W        W63394  10.645  42.433  10.587
95032W        W63395  30.969   7.319  11.372
95033W        W63396  34.603   7.282   1.877
95034W        W63397   3.781  34.906  12.973
95035W        W63398  19.207  33.512   1.870
95036W        W63399  19.728  12.123  11.382
95037W        W63400  17.601   2.293  12.551
95038W        W63401  27.658  42.370  10.458
95039W        W63402  31.056  37.478  13.453
95040W        W63403  28.973  30.560  12.543
95041W        W63404  41.825  35.565   2.861
95042W        W63405  12.838  20.639  14.401
95043W        W63406  13.681   8.370  11.429
95044W        W63407  32.066  24.175  12.979
95045W        W63408   0.292  35.511   4.310
95046W        W63409   7.363   2.334  14.774
95047W        W63410  37.513   8.756   0.438
95048W        W63411  16.682  44.760   3.287
95049W        W63412  43.361   3.914  13.387
95050W        W63413   4.339  21.712  11.399
95051W        W63414   5.870  24.613  10.466
95052W        W63415  41.381  43.350  14.880
95053W        W63416  33.440  11.191  11.486
95054W        W63417   4.841   0.831  10.067
95055W        W63418  17.721  15.247  14.425
95056W        W63419  28.581  14.121  10.529
95057W        W63420  17.290  16.125  10.022
95058W        W63421  24.711  31.963  12.537
95059W        W63422  30.649  22.153   3.148
95060W        W63423  28.047  22.669   0.752
95061W        W63424  28.005  23.632   0.462
95062W        W63425  27.152  34.885  11.530
95063W        W63426  19.110  40.448   0.821
95064W        W63427  41.334  16.204   0.296
95065W        W63428  38.950  39.850   1.323
95066W        W63429  15.183   3.270   1.438
95067W        W63430  35.898  21.210   4.166
95068W        W63431  38.516  32.055   2.285
95069W        W63432   9.655  27.653  11.121
95070W        W63433  44.772  42.311   4.211
95071W        W63434   5.821  11.302  10.543
95072W        W63435   1.927   6.822  12.002
95073W        W63436   7.739  30.560  10.009
95074W        W63437  37.352  30.487   1.794
95075W        W63438  42.868  36.411  10.999
95076W        W63439  43.339  15.777   0.262
95077W        W63440  17.178   9.356  12.362
95078W        W63441  17.267  18.638   5.315
95079W        W63442  19.536  44.820   0.409
95080W        W63443  24.718  35.956  12.982
95081W        W63444   9.731  18.158   0.412
95082W        W63445  24.573  23.587  14.797
95083W        W63446  24.478  31.140  11.410
95084W        W63447  31.092  24.644  13.931
95085W        W63448  15.290  23.643  11.958
95086W        W63449  14.673   9.659   1.797
95087W        W63450  36.898  42.433  14.293
95088W        W63451  25.141  32.936   3.148
95089W        W63452  39.547  36.932   1.409
95090W        W63453  24.027  11.784   3.177
95091W        W63454  26.593  40.836   3.789
95092W        W63455  40.920  44.766   2.784
95093W        W63456  28.995   2.787  14.499
95094W        W63457  34.412   7.399   2.870
95095W        W63458  14.835  13.107  11.109
95096W        W63459   5.374  12.799  12.962
95097W        W63460  29.449  41.831   2.860
95098W        W63461  11.260  30.560   3.829
95099W        W63462   4.896   5.402   2.776
95100W        W63463  44.326  21.712  14.776
95101W        W63464  18.778  11.190   3.297
95102W        W63465  16.236  36.922   3.215
95103W        W63466  37.947  19.550  12.346
95104W        W63467  31.519   1.339   2.732
95105W        W63468  16.089   0.842  12.352
95106W        W63469  27.011  41.887   0.765
95107W        W63470  42.010   7.299   4.771
95108W        W63471  32.946  12.697  10.901
95109W        W63472   4.701   6.209  12.974
95110W        W63473  44.409  37.930  13.944
95111W        W63474  25.589  38.334  11.101
95112W        W63475  10.653  40.006  11.864
95113W        W63476   6.884  33.115   3.371
95114W        W63477  16.203  30.638   2.265
95115W        W63478   5.343  13.661  11.572
95116W        W63479  23.683  21.597  10.599
95117W        W63480  35.362  18.778  14.287
95118W        W63481  24.700   4.749   1.833
95119W        W63482   0.487  29.126  14.024
95120W        W63483  42.441   1.279   3.745
95121W        W63484  43.354   2.343   4.308
95122W        W63485  31.436   3.836  12.886
95123W        W63486  30.412  34.041   3.176
95124W        W63487   8.856   8.359  10.468
95125W        W63488  33.112  33.952   3.218
95126W        W63489  23.489  41.843   3.746
95127W        W63490  15.761  17.268   4.677
95128W        W63491  14.156   7.753  11.578
95129W        W63492  34.533  26.179   2.262
95130W        W63493  27.491  16.568  11.052
95131W        W63494  22.057   3.728  10.592
95132W        W63495  13.819  41.824  12.893
95133W        W63496  41.413  18.146  13.822
95134W        W63497   6.419  14.221   3.802
95135W        W63498  22.179  22.999   4.685
95136W        W63499   5.768  34.528   2.220
95137W        W63500  44.894  24.636  13.021
95138W        W63501  37.924  36.901   3.809
95139W        W63502   7.219  29.095  12.036
95140W        W63503  36.061  43.450  14.007
95141W        W63504  27.983  11.802  13.969
95142W        W63505  43.947  34.019   2.867
95143W        W63506   2.810  34.950  12.417
95144W        W63507  41.385   0.266  11.008
95145W        W63508  20.572  30.474   4.766
95146W        W63509  15.124   0.967   3.340
95147W        W63510  11.355   0.380   2.291
95148W        W63511  34.055  23.600   4.316
95149W        W63512  10.832   1.425   1.292
95150W        W63513  10.697  30.423   4.230
95151W        W63514  38.960   5.929  13.994
95152W        W63515  26.967  11.656  11.875
95153W        W63516  17.750  26.647   1.792
95154W        W63517  31.070  40.428  12.940
95155W        W63518   6.868  30.121   3.293
95156W        W63519   7.299   9.319  13.892
95157W        W63520  26.465  20.251  12.855
95158W        W63521  17.755   8.664   0.318
95159W        W63522  10.160  27.577  11.998
95160W        W63523  25.481   7.706  11.127
95161W        W63524   4.434  31.983   3.163
95162W        W63525  27.176  26.157   4.752
95163W        W63526  44.763   8.199  14.020
95164W        W63527  27.537  20.088  14.768
95165W        W63528   1.960  18.114   2.843
95166W        W63529  14.638   8.251   0.439
95167W        W63530  28.119  35.462  11.090
95168W        W63531  36.493  23.120  12.359
95169W        W63532  38.432  37.060   0.898
95170W        W63533  39.339  27.940   4.609
95171W        W63534  41.454  19.743   2.886
95172W        W63535  26.048  25.144   3.660
95173W        W63536  43.886  30.101   4.683
95174W        W63537  14.684  41.022  13.350
95175W        W63538  13.832  43.976  13.416
95176W        W63539  24.548  38.424  10.558
95177W        W63540   9.294  27.656  11.378
95178W        W63541  20.247  24.186   4.800
95179W        W63542  40.896   3.813   0.960
95180W        W63543  11.355  31.403   2.342
95181W        W63544   5.397  24.162  14.946
95182W        W63545   6.711  14.213   0.405
95183W        W63546  18.274  37.912  14.458
95184W        W63547   9.381  25.498  13.017
95185W        W63548   0.983  25.508   1.913
95186W        W63549  14.287  27.120   3.229
95187W        W63550  33.478  38.401   5.315
95188W        W63551  21.638  20.260  13.040
95189W        W63552  20.229  38.551  11.421
95190W        W63553  24.202  31.957  13.522
95191W        W63554  37.043  11.160   9.585
95192W        W63555  43.374  27.990   2.326
95193W        W63556  27.136  11.156   2.343
95194W        W63557  19.560   1.336  12.990
95195W        W63558  15.650  31.109   3.796
95196W        W63559  42.525  19.534  12.515
95197W        W63560  13.712   3.331  10.465
95198W        W63561  24.029  15.304   3.233
95199W        W63562  34.547  35.094   3.230
95200W        W63563  30.551  25.484   0.813
95201W        W63564  31.902  40.821  14.312
95202W        W63565  14.120  44.265   5.169
95203W        W63566  27.587  31.513  14.330
95204W        W63567  42.944  16.297  14.847
95205W        W63568  13.169  12.243  12.561
95206W        W63569   2.273  12.221   1.314
95207W        W63570  42.521  37.355  13.992
95208W        W63571  23.616  24.170   3.357
95209W        W63572  24.093  27.072   3.321
95210W        W63573  13.305  18.789   1.334
95211W        W63574  20.053  27.489  12.008
95212W        W63575  41.522  36.572  14.026
95213W        W63576  43.786  18.232   1.410
95214W        W63577  30.419  27.180  14.841
95215W        W63578  42.842   2.943   0.401
95216W        W63579  34.576   4.284  13.807
95217W        W63580  21.050   6.832   2.818
95218W        W63581  31.607  35.020  13.352
95219W        W63582  44.975  41.485   3.720
95220W        W63583  22.236  32.035   2.850
95221W        W63584   7.801  31.014  14.497
95222W        W63585  43.404  44.274  14.912
95223W        W63586  14.779  33.996   0.354
95224W        W63587  15.712   7.302  10.122
95225W        W63588  13.836  28.183  14.830
95226W        W63589  32.886  27.121  10.630
95227W        W63590  44.760   4.806   0.924
95228W        W63591  17.602  10.843   1.302
95229W        W63592  18.567  20.737  12.480
95230W        W63593  12.195  32.538   0.261
95231W        W63594  44.277  26.701   9.975
95232W        W63595  40.008  17.684  11.531
95233W        W63596  23.061  36.053  14.470
95234W        W63597   3.799  23.984   1.745
95235W        W63598  44.847   0.824  11.491
95236W        W63599  19.760  39.407  14.930
95237W        W63600  19.067  37.021  13.793
95238W        W63601  35.978  21.157  13.893
95239W        W63602   9.670  38.393  11.490
95240W        W63603  33.564  13.682  12.509
95241W        W63604  22.684  36.851  10.536
95242W        W63605  23.531   4.791   0.772
95243W        W63606  30.116  34.088   3.219
95244W        W63607  30.459   4.225  12.579
95245W        W63608   9.756  23.225  11.942
95246W        W63609  25.711   2.732   2.661
95247W        W63610  30.097  31.519   2.344
95248W        W63611   4.877   6.290  11.464
95249W        W63612   8.291  22.512  13.380
95250W        W63613  18.671  28.958  10.035
95251W        W63614  32.534  12.848   0.933
95252W        W63615  42.477  11.139   4.708
95253W        W63616  28.101  23.164   1.774
95254W        W63617  27.532  27.126   2.762
95255W        W63618  30.476  32.999   4.190
95256W        W63619  12.208  10.674   3.147
95257W        W63620  18.207   6.891  12.359
95258W        W63621  30.940  27.639   4.631
95259W        W63622  39.366  34.391   0.916
95260W        W63623  22.628  13.712  13.865
95261W        W63624  19.544  15.319   1.805
95262W        W63625  25.140  41.918   1.757
95263W        W63626   8.239   6.346  11.917
95264W        W63627  29.568  11.133  11.924
95265W        W63628  32.404  30.028  11.860
95266W        W63629  34.988  20.150  13.472
95267W        W63630  23.604  21.566   2.242
95268W        W63631  27.665  44.880  13.369
95269W        W63632  34.483  34.461   1.848
95270W        W63633   7.864  23.022  10.898
95271W        W63634  19.710   3.257   2.209
95272W        W63635  26.619  21.148  13.385
95273W        W63636   8.819  41.806  14.759
95274W        W63637  32.479  19.593   2.671
95275W        W63638  42.345  15.292  13.833
95276W        W63639  12.698   7.183  11.106
95277W        W63640  41.789  33.009  12.500
95278W        W63641  11.366  21.251  11.875
95279W        W63642   1.853   3.368  14.987
95280W        W63643  31.419   4.720  12.967
95281W        W63644   7.177   9.206  12.525
95282W        W63645  38.965   9.272  13.800
95283W        W63646  30.486  42.027   1.810
95284W        W63647   4.896  28.460   4.700
95285W        W63648  20.232  33.516   0.260
95286W        W63649  40.512  14.141   2.697
95287W        W63650   6.836   5.305   3.844
95288W        W63651  13.181  40.912  13.975
95289W        W63652   9.690   5.321   3.347
95290W        W63653   9.644  41.814   3.155
95291W        W63654   6.315  22.678  14.808
95292W        W63655  44.902   0.921  14.283
95293W        W63656  44.926  15.662  11.450
95294W        W63657  21.205  27.602   3.205
95295W        W63658   7.255  27.483  13.532
95296W        W63659  31.134  10.656   1.922
95297W        W63660  43.322  39.820  13.865
95298W        W63661  31.948  15.145   3.256
95299W        W63662  18.600  33.971  12.964
95300W        W63663  22.596  18.631   2.252
95301W        W63664  38.002  22.513   1.236
95302W        W63665  40.501   2.775   4.331
95303W        W63666  22.023   1.447   4.828
95304W        W63667   3.927  22.067  12.057
95305W        W63668   1.239  27.610  11.057
95306W        W63669   2.265  18.173   4.686
95307W        W63670  11.371  23.027  14.386
95308W        W63671  32.480  30.967   1.890
95309W        W63672  38.351  20.692  11.498
95310W        W63673   6.376  26.138   2.325
95311W        W63674  41.874  29.099  11.487
95312W        W63675   0.770  20.739   4.644
95313W        W63676  35.502  28.130  12.900
95314W        W63677  33.934   2.726  12.891
95315W        W63678  41.460   2.322  10.461
95316W        W63679  16.164  26.461   3.739
95317W        W63680  31.094  32.457   3.837
95318W        W63681   8.893  20.681   0.893
95319W        W63682  29.496  10.377   2.396
95320W        W63683  30.627  19.600   2.258
95321W        W63684  35.097  24.175   3.677
95322W        W63685  13.794  38.434  14.472
95323W        W63686  17.615  13.303  10.568
95324W        W63687  18.125  42.488   0.757
95325W        W63688  44.360  11.356  14.839
95326W        W63689  20.092  31.523   2.252
95327W        W63690  33.602  29.141   2.707
95328W        W63691  16.073  43.895   1.317
95329W        W63692   2.293  30.928  12.886
95330W        W63693  21.123  16.257  13.812
95331W        W63694  15.164  38.376  11.994
95332W        W63695  17.660  35.043  11.429
95333W        W63696  34.560  10.317   2.247
95334W        W63697  17.643  36.421  13.944
95335W        W63698  21.643  19.073  10.921
95336W        W63699  28.568   1.918  12.941
95337W        W63700  17.735  14.212   4.616
95338W        W63701  37.342   4.739   1.214
95339W        W63702  40.547  11.783   5.220
95340W        W63703  21.624  12.253  10.446
95341W        W63704  37.426  17.287  12.515
95342W        W63705   2.921   6.807  12.395
95343W        W63706  10.864   8.343  12.577
95344W        W63707  14.670  30.948   2.274
95345W        W63708  41.948  18.735   0.380
95346W        W63709  41.041  22.107  13.797
95347W        W63710  41.414  20.187   2.179
95348W        W63711  20.143   2.437  10.636
95349W        W63712  44.295   8.813   5.097
95350W        W63713  38.422  24.121   2.675
95351W        W63714  21.171   9.187   0.365
95352W        W63715  32.956  35.511   0.453
95353W        W63716  27.112   6.375   0.359
95354W        W63717  26.467  13.842  12.826
95355W        W63718  18.608  42.398   3.682
95356W        W63719  38.859  11.285  12.900
95357W        W63720  11.283  38.849  14.964
95358W        W63721  34.996  10.320   1.812
95359W        W63722  25.182   4.259   4.245
95360W        W63723  10.293  21.050   4.620
95361W        W63724  43.927  22.555  13.439
95362W        W63725  28.125   8.751  10.017
95363W        W63726  22.697  22.618  10.615
95364W        W63727  22.559  43.952  10.960
95365W        W63728  27.490   4.831  11.424
95366W        W63729  29.070  18.280  12.384
95367W        W63730  13.222   4.764  13.420
95368W        W63731   4.898  38.833  13.931
95369W        W63732   3.325   2.948  13.040
95370W        W63733  38.405  42.869   2.902
95371W        W63734  28.485  13.694   2.203
95372W        W63735  11.853   5.437  13.822
95373W        W63736  12.228  44.413  13.424
95374W        W63737  22.221  33.548   3.250
95375W        W63738  30.061   6.255  11.584
95376W        W63739  29.555   3.340   1.710
95377W        W63740   3.857  26.608  12.353
95378W        W63741  34.479   6.243   1.815
95379W        W63742  27.532  18.151   0.740
95380W        W63743   5.322  23.579  13.391
95381W        W63744  21.047  26.611   1.437
95382W        W63745  27.671  18.758   1.423
95383W        W63746  13.114   7.888  10.612
95384W        W63747   4.722   7.376   1.887
95385W        W63748  43.797   5.240   0.364
95386W        W63749   7.870  30.985  10.907
95387W        W63750  42.504  31.557   1.768
95388W        W63751  39.000  26.073   0.414
95389W        W63752  18.122  44.295  12.875
95390W        W63753  16.185  33.482  12.488
95391W        W63754  39.830  11.215  14.790
95392W        W63755  13.710  44.756   3.672
95393W        W63756  12.343  32.120  13.055
95394W        W63757  42.024   8.728  10.099
95395W        W63758  35.469  10.368  14.411
95396W        W63759  29.458  23.513  13.864
95397W        W63760  34.040   9.883  14.409
95398W        W63761  20.111  24.564   3.663
95399W        W63762  19.775  30.041   0.887
95400W        W63763  27.014  44.273   3.722
95401W        W63764  29.998  37.531  14.839
95402W        W63765  32.106  28.680  13.873
95403W        W63766  33.598   1.958  12.054
95404W        W63767   8.811  25.173   4.814
95405W        W63768   4.227  38.830  12.993
95406W        W63769  34.879  12.675   1.815
95407W        W63770   8.663   5.880   3.317
95408W        W63771  34.019  26.102  13.488
95409W        W63772   3.938  14.662  14.384
95410W        W63773  40.992  15.233  12.959
95411W        W63774  31.122   2.292   2.179
95412W        W63775   3.442  26.100  12.933
95413W        W63776  26.184  38.023   2.317
95414W        W63777   1.461   4.707  13.905
95415W        W63778  26.691  11.255   5.177
95416W        W63779  35.472  31.536  11.040
95417W        W63780  41.988  34.000  12.021
95418W        W63781  32.910  44.475   1.831
95419W        W63782   1.971   3.299   1.720
95420W        W63783   1.390  40.848   4.355
95421W        W63784  39.013  35.948   3.210
95422W        W63785   8.694  39.937   3.282
95423W        W63786  44.837  21.071   0.364
95424W        W63787  37.468  30.568   3.220
95425W        W63788  40.009  40.011   4.831
95426W        W63789   0.434  15.815  11.931
95427W        W63790  39.482   2.333   2.807
95428W        W63791  21.255  30.491   1.277
95429W        W63792  32.989  19.270   0.912
95430W        W63793  26.634  21.160   5.223
95431W        W63794  29.105  19.212  12.020
95432W        W63795  38.470   5.438   1.377
95433W        W63796  41.876   3.765   3.224
95434W        W63797  42.469  33.073  13.442
95435W        W63798  23.147  38.435  12.979
95436W        W63799  37.897   1.289   3.354
95437W        W63800  13.260  27.670  14.798
95438W        W63801  13.625  27.178  10.618
95439W        W63802  40.477  19.655   4.602
95440W        W63803  13.314  23.492   3.235
95441W        W63804  42.948  15.717   2.727
95442W        W63805  29.979  14.650   2.368
95443W        W63806  37.948  43.949  12.021
95444W        W63807  29.592  38.401  12.521
95445W        W63808  41.847  26.522   4.609
95446W        W63809   8.779   1.808   1.339
95447W        W63810  25.112  21.025   2.872
95448W        W63811  37.886  29.442   4.618
95449W        W63812  41.487  31.137  13.368
95450W        W63813   9.817  38.378   1.261
95451W        W63814   5.777  18.702   3.246
95452W        W63815  34.026   8.366  11.046
95453W        W63816  23.180  38.065  12.867
95454W        W63817  27.545   2.845   3.338
95455W        W63818  11.861   4.932   2.812
95456W        W63819  40.405  16.751  13.342
95457W        W63820  13.617   3.770   2.190
95458W        W63821  14.692  39.897   0.837
95459W        W63822  32.043  23.009   2.665
95460W        W63823  32.978   0.466   4.725
95461W        W63824  44.468  20.274  14.883
95462W        W63825  40.387  25.144   1.291
95463W        W63826  27.029  18.619   1.808
95464W        W63827  41.387  15.797   2.682
95465W        W63828  27.037  38.828  12.008
95466W        W63829  26.583  32.629   3.272
95467W        W63830  35.103   0.875  11.042
95468W        W63831  19.098  31.633  14.337
95469W        W63832  37.484   4.336  13.455
95470W        W63833  33.904  39.929   3.147
95471W        W63834  25.055  23.987  10.497
95472W        W63835  24.984  17.565  10.556
95473W        W63836   5.346  10.297   3.867
95474W        W63837  33.102  29.439  10.625
95475W        W63838  17.625   2.789  14.334
95476W        W63839  21.087  41.316  13.426
95477W        W63840   0.257  10.349   4.756
95478W        W63841  26.071   0.868   3.759
95479W        W63842  37.370  43.498   2.355
95480W        W63843  22.171   4.712  14.409
95481W        W63844  32.142   9.374   0.465
95482W        W63845  12.249  29.101  11.536
95483W        W63846  12.353  25.092  14.471
95484W        W63847   7.731  22.597  11.088
95485W        W63848   7.872  11.245  13.325
95486W        W63849   1.771  37.459   1.710
95487W        W63850  10.652  35.079   3.703
95488W        W63851   5.272  10.148  10.626
95489W        W63852  22.609  14.761  11.875
95490W        W63853  40.495  22.559   2.739
95491W        W63854   5.869  15.717   0.314
95492W        W63855  23.567   7.800   0.936
95493W        W63856   3.947  28.614  14.772
95494W        W63857   1.248  25.708  13.947
95495W        W63858  44.930  44.382  11.992
95496W        W63859   2.419   7.833  14.818
95497W        W63860  12.622  39.829   1.779
95498W        W63861  43.978  40.033  10.629
95499W        W63862  13.685  26.474  12.512
95500W        W63863  17.126  17.773   2.263
95501W        W63864   0.440  27.031  14.904
95502W        W63865  22.705  36.066   2.850
95503W        W63866  10.866   6.412  14.803
95504W        W63867  25.070  30.002  11.917
95505W        W63868  23.186  10.847  10.544
95506W        W63869  11.851  42.027  13.796
95507W        W63870  14.782  16.251   3.204
95508W        W63871  10.768  28.116  12.826
95509W        W63872  41.942   7.830   4.643
95510W        W63873  21.184  43.423  12.918
95511W        W63874   4.817  12.729  14.329
95512W        W63875  39.042  17.747   2.892
95513W        W63876  11.307  12.681   3.360
95514W        W63877  15.645  27.509  13.496
95515W        W63878  35.064  25.208  14.841
95516W        W63879  13.329  44.367   3.383
95517W        W63880  36.403  16.301   4.335
95518W        W63881  13.825  36.041  14.276
95519W        W63882  27.006  31.440  11.855
95520W        W63883  38.563   4.811  14.403
95521W        W63884  37.414  44.403  10.495
95522W        W63885  38.835   4.712   0.957
95523W        W63886  20.633   4.256   0.244
95524W        W63887   2.769  15.140  14.515
95525W        W63888  31.074  30.463   4.309
95526W        W63889  16.093  42.939  12.902
95527W        W63890   2.307  36.051   3.210
95528W        W63891   0.447  22.615  11.596
95529W        W63892  42.013  20.130  14.974
95530W        W63893  39.378  37.373   4.808
95531W        W63894  43.986   3.308  14.298
95532W        W63895  13.706  29.013   2.872
95533W        W63896   9.210  25.071  14.945
95534W        W63897  30.526  41.905  12.951
95535W        W63898  32.902   8.795   4.800
95536W        W63899   6.319  29.470  14.390
95537W        W63900  19.214  38.506   0.351
95538W        W63901  29.594   6.402  11.110
95539W        W63902  44.496  11.805   1.253
95540W        W63903   6.823   0.474  10.586
95541W        W63904  28.046  14.817  13.405
95542W        W63905  34.956   1.354  10.906
95543W        W63906  21.744  19.724   0.416
95544W        W63907  13.144  21.204  14.957
95545W        W63908  20.225  26.188   1.824
95546W        W63909  14.133  18.611   0.840
95547W        W63910  32.515  26.658   3.151
95548W        W63911   5.846  16.788   1.413
95549W        W63912   9.829  28.573  11.000
95550W        W63913   0.956   5.377   4.738
95551W        W63914  25.112  34.575  10.953
95552W        W63915  20.640   7.702  12.521
95553W        W63916  29.127  40.548   4.315
95554W        W63917  23.647   5.807  10.899
95555W        W63918  35.095   6.770  12.086
95556W        W63919  22.604  27.160   2.868
95557W        W63920  40.938  43.375  10.457
95558W        W63921  43.417  21.629   0.384
95559W        W63922   3.815  43.507  14.411
95560W        W63923  24.638   9.778   2.310
95561W        W63924  14.143  18.702   3.291
95562W        W63925  22.566  44.265  14.402
95563W        W63926  37.901  44.478   2.304
95564W        W63927  22.652  27.456   0.767
95565W        W63928  10.692  28.498   2.777
95566W        W63929  26.968   6.213   4.801
95567W        W63930  21.712  22.710  11.579
95568W        W63931  21.754  34.000  12.503
95569W        W63932  42.504  36.908  12.483
95570W        W63933   6.690  40.364  13.348
95571W        W63934  38.891  15.662   4.780
95572W        W63935  42.418  38.442   3.271
95573W        W63936  36.953   6.370   1.262
95574W        W63937  32.900  24.015   0.902
95575W        W63938  11.740  29.566   4.769
95576W        W63939   8.897  16.663   0.785
95577W        W63940  34.000  31.470   2.815
95578W        W63941  26.688  10.651  14.445
95579W        W63942   1.841  19.688   3.681
95580W        W63943  14.789  26.648  13.385
95581W        W63944   2.772  15.773  10.613
95582W        W63945  26.051   3.294  13.475
95583W        W63946  22.735   8.805  13.437
95584W        W63947  25.034   1.441  11.471
95585W        W63948  33.124  34.380   2.306
95586W        W63949  33.026  20.623   2.214
95587W        W63950   7.820  13.171  14.419
95588W        W63951  12.333  38.831   0.400
95589W        W63952  36.968  35.548  13.886
95590W        W63953  33.386   4.372   4.292
95591W        W63954  10.649  29.030  13.351
95592W        W63955  43.880  38.002  13.884
95593W        W63956  10.680   9.325   0.416
95594W        W63957  14.179  25.132  11.537
95595W        W63958  12.660  32.598   2.373
95596W        W63959   2.883  21.727  10.504
95597W        W63960   0.342  28.540   2.690
95598W        W63961  16.113  34.512   2.784
95599W        W63962  40.462  38.969   1.699
95600W        W63963  18.146  40.029   4.234
95601W        W63964  17.219  37.554  10.480
95602W        W63965  19.051  16.145   4.772
95603W        W63966   8.392   2.869  13.400
95604W        W63967  11.200  23.185  13.866
95605W        W63968  27.538  27.126   4.183
95606W        W63969  39.491   0.874   3.818
95607W        W63970  11.868  39.556   1.935
95608W        W63971  11.821  33.619  10.509
95609W        W63972  27.561   3.301   4.212
95610W        W63973  44.824  15.285  13.040
95611W        W63974   2.265  36.502   1.211
95612W        W63975  28.616  27.131   3.274
95613W        W63976  11.839  40.470  10.549
95614W        W63977  34.412  38.937  13.015
95615W        W63978  19.084   7.322  13.476
95616W        W63979  28.077  44.837   0.273
95617W        W63980  10.335  11.200  11.961
95618W        W63981  13.190  29.520  12.392
95619W        W63982  44.820  25.082   3.825
95620W        W63983  41.952   0.394   2.225
95621W        W63984   9.190  19.186  12.958
95622W        W63985  31.148  13.203  10.614
95623W        W63986   2.737  25.100  10.563
95624W        W63987   8.217  35.901  14.875
95625W        W63988  24.145  31.540   3.223
95626W        W63989  32.457  14.617   2.251
95627W        W63990  18.075  32.091  12.063
95628W        W63991   1.747   8.781  10.477
95629W        W63992  32.566  38.057  13.925
95630W        W63993  15.578  28.929   3.383
95631W        W63994  25.666  42.823   3.701
95632W        W63995   0.782   3.451   4.767
95633W        W63996  27.598  27.002   3.660
95634W        W63997   0.458   6.210   3.296
95635W        W63998   4.271   4.886  14.485
95636W        W63999  18.207  10.237   4.623
95637W        W64000  41.820  23.531   3.871
95638W        W64001  35.566  40.472   1.800
95639W        W64002   7.383  17.191   0.376
95640W        W64003  40.975  24.025  14.858
95641W        W64004  15.299  40.851  14.460
95642W        W64005   1.872  22.235   3.667
95643W        W64006  12.165  18.125  10.944
95644W        W64007   6.393  37.859   2.291
95645W        W64008   2.297  36.869   0.890
95646W        W64009  42.330  25.199  14.299
95647W        W64010  15.803  32.489   2.364
95648W        W64011   6.720  27.193   4.127
95649W        W64012  43.826  29.083  14.377
95650W        W64013   3.274   0.901   4.778
95651W        W64014  20.687  43.813  11.376
95652W        W64015  15.673   1.319  13.421
95653W        W64016  39.992  13.149  11.900
95654W        W64017  37.952  39.840   0.297
95655W        W64018  39.543   4.315  13.514
95656W        W64019  25.012  37.080  13.424
95657W        W64020  10.204  27.603   2.757
95658W        W64021  20.064  44.451  11.446
95659W        W64022  24.214  13.276   0.256
95660W        W64023  14.120   9.363   1.699
95661W        W64024   9.316  17.185   3.146
95662W        W64025  35.595   7.828   4.741
95663W        W64026  10.644  44.758   2.697
95664W        W64027  33.604   9.358  13.477
95665W        W64028  35.101  39.917   4.188
95666W        W64029  17.619  43.877   5.293
95667W        W64030  13.239  15.721  14.767
95668W        W64031  25.665  35.066  12.487
95669W        W64032  35.017  36.478   4.320
95670W        W64033  22.658  42.431  14.435
95671W        W64034  17.106  23.503   0.458
95672W        W64035  41.036  34.575   0.290
95673W        W64036  38.532  21.610   2.411
95674W        W64037  14.284  30.464   4.784
95675W        W64038  30.516  13.141  11.449
95676W        W64039  42.333  40.799   0.269
95677W        W64040  41.986  14.765   0.899
95678W        W64041  37.572  32.450  13.965
95679W        W64042   8.827  42.463   3.371
95680W        W64043  14.109  28.936  11.465
95681W        W64044  15.653  40.390  13.926
95682W        W64045  35.489  25.553   0.965
95683W        W64046  34.989  20.547   2.692
95684W        W64047  12.345  17.208   3.326
95685W        W64048  36.568  16.111   0.777
95686W        W64049  11.143  42.471   0.403
95687W        W64050   8.862   4.772   0.367
95688W        W64051  40.460   7.282  12.544
95689W        W64052  36.956  35.078   0.379
95690W        W64053  21.019   8.898   4.815
95691W        W64054   9.236  14.818  11.043
95692W        W64055   4.371  12.767   0.432
95693W        W64056   1.247  28.032  12.037
95694W        W64057  39.013  28.680   1.233
95695W        W64058   6.344  40.458  13.506
95696W        W64059   0.758   6.886  12.350
95697W        W64060  23.118  32.445  14.945
95698W        W64061  13.704  32.140   0.749
95699W        W64062  39.001   5.730  11.537
95700W        W64063  31.051  40.971  14.435
95701W        W64064  19.252  39.364   0.442
95702W        W64065  18.258  39.506   0.450
95703W        W64066  31.144  31.426  14.436
95704W        W64067   0.275  27.536   4.274
95705W        W64068  26.120  20.041   1.391
95706W        W64069  32.514  17.074   4.223
95707W        W64070  39.505  43.506   1.236
95708W        W64071  39.430  20.624  11.080
95709W        W64072  29.430  22.541  10.080
95710W        W64073  22.523  19.136  12.933
95711W        W64074  15.592   7.404  11.604
95712W        W64075   1.821  41.397  14.440
95713W        W64076  12.353  10.294  12.560
95714W        W64077  15.203  44.440   2.196
95715W        W64078   4.258  19.627   1.332
95716W        W64079   0.274  41.367   3.740
95717W        W64080  33.021  33.084   3.335
95718W        W64081  22.184  36.854  13.382
95719W        W64082  38.507   2.721   2.303
95720W        W64083  26.513  28.487  12.558
95721W        W64084  35.452  34.993   3.825
95722W        W64085  20.042  43.848  12.440
95723W        W64086  22.996   1.443   1.784
95724W        W64087  39.466  23.530   3.720
95725W        W64088  39.008   3.291   2.291
95726W        W64089  37.430  12.829  11.532
95727W        W64090  32.406  27.118   4.722
95728W        W64091  23.216  10.737  14.844
95729W        W64092  37.440  13.295  14.496
95730W        W64093   8.703  13.804  13.351
95731W        W64094   6.382   5.932  14.831
95732W        W64095  18.556  24.566  11.870
95733W        W64096  33.103  25.000   3.800
95734W        W64097   2.820  29.944   1.251
95735W        W64098   8.169   9.381  11.596
95736W        W64099  20.563   2.448  10.457
95737W        W64100  14.688  38.511   1.806
95738W        W64101  41.525  39.484   4.160
95739W        W64102  38.960   6.413  10.532
95740W        W64103  43.311  31.471   2.221
95741W        W64104  39.331  18.118  14.786
95742W        W64105  44.355  21.127   4.208
95743W        W64106  30.939  36.026   2.675
95744W        W64107  20.166  20.530   4.308
95745W        W64108  31.074  34.887  11.027
95746W        W64109  37.841  24.531  11.012
95747W        W64110   5.785  41.877   4.313
95748W        W64111  15.208   5.934   5.774
95749W        W64112  33.412  30.619   1.272
95750W        W64113   9.342  23.182   0.946
95751W        W64114   0.845   7.883  14.311
95752W        W64115  23.576  40.853   0.328
95753W        W64116   3.351  27.974  12.834
95754W        W64117   7.867  21.076   2.762
95755W        W64118  30.100  12.650  13.805
95756W        W64119  31.149  10.660   0.276
95757W        W64120  31.081   8.754   1.769
95758W        W64121  40.884  35.435   2.685
95759W        W64122  38.947  18.648   0.255
95760W        W64123  37.835  37.354  12.471
95761W        W64124  21.653   6.266  11.531
95762W        W64125   8.660  22.532   2.406
95763W        W64126  20.236  38.018   1.284
95764W        W64127  38.895  29.642   0.280
95765W        W64128  35.409   5.847  13.929
95766W        W64129  10.331  39.846  10.906
95767W        W64130  19.197  17.221  14.774
95768W        W64131  16.777  41.908   0.400
95769W        W64132  15.168  28.171  11.437
95770W        W64133   0.368  24.582  10.630
95771W        W64134  39.504   4.399   2.338
95772W        W64135   6.719  23.546   4.195
95773W        W64136  11.320   2.255  11.412
95774W        W64137  14.677  35.925  10.502
95775W        W64138  44.264  36.422  14.414
95776W        W64139  40.043   5.318  10.463
95777W        W64140   4.815  41.886  14.834
95778W        W64141  15.610   3.251  14.997
95779W        W64142  15.624  30.112  10.948
95780W        W64143  30.107   0.377   3.304
95781W        W64144  11.725  29.566  12.409
95782W        W64145  13.294  43.442   2.233
95783W        W64146  41.871  32.929  11.991
95784W        W64147  30.425  18.713   4.124
95785W        W64148   3.401  24.214  10.932
95786W        W64149   1.305  24.691  13.368
95787W        W64150  19.080  21.260   2.386
95788W        W64151   0.413  35.915   0.786
95789W        W64152   7.894  11.641  11.579
95790W        W64153   0.326  25.177   2.223
95791W        W64154   7.683  44.318   1.828
95792W        W64155  14.653  41.401   2.829
95793W        W64156  27.081  36.487  10.637
95794W        W64157  15.595  22.109  12.050
95795W        W64158   7.838   8.761   2.401
95796W        W64159  28.648  43.765  13.869
95797W        W64160  36.982  42.290  12.849
95798W        W64161  27.991   7.881   2.903
95799W        W64162   3.883  14.178  11.457
95800W        W64163   7.726   9.666   2.900
95801W        W64164   2.922  36.996  12.562
95802W        W64165  22.704  41.021  14.502
95803W        W64166   8.876  35.556   2.749
95804W        W64167  15.105   5.868  12.466
95805W        W64168  17.300  14.139  11.593
95806W        W64169  30.928  23.070  14.796
95807W        W64170   7.674  17.797   4.180
95808W        W64171  19.234  12.237   2.365
95809W        W64172  18.125   4.259   3.186
95810W        W64173  39.012  44.300  14.435
95811W        W64174  16.189  28.553   3.170
95812W        W64175   7.795  26.108  12.580
95813W        W64176  27.974  37.946   2.235
95814W        W64177  36.571  26.682   3.831
95815W        W64178  28.990  12.337  13.018
95816W        W64179  17.166  14.672  14.919
95817W        W64180  41.820  36.998  14.810
95818W        W64181  22.999  13.607   4.639
95819W        W64182  21.536  38.912  12.958
95820W        W64183  20.656  33.391  10.513
95821W        W64184   3.239   0.491   5.278
95822W        W64185   3.396  16.128  11.069
95823W        W64186  12.807  44.863   0.918
95824W        W64187  30.043  40.012  11.060
95825W        W64188   6.678  29.999   1.724
95826W        W64189  40.810  35.093   0.834
95827W        W64190  22.997  44.848   3.763
95828W        W64191  34.044  13.666   3.239
95829W        W64192  17.169  18.668   3.265
95830W        W64193   4.259  42.377  14.361
95831W        W64194   2.327   6.347  14.370
95832W        W64195  24.106   8.361   2.336
95833W        W64196  24.172  26.140  13.918
95834W        W64197  22.510  32.576  14.016
95835W        W64198  29.090  25.196  13.994
95836W        W64199  12.279  34.090   0.751
95837W        W64200  30.161  15.175  13.869
95838W        W64201  12.823   2.830  12.906
95839W        W64202  18.279  39.921  13.510
95840W        W64203  36.994  29.139   1.228
95841W        W64204  39.493   1.863  13.532
95842W        W64205   1.891  41.793   3.307
95843W        W64206   9.176  29.096   0.923
95844W        W64207  14.331  26.123  13.976
95845W        W64208   5.340  20.689  11.595
95846W        W64209  37.960  43.422   2.320
95847W        W64210  38.469  16.208   1.307
95848W        W64211   0.401  17.746  12.004
95849W        W64212  16.165  37.503   0.875
95850W        W64213  23.218  34.464  12.016
95851W        W64214  44.960  19.607  13.927
95852W        W64215  34.372  20.162   2.184
95853W        W64216  42.443   7.345  14.850
95854W        W64217   1.396   0.426  11.996
95855W        W64218   4.318  24.105   1.290
95856W        W64219  11.352  19.767   3.768
95857W        W64220  22.139  37.463  14.027
95858W        W64221  33.963  40.490   2.272
95859W        W64222   6.751  21.230   0.872
95860W        W64223  10.343  18.155   0.339
95861W        W64224  22.210  11.268   3.166
95862W        W64225  16.729  29.994   4.628
95863W        W64226  40.468  20.060  13.518
95864W        W64227  11.326   8.782  12.837
95865W        W64228  41.023   8.363   3.241
95866W        W64229  26.569  42.524   3.287
95867W        W64230   9.866  42.013   4.128
95868W        W64231  17.142  41.493   1.776
95869W        W64232  29.997   0.252  10.584
95870W        W64233   6.808  25.585   0.418
95871W        W64234  38.057  39.459   1.418
95872W        W64235  24.126  35.066  14.807
95873W        W64236  26.616  26.586  13.495
95874W        W64237  38.972  34.028   2.675
95875W        W64238  15.096  13.242   0.450
95876W        W64239  23.523  12.204   3.836
95877W        W64240   9.719  19.201   1.368
95878W        W64241   3.338  27.666  13.009
95879W        W64242  36.514  43.343  11.474
95880W        W64243  13.322   8.747  11.896
95881W        W64244  43.452  28.987  10.909
95882W        W64245  26.693  39.998   3.677
95883W        W64246   8.317  20.139  13.901
95884W        W64247  22.031   9.821   1.891
95885W        W64248  31.140   1.860  11.017
95886W        W64249   9.252   8.182   3.331
95887W        W64250  25.695  24.014  12.869
95888W        W64251  21.045  17.180   3.720
95889W        W64252   1.783  40.314   2.289
95890W        W64253  37.502  14.240   3.845
95891W        W64254   6.408  13.308  12.895
95892W        W64255  16.714  26.595   4.668
95893W        W64256  18.080  24.599   2.787
95894W        W64257  40.535   9.813   3.160
95895W        W64258   4.365   6.220   4.174
95896W        W64259  22.252  27.586   4.219
95897W        W64260  35.957  19.082   2.283
95898W        W64261  26.145  35.097  10.455
95899W        W64262  11.816  35.015   5.238
95900W        W64263  10.342   4.420   2.350
95901W        W64264  34.594  25.484   3.721
95902W        W64265  11.749  36.588   3.664
95903W        W64266  18.606  35.493  14.322
95904W        W64267   6.770   1.779   2.325
95905W        W64268   5.804  29.033  14.877
95906W        W64269  21.145  39.969  11.896
95907W        W64270  10.251  14.259  11.012
95908W        W64271  13.800  41.034  11.063
95909W        W64272   5.436   7.370  13.982
95910W        W64273  39.418  32.392   0.286
95911W        W64274  38.827   0.351  13.470
95912W        W64275  15.618  28.150   3.233
95913W        W64276  36.474  42.288   3.330
95914W        W64277  31.057  24.003   2.736
95915W        W64278  23.199  37.054   2.737
95916W        W64279   5.305   3.241  13.386
95917W        W64280   0.430  41.903  14.365
95918W        W64281  44.334  40.028  12.867
95919W        W64282  30.147  38.048   4.771
95920W        W64283  16.760  14.313  12.396
95921W        W64284   1.264   6.917  13.348
95922W        W64285  37.878  44.344  12.545
95923W        W64286  40.887  36.908  12.576
95924W        W64287  30.034  13.798   1.699
95925W        W64288  28.564  41.836   2.387
95926W        W64289  18.594  36.434  14.762
95927W        W64290  21.242  13.664  11.076
95928W        W64291  27.165  19.660   3.718
95929W        W64292  39.811  38.508  12.093
95930W        W64293  10.695  38.462  11.460
95931W        W64294  16.170   8.810  12.371
95932W        W64295   3.906  13.605  13.976
95933W        W64296  21.597  22.578  13.893
95934W        W64297  30.079  26.203   3.189
95935W        W64298  34.950   6.702  14.780
95936W        W64299  42.315  18.212   3.663
95937W        W64300  12.695  36.371  11.958
95938W        W64301  10.865  42.851   3.334
95939W        W64302  42.455  14.258  10.422
95940W        W64303  12.649  40.036   3.801
95941W        W64304  22.659  18.618   0.444
95942W        W64305  23.095   8.711  14.946
95943W        W64306   7.694  25.661   4.803
95944W        W64307   3.926   1.317  13.395
95945W        W64308  12.251  35.056   4.769
95946W        W64309   2.327  26.561   0.895
95947W        W64310  33.941  37.008   3.370
95948W        W64311   1.300  10.819   3.644
95949W        W64312  39.340  42.460  11.929
95950W        W64313  28.118  24.528   1.261
95951W        W64314   7.852   3.716   4.623
95952W        W64315   7.243   6.357  11.596
95953W        W64316   9.824  14.258   0.301
95954W        W64317  12.827   4.300   1.335
95955W        W64318  25.138  12.214   2.734
95956W        W64319  11.209  11.161   0.878
95957W        W64320  41.902  16.166   0.915
95958W        W64321   5.722  41.320   4.614
95959W        W64322   7.193  27.031  10.428
95960W        W64323  43.385  23.552   0.763
95961W        W64324  41.854   1.757  10.939
95962W        W64325  40.801   3.787  14.811
95963W        W64326   8.253  12.315   0.267
95964W        W64327   8.406  18.091   1.813
95965W        W64328  12.710  35.103   1.918
95966W        W64329  14.226  40.911   4.656
95967W        W64330  33.468  23.720  11.941
95968W        W64331  14.181   1.452   0.363
95969W        W64332   3.250  33.896   2.364
95970W        W64333  36.973  11.216  12.085
95971W        W64334   7.836  14.156   0.349
95972W        W64335  39.065  21.684   4.284
95973W        W64336   1.411  24.609  13.990
95974W        W64337  43.780  15.757  12.068
95975W        W64338   0.747   8.856   3.367
95976W        W64339  20.184  18.089   2.766
95977W        W64340  23.240   0.971  10.596
95978W        W64341   6.780   1.370  13.815
95979W        W64342   5.893  12.273  14.466
95980W        W64343  27.066  11.718   1.760
95981W        W64344  12.287  21.719   4.209
95982W        W64345   2.387   3.797   3.301
95983W        W64346  34.917   5.405   2.796
95984W        W64347  17.748  37.847  11.447
95985W        W64348  12.717  23.068  11.049
95986W        W64349  13.611  31.133   4.347
95987W        W64350  33.607  12.259  10.975
95988W        W64351  35.874  12.345  14.961
95989W        W64352  29.620  34.558   0.883
95990W        W64353  41.401  43.370  14.443
95991W        W64354  30.049  23.027   1.448
95992W        W64355  13.318  22.552   2.715
95993W        W64356  43.297  39.343   4.133
95994W        W64357   7.313  19.082  13.380
95995W        W64358   6.282  43.931  12.051
95996W        W64359  24.565   3.926   1.716
95997W        W64360  18.609  34.437  14.867
95998W        W64361   1.971   4.870  13.869
95999W        W64362  38.955  24.196   0.270
96000W        W64363  27.619  21.213   0.272
96001W        W64364  41.362  13.130  14.381
96002W        W64365   6.226  36.519  13.468
96003W        W64366   1.748  20.740   3.731
96004W        W64367  27.008   6.298  10.569
96005W        W64368  41.813   0.801   3.218
96006W        W64369  18.150  24.719  11.886
96007W        W64370  44.425  16.084  14.844
96008W        W64371  20.173  22.196  13.870
96009W        W64372   0.945  18.176   4.607
96010W        W64373  19.636   4.776   4.283
96011W        W64374  38.433  32.614   1.792
96012W        W64375  29.064   7.880  12.893
96013W        W64376  29.575  31.518  12.946
96014W        W64377  19.590  21.042   0.781
96015W        W64378  21.097   9.239   3.776
96016W        W64379  27.545  19.243  12.887
96017W        W64380   3.445  25.553   4.669
96018W        W64381  25.969  31.022  12.400
96019W        W64382  17.752  43.768   9.552
96020W        W64383  19.681  44.957  13.018
96021W        W64384   9.851   4.894   1.396
96022W        W64385   8.697  22.242  13.846
96023W        W64386   1.959   4.317  13.031
96024W        W64387  26.158  37.401   3.801
96025W        W64388  13.680  10.351   3.297
96026W        W64389   2.864   6.744  12.845
96027W        W64390   6.797  17.140  13.875
96028W        W64391  41.984  18.124   4.146
96029W        W64392   8.711   9.167   1.349
96030W        W64393  29.976  12.772   4.342
96031W        W64394  12.696   3.309  14.368
96032W        W64395  42.981  26.041   2.811
96033W        W64396  28.479  36.050   2.785
96034W        W64397  35.511  19.701   4.735
96035W        W64398  37.968  15.775  14.869
96036W        W64399  35.020  40.514  10.958
96037W        W64400  39.869   8.298   4.153
96038W        W64401  10.292  10.256  12.073
96039W        W64402  44.999   5.329   0.824
96040W        W64403  29.613  35.859  11.448
96041W        W64404  12.717   6.718   4.747
96042W        W64405  22.534  16.082   1.864
96043W        W64406   6.791  23.711   0.817
96044W        W64407  18.254   4.261  13.513
96045W        W64408  42.416  23.033  12.398
96046W        W64409  11.755  10.802   0.294
96047W        W64410  38.376   0.911   2.199
96048W        W64411  33.623  27.540   3.852
96049W        W64412  37.424  10.872   0.752
96050W        W64413  35.455  39.418  12.525
96051W        W64414  22.557   9.357  12.466
96052W        W64415  39.545  38.433  13.410
96053W        W64416  14.811  21.745  13.465
96054W        W64417  11.849  21.588  13.395
96055W        W64418  42.399  26.498   2.876
96056W        W64419  17.099   6.846  12.351
96057W        W64420  39.333  40.451  10.626
96058W        W64421  29.106  20.259  10.946
96059W        W64422   2.240  30.154   2.250
96060W        W64423  22.683  32.992   4.350
96061W        W64424  16.168  15.253   4.726
96062W        W64425  42.482  32.483   4.334
96063W        W64426  24.481  23.008   3.683
96064W        W64427   9.193  10.234   0.781
96065W        W64428  16.258  42.317   1.781
96066W        W64429  34.614   1.401  11.584
96067W        W64430   8.854  22.644  12.494
96068W        W64431  10.326   8.830  13.827
96069W        W64432  24.606  21.730  14.796
96070W        W64433  39.490  25.632   3.218
96071W        W64434  26.124  20.701  13.545
96072W        W64435   8.252   5.861   1.796
96073W        W64436  43.942  28.564  11.073
96074W        W64437  31.046  42.882  11.883
96075W        W64438   2.814  26.659   1.737
96076W        W64439  16.164   2.420  13.024
96077W        W64440   9.873  26.026  14.430
96078W        W64441  23.019  14.182   5.180
96079W        W64442  11.714  20.766   0.346
96080W        W64443   8.262  31.011   3.342
96081W        W64444  43.857   5.771  13.918
96082W        W64445  21.118  26.673   4.170
96083W        W64446   7.307   5.871   0.803
96084W        W64447  35.522  37.045  14.967
96085W        W64448  27.169  26.664   0.880
96086W        W64449  42.527  35.419  11.391
96087W        W64450  36.088  44.361  12.894
96088W        W64451   7.851  39.898   3.201
96089W        W64452  15.182  17.109   0.946
96090W        W64453  28.953  38.339   3.254
96091W        W64454  37.949  20.136   2.211
96092W        W64455  35.405  19.741  11.379
96093W        W64456  29.488  41.926   3.340
96094W        W64457  41.447  36.067  13.893
96095W        W64458   1.247  40.041  13.874
96096W        W64459   8.201  25.187   0.352
96097W        W64460  11.642  28.467  14.307
96098W        W64461  21.220  40.432  10.542
96099W        W64462  18.717   8.769   5.084
96100W        W64463  21.696  23.732  12.431
96101W        W64464  14.319   1.758  13.898
96102W        W64465  43.444  41.484   1.290
96103W        W64466  43.977  42.898  13.978
96104W        W64467  18.665  19.772   0.908
96105W        W64468  21.204  21.224  12.900
96106W        W64469  18.163  40.843  11.372
96107W        W64470  35.571  19.711  12.411
96108W        W64471  34.097  42.517  14.500
96109W        W64472  16.302  12.854  13.819
96110W        W64473  24.987  33.585  10.417
96111W        W64474  13.336  21.603   2.729
96112W        W64475  20.066  30.432  13.996
96113W        W64476  25.202  26.137  13.064
96114W        W64477  11.682   0.341   1.806
96115W        W64478   7.911   8.363  10.594
96116W        W64479   1.469  30.934   3.316
96117W        W64480  34.515  28.967   2.280
96118W        W64481  30.130  43.020   2.202
96119W        W64482  42.869  28.484  12.903
96120W        W64483  38.010  28.968  12.543
96121W        W64484  23.047  35.432   3.191
96122W        W64485  12.208   3.430  11.573
96123W        W64486  37.373  32.570   0.947
96124W        W64487   0.357  32.562  10.443
96125W        W64488  31.050  33.590   4.326
96126W        W64489  39.034  40.548  10.939
96127W        W64490  34.461  30.639   1.421
96128W        W64491  31.009  22.090   1.259
96129W        W64492  42.831   8.702  11.437
96130W        W64493  20.671  33.465   3.314
96131W        W64494  18.746  24.500  11.486
96132W        W64495  28.138  36.881  14.303
96133W        W64496  23.161  21.753  14.320
96134W        W64497  31.937  18.258  14.933
96135W        W64498  18.689  13.705  11.981
96136W        W64499  37.043  22.191  11.054
96137W        W64500  26.045  15.749   5.711
96138W        W64501  40.462  12.716  13.827
96139W        W64502  41.314   1.928   2.704
96140W        W64503  42.326  15.586  10.930
96141W        W64504   3.752   4.379   0.270
96142W        W64505  14.128  22.165  13.995
96143W        W64506   1.914  32.912   0.447
96144W        W64507  28.537  29.533  12.492
96145W        W64508   6.821  35.422  13.981
96146W        W64509   7.343  39.033   3.747
96147W        W64510  17.598  10.664  10.407
96148W        W64511   4.237  35.365   1.931
96149W        W64512   2.791  25.207   1.219
96150W        W64513  13.280  11.817  12.899
96151W        W64514  37.067  42.302   1.725
96152W        W64515  27.948  29.072   0.339
96153W        W64516   9.715  39.535  14.436
96154W        W64517   5.325   5.365  14.969
96155W        W64518  43.776  10.266   1.289
96156W        W64519  30.530  33.463  14.997
96157W        W64520  18.587  33.594  11.016
96158W        W64521  13.212  44.335  11.397
96159W        W64522  28.973  15.583  10.540
96160W        W64523  14.623  25.645  13.930
96161W        W64524  10.790  11.321   2.773
96162W        W64525  35.469  33.591   3.311
96163W        W64526  37.062   3.834   2.350
96164W        W64527  14.194  36.445  10.925
96165W        W64528  33.913  40.914  13.900
96166W        W64529  13.316  44.960   2.672
96167W        W64530  39.506  31.580  13.447
96168W        W64531  10.147  35.496  11.916
96169W        W64532  34.112  24.516  11.859
96170W        W64533  43.415  14.320  13.330
96171W        W64534  40.831  42.395   0.898
96172W        W64535  14.144  28.987   2.391
96173W        W64536  21.195  43.402  14.284
96174W        W64537  30.532  29.616   5.106
96175W        W64538  10.290  25.488   1.842
96176W        W64539  17.111   0.870  10.580
96177W        W64540  39.352   8.294  11.065
96178W        W64541  16.205  42.011  12.954
96179W        W64542  18.192  39.038  14.789
96180W        W64543  43.988  19.059  14.325
96181W        W64544   0.467   4.392  10.413
96182W        W64545   6.677  13.177  14.515
96183W        W64546  18.082   9.185   0.378
96184W        W64547  28.157  20.603   4.281
96185W        W64548  23.658   9.256   4.314
96186W        W64549   3.854  23.726  13.884
96187W        W64550  25.697   1.363  11.956
96188W        W64551  21.191  32.539  14.366
96189W        W64552  11.280  18.778  13.838
96190W        W64553   6.424  35.882  14.849
96191W        W64554  43.778  12.708  13.365
96192W        W64555  14.716  36.902   1.350
96193W        W64556   9.718  32.003   2.737
96194W        W64557  35.413   3.328  11.116
96195W        W64558  27.957   1.954   4.633
96196W        W64559   6.409  24.711  12.038
96197W        W64560  19.098   8.200  14.414
96198W        W64561   1.458  22.614  12.044
96199W        W64562  21.053  28.114  11.481
96200W        W64563  29.648  38.065   0.254
96201W        W64564   0.953   4.377   2.226
96202W        W64565  39.424  21.085  10.626
96203W        W64566  12.328   5.695  10.469
96204W        W64567  21.701  25.518   3.769
96205W        W64568   9.217  34.524   4.698
96206W        W64569  31.999  26.517  11.023
96207W        W64570  11.627  16.255  14.862
96208W        W64571  26.593  31.102  13.381
96209W        W64572  33.531  33.558   1.728
96210W        W64573  29.528  10.744  12.493
96211W        W64574  16.151   8.251   1.761
96212W        W64575   2.870   2.935  13.800
96213W        W64576   5.196  25.572  12.557
96214W        W64577   5.795  42.510   2.201
96215W        W64578  23.202  39.449   2.201
96216W        W64579   8.896  13.657   0.483
96217W        W64580  20.576  21.646   0.272
96218W        W64581  28.979   6.231   2.194
96219W        W64582  18.671  20.652  11.103
96220W        W64583   7.358  24.026   4.675
96221W        W64584  22.082  43.426  12.516
96222W        W64585  24.065   1.292   2.827
96223W        W64586   3.737  36.946  13.995
96224W        W64587  21.534  36.938   0.243
96225W        W64588  17.224   5.292  14.810
96226W        W64589  32.131   1.415   3.151
96227W        W64590  26.693  13.186   5.190
96228W        W64591  31.440  26.680  14.022
96229W        W64592   9.838   1.353   3.862
96230W        W64593   3.800  41.497  12.461
96231W        W64594  28.014  13.646  11.454
96232W        W64595  14.786  19.746  12.405
96233W        W64596  40.023  32.126  13.503
96234W        W64597  43.882  13.698  10.578
96235W        W64598  29.132   4.376   3.838
96236W        W64599  42.919  32.436  12.497
96237W        W64600  24.486  24.138  13.546
96238W        W64601   2.859   4.255   4.756
96239W        W64602  29.509  12.792   2.280
96240W        W64603   3.908  21.125  10.903
96241W        W64604  38.025  10.640   3.218
96242W        W64605  23.229  14.612  13.905
96243W        W64606  25.639  25.504  13.920
96244W        W64607  39.932  36.399   2.370
96245W        W64608  39.491  44.302  14.887
96246W        W64609   5.744  15.281  12.570
96247W        W64610   1.392  34.923  12.019
96248W        W64611   3.216  12.652   0.258
96249W        W64612  40.476  18.258  11.082
96250W        W64613   1.779   7.223  10.553
96251W        W64614  10.664  42.384   4.203
96252W        W64615  17.724  27.528   2.741
96253W        W64616  16.141  25.154   4.276
96254W        W64617  32.622  30.050   4.797
96255W        W64618   0.814  31.097  12.868
96256W        W64619   8.786   6.803   0.436
96257W        W64620   7.743  25.605  13.830
96258W        W64621  11.669   5.725  10.413
96259W        W64622  23.516   8.681  13.045
96260W        W64623  31.460  31.497   0.460
96261W        W64624  12.186  23.053   4.759
96262W        W64625  11.309  29.923  13.481
96263W        W64626  28.443  40.985   3.349
96264W        W64627  35.560   9.310   1.392
96265W        W64628  18.558  25.099   4.321
96266W        W64629  25.172  31.952   0.401
96267W        W64630  26.675  32.127  13.874
96268W        W64631  44.767  30.641  14.810
96269W        W64632  36.906  24.078   4.117
96270W        W64633  18.681  36.022   0.432
96271W        W64634   8.882  23.218   3.261
96272W        W64635  13.280  29.599  13.035
96273W        W64636  39.051  30.066   1.211
96274W        W64637  35.890  11.367  14.291
96275W        W64638   1.463  14.632   0.438
96276W        W64639  37.337   1.922  13.518
96277W        W64640  27.181  39.808   2.748
96278W        W64641  42.390  40.923  12.464
96279W        W64642   1.877  10.635  11.090
96280W        W64643   6.272  43.304   1.418
96281W        W64644  21.145  11.732  13.868
96282W        W64645   3.403  10.286  10.631
96283W        W64646  39.000  13.692  12.089
96284W        W64647  10.363  39.854   0.903
96285W        W64648  19.160  13.720  14.491
96286W        W64649  10.176  36.433  12.566
96287W        W64650  39.941  27.036  12.479
96288W        W64651  20.626  41.510   3.776
96289W        W64652   4.405  16.087  13.536
96290W        W64653  27.576  18.759   3.241
96291W        W64654  12.306  20.189   0.436
96292W        W64655  12.829  28.528  10.605
96293W        W64656  17.679   7.706   2.822
96294W        W64657  17.216  30.058  14.429
96295W        W64658  43.977  43.482   1.870
96296W        W64659  44.274  39.439  11.075
96297W        W64660   4.928  20.170  13.899
96298W        W64661  20.037  37.447   3.732
96299W        W64662  10.276  22.730  11.047
96300W        W64663  27.654   7.802  13.480
96301W        W64664  20.574  31.974   3.202
96302W        W64665  24.037  21.185   0.247
96303W        W64666  40.485  26.965   2.737
96304W        W64667   0.959   9.355   2.237
96305W        W64668  33.513  44.335   3.768
96306W        W64669   0.298  20.141   2.690
96307W        W64670  36.861  18.571  13.991
96308W        W64671  38.505  33.536   4.606
96309W        W64672   6.382  17.109   1.919
96310W        W64673  34.906  43.004  10.405
96311W        W64674  19.778   7.348   2.213
96312W        W64675  26.116  11.128   1.300
96313W        W64676  20.646  15.240   0.331
96314W        W64677   8.250   5.736   3.185
96315W        W64678  15.220  30.499   1.741
96316W        W64679  23.046  29.125  13.336
96317W        W64680   0.788  11.334   2.397
96318W        W64681  20.169   8.888   0.331
96319W        W64682  25.666  32.612  10.580
96320W        W64683  27.070  36.436   2.865
96321W        W64684  23.554  14.301  10.539
96322W        W64685  11.796  41.841   4.801
96323W        W64686  25.712  39.828  12.046
96324W        W64687  11.145   4.234   1.798
96325W        W64688  43.306  21.729  11.953
96326W        W64689  40.334  31.627   0.244
96327W        W64690   6.384  25.173   1.724
96328W        W64691  16.204   9.290  14.419
96329W        W64692  15.607  44.823   2.297
96330W        W64693  33.428  21.537   0.926
96331W        W64694  10.878  11.153  14.311
96332W        W64695   9.288  35.495   4.679
96333W        W64696  40.345  18.684   1.827
96334W        W64697   2.767  44.492  12.491
96335W        W64698  34.074  30.432   4.803
96336W        W64699  40.901  10.872   1.887
96337W        W64700   8.304  10.313  12.974
96338W        W64701  13.318   3.765   1.917
96339W        W64702   4.233  17.680   0.482
96340W        W64703   2.254  20.605  13.545
96341W        W64704  19.732  31.087   2.359
96342W        W64705  29.582  35.941  14.303
96343W        W64706  23.500  42.894   2.881
96344W        W64707   4.873  42.910   9.958
96345W        W64708  36.500  15.227   0.351
96346W        W64709  27.666  33.928  13.413
96347W        W64710  38.536  19.540  10.583
96348W        W64711   2.246  10.645  12.485
96349W        W64712  27.197  41.908   2.322
96350W        W64713  23.145   2.879  12.556
96351W        W64714  40.403  38.486   4.613
96352W        W64715  17.758  38.964  14.992
96353W        W64716  21.653  37.848  13.024
96354W        W64717  21.597  19.175   1.841
96355W        W64718  17.225  17.207  13.516
96356W        W64719  27.009  20.598  13.543
96357W        W64720  23.067   0.453   0.755
96358W        W64721  43.289  32.469   1.426
96359W        W64722  12.753  31.581   1.708
96360W        W64723  21.677  27.544   4.298
96361W        W64724   7.705   4.343  14.786
96362W        W64725  21.101  28.133   4.257
96363W        W64726  30.014  15.227   0.447
96364W        W64727   6.312  30.084  13.000
96365W        W64728  20.745  18.239   3.156
96366W        W64729  22.076  21.646   1.919
96367W        W64730   9.223  41.821  10.591
96368W        W64731  24.149  34.469   2.831
96369W        W64732   6.237   9.683   4.170
96370W        W64733  37.886  26.597  13.373
96371W        W64734  33.484  33.927   4.790
96372W        W64735  11.808  37.016  11.423
96373W        W64736  15.711  41.005   2.868
96374W        W64737  11.335  41.453   1.770
96375W        W64738  32.575  38.841   3.205
96376W        W64739   1.800  40.374   3.662
96377W        W64740  20.576  28.478   1.810
96378W        W64741  30.043  37.076  14.776
96379W        W64742   3.382  32.917   4.327
96380W        W64743   8.841   0.808   0.361
96381W        W64744   5.696  31.501   3.859
96382W        W64745  17.640   4.344  11.557
96383W        W64746  41.488  12.827  13.415
96384W        W64747  30.932  20.583  14.020
96385W        W64748   6.877   9.819   4.701
96386W        W64749  14.283  37.451   3.757
96387W        W64750  38.920  39.360   4.265
96388W        W64751  28.120  37.943  12.457
96389W        W64752  20.051  15.678  10.023
96390W        W64753  31.551  19.768   3.691
96391W        W64754  12.820   9.226   1.310
96392W        W64755   5.795   4.897  11.107
96393W        W64756  25.493   0.799   2.886
96394W        W64757  44.472  32.504  13.977
96395W        W64758  43.404  34.941   4.785
96396W        W64759   8.813  10.379  14.998
96397W        W64760   3.741  26.083  14.426
96398W        W64761  29.535   0.760   1.783
96399W        W64762  44.834  36.068   1.859
96400W        W64763  20.628  14.703   1.891
96401W        W64764  21.227  36.409  13.525
96402W        W64765   1.337   2.281  14.442
96403W        W64766  34.895   2.424   0.899
96404W        W64767  25.700  33.411   0.266
96405W        W64768  33.387  44.437  10.581
96406W        W64769   7.327   3.374  11.084
96407W        W64770  19.090   8.271   4.207
96408W        W64771   2.444  29.083   3.166
96409W        W64772  16.748   9.833  13.483
96410W        W64773  31.433  30.971   1.923
96411W        W64774   9.244  24.193  10.552
96412W        W64775   2.301   1.471   1.857
96413W        W64776  26.965  35.020  13.818
96414W        W64777  20.154   5.343   4.786
96415W        W64778  33.388  10.265   5.288
96416W        W64779  35.501   7.738  13.454
96417W        W64780   2.805  26.465  11.487
96418W        W64781  12.820  11.642   4.732
96419W        W64782  12.632   0.368   1.368
96420W        W64783  13.163  20.537   4.134
96421W        W64784  29.963  35.541  14.310
96422W        W64785  38.336  17.088   3.768
96423W        W64786  17.214   1.958   3.650
96424W        W64787  23.186   4.352  12.426
96425W        W64788  23.032  42.392   3.300
96426W        W64789  23.174  38.410  14.901
96427W        W64790  35.472   4.701   3.205
96428W        W64791  20.606   4.767  14.895
96429W        W64792  13.605  10.346  13.958
96430W        W64793   7.752   5.377  12.903
96431W        W64794  17.712  42.296   2.782
96432W        W64795  40.999   0.439  11.398
96433W        W64796  33.389  27.491  14.788
96434W        W64797  23.521  43.783  14.978
96435W        W64798   8.263  25.632  12.837
96436W        W64799  13.260  14.688   3.165
96437W        W64800  42.007  22.733   3.334
96438W        W64801  28.066  24.576  12.430
96439W        W64802  18.243  13.286   0.287
96440W        W64803  27.623  19.757  11.919
96441W        W64804  13.332  35.587  11.451
96442W        W64805  27.069  21.220  14.008
96443W        W64806  10.320   9.709  11.445
96444W        W64807  38.044  10.306   9.572
96445W        W64808  44.803  21.205  12.858
96446W        W64809  43.501  20.246  12.842
96447W        W64810  20.548  10.707   2.804
96448W        W64811   3.302  16.276   0.259
96449W        W64812  35.372  19.613  10.425
96450W        W64813  16.598  25.510  13.918
96451W        W64814  34.542  31.481   0.340
96452W        W64815   5.727  24.117  13.403
96453W        W64816  39.441  16.638   1.814
96454W        W64817  38.876   9.317  12.456
96455W        W64818  31.636   0.771   4.721
96456W        W64819  20.210  39.455  14.032
96457W        W64820  14.790   3.909   3.352
96458W        W64821  33.397  30.102  11.897
96459W        W64822   1.429  42.938   3.854
96460W        W64823  16.262  32.991   1.865
96461W        W64824  19.709  17.649  14.516
96462W        W64825  39.438  38.057   0.834
96463W        W64826  18.244  20.566  12.382
96464W        W64827   9.360   2.794  14.989
96465W        W64828  43.424   3.909  10.456
96466W        W64829   5.832  41.816  14.426
96467W        W64830  42.889   7.197  10.986
96468W        W64831  34.019  22.677   9.962
96469W        W64832  38.033  29.543  13.010
96470W        W64833  27.189   4.707  12.055
96471W        W64834  16.664   4.803   0.272
96472W        W64835  37.340  20.204  14.988
96473W        W64836  35.066  34.883  10.898
96474W        W64837  18.224  14.197   0.353
96475W        W64838   5.743   9.241  13.371
96476W        W64839  17.770  11.294   2.272
96477W        W64840  20.270  23.181   3.333
96478W        W64841  15.253  39.411  12.879
96479W        W64842  21.125   3.292  13.866
96480W        W64843  40.892  37.831  12.878
96481W        W64844   3.216   8.711   3.693
96482W        W64845  39.540   2.895  12.845
96483W        W64846  42.934  39.333   3.188
96484W        W64847  34.090  18.115  12.854
96485W        W64848  44.424  15.814   4.193
96486W        W64849  20.161  15.793  13.544
96487W        W64850  31.599  23.029  10.893
96488W        W64851  15.736  43.861  14.305
96489W        W64852  40.845  26.105   2.186
96490W        W64853  16.658  14.823  11.881
96491W        W64854  30.542  15.685   3.190
96492W        W64855  14.661  22.710   5.310
96493W        W64856  30.125  24.143  14.794
96494W        W64857  33.040  41.842  14.402
96495W        W64858   3.893  30.561  13.516
96496W        W64859  33.576  17.273   3.849
96497W        W64860  26.052  43.919  14.375
96498W        W64861  18.679   2.237  11.539
96499W        W64862   1.266   0.395  14.379
96500W        W64863  12.751  44.369  11.886
96501W        W64864  35.031  22.145   3.689
96502W        W64865  25.599  27.032  10.543
96503W        W64866  40.360  25.132  13.937
96504W        W64867  13.260  35.515  12.890
96505W        W64868  10.674   8.258  13.451
96506W        W64869  31.992  31.950   3.793
96507W        W64870  16.709  36.544   0.892
96508W        W64871  18.599  33.542   1.802
96509W        W64872   0.450  15.656   1.254
96510W        W64873   3.728  15.803   4.726
96511W        W64874  12.179  39.353   2.412
96512W        W64875   4.828   9.707  14.926
96513W        W64876  15.258   9.779   0.298
96514W        W64877  41.801  29.115  10.483
96515W        W64878  26.047  43.422   4.670
96516W        W64879  38.462  18.263  11.580
96517W        W64880  40.802  44.430   4.650
96518W        W64881  14.252  21.126   4.658
96519W        W64882   7.862  40.413   1.857
96520W        W64883  43.800  39.497  11.509
96521W        W64884  30.450  28.964   1.317
96522W        W64885  21.544  38.343   4.838
96523W        W64886  16.783   8.299   0.347
96524W        W64887   6.335  10.684   1.290
96525W        W64888  17.756  35.372   4.672
96526W        W64889   1.758  20.575   0.371
96527W        W64890  27.583  26.142  12.480
96528W        W64891  35.042  16.734   0.791
96529W        W64892   4.798  11.270  14.315
96530W        W64893  10.184   0.471   0.393
96531W        W64894  22.157  39.000  14.340
96532W        W64895  29.971  42.915   4.217
96533W        W64896  23.035  27.607  11.480
96534W        W64897   4.837  17.296   4.629
96535W        W64898  10.864  34.599  13.411
96536W        W64899  43.321  18.730   3.273
96537W        W64900   2.250  34.469   3.251
96538W        W64901  25.558   6.822   2.242
96539W        W64902  30.058  20.185  13.901
96540W        W64903  31.403  43.327  13.843
96541W        W64904   1.896  31.572  13.826
96542W        W64905  12.665  32.438   3.244
96543W        W64906  40.938   7.321  10.924
96544W        W64907  12.120  19.563  11.967
96545W        W64908  12.299  17.565  12.377
96546W        W64909  10.865   1.970  11.916
96547W        W64910   6.315   5.703   1.291
96548W        W64911  33.407  14.265  11.400
96549W        W64912  39.938  43.435   1.917
96550W        W64913  15.208  34.106  14.476
96551W        W64914  11.843   1.297  11.456
96552W        W64915  19.276  40.530  12.440
96553W        W64916   8.695  11.194  14.400
96554W        W64917  30.471  43.860  12.917
96555W        W64918  22.565  23.552   0.339
96556W        W64919  22.998   4.862   1.902
96557W        W64920  38.034   3.948   4.184
96558W        W64921  18.664  17.770  10.997
96559W        W64922  39.831  20.553   2.335
96560W        W64923   0.493  42.894   0.958
96561W        W64924   6.893   7.666   4.262
96562W        W64925  12.762   7.862   1.895
96563W        W64926   1.336   5.888   1.887
96564W        W64927  43.501  43.982  13.396
96565W        W64928  19.711  13.323  13.836
96566W        W64929   8.821   2.432   2.406
96567W        W64930  11.328  20.560  13.481
96568W        W64931  44.414  44.423  12.073
96569W        W64932  11.696  13.602  14.381
96570W        W64933  19.135   9.760  10.594
96571W        W64934  15.151  37.881  14.508
96572W        W64935  33.084   5.730  13.391
96573W        W64936  44.908  17.119  11.999
96574W        W64937   5.346  14.653  12.000
96575W        W64938  32.969   3.786  12.897
96576W        W64939  32.620  15.723  13.882
96577W        W64940  31.519  24.077   4.192
96578W        W64941  40.814  38.527  11.579
96579W        W64942  24.685  31.426  11.567
96580W        W64943  37.947  33.419  12.528
96581W        W64944  43.436  37.864  10.122
96582W        W64945  19.110  22.713  10.963
96583W        W64946  12.613   5.886  12.931
96584W        W64947  12.781  11.671   5.304
96585W        W64948   9.706  39.044   1.266
96586W        W64949  22.220  29.070  11.564
96587W        W64950  30.056   3.818  14.298
96588W        W64951  33.001  42.945  13.363
96589W        W64952  40.480   7.739   2.203
96590W        W64953  38.343  11.777   2.663
96591W        W64954  15.658   8.659   3.162
96592W        W64955  38.515  20.577  14.942
96593W        W64956  20.631  42.026   1.430
96594W        W64957   8.816  27.568   2.302
96595W        W64958  19.736  34.491  12.340
96596W        W64959  35.009  33.456   0.791
96597W        W64960  44.489  38.839   4.685
96598W        W64961  31.629  15.657   0.812
96599W        W64962  17.642  17.170   0.432
96600W        W64963  18.103  21.051  13.530
96601W        W64964  27.950   1.471  13.398
96602W        W64965   7.288  21.734   2.242
96603W        W64966  18.055  11.704  12.399
96604W        W64967  32.978  34.921   2.713
96605W        W64968   1.414  42.509   3.261
96606W        W64969  25.537   0.897   4.733
96607W        W64970  18.639  23.512   9.948
96608W        W64971  44.487   6.237  12.884
96609W        W64972   2.310  11.761   2.710
96610W        W64973   4.861  36.910  12.984
96611W        W64974  34.879  40.988   0.430
96612W        W64975  39.854  12.829   0.893
96613W        W64976  32.452  25.130  11.005
96614W        W64977  40.478   4.910  14.463
96615W        W64978  43.488  34.510  12.056
96616W        W64979  42.004  31.635   2.303
96617W        W64980  18.624  21.166   1.919
96618W        W64981  23.164  40.539  12.889
96619W        W64982  31.647  44.307   1.412
96620W        W64983  29.930  15.227  12.901
96621W        W64984  39.475  16.302   4.762
96622W        W64985  43.397  14.749   2.698
96623W        W64986   2.291   4.413   3.350
96624W        W64987  10.694  44.419   3.356
96625W        W64988   5.198  35.095   3.367
96626W        W64989   8.855  41.449  12.939
96627W        W64990  38.843  29.021   3.823
96628W        W64991  11.651   1.760   4.151
96629W        W64992  12.745  44.480   4.209
96630W        W64993   5.854  28.626   1.841
96631W        W64994  37.539  12.840   1.815
96632W        W64995   5.226  26.604  12.958
96633W        W64996  40.305  37.841   1.372
96634W        W64997  32.986  31.027   4.807
96635W        W64998  38.062  12.683   1.728
96636W        W64999  30.159   5.827  10.588
96637W        W65000  17.703   5.825   1.353
96638W        W65001   3.832  24.201   1.352
96639W        W65002  17.164  12.308   0.819
96640W        W65003  19.691  34.568  14.364
96641W        W65004  31.596  30.636   1.757
96642W        W65005  27.550  37.033  14.948
96643W        W65006  41.855   5.218   2.413
96644W        W65007  30.908  36.003   1.762
96645W        W65008   3.339  28.104   0.262
96646W        W65009  29.918  17.609  10.969
96647W        W65010  34.971   6.200  12.365
96648W        W65011  20.601  26.977  10.557
96649W        W65012  32.055  25.518  11.518
96650W        W65013  21.124  16.647   1.229
96651W        W65014   6.850  20.728  13.461
96652W        W65015  42.415  27.571  14.991
96653W        W65016   7.857  23.179   1.854
96654W        W65017  38.390  23.122   3.258
96655W        W65018  23.506  37.500  10.996
96656W        W65019  39.063  44.914   1.254
96657W        W65020  41.002  13.343  11.543
96658W        W65021  24.486  10.281  11.381
96659W        W65022  19.545  23.611   4.209
96660W        W65023  39.016   2.296  11.951
96661W        W65024  22.997  28.579   3.673
96662W        W65025   9.254  37.398  13.466
96663W        W65026   0.410   4.714  12.385
96664W        W65027  22.517  18.234   0.785
96665W        W65028  32.565   4.323  12.842
96666W        W65029  14.270  29.941   1.298
96667W        W65030  37.871  31.630  14.318
96668W        W65031  20.522   7.731   1.451
96669W        W65032  27.610  40.023  14.420
96670W        W65033  30.951  14.620   2.366
96671W        W65034   7.298  11.138  13.966
96672W        W65035  25.988  30.465   3.345
96673W        W65036  34.989  18.673   0.918
96674W        W65037  43.951  31.417  13.021
96675W        W65038  31.124   6.870  12.970
96676W        W65039  32.991  33.032  11.084
96677W        W65040  18.107  25.484  10.434
96678W        W65041  44.980   9.285  14.810
96679W        W65042   6.700  33.945  10.457
96680W        W65043  30.492  17.302  10.530
96681W        W65044  39.451  13.112  12.482
96682W        W65045   5.934  10.646   2.855
96683W        W65046  30.160  35.101  11.857
96684W        W65047   2.937   0.985  12.090
96685W        W65048  44.280  28.033   3.807
96686W        W65049  13.289  38.928   0.358
96687W        W65050  17.672  10.187  12.468
96688W        W65051  10.356  36.046  11.587
96689W        W65052  25.105  28.933   0.453
96690W        W65053  11.862  30.072  14.814
96691W        W65054  26.023  32.604  13.874
96692W        W65055  38.529  16.689   2.215
96693W        W65056  32.552   8.225  13.403
96694W        W65057  36.457   6.325   1.271
96695W        W65058  11.324  24.066   2.895
96696W        W65059   0.938  16.714   4.208
96697W        W65060  35.857  21.750  14.841
96698W        W65061  39.878  19.108   0.348
96699W        W65062   6.906  38.847   3.708
96700W        W65063   0.861  27.989   1.417
96701W        W65064  19.728  20.252  11.086
96702W        W65065   2.383  14.328   3.264
96703W        W65066  36.885  11.807  13.396
96704W        W65067  40.806  25.539   2.351
96705W        W65068   0.823  12.691  12.908
96706W        W65069  11.132  15.630   0.284
96707W        W65070  12.219   4.855  11.967
96708W        W65071   1.892  19.676  14.807
96709W        W65072  43.306   7.734  11.583
96710W        W65073  35.381  28.543   1.351
96711W        W65074   5.832  43.346  14.388
96712W        W65075  41.536  41.798   2.760
96713W        W65076  32.076  30.579   4.629
96714W        W65077   4.302   7.749   2.859
96715W        W65078  36.577  25.529  13.053
96716W        W65079  36.464   3.370   2.348
96717W        W65080   7.215  33.404  12.406
96718W        W65081  10.802  43.921  14.369
96719W        W65082  17.604  39.829   3.309
96720W        W65083  12.769  39.361  10.573
96721W        W65084  15.675  11.336   4.674
96722W        W65085  34.891  16.217  11.040
96723W        W65086  12.350  44.281   2.218
96724W        W65087  44.275  13.321  13.325
96725W        W65088  25.184  15.135  14.822
96726W        W65089  44.434  38.472  13.004
96727W        W65090   3.424  21.589   0.451
96728W        W65091  17.673   1.930   4.159
96729W        W65092   1.392  30.504  14.857
96730W        W65093  23.984  31.984   2.262
96731W        W65094   7.885   9.291  12.562
96732W        W65095  27.060   8.252   4.706
96733W        W65096  40.879   8.734  12.379
96734W        W65097   8.226   4.252  14.890
96735W        W65098  36.950   4.435  12.482
96736W        W65099   4.734   3.955   1.929
96737W        W65100  40.027  29.442  14.423
96738W        W65101  14.700   3.399  13.436
96739W        W65102  35.857  10.246  12.900
96740W        W65103  10.647  37.382  10.942
96741W        W65104  37.935  26.103   4.708
96742W        W65105  29.006  34.966   2.238
96743W        W65106  20.163  32.070   0.474
96744W        W65107  21.121  20.081   2.820
96745W        W65108  42.879  10.822  12.882
96746W        W65109  27.141  25.710   2.704
96747W        W65110  27.048  31.014  13.005
96748W        W65111  11.280  44.822  12.565
96749W        W65112  20.591  34.871   2.272
96750W        W65113  38.019  24.980  11.529
96751W        W65114  13.195  24.037   1.795
96752W        W65115  40.920  10.212  13.308
96753W        W65116   0.472   7.372   2.886
96754W        W65117  12.763  44.845   2.731
96755W        W65118  13.109  40.486  11.414
96756W        W65119  43.933   5.854   0.908
96757W        W65120   5.360  43.813   1.709
96758W        W65121  27.189  30.597   4.270
96759W        W65122   5.218  43.332  13.503
96760W        W65123  42.904  33.577  12.850
96761W        W65124   8.177  11.205  13.530
96762W        W65125  13.282  17.205  10.475
96763W        W65126  19.598  41.337   0.776
96764W        W65127  41.910  44.462  14.870
96765W        W65128  28.665  17.083   4.307
96766W        W65129   1.343   1.793  12.392
96767W        W65130  18.103  31.602   2.679
96768W        W65131  29.999  14.164   4.617
96769W        W65132   4.913  19.575  11.481
96770W        W65133  30.147  28.097   2.665
96771W        W65134  40.541  11.695  10.548
96772W        W65135   0.371  26.037  14.508
96773W        W65136  35.560  12.832  11.592
96774W        W65137  41.329  31.994   1.799
96775W        W65138  27.567  21.097  13.972
96776W        W65139  28.160  36.864   1.308
96777W        W65140  39.551   6.409   2.375
96778W        W65141  13.243  14.789   3.791
96779W        W65142  12.856  28.060  14.873
96780W        W65143  17.261   9.367  14.926
96781W        W65144   8.242  33.429  11.856
96782W        W65145   4.368  14.664  12.074
96783W        W65146   6.359  25.689   1.751
96784W        W65147  42.386  11.818  11.071
96785W        W65148  33.451  28.507   1.359
96786W        W65149  15.657  23.240   4.310
96787W        W65150   1.762  44.371   0.818
96788W        W65151  34.092   7.855  11.488
96789W        W65152  11.777   3.717   1.223
96790W        W65153  31.453  20.586  10.615
96791W        W65154  24.021  10.146  12.339
96792W        W65155  27.194   4.285   0.364
96793W        W65156  36.067  25.981  13.441
96794W        W65157  18.557   1.827   3.239
96795W        W65158   9.152  25.070   4.353
96796W        W65159  27.093  23.002  11.127
96797W        W65160  19.214  15.173  10.497
96798W        W65161  23.503  40.412   2.715
96799W        W65162  18.121  14.714   4.804
96800W        W65163  24.002   8.804  14.811
96801W        W65164  11.803  23.577  14.839
96802W        W65165  35.448  42.940   2.790
96803W        W65166  11.748  38.076  10.017
96804W        W65167   0.491  43.780   1.837
96805W        W65168  28.135   0.947   3.736
96806W        W65169  37.556  41.023   1.902
96807W        W65170  25.106  21.537  10.637
96808W        W65171  25.510  11.659  13.505
96809W        W65172  20.608  11.308  14.469
96810W        W65173  16.754  17.263   3.257
96811W        W65174  12.141  15.264  11.456
96812W        W65175   3.893  26.624   2.273
96813W        W65176   8.786   4.208  13.840
96814W        W65177  22.083  31.561  14.770
96815W        W65178  42.969  29.096   4.197
96816W        W65179  21.545   6.808  10.949
96817W        W65180  40.346  39.934  12.374
96818W        W65181   4.289  12.128   0.430
96819W        W65182  37.840  39.938  11.878
96820W        W65183  20.154   1.348  12.015
96821W        W65184  36.450   1.977   0.450
96822W        W65185  43.487  32.996  13.477
96823W        W65186  12.726  40.042   0.757
96824W        W65187  35.987  33.890  11.024
96825W        W65188  27.107  23.134  13.464
96826W        W65189  42.840   4.204  14.958
96827W        W65190   2.751  39.831  11.100
96828W        W65191  35.968  34.037   1.289
96829W        W65192   8.840  29.452   1.864
96830W        W65193   2.291   2.762   3.202
96831W        W65194  15.586  14.231   1.300
96832W        W65195  36.956   0.777   3.241
96833W        W65196  35.998  35.881  12.875
96834W        W65197  17.232  20.638   4.341
96835W        W65198  43.332  20.674  12.088
96836W        W65199   7.247  33.113   4.720
96837W        W65200  44.428   4.738   3.313
96838W        W65201  15.749   2.325  14.490
96839W        W65202  20.110  20.160   1.750
96840W        W65203   7.743  17.266   0.290
96841W        W65204  30.472  11.694  12.009
96842W        W65205  28.582  31.105  14.795
96843W        W65206  36.483  26.153  12.567
96844W        W65207  32.592  20.653  10.909
96845W        W65208  19.140  39.995   1.331
96846W        W65209  28.669  26.087  11.870
96847W        W65210   6.283  20.120  14.313
96848W        W65211  10.710  33.107  13.414
96849W        W65212  41.924  15.626   4.140
96850W        W65213  37.933  19.271  10.545
96851W        W65214  17.140   4.764   3.636
96852W        W65215   0.813  18.630   0.893
96853W        W65216  42.003   4.254   4.618
96854W        W65217   7.850   0.781   1.393
96855W        W65218   9.363  23.178  11.421
96856W        W65219  44.938  21.148  11.869
96857W        W65220  40.476   2.907  13.993
96858W        W65221  22.100  24.659   1.703
96859W        W65222  24.192  12.324   0.890
96860W        W65223  42.840   9.293  12.089
96861W        W65224  20.163  40.355   4.837
96862W        W65225  30.464  19.083   4.220
96863W        W65226  39.024   2.463   3.752
96864W        W65227  15.687  24.650  10.922
96865W        W65228  13.797  44.292   4.796
96866W        W65229   2.456  15.591  13.364
96867W        W65230  11.362  44.370  12.858
96868W        W65231   5.380   9.382   2.725
96869W        W65232  10.197  25.567  11.518
96870W        W65233   0.371  33.017  13.482
96871W        W65234   4.445  35.374   3.164
96872W        W65235  29.430  29.983   5.320
96873W        W65236  38.936  11.154   0.290
96874W        W65237  27.049  35.522  14.453
96875W        W65238  10.847  41.478   0.882
96876W        W65239  14.593   1.275   4.161
96877W        W65240   4.810  30.961  13.953
96878W        W65241  25.097   6.417   1.820
96879W        W65242  23.533  27.084  14.989
96880W        W65243  28.635  30.037   0.757
96881W        W65244  15.805   3.372   3.346
96882W        W65245  35.987  10.669   3.305
96883W        W65246  19.099  10.727  14.821
96884W        W65247  30.625  43.450   3.199
96885W        W65248  31.950  39.339  14.493
96886W        W65249  15.723  10.285   4.695
96887W        W65250   2.317  26.654  11.879
96888W        W65251  39.451  30.478  14.927
96889W        W65252  16.252  41.535  14.802
96890W        W65253  34.089  33.532   2.803
96891W        W65254  12.653  23.594   4.317
96892W        W65255  12.826  35.904  12.853
96893W        W65256   3.296  24.548   1.924
96894W        W65257  13.138  33.550   1.357
96895W        W65258  22.532  19.696   3.861
96896W        W65259  14.748  32.086   3.682
96897W        W65260   6.833   3.857   2.211
96898W        W65261   7.888  32.593  10.910
96899W        W65262   0.745  16.215   3.798
96900W        W65263  17.197  29.502   9.975
96901W        W65264  18.255  39.950   3.255
96902W        W65265   2.305  14.280   0.813
96903W        W65266  22.251  30.523  14.311
96904W        W65267  36.005  31.615   0.441
96905W        W65268  12.136  32.474   4.837
96906W        W65269  41.356  44.260   1.929
96907W        W65270   6.908  17.766  11.985
96908W        W65271  15.096  17.589   1.417
96909W        W65272  42.515   6.215   2.405
96910W        W65273   0.273  16.752  11.122
96911W        W65274  13.279  14.183   4.252
96912W        W65275  38.569  27.481  10.509
96913W        W65276  27.543  22.074  12.884
96914W        W65277  25.640   2.822   1.874
96915W        W65278  44.484  21.106   5.271
96916W        W65279  22.996  44.389  11.879
96917W        W65280  34.935  37.050  14.031
96918W        W65281  41.514   3.734  12.019
96919W        W65282  18.056  16.075  13.548
96920W        W65283  12.255   0.463   4.177
96921W        W65284  14.340  15.084  10.968
96922W        W65285  38.019  15.128   1.835
96923W        W65286  35.978   3.832   4.689
96924W        W65287  27.160  28.106  14.914
96925W        W65288  38.530   9.321  12.946
96926W        W65289   5.251  17.195  10.515
96927W        W65290  12.705  21.586  12.049
96928W        W65291   4.206  16.663  11.501
96929W        W65292  17.569  28.130   3.374
96930W        W65293  30.539   8.889  13.961
96931W        W65294  41.939  26.675   5.088
96932W        W65295  31.026  30.962   3.783
96933W        W65296  13.841  25.035   0.758
96934W        W65297  28.617   2.373  12.425
96935W        W65298  30.036  16.127  13.482
96936W        W65299  20.734  11.276   0.448
96937W        W65300  42.373  13.194  13.027
96938W        W65301  21.148  33.458  13.506
96939W        W65302  30.165  10.361   2.260
96940W        W65303  19.558   9.864  12.399
96941W        W65304  22.231   2.404   4.166
96942W        W65305  31.002  26.037   2.841
96943W        W65306   9.179   2.400  14.414
96944W        W65307  13.706  21.226   0.883
96945W        W65308  23.101   3.278   1.874
96946W        W65309  44.985  12.305   0.393
96947W        W65310  34.377  29.478   4.710
96948W        W65311   8.340   2.921   4.605
96949W        W65312  13.329   8.738   0.243
96950W        W65313  27.123  31.549  10.912
96951W        W65314  32.456   5.257   3.706
96952W        W65315   1.267  35.946   0.878
96953W        W65316  38.396  10.197  10.548
96954W        W65317   8.281   0.755  13.382
96955W        W65318  34.377  36.887   1.432
96956W        W65319  37.028   4.213   0.467
96957W        W65320  11.164  26.642  12.372
96958W        W65321  44.452   3.879   3.652
96959W        W65322   0.355  12.236  12.348
96960W        W65323  32.584  35.008  12.084
96961W        W65324  32.982  19.064   1.909
96962W        W65325  10.358   0.253   2.297
96963W        W65326  11.810  42.923   2.223
96964W        W65327  39.963  34.864   3.311
96965W        W65328  18.577  28.153  14.414
96966W        W65329  36.918  21.079   2.755
96967W        W65330  27.183  21.729  12.050
96968W        W65331  39.964   6.384  12.842
96969W        W65332  43.439  10.317  11.403
96970W        W65333  18.718  12.706   1.384
96971W        W65334  22.515   7.738   2.383
96972W        W65335  41.873  26.122   1.418
96973W        W65336  32.101  10.230   5.153
96974W        W65337  17.174  41.008  11.092
96975W        W65338  21.660  16.128  14.857
96976W        W65339  40.359  36.487   0.257
96977W        W65340  25.053  41.822   2.309
96978W        W65341  40.461  32.527  13.865
96979W        W65342   7.289   3.945  11.119
96980W        W65343   9.702  39.424  13.964
96981W        W65344  27.950  22.727  11.011
96982W        W65345  23.649   4.281  12.096
96983W        W65346  33.487  23.651   2.396
96984W        W65347  14.687  22.175   2.666
96985W        W65348   4.796  37.382   4.264
96986W        W65349  21.170  16.672  13.531
96987W        W65350  40.335  21.135   5.238
96988W        W65351  24.579  26.596  11.488
96989W        W65352  32.423   3.239  13.796
96990W        W65353  37.535  36.991   4.146
96991W        W65354   3.920   6.277   3.340
96992W        W65355  18.059  13.662   4.329
96993W        W65356  21.626  24.196   0.469
96994W        W65357  11.650  22.597  10.431
96995W        W65358   1.340  35.528  12.344
96996W        W65359   8.261  13.600   3.181
96997W        W65360  28.949  40.962  13.325
96998W        W65361  21.627   3.230   1.925
96999W        W65362  27.107   5.325  12.972
97000W        W65363  43.849  38.866   2.404
97001W        W65364  41.384  40.855   2.352
97002W        W65365  17.703  33.486  12.881
97003W        W65366  16.111   1.433   2.719
97004W        W65367  20.764   9.246   3.208
97005W        W65368  32.076  22.519   2.671
97006W        W65369  21.581  30.419   1.864
97007W        W65370  36.846  37.518  13.342
97008W        W65371  20.753  11.143   3.675
97009W        W65372  31.032  39.478   4.249
97010W        W65373  31.937   3.712  12.482
97011W        W65374   5.280  23.665   0.798
97012W        W65375  12.659  11.225   4.128
97013W        W65376   9.821  43.954  11.528
97014W        W65377  23.594  43.016   5.206
97015W        W65378  41.318   7.215   2.255
97016W        W65379  43.354  14.106   0.762
97017W        W65380  43.883   8.724   0.297
97018W        W65381  27.625  38.031  11.514
97019W        W65382   7.368  10.694  11.909
97020W        W65383  18.168  42.361  12.869
97021W        W65384   3.405  25.209   4.134
97022W        W65385  31.546  31.518   2.346
97023W        W65386  21.054  36.915   0.436
97024W        W65387  44.841  29.518  12.999
97025W        W65388  27.174  23.715  10.510
97026W        W65389  17.799  31.089  13.892
97027W        W65390  22.188  22.116  12.905
97028W        W65391  31.513   6.740   0.400
97029W        W65392  21.108   6.414   0.959
97030W        W65393   1.325  27.516   2.331
97031W        W65394  26.615  13.633  13.440
97032W        W65395  15.123  39.053  13.820
97033W        W65396   8.833  37.363   0.347
97034W        W65397   4.919  13.708   0.877
97035W        W65398   4.892  32.579   1.312
97036W        W65399  36.564   2.817  14.919
97037W        W65400   2.384  27.960  10.505
97038W        W65401  12.358   1.741  14.775
97039W        W65402  30.996  38.428   3.205
97040W        W65403  12.354  16.197   4.607
97041W        W65404  15.719  37.489  13.430
97042W        W65405  33.108   7.778  12.027
97043W        W65406   6.822  26.573   2.335
97044W        W65407  19.730  43.311   2.675
97045W        W65408  22.101  43.011  11.044
97046W        W65409  32.015   8.874   4.114
97047W        W65410  24.581  24.144  12.494
97048W        W65411  28.144  21.574  11.042
97049W        W65412  37.036  34.520   1.295
97050W        W65413  29.017  20.163   2.775
97051W        W65414  42.795  10.713   0.907
97052W        W65415   0.975  27.555   0.308
97053W        W65416  24.036  35.958  13.852
97054W        W65417  21.133   5.718  12.870
97055W        W65418  41.350  26.628   2.373
97056W        W65419  25.158  18.169   2.795
97057W        W65420  16.227  41.016  13.322
97058W        W65421  16.572  18.145  10.991
97059W        W65422  20.139  36.485  12.051
97060W        W65423   9.843  38.328   0.856
97061W        W65424   3.920  43.443   5.684
97062W        W65425   7.893  31.022  12.016
97063W        W65426  22.154  18.706   1.239
97064W        W65427  40.545  15.696   2.790
97065W        W65428   2.385   2.812  12.050
97066W        W65429  12.250  14.142  12.483
97067W        W65430  12.736   0.312   4.277
97068W        W65431   5.220  17.200  14.496
97069W        W65432  24.090  12.315  11.414
97070W        W65433  26.536  14.729   5.172
97071W        W65434  44.885  43.340  11.547
97072W        W65435   0.367  37.870  14.799
97073W        W65436  30.430   7.325   0.476
97074W        W65437  33.923   4.874  10.495
97075W        W65438   9.293  39.957  10.511
97076W        W65439  20.077  31.125   2.390
97077W        W65440  15.623  19.270  12.398
97078W        W65441  17.094  41.381   0.414
97079W        W65442  11.284  12.335   1.735
97080W        W65443  12.286  20.722   1.866
97081W        W65444  21.157  37.848   3.868
97082W        W65445   5.265   6.824   1.330
97083W        W65446   8.747  27.158   1.319
97084W        W65447   4.833   9.268   1.785
97085W        W65448  33.951  10.634   0.875
97086W        W65449   4.209  22.187   4.722
97087W        W65450  42.415  19.668  10.553
97088W        W65451   0.797  13.233   1.704
97089W        W65452  31.479  31.027  12.364
97090W        W65453  22.046  16.570   0.402
97091W        W65454  32.964   2.867   3.694
97092W        W65455  11.364  10.240  14.295
97093W        W65456  15.307  31.632   2.673
97094W        W65457  37.890  20.110  11.595
97095W        W65458  38.828  36.852  14.958
97096W        W65459  35.982  24.562  10.470
97097W        W65460  22.216   7.403   2.387
97098W        W65461  36.454  39.844   1.694
97099W        W65462  41.305  15.614   1.831
97100W        W65463   1.747  40.410  11.083
97101W        W65464  33.601   5.419  11.881
97102W        W65465  21.601  21.173  14.979
97103W        W65466  27.100  24.086  13.462
97104W        W65467  26.555  26.989  11.401
97105W        W65468   9.686  18.662  14.382
97106W        W65469  36.495  40.868   4.651
97107W        W65470  33.091  28.010   2.739
97108W        W65471   2.917  41.032   0.478
97109W        W65472  36.877  27.577  11.976
97110W        W65473  24.196   1.463  10.517
97111W        W65474   4.288  14.327  14.763
97112W        W65475   2.348  18.171  12.039
97113W        W65476  44.357  29.045   1.720
97114W        W65477  40.426  14.212  11.939
97115W        W65478   2.393  36.952   1.715
97116W        W65479  30.431  38.077   3.210
97117W        W65480  43.374   7.395   1.387
97118W        W65481  19.205   1.753   1.713
97119W        W65482  13.237  23.586   9.961
97120W        W65483  35.036  29.502   5.250
97121W        W65484  38.966   9.702  13.429
97122W        W65485   6.208  42.392   4.285
97123W        W65486  43.872  27.513   1.803
97124W        W65487  14.648  18.180   2.691
97125W        W65488  42.917  32.026  14.864
97126W        W65489  44.992  23.181  11.972
97127W        W65490  39.866  12.736   1.766
97128W        W65491  15.690  39.904  12.024
97129W        W65492   3.718  22.559   0.967
97130W        W65493  44.436  11.255   1.407
97131W        W65494  34.055  24.019   2.220
97132W        W65495  31.511   2.370   5.244
97133W        W65496   2.774  36.872   0.284
97134W        W65497  41.993  35.458   0.458
97135W        W65498  19.049  42.301   2.722
97136W        W65499  39.982  43.794   1.251
97137W        W65500  32.974  37.015   4.260
97138W        W65501  30.568  36.847  11.501
97139W        W65502  27.162  23.238  12.555
97140W        W65503  32.140  38.509  11.479
97141W        W65504  29.463  43.365  13.797
97142W        W65505   7.852  30.117  11.398
97143W        W65506  17.218   6.736   0.394
97144W        W65507   9.320  20.145  10.963
97145W        W65508   3.416  32.940   0.736
97146W        W65509  38.376  29.526  14.011
97147W        W65510  12.719  32.908   4.745
97148W        W65511  37.432  21.652   0.474
97149W        W65512  18.780  14.211  11.082
97150W        W65513  22.063  15.204  11.396
97151W        W65514   3.372  37.460  10.019
97152W        W65515  24.553   9.728   1.317
97153W        W65516   9.241  23.026   4.810
97154W        W65517  26.149   4.415  14.955
97155W        W65518  34.504  33.923   4.711
97156W        W65519  41.964  22.514   4.328
97157W        W65520  28.478  12.813  11.961
97158W        W65521  38.843  19.172  10.433
97159W        W65522   7.874  17.206  12.033
97160W        W65523  30.917  15.269  13.405
97161W        W65524  29.574   9.766   0.750
97162W        W65525  19.042  41.520   2.285
97163W        W65526  30.044  21.547   1.422
97164W        W65527  17.080  43.314   4.778
97165W        W65528  12.728  23.651   2.787
97166W        W65529  16.094  31.983   3.710
97167W        W65530  43.438  27.954  12.542
97168W        W65531  21.602  29.603  13.895
97169W        W65532  34.536   8.764   4.238
97170W        W65533  42.833   8.295   3.211
97171W        W65534  36.021  19.076   2.691
97172W        W65535  30.057  13.229  11.515
97173W        W65536  25.182  13.794  12.387
97174W        W65537  10.702   7.746   1.815
97175W        W65538   1.873  18.640  11.600
97176W        W65539  30.471  15.749   4.745
97177W        W65540  11.674  29.456  14.787
97178W        W65541  25.607   8.667  14.781
97179W        W65542  31.405  17.790   4.656
97180W        W65543  31.119  24.572  11.440
97181W        W65544  14.132  16.198   1.738
97182W        W65545  29.985  10.690  11.884
97183W        W65546   7.699  25.518  10.512
97184W        W65547   9.382  10.770   4.240
97185W        W65548   4.933   3.839  12.890
97186W        W65549  41.311  25.215   4.293
97187W        W65550   3.870  15.269   0.955
97188W        W65551  16.222  18.617   0.905
97189W        W65552  25.996   7.267  13.346
97190W        W65553  43.974  38.538  12.058
97191W        W65554  10.786  14.333  14.955
97192W        W65555  10.751   0.415  12.943
97193W        W65556  23.986  35.983  11.415
97194W        W65557  18.161  15.265  14.299
97195W        W65558   8.790   7.379  11.865
97196W        W65559  29.550  17.284   4.811
97197W        W65560  33.110  17.297  11.444
97198W        W65561  14.188  10.210   4.257
97199W        W65562  42.519   4.213  10.471
97200W        W65563  32.013  40.384  11.380
97201W        W65564  10.227  16.786  14.858
97202W        W65565  21.693  13.268   0.933
97203W        W65566  22.515  18.631  11.428
97204W        W65567  40.508  30.016   2.319
97205W        W65568  21.048  40.483  11.863
97206W        W65569  29.054   4.773  13.929
97207W        W65570  12.799  39.934  10.489
97208W        W65571   3.820  30.953  12.068
97209W        W65572   2.886  17.750  14.407
97210W        W65573  22.584   2.363  13.381
97211W        W65574   8.309  16.104  11.889
97212W        W65575  29.644  38.549   3.705
97213W        W65576  22.226  21.187   4.185
97214W        W65577  18.142  33.063  14.879
97215W        W65578  28.499   4.806   3.335
97216W        W65579  28.078  14.753   0.379
97217W        W65580  11.345  28.521   2.744
97218W        W65581  28.008   3.713  12.418
97219W        W65582  37.552  18.276  12.361
97220W        W65583  11.350  39.854   3.147
97221W        W65584   4.924  15.124  12.552
97222W        W65585   4.292  15.631  13.512
97223W        W65586  27.676  10.339   4.830
97224W        W65587  25.638  41.977  13.035
97225W        W65588  44.940  27.955   1.343
97226W        W65589  15.215  44.266  10.970
97227W        W65590  16.700  25.519  13.497
97228W        W65591  33.502  40.370  13.308
97229W        W65592  18.137   5.438   3.178
97230W        W65593  43.487  19.584  13.474
97231W        W65594  43.862  32.543  14.026
97232W        W65595  26.695   2.804   2.198
97233W        W65596  14.621   5.930  12.855
97234W        W65597   8.830  27.661  12.345
97235W        W65598   0.820  35.097   2.701
97236W        W65599  16.697  19.649   4.256
97237W        W65600  10.707   1.972   1.340
97238W        W65601   3.424  42.936   5.176
97239W        W65602  39.461  24.988   2.206
97240W        W65603   2.899  32.495   4.801
97241W        W65604  26.638  28.521   2.813
97242W        W65605   0.393   7.793  13.063
97243W        W65606   7.665  34.884  12.481
97244W        W65607  44.884  22.740  13.398
97245W        W65608  17.708  26.959   3.664
97246W        W65609  31.137  44.842  13.346
97247W        W65610  31.453  36.571  13.012
97248W        W65611  36.082   2.322   4.240
97249W        W65612  25.204  33.569  11.048
97250W        W65613  17.599   4.757  11.572
97251W        W65614  43.296  14.158   3.836
97252W        W65615  15.133  38.337   2.404
97253W        W65616   2.370  24.979   4.272
97254W        W65617  30.114   8.340   2.819
97255W        W65618  16.214  11.194  12.444
97256W        W65619  34.119  13.212  10.644
97257W        W65620  34.444  38.518  13.368
97258W        W65621  14.262   9.309   2.207
97259W        W65622  27.106  18.782   0.454
97260W        W65623  24.613  36.937   0.261
97261W        W65624   9.198  21.148   9.962
97262W        W65625  32.493  41.952  10.544
97263W        W65626  39.353   7.757   1.273
97264W        W65627  18.646   1.443   1.920
97265W        W65628  41.804   2.877   1.896
97266W        W65629  37.980  24.214   4.678
97267W        W65630   3.841  33.967  11.965
97268W        W65631  36.012  14.300  12.383
97269W        W65632  32.405   1.312   3.733
97270W        W65633  20.117  32.459   4.202
97271W        W65634  39.408  17.590  13.377
97272W        W65635  10.158  11.660   3.861
97273W        W65636  21.755  23.106  13.983
97274W        W65637   9.872  22.633   3.856
97275W        W65638  24.112  44.902   3.333
97276W        W65639  40.805   8.897  13.869
97277W        W65640  35.095   4.392   1.451
97278W        W65641  35.387   7.398  14.390
97279W        W65642  35.530  22.562  10.911
97280W        W65643  36.068  34.421  13.393
97281W        W65644  30.994  29.483   1.887
97282W        W65645  43.478  27.607  11.863
97283W        W65646  41.880  19.627   0.270
97284W        W65647  33.016  29.991   0.299
97285W        W65648   6.859  43.776  12.438
97286W        W65649   2.424  23.130   5.257
97287W        W65650  30.448  17.109   4.263
97288W        W65651  31.491  21.129   2.664
97289W        W65652  22.720  15.706  11.384
97290W        W65653   3.789  29.944   3.342
97291W        W65654  20.640  18.603   3.639
97292W        W65655   0.488  20.764   4.744
97293W        W65656  36.544  10.662   0.380
97294W        W65657   1.403  28.490   0.443
97295W        W65658  34.448  27.614  12.420
97296W        W65659  11.265   2.903  12.577
97297W        W65660  24.626  21.103   3.165
97298W        W65661   2.940  25.124  13.315
97299W        W65662  41.405  34.572  10.513
97300W        W65663  18.595  22.728   0.370
97301W        W65664  31.503  31.046   3.175
97302W        W65665  10.767   6.701  11.025
97303W        W65666  37.454   3.394  10.916
97304W        W65667  41.909  39.351  14.933
97305W        W65668  20.270  21.068   0.256
97306W        W65669  20.064  18.256   1.761
97307W        W65670  12.730  21.701   3.225
97308W        W65671  33.015  24.006  12.536
97309W        W65672  27.577   1.756  13.501
97310W        W65673  27.100   5.233  12.484
97311W        W65674  39.500  41.327  14.460
97312W        W65675  41.024   2.264  12.957
97313W        W65676  21.601   1.420   3.334
97314W        W65677  21.638  40.305   4.274
97315W        W65678  32.059  13.625   3.862
97316W        W65679  11.642  40.449   5.197
97317W        W65680  17.176   2.796  10.457
97318W        W65681  42.815   2.818  12.003
97319W        W65682   5.250  26.646  13.356
97320W        W65683  16.727  39.933   2.254
97321W        W65684  39.976   6.268  12.064
97322W        W65685  23.716  41.836   2.325
97323W        W65686   9.254  28.588   3.760
97324W        W65687  22.736  32.027   3.809
97325W        W65688  14.290   9.307  12.002
97326W        W65689  25.086  16.194   3.808
97327W        W65690  14.669   8.812  11.603
97328W        W65691  35.070  30.937  12.392
97329W        W65692  23.164  12.282   3.732
97330W        W65693  19.682  14.775  14.391
97331W        W65694  43.289  26.508  12.024
97332W        W65695  40.466   8.333  12.823
97333W        W65696  24.674   7.258  10.588
97334W        W65697   1.968  18.723   4.622
97335W        W65698   4.750  35.546   0.333
97336W        W65699  24.485  41.818  14.898
97337W        W65700  28.609  30.101   4.830
97338W        W65701  31.611  40.549   4.782
97339W        W65702  17.208   5.311  10.635
97340W        W65703  33.898  35.037  12.917
97341W        W65704  12.622  14.339  13.357
97342W        W65705  25.074  43.007  10.041
97343W        W65706  18.101  30.958   1.326
97344W        W65707   2.313  26.024  10.576
97345W        W65708  41.794  44.845  13.525
97346W        W65709  42.364   6.884  12.416
97347W        W65710  19.046  27.491  11.882
97348W        W65711  12.298  37.836   4.242
97349W        W65712   8.662  21.107   0.299
97350W        W65713   0.864  34.439   3.764
97351W        W65714  25.153  18.208  11.589
97352W        W65715  10.776  10.156  12.376
97353W        W65716  41.361   0.318   3.291
97354W        W65717  27.988   6.845   2.824
97355W        W65718  10.214  38.017   1.305
97356W        W65719  26.682  35.441   0.449
97357W        W65720  12.726   0.479  13.534
97358W        W65721  20.123   2.386  13.504
97359W        W65722   3.922   3.303   0.848
97360W        W65723  24.030   0.985  11.909
97361W        W65724   5.261  17.284  10.105
97362W        W65725  25.027  39.556  10.455
97363W        W65726  43.872  26.687  13.056
97364W        W65727  31.494  27.542   0.847
97365W        W65728  25.999  37.887   2.894
97366W        W65729  29.542  24.089   0.851
97367W        W65730  29.637  40.842  13.452
97368W        W65731  27.573  35.998  12.359
97369W        W65732  36.515  27.975  11.990
97370W        W65733  27.640  41.027   0.877
97371W        W65734   3.889  33.944   1.423
97372W        W65735  21.107   6.333  11.085
97373W        W65736   7.773  44.407  13.025
97374W        W65737  32.093  33.909  10.429
97375W        W65738  35.366  33.536  12.956
97376W        W65739  12.163   8.822   4.790
97377W        W65740  12.285  13.335   0.887
97378W        W65741  20.112  13.841  12.039
97379W        W65742  11.799  26.588   9.940
97380W        W65743  33.514   8.741   4.685
97381W        W65744  25.980  43.304   0.825
97382W        W65745   7.232  12.817   3.271
97383W        W65746  19.633  31.124   1.430
97384W        W65747  17.171  29.978  13.533
97385W        W65748  39.893  37.530  10.642
97386W        W65749  38.332  11.278  14.892
97387W        W65750  40.030  23.019   4.212
97388W        W65751  14.752  13.105  11.434
97389W        W65752   8.679  26.534  13.058
97390W        W65753  35.905   0.876  10.999
97391W        W65754  34.027  31.570   0.322
97392W        W65755   4.818  38.536   0.473
97393W        W65756  17.166  27.623  13.425
97394W        W65757  37.375  22.661  14.326
97395W        W65758   0.372  40.509   3.276
97396W        W65759   4.937  11.767  12.922
97397W        W65760   5.399   7.293   4.168
97398W        W65761   2.767   3.402   4.307
97399W        W65762  19.069  23.153   0.951
97400W        W65763  36.348  36.097  12.466
97401W        W65764  16.750  43.308  12.933
97402W        W65765   9.815  10.194   2.740
97403W        W65766  20.756  17.618  12.562
97404W        W65767  33.945  23.557  14.475
97405W        W65768   2.724  35.415  13.348
97406W        W65769  36.864  12.345   0.748
97407W        W65770  29.070  38.926  11.970
97408W        W65771  20.698  26.083   4.665
97409W        W65772  33.491  19.151  13.325
97410W        W65773  10.221  12.213   1.812
97411W        W65774   3.226  42.965   3.369
97412W        W65775   2.811  16.634  14.476
97413W        W65776   8.869  17.215   3.841
97414W        W65777  20.744  11.291   2.308
97415W        W65778   3.382  27.111  12.563
97416W        W65779  29.550  23.097   2.836
97417W        W65780  10.800  10.238  11.479
97418W        W65781  14.743  16.190   1.733
97419W        W65782   4.223  30.951  14.502
97420W        W65783  20.559  16.301   3.328
97421W        W65784  13.824  25.126  10.619
97422W        W65785  31.902   7.187  12.023
97423W        W65786  37.491   4.441   3.844
97424W        W65787  15.623  21.677  11.594
97425W        W65788   7.830  20.547  11.008
97426W        W65789  14.099  10.790   0.940
97427W        W65790  24.020  19.157   3.770
97428W        W65791  14.194  26.699   4.153
97429W        W65792   2.352  26.521   0.250
97430W        W65793   0.852  15.780   0.381
97431W        W65794   0.309  27.139   4.784
97432W        W65795   4.355   4.246  12.492
97433W        W65796   3.291  10.374  10.985
97434W        W65797   0.489  12.621   0.936
97435W        W65798  39.993  18.622   1.851
97436W        W65799  22.632  23.024  13.931
97437W        W65800  14.590  38.954  14.782
97438W        W65801  44.903  14.667   2.887
97439W        W65802  32.411   5.308  11.588
97440W        W65803  39.023   7.778   0.406
97441W        W65804  27.609  38.965   1.317
97442W        W65805   9.708  44.390   1.387
97443W        W65806  29.566   1.928  13.026
97444W        W65807  16.711   4.264   0.471
97445W        W65808  24.116   3.845  11.045
97446W        W65809  17.222  38.912   3.674
97447W        W65810  36.964  25.076  11.594
97448W        W65811  44.301  27.529   0.433
97449W        W65812   4.842  13.667   2.279
97450W        W65813  24.057  23.028  14.823
97451W        W65814  40.451   2.757   3.699
97452W        W65815  28.185  31.546  10.539
97453W        W65816  43.863  25.170  10.997
97454W        W65817   1.293   5.210   1.705
97455W        W65818  13.739   7.890   1.815
97456W        W65819  34.447   5.334  11.945
97457W        W65820   8.887  28.055  11.435
97458W        W65821  22.251  32.468   4.170
97459W        W65822  42.014  32.901  13.427
97460W        W65823  22.602   2.813  14.990
97461W        W65824  24.201  11.829   4.204
97462W        W65825  17.135  22.068  11.895
97463W        W65826  42.852  24.668  11.412
97464W        W65827  40.825  33.530  13.913
97465W        W65828  25.211  11.146  13.539
97466W        W65829   0.270  12.637  13.419
97467W        W65830   6.186   5.745   2.202
97468W        W65831  17.104  44.992   4.212
97469W        W65832  41.366  33.004   0.828
97470W        W65833  38.371   6.698  13.054
97471W        W65834  10.369   4.909   3.715
97472W        W65835  18.135   3.367  12.401
97473W        W65836  25.143  42.794   2.664
97474W        W65837  33.525  35.972  14.848
97475W        W65838  17.306  12.707   2.836
97476W        W65839   6.393   6.194  12.014
97477W        W65840  30.984   5.726  10.930
97478W        W65841  21.615  38.825   2.382
97479W        W65842  14.614   5.890   5.131
97480W        W65843  22.626  35.379  14.463
97481W        W65844  36.407  23.065   1.902
97482W        W65845   1.327  19.575   4.189
97483W        W65846  12.760   7.411   2.685
97484W        W65847  41.923  43.979  12.901
97485W        W65848  41.435  25.218  12.491
97486W        W65849   2.264  41.343  12.371
97487W        W65850  16.240  32.914   0.347
97488W        W65851   1.811  41.916  12.474
97489W        W65852  30.535  18.747  14.794
97490W        W65853  32.999  15.606   2.259
97491W        W65854  18.674  17.180  10.422
97492W        W65855  11.706  38.933  12.966
97493W        W65856  35.472  14.781  14.346
97494W        W65857  26.986   0.843   1.772
97495W        W65858   3.227  43.303   1.234
97496W        W65859  23.719   8.385  12.902
97497W        W65860  42.820   1.282   0.312
97498W        W65861  23.729  20.566   3.710
97499W        W65862   3.450   0.941  10.629
97500W        W65863  17.716  13.154  11.912
97501W        W65864  35.432  16.809  14.800
97502W        W65865   5.900  11.291  11.923
97503W        W65866   1.920   0.459   5.114
97504W        W65867  33.472  13.609   1.349
97505W        W65868  22.085  13.601  13.027
97506W        W65869  10.140  36.451   2.867
97507W        W65870  19.238   3.719   4.278
97508W        W65871  31.079  40.910  13.394
97509W        W65872  27.091  43.459  10.935
97510W        W65873  38.382  29.153   3.787
97511W        W65874  37.557  27.152   4.160
97512W        W65875  38.852  30.955   4.272
97513W        W65876  40.326  24.518   1.696
97514W        W65877  35.947  39.399  14.464
97515W        W65878  23.153   9.791  10.921
97516W        W65879  40.459  43.002   9.926
97517W        W65880  17.578  15.111  12.973
97518W        W65881  25.704   6.184   0.813
97519W        W65882  26.556  34.598   0.951
97520W        W65883  27.469   5.749  14.935
97521W        W65884  28.457   3.440   9.987
97522W        W65885  30.546  10.867   3.314
97523W        W65886  16.607   0.482   1.347
97524W        W65887  23.037  34.119  12.886
97525W        W65888   4.276  15.786   3.702
97526W        W65889  31.084  18.691   2.775
97527W        W65890   2.908  18.103   1.429
97528W        W65891  10.337   3.449   4.247
97529W        W65892   8.769  22.075   4.611
97530W        W65893  28.168  10.171  14.908
97531W        W65894  25.185  44.345  12.909
97532W        W65895  40.993  24.705   2.309
97533W        W65896  27.467  25.540   2.266
97534W        W65897  35.038  14.685   0.896
97535W        W65898  32.045  11.865  10.567
97536W        W65899  20.655  12.155  10.980
97537W        W65900  37.361  36.995  12.067
97538W        W65901  21.063  20.197   3.695
97539W        W65902   6.736  41.342  10.899
97540W        W65903  34.090  43.343  13.428
97541W        W65904  35.025  19.124  10.963
97542W        W65905  42.330   3.396   3.666
97543W        W65906  43.017  23.006  13.952
97544W        W65907  32.889  19.723   1.374
97545W        W65908  40.405  23.041   0.953
97546W        W65909  25.588  35.907   3.680
97547W        W65910  42.786  11.205  13.903
97548W        W65911  29.105  36.559  12.835
97549W        W65912  14.761  10.223  11.603
97550W        W65913  21.134  19.115  12.475
97551W        W65914  20.239   0.873   1.877
97552W        W65915  24.631  19.641  14.452
97553W        W65916  15.726  16.646  10.089
97554W        W65917   5.875  27.591   3.823
97555W        W65918  29.578  30.548   3.637
97556W        W65919  44.437  11.135   4.695
97557W        W65920  43.894  14.726  10.581
97558W        W65921  28.507  37.888   3.774
97559W        W65922   1.905   3.327   0.826
97560W        W65923  33.042  10.158   2.741
97561W        W65924  22.621  21.027   0.925
97562W        W65925  32.486  32.042  10.550
97563W        W65926  39.495   6.882  12.486
97564W        W65927  25.165  43.924  11.881
97565W        W65928  34.560  12.153   2.251
97566W        W65929  12.212  39.334  10.470
97567W        W65930  41.881  35.995   4.264
97568W        W65931  40.802  43.768   3.854
97569W        W65932   4.408   0.271   4.254
97570W        W65933   8.709  44.932  14.362
97571W        W65934   1.948  26.118   2.861
97572W        W65935  19.250  13.322  12.928
97573W        W65936   9.272  42.518   1.798
97574W        W65937  32.446  17.241  12.060
97575W        W65938  38.379  38.479  14.794
97576W        W65939  40.435  17.081  14.332
97577W        W65940  16.291  12.654  13.338
97578W        W65941  16.089  22.194  12.961
97579W        W65942   7.845  30.591  13.307
97580W        W65943  31.961   2.235   5.298
97581W        W65944  27.952  34.531  11.120
97582W        W65945  24.516  40.889   1.839
97583W        W65946  18.594  19.756  12.831
97584W        W65947  17.702  33.499  14.441
97585W        W65948   3.746  15.256  14.474
97586W        W65949  36.871   4.366   4.828
97587W        W65950  14.783  17.691   9.997
97588W        W65951  42.933  37.084   0.336
97589W        W65952  22.197  12.731  14.276
97590W        W65953  32.949  22.095  11.108
97591W        W65954  43.407  26.069  14.325
97592W        W65955   7.791  17.575  11.386
97593W        W65956  22.167  22.139   2.903
97594W        W65957   6.231  44.431  12.841
97595W        W65958  23.094  33.977  13.845
97596W        W65959   2.874  42.475  10.642
97597W        W65960  44.328  17.223   4.283
97598W        W65961  39.019  29.045   1.345
97599W        W65962   9.172  22.126   1.236
97600W        W65963  23.212   8.707  13.913
97601W        W65964   8.399  22.091   3.275
97602W        W65965   8.891   4.440  14.458
97603W        W65966  36.552  11.729   3.731
97604W        W65967  18.626  44.461   5.273
97605W        W65968  20.712  32.566  10.455
97606W        W65969  13.124   7.319  13.940
97607W        W65970  14.229  44.461  10.912
97608W        W65971   5.253  16.270   4.761
97609W        W65972   1.290   7.353  14.320
97610W        W65973  23.137  13.276  11.520
97611W        W65974  41.318   9.757  12.554
97612W        W65975  40.925  34.417   1.725
97613W        W65976  43.832  20.096   1.382
97614W        W65977  38.511  25.610  11.925
97615W        W65978  20.527   9.176  12.979
97616W        W65979  16.771   1.878  13.954
97617W        W65980  22.720  32.948  13.920
97618W        W65981  39.809  26.665  11.506
97619W        W65982  42.300   9.276  13.009
97620W        W65983   8.853   5.756  10.896
97621W        W65984  36.076   4.289  14.354
97622W        W65985  15.236  35.580   0.900
97623W        W65986  22.195   4.870  13.385
97624W        W65987  14.799   0.484   2.893
97625W        W65988   1.460  28.442  11.541
97626W        W65989  32.113  31.631  14.016
97627W        W65990  35.362  16.646  14.474
97628W        W65991  42.820  22.607  13.472
97629W        W65992  32.475   6.344  13.321
97630W        W65993  28.017  11.643  12.445
97631W        W65994  32.457  31.455   2.217
97632W        W65995  26.637  23.626  11.124
97633W        W65996  40.521  11.778   3.814
97634W        W65997   9.682  36.547   3.279
97635W        W65998  37.405  26.206   1.447
97636W        W65999  37.550  10.665  11.109
97637W        W66000   3.415  33.623  11.088
97638W        W66001   2.964  39.938   3.824
97639W        W66002   6.208   7.240  12.097
97640W        W66003  11.236  29.638  12.515
97641W        W66004  36.943  11.664   2.705
97642W        W66005   9.189  29.534  14.957
97643W        W66006  26.687  14.822   3.286
97644W        W66007  35.865  28.626   3.789
97645W        W66008  38.906   1.420  14.980
97646W        W66009  36.027  44.876   0.843
97647W        W66010  33.934  33.977   0.400
97648W        W66011  15.694  43.400   2.359
97649W        W66012  40.975   0.758   1.795
97650W        W66013  40.932  37.429  12.495
97651W        W66014  20.711  19.742   2.359
97652W        W66015  30.414  18.058   4.292
97653W        W66016  20.200  40.417  14.767
97654W        W66017  25.686  38.399  14.312
97655W        W66018  15.771   6.395   0.747
97656W        W66019  39.506  11.794   5.149
97657W        W66020  12.854  22.577   4.707
97658W        W66021  14.597  27.075   1.211
97659W        W66022  32.588   1.434   5.644
97660W        W66023  39.005  44.469   3.379
97661W        W66024  34.569  39.048   4.120
97662W        W66025  11.216  41.881   1.745
97663W        W66026   2.809   7.894   3.291
97664W        W66027   6.753  23.732  11.998
97665W        W66028  26.652  32.003  12.946
97666W        W66029   6.207  27.531  14.917
97667W        W66030  20.235   4.425  13.366
97668W        W66031  40.424  13.180  12.371
97669W        W66032  32.006  30.997   1.763
97670W        W66033  39.471   1.736   1.888
97671W        W66034  21.064  36.422   2.757
97672W        W66035  42.484  27.183  12.052
97673W        W66036  11.255  15.690  11.421
97674W        W66037   0.493  39.842  10.460
97675W        W66038  16.294   6.209   1.766
97676W        W66039  13.653  19.118  13.516
97677W        W66040  38.009  34.116  13.996
97678W        W66041  41.912  38.069   1.357
97679W        W66042  13.296  40.370   3.842
97680W        W66043  18.222  29.433   0.399
97681W        W66044  24.557   4.361  14.309
97682W        W66045   9.686  25.673  14.423
97683W        W66046   3.722  29.555  10.966
97684W        W66047   1.402  40.351   1.357
97685W        W66048  21.720  39.878  12.946
97686W        W66049  10.662  18.191  12.417
97687W        W66050  40.461  18.222   3.234
97688W        W66051   5.427  41.402   1.413
97689W        W66052  17.648   9.757  12.043
97690W        W66053  39.997  30.621  11.952
97691W        W66054  36.062  43.503   2.312
97692W        W66055  41.996  39.440   4.194
97693W        W66056  34.540   8.668   4.810
97694W        W66057  43.932  27.007   4.809
97695W        W66058   2.235  25.578   1.851
97696W        W66059   2.363   0.260   9.447
97697W        W66060  25.483  35.013  13.528
97698W        W66061  26.151  20.221   2.756
97699W        W66062  13.638  42.388  13.843
97700W        W66063   4.238  18.210   1.317
97701W        W66064   0.419  40.473   4.164
97702W        W66065  31.933   0.869  10.036
97703W        W66066   3.421  16.295  10.414
97704W        W66067  17.703   8.723  13.363
97705W        W66068   9.296   2.403  11.934
97706W        W66069  37.031  14.834  13.944
97707W        W66070  12.792  43.387  11.504
97708W        W66071  40.856  37.009   3.835
97709W        W66072  15.206  24.676  12.010
97710W        W66073  44.770   3.710  10.593
97711W        W66074  33.412  41.497   5.315
97712W        W66075  14.330  18.562   2.829
97713W        W66076  44.323  20.623  13.977
97714W        W66077  31.535  37.885   2.684
97715W        W66078  13.823  22.110  10.453
97716W        W66079  19.629  38.906   0.381
97717W        W66080  35.998  38.396   1.809
97718W        W66081  39.367  43.271  12.955
97719W        W66082  24.037   3.711   0.464
97720W        W66083  20.643  38.820  10.892
97721W        W66084  36.529  29.157   4.177
97722W        W66085   9.733  40.408  12.069
97723W        W66086   0.789  36.055   1.231
97724W        W66087   4.749   9.682   1.698
97725W        W66088  13.647  30.432   3.693
97726W        W66089  12.758  27.643   2.326
97727W        W66090  21.170  41.972  11.997
97728W        W66091  26.108  27.033  13.870
97729W        W66092  34.057   2.749   4.681
97730W        W66093   4.294   0.960  11.957
97731W        W66094  20.767  24.056  11.531
97732W        W66095   6.267   8.726   4.786
97733W        W66096  13.166   4.341   3.709
97734W        W66097  28.017  27.467   3.852
97735W        W66098  16.709  36.028   2.846
97736W        W66099  38.555  21.586  10.589
97737W        W66100  31.917  39.952  11.899
97738W        W66101  44.001  29.125   1.752
97739W        W66102  44.845  14.307   5.155
97740W        W66103  10.855  13.283   1.722
97741W        W66104   5.847  23.099  10.987
97742W        W66105  37.023  34.982   2.728
97743W        W66106  24.664  23.542   4.273
97744W        W66107   6.902  16.767   2.849
97745W        W66108  37.344  13.795   1.793
97746W        W66109  17.061  44.861   3.639
97747W        W66110  12.233  20.066   1.313
97748W        W66111   7.251  21.148  11.443
97749W        W66112  38.871  45.000   3.677
97750W        W66113  43.361  27.995  13.827
97751W        W66114  28.567   6.384   2.385
97752W        W66115  18.629  34.106  13.838
97753W        W66116  13.293  17.230   1.735
97754W        W66117  17.615  14.658   1.257
97755W        W66118  29.629  11.774  13.904
97756W        W66119  30.434  29.496   2.688
97757W        W66120  20.756  31.558   2.219
97758W        W66121  37.419  14.701   0.816
97759W        W66122   0.356  33.901   1.358
97760W        W66123  40.334  20.217   2.349
97761W        W66124  16.784  23.619  13.994
97762W        W66125  29.033  18.775  12.404
97763W        W66126  27.141  11.681  14.945
97764W        W66127  37.383  23.158   3.280
97765W        W66128  16.647   2.327   0.451
97766W        W66129  25.604  11.633   2.774
97767W        W66130   0.828  12.696  13.314
97768W        W66131  17.630  28.163  13.974
97769W        W66132  31.555  30.600  12.360
97770W        W66133  23.529  38.858   4.267
97771W        W66134  33.036   1.974   3.807
97772W        W66135  14.323  18.294  10.019
97773W        W66136  28.129  21.717  12.412
97774W        W66137  12.211  29.433   1.242
97775W        W66138  17.613   2.965  10.585
97776W        W66139   1.778  44.976  10.494
97777W        W66140  23.029  30.417  12.525
97778W        W66141  16.628   6.886   0.884
97779W        W66142  36.564  10.290  12.880
97780W        W66143   7.278   4.251  14.303
97781W        W66144  28.595   5.313  14.478
97782W        W66145  18.094   0.877   2.870
97783W        W66146  29.047  36.982   4.350
97784W        W66147  29.591   2.297   1.754
97785W        W66148  42.409  34.113  11.975
97786W        W66149  11.142   9.364   4.154
97787W        W66150   3.761   3.247  11.428
97788W        W66151   3.228   8.378  13.873
97789W        W66152  27.529  39.944  14.883
97790W        W66153  27.108   8.258  10.488
97791W        W66154  36.570  40.391  14.495
97792W        W66155  30.494  43.985  11.506
97793W        W66156   8.815  10.677  10.612
97794W        W66157  39.376   0.942  13.879
97795W        W66158  16.117   5.853   5.273
97796W        W66159  41.842  12.233   0.808
97797W        W66160  33.938  14.249   0.260
97798W        W66161  20.553  18.660   1.897
97799W        W66162   4.872   2.236  12.855
97800W        W66163  25.475  22.579  10.561
97801W        W66164  32.102  23.131  12.901
97802W        W66165   9.789  20.229   0.462
97803W        W66166  40.929  35.416   4.689
97804W        W66167  31.505   7.765  10.888
97805W        W66168  22.578  30.527   2.788
97806W        W66169  32.111  28.459  12.003
97807W        W66170   0.772  24.651  13.477
97808W        W66171   1.813  39.428  13.918
97809W        W66172  30.960  26.106  13.942
97810W        W66173   2.773  14.163  12.827
97811W        W66174  34.547   2.426   0.320
97812W        W66175  25.540  36.515  14.872
97813W        W66176  19.558  11.372  12.028
97814W        W66177   5.908  40.495  14.293
97815W        W66178  30.605  36.394   1.745
97816W        W66179  22.639  32.944  13.031
97817W        W66180  34.909  15.804  10.059
97818W        W66181  41.878   3.934   3.784
97819W        W66182   1.482  11.823  11.036
97820W        W66183  10.787  29.050   3.250
97821W        W66184   7.738  11.773  13.439
97822W        W66185  31.149  16.683  12.470
97823W        W66186  40.829  11.687  14.946
97824W        W66187   6.302  28.042  12.875
97825W        W66188  17.203   9.166   1.313
97826W        W66189  36.349  37.471  11.477
97827W        W66190  21.126  39.964   1.248
97828W        W66191  15.611  40.019  12.975
97829W        W66192   8.331  14.170   4.232
97830W        W66193  29.981   9.208  12.514
97831W        W66194  16.317  15.641  13.046
97832W        W66195   6.281  39.885   0.407
97833W        W66196   3.404  29.636   0.747
97834W        W66197  13.175   1.312  12.964
97835W        W66198  40.802  38.565  14.474
97836W        W66199  42.830   9.685  12.025
97837W        W66200  28.588  44.847   2.721
97838W        W66201  14.591  12.724   2.236
97839W        W66202  18.142   1.265   4.166
97840W        W66203   2.826   7.753  12.492
97841W        W66204  22.534  41.399  14.843
97842W        W66205  27.049  44.905   1.275
97843W        W66206  16.798  16.213   3.803
97844W        W66207  18.261  40.960  10.599
97845W        W66208  12.342   7.350   2.291
97846W        W66209  29.954  14.817  11.421
97847W        W66210  21.606  35.537  12.046
97848W        W66211  19.699  26.466  10.638
97849W        W66212  31.949   6.207  12.827
97850W        W66213  32.024  28.627  13.439
97851W        W66214   6.273   2.845   3.767
97852W        W66215  15.730  36.943   5.304
97853W        W66216   4.945  18.571   3.156
97854W        W66217   8.828  43.337  12.521
97855W        W66218  14.692  31.596   4.701
97856W        W66219  41.958  40.917  14.968
97857W        W66220   4.216  41.336   3.220
97858W        W66221  25.053  42.385   0.435
97859W        W66222  34.555   5.196   1.848
97860W        W66223   0.880  30.435  10.109
97861W        W66224  29.084   9.795  11.527
97862W        W66225   0.758  11.159  12.534
97863W        W66226  14.623  15.795   0.470
97864W        W66227   8.308  17.126  13.320
97865W        W66228  43.988  32.483  14.363
97866W        W66229  38.920   7.205   3.750
97867W        W66230   9.289  17.122   1.859
97868W        W66231   8.768  36.053  11.879
97869W        W66232  13.280  36.841  11.481
97870W        W66233  20.161  12.174   4.686
97871W        W66234  19.569  18.566   1.345
97872W        W66235  42.921  34.097  14.903
97873W        W66236  13.204   3.410  12.367
97874W        W66237  35.082   9.218  13.843
97875W        W66238   9.699  20.122   1.346
97876W        W66239  21.137  30.519   1.827
97877W        W66240   3.746  16.298  14.028
97878W        W66241   9.680  15.183   1.715
97879W        W66242   0.338  36.044  11.414
97880W        W66243   3.422  14.818   3.731
97881W        W66244  40.973  17.621  13.911
97882W        W66245   6.296   8.294   3.216
97883W        W66246  12.168  38.469  13.508
97884W        W66247  20.580  25.043   0.358
97885W        W66248  35.069  13.667  14.904
97886W        W66249  37.978  18.081  11.575
97887W        W66250  37.397  14.629   3.703
97888W        W66251  10.224  44.801   2.681
97889W        W66252   4.407  39.536   3.174
97890W        W66253  43.941  40.450   3.749
97891W        W66254  12.706   4.390   0.929
97892W        W66255  31.069  34.907  11.377
97893W        W66256  38.875  27.159  14.948
97894W        W66257  44.414  40.483  10.145
97895W        W66258  44.994  36.422  10.942
97896W        W66259  20.708   9.722   0.308
97897W        W66260  38.455  20.183  14.325
97898W        W66261  40.366  35.553  12.007
97899W        W66262  15.187  14.176  13.355
97900W        W66263   4.281  30.065   1.879
97901W        W66264   4.293  43.481  14.461
97902W        W66265  39.907  32.914  11.545
97903W        W66266   3.782  44.333   2.781
97904W        W66267  41.363  13.640  14.888
97905W        W66268  28.601  26.671   0.917
97906W        W66269  32.026  32.528   2.284
97907W        W66270  28.023  25.978   2.415
97908W        W66271  29.150  10.375   0.802
97909W        W66272  41.822  36.433   2.339
97910W        W66273  15.121  13.337  11.994
97911W        W66274  21.246  23.994   4.642
97912W        W66275  39.525  17.235  14.835
97913W        W66276   5.367  21.181   1.301
97914W        W66277  27.993   9.385  11.533
97915W        W66278  44.384   2.756   1.876
97916W        W66279  18.215  18.779   4.298
97917W        W66280  38.509  30.593  14.338
97918W        W66281  17.591   2.882   4.633
97919W        W66282  11.762  33.882   1.394
97920W        W66283  34.996  24.568  12.521
97921W        W66284  31.997   2.814  13.481
97922W        W66285   6.922  38.066   4.712
97923W        W66286  23.061  25.645   4.292
97924W        W66287  29.129  21.260   3.693
97925W        W66288   1.296  37.561   1.365
97926W        W66289  19.731  16.588  14.441
97927W        W66290  14.676  22.215   2.215
97928W        W66291  32.898   6.719   3.699
97929W        W66292   5.701  15.155   0.867
97930W        W66293  40.973  14.166  10.578
97931W        W66294  27.652  30.449   4.690
97932W        W66295  26.463  26.104  11.938
97933W        W66296  12.227   0.432  14.370
97934W        W66297  39.834  21.737   2.795
97935W        W66298  14.765  20.162   2.262
97936W        W66299   3.745  32.893   4.165
97937W        W66300  20.621   3.906   0.922
97938W        W66301  29.527   0.423   2.702
97939W        W66302  29.984   0.926   4.309
97940W        W66303  34.896  31.996   2.412
97941W        W66304  25.670  29.470   2.380
97942W        W66305  39.446   2.251  10.557
97943W        W66306  37.953  44.398  14.942
97944W        W66307  22.156   1.248  12.391
97945W        W66308   2.880   8.225  13.326
97946W        W66309   2.429   0.876   4.213
97947W        W66310  40.841  37.482   1.289
97948W        W66311  28.634   2.828   2.234
97949W        W66312  19.085  35.437   3.208
97950W        W66313  18.608  10.710   1.297
97951W        W66314   2.459   5.695   1.211
97952W        W66315  36.440  40.004   0.809
97953W        W66316  25.997  41.797   0.418
97954W        W66317  20.247   3.843  11.118
97955W        W66318  35.065  43.784  10.910
97956W        W66319  17.165  31.996   3.734
97957W        W66320   1.942  37.401   2.760
97958W        W66321  39.906  16.696  14.850
97959W        W66322   0.835  13.835   2.722
97960W        W66323  16.776  38.903  11.983
97961W        W66324  24.069  35.402  14.494
97962W        W66325  22.141  38.945  11.393
97963W        W66326  18.198  32.542  14.302
97964W        W66327   2.274  12.172   1.841
97965W        W66328  25.129  33.605  12.054
97966W        W66329   3.281  11.739   4.267
97967W        W66330  18.141  11.230  13.018
97968W        W66331  41.028  33.911  12.928
97969W        W66332  15.822   1.958  13.953
97970W        W66333  33.949  15.105   3.378
97971W        W66334  30.658  38.488  11.926
97972W        W66335  30.427  36.364   2.775
97973W        W66336  26.143  30.643  14.879
97974W        W66337  17.105  35.590  12.530
97975W        W66338   2.373  15.598   4.707
97976W        W66339  17.178  18.199   5.119
97977W        W66340  36.528   1.463  11.929
97978W        W66341  43.355  14.287   2.807
97979W        W66342   4.231   6.707   1.356
97980W        W66343  30.418  24.106   0.264
97981W        W66344  34.918  18.169   2.389
97982W        W66345  40.800  31.448  12.872
97983W        W66346  41.404  18.193   2.243
97984W        W66347  25.975  28.515   2.194
97985W        W66348   6.298  30.011   3.707
97986W        W66349  32.133  24.493  11.124
97987W        W66350  41.859  13.764   2.732
97988W        W66351  40.020  27.618  11.392
97989W        W66352  15.259  39.023   0.482
97990W        W66353  26.074  23.574  12.416
97991W        W66354  20.035  20.598  11.879
97992W        W66355   4.298  44.436  10.890
97993W        W66356  41.787  12.732  11.975
97994W        W66357  31.599  15.146   1.420
97995W        W66358  43.969   9.842  12.002
97996W        W66359  43.887  41.991   4.132
97997W        W66360  33.022  17.802   1.373
97998W        W66361   3.400  41.874   0.844
97999W        W66362  33.604  44.789  14.291
98000W        W66363   3.448  13.770  11.950
98001W        W66364   0.869   4.731  14.441
98002W        W66365   4.716  25.621  13.465
98003W        W66366  25.133  38.456   4.797
98004W        W66367  19.280  39.436   3.776
98005W        W66368  44.387  18.647   2.298
98006W        W66369   1.938  43.421   3.648
98007W        W66370  38.887   1.777   0.422
98008W        W66371  19.632  26.971   2.238
98009W        W66372  41.964  13.193   1.391
98010W        W66373   9.384  23.006  10.949
98011W        W66374  39.903   5.845   3.747
98012W        W66375   2.322  27.013  11.971
98013W        W66376  29.927  18.277  10.961
98014W        W66377  40.874  42.852  10.970
98015W        W66378  11.717  31.956   1.913
98016W        W66379  12.290  25.661  13.355
98017W        W66380   0.829  10.853  13.430
98018W        W66381  29.947  18.655   4.606
98019W        W66382   2.767  21.526   5.575
98020W        W66383  18.652  21.647   4.684
98021W        W66384   8.791  28.057   2.387
98022W        W66385  13.218  34.543  11.918
98023W        W66386  22.601  29.098  14.479
98024W        W66387  37.557  41.347   3.210
98025W        W66388  25.585  29.668   4.608
98026W        W66389  16.279   1.252  13.548
98027W        W66390   8.165   2.422  12.381
98028W        W66391  31.622   0.877   3.827
98029W        W66392   3.780  24.024  12.348
98030W        W66393  36.543  39.385   4.323
98031W        W66394  40.538  14.210   4.299
98032W        W66395  11.726  41.846   3.748
98033W        W66396  13.135  28.595  10.449
98034W        W66397  38.996  16.734  11.504
98035W        W66398  26.657  18.203   0.411
98036W        W66399  10.688  37.906  14.832
98037W        W66400  39.873  15.628   4.723
98038W        W66401   0.846  33.065  10.447
98039W        W66402   3.762   5.751   3.712
98040W        W66403  13.135  38.881   1.258
98041W        W66404  29.490   4.794  10.543
98042W        W66405  16.758  39.488   1.900
98043W        W66406  16.810  23.158  12.370
98044W        W66407  30.980  39.997   3.731
98045W        W66408   2.469  13.151  14.847
98046W        W66409  28.009  40.462  10.404
98047W        W66410  22.504  39.864  13.996
98048W        W66411   8.312  10.351  11.011
98049W        W66412  34.553  17.178  12.368
98050W        W66413  30.504  16.741  13.442
98051W        W66414  30.509  41.359   4.232
98052W        W66415   1.371   5.722  13.908
98053W        W66416   5.422  38.992   4.658
98054W        W66417  31.145  32.557  14.889
98055W        W66418  28.092  38.869  11.529
98056W        W66419   1.311  17.255   0.728
98057W        W66420  18.700   0.294   1.415
98058W        W66421   4.904   5.897  12.565
98059W        W66422  17.556  36.022   3.750
98060W        W66423  29.002   5.756  13.323
98061W        W66424  16.217  23.217  11.452
98062W        W66425  17.260  32.133  13.470
98063W        W66426  41.934  11.213  14.338
98064W        W66427  10.178   6.216   2.247
98065W        W66428  36.974  26.667  12.474
98066W        W66429   1.853  43.926  12.486
98067W        W66430  12.855  24.010  11.388
98068W        W66431  23.546   3.443   0.880
98069W        W66432  15.153  11.366  13.316
98070W        W66433  31.063   7.314  11.086
98071W        W66434  23.613  39.976  12.454
98072W        W66435   2.230  16.662  12.027
98073W        W66436  29.959   1.789   3.337
98074W        W66437   9.255  33.947   4.619
98075W        W66438   8.261  16.698  12.070
98076W        W66439  29.460  26.685  14.378
98077W        W66440  26.097  12.842   3.800
98078W        W66441  30.620  27.504   1.331
98079W        W66442  34.864  10.753   4.130
98080W        W66443  12.117  24.622  12.951
98081W        W66444  16.729  43.456   9.539
98082W        W66445   1.950  37.931  12.392
98083W        W66446  43.985  39.558  11.040
98084W        W66447  42.508  23.665   0.249
98085W        W66448  11.738  35.933  12.842
98086W        W66449  26.672  36.362   4.265
98087W        W66450   3.785   0.404   9.982
98088W        W66451   0.346   4.428   1.260
98089W        W66452   3.234  33.486  12.387
98090W        W66453   3.884  15.235   2.185
98091W        W66454  11.768  16.787   0.948
98092W        W66455  15.191   5.874   2.365
98093W        W66456  25.096  28.549   2.353
98094W        W66457  38.000   3.449   2.889
98095W        W66458   3.955   7.341  13.916
98096W        W66459  36.965  38.849  12.455
98097W        W66460  30.111  12.817   4.824
98098W        W66461  44.777  31.900  13.445
98099W        W66462  17.254   9.643  12.555
98100W        W66463   2.865   9.790  10.615
98101W        W66464  31.443   6.281   0.788
98102W        W66465   4.879  31.504  11.924
98103W        W66466  29.002  19.141   2.311
98104W        W66467  43.510  30.567  10.404
98105W        W66468  41.334  30.476   3.217
98106W        W66469  30.554  19.086   3.233
98107W        W66470  39.931   6.352  14.002
98108W        W66471  29.661  37.464   0.448
98109W        W66472  13.262  29.630  10.905
98110W        W66473   3.884  29.050   2.742
98111W        W66474   2.229  13.760   1.334
98112W        W66475  40.351  20.060   3.318
98113W        W66476  42.943  13.121  10.405
98114W        W66477  41.918   7.846   1.433
98115W        W66478  31.461  28.938  12.442
98116W        W66479  15.579  23.113  11.473
98117W        W66480  40.445   8.329   1.701
98118W        W66481  42.998  12.652   4.652
98119W        W66482   1.388  38.998  14.389
98120W        W66483  30.419  38.335  10.937
98121W        W66484   2.296  13.314   0.932
98122W        W66485   5.250  22.245  12.039
98123W        W66486  25.140  43.812  12.436
98124W        W66487   4.707  15.711  11.612
98125W        W66488  21.135  13.349   3.793
98126W        W66489  10.382  13.828   4.625
98127W        W66490  39.529  16.606  11.409
98128W        W66491  15.794   3.863  11.599
98129W        W66492  19.182  19.538  10.614
98130W        W66493   0.869  33.403   5.085
98131W        W66494  38.061  27.588  12.071
98132W        W66495  17.280  39.980  13.461
98133W        W66496  24.661  28.987   3.841
98134W        W66497  40.376   6.296  10.481
98135W        W66498  10.287  22.581  12.965
98136W        W66499  41.401  13.831   4.322
98137W        W66500  10.326  42.390  14.981
98138W        W66501  28.952   8.363  14.487
98139W        W66502  37.062  17.067  12.347
98140W        W66503   1.322  27.581   4.134
98141W        W66504  38.822  10.339   0.910
98142W        W66505  35.364  40.873   3.798
98143W        W66506  37.409  27.648  12.894
98144W        W66507  24.174  24.581  14.395
98145W        W66508  32.997  44.997   0.792
98146W        W66509  34.577   8.833  10.454
98147W        W66510  43.452  29.549   2.202
98148W        W66511  16.788  28.111   0.958
98149W        W66512  29.960  35.535  12.342
98150W        W66513  18.160  26.042   1.840
98151W        W66514  26.069  20.731  10.996
98152W        W66515  27.517   3.712  11.386
98153W        W66516  28.051  22.690   5.241
98154W        W66517  30.562   0.286   3.868
98155W        W66518  27.095  33.875  12.094
98156W        W66519  42.943  40.395  13.511
98157W        W66520   4.342  12.315  12.898
98158W        W66521  13.239  16.236  10.912
98159W        W66522  37.832  16.269   1.265
98160W        W66523   3.458  27.557   0.846
98161W        W66524  31.588  40.821   2.687
98162W        W66525  35.425   9.183  14.504
98163W        W66526  40.464  17.248  14.923
98164W        W66527   1.890  16.776   0.965
98165W        W66528  27.167  12.329  10.941
98166W        W66529  14.264  16.782   3.252
98167W        W66530  17.591  39.505   3.209
98168W        W66531   7.760  24.550   4.338
98169W        W66532   4.408  14.179  11.526
98170W        W66533   4.221  22.229   1.283
98171W        W66534   6.815  19.597   4.620
98172W        W66535  42.788   1.925  13.816
98173W        W66536  26.133  28.591   4.816
98174W        W66537  25.546  15.270  12.046
98175W        W66538  42.920  35.423  10.615
98176W        W66539  15.109  38.399  13.443
98177W        W66540   2.471  42.989   3.283
98178W        W66541   1.381  32.063  12.358
98179W        W66542  33.549  38.884  11.524
98180W        W66543   0.789  22.726   1.782
98181W        W66544  44.825   1.903   2.759
98182W        W66545  14.159  18.741   3.684
98183W        W66546  29.485  16.718   1.217
98184W        W66547  16.622   3.862   4.343
98185W        W66548  42.879  35.852   2.242
98186W        W66549  40.455  31.917   0.444
98187W        W66550  32.993  35.091   0.474
98188W        W66551  29.432  35.478   0.914
98189W        W66552   6.336  23.506  12.492
98190W        W66553  25.128  42.818   0.248
98191W        W66554  16.238  16.167   5.262
98192W        W66555   4.806  21.663   1.274
98193W        W66556  27.045  19.748  10.048
98194W        W66557  25.657  19.550   1.822
98195W        W66558  29.044   3.747   3.344
98196W        W66559  18.735  31.442   1.266
98197W        W66560  35.383  32.979  10.609
98198W        W66561   1.978   2.772   1.820
98199W        W66562   0.342  32.440   3.197
98200W        W66563  40.955  14.134  11.506
98201W        W66564   4.318   8.221  10.518
98202W        W66565  30.553  24.981  14.287
98203W        W66566  19.573  44.946   4.254
98204W        W66567  25.688  32.448   1.326
98205W        W66568   4.838  28.461  12.047
98206W        W66569   7.807  42.420  12.482
98207W        W66570  44.865  27.095  11.863
98208W        W66571  20.626   3.296  13.061
98209W        W66572   5.367   9.281   0.916
98210W        W66573   9.221  12.839   1.770
98211W        W66574  17.746   8.684   2.415
98212W        W66575  32.496  22.159  13.794
98213W        W66576  19.216  24.105  14.444
98214W        W66577  41.494   1.953  14.408
98215W        W66578   5.759  42.520  13.966
98216W        W66579   1.387  19.209   0.784
98217W        W66580  10.871   7.296   2.262
98218W        W66581   3.444   4.759  14.963
98219W        W66582  23.135  11.647  12.396
98220W        W66583  43.831  18.715   3.154
98221W        W66584  13.632  25.527   0.748
98222W        W66585  34.882   8.390   1.339
98223W        W66586  42.286   7.356   0.729
98224W        W66587  13.652   5.901   2.689
98225W        W66588  30.127  29.173   4.808
98226W        W66589  31.990  14.095  13.007
98227W        W66590  19.554  40.914  13.816
98228W        W66591  39.474  43.772   2.887
98229W        W66592  16.230  15.258  10.642
98230W        W66593   0.814   4.410   4.127
98231W        W66594  41.013  44.934   0.260
98232W        W66595  13.820  41.477   3.271
98233W        W66596  42.402   6.399  11.556
98234W        W66597  14.691  36.940  14.293
98235W        W66598  41.961  25.627   1.809
98236W        W66599  33.384  19.078  10.057
98237W        W66600  43.795   6.303  13.828
98238W        W66601  15.667  41.346   2.802
98239W        W66602  18.089  29.623  14.368
98240W        W66603  23.517  38.877  14.769
98241W        W66604  24.999  29.537   4.177
98242W        W66605  25.129  35.512  10.460
98243W        W66606  35.023  27.176  12.405
98244W        W66607  14.166  25.019   1.926
98245W        W66608  15.798  25.620   1.935
98246W        W66609  35.874   5.840  10.643
98247W        W66610   0.918  27.476   2.291
98248W        W66611  22.184   4.842   4.766
98249W        W66612  23.086  11.130   3.752
98250W        W66613  36.951   9.718   3.684
98251W        W66614   0.283   7.401  12.833
98252W        W66615   6.705   8.227   2.800
98253W        W66616  33.044   2.779   0.732
98254W        W66617  23.685  27.101   2.217
98255W        W66618  12.120   9.697   3.726
98256W        W66619  34.559  31.414   4.215
98257W        W66620  20.751  33.061  11.536
98258W        W66621  29.533  12.751   1.775
98259W        W66622  33.484   7.342  10.045
98260W        W66623  38.431  35.936  12.019
98261W        W66624  38.839  15.715   4.187
98262W        W66625  24.710   0.855  12.537
98263W        W66626   9.306  18.138   1.379
98264W        W66627  21.160   1.746   2.215
98265W        W66628  29.592   3.885  13.459
98266W        W66629   0.273  32.526   3.678
98267W        W66630  28.648  34.036  11.479
98268W        W66631   1.873  12.235  14.003
98269W        W66632   8.403  44.364   2.873
98270W        W66633   8.251  41.323  13.399
98271W        W66634   7.395  15.746   2.368
98272W        W66635  41.393   5.768  14.877
98273W        W66636  18.569   8.232   4.138
98274W        W66637  44.851  30.096   4.806
98275W        W66638  34.503   3.408  10.919
98276W        W66639  38.889  41.475  12.880
98277W        W66640  23.654  36.540   0.338
98278W        W66641   3.375  13.737   3.334
98279W        W66642  14.725  13.731  10.937
98280W        W66643   6.399  20.551  12.580
98281W        W66644  22.627  27.685  12.037
98282W        W66645  21.737  25.713   0.389
98283W        W66646  35.974  17.233   3.695
98284W        W66647  20.683  13.698   4.251
98285W        W66648  41.452  36.402   1.443
98286W        W66649   6.801   8.320   4.815
98287W        W66650  35.858  31.545   3.257
98288W        W66651  37.401   9.649  13.472
98289W        W66652  18.246  43.009   3.661
98290W        W66653   4.875  15.296  11.469
98291W        W66654  17.247  10.685   3.653
98292W        W66655  32.930  25.536  12.861
98293W        W66656   9.318  21.541   0.346
98294W        W66657   9.160   2.287  11.592
98295W        W66658  42.496   5.195  11.408
98296W        W66659   0.843  28.607  14.290
98297W        W66660  33.909  21.594  12.846
98298W        W66661  36.371  39.398   2.334
98299W        W66662  40.946  13.658  12.018
98300W        W66663   6.776  23.604   4.799
98301W        W66664  22.716   7.288  10.923
98302W        W66665   8.695  39.478  12.464
98303W        W66666  15.701   8.788  11.920
98304W        W66667  27.189  15.766   4.151
98305W        W66668  15.085   6.696   0.932
98306W        W66669  36.911  22.553   2.689
98307W        W66670  34.429  36.499   0.781
98308W        W66671  39.364  25.641   1.213
98309W        W66672  33.025  43.801  13.530
98310W        W66673  27.490  19.248  10.893
98311W        W66674  42.981  13.189   3.283
98312W        W66675  42.336   0.251  12.051
98313W        W66676  35.410  26.047  10.536
98314W        W66677  42.015   8.363   1.237
98315W        W66678  40.851  10.339  11.859
98316W        W66679  25.184  34.069  12.569
98317W        W66680  35.989   5.911   3.168
98318W        W66681   2.939   4.241  13.002
98319W        W66682  34.940  41.807  11.521
98320W        W66683  14.162  26.463  13.391
98321W        W66684  17.081  25.044   4.228
98322W        W66685  18.179  26.000   4.260
98323W        W66686  14.159  11.205  10.936
98324W        W66687   4.446  11.799   0.276
98325W        W66688  19.083  13.711  12.368
98326W        W66689   8.180  16.667  14.761
98327W        W66690  42.362   4.418   1.402
98328W        W66691  41.364   7.768  13.960
98329W        W66692  43.483  38.907   3.738
98330W        W66693   5.427  20.749  11.049
98331W        W66694  39.001  12.228   3.862
98332W        W66695  16.140   5.388  13.977
98333W        W66696  14.804  17.776  12.968
98334W        W66697  29.106  16.206   2.357
98335W        W66698  36.941  11.651   3.185
98336W        W66699   9.657  18.187  14.974
98337W        W66700  30.942  16.190  12.486
98338W        W66701  26.634  12.259   2.670
98339W        W66702  38.478   7.849   0.816
98340W        W66703  18.681  27.546  12.375
98341W        W66704   8.195  16.782   0.418
98342W        W66705  37.472  12.816  12.877
98343W        W66706  32.113   1.433   4.331
98344W        W66707  28.551   8.380   0.424
98345W        W66708  37.942  43.410  14.012
98346W        W66709  24.578  44.852  13.411
98347W        W66710   2.307  26.135   3.673
98348W        W66711  21.648  27.070  13.834
98349W        W66712  25.522  30.124  10.946
98350W        W66713  17.107  41.794  11.009
98351W        W66714  41.972  44.394   2.706
98352W        W66715  43.768  19.707   4.223
98353W        W66716  26.646  26.041  12.494
98354W        W66717  29.545  43.389  14.325
98355W        W66718  28.949  37.834   3.783
98356W        W66719  41.796  30.616  14.353
98357W        W66720  22.604  23.145   2.902
98358W        W66721   3.302  35.080   3.750
98359W        W66722  36.475  10.340  13.472
98360W        W66723   6.355  21.247  12.084
98361W        W66724  27.131  19.539  10.432
98362W        W66725  28.521   2.411   0.257
98363W        W66726  15.785  28.186   1.776
98364W        W66727  23.688  10.290  13.337
98365W        W66728  34.946  25.619  11.023
98366W        W66729  29.578  28.164  12.493
98367W        W66730  10.674  37.535  12.960
98368W        W66731   2.802  41.358   3.641
98369W        W66732  38.896  32.981   0.966
98370W        W66733  26.503  17.749   1.803
98371W        W66734  21.258  31.976   0.849
98372W        W66735   8.690  31.629   0.281
98373W        W66736  22.611   4.770   0.933
98374W        W66737  27.090   1.341   2.760
98375W        W66738   4.327   8.190  12.513
98376W        W66739  22.245  31.626   4.637
98377W        W66740  19.725  33.128   4.644
98378W        W66741  38.404  41.831   4.656
98379W        W66742  38.842  10.358  10.116
98380W        W66743  30.976   3.902   0.902
98381W        W66744   6.807   1.276  13.438
98382W        W66745  38.565  37.559   0.922
98383W        W66746  30.592  12.661   4.126
98384W        W66747   8.696  30.451  10.618
98385W        W66748  39.920  35.469  12.359
98386W        W66749   0.368  33.467   3.632
98387W        W66750  10.234  28.634  14.319
98388W        W66751  20.066  44.340  10.556
98389W        W66752   1.380  20.073  14.856
98390W        W66753   0.430  31.056   2.717
98391W        W66754  40.322  39.498  11.117
98392W        W66755   6.862  42.892  12.089
98393W        W66756  28.586  38.920   1.277
98394W        W66757   4.441  31.581   0.745
98395W        W66758  26.182  14.692   0.954
98396W        W66759  43.011  30.515  14.365
98397W        W66760   6.223   7.884  12.444
98398W        W66761   0.850   9.242  14.820
98399W        W66762  36.853   8.355   1.277
98400W        W66763  16.579  44.399  12.469
98401W        W66764  37.521  17.659   0.735
98402W        W66765  30.135  38.473   2.830
98403W        W66766  26.155  20.553  10.598
98404W        W66767  41.377  11.366  10.970
98405W        W66768  12.315  16.133  13.528
98406W        W66769  44.989  25.544  10.556
98407W        W66770  31.149  22.120  13.429
98408W        W66771  23.509   5.856  14.830
98409W        W66772  16.591  34.428   3.362
98410W        W66773  27.453  33.096  11.023
98411W        W66774  16.665   8.264  12.094
98412W        W66775  41.030  13.181   3.273
98413W        W66776  36.855  27.109  14.409
98414W        W66777  28.015   2.952   4.684
98415W        W66778  34.429  24.725   1.222
98416W        W66779   5.233  31.987   3.775
98417W        W66780   1.872  20.254   4.281
98418W        W66781  22.690   5.358   0.388
98419W        W66782  11.736  16.194   2.275
98420W        W66783  19.156   1.268   1.758
98421W        W66784  20.748  15.115  14.843
98422W        W66785   8.713  24.487   0.420
98423W        W66786  19.137  41.349   3.246
98424W        W66787  13.845   9.725   4.757
98425W        W66788  15.158  41.459   1.410
98426W        W66789  23.574  11.865  14.394
98427W        W66790  15.102   7.414   2.806
98428W        W66791  29.039  18.266  11.561
98429W        W66792  40.312  36.022  11.019
98430W        W66793  26.054  15.639  14.788
98431W        W66794   0.318   0.813  14.852
98432W        W66795  31.624  34.054  11.480
98433W        W66796  32.121  16.229  13.059
98434W        W66797  39.974  41.424   1.760
98435W        W66798  22.210  35.974  13.521
98436W        W66799  16.621  42.297   4.778
98437W        W66800   0.278  19.228   2.679
98438W        W66801  32.964   7.853  12.468
98439W        W66802  38.465  12.803  10.626
98440W        W66803  33.073  39.817   1.440
98441W        W66804  19.049  44.961   5.172
98442W        W66805  17.704  38.406   4.778
98443W        W66806  10.166  29.614   0.740
98444W        W66807   1.331  21.692  13.813
98445W        W66808  32.438   1.376   4.251
98446W        W66809  31.919  44.382  11.864
98447W        W66810  36.584  18.282  14.010
98448W        W66811   1.821  24.556   5.266
98449W        W66812  33.516  19.552  14.307
98450W        W66813  17.198  27.685  12.411
98451W        W66814  15.100  39.031  12.386
98452W        W66815  28.977  27.627   5.679
98453W        W66816  18.144  14.824  14.914
98454W        W66817  21.618  10.664   0.291
98455W        W66818  31.613  31.494  12.993
98456W        W66819  44.812  37.508   5.606
98457W        W66820  25.032   9.190   4.647
98458W        W66821  28.178  13.707   3.299
98459W        W66822  30.571  10.158  13.001
98460W        W66823  28.552   9.172  10.441
98461W        W66824  33.033  29.493   2.868
98462W        W66825  36.884  33.488  12.949
98463W        W66826   6.689   7.726   0.288
98464W        W66827   9.292  17.102  12.083
98465W        W66828  36.512  37.990   1.258
98466W        W66829  12.638  16.213   1.878
98467W        W66830  23.032  35.996  11.455
98468W        W66831  32.466  16.125  10.549
98469W        W66832  31.088   2.909  14.295
98470W        W66833  18.731   1.304  11.592
98471W        W66834  10.672   0.481   1.239
98472W        W66835   6.823  41.877  10.976
98473W        W66836  24.163   7.770  14.804
98474W        W66837  31.437   6.369  13.026
98475W        W66838  34.983  23.177  13.901
98476W        W66839  26.476  32.564   0.339
98477W        W66840   5.243  25.694  11.429
98478W        W66841  29.986   2.236   2.782
98479W        W66842  12.744  17.118  11.570
98480W        W66843   2.740  22.120   3.850
98481W        W66844   4.377   3.819  12.434
98482W        W66845  35.379  31.997  14.513
98483W        W66846  25.026   4.895  11.874
98484W        W66847  43.917  26.099   1.856
98485W        W66848  31.936  44.947  13.042
98486W        W66849  20.268   5.807   1.325
98487W        W66850  39.476   4.376   4.310
98488W        W66851  41.436  30.642   1.894
98489W        W66852  13.812  43.430   2.411
98490W        W66853  15.630  20.731   0.899
98491W        W66854  23.576   0.378   1.435
98492W        W66855   5.819   8.310   4.161
98493W        W66856  28.481  21.667  14.004
98494W        W66857  10.363  36.989   0.469
98495W        W66858  22.621  32.513   2.273
98496W        W66859  12.352  36.034   1.895
98497W        W66860  24.580  40.877   4.740
98498W        W66861  41.411  44.340  11.573
98499W        W66862  34.075  26.697  14.793
98500W        W66863  29.439  18.147  11.945
98501W        W66864  27.131   5.337   4.778
98502W        W66865  44.345  35.904  14.931
98503W        W66866   4.930   9.862  10.153
98504W        W66867  30.098  34.546  12.853
98505W        W66868  25.976  39.535  13.307
98506W        W66869  43.436   3.781   3.776
98507W        W66870  30.118  42.896   3.313
98508W        W66871  32.431   9.865   0.333
98509W        W66872  38.347   5.909   1.304
98510W        W66873  40.877  41.402   0.768
98511W        W66874  32.137  15.083  13.832
98512W        W66875  38.385  24.201   3.214
98513W        W66876   0.286  28.567   0.370
98514W        W66877  29.541  28.508  12.563
98515W        W66878  34.444  33.037   1.732
98516W        W66879  13.240  20.713   4.823
98517W        W66880  22.706  44.466   2.794
98518W        W66881   3.824  42.372  12.005
98519W        W66882   7.868  17.248   2.410
98520W        W66883   5.800  11.823  14.477
98521W        W66884  15.112   7.670   1.426
98522W        W66885  34.580  17.110   2.279
98523W        W66886  29.526  34.063  12.500
98524W        W66887  23.068  16.664  12.894
98525W        W66888  42.801  34.408   4.255
98526W        W66889  17.780   2.287  14.866
98527W        W66890   6.690  44.817  13.488
98528W        W66891  38.043  10.173  10.514
98529W        W66892  39.870  15.299  14.977
98530W        W66893  17.239  38.550   1.333
98531W        W66894  37.841   2.931   0.858
98532W        W66895  22.062  17.567   4.256
98533W        W66896  31.021  44.425  10.991
98534W        W66897  30.953  42.355   2.255
98535W        W66898   0.758  11.698  14.473
98536W        W66899  22.112  30.615  10.568
98537W        W66900   3.763  37.910   4.191
98538W        W66901  14.602  24.174   1.376
98539W        W66902  22.684  22.182   4.315
98540W        W66903  19.624  24.122   2.709
98541W        W66904  17.154   1.923  10.617
98542W        W66905  38.912  44.983   1.902
98543W        W66906  44.936  35.596   2.787
98544W        W66907  28.058   8.691  12.364
98545W        W66908  30.000  36.483  14.901
98546W        W66909  39.863  31.550   2.350
98547W        W66910  30.012  43.935   2.686
98548W        W66911  27.516  28.550   2.826
98549W        W66912   6.195  20.680  13.535
98550W        W66913  19.537  29.126   1.272
98551W        W66914  11.347  11.654   3.750
98552W        W66915   6.921  43.985  14.386
98553W        W66916  44.885  33.565  10.914
98554W        W66917  26.996  40.960   4.140
98555W        W66918   7.685  13.350   3.301
98556W        W66919  17.281  28.664  11.566
98557W        W66920   4.804  29.534  10.591
98558W        W66921  28.956  22.126  11.047
98559W        W66922  29.124  38.059   1.359
98560W        W66923  15.163  41.916  11.047
98561W        W66924  37.831  34.400  11.861
98562W        W66925  13.761  40.445   2.219
98563W        W66926  41.527  39.893   1.800
98564W        W66927  36.955  38.019  13.834
98565W        W66928   9.220  26.154   1.844
98566W        W66929  11.843  32.991  10.899
98567W        W66930  31.947   2.303   5.647
98568W        W66931  35.400  42.010   0.776
98569W        W66932  44.417  10.851  13.835
98570W        W66933  27.481  25.595  11.013
98571W        W66934  42.439  29.481  10.560
98572W        W66935  38.364  44.841  11.864
98573W        W66936   5.877   6.283  14.482
98574W        W66937   7.227  30.608  14.292
98575W        W66938  24.027  41.788   2.794
98576W        W66939  42.366  27.116  10.515
98577W        W66940  20.261  16.185  13.471
98578W        W66941  42.403  10.720  12.387
98579W        W66942  28.604  25.207  11.397
98580W        W66943   9.245  41.939   4.821
98581W        W66944   9.290   7.784   0.245
98582W        W66945  14.274  13.317   3.705
98583W        W66946  41.335  13.671   0.302
98584W        W66947  19.715   8.175   3.829
98585W        W66948  39.054  13.746  14.384
98586W        W66949  11.663  27.114   4.783
98587W        W66950   4.912  25.673  13.031
98588W        W66951  32.951  42.799   2.264
98589W        W66952  43.937   6.335  12.067
98590W        W66953   1.934  40.845  12.413
98591W        W66954  32.887  11.767   1.883
98592W        W66955   8.371  14.821  14.899
98593W        W66956  23.561   9.660   0.820
98594W        W66957   3.876   8.798   9.995
98595W        W66958  38.455  42.006  11.494
98596W        W66959  20.167   7.699   0.847
98597W        W66960  30.501  11.777   4.245
98598W        W66961  30.569   8.379  13.505
98599W        W66962   8.163  41.989  13.971
98600W        W66963  43.970  30.001  13.440
98601W        W66964  11.353  29.611  11.915
98602W        W66965  32.392  32.042  12.046
98603W        W66966  26.626   2.430  14.023
98604W        W66967  39.337   1.761   1.219
98605W        W66968   0.348  33.064   0.859
98606W        W66969  35.985  20.200  13.511
98607W        W66970  16.728  22.604  11.489
98608W        W66971  26.629   6.702  13.985
98609W        W66972  44.943  14.233  11.573
98610W        W66973  34.046  12.633  12.442
98611W        W66974   5.362  26.988   2.285
98612W        W66975   8.865   6.898  12.385
98613W        W66976  33.105  18.715  14.492
98614W        W66977  34.558   9.695  11.875
98615W        W66978  17.180   2.264  11.586
98616W        W66979  40.830   6.860   4.644
98617W        W66980  31.513  28.650   3.156
98618W        W66981  15.112  18.731  12.955
98619W        W66982  10.374  18.779  14.896
98620W        W66983  11.677  42.480   1.311
98621W        W66984  25.478  17.589  10.431
98622W        W66985  29.985  31.494   0.858
98623W        W66986  29.986  37.562  13.886
98624W        W66987  37.519   3.758   1.813
98625W        W66988  35.592  10.304   2.204
98626W        W66989  22.508  37.047  12.524
98627W        W66990  44.839   6.396   3.251
98628W        W66991  37.920  17.173  12.978
98629W        W66992  39.314  22.228  13.905
98630W        W66993  38.072  27.068   3.328
98631W        W66994  33.530   6.730  11.568
98632W        W66995   9.662  28.655  12.539
98633W        W66996  37.882  11.207  14.935
98634W        W66997   0.255   2.275  12.495
98635W        W66998  16.235  19.080  12.948
98636W        W66999  39.372   1.394   1.326
98637W        W67000  13.182   0.745   2.215
98638W        W67001   9.771   3.912   2.745
98639W        W67002  29.560  31.935  13.830
98640W        W67003  36.860  22.656  13.822
98641W        W67004   2.759  37.428   4.325
98642W        W67005  14.120   6.761  11.003
98643W        W67006  35.523  22.596   0.409
98644W        W67007  24.030  27.052   0.243
98645W        W67008  34.543  26.160  10.998
98646W        W67009  41.955  15.190  10.491
98647W        W67010  22.701  17.600   3.715
98648W        W67011  37.999  30.464   0.441
98649W        W67012   7.814  28.085   2.850
98650W        W67013   4.348  10.266   4.733
98651W        W67014  25.615  24.087   3.844
98652W        W67015  36.549  36.055   2.201
98653W        W67016  20.729  33.447  11.105
98654W        W67017   6.348  20.221  14.853
98655W        W67018  19.244  21.638   4.737
98656W        W67019  42.429  27.644   3.387
98657W        W67020   1.870  31.482   1.296
98658W        W67021  36.564  40.392  14.863
98659W        W67022  13.195  22.640  11.606
98660W        W67023  14.755   1.921  13.802
98661W        W67024  11.240  13.190   2.376
98662W        W67025  28.142  30.487   0.822
98663W        W67026  36.384  41.315  12.403
98664W        W67027  30.426  12.627   0.807
98665W        W67028  16.663  30.002   3.159
98666W        W67029  27.020  30.604   1.901
98667W        W67030  20.182   4.443  14.966
98668W        W67031   0.949   5.276  14.432
98669W        W67032  13.163  26.497  10.069
98670W        W67033  16.758  40.504   0.428
98671W        W67034  38.997  17.770  13.498
98672W        W67035   5.869  11.828   0.344
98673W        W67036   9.207   3.314  14.311
98674W        W67037  22.699  31.992  14.282
98675W        W67038   9.875  31.057  11.433
98676W        W67039  27.081  39.384   1.330
98677W        W67040   1.274  44.448   3.199
98678W        W67041  23.195  37.041   0.249
98679W        W67042   0.419   9.275   1.448
98680W        W67043  18.094  11.323   0.316
98681W        W67044   6.288  20.063   4.683
98682W        W67045  11.362   4.888  14.423
98683W        W67046  26.464  29.027   1.809
98684W        W67047  22.654  39.494  10.548
98685W        W67048  12.661  31.936   0.362
98686W        W67049  20.740  12.155   0.730
98687W        W67050  18.272  32.509   0.399
98688W        W67051  44.371  43.280  11.603
98689W        W67052  11.684   7.904  14.448
98690W        W67053   1.382   0.288  14.011
98691W        W67054  24.723  14.328  11.384
98692W        W67055  35.556  34.974  14.486
98693W        W67056  28.064  21.240   1.823
98694W        W67057  35.517  41.452  13.794
98695W        W67058   5.718  39.964  14.022
98696W        W67059  20.570  11.168  10.897
98697W        W67060   4.719  40.462   1.322
98698W        W67061  33.600  36.950  12.359
98699W        W67062  38.863  10.637   5.139
98700W        W67063  23.236  10.283   2.236
98701W        W67064  12.745  29.501   0.935
98702W        W67065  30.009  43.963   4.326
98703W        W67066   9.800   5.279  11.417
98704W        W67067   9.704  20.716  11.052
98705W        W67068  21.560   7.857   4.666
98706W        W67069  16.248   3.822  12.823
98707W        W67070   7.784   7.737  11.105
98708W        W67071  23.170   7.309   0.344
98709W        W67072  34.601  41.473   2.733
98710W        W67073  32.637  27.196  12.414
98711W        W67074  34.919  12.303  13.021
98712W        W67075  42.016  34.983   3.220
98713W        W67076  15.176  11.344  13.002
98714W        W67077   2.793  39.504  11.031
98715W        W67078  36.038   0.255   2.827
98716W        W67079  34.479   2.723   0.923
98717W        W67080  22.117  20.077  13.961
98718W        W67081  40.429  35.013   1.289
98719W        W67082  18.115  24.086   0.277
98720W        W67083  44.793  39.560   1.868
98721W        W67084  38.363  14.112  13.007
98722W        W67085  44.821   7.249   2.188
98723W        W67086  17.122  20.230  14.984
98724W        W67087   7.751  40.451  10.981
98725W        W67088  37.936  22.546   0.271
98726W        W67089   8.396  38.510   3.753
98727W        W67090  39.892  36.995   0.458
98728W        W67091  29.948  26.474   9.936
98729W        W67092  17.220  14.750  12.882
98730W        W67093  36.914   4.714   4.802
98731W        W67094  30.108  38.361  11.003
98732W        W67095   1.828   5.725  13.524
98733W        W67096  35.370  44.284  11.903
98734W        W67097  18.603  33.118  14.497
98735W        W67098  34.593  30.989   1.398
98736W        W67099  28.015  30.542  10.134
98737W        W67100   9.339  39.381  14.828
98738W        W67101   9.672  32.930   2.729
98739W        W67102  13.225  10.783  12.354
98740W        W67103  21.245   1.738   0.257
98741W        W67104  40.840   7.698  11.437
98742W        W67105  24.013  33.380  14.907
98743W        W67106  35.523  38.057   0.731
98744W        W67107  19.634  41.395  12.371
98745W        W67108  18.136  22.021  10.995
98746W        W67109  10.345  28.028   2.328
98747W        W67110  21.737  12.280   2.878
98748W        W67111  44.422   6.321   0.794
98749W        W67112  33.977  34.392   2.293
98750W        W67113  16.072  17.201  13.057
98751W        W67114  21.655  21.158   0.361
98752W        W67115   7.898  16.106   1.935
98753W        W67116  44.421  38.055  11.024
98754W        W67117  36.953  22.589   1.722
98755W        W67118  40.941  43.010  12.431
98756W        W67119  35.564   4.378   2.258
98757W        W67120  34.873  23.024   0.437
98758W        W67121  23.211   7.363  14.470
98759W        W67122  33.475  41.842  10.993
98760W        W67123  33.947  10.869  14.503
98761W        W67124  23.609  17.618  12.998
98762W        W67125  24.543  25.056  13.944
98763W        W67126  41.485   9.311   3.845
98764W        W67127  13.343  36.525   2.293
98765W        W67128  12.627  38.350   1.798
98766W        W67129  36.979  33.583   0.885
98767W        W67130  19.694  39.845  14.934
98768W        W67131  43.865  29.520  13.047
98769W        W67132  35.885   0.841  11.409
98770W        W67133   9.780   8.702  14.410
98771W        W67134  23.497  30.075  13.034
98772W        W67135  11.661  41.869  14.820
98773W        W67136  25.023  11.364   1.717
98774W        W67137  22.710  22.602  11.941
98775W        W67138  19.753  33.397  10.520
98776W        W67139  14.658  13.304  13.023
98777W        W67140   4.794  43.345   3.734
98778W        W67141  28.981  36.906  14.278
98779W        W67142  43.431   0.299   2.772
98780W        W67143  25.203  28.588   1.782
98781W        W67144  23.623  35.926  12.361
98782W        W67145   4.847   9.867   3.364
98783W        W67146  32.026  22.629  13.337
98784W        W67147  13.260   1.867   3.243
98785W        W67148  42.423  41.501  11.410
98786W        W67149   0.841  10.275   5.257
98787W        W67150   9.885   2.871   2.366
98788W        W67151   2.461  43.901  11.012
98789W        W67152  31.955   9.784  12.563
98790W        W67153  39.496   7.375   3.258
98791W        W67154  37.995  37.470   2.786
98792W        W67155   6.326  44.944   2.323
98793W        W67156  40.530  10.360  10.554
98794W        W67157  25.497   2.414   4.136
98795W        W67158   3.376  25.973  13.863
98796W        W67159  26.006   7.299   4.184
98797W        W67160  19.546  28.016  11.920
98798W        W67161  39.028  22.696  13.020
98799W        W67162  39.400  44.939   4.818
98800W        W67163   8.656  22.242  14.495
98801W        W67164  12.200  41.942   0.729
98802W        W67165  42.417  12.319  11.572
98803W        W67166  27.512  36.531  14.800
98804W        W67167  27.469   9.826  10.606
98805W        W67168  25.159  11.719   2.803
98806W        W67169  31.448   6.334  13.992
98807W        W67170  36.591  38.878  10.590
98808W        W67171  36.519  18.289   0.862
98809W        W67172  10.639  40.445   1.429
98810W        W67173  31.589  40.887   2.326
98811W        W67174  30.614  36.973   3.807
98812W        W67175   3.429  11.223   2.255
98813W        W67176  29.976  39.483   4.351
98814W        W67177  28.114  30.659  10.413
98815W        W67178  24.583  34.438  12.422
98816W        W67179   3.408  31.098   2.745
98817W        W67180  40.941  43.501  10.945
98818W        W67181  31.632   1.298  11.896
98819W        W67182   0.817  16.201  11.064
98820W        W67183  30.646  28.626   2.256
98821W        W67184  28.660  27.551  14.935
98822W        W67185   1.353  36.878  13.457
98823W        W67186  32.920  40.517   4.338
98824W        W67187  19.199  21.221  10.927
98825W        W67188   7.267  16.273  10.489
98826W        W67189  10.261   5.751   0.860
98827W        W67190   8.736  30.496   2.404
98828W        W67191  34.504  28.176  11.529
98829W        W67192  38.490  13.814   3.749
98830W        W67193  25.666   6.793   2.695
98831W        W67194   6.706  13.832   0.449
98832W        W67195   2.814  40.370  12.086
98833W        W67196   0.797  38.858   2.232
98834W        W67197  11.648   1.895   1.449
98835W        W67198  13.741  10.728  14.892
98836W        W67199  28.469   8.367  11.409
98837W        W67200  21.662  16.268   4.232
98838W        W67201  24.551  40.388   0.274
98839W        W67202  19.551   6.912  12.035
98840W        W67203  11.726   0.473   0.400
98841W        W67204  41.856  42.315  11.432
98842W        W67205   5.717  26.509   3.386
98843W        W67206  14.174   9.324  14.391
98844W        W67207  34.574  27.459   2.791
98845W        W67208   5.434  43.927  12.907
98846W        W67209  30.438  14.605   3.221
98847W        W67210  29.027  26.167   1.305
98848W        W67211  42.891   7.728  11.580
98849W        W67212   1.947  21.655   0.872
98850W        W67213  43.839  26.082  10.576
98851W        W67214   6.741  32.998  13.481
98852W        W67215  40.841   3.365   0.959
98853W        W67216   0.460  26.098  11.912
98854W        W67217  22.111  10.838  10.637
98855W        W67218   7.266   2.773   1.448
98856W        W67219   5.355  40.329   2.896
98857W        W67220  17.102  29.517  10.432
98858W        W67221  20.142   4.933  14.970
98859W        W67222  35.504  12.623  13.890
98860W        W67223  33.530  27.940  13.908
98861W        W67224  25.215  35.970   3.376
98862W        W67225  25.472  16.691  13.449
98863W        W67226  21.097   7.683   3.756
98864W        W67227  41.339  43.998   1.746
98865W        W67228  11.286   4.876   2.751
98866W        W67229  44.807  25.576  12.036
98867W        W67230  39.460   1.423  11.859
98868W        W67231  29.577   8.863  10.106
98869W        W67232  12.323   6.234  12.871
98870W        W67233  15.167  41.383  10.609
98871W        W67234  21.665   9.790   3.256
98872W        W67235  31.988   0.361   0.291
98873W        W67236  23.009   4.402   1.412
98874W        W67237  42.340  28.133   2.282
98875W        W67238   8.739  30.631  12.456
98876W        W67239  44.906  11.326   1.253
98877W        W67240  23.040  18.723  14.948
98878W        W67241  12.649  39.030  13.496
98879W        W67242   7.180  20.570   2.763
98880W        W67243  20.550  19.236   4.755
98881W        W67244   0.320  18.677  13.895
98882W        W67245  12.126  38.848  10.983
98883W        W67246  18.607   5.879  13.863
98884W        W67247  39.034   7.291   4.316
98885W        W67248  21.068  29.427   3.782
98886W        W67249  18.712  43.849   0.777
98887W        W67250   1.761  38.511   0.374
98888W        W67251  12.747   0.333  12.841
98889W        W67252  22.238  33.050  11.605
98890W        W67253  18.603   4.928  10.003
98891W        W67254  41.979  39.409   2.235
98892W        W67255  27.019  31.467  12.432
98893W        W67256   0.966  22.523  13.823
98894W        W67257  30.999  43.864  14.336
98895W        W67258  43.326  21.030  11.471
98896W        W67259  25.077  24.533  14.336
98897W        W67260  21.739  35.982   5.307
98898W        W67261  35.570  22.170   4.161
98899W        W67262  36.914   5.885  12.960
98900W        W67263  16.664   1.444   3.652
98901W        W67264  44.794   9.280  11.470
98902W        W67265  28.646  42.443  14.279
98903W        W67266   9.238   3.722  11.038
98904W        W67267  10.713  27.184   2.850
98905W        W67268   7.197  20.085   5.306
98906W        W67269  32.925  40.474   3.246
98907W        W67270  44.309   2.427  11.884
98908W        W67271  18.622   8.236   0.903
98909W        W67272  12.184  24.975  10.960
98910W        W67273  12.170  38.492   0.414
98911W        W67274  21.132  35.554   3.645
98912W        W67275  21.118  15.749   2.765
98913W        W67276  35.384  31.979  13.353
98914W        W67277  26.655  16.205  12.426
98915W        W67278  19.603  43.877  11.965
98916W        W67279  15.640   8.773  11.425
98917W        W67280  15.791  35.051  12.390
98918W        W67281  12.271  25.604  14.331
98919W        W67282  26.106  33.983   1.752
98920W        W67283  37.869  37.476   0.908
98921W        W67284   0.388  11.266  13.375
98922W        W67285  41.006  11.244  11.075
98923W        W67286  11.777  30.502   9.991
98924W        W67287  10.295  18.129  13.317
98925W        W67288  44.901  39.000  13.543
98926W        W67289  29.505  21.689   1.302
98927W        W67290  38.029  11.138   0.301
98928W        W67291  42.792  41.301   9.962
98929W        W67292  34.397   7.194  10.471
98930W        W67293  12.329  36.004  14.897
98931W        W67294  32.104  41.788  10.951
98932W        W67295  34.106  30.549  10.962
98933W        W67296  36.915  19.248   2.729
98934W        W67297  14.339  24.561   3.851
98935W        W67298  34.007  31.572   1.387
98936W        W67299  34.869  26.693  10.140
98937W        W67300  33.609  14.727   4.642
98938W        W67301  19.106  32.062   1.314
98939W        W67302  16.753  13.320   3.764
98940W        W67303  17.089   1.317  12.347
98941W        W67304   3.442  17.281   2.371
98942W        W67305   8.406  20.086   3.149
98943W        W67306  44.445  42.374   0.804
98944W        W67307  20.586  33.501  14.994
98945W        W67308  18.709  28.118  11.531
98946W        W67309   2.242  35.582  10.433
98947W        W67310  32.997   2.297   3.650
98948W        W67311   1.953  30.605   0.791
98949W        W67312   4.818  26.456   4.188
98950W        W67313  11.692  25.627   2.293
98951W        W67314  15.653  42.356   1.442
98952W        W67315  24.572  30.940   1.318
98953W        W67316  16.155  33.098  11.920
98954W        W67317  14.646  30.920   4.160
98955W        W67318  44.805  11.154  11.409
98956W        W67319  27.519   0.254   0.784
98957W        W67320  28.967  37.968  10.951
98958W        W67321  40.835   8.782  12.017
98959W        W67322  10.333  32.428  13.336
98960W        W67323  23.609   9.309   0.446
98961W        W67324  11.234  30.939   1.765
98962W        W67325  20.731  38.942   0.334
98963W        W67326  23.153  18.586   3.741
98964W        W67327  20.719  44.307   3.279
98965W        W67328   5.260  19.585   3.371
98966W        W67329   2.934  35.954  10.992
98967W        W67330   2.911  17.179   4.691
98968W        W67331   7.258  19.566   2.195
98969W        W67332  42.405  40.854  14.349
98970W        W67333   3.879  15.292  11.040
98971W        W67334  26.483  31.051   0.895
98972W        W67335  14.269   6.380  10.042
98973W        W67336  27.571  37.925  10.928
98974W        W67337  14.740  29.470  14.331
98975W        W67338  37.959  25.173   3.231
98976W        W67339  28.583  27.646  14.300
98977W        W67340  14.331  24.220   2.181
98978W        W67341  13.255  32.915   4.677
98979W        W67342   5.380  21.117  10.033
98980W        W67343  13.636  44.431  14.289
98981W        W67344   0.818  43.947   4.218
98982W        W67345   0.820   0.434   0.289
98983W        W67346   7.213  18.640  13.349
98984W        W67347  28.564  35.500  14.510
98985W        W67348  43.420   0.915   0.271
98986W        W67349  24.556  40.304  12.353
98987W        W67350  20.691  42.495  12.434
98988W        W67351  18.270  41.953   2.898
98989W        W67352  34.428   6.761   4.234
98990W        W67353  35.480  26.122  13.503
98991W        W67354  33.590  17.566  12.914
98992W        W67355   0.314  25.654  12.429
98993W        W67356   2.419  41.396   4.832
98994W        W67357   5.229  17.602  14.426
98995W        W67358  33.509  38.027   2.220
98996W        W67359  35.032  32.565   4.269
98997W        W67360  21.668  15.676   5.135
98998W        W67361  34.035  32.953   4.712
98999W        W67362  24.125  22.561   4.139
99000W        W67363  42.017  31.432   4.732
99001W        W67364  10.149   2.848  14.444
99002W        W67365   5.708  19.089   1.827
99003W        W67366  23.087  32.611   3.711
99004W        W67367  21.579  38.859   3.169
99005W        W67368  40.376  22.172   4.284
99006W        W67369   0.477  14.138  13.539
99007W        W67370  26.462  44.396  13.971
99008W        W67371  10.298  33.454   2.732
99009W        W67372  23.553  10.749  14.996
99010W        W67373  22.208  35.364  14.390
99011W        W67374  31.494  30.592   5.793
99012W        W67375  38.469   2.864  11.036
99013W        W67376  16.787  15.606   2.380
99014W        W67377  39.022  23.069  14.330
99015W        W67378  22.160  35.598   2.700
99016W        W67379   9.253  26.070  12.426
99017W        W67380  27.665  16.298   5.637
99018W        W67381  36.548   7.412  14.463
99019W        W67382   9.842   8.171   0.961
99020W        W67383  37.394  14.697  11.610
99021W        W67384   3.255  42.792  10.897
99022W        W67385  37.910   5.367  10.529
99023W        W67386  19.175  11.760   2.741
99024W        W67387  39.535   9.193   3.248
99025W        W67388  14.758   2.881   0.764
99026W        W67389  15.632  41.413  13.806
99027W        W67390  13.159  26.047   2.683
99028W        W67391  33.967  27.589   3.644
99029W        W67392   2.960   1.773   1.899
99030W        W67393  17.768   5.334   2.383
99031W        W67394   4.746   0.828   4.707
99032W        W67395  23.702  15.158   3.752
99033W        W67396  24.030  42.972  13.796
99034W        W67397   5.254  44.872   1.714
99035W        W67398  42.873  18.199  13.396
99036W        W67399  25.703   4.323   1.398
99037W        W67400   1.440  22.095  12.925
99038W        W67401  25.131  34.537   3.752
99039W        W67402  41.306  31.422   4.194
99040W        W67403   0.794  16.587   3.241
99041W        W67404  35.581  22.645  12.031
99042W        W67405  35.478  23.672   4.187
99043W        W67406   7.299  20.203   0.735
99044W        W67407  34.491  22.234  14.933
99045W        W67408   6.891  31.488   0.784
99046W        W67409  40.992  33.461  14.472
99047W        W67410  30.505  25.695  14.964
99048W        W67411  19.253  44.448  12.004
99049W        W67412   4.281  40.414   3.694
99050W        W67413  11.693  42.284   0.735
99051W        W67414  10.377  41.311   3.768
99052W        W67415   6.890  28.985   1.347
99053W        W67416   1.750  10.636  13.852
99054W        W67417   3.763  24.637  13.833
99055W        W67418  36.409  42.022  12.959
99056W        W67419   6.795  43.018  10.529
99057W        W67420  17.579  31.899   4.627
99058W        W67421  33.999   0.751  10.438
99059W        W67422  41.914  33.946   0.365
99060W        W67423  20.601  26.084   1.700
99061W        W67424  36.883   7.386   3.799
99062W        W67425  23.211  15.599  12.471
99063W        W67426  29.627  32.010  10.541
99064W        W67427  14.149   0.335  13.523
99065W        W67428  23.217  39.363   4.157
99066W        W67429  10.367  11.813   4.250
99067W        W67430  11.223  33.397   1.760
99068W        W67431  43.011  18.609   4.668
99069W        W67432  39.371  35.103   0.861
99070W        W67433  32.008  20.147   0.420
99071W        W67434  10.672   4.877  11.042
99072W        W67435  33.071  43.894   5.087
99073W        W67436  24.560  35.455   0.765
99074W        W67437  16.703  37.440  12.963
99075W        W67438   2.245  42.347  12.935
99076W        W67439  26.572  20.721   3.199
99077W        W67440   1.766  40.443  13.829
99078W        W67441   0.971  19.610  13.921
99079W        W67442  14.652   3.950  10.947
99080W        W67443  44.941  21.704  11.033
99081W        W67444  33.605   2.798   0.930
99082W        W67445  29.957   4.807   2.341
99083W        W67446  42.467   4.287   4.737
99084W        W67447  29.167  31.537  12.991
99085W        W67448   6.220  23.214  14.839
99086W        W67449  25.076  15.807   1.227
99087W        W67450   1.357  15.113   0.889
99088W        W67451  12.628  37.464  13.791
99089W        W67452  44.989   5.310   1.388
99090W        W67453  24.709  37.065   3.676
99091W        W67454  28.592  43.495   1.917
99092W        W67455   6.186  14.699  13.321
99093W        W67456  17.568  32.597  11.612
99094W        W67457  28.662  22.997   0.884
99095W        W67458  21.189  29.011  13.059
99096W        W67459  37.442  44.767   2.836
99097W        W67460  10.791  35.107   1.280
99098W        W67461  28.141  28.462   0.756
99099W        W67462  25.687   1.955   4.599
99100W        W67463  15.191  40.968  13.803
99101W        W67464  18.258  43.403   5.163
99102W        W67465   4.890  34.885   1.863
99103W        W67466  13.816   2.739  11.128
99104W        W67467  20.229  21.180   3.773
99105W        W67468  34.985  29.531   3.791
99106W        W67469  26.099  35.583   1.783
99107W        W67470  15.224   6.330   4.227
99108W        W67471   3.925  35.091  14.850
99109W        W67472  43.374  25.487  12.369
99110W        W67473  13.328   9.776   3.656
99111W        W67474  37.857  33.410  11.082
99112W        W67475  18.113  17.289  11.570
99113W        W67476  25.105  37.554   2.805
99114W        W67477  29.167  31.075  14.810
99115W        W67478  24.086  37.476   1.450
99116W        W67479  38.981  29.098  14.000
99117W        W67480   6.422  26.520  11.028
99118W        W67481  30.052  36.462   1.780
99119W        W67482  26.555  13.213   4.174
99120W        W67483  42.783   8.755   4.774
99121W        W67484  25.086   3.449  13.956
99122W        W67485  23.512  18.732   0.833
99123W        W67486  10.362  12.118  10.976
99124W        W67487  34.483  19.164  13.351
99125W        W67488  41.996  30.498  10.509
99126W        W67489   1.286  44.870  14.346
99127W        W67490  29.056  37.354   3.251
99128W        W67491  43.487  15.639  12.035
99129W        W67492  25.507  17.096   4.725
99130W        W67493  41.372  26.146   0.939
99131W        W67494   6.412  33.916  13.454
99132W        W67495  25.988  27.972  13.464
99133W        W67496   7.357  23.106   2.784
99134W        W67497  24.074  44.449  12.491
99135W        W67498  42.500  42.486  13.380
99136W        W67499   3.404   5.270  11.493
99137W        W67500  39.329  13.204  12.874
99138W        W67501  12.317   5.767  13.364
99139W        W67502   4.408   9.866  12.090
99140W        W67503   5.854  22.230  10.481
99141W        W67504  33.521  29.598   0.761
99142W        W67505   9.703  41.298  14.346
99143W        W67506  13.804  22.079  11.606
99144W        W67507  22.595  22.633  12.472
99145W        W67508  16.240   4.886   0.950
99146W        W67509  25.151  11.718  10.416
99147W        W67510  37.464   8.297  14.497
99148W        W67511  24.113  20.253  12.579
99149W        W67512  16.615  42.986   5.322
99150W        W67513  19.178  24.027  13.055
99151W        W67514  12.722  10.346   1.395
99152W        W67515   9.862  18.615   3.640
99153W        W67516  16.611  19.171  10.573
99154W        W67517  31.594   0.978  14.854
99155W        W67518  18.736  35.875   5.256
99156W        W67519  14.101  17.074  13.836
99157W        W67520  31.016  34.031  11.418
99158W        W67521  37.479  43.825  11.456
99159W        W67522  15.784   0.454  10.043
99160W        W67523  17.583  19.123   0.472
99161W        W67524   9.852  36.443  14.931
99162W        W67525   0.960  18.104  12.366
99163W        W67526  11.802  13.626  11.440
99164W        W67527  33.526   4.894   4.220
99165W        W67528   4.902  30.621   0.823
99166W        W67529  39.519  11.760  11.880
99167W        W67530  32.090  40.797   4.690
99168W        W67531  35.477  20.558   0.883
99169W        W67532   1.238  37.495   3.224
99170W        W67533  24.498  10.209  10.479
99171W        W67534  29.949   5.414  14.909
99172W        W67535  44.265  37.892  11.523
99173W        W67536  26.659  24.584  11.491
99174W        W67537  33.054  14.228   2.759
99175W        W67538  29.559  40.504  11.457
99176W        W67539  23.644  37.031  12.976
99177W        W67540   1.799   9.652  14.391
99178W        W67541   4.892  19.205   4.824
99179W        W67542  27.545  28.480  12.463
99180W        W67543  32.015  39.021   2.404
99181W        W67544   3.801  10.232  14.322
99182W        W67545  23.146  41.931  13.032
99183W        W67546  31.980  26.122  12.548
99184W        W67547  16.117  30.560   0.829
99185W        W67548  19.611  21.748  12.537
99186W        W67549   1.970  23.490   1.901
99187W        W67550  35.063  27.086   0.731
99188W        W67551   6.821  20.547   1.270
99189W        W67552  11.289  11.150   3.347
99190W        W67553  34.375   8.366  13.426
99191W        W67554  21.152  32.030  14.373
99192W        W67555  18.173  35.996  14.960
99193W        W67556  17.096  28.563  12.827
99194W        W67557  31.943  24.128   3.791
99195W        W67558  11.295  18.052   2.281
99196W        W67559  14.601  18.110  12.361
99197W        W67560  17.146  39.015  11.449
99198W        W67561   5.369  32.037  10.569
99199W        W67562  41.900  34.985  14.007
99200W        W67563  37.462  44.901  14.298
99201W        W67564  34.050  41.471   2.327
99202W        W67565  18.150   1.817   1.359
99203W        W67566  24.002   5.435   2.341
99204W        W67567   6.225   5.424   3.801
99205W        W67568  10.310  31.469  10.105
99206W        W67569  22.155  20.626   0.729
99207W        W67570  17.071  34.481  10.496
99208W        W67571  21.590  30.611  13.806
99209W        W67572  27.548  14.692  13.965
99210W        W67573   4.895  41.356  14.902
99211W        W67574  34.427  40.009  12.976
99212W        W67575  33.019  41.035  13.488
99213W        W67576   4.346  31.582  11.597
99214W        W67577  12.766  19.767   4.686
99215W        W67578  34.866  28.526   4.743
99216W        W67579  36.987  33.957   4.198
99217W        W67580   5.301  35.496  12.385
99218W        W67581  33.486  10.706   2.355
99219W        W67582  16.173  28.458   0.890
99220W        W67583  12.679  34.461   3.313
99221W        W67584   0.776  23.640  13.312
99222W        W67585  40.029  21.195   2.774
99223W        W67586   3.717   5.814   3.311
99224W        W67587  35.523  35.854   4.728
99225W        W67588  35.386  37.985   2.851
99226W        W67589  17.091  12.266  12.978
99227W        W67590  27.468  10.141  12.430
99228W        W67591  11.788   7.876  10.518
99229W        W67592   3.922  40.324  14.992
99230W        W67593   5.365  30.960  13.346
99231W        W67594  34.413  25.115   4.302
99232W        W67595  33.565  22.133   4.659
99233W        W67596   0.801   4.391   0.868
99234W        W67597  28.530   4.235   4.616
99235W        W67598  32.598  30.916  11.522
99236W        W67599  13.153   4.246  13.026
99237W        W67600  44.477   9.162   0.360
99238W        W67601   8.342  10.732  13.045
99239W        W67602  11.311  17.119  13.486
99240W        W67603  26.564   8.836   0.946
99241W        W67604  10.328   3.893  14.457
99242W        W67605  11.719   7.219  12.420
99243W        W67606  11.322  32.963   2.687
99244W        W67607   1.894   7.274  14.410
99245W        W67608  26.018  25.673   1.408
99246W        W67609  27.141  16.594   1.705
99247W        W67610  16.135  29.959  14.498
99248W        W67611  27.446  44.410   3.775
99249W        W67612  26.662  37.520  10.513
99250W        W67613  29.175  18.630   4.720
99251W        W67614  43.465  18.565  13.901
99252W        W67615  32.620  24.614  12.400
99253W        W67616  15.315  36.463  10.526
99254W        W67617   2.262  31.986  14.475
99255W        W67618   8.779  18.197   2.279
99256W        W67619  35.428   3.218   4.325
99257W        W67620  42.813  31.072   4.684
99258W        W67621  41.418  27.594   2.679
99259W        W67622   2.855  34.441  10.596
99260W        W67623  32.512   4.377  13.889
99261W        W67624  20.045  13.609   3.696
99262W        W67625   7.821  32.467  14.936
99263W        W67626  10.316  25.127  12.455
99264W        W67627  34.515  38.832   0.879
99265W        W67628  11.818  42.823  10.964
99266W        W67629  40.535  15.180  13.032
99267W        W67630  42.286   8.302  12.358
99268W        W67631   1.238   9.384  12.510
99269W        W67632  20.135  33.614   0.797
99270W        W67633  24.674  33.484   0.250
99271W        W67634  33.606  13.246  13.969
99272W        W67635  15.289  21.708   1.715
99273W        W67636   8.671  32.900  14.007
99274W        W67637  43.488   8.755  12.868
99275W        W67638  10.285   9.821  14.437
99276W        W67639   7.389  17.253  13.377
99277W        W67640   9.255  19.608  14.907
99278W        W67641   9.808  43.504  13.889
99279W        W67642  13.226  30.992   4.235
99280W        W67643  25.705  43.495   2.335
99281W        W67644  40.829  39.031  12.094
99282W        W67645  14.817  16.622  12.379
99283W        W67646  12.149  43.382   2.337
99284W        W67647  19.070   3.375  13.332
99285W        W67648  31.002  36.429   4.695
99286W        W67649  43.817   8.722   1.253
99287W        W67650   8.240  18.576  11.493
99288W        W67651  41.518  29.995  12.500
99289W        W67652  23.162  41.848  10.633
99290W        W67653  22.527   7.274   4.273
99291W        W67654  16.657   4.920  10.926
99292W        W67655   9.779  18.731  13.340
99293W        W67656  41.018  25.034  13.383
99294W        W67657  30.153  42.829  10.511
99295W        W67658  41.306  30.951  11.378
99296W        W67659  30.497  24.181   1.742
99297W        W67660  42.001   9.169   4.186
99298W        W67661  28.597  26.616   3.320
99299W        W67662  33.593   9.662  10.418
99300W        W67663  17.071   2.959  13.817
99301W        W67664   0.922   1.731   3.225
99302W        W67665  25.173  10.869  10.514
99303W        W67666  14.597  27.666   4.184
99304W        W67667  36.940  21.132  11.029
99305W        W67668  42.775  36.987   2.832
99306W        W67669  13.775  37.842   4.605
99307W        W67670  29.079  35.937   3.761
99308W        W67671   4.412  22.039   5.265
99309W        W67672  25.081  36.078  13.901
99310W        W67673  14.117  32.583  11.482
99311W        W67674  34.401  26.466   4.705
99312W        W67675   2.885  14.105   0.909
99313W        W67676   4.890  41.428  12.507
99314W        W67677   7.867  10.794  12.452
99315W        W67678  31.978  24.217  10.912
99316W        W67679  10.844  43.015  14.440
99317W        W67680  44.293  32.450  12.452
99318W        W67681   7.382   4.288  11.383
99319W        W67682  13.661   6.252  13.952
99320W        W67683  33.423  25.663  11.925
99321W        W67684  21.698  36.425   2.317
99322W        W67685   2.933   8.893   2.723
99323W        W67686  11.709  34.458   1.423
99324W        W67687  31.030  41.425   2.701
99325W        W67688  12.349  12.351   0.871
99326W        W67689  14.745  23.084  12.022
99327W        W67690  35.472  37.525  12.455
99328W        W67691  14.272  33.121  13.485
99329W        W67692  34.591   0.403   1.397
99330W        W67693  41.958  30.440   2.207
99331W        W67694  32.393  42.783   4.299
99332W        W67695  12.319  24.011  14.466
99333W        W67696  11.236  18.276  13.387
99334W        W67697  12.290  40.895   1.837
99335W        W67698  13.157  32.626  13.364
99336W        W67699   1.395  17.611  13.941
99337W        W67700  13.704  42.825   0.412
99338W        W67701   9.867  29.467  13.048
99339W        W67702   4.211  41.481  14.412
99340W        W67703  37.888  38.881   4.829
99341W        W67704  27.016  31.007   1.271
99342W        W67705  43.012   3.826  14.433
99343W        W67706  19.680  19.071  14.923
99344W        W67707  34.464  37.055  12.387
99345W        W67708   2.330  11.136  14.017
99346W        W67709  21.118  26.595  11.124
99347W        W67710  21.594  14.652   0.406
99348W        W67711  37.532  35.468   3.779
99349W        W67712  12.331  20.582   0.884
99350W        W67713  38.910  36.090  14.467
99351W        W67714  15.769  25.966  10.955
99352W        W67715  34.015  19.144  14.934
99353W        W67716   0.492  14.593  14.339
99354W        W67717  18.051   4.805  12.006
99355W        W67718   1.277  34.419  14.005
99356W        W67719  10.266  24.688  11.124
99357W        W67720  37.551   8.843  14.797
99358W        W67721  43.347  20.098   1.724
99359W        W67722  25.640  12.343   1.277
99360W        W67723   9.666  19.760  10.959
99361W        W67724   6.691   8.838  14.884
99362W        W67725  15.116  25.028  11.073
99363W        W67726  32.544  38.876   0.946
99364W        W67727   5.213  30.089  12.572
99365W        W67728  30.095  11.638   2.725
99366W        W67729  33.492  40.516  10.909
99367W        W67730  26.482  17.304   2.302
99368W        W67731  30.071  10.789   2.767
99369W        W67732  21.079   0.962   3.314
99370W        W67733   5.366  29.601   2.700
99371W        W67734   6.360   0.977  13.458
99372W        W67735  25.603  10.864   3.157
99373W        W67736   6.843   0.833  13.989
99374W        W67737  16.279  18.558  14.397
99375W        W67738  39.431  35.362  14.457
99376W        W67739  43.509  14.325   0.315
99377W        W67740  14.687  28.950  14.001
99378W        W67741  41.967  22.580   4.739
99379W        W67742   7.748  30.980   0.450
99380W        W67743   4.385  20.725  11.094
99381W        W67744  33.007  20.582   1.433
99382W        W67745  26.699  20.141   3.317
99383W        W67746  37.538  28.056   1.788
99384W        W67747  26.043  27.611   0.957
99385W        W67748  18.566  39.466  11.896
99386W        W67749   9.252  23.696   1.817
99387W        W67750  27.610  15.687  11.454
99388W        W67751  24.221  18.586  11.478
99389W        W67752  35.443  11.249  10.642
99390W        W67753  32.479   1.358   9.593
99391W        W67754  22.170  12.784  11.093
99392W        W67755   3.948  32.593  10.904
99393W        W67756  43.501  21.038   5.140
99394W        W67757  24.139   3.838   3.671
99395W        W67758   9.266   1.867   0.873
99396W        W67759   9.744   8.229  13.024
99397W        W67760   0.864  27.045   2.750
99398W        W67761   0.985  39.329  10.434
99399W        W67762  28.600  33.085   4.789
99400W        W67763  41.840  27.625  14.442
99401W        W67764   3.269   6.387   1.897
99402W        W67765  23.512  27.518   3.708
99403W        W67766  44.825  33.877  12.074
99404W        W67767  38.980  21.705  12.044
99405W        W67768  13.727   0.464   2.792
99406W        W67769   8.767  22.083   3.647
99407W        W67770  17.715  12.215   1.879
99408W        W67771  44.810   8.757   3.781
99409W        W67772  28.587  30.468  13.817
99410W        W67773  16.728  16.666   4.676
99411W        W67774   0.901  28.078  11.374
99412W        W67775   6.189  17.224   3.344
99413W        W67776   0.414  21.743  11.378
99414W        W67777  12.341  31.983  12.051
99415W        W67778  39.958  37.083  14.023
99416W        W67779   9.842  33.386  12.082
99417W        W67780  21.100  27.463   1.228
99418W        W67781  36.416  25.533   4.225
99419W        W67782  38.330   4.770  14.885
99420W        W67783  32.009   3.710  13.986
99421W        W67784  22.059  39.491  12.886
99422W        W67785  40.392  28.066   4.618
99423W        W67786   0.783   5.688   1.880
99424W        W67787  22.168  15.113   3.766
99425W        W67788  27.651   8.893  10.404
99426W        W67789  21.151  12.622   3.640
99427W        W67790  33.451  30.510   3.224
99428W        W67791  38.013   8.776  12.466
99429W        W67792  29.135   2.773  14.798
99430W        W67793  29.458  12.691  13.384
99431W        W67794  16.096  22.072   0.330
99432W        W67795  22.103  25.688  10.408
99433W        W67796   3.857   6.747  12.972
99434W        W67797   2.302   3.927   4.114
99435W        W67798  32.537  14.743   1.879
99436W        W67799  42.838  40.358  13.006
99437W        W67800  35.594  31.053   4.782
99438W        W67801  43.952  26.196   1.374
99439W        W67802  34.550   0.828   2.670
99440W        W67803  24.652  10.774   0.322
99441W        W67804   7.674  35.939  12.847
99442W        W67805   4.910  15.158  12.083
99443W        W67806  21.084  36.950  10.497
99444W        W67807  14.589   6.329  10.066
99445W        W67808  30.417  18.215  12.838
99446W        W67809  27.049   5.907   4.778
99447W        W67810   1.972  37.429   3.658
99448W        W67811  14.770  34.384   1.377
99449W        W67812  37.075   2.247   0.939
99450W        W67813  36.877  21.180   0.276
99451W        W67814  15.684  12.164  11.966
99452W        W67815  14.129   4.871   2.223
99453W        W67816   7.201  19.702   4.351
99454W        W67817  44.755  19.086   1.902
99455W        W67818  16.741   9.776  14.964
99456W        W67819  28.077  21.683   3.298
99457W        W67820   8.673   9.364  14.460
99458W        W67821  12.241  11.243  11.111
99459W        W67822  21.686  38.957  12.382
99460W        W67823  40.393  40.990   1.844
99461W        W67824  10.858   6.767   4.267
99462W        W67825  25.704  25.023  14.477
99463W        W67826  10.866  41.436   2.283
99464W        W67827  12.136   7.307  11.980
99465W        W67828   5.437  20.093  12.449
99466W        W67829  37.533  10.339  11.025
99467W        W67830  14.240  19.148  11.058
99468W        W67831   8.381  15.280  13.377
99469W        W67832   0.343  42.000   2.360
99470W        W67833  40.406  31.044   3.658
99471W        W67834   9.229  26.537   3.760
99472W        W67835  10.869  40.508   2.829
99473W        W67836  20.732  34.504   0.403
99474W        W67837  19.196  10.306  10.569
99475W        W67838  37.389  18.583  12.935
99476W        W67839  21.176  27.636  13.950
99477W        W67840  30.577  29.613  12.969
99478W        W67841  38.059  30.420   3.239
99479W        W67842  28.486   4.792  12.083
99480W        W67843  25.615   7.270  10.452
99481W        W67844  17.672  12.807  11.111
99482W        W67845   6.193  25.026   4.778
99483W        W67846  24.148  26.032  12.474
99484W        W67847  34.115   5.360   1.211
99485W        W67848  37.875   9.239   0.406
99486W        W67849   1.451  28.520  13.459
99487W        W67850   4.718  31.600   1.316
99488W        W67851   1.432   3.269   1.710
99489W        W67852  27.055  35.898  11.878
99490W        W67853  19.232  38.547  13.978
99491W        W67854  13.133  27.139   2.794
99492W        W67855   8.192   3.801  10.619
99493W        W67856  23.659  23.695  14.358
99494W        W67857  26.554  12.847  13.364
99495W        W67858  17.160  17.225   4.226
99496W        W67859  33.547  17.291  13.508
99497W        W67860  33.107  25.166   3.271
99498W        W67861  26.171  39.402  12.965
99499W        W67862  11.344  27.460   1.268
99500W        W67863  12.799  24.554   1.221
99501W        W67864  15.642  16.305   9.474
99502W        W67865  29.122  26.611  10.916
99503W        W67866  36.878   1.886   4.671
99504W        W67867  41.910  22.995   2.825
99505W        W67868  29.484  17.098  14.940
99506W        W67869  10.645   8.790   2.880
99507W        W67870  15.114  32.513  11.965
99508W        W67871  15.675  10.757  14.916
99509W        W67872  44.288   4.910  13.932
99510W        W67873  21.247  11.800  12.092
99511W        W67874   9.160   9.197   3.351
99512W        W67875  25.994  12.705   0.936
99513W        W67876   2.451  11.859  14.482
99514W        W67877  26.687   1.392  10.898
99515W        W67878  13.270  29.012   0.819
99516W        W67879  25.605  29.627   3.382
99517W        W67880  21.669  43.336  14.785
99518W        W67881  22.710  16.653  12.459
99519W        W67882   4.943  30.622  11.556
99520W        W67883  34.958  29.115   0.344
99521W        W67884   8.378  12.226  11.455
99522W        W67885  38.043  23.650   2.685
99523W        W67886  27.596  36.546   1.428
99524W        W67887  27.942  44.437   5.316
99525W        W67888  20.625  35.568   4.340
99526W        W67889   9.249  27.194  11.956
99527W        W67890   0.457  18.777   1.701
99528W        W67891  24.583   8.742   4.672
99529W        W67892   6.683  20.256   4.615
99530W        W67893   6.895  40.949   4.783
99531W        W67894  20.127  20.207   3.760
99532W        W67895  16.785  18.619  12.953
99533W        W67896  43.356  42.993   4.822
99534W        W67897  28.135   2.361   4.682
99535W        W67898  33.988  39.927   3.817
99536W        W67899  37.850  44.372   4.637
99537W        W67900   6.260  27.147  14.996
99538W        W67901  38.338  40.404  14.862
99539W        W67902   3.856  24.006  11.009
99540W        W67903  32.026  14.659  11.976
99541W        W67904  13.138  31.509  11.072
99542W        W67905  13.124  42.427  14.416
99543W        W67906   2.924  22.568  14.862
99544W        W67907  36.005  41.995   4.210
99545W        W67908  24.493   0.973   1.788
99546W        W67909  41.394  32.499   3.729
99547W        W67910  16.760  24.011  14.799
99548W        W67911  17.754  22.521  10.151
99549W        W67912  38.915  42.953  12.076
99550W        W67913  24.694  29.506   2.227
99551W        W67914  37.920  40.364   2.755
99552W        W67915  41.787  17.117   0.792
99553W        W67916  31.609   9.300   1.723
99554W        W67917  27.576  28.967   4.734
99555W        W67918  13.249   0.447  14.897
99556W        W67919  40.992  22.213  11.448
99557W        W67920  17.258  17.259   9.646
99558W        W67921  36.550  35.515   3.766
99559W        W67922   2.804   8.824   1.875
99560W        W67923  41.381  40.964   0.457
99561W        W67924  22.124  17.797  12.978
99562W        W67925  23.513  16.649  13.446
99563W        W67926  27.077  12.615  14.464
99564W        W67927  23.575  29.584   2.190
99565W        W67928  37.341   0.890   1.405
99566W        W67929  23.721  36.951  13.429
99567W        W67930  42.853  13.684  10.476
99568W        W67931  42.414  24.100  13.032
99569W        W67932  26.143  35.588   0.906
99570W        W67933  11.225  21.747  10.996
99571W        W67934   2.339  39.379   1.786
99572W        W67935  40.471   1.933   3.780
99573W        W67936  20.715  28.035  11.928
99574W        W67937  43.281  20.255   3.353
99575W        W67938  39.399  30.421   0.951
99576W        W67939  14.783  33.887   2.249
99577W        W67940  41.400  32.400   1.365
99578W        W67941  27.451   0.805  10.433
99579W        W67942   4.260  36.892  13.528
99580W        W67943  43.003  33.454  11.038
99581W        W67944   7.374  37.374  13.046
99582W        W67945  26.203   4.354   1.391
99583W        W67946  35.899  13.330   1.312
99584W        W67947  23.547   2.830   3.774
99585W        W67948  24.081  15.766   0.805
99586W        W67949  41.850   8.865  11.892
99587W        W67950  15.779  12.825  12.062
99588W        W67951  20.195  35.520   1.916
99589W        W67952   0.873  12.670   1.214
99590W        W67953  43.876  14.193  13.508
99591W        W67954  39.888  24.085  10.565
99592W        W67955  19.153  14.252  11.112
99593W        W67956  11.214  23.213   1.290
99594W        W67957  24.024   8.170  11.486
99595W        W67958  34.908   5.830   0.784
99596W        W67959   4.940   7.833   0.922
99597W        W67960   2.910  36.465   3.285
99598W        W67961  36.550  21.652  14.940
99599W        W67962  13.249  21.686   1.909
99600W        W67963   7.702  13.147   0.408
99601W        W67964  43.286  18.172  12.340
99602W        W67965  21.154   4.340   2.348
99603W        W67966  24.531  17.093  11.894
99604W        W67967  12.719  12.295  14.909
99605W        W67968   7.671  41.370   1.897
99606W        W67969  35.577  15.743  13.942
99607W        W67970  20.124   9.330   0.740
99608W        W67971  17.212  37.881   2.258
99609W        W67972  38.568  31.409  11.412
99610W        W67973  27.157  10.638   1.717
99611W        W67974  28.636  22.705  12.878
99612W        W67975  18.714   5.286   0.436
99613W        W67976  11.813  14.704   4.743
99614W        W67977  12.268  26.207  13.906
99615W        W67978  24.158  16.217   0.783
99616W        W67979  19.580  17.294   5.091
99617W        W67980   4.426   2.930   4.254
99618W        W67981   0.965   0.363  10.478
99619W        W67982  19.616  38.907  10.101
99620W        W67983  29.952  31.013   3.212
99621W        W67984  30.516   1.309   5.232
99622W        W67985  31.561  20.104   4.308
99623W        W67986  13.759  39.544  10.528
99624W        W67987  17.261  27.546  14.424
99625W        W67988  17.682  29.513  10.614
99626W        W67989   8.711   4.297   3.368
99627W        W67990   5.791  17.062  13.343
99628W        W67991  10.181   9.875  14.954
99629W        W67992   6.817   4.870   1.754
99630W        W67993  31.027  31.497   2.813
99631W        W67994  13.722  13.208  13.998
99632W        W67995   7.810  27.571  14.284
99633W        W67996   0.779  21.246  13.355
99634W        W67997  28.984  13.837   5.712
99635W        W67998   8.204  23.170  12.418
99636W        W67999  19.772   1.422   3.361
99637W        W68000  42.387  16.589  11.921
99638W        W68001  16.161   1.959  12.430
99639W        W68002   6.918  16.689  10.486
99640W        W68003  38.970  23.183  11.921
99641W        W68004  29.068   9.687   1.888
99642W        W68005  41.390  44.831  12.560
99643W        W68006  37.930  13.648  14.930
99644W        W68007  20.724  11.723   4.817
99645W        W68008  35.386  33.893   2.680
99646W        W68009  31.052  30.094  12.442
99647W        W68010  17.756  25.515   1.318
99648W        W68011   2.741  26.611   3.205
99649W        W68012  11.654  19.272  10.946
99650W        W68013   0.963  33.593  12.448
99651W        W68014  32.493  44.978  11.919
99652W        W68015  23.665  21.648  12.869
99653W        W68016  37.048  23.551   2.382
99654W        W68017  44.272  15.747   2.177
99655W        W68018  23.195  24.495  11.029
99656W        W68019  15.133   9.302  14.969
99657W        W68020  20.038  33.050  12.913
99658W        W68021  24.556  30.534  10.507
99659W        W68022  10.208  40.824   3.796
99660W        W68023  29.485  11.728  12.850
99661W        W68024  41.450  41.307   3.705
99662W        W68025  31.606   9.184   4.142
99663W        W68026   0.874   7.337  10.514
99664W        W68027  36.501  24.987   4.121
99665W        W68028  24.608  42.303  14.842
99666W        W68029  32.124  12.332  14.844
99667W        W68030  39.506  15.790   4.114
99668W        W68031   6.727  29.476  11.105
99669W        W68032  23.636   6.247  12.455
99670W        W68033  29.125  34.043  14.856
99671W        W68034  35.538  23.491   0.303
99672W        W68035  40.041  19.633  14.367
99673W        W68036  32.435  36.403   3.857
99674W        W68037   3.460  26.498   4.778
99675W        W68038  23.498  43.911  12.491
99676W        W68039  34.573   0.357  13.979
99677W        W68040   6.892  41.435  10.553
99678W        W68041  32.118  44.790  14.901
99679W        W68042  32.092  34.390   1.849
99680W        W68043  43.313   7.351   4.351
99681W        W68044   1.272  10.183   4.661
99682W        W68045   7.829   3.404  12.580
99683W        W68046   4.387  19.583   2.725
99684W        W68047  17.240  21.053   3.649
99685W        W68048   8.192  10.815   3.716
99686W        W68049  44.469  29.481   0.396
99687W        W68050  32.443  42.459  12.987
99688W        W68051  24.622  13.303  12.841
99689W        W68052  16.667  44.770   0.261
99690W        W68053  18.634  37.579  12.073
99691W        W68054  35.394  14.705   1.932
99692W        W68055  16.675  34.081   3.849
99693W        W68056  28.061  41.802   2.408
99694W        W68057   0.439  23.131   5.190
99695W        W68058  27.611  10.209   3.218
99696W        W68059  44.001  23.562   3.230
99697W        W68060  16.672  37.498   3.658
99698W        W68061  24.561   2.769   4.265
99699W        W68062  25.541  16.665  14.390
99700W        W68063  31.429   9.738  14.792
99701W        W68064  15.727  31.987   4.707
99702W        W68065  39.361  41.431   4.730
99703W        W68066  24.105  40.442  14.800
99704W        W68067  42.925  27.480   1.365
99705W        W68068   1.477  12.120   3.365
99706W        W68069  40.885  21.636   3.756
99707W        W68070  41.959  21.112  14.859
99708W        W68071  32.630   2.244  11.377
99709W        W68072   4.844   8.849  13.458
99710W        W68073  16.163  11.645  13.905
99711W        W68074  10.685   8.665  11.400
99712W        W68075  31.453  29.124   1.312
99713W        W68076  23.657  38.471  13.432
99714W        W68077   8.250  33.601   2.347
99715W        W68078  41.828  38.899   3.768
99716W        W68079  32.591  30.533  13.026
99717W        W68080  44.494   6.337   2.181
99718W        W68081  35.109  22.608  13.001
99719W        W68082  25.482  15.292  11.519
99720W        W68083  33.986  21.684   0.939
99721W        W68084  41.967  44.311   3.265
99722W        W68085  15.182  11.863  14.893
99723W        W68086  18.071  29.067  12.381
99724W        W68087  21.713  31.443  11.536
99725W        W68088  34.965   2.786  10.421
99726W        W68089  40.915  13.314   2.414
99727W        W68090  23.651   6.825  13.546
99728W        W68091   9.878  11.820  11.921
99729W        W68092  19.558  10.659  13.369
99730W        W68093  44.260   0.279   3.817
99731W        W68094  33.418  44.275   9.543
99732W        W68095  40.526  38.926  14.335
99733W        W68096  17.639   1.733   2.248
99734W        W68097  35.503  28.098   0.726
99735W        W68098  14.658  40.851   1.876
99736W        W68099  21.065   7.716   5.100
99737W        W68100  17.684  21.190  13.055
99738W        W68101   9.728  33.420   1.855
99739W        W68102   3.815   0.490   0.422
99740W        W68103  16.249  39.491  11.405
99741W        W68104  38.864  35.448   2.186
99742W        W68105  43.953  11.723   4.170
99743W        W68106  28.174   8.853  14.958
99744W        W68107  39.934  31.514  14.901
99745W        W68108  33.431  39.063  10.942
99746W        W68109   0.756  18.290   3.784
99747W        W68110  22.107  32.046  11.522
99748W        W68111   5.296  27.017   1.363
99749W        W68112  31.521   1.245  10.102
99750W        W68113  30.533  30.914   3.349
99751W        W68114  37.840  29.941   4.311
99752W        W68115   2.898  16.173   3.777
99753W        W68116  22.085  28.155   3.726
99754W        W68117  17.273  21.513  13.357
99755W        W68118  11.743  16.226  11.438
99756W        W68119   3.304  15.166   4.706
99757W        W68120  44.318  18.067  13.868
99758W        W68121  27.606  41.376  11.952
99759W        W68122  44.882  33.930   0.796
99760W        W68123  34.074  21.177   0.409
99761W        W68124  37.565  20.124  13.879
99762W        W68125  18.052  23.168   0.437
99763W        W68126  18.248  42.507  12.011
99764W        W68127  15.649  22.517   1.338
99765W        W68128  26.492   6.393   2.693
99766W        W68129  23.160  20.164  11.937
99767W        W68130   0.321  12.120  10.446
99768W        W68131  31.539  10.313  12.434
99769W        W68132  21.729  19.276   2.799
99770W        W68133  21.535  23.510  11.905
99771W        W68134  25.989  42.373  13.516
99772W        W68135  40.506  17.798   0.341
99773W        W68136  31.135   0.368  10.414
99774W        W68137   3.416  43.323   9.460
99775W        W68138  26.643  43.380  11.014
99776W        W68139   7.860  19.578   1.870
99777W        W68140   0.453   5.774   3.245
99778W        W68141   8.673   8.891   3.187
99779W        W68142   3.358  29.100  11.491
99780W        W68143  39.451  29.014   1.881
99781W        W68144   6.706  34.557   3.356
99782W        W68145   2.338  13.105  10.466
99783W        W68146  37.356   9.744   9.978
99784W        W68147   3.428  16.795  12.390
99785W        W68148  16.253   8.316  12.514
99786W        W68149  10.274  41.813   3.859
99787W        W68150  14.809  25.664  11.521
99788W        W68151   0.973  35.061  14.872
99789W        W68152  23.226   2.917   2.865
99790W        W68153  12.206  31.904  13.416
99791W        W68154  22.604  27.037  12.011
99792W        W68155  38.892  28.672  14.344
99793W        W68156   9.849  41.037  13.038
99794W        W68157  15.634  22.094   0.918
99795W        W68158   5.432  38.903  14.421
99796W        W68159  18.655   8.844  12.436
99797W        W68160  33.422   8.164   4.135
99798W        W68161  29.512  25.061   1.843
99799W        W68162  31.029  37.004  14.783
99800W        W68163  25.971  38.016  12.409
99801W        W68164   5.735  24.096  14.885
99802W        W68165  36.499   5.902   0.420
99803W        W68166  43.377  28.939  10.635
99804W        W68167  28.505  19.748  10.462
99805W        W68168  24.029  18.107  10.025
99806W        W68169  31.605  16.696  13.512
99807W        W68170  18.744  39.552  13.486
99808W        W68171  30.104  28.110   1.271
99809W        W68172  13.787  38.441   4.342
99810W        W68173   5.738   7.326   0.925
99811W        W68174  10.828  39.478   1.266
99812W        W68175  23.179  25.648   3.170
99813W        W68176  31.582  34.953   4.311
99814W        W68177  18.745  31.069  10.552
99815W        W68178  16.613  34.415  14.828
99816W        W68179  30.636  27.503   0.293
99817W        W68180  37.082  36.010  12.920
99818W        W68181  26.506  10.855   2.337
99819W        W68182   8.667  16.182   0.763
99820W        W68183  15.201  41.041  12.478
99821W        W68184   8.687  41.311   2.318
99822W        W68185  16.730   8.852  11.456
99823W        W68186   8.753  21.559  14.315
99824W        W68187  42.778  30.083   0.808
99825W        W68188   3.322  31.579  11.903
99826W        W68189  10.699  41.437  12.070
99827W        W68190  44.890  31.606  10.457
99828W        W68191  26.604  11.838   2.247
99829W        W68192  25.711  14.688   5.804
99830W        W68193  22.567  33.920  14.351
99831W        W68194   4.411   7.818  10.430
99832W        W68195  19.643  23.545   3.649
99833W        W68196   1.846  20.572  11.028
99834W        W68197   5.855  16.745   4.197
99835W        W68198  40.445  34.406   0.362
99836W        W68199   8.235  39.878  11.990
99837W        W68200   7.256  25.590  13.015
99838W        W68201  35.433  44.359  13.980
99839W        W68202  19.175   8.735  14.338
99840W        W68203  24.042   6.341  14.310
99841W        W68204   2.730  37.346  12.409
99842W        W68205  43.349  28.462   1.794
99843W        W68206  28.509  15.813   2.195
99844W        W68207  32.986  12.208   2.688
99845W        W68208  18.187  14.103  11.001
99846W        W68209  27.122  15.780  13.348
99847W        W68210  35.546  33.584  10.974
99848W        W68211  42.522  13.827   1.404
99849W        W68212  15.790  39.339   3.636
99850W        W68213  12.221  26.052  12.930
99851W        W68214  12.840  16.195   0.728
99852W        W68215   3.338  30.619   3.271
99853W        W68216   2.370   1.247  11.400
99854W        W68217  29.954   9.664   3.373
99855W        W68218  41.328  43.446  11.394
99856W        W68219  38.942   5.192   2.732
99857W        W68220  10.815   5.256  14.026
99858W        W68221  39.331   0.326  14.983
99859W        W68222  39.424  33.098  11.916
99860W        W68223   1.845  31.014  10.617
99861W        W68224  23.154  35.873   1.250
99862W        W68225   3.751  23.137   4.794
99863W        W68226  39.063  33.444  13.981
99864W        W68227  28.115   0.904  14.944
99865W        W68228  25.587  22.526   4.642
99866W        W68229   0.742  44.958   4.669
99867W        W68230  31.014  35.504  12.047
99868W        W68231   4.427  17.685   1.362
99869W        W68232  28.595  20.616   3.302
99870W        W68233  21.147  22.650  13.440
99871W        W68234   0.809  41.453   3.724
99872W        W68235  43.277  44.880  13.060
99873W        W68236  13.224  11.151  11.613
99874W        W68237  15.327  36.483  11.421
99875W        W68238  28.074  30.497   3.743
99876W        W68239   6.824  33.618   2.712
99877W        W68240  28.562   0.972   1.934
99878W        W68241  32.969   2.247   2.250
99879W        W68242  24.157  36.369   3.381
99880W        W68243  23.682  42.425   2.723
99881W        W68244  15.620  19.224  11.888
99882W        W68245  21.168  29.080   0.771
99883W        W68246  33.879  40.036   0.778
99884W        W68247  19.756  30.500   1.699
99885W        W68248  15.728   7.869   4.252
99886W        W68249  30.522   3.449   4.701
99887W        W68250  35.909  43.512  14.975
99888W        W68251   8.173  23.002  11.943
99889W        W68252  42.842  27.504  12.384
99890W        W68253  31.065  41.022  12.400
99891W        W68254  10.145   6.194   1.802
99892W        W68255  42.506  25.611   0.918
99893W        W68256  26.150  44.766  11.056
99894W        W68257  35.044  42.343  11.026
99895W        W68258  35.059  18.670  12.459
99896W        W68259  14.717  34.920   3.170
99897W        W68260  18.785  29.433   0.440
99898W        W68261  21.745  19.153  12.488
99899W        W68262   7.715  34.023  11.046
99900W        W68263  12.790  23.701   3.690
99901W        W68264  15.669   5.197  13.478
99902W        W68265  23.110  29.576  12.024
99903W        W68266   0.941   7.905   4.806
99904W        W68267  19.719  34.473   2.378
99905W        W68268  31.494   2.892  11.578
99906W        W68269  12.701  29.108  11.438
99907W        W68270  23.119  21.615   4.622
99908W        W68271  25.665  38.451   2.819
99909W        W68272  10.219   3.952   1.413
99910W        W68273  33.041  43.799   2.270
99911W        W68274  11.757  30.924   1.832
99912W        W68275  28.564   9.679  11.474
99913W        W68276  43.314  20.037   3.661
99914W        W68277  11.201  28.033   0.747
99915W        W68278  21.074  39.060  13.494
99916W        W68279  27.001  43.885  13.864
99917W        W68280   8.774   1.809  10.614
99918W        W68281  41.013   5.368  12.472
99919W        W68282   1.373  31.018   2.776
99920W        W68283  31.479  44.452  11.055
99921W        W68284   5.772  15.084   3.256
99922W        W68285  21.121   1.770  10.916
99923W        W68286  27.585  40.923  13.310
99924W        W68287  17.257  22.538   3.668
99925W        W68288  17.155  42.426   0.755
99926W        W68289  20.177  33.594   1.743
99927W        W68290   2.417   1.304   5.120
99928W        W68291  11.836   6.735  14.422
99929W        W68292  28.562  11.336  13.915
99930W        W68293  34.549  22.623  10.455
99931W        W68294  11.770  36.362  12.883
99932W        W68295  30.629  44.346   1.802
99933W        W68296  34.567  29.463   3.638
99934W        W68297  13.242   7.257  10.404
99935W        W68298  26.181  31.475   4.340
99936W        W68299  11.849   5.820  11.406
99937W        W68300  43.925  16.633  11.077
99938W        W68301  15.120  30.488  11.387
99939W        W68302  33.955  17.686  11.120
99940W        W68303  34.045  19.617  10.956
99941W        W68304  23.991  28.547  13.427
99942W        W68305  41.863  32.505  10.575
99943W        W68306  17.239   6.251  13.035
99944W        W68307  37.545  36.507   2.366
99945W        W68308  33.416   1.409  14.290
99946W        W68309   6.784  35.929  11.579
99947W        W68310  35.595  19.120   4.118
99948W        W68311  42.307  22.651  12.096
99949W        W68312   4.339  24.666   4.342
99950W        W68313  26.651  15.099  11.457
99951W        W68314  36.386  21.252   0.828
99952W        W68315   5.931   1.744  12.536
99953W        W68316  11.260  24.566   2.705
99954W        W68317  21.736  22.651  12.981
99955W        W68318  35.950  15.270   0.808
99956W        W68319  19.745   1.914  11.497
99957W        W68320  17.581  21.692  13.036
99958W        W68321  32.588   2.920  11.576
99959W        W68322  14.632  16.173   2.845
99960W        W68323  10.839  14.293   1.230
99961W        W68324  35.505  38.002  11.375
99962W        W68325   0.817  17.069   0.735
99963W        W68326   6.780  28.558   1.889
99964W        W68327  19.255  10.870  12.509
99965W        W68328  24.061  32.436   2.680
99966W        W68329  31.969  20.057  12.991
99967W        W68330  42.848  21.249   0.255
99968W        W68331   0.794  31.140  12.064
99969W        W68332  11.285  44.496  10.994
99970W        W68333   4.214   9.340  10.608
99971W        W68334  26.643  14.315   0.782
99972W        W68335   1.843  32.086   4.817
99973W        W68336  13.793  33.111  14.373
99974W        W68337  26.966  13.833  14.841
99975W        W68338   3.934  24.138  12.893
99976W        W68339  11.663  34.456  10.993
99977W        W68340  20.597  31.486   1.885
99978W        W68341   5.318  42.304  12.861
99979W        W68342   4.774  11.242   9.934
99980W        W68343  13.627  21.212  12.891
99981W        W68344  23.091  34.013  11.959
99982W        W68345  28.661  31.626   2.194
99983W        W68346  42.816  36.502   3.235
99984W        W68347  36.911   9.238  13.362
99985W        W68348  11.322  35.002  12.862
99986W        W68349  27.958  41.310  13.008
99987W        W68350  44.331   8.241   0.374
99988W        W68351  18.593   9.366  13.993
99989W        W68352  13.683  14.338   1.844
99990W        W68353   3.331  29.448  14.000
99991W        W68354  27.525  18.668  13.792
99992W        W68355  32.555  38.389  12.418
99993W        W68356  44.974  22.694   0.398
99994W        W68357   2.408   0.486  14.942
99995W        W68358  38.425  28.616   3.252
99996W        W68359   6.746   7.869  11.416
99997W        W68360  17.129   7.347  11.385
99998W        W68361  32.960  11.791  11.519
99999W        W68362  25.566  20.621  14.980
    0W        W68363  33.086  41.446  10.887
    1W        W68364   1.920  14.237  13.800
    2W        W68365   2.263   7.895  14.514
    3W        W68366  26.539   9.275   3.726
    4W        W68367  16.158  25.701   3.743
    5W        W68368   7.752  30.486   4.752
    6W        W68369  17.135  16.277  11.106
    7W        W68370  17.306  19.550  13.953
    8W        W68371  14.621  11.239   3.706
    9W        W68372   0.981  37.029   2.871
   10W        W68373  38.467   3.903  11.870
   11W        W68374   0.303  26.202   4.828
   12W        W68375  43.422   2.317  10.453
   13W        W68376   8.715   6.680   2.250
   14W        W68377  41.323  31.534   2.389
   15W        W68378   6.210  15.111  13.897
   16W        W68379  21.204  15.645   5.266
   17W        W68380  13.790  33.108  11.012
   18W        W68381  43.937  24.085  10.519
   19W        W68382  31.013   2.834   3.224
   20W        W68383  36.453   7.339   9.970
   21W        W68384  32.080  33.532   0.301
   22W        W68385  14.329  41.829   3.214
   23W        W68386  41.950  37.364  12.935
   24W        W68387  26.033   2.905  13.911
   25W        W68388  18.065  21.630  11.495
   26W        W68389  11.271  11.293  13.966
   27W        W68390  38.862  23.525   0.294
   28W        W68391  38.387   4.261  10.625
   29W        W68392  23.070  44.403  14.018
   30W        W68393  24.008   9.798   0.295
   31W        W68394  20.710  13.643   0.820
   32W        W68395  26.078  23.651   0.794
   33W        W68396  32.098   6.280  13.903
   34W        W68397  29.045   7.270  13.045
   35W        W68398  20.632  22.025   0.883
   36W        W68399  15.114  36.544   1.277
   37W        W68400  43.978  20.262   3.148
   38W        W68401   6.262  11.227   0.261
   39W        W68402  42.870  37.871  10.100
   40W        W68403  16.614  37.991  12.995
   41W        W68404  21.227  21.618  12.024
   42W        W68405  19.245  41.038  13.960
   43W        W68406  29.576  22.587   4.120
   44W        W68407   1.740  13.308   2.228
   45W        W68408  11.356  22.127  12.941
   46W        W68409   3.387   0.937   2.807
   47W        W68410  33.511  16.710   2.280
   48W        W68411  20.583  19.764  13.438
   49W        W68412  33.912  18.764   4.667
   50W        W68413  36.381  33.128  12.375
   51W        W68414  24.595  13.696  13.316
   52W        W68415  12.699  16.738  11.442
   53W        W68416   8.357  25.970   1.778
   54W        W68417  15.632   2.964   0.380
   55W        W68418  26.557  13.785   0.462
   56W        W68419  14.591  10.267   1.800
   57W        W68420  14.144  40.875   1.428
   58W        W68421  17.155  18.160   5.738
   59W        W68422  32.088  23.625  10.939
   60W        W68423  40.998  13.679   2.899
   61W        W68424  41.329  10.852   1.433
   62W        W68425   4.408  35.540   2.305
   63W        W68426   5.707  30.556  10.916
   64W        W68427  22.127  44.801   1.740
   65W        W68428  28.998  27.150  14.997
   66W        W68429  29.957  15.578   2.238
   67W        W68430   6.230  12.854   5.121
   68W        W68431  40.418   8.724   2.321
   69W        W68432   4.249  15.220   0.308
   70W        W68433   1.378  24.980  12.340
   71W        W68434  25.203  22.683  10.967
   72W        W68435  28.472  23.555   4.276
   73W        W68436  31.522  29.613   2.738
   74W        W68437  38.867  28.510   2.311
   75W        W68438  38.944  42.341   1.772
   76W        W68439  24.184  24.023  12.467
   77W        W68440  17.093   7.734   0.375
   78W        W68441  42.453  10.811   1.799
   79W        W68442  42.939   0.494   4.769
   80W        W68443  20.222  29.000  11.904
   81W        W68444  20.769   2.407   3.850
   82W        W68445  39.501  38.347  10.985
   83W        W68446  10.849  32.623  13.796
   84W        W68447  14.340   8.383  12.573
   85W        W68448  28.478   1.891  12.470
   86W        W68449  27.525  12.255   0.424
   87W        W68450  16.281  22.214   1.868
   88W        W68451   1.412  28.139  14.893
   89W        W68452   2.237  18.788   3.722
   90W        W68453   1.892  29.599   3.858
   91W        W68454  41.886  13.132   0.858
   92W        W68455  11.166  15.755   2.730
   93W        W68456  34.528  25.647  13.385
   94W        W68457  27.073  21.716  13.541
   95W        W68458  26.084  30.005   0.344
   96W        W68459  24.499  13.298   1.753
   97W        W68460   9.359  16.758   4.701
   98W        W68461  44.765   0.786  14.879
   99W        W68462  15.268  18.215   5.643
  100W        W68463  25.210  13.235   3.789
  101W        W68464   0.938   8.729  14.409
  102W        W68465  35.603  30.140   4.332
  103W        W68466  27.456  34.504   0.753
  104W        W68467   6.781  18.178   1.393
  105W        W68468   4.729  24.486   1.231
  106W        W68469  37.978  30.920   0.479
  107W        W68470  33.101  41.529   1.925
  108W        W68471  39.932  14.736   2.388
  109W        W68472  25.546   5.737   2.340
  110W        W68473  24.175  34.067   3.736
  111W        W68474  21.658  41.854   3.643
  112W        W68475  38.072  13.773  14.488
  113W        W68476  26.524   4.436  12.002
  114W        W68477  23.991  33.427   0.271
  115W        W68478  30.947  16.306   2.221
  116W        W68479  31.564  21.727  14.388
  117W        W68480  18.170  35.491  10.454
  118W        W68481  22.141  15.157  12.085
  119W        W68482   5.247  16.583  11.488
  120W        W68483   4.207  15.664  14.475
  121W        W68484  23.040  38.902   2.762
  122W        W68485   9.665  25.601   3.204
  123W        W68486  13.844  34.529  14.910
  124W        W68487  38.984   9.244  14.505
  125W        W68488  31.051  29.003   0.423
  126W        W68489  13.237   4.792   3.676
  127W        W68490  22.674   3.289   1.735
  128W        W68491  16.601  14.103   4.267
  129W        W68492   7.233  41.996  11.550
  130W        W68493  40.459  24.709  14.500
  131W        W68494  17.293  39.897   2.679
  132W        W68495  29.623  30.063   9.975
  133W        W68496  38.365  12.653   0.903
  134W        W68497   7.310  22.537  14.303
  135W        W68498  32.912  37.354  14.960
  136W        W68499   8.334  11.707   1.238
  137W        W68500  26.151  44.483  14.008
  138W        W68501  31.456  41.365  13.044
  139W        W68502  42.522   0.861  13.900
  140W        W68503  38.477  28.181  14.773
  141W        W68504   9.182  39.469   0.906
  142W        W68505  32.548   6.370  13.006
  143W        W68506  37.948  25.553  12.085
  144W        W68507  34.055  33.392  11.112
  145W        W68508  24.095  41.411  12.063
  146W        W68509  14.153  23.681   0.947
  147W        W68510  17.188  25.523  12.867
  148W        W68511  30.485  20.137   2.903
  149W        W68512  40.313   6.291   1.793
  150W        W68513  35.403  43.481   3.839
  151W        W68514  14.737   6.188  14.476
  152W        W68515  17.572   4.764   4.253
  153W        W68516   7.756  10.320   5.172
  154W        W68517  24.670   6.278   1.765
  155W        W68518  26.200  31.013  13.889
  156W        W68519  14.099   3.756   2.413
  157W        W68520  43.949   5.230   0.929
  158W        W68521  24.123   9.331   1.246
  159W        W68522   8.793  14.783  13.463
  160W        W68523  40.533  31.551  13.798
  161W        W68524  10.337  10.184   5.250
  162W        W68525  19.658   2.825  13.416
  163W        W68526  11.776  43.886   4.691
  164W        W68527  30.576  26.042  14.451
  165W        W68528   7.678  20.638   3.752
  166W        W68529  39.536   4.220   3.153
  167W        W68530  43.372   1.802  10.462
  168W        W68531   2.834   0.901   3.360
  169W        W68532  29.121  14.159   2.896
  170W        W68533  24.692  31.639  12.380
  171W        W68534   7.205   9.714   3.264
  172W        W68535  13.238   1.935   2.755
  173W        W68536  16.108  26.126   1.368
  174W        W68537  21.632  11.819  12.030
  175W        W68538  17.159  15.580  10.530
  176W        W68539  41.983  35.480   1.746
  177W        W68540   6.395  23.216  11.914
  178W        W68541   5.287  38.985  12.848
  179W        W68542  29.442   5.835   3.262
  180W        W68543  35.912  33.466   0.477
  181W        W68544  35.395   7.201  13.341
  182W        W68545  34.564  43.798   2.296
  183W        W68546   2.376  40.979  14.450
  184W        W68547   9.350  15.610  14.471
  185W        W68548   3.223  37.948  14.976
  186W        W68549  18.788  11.338   2.307
  187W        W68550   5.206  17.304   2.667
  188W        W68551  11.809   2.956  10.610
  189W        W68552  38.378  25.712   0.409
  190W        W68553  40.417  15.628   0.749
  191W        W68554  12.710   1.805   2.311
  192W        W68555   9.877  37.411  13.915
  193W        W68556  29.073  26.532  10.406
  194W        W68557  42.896   0.751   3.336
  195W        W68558  38.980  10.753  11.106
  196W        W68559  22.693  28.549  14.458
  197W        W68560  35.968  16.237  11.521
  198W        W68561  35.396  13.693   4.635
  199W        W68562  23.643  18.185   2.213
  200W        W68563  10.788  17.578   1.440
  201W        W68564  38.473   6.280  13.951
  202W        W68565  41.800  17.792  12.959
  203W        W68566  11.683  30.061  12.844
  204W        W68567   0.272  36.902   2.221
  205W        W68568   6.336  44.379  14.762
  206W        W68569  32.391  13.641   3.159
  207W        W68570  28.018   5.775  13.828
  208W        W68571  35.856   7.374   4.307
  209W        W68572  20.153   8.198  14.897
  210W        W68573  43.510  26.637  13.335
  211W        W68574  16.665  28.064  13.961
  212W        W68575   6.697  40.420  14.326
  213W        W68576  38.869  43.910   3.210
  214W        W68577  17.075   9.226  13.941
  215W        W68578  43.953  43.403  11.574
  216W        W68579  19.634   0.347  14.909
  217W        W68580  36.547  31.993  10.918
  218W        W68581   7.368  32.081  11.901
  219W        W68582  44.885   0.879  12.346
  220W        W68583  18.071  44.921   2.216
  221W        W68584  43.306  10.802   1.292
  222W        W68585   9.242  22.727  12.843
  223W        W68586   4.903  34.404  10.428
  224W        W68587  37.421  32.955   3.372
  225W        W68588  25.571  21.158  12.513
  226W        W68589  42.515   6.288  13.919
  227W        W68590  24.629  22.675  14.938
  228W        W68591  37.500  37.390  10.627
  229W        W68592  43.789   6.744  12.051
  230W        W68593  22.066  42.353  10.541
  231W        W68594   8.260   8.680  14.294
  232W        W68595   5.265  10.230  13.344
  233W        W68596  40.379  26.499  13.341
  234W        W68597  23.006  20.227  10.599
  235W        W68598  26.093   9.393  11.057
  236W        W68599  35.874  31.968   4.214
  237W        W68600  36.463  14.792  14.822
  238W        W68601  12.297  38.350  12.448
  239W        W68602   0.268  22.141  12.970
  240W        W68603   7.410   2.901   0.359
  241W        W68604  30.022  30.995   0.917
  242W        W68605  41.447  29.651   3.208
  243W        W68606  22.576  18.711  14.941
  244W        W68607  28.042  25.555   2.807
  245W        W68608  12.838   1.406   2.838
  246W        W68609  24.628  29.650   4.824
  247W        W68610  12.647  34.024  11.437
  248W        W68611   5.369  32.962   4.196
  249W        W68612  36.417   6.857  13.507
  250W        W68613   6.329   5.877   2.701
  251W        W68614  20.654  30.997  12.059
  252W        W68615   8.378  20.076  10.625
  253W        W68616  43.464  23.501  13.028
  254W        W68617  35.396  25.711  13.863
  255W        W68618  25.174  26.502  11.391
  256W        W68619  43.408  13.130  10.896
  257W        W68620   4.281  38.050  12.458
  258W        W68621   3.800  16.644   4.758
  259W        W68622  39.874  44.905   3.213
  260W        W68623  13.223   4.284   9.961
  261W        W68624   1.361  31.477   3.327
  262W        W68625  23.085  20.216   3.284
  263W        W68626  23.234  19.642  11.577
  264W        W68627  34.571   1.471  14.984
  265W        W68628  16.770   4.406   0.944
  266W        W68629  26.461  21.528   1.298
  267W        W68630  39.430  22.735   0.875
  268W        W68631  21.707  18.053   2.385
  269W        W68632  24.982  28.655  12.992
  270W        W68633  16.729  14.296   0.758
  271W        W68634  39.976  12.230   9.645
  272W        W68635  39.877  39.413   2.739
  273W        W68636  38.999  18.643   2.369
  274W        W68637  23.650  28.953  12.951
  275W        W68638  39.896  40.819  13.975
  276W        W68639  26.582   5.421  13.020
  277W        W68640  16.660  14.326  11.486
  278W        W68641   9.306  10.143   4.612
  279W        W68642  22.509  17.776   1.412
  280W        W68643  29.939  21.628  12.073
  281W        W68644  31.006  30.084   2.212
  282W        W68645  30.454  25.527  12.528
  283W        W68646  39.508  41.293   2.674
  284W        W68647   5.870   7.202  14.504
  285W        W68648  11.155  22.159  12.341
  286W        W68649   3.860   9.788   0.341
  287W        W68650  26.007  24.087  14.369
  288W        W68651  38.405  29.010   4.725
  289W        W68652   2.407  31.067   3.722
  290W        W68653   7.715  20.268   2.685
  291W        W68654   3.788  26.580  13.878
  292W        W68655  23.618  33.128  11.503
  293W        W68656   0.924  28.061   4.638
  294W        W68657   4.776  25.569  13.851
  295W        W68658  21.104   1.742  10.447
  296W        W68659  42.527  32.961  10.965
  297W        W68660   9.318   4.869   3.251
  298W        W68661   3.879  20.753   2.760
  299W        W68662  10.782  12.644   2.276
  300W        W68663  40.972  40.336   4.684
  301W        W68664  35.571   2.923  13.844
  302W        W68665  23.206  40.529   3.226
  303W        W68666  16.106  10.142  14.380
  304W        W68667  15.274  22.684   1.835
  305W        W68668  37.976  25.641  11.539
  306W        W68669  18.705  29.464   2.181
  307W        W68670  35.890   2.788   4.744
  308W        W68671  36.075  37.360  14.497
  309W        W68672  25.020  35.527   0.335
  310W        W68673  44.928  38.565  10.468
  311W        W68674  30.475   2.348   4.667
  312W        W68675  38.969  30.102  12.947
  313W        W68676  39.358  10.826   1.811
  314W        W68677  17.270  37.943  10.504
  315W        W68678  16.645  33.431  11.028
  316W        W68679   2.313  17.721   0.323
  317W        W68680  27.642  40.513   4.656
  318W        W68681   9.827  42.860  12.073
  319W        W68682  25.547   7.332  12.954
  320W        W68683  25.555  38.861   4.323
  321W        W68684  35.530  15.720   3.673
  322W        W68685  18.552  16.646  14.416
  323W        W68686  16.720  29.630   1.245
  324W        W68687  23.147  40.857  12.374
  325W        W68688  25.175  34.460  13.523
  326W        W68689  22.251  30.100  13.371
  327W        W68690  42.887  44.956  11.880
  328W        W68691  31.488  35.595  13.954
  329W        W68692  28.488   9.774  13.053
  330W        W68693  12.252  34.550   1.825
  331W        W68694   4.441  34.475   2.323
  332W        W68695  31.139  13.303  11.880
  333W        W68696   9.183   2.472  12.429
  334W        W68697  24.499   8.371   2.787
  335W        W68698  38.984  32.391  13.344
  336W        W68699  39.001  31.078   0.844
  337W        W68700  14.148  31.479   2.390
  338W        W68701  41.414  19.063  10.415
  339W        W68702  11.264  20.660  12.862
  340W        W68703  20.766  41.877  11.506
  341W        W68704  36.521  11.284  12.938
  342W        W68705  16.615  44.861   0.892
  343W        W68706  29.558  10.146  12.029
  344W        W68707  14.156  35.555  11.909
  345W        W68708  41.862  39.831   2.684
  346W        W68709  33.624  44.490   0.354
  347W        W68710   3.799  20.708  10.917
  348W        W68711  19.715  28.584   4.293
  349W        W68712  36.515   1.266   1.411
  350W        W68713  17.302  30.468   4.772
  351W        W68714  44.808  23.501  11.374
  352W        W68715   5.201  16.653   3.716
  353W        W68716  11.322  42.326  10.478
  354W        W68717  17.177  14.608   4.145
  355W        W68718  15.617   2.373   3.791
  356W        W68719  29.543  13.141   0.884
  357W        W68720  39.464  20.054  14.985
  358W        W68721  27.540  21.258  10.587
  359W        W68722   8.739   2.872   2.881
  360W        W68723  17.612  34.948  12.367
  361W        W68724  22.106  27.565   0.955
  362W        W68725  21.221   2.415  14.336
  363W        W68726  40.950  23.994  13.928
  364W        W68727  38.821  34.566  11.440
  365W        W68728  44.492  37.544  13.805
  366W        W68729  44.488   4.883   0.403
  367W        W68730  15.234   0.744  13.988
  368W        W68731  15.803  30.955   1.302
  369W        W68732  15.675  12.619   1.903
  370W        W68733  34.990  30.916  11.542
  371W        W68734  39.882  13.161   1.814
  372W        W68735  40.394   8.762  10.929
  373W        W68736  29.030  37.045   1.711
  374W        W68737  28.583   7.391  10.427
  375W        W68738  28.543  22.661  12.569
  376W        W68739  36.430  39.326   3.149
  377W        W68740   4.737  37.509  10.113
  378W        W68741   9.852  39.897   4.315
  379W        W68742  15.786  43.781  13.873
  380W        W68743  27.164  14.681  10.926
  381W        W68744   0.407   4.252   2.784
  382W        W68745  43.487  29.049  11.528
  383W        W68746   2.925  23.021   0.901
  384W        W68747  21.068  26.521  13.467
  385W        W68748  22.643  24.104  14.996
  386W        W68749  36.851   7.699  14.946
  387W        W68750  39.517   4.740   2.411
  388W        W68751  11.173  24.123   4.686
  389W        W68752   8.691   3.885   0.951
  390W        W68753  19.105  20.726  10.517
  391W        W68754   3.403  18.104   0.957
  392W        W68755  44.969  31.971   4.815
  393W        W68756  13.722   2.373  12.054
  394W        W68757  12.768  15.194   0.940
  395W        W68758   3.456  33.477   1.246
  396W        W68759  13.210   0.471  10.615
  397W        W68760  28.495  11.799   1.229
  398W        W68761  44.288  30.982  14.830
  399W        W68762  33.088  23.611  14.344
  400W        W68763  35.038  14.679   0.420
  401W        W68764  28.493   3.250   3.720
  402W        W68765  14.147  13.330  11.431
  403W        W68766  36.858   2.851   3.655
  404W        W68767  24.719  22.140   4.346
  405W        W68768  15.314  32.565   4.632
  406W        W68769  44.998  30.027  13.871
  407W        W68770  34.486  41.411  14.506
  408W        W68771   5.304  20.754   3.748
  409W        W68772  29.170   7.340  12.550
  410W        W68773  28.582  17.208  13.499
  411W        W68774   8.716  28.057  12.534
  412W        W68775   3.339  21.750  14.015
  413W        W68776   5.358  30.414  13.981
  414W        W68777  37.487  36.477   0.354
  415W        W68778   4.800  33.408   3.345
  416W        W68779  16.304  14.716  11.401
  417W        W68780  12.738  12.335   2.717
  418W        W68781  27.557  18.580  12.003
  419W        W68782  11.370   1.922   4.624
  420W        W68783  41.311  37.348  14.807
  421W        W68784  21.717  34.106   0.335
  422W        W68785  26.601  26.067   4.326
  423W        W68786  36.469   2.838  13.902
  424W        W68787  27.671  16.116  12.383
  425W        W68788  28.028  38.833   1.330
  426W        W68789   8.900  35.903   0.859
  427W        W68790  10.273  22.077  12.868
  428W        W68791  12.268  18.155  13.364
  429W        W68792  35.042  33.978  14.308
  430W        W68793  37.567   5.795   1.927
  431W        W68794  21.188  31.422  14.501
  432W        W68795  13.238  39.820   3.213
  433W        W68796  43.427  40.413  11.416
  434W        W68797   9.163   5.271   2.214
  435W        W68798  41.297  27.632   3.703
  436W        W68799  13.115   9.386   1.839
  437W        W68800  13.244  16.141  14.809
  438W        W68801   0.464  43.271   0.917
  439W        W68802  44.824  15.651   3.743
  440W        W68803  38.974  44.266  11.887
  441W        W68804  29.094  36.361   0.815
  442W        W68805  39.824   8.899   4.331
  443W        W68806   6.844   7.228   0.741
  444W        W68807  18.618  12.342  12.442
  445W        W68808  17.573  36.358   2.264
  446W        W68809   0.960  43.383   3.674
  447W        W68810  21.053  43.981  12.924
  448W        W68811  36.896  31.455  13.972
  449W        W68812  31.579   5.818  10.602
  450W        W68813  14.234  27.992  14.967
  451W        W68814  20.725  29.990  13.358
  452W        W68815  12.155  33.067  11.095
  453W        W68816  34.933  38.419   4.262
  454W        W68817  33.874  30.492   1.336
  455W        W68818  34.029  29.432  11.520
  456W        W68819  32.070  26.969  10.574
  457W        W68820   9.784  39.937   0.803
  458W        W68821   0.435  42.897  12.429
  459W        W68822  42.376  33.604   4.300
  460W        W68823  19.642  26.148  14.954
  461W        W68824  28.142  38.528   1.381
  462W        W68825   9.354  31.537  11.004
  463W        W68826  36.012  34.910  10.617
  464W        W68827  32.072   4.252   3.807
  465W        W68828  26.000  18.059   4.694
  466W        W68829  39.838   3.413   4.739
  467W        W68830  32.934  44.961   2.188
  468W        W68831  42.284  41.908   4.280
  469W        W68832   4.729  31.635  14.025
  470W        W68833  26.025   8.814   4.268
  471W        W68834  11.627  20.552   1.330
  472W        W68835  19.593  11.865   0.391
  473W        W68836  17.610  32.391  13.950
  474W        W68837  18.568   9.197  14.899
  475W        W68838  26.496  18.190  13.401
  476W        W68839  23.109   9.280   4.835
  477W        W68840  36.034  23.678  10.924
  478W        W68841  26.063  43.436   4.166
  479W        W68842  18.717  40.382   1.926
  480W        W68843  38.877   5.779   3.181
  481W        W68844   4.409  25.066  12.357
  482W        W68845   7.332   1.758  10.928
  483W        W68846  11.833  30.590   3.215
  484W        W68847  35.385  33.007   1.410
  485W        W68848   6.701  13.772  13.405
  486W        W68849  42.325   4.301   2.790
  487W        W68850  18.054  28.615   1.902
  488W        W68851  11.253  18.166   1.784
  489W        W68852  41.469  21.255  10.978
  490W        W68853  29.563  13.727  14.910
  491W        W68854  11.662  44.361   0.321
  492W        W68855  16.280  22.679  10.100
  493W        W68856   3.308  18.721   1.877
  494W        W68857  33.600  31.999  13.491
  495W        W68858   6.235  42.882   3.655
  496W        W68859  25.138  33.958   2.323
  497W        W68860  30.478   1.443   2.310
  498W        W68861  31.553  31.999   4.800
  499W        W68862  29.952  36.419   2.251
  500W        W68863   2.377  21.055   5.221
  501W        W68864  31.974  44.758  12.560
  502W        W68865  23.710   8.232  10.502
  503W        W68866   2.410  30.469  11.523
  504W        W68867   7.401  12.140  13.859
  505W        W68868  24.230  12.834   0.386
  506W        W68869   3.308  40.868  14.397
  507W        W68870  22.695  27.457   4.723
  508W        W68871  31.573   0.359  13.009
  509W        W68872  25.644   9.771  12.503
  510W        W68873  25.040  34.990   4.114
  511W        W68874  39.995  16.578  11.491
  512W        W68875   1.910  32.069   2.727
  513W        W68876  34.372   7.888  10.987
  514W        W68877  20.220  36.861  11.041
  515W        W68878  37.866  44.853   4.631
  516W        W68879   8.250   0.257   1.781
  517W        W68880  18.639  43.879   4.176
  518W        W68881  26.171   6.276  12.891
  519W        W68882  28.139  25.537  11.092
  520W        W68883  28.974  42.436  11.029
  521W        W68884  26.524  21.541  11.954
  522W        W68885  26.957  25.003   4.201
  523W        W68886  35.533  10.299   0.848
  524W        W68887  40.540   8.682   4.231
  525W        W68888  26.470  31.519   0.281
  526W        W68889  39.414  36.446   3.333
  527W        W68890  33.468  13.155   2.317
  528W        W68891  44.943  32.493  10.941
  529W        W68892  11.201  27.163   0.820
  530W        W68893  33.948  21.038  14.391
  531W        W68894  21.179  30.946  13.858
  532W        W68895  41.332  17.098   2.226
  533W        W68896   1.298  27.182  12.563
  534W        W68897  27.679  19.275   1.827
  535W        W68898  21.062  33.604   0.766
  536W        W68899   2.821  28.003  13.442
  537W        W68900  37.039  36.540   1.448
  538W        W68901  31.976   4.861   1.239
  539W        W68902   4.298  40.829   0.962
  540W        W68903  29.583  22.657  12.535
  541W        W68904  29.517  39.809   2.247
  542W        W68905  20.029  35.972   0.363
  543W        W68906  34.593   9.197  13.545
  544W        W68907  26.974  20.256  10.595
  545W        W68908  40.996  44.320  12.012
  546W        W68909   6.197  30.503   4.344
  547W        W68910  10.719   2.927   0.347
  548W        W68911  22.033  15.220   0.350
  549W        W68912   2.240   0.320  11.392
  550W        W68913  33.029  36.521  12.072
  551W        W68914   8.749  36.452   1.358
  552W        W68915  43.464  14.825   0.775
  553W        W68916  13.209  18.728   3.221
  554W        W68917   3.329  38.355   2.401
  555W        W68918  37.024  19.224  13.045
  556W        W68919  44.839   2.456  14.776
  557W        W68920  22.746   3.393  14.829
  558W        W68921   7.744  44.936   3.341
  559W        W68922  20.696   2.258   0.448
  560W        W68923   6.683  43.290  14.378
  561W        W68924  10.809   9.288   1.406
  562W        W68925   6.311  14.274   1.365
  563W        W68926  23.026  13.250   2.673
  564W        W68927  26.636  20.735   1.430
  565W        W68928   0.443  25.171   3.749
  566W        W68929  26.996   0.970   1.261
  567W        W68930  17.738  12.278  13.490
  568W        W68931  32.017   4.905   3.292
  569W        W68932  10.369  27.085   1.792
  570W        W68933   4.731  20.134  12.049
  571W        W68934  23.538   9.186   1.929
  572W        W68935   6.269  17.291   2.829
  573W        W68936  42.486  42.811  11.922
  574W        W68937  34.486  15.144   2.187
  575W        W68938  41.373   0.344  14.776
  576W        W68939   4.395  22.215  13.027
  577W        W68940   2.758  35.874   4.196
  578W        W68941  28.617  15.666   5.274
  579W        W68942  13.283  11.279   2.758
  580W        W68943  32.924  43.282  14.336
  581W        W68944  32.439  21.672   1.790
  582W        W68945  26.649  31.491  13.925
  583W        W68946  21.667   8.850   2.697
  584W        W68947  15.199   8.356   4.234
  585W        W68948  15.701  21.045   1.366
  586W        W68949  28.943  24.030   0.448
  587W        W68950  34.087  12.747  14.892
  588W        W68951   9.889  29.155  12.474
  589W        W68952  36.357  34.969   0.465
  590W        W68953   5.792  42.297  14.827
  591W        W68954  26.179  39.527  10.990
  592W        W68955  22.735  29.565  11.026
  593W        W68956   4.241  31.988   1.760
  594W        W68957  40.331  26.475   0.290
  595W        W68958  10.238  41.323   2.266
  596W        W68959  28.041  16.267  14.301
  597W        W68960  39.332  20.723   4.214
  598W        W68961  42.795  30.592   1.345
  599W        W68962  27.564  13.729   2.755
  600W        W68963  34.561  10.717  11.437
  601W        W68964  34.995  36.934   2.662
  602W        W68965   4.309  18.234  12.840
  603W        W68966   2.854  38.943  12.056
  604W        W68967  35.492   7.743  10.555
  605W        W68968  33.113  42.285   3.758
  606W        W68969  25.012   9.845   3.725
  607W        W68970  43.793  37.489  11.062
  608W        W68971  11.653   1.880  14.381
  609W        W68972  41.463  31.536   0.399
  610W        W68973  44.492  21.111  10.532
  611W        W68974  10.866  23.558  11.426
  612W        W68975  25.713  32.936   4.251
  613W        W68976  10.355  44.286  12.437
  614W        W68977  42.915   2.259  12.408
  615W        W68978  29.593  17.592  11.592
  616W        W68979   0.384  25.084  11.123
  617W        W68980  21.666  14.227  13.792
  618W        W68981  29.121  29.070   5.287
  619W        W68982  32.073  20.734   3.708
  620W        W68983  38.948  29.547  10.064
  621W        W68984  42.377  30.626  14.516
  622W        W68985  13.289  34.936   1.811
  623W        W68986   0.264  19.068   1.719
  624W        W68987  36.904   6.234   4.758
  625W        W68988  41.328  40.026  13.974
  626W        W68989   0.940  40.967  13.533
  627W        W68990   4.726  12.298   3.857
  628W        W68991  37.463  38.942  12.575
  629W        W68992  23.721  34.016  12.986
  630W        W68993   3.772  18.225   3.845
  631W        W68994   9.322  12.686  13.045
  632W        W68995  43.285   3.851   4.242
  633W        W68996  43.964   8.850  14.340
  634W        W68997   0.397  20.112   3.264
  635W        W68998  44.275  13.686   0.343
  636W        W68999   4.703  27.157   4.628
  637W        W69000  21.127  43.277   4.127
  638W        W69001   1.927  22.996   2.837
  639W        W69002  20.274  11.711   4.793
  640W        W69003  43.337  30.535   0.906
  641W        W69004  26.182  44.760   1.282
  642W        W69005  12.710  31.010   1.840
  643W        W69006  11.670  17.214   9.990
  644W        W69007   4.707  43.983   2.328
  645W        W69008  38.509  18.273   4.292
  646W        W69009   9.862  26.598  14.462
  647W        W69010   9.155  15.744   2.817
  648W        W69011   1.350  19.216  10.588
  649W        W69012  43.973   9.695   1.773
  650W        W69013  25.163   0.934   0.351
  651W        W69014  39.493   7.832   2.836
  652W        W69015  22.739  29.995  13.332
  653W        W69016   4.723   0.780  12.853
  654W        W69017  28.440   3.458   1.245
  655W        W69018   2.417  14.697  11.474
  656W        W69019  34.948   9.831   2.395
  657W        W69020  29.174   3.833  11.072
  658W        W69021  10.265  35.371   1.918
  659W        W69022   5.909  19.710  13.870
  660W        W69023  13.186   5.743  14.846
  661W        W69024  44.796  26.551  12.402
  662W        W69025   9.869  20.634  13.958
  663W        W69026  32.939  28.631  13.323
  664W        W69027  27.163   4.698  13.448
  665W        W69028   2.858  38.866   0.941
  666W        W69029   1.424  32.950  12.093
  667W        W69030  26.965  14.113  12.867
  668W        W69031  41.829  20.665  13.449
  669W        W69032   5.397   7.227   3.220
  670W        W69033  26.967  10.267   0.733
  671W        W69034  42.511  30.912  14.840
  672W        W69035  29.101  43.335  13.028
  673W        W69036  28.064   6.695   0.364
  674W        W69037  28.007  29.637  14.919
  675W        W69038  37.469  33.594   1.285
  676W        W69039   1.786   4.302  10.501
  677W        W69040  38.873  15.668  13.344
  678W        W69041  18.219  10.292  14.981
  679W        W69042  34.061  36.501   2.410
  680W        W69043  37.359  42.956  11.443
  681W        W69044  40.932  34.958   4.779
  682W        W69045  13.824   9.334  14.859
  683W        W69046   8.203  28.094  12.579
  684W        W69047  41.463  35.369   1.271
  685W        W69048  24.625  12.353  12.346
  686W        W69049  29.015  30.003   1.737
  687W        W69050  19.173  30.984  13.982
  688W        W69051  22.203  33.583  11.448
  689W        W69052   3.229  42.820   2.190
  690W        W69053  42.445  39.056  12.402
  691W        W69054  12.281  19.096   2.405
  692W        W69055  39.456  19.230   2.834
  693W        W69056  14.297   0.480  10.621
  694W        W69057  32.556  11.338  11.606
  695W        W69058  10.774  18.251   2.900
  696W        W69059   7.180  20.679   3.294
  697W        W69060  15.657  27.538  11.606
  698W        W69061   1.377   0.782   1.906
  699W        W69062  35.405  13.794   3.632
  700W        W69063  39.317  27.680  10.600
  701W        W69064  29.477  37.446   1.349
  702W        W69065  24.520   7.723   3.690
  703W        W69066  20.157  10.332   3.763
  704W        W69067   7.365  24.120   2.690
  705W        W69068   9.673  22.184  14.366
  706W        W69069   9.658   8.338   2.399
  707W        W69070  10.230  16.610   4.728
  708W        W69071  40.928  32.398  12.087
  709W        W69072  21.228  40.431  12.391
  710W        W69073   0.339  17.088   4.162
  711W        W69074  16.715  32.060   4.764
  712W        W69075  10.239   7.386  10.950
  713W        W69076  14.603   6.314  14.018
  714W        W69077  25.667  24.692  11.914
  715W        W69078  24.124  41.498   1.300
  716W        W69079  10.731   4.763   3.340
  717W        W69080  22.171  14.611   1.248
  718W        W69081   2.909   4.408   4.224
  719W        W69082  31.602  36.858  10.430
  720W        W69083   7.904  39.043   3.758
  721W        W69084  29.471  19.773   4.209
  722W        W69085  32.918  37.036   0.952
  723W        W69086  14.791  17.602  10.992
  724W        W69087  15.177  35.894  11.965
  725W        W69088  11.210  21.596   3.855
  726W        W69089  24.024  14.206  10.986
  727W        W69090  24.024  33.524   2.336
  728W        W69091  18.139  40.970   0.375
  729W        W69092  34.503   7.690  11.995
  730W        W69093  32.119  38.910   4.350
  731W        W69094  37.047  11.181  10.065
  732W        W69095  32.025  32.435  11.094
  733W        W69096  26.666  16.654   4.163
  734W        W69097   2.272   7.777   4.669
  735W        W69098  35.602   5.283  10.437
  736W        W69099  13.137  28.968   5.226
  737W        W69100  27.076  34.110  12.850
  738W        W69101  28.489  33.895   4.706
  739W        W69102   3.264  25.549   2.248
  740W        W69103  10.789  37.933   2.326
  741W        W69104  17.686  26.138   2.345
  742W        W69105   0.351  39.988   1.385
  743W        W69106  30.998   9.652  12.988
  744W        W69107  34.066  14.748  14.027
  745W        W69108  17.129   0.945  14.465
  746W        W69109   2.278  23.628  14.364
  747W        W69110  19.146  43.330   0.321
  748W        W69111  35.928  36.851   3.792
  749W        W69112  21.577  43.002   4.297
  750W        W69113  44.925   5.405  13.037
  751W        W69114  26.689   0.852   4.232
  752W        W69115  10.342  32.601  14.770
  753W        W69116  29.462  16.590  12.499
  754W        W69117  36.445  32.635   1.795
  755W        W69118  12.286  25.971   3.763
  756W        W69119  10.330   6.399  14.369
  757W        W69120  30.928  25.024  14.473
  758W        W69121  12.788  20.597   0.262
  759W        W69122  24.653  37.483   0.825
  760W        W69123  40.458   4.841   2.741
  761W        W69124  35.044  31.150   0.764
  762W        W69125  14.800  15.582   2.263
  763W        W69126  13.774  34.411   1.845
  764W        W69127  16.245  27.968  12.832
  765W        W69128  37.451  19.093  14.278
  766W        W69129  32.549  15.645  13.527
  767W        W69130   6.731  41.402  12.981
  768W        W69131   1.319  33.077   3.707
  769W        W69132  29.138  18.243   0.864
  770W        W69133  43.431  20.121   2.388
  771W        W69134  36.388   7.910   3.253
  772W        W69135   8.230   8.698  13.468
  773W        W69136   2.799  20.239   4.683
  774W        W69137  20.138  24.564  12.439
  775W        W69138  32.615  18.200  14.776
  776W        W69139  16.108  19.610   0.919
  777W        W69140  26.678  28.015   0.278
  778W        W69141  22.647  43.927  12.393
  779W        W69142   1.954  14.240  10.460
  780W        W69143  38.972  43.021   2.377
  781W        W69144   9.824  37.962  10.577
  782W        W69145  10.164  34.043  10.628
  783W        W69146  16.308  17.113  11.880
  784W        W69147  28.553  14.188   1.322
  785W        W69148   1.966  16.271   2.193
  786W        W69149  23.022  37.535  11.012
  787W        W69150  23.735  21.030  12.989
  788W        W69151   7.199  35.383  11.010
  789W        W69152  17.221  24.682   2.669
  790W        W69153  41.861   0.804   5.102
  791W        W69154  16.151  37.455  10.528
  792W        W69155  42.957   6.245  13.927
  793W        W69156  26.203  42.487  14.390
  794W        W69157   4.709  33.571   2.327
  795W        W69158  18.196  32.136   3.374
  796W        W69159  23.490   9.306   2.867
  797W        W69160  31.472  28.614  11.885
  798W        W69161  28.093  27.574   2.823
  799W        W69162  15.819   3.789   4.140
  800W        W69163  10.675  13.198  14.818
  801W        W69164  40.885  38.557   1.794
  802W        W69165   5.285  25.626   3.344
  803W        W69166  26.519  23.532  12.412
  804W        W69167  32.632  16.757  11.048
  805W        W69168   0.877  18.664  12.046
  806W        W69169  27.163   0.383   0.277
  807W        W69170  39.033  26.469  12.024
  808W        W69171  37.468  42.374   3.299
  809W        W69172  33.466  21.654   1.784
  810W        W69173  25.095  12.176  12.913
  811W        W69174  21.025   6.678  10.495
  812W        W69175  40.846  26.686  14.392
  813W        W69176  24.578  39.462  14.831
  814W        W69177  37.855  35.964   5.096
  815W        W69178   2.834  26.195   2.185
  816W        W69179   5.242  29.652  12.831
  817W        W69180  37.474   3.937  11.878
  818W        W69181  35.884   5.870  14.932
  819W        W69182   0.975  20.033  12.051
  820W        W69183   9.388   2.885   2.721
  821W        W69184  40.420  36.050  10.106
  822W        W69185  43.840  33.555  10.639
  823W        W69186  12.712  20.653   2.679
  824W        W69187   2.299  33.382   2.378
  825W        W69188  33.108  13.338  14.794
  826W        W69189  39.990  23.108  10.612
  827W        W69190  35.106   2.334  11.868
  828W        W69191  28.438  29.088   3.250
  829W        W69192  30.029   7.295   1.818
  830W        W69193  19.673  23.177   1.284
  831W        W69194  34.034  22.588  12.440
  832W        W69195   9.181  18.084   5.196
  833W        W69196  11.706  13.629  12.558
  834W        W69197  12.198  14.776  14.381
  835W        W69198   9.345   9.350  12.942
  836W        W69199  29.076  28.665  10.893
  837W        W69200  12.176   0.305   3.249
  838W        W69201   3.891  30.650   3.851
  839W        W69202  21.633  19.066   3.379
  840W        W69203  17.300   3.345  11.528
  841W        W69204  22.710   3.709   4.242
  842W        W69205  12.121  36.365  10.956
  843W        W69206   9.837  42.517   4.832
  844W        W69207   2.882  24.123   2.283
  845W        W69208  15.223   7.329  12.484
  846W        W69209  41.482   6.747   3.702
  847W        W69210  37.451  40.883  11.889
  848W        W69211  37.453   7.740  11.547
  849W        W69212  18.055  38.985  14.030
  850W        W69213  18.715   3.813   2.358
  851W        W69214  29.429   0.800  12.072
  852W        W69215  20.070   6.393  11.035
  853W        W69216  18.652  37.928  11.595
  854W        W69217  21.614  29.011  13.545
  855W        W69218  17.770   5.240   0.918
  856W        W69219  21.640  16.116  11.910
  857W        W69220  14.761  41.427   3.730
  858W        W69221  20.122  26.187   0.952
  859W        W69222  37.866  28.640   3.336
  860W        W69223   1.357  35.972  14.841
  861W        W69224  41.970  27.060   2.756
  862W        W69225  14.674  32.500   2.681
  863W        W69226  39.065  11.290  14.367
  864W        W69227  27.470  31.970   0.941
  865W        W69228  12.739  34.988  11.071
  866W        W69229   3.790   3.351  12.405
  867W        W69230   1.801  33.466  12.561
  868W        W69231  39.549   0.445  11.009
  869W        W69232  38.542  38.495   3.861
  870W        W69233   6.846  19.038   2.759
  871W        W69234  43.792  17.067   4.769
  872W        W69235   8.837  20.151  13.918
  873W        W69236   0.480   4.819  14.457
  874W        W69237  30.585  27.669   9.544
  875W        W69238  11.358  21.740  12.549
  876W        W69239  22.696  43.889   2.303
  877W        W69240  39.351   8.330   3.349
  878W        W69241  41.959  21.532   2.802
  879W        W69242  33.039  16.083  14.017
  880W        W69243  32.579  42.473   1.231
  881W        W69244  26.577  19.619  14.904
  882W        W69245   6.753  33.399  10.615
  883W        W69246  37.984   6.758  10.447
  884W        W69247  27.677   7.861  11.972
  885W        W69248  30.997  44.465  12.023
  886W        W69249   1.922  44.425  11.000
  887W        W69250  10.171   4.900   0.285
  888W        W69251  35.374  41.343   0.369
  889W        W69252   1.922  40.054  11.528
  890W        W69253  41.426  39.399   0.755
  891W        W69254  26.499   5.223   2.873
  892W        W69255  39.042  37.335   3.808
  893W        W69256  34.402  27.163  14.303
  894W        W69257  25.541  14.175   3.253
  895W        W69258  41.917  12.746   0.906
  896W        W69259  29.057   6.407  14.865
  897W        W69260  29.920  13.809  14.485
  898W        W69261  14.220  18.188  14.323
  899W        W69262   4.823  37.076  12.372
  900W        W69263   0.778  14.297  10.090
  901W        W69264  16.774  37.468   4.803
  902W        W69265  13.607   3.741  11.575
  903W        W69266  35.571  15.763  10.572
  904W        W69267  17.277  24.516   1.787
  905W        W69268  34.375  22.178   4.618
  906W        W69269  42.777  41.817   4.254
  907W        W69270  28.115  28.525   1.406
  908W        W69271  17.687  33.422   2.336
  909W        W69272  17.596  34.568  14.376
  910W        W69273  14.728  31.576   4.227
  911W        W69274  19.647  39.857  12.086
  912W        W69275  44.909  38.937   1.242
  913W        W69276  37.567  43.817   4.196
  914W        W69277  29.046  33.516   0.898
  915W        W69278  18.243  20.045  10.576
  916W        W69279  17.769  35.568  11.452
  917W        W69280  22.669  22.140  11.530
  918W        W69281  13.252   5.399   4.670
  919W        W69282   3.409   1.762   4.782
  920W        W69283  40.329  31.625   4.278
  921W        W69284  40.490   4.849  14.859
  922W        W69285  39.957  31.098   0.332
  923W        W69286  19.724   7.820   3.869
  924W        W69287  43.510  24.189  13.492
  925W        W69288  39.839   2.950   4.758
  926W        W69289  41.434  30.987  11.864
  927W        W69290  43.472   5.754   1.240
  928W        W69291   6.421  36.522  14.461
  929W        W69292  13.788  24.205  12.899
  930W        W69293  14.743  32.942   0.330
  931W        W69294   4.347  23.179   9.656
  932W        W69295  32.902  11.329  14.409
  933W        W69296  35.464  27.680  11.493
  934W        W69297  34.871  31.970   0.283
  935W        W69298  29.445  37.367  13.397
  936W        W69299  14.263   4.729   3.814
  937W        W69300  37.452  17.236   2.753
  938W        W69301  22.658  21.627  12.380
  939W        W69302   8.353  18.734   2.750
  940W        W69303  26.096  35.031  14.371
  941W        W69304  38.424  30.571   4.628
  942W        W69305  44.476  15.323   2.405
  943W        W69306  16.270  19.220  12.084
  944W        W69307  15.204  13.830   4.609
  945W        W69308   7.177  35.925  11.487
  946W        W69309  18.707  37.461   3.191
  947W        W69310  22.033  15.123  10.638
  948W        W69311   5.275  22.698  14.366
  949W        W69312   1.237  42.903  11.450
  950W        W69313  33.617  20.596  13.961
  951W        W69314  19.092  39.921   2.276
  952W        W69315   9.852  21.233  14.958
  953W        W69316  30.568   3.747   1.768
  954W        W69317  17.737  21.197  12.471
  955W        W69318  24.992   5.196   0.965
  956W        W69319  33.473  13.115  13.008
  957W        W69320  40.373  22.603  11.950
  958W        W69321   9.275   7.308  12.841
  959W        W69322  14.597  33.050   1.749
  960W        W69323  12.279  28.487  10.923
  961W        W69324  12.268  21.119  11.935
  962W        W69325   0.260  31.422   4.184
  963W        W69326  17.664  14.833   2.889
  964W        W69327   8.741  14.304  13.912
  965W        W69328   7.767  18.680   3.818
  966W        W69329  20.099  32.511  14.973
  967W        W69330  32.530  26.036  11.535
  968W        W69331  38.874   3.320  14.886
  969W        W69332  43.841  23.005  10.907
  970W        W69333  38.865  23.528   4.150
  971W        W69334  12.280  43.766  13.044
  972W        W69335  24.565  27.031  13.871
  973W        W69336  14.118  12.644  13.358
  974W        W69337  17.262  24.663   1.270
  975W        W69338  25.655  15.592   4.616
  976W        W69339  42.348  39.813   0.382
  977W        W69340  33.080  34.534   0.948
  978W        W69341  31.547  16.072  13.007
  979W        W69342  37.388  14.796  13.817
  980W        W69343  32.122  16.316  13.525
  981W        W69344  17.635  17.275   5.573
  982W        W69345  10.372  19.165  12.408
  983W        W69346  20.664   6.412  14.330
  984W        W69347  28.041   8.388  10.642
  985W        W69348  20.684  43.909   3.347
  986W        W69349   8.341  40.505  13.851
  987W        W69350  35.911  38.991  14.832
  988W        W69351  10.367  17.702  10.573
  989W        W69352   5.352  21.048  14.007
  990W        W69353   7.172  27.609  14.975
  991W        W69354  28.455  19.704   4.130
  992W        W69355  36.902  30.055  12.350
  993W        W69356  22.043  38.411  11.412
  994W        W69357  33.548  23.074   1.694
  995W        W69358  23.494  10.854  13.958
  996W        W69359  31.537  33.994  10.600
  997W        W69360  36.914   5.885   1.698
  998W        W69361  12.816  19.772  13.462
  999W        W69362  14.235   4.751  13.383
 1000W        W69363   2.439   7.241  10.980
 1001W        W69364  44.321  31.141   1.732
 1002W        W69365  44.281  43.335  10.992
 1003W        W69366  24.498  43.329  11.494
 1004W        W69367  40.488  28.034   3.305
 1005W        W69368  15.616  21.154   3.836
 1006W        W69369  30.580  22.166  12.014
 1007W        W69370  14.209   2.381   4.148
 1008W        W69371  24.996  27.612   2.380
 1009W        W69372   8.309   8.195  11.868
 1010W        W69373  42.830   6.194  10.611
 1011W        W69374  37.504  36.993  10.560
 1012W        W69375  43.313   7.265  12.445
 1013W        W69376  39.060  37.036  13.535
 1014W        W69377  32.438  11.243  11.106
 1015W        W69378  20.538  28.659   3.663
 1016W        W69379  35.381  38.065  14.847
 1017W        W69380   3.711  33.488   4.289
 1018W        W69381  42.996  25.686  11.867
 1019W        W69382  13.712  24.492  12.437
 1020W        W69383  25.170  34.103  14.926
 1021W        W69384   5.826  37.006  14.818
 1022W        W69385  30.024  28.455  11.470
 1023W        W69386  30.501  28.624  13.443
 1024W        W69387  38.934   7.376  13.516
 1025W        W69388   9.322  24.713   1.222
 1026W        W69389  25.558  15.731  12.935
 1027W        W69390  38.829   8.692   4.666
 1028W        W69391  20.187  44.320   1.761
 1029W        W69392  42.445  15.095   3.829
 1030W        W69393  28.669  15.330  10.993
 1031W        W69394  44.424  43.322   0.328
 1032W        W69395  32.950   9.383   1.745
 1033W        W69396  21.160  25.668  14.797
 1034W        W69397  21.613  26.701   3.849
 1035W        W69398  33.593   5.712   2.277
 1036W        W69399  35.102  44.428   3.361
 1037W        W69400  44.455  19.673   2.785
 1038W        W69401  16.305   8.221   0.327
 1039W        W69402  42.947   7.721   5.082
 1040W        W69403  26.203  18.725  13.864
 1041W        W69404  22.621  24.025  10.153
 1042W        W69405  20.546  41.360  11.087
 1043W        W69406  14.253  26.036   1.267
 1044W        W69407  39.441  15.144  13.846
 1045W        W69408  42.990  35.535  12.040
 1046W        W69409   4.392   2.343  13.050
 1047W        W69410  22.085  20.665  11.438
 1048W        W69411  38.476   3.839   0.731
 1049W        W69412  21.220  44.866  14.288
 1050W        W69413  15.663  12.740   3.175
 1051W        W69414  31.120  29.651  13.872
 1052W        W69415  33.514  38.927   3.184
 1053W        W69416  25.514  32.441  12.409
 1054W        W69417   9.792  14.227  13.490
 1055W        W69418  43.962  44.839   2.885
 1056W        W69419  15.263  41.369  14.293
 1057W        W69420  10.632  38.056  11.870
 1058W        W69421  26.585  28.971   4.730
 1059W        W69422  35.100  38.347   2.675
 1060W        W69423   0.858  25.179   4.308
 1061W        W69424  16.679  14.205   1.913
 1062W        W69425  32.926   4.317  12.873
 1063W        W69426  13.621  11.372   4.299
 1064W        W69427   7.257   4.240  13.488
 1065W        W69428  22.026  42.028   1.779
 1066W        W69429  36.885   3.790  13.334
 1067W        W69430   9.240   9.264   4.142
 1068W        W69431   6.908  10.214   1.309
 1069W        W69432  27.472  20.766  12.863
 1070W        W69433  44.494  17.613  11.111
 1071W        W69434  40.825   0.764  13.527
 1072W        W69435  20.591  14.817   2.272
 1073W        W69436   6.282  10.182  11.121
 1074W        W69437   9.682  31.912   0.860
 1075W        W69438   3.333  43.469   5.732
 1076W        W69439  11.245  28.992   0.784
 1077W        W69440  41.801  10.214   4.122
 1078W        W69441  17.604  12.241   0.382
 1079W        W69442  30.542  10.720   0.468
 1080W        W69443  20.527   3.461   3.832
 1081W        W69444  27.585   0.859  11.101
 1082W        W69445   1.451  28.145  13.966
 1083W        W69446  22.121  33.876   4.192
 1084W        W69447  37.441   7.205  14.944
 1085W        W69448  31.995  19.636   1.713
 1086W        W69449  39.337  23.636   1.744
 1087W        W69450   0.901  20.077   3.278
 1088W        W69451   8.729  44.260   0.359
 1089W        W69452  27.007  18.092  12.852
 1090W        W69453  41.371  24.014  12.422
 1091W        W69454   8.372  34.032   0.454
 1092W        W69455  18.238  33.089  13.408
 1093W        W69456  35.370  29.041   4.346
 1094W        W69457   8.242   4.363  13.848
 1095W        W69458  10.247  10.753  12.580
 1096W        W69459  14.287   1.388  10.585
 1097W        W69460   6.229  38.950  10.049
 1098W        W69461  20.675  42.959  11.559
 1099W        W69462  43.500  13.600  11.536
 1100W        W69463   0.492  26.485  10.618
 1101W        W69464  14.639  11.678  14.940
 1102W        W69465  33.561  31.011   1.370
 1103W        W69466  12.720  32.094   3.246
 1104W        W69467   5.345  41.493   0.966
 1105W        W69468  17.657  26.127  12.038
 1106W        W69469   5.871  12.645   3.827
 1107W        W69470  29.626  14.606  14.905
 1108W        W69471   7.814  35.883   1.860
 1109W        W69472  30.649  32.599  14.334
 1110W        W69473  10.174   2.884  13.845
 1111W        W69474   2.356  35.405   2.368
 1112W        W69475  18.723   6.699  12.857
 1113W        W69476  38.035  15.704   4.277
 1114W        W69477  37.374  10.692   5.263
 1115W        W69478  20.202   7.206  14.835
 1116W        W69479   9.873  30.493   2.671
 1117W        W69480   8.751  10.164   3.661
 1118W        W69481  30.423   9.824   4.777
 1119W        W69482  11.731   0.270  13.020
 1120W        W69483  42.895  36.417   0.836
 1121W        W69484  22.155  43.496  11.377
 1122W        W69485  33.110  12.703   2.692
 1123W        W69486   0.299  42.458   4.155
 1124W        W69487  36.919  23.141   3.826
 1125W        W69488  16.606   0.830  13.475
 1126W        W69489   2.834  20.763   0.947
 1127W        W69490  15.235  40.003  11.525
 1128W        W69491  21.035  39.433  12.880
 1129W        W69492  26.626  44.278   0.346
 1130W        W69493  44.350  15.632  12.039
 1131W        W69494  19.134  38.985   2.365
 1132W        W69495  36.007  38.841   3.222
 1133W        W69496  24.143  26.658   4.778
 1134W        W69497  13.294  32.083   4.219
 1135W        W69498  30.637  41.304   4.777
 1136W        W69499   2.838  41.491   1.855
 1137W        W69500  27.044  35.487   2.321
 1138W        W69501  11.298  40.472  14.882
 1139W        W69502   4.801  19.167  14.352
 1140W        W69503  31.129  10.327   4.733
 1141W        W69504  20.129  35.085   0.483
 1142W        W69505  27.685   2.267  10.983
 1143W        W69506  19.759  12.279  10.596
 1144W        W69507  25.569  22.120   3.222
 1145W        W69508  12.737  13.191  11.567
 1146W        W69509   1.268  38.357   1.748
 1147W        W69510  22.626  26.522   0.899
 1148W        W69511  37.028   6.707  11.968
 1149W        W69512  41.830  36.905   2.196
 1150W        W69513  36.578  22.554  13.349
 1151W        W69514   5.827  20.666   1.728
 1152W        W69515  43.944   8.366   0.733
 1153W        W69516  38.958  32.409   0.865
 1154W        W69517  14.638  16.266   3.816
 1155W        W69518  44.456  43.859   1.704
 1156W        W69519  18.626  44.003  11.515
 1157W        W69520  20.130   7.317  10.533
 1158W        W69521  38.350  27.458   2.670
 1159W        W69522  10.771  37.069   1.383
 1160W        W69523  40.533  42.419  13.032
 1161W        W69524   2.407  31.050   1.770
 1162W        W69525  44.296  35.069  10.465
 1163W        W69526  39.351  11.165   5.746
 1164W        W69527  19.741  16.099   0.293
 1165W        W69528  36.018  10.307   3.822
 1166W        W69529  37.411  11.352  13.981
 1167W        W69530  27.944  39.985   3.162
 1168W        W69531  12.209  35.462  12.427
 1169W        W69532  35.876   8.790   2.369
 1170W        W69533  35.879  38.907   0.282
 1171W        W69534   2.254  14.658   2.813
 1172W        W69535   6.764  12.729   2.410
 1173W        W69536  43.909  17.659   4.321
 1174W        W69537  39.545   6.242   0.753
 1175W        W69538   4.421  17.246   0.243
 1176W        W69539  41.489  25.555   3.679
 1177W        W69540  36.561  15.801  11.099
 1178W        W69541  13.247  22.186   1.893
 1179W        W69542   7.848   2.343  12.046
 1180W        W69543  35.859  37.485   5.205
 1181W        W69544  21.113   4.917  10.049
 1182W        W69545  28.553  30.156  12.382
 1183W        W69546   2.964  34.980   4.701
 1184W        W69547   0.978  23.692   1.375
 1185W        W69548   6.245  16.626  12.351
 1186W        W69549  33.390  41.043  11.899
 1187W        W69550  28.658  37.984   4.666
 1188W        W69551  17.715   4.328   0.807
 1189W        W69552  36.027  18.750  14.806
 1190W        W69553  13.704   8.681  14.958
 1191W        W69554  15.787  36.494  13.018
 1192W        W69555  13.286  42.827   3.715
 1193W        W69556  26.018   3.287   1.426
 1194W        W69557  15.695  16.138   5.248
 1195W        W69558   7.408  42.365  13.799
 1196W        W69559   2.439  27.040  13.424
 1197W        W69560  15.158  43.448   3.719
 1198W        W69561  37.486   3.809  10.613
 1199W        W69562  21.744  42.405   4.301
 1200W        W69563   9.733  13.293  14.461
 1201W        W69564   9.687   8.684  13.915
 1202W        W69565   8.763  26.129  11.897
 1203W        W69566   7.852  36.007   0.310
 1204W        W69567  33.922  36.367   3.773
 1205W        W69568   2.958  44.438   3.655
 1206W        W69569  14.179  22.178   4.621
 1207W        W69570  22.726  24.501  10.618
 1208W        W69571  28.954  36.421  14.381
 1209W        W69572  36.068  42.837  10.019
 1210W        W69573   5.370   3.749   1.871
 1211W        W69574  24.607  30.637   4.227
 1212W        W69575  21.170  34.944   5.258
 1213W        W69576  32.473  33.111   4.209
 1214W        W69577   3.452  44.379  11.456
 1215W        W69578   9.831  44.335   0.768
 1216W        W69579   8.896  28.115  13.440
 1217W        W69580   1.289   6.743  10.639
 1218W        W69581  38.369  30.072  11.874
 1219W        W69582  42.527  22.234  13.974
 1220W        W69583  21.203  41.382  14.759
 1221W        W69584  43.462  10.635  13.806
 1222W        W69585  28.033  39.025   4.716
 1223W        W69586  41.878   9.644   2.304
 1224W        W69587  26.071  26.078  12.997
 1225W        W69588  41.868  11.727   3.687
 1226W        W69589  41.364   1.872  10.426
 1227W        W69590   2.264  33.447   1.745
 1228W        W69591  14.736  31.039  10.946
 1229W        W69592  24.566   0.767   3.750
 1230W        W69593  37.479  19.280   2.375
 1231W        W69594  11.184  35.026  12.415
 1232W        W69595   5.419   2.387  13.529
 1233W        W69596  11.367  30.495  13.451
 1234W        W69597  36.842  13.675   3.658
 1235W        W69598   3.773   7.879  11.375
 1236W        W69599  26.475  32.072  12.399
 1237W        W69600   8.316   3.263   0.479
 1238W        W69601   6.359   8.379  12.095
 1239W        W69602  31.116  18.139   3.269
 1240W        W69603  22.638  13.846   4.811
 1241W        W69604  30.003  34.449   3.370
 1242W        W69605  22.036  29.595  10.423
 1243W        W69606  21.057  24.552   1.328
 1244W        W69607   4.336  16.762   0.266
 1245W        W69608   8.403  20.230   4.795
 1246W        W69609  30.594  36.501   3.214
 1247W        W69610  11.355  10.269  10.547
 1248W        W69611  31.985  19.141  10.922
 1249W        W69612  43.319  44.415  11.051
 1250W        W69613  33.111  29.541  14.343
 1251W        W69614   8.199  12.845  12.906
 1252W        W69615  30.127  11.675  13.424
 1253W        W69616  42.360  37.441   3.180
 1254W        W69617  12.685  35.566   1.366
 1255W        W69618  14.125   3.749  13.792
 1256W        W69619  34.869  25.638   2.341
 1257W        W69620  25.194  35.960  10.529
 1258W        W69621  13.208   6.833   3.364
 1259W        W69622  40.980  24.723  14.394
 1260W        W69623   1.828   4.771  10.904
 1261W        W69624  36.402  29.038  12.874
 1262W        W69625  41.814  29.530   1.859
 1263W        W69626   0.494  29.507   3.725
 1264W        W69627  19.093   5.905   1.264
 1265W        W69628   8.241  30.651   2.846
 1266W        W69629   2.955   5.348  11.947
 1267W        W69630   5.395  26.659  11.375
 1268W        W69631  37.878   5.765  12.505
 1269W        W69632  19.223  26.066  13.360
 1270W        W69633  24.039  18.716   2.193
 1271W        W69634  37.010  30.627  14.474
 1272W        W69635   3.383  35.073   3.334
 1273W        W69636  15.740   2.327  13.319
 1274W        W69637  30.936  35.101   0.915
 1275W        W69638  20.081  21.539  14.805
 1276W        W69639  14.197  13.113   4.339
 1277W        W69640  35.011  33.604   3.817
 1278W        W69641  28.471  12.121   0.260
 1279W        W69642   0.788  17.591  13.952
 1280W        W69643   3.900  12.312  11.507
 1281W        W69644  11.866   4.301   0.296
 1282W        W69645  22.077  34.471   3.870
 1283W        W69646  33.029  43.383   0.853
 1284W        W69647  33.962  39.405   0.444
 1285W        W69648  42.446  19.740  13.546
 1286W        W69649  35.450  10.818   4.824
 1287W        W69650  21.552   7.836   3.780
 1288W        W69651  32.485  30.008   4.155
 1289W        W69652   2.861  27.555   0.409
 1290W        W69653   3.946  38.390  10.480
 1291W        W69654  44.482   3.858   2.237
 1292W        W69655  19.192  12.299  13.856
 1293W        W69656  23.677  31.457   2.319
 1294W        W69657  18.279  11.132   3.710
 1295W        W69658  32.528  23.555  14.765
 1296W        W69659  40.808   4.927   1.903
 1297W        W69660  30.572  42.485  14.029
 1298W        W69661   0.886  25.104  14.497
 1299W        W69662  13.221  19.104   4.337
 1300W        W69663  19.117  23.576   3.332
 1301W        W69664  18.765  34.911   1.706
 1302W        W69665  16.713  12.286  12.423
 1303W        W69666  24.068  39.917  12.926
 1304W        W69667  34.494  37.937   1.447
 1305W        W69668   0.348  17.662   4.760
 1306W        W69669  38.012  15.602   3.700
 1307W        W69670  31.012  39.900  12.934
 1308W        W69671   8.246  40.921   1.745
 1309W        W69672  28.569  15.656   1.221
 1310W        W69673  20.727  13.265   1.775
 1311W        W69674  35.484  43.966  14.384
 1312W        W69675   8.218   5.871   1.360
 1313W        W69676  13.822  16.213   2.705
 1314W        W69677  31.517  12.698  10.431
 1315W        W69678   8.288  13.182   1.700
 1316W        W69679  25.470   9.758   2.314
 1317W        W69680  37.087   0.388   1.318
 1318W        W69681   7.323  14.813   4.269
 1319W        W69682  23.665  27.061  11.014
 1320W        W69683   2.776   7.246  11.575
 1321W        W69684  24.529   2.417   2.260
 1322W        W69685  20.076  30.952  14.896
 1323W        W69686  13.688  10.818   0.376
 1324W        W69687  22.022  16.118   1.832
 1325W        W69688  16.685  26.656   1.430
 1326W        W69689  29.544  16.284   1.362
 1327W        W69690  30.527  17.167  11.523
 1328W        W69691  19.606  19.604  14.966
 1329W        W69692  38.931  23.234   0.275
 1330W        W69693   1.739  43.907  14.354
 1331W        W69694  31.985  23.545  14.921
 1332W        W69695  30.003  40.013   1.728
 1333W        W69696   1.865   8.757   2.784
 1334W        W69697  19.615  24.614   3.828
 1335W        W69698  25.210  42.345   3.655
 1336W        W69699  34.520  22.227   2.873
 1337W        W69700  33.408  40.024   0.418
 1338W        W69701  34.883  24.998  10.029
 1339W        W69702  21.156  44.392  11.945
 1340W        W69703   3.341  23.218   4.759
 1341W        W69704  19.179  41.004   2.306
 1342W        W69705   4.863  25.468  14.500
 1343W        W69706  42.884  28.947  12.954
 1344W        W69707  43.484  43.991   2.841
 1345W        W69708  41.368   7.211   4.204
 1346W        W69709   8.234   7.171  11.997
 1347W        W69710   8.740  42.470  13.995
 1348W        W69711  38.843  42.014  11.884
 1349W        W69712  15.767   1.928  11.011
 1350W        W69713   1.403  28.544   3.869
 1351W        W69714  19.163  32.090  12.448
 1352W        W69715  19.223  11.354   1.838
 1353W        W69716  13.779  23.723  11.027
 1354W        W69717  22.676  20.701   1.748
 1355W        W69718  10.181  24.056   4.607
 1356W        W69719  41.998  16.180  14.427
 1357W        W69720   8.271   5.386  14.509
 1358W        W69721  36.019  34.087   4.310
 1359W        W69722  28.932   8.763   2.887
 1360W        W69723  45.000  37.902  11.531
 1361W        W69724  38.014  44.419  11.119
 1362W        W69725  23.568  10.326   3.716
 1363W        W69726   9.387  33.549  13.897
 1364W        W69727  12.173  34.080   3.213
 1365W        W69728  12.128  31.052  12.831
 1366W        W69729  31.642  39.914  11.586
 1367W        W69730   3.348  10.155  13.005
 1368W        W69731  41.804  21.692  14.805
 1369W        W69732   8.891  42.031  14.310
 1370W        W69733   3.838  25.197   4.226
 1371W        W69734  23.989  18.614  11.003
 1372W        W69735   1.252  25.150  11.048
 1373W        W69736  19.549   3.447   1.927
 1374W        W69737  24.596  25.129   3.761
 1375W        W69738   8.205  36.528  10.956
 1376W        W69739  19.558  43.370  10.991
 1377W        W69740   2.939  37.973   4.275
 1378W        W69741   3.784  44.351   1.343
 1379W        W69742  27.043  38.870  13.364
 1380W        W69743   2.814   8.216  14.804
 1381W        W69744  23.614  42.307   4.779
 1382W        W69745   8.163   5.283   3.653
 1383W        W69746  22.172  27.510  12.837
 1384W        W69747  27.597  42.510  12.830
 1385W        W69748  41.978  29.600  13.885
 1386W        W69749   6.795   0.911  12.340
 1387W        W69750   0.785  35.079  12.830
 1388W        W69751  28.566  29.455   2.331
 1389W        W69752  27.107  16.087   2.199
 1390W        W69753  30.557   8.668  14.960
 1391W        W69754   2.828   7.274   0.955
 1392W        W69755  23.224   0.429   4.755
 1393W        W69756  38.338  42.910   1.771
 1394W        W69757  35.073   2.387   2.738
 1395W        W69758   4.763   9.222   3.641
 1396W        W69759   0.821   3.722   3.813
 1397W        W69760  15.687  19.678  10.067
 1398W        W69761  20.164   6.253  13.050
 1399W        W69762   4.349  41.901   3.303
 1400W        W69763  12.163   5.216   3.261
 1401W        W69764  11.703  37.448   0.256
 1402W        W69765  39.367   3.892  10.405
 1403W        W69766  35.016  23.162   3.719
 1404W        W69767  37.462  12.319   4.796
 1405W        W69768  15.296  16.186   4.305
 1406W        W69769   2.275  41.530  11.462
 1407W        W69770   4.361  43.399   1.847
 1408W        W69771  29.445  23.639   1.775
 1409W        W69772  13.702  33.945   2.779
 1410W        W69773  29.143  34.560  10.501
 1411W        W69774  42.397  36.947   0.731
 1412W        W69775   7.667  44.492  14.365
 1413W        W69776  37.503  38.949   3.742
 1414W        W69777   2.441  10.379  10.986
 1415W        W69778  31.611  41.433   0.377
 1416W        W69779  43.305   8.763  14.297
 1417W        W69780   7.396   5.326   1.912
 1418W        W69781  14.212  24.706   4.709
 1419W        W69782  21.232  31.106   1.351
 1420W        W69783  39.434  18.765  11.399
 1421W        W69784  41.396  34.030  12.515
 1422W        W69785  37.506  16.109   0.776
 1423W        W69786  32.947   8.306  14.366
 1424W        W69787  26.032  10.878   2.379
 1425W        W69788  37.387   2.917  11.591
 1426W        W69789  34.072  11.734   0.480
 1427W        W69790  40.408  33.026  14.842
 1428W        W69791  34.532  20.546  12.543
 1429W        W69792  37.374   4.357   1.914
 1430W        W69793  23.993  27.192   0.738
 1431W        W69794   7.735  32.491  14.512
 1432W        W69795  27.007  33.460   0.370
 1433W        W69796  36.460  20.728  13.518
 1434W        W69797  16.173  23.553   4.332
 1435W        W69798  26.569  32.111   2.772
 1436W        W69799  40.043  32.433  10.630
 1437W        W69800  21.625   8.275   3.823
 1438W        W69801  12.687  33.069   2.270
 1439W        W69802   0.431  30.601   1.370
 1440W        W69803  15.115  36.580   1.911
 1441W        W69804   7.687  43.974  13.809
 1442W        W69805  34.883   1.956   1.792
 1443W        W69806  34.964  30.506  14.511
 1444W        W69807   8.292   3.896  14.000
 1445W        W69808  27.144   4.817   4.214
 1446W        W69809  27.944  18.670   0.324
 1447W        W69810  39.001  27.011  10.144
 1448W        W69811  38.038  43.962  13.365
 1449W        W69812  26.676  12.240   3.256
 1450W        W69813   3.839   9.228  11.595
 1451W        W69814  34.014  31.964   2.254
 1452W        W69815  24.624  13.179  11.544
 1453W        W69816  40.805   2.913   4.800
 1454W        W69817  26.171  33.972   4.327
 1455W        W69818  20.142   4.270  11.866
 1456W        W69819  21.525  12.259  12.972
 1457W        W69820  15.809  39.356   4.736
 1458W        W69821  24.521   1.315   4.648
 1459W        W69822  13.637   2.387   2.197
 1460W        W69823  31.412  13.214   2.401
 1461W        W69824  17.221  35.988   4.312
 1462W        W69825  35.937  36.380   3.659
 1463W        W69826  27.609  16.705   9.655
 1464W        W69827  33.401  24.627   9.942
 1465W        W69828  22.238  43.870  12.532
 1466W        W69829  10.874   0.941  14.326
 1467W        W69830  36.919  24.174  10.888
 1468W        W69831   4.860  15.700  11.037
 1469W        W69832  19.249  34.060  10.465
 1470W        W69833  14.209  37.079   0.402
 1471W        W69834  34.994   2.423  14.501
 1472W        W69835  19.572  13.716   1.905
 1473W        W69836  33.920  30.032  11.445
 1474W        W69837   4.916   4.398   0.274
 1475W        W69838  28.625   1.388   1.840
 1476W        W69839  29.123  19.631   3.377
 1477W        W69840  44.362   7.735   1.336
 1478W        W69841  31.524  19.061  13.965
 1479W        W69842  17.232  27.548   2.349
 1480W        W69843  43.306   3.837   3.176
 1481W        W69844  30.614   4.917   3.773
 1482W        W69845  31.004  16.669   3.277
 1483W        W69846  35.907   7.826  12.412
 1484W        W69847  20.069  19.552   2.679
 1485W        W69848   6.360  37.952   1.754
 1486W        W69849  19.095  30.557  10.541
 1487W        W69850  16.710  28.555   0.731
 1488W        W69851  38.419  19.267  10.894
 1489W        W69852  29.622  41.016   1.863
 1490W        W69853  27.010   5.200  11.084
 1491W        W69854   7.242   0.925  13.883
 1492W        W69855  14.814  31.971   2.211
 1493W        W69856  20.121  43.901  10.458
 1494W        W69857  13.664   7.291   0.831
 1495W        W69858  23.112  41.403   3.798
 1496W        W69859  33.415  15.167  12.059
 1497W        W69860  38.053  33.985   1.703
 1498W        W69861  15.232  24.041   4.724
 1499W        W69862  16.797  20.523  10.642
 1500W        W69863  25.217   6.750   0.480
 1501W        W69864  29.563  31.555  14.374
 1502W        W69865  27.515  27.546  11.083
 1503W        W69866  32.048  35.496   0.825
 1504W        W69867  16.735  33.486   0.865
 1505W        W69868  18.640  37.988   4.259
 1506W        W69869  19.151   9.209   1.738
 1507W        W69870  18.266   9.645   3.383
 1508W        W69871   4.724  41.296   2.788
 1509W        W69872  16.293  18.573   0.473
 1510W        W69873  35.432  23.113   3.192
 1511W        W69874  44.463  42.862  10.581
 1512W        W69875  29.046  11.318   4.320
 1513W        W69876  25.149  43.813   3.370
 1514W        W69877  15.122  28.025  13.023
 1515W        W69878  34.411  40.047   2.322
 1516W        W69879  19.099  28.116  13.808
 1517W        W69880   5.811  22.536  14.902
 1518W        W69881  43.275   8.823  14.978
 1519W        W69882  39.463  20.581  14.960
 1520W        W69883   7.841  38.839   2.291
 1521W        W69884   1.303   7.908  11.018
 1522W        W69885  17.732  11.203  14.504
 1523W        W69886  25.975  18.115   2.413
 1524W        W69887  39.949  41.896  13.872
 1525W        W69888  10.814  38.566   1.360
 1526W        W69889  31.941  23.990   0.817
 1527W        W69890  18.262  30.427  13.017
 1528W        W69891  43.508  36.045  11.497
 1529W        W69892  28.095  44.431   0.303
 1530W        W69893   4.790  29.984   2.771
 1531W        W69894  26.093  29.664  12.882
 1532W        W69895  29.550   4.753  13.890
 1533W        W69896   9.291  14.213   1.437
 1534W        W69897  26.589  22.653  12.869
 1535W        W69898  32.123  30.422   1.739
 1536W        W69899   7.821  10.369   4.121
 1537W        W69900  21.721  12.751  11.448
 1538W        W69901  19.598  34.880  12.903
 1539W        W69902  35.094   5.816   3.177
 1540W        W69903  37.554  25.589  14.785
 1541W        W69904  38.428  33.039   1.864
 1542W        W69905  27.074  31.548   4.118
 1543W        W69906  25.692  26.195   2.871
 1544W        W69907   9.817  14.713  11.562
 1545W        W69908  19.556  17.222  12.405
 1546W        W69909  35.060  23.091   2.224
 1547W        W69910  32.080  18.078   0.254
 1548W        W69911  14.242  41.903   4.665
 1549W        W69912  40.021  12.291  11.898
 1550W        W69913  27.621  25.697   4.226
 1551W        W69914  15.231  24.571   0.353
 1552W        W69915   3.914  22.131  13.903
 1553W        W69916  39.869  30.129  10.940
 1554W        W69917   0.319  12.223   0.462
 1555W        W69918  17.761  44.998   2.225
 1556W        W69919  37.540  42.792  11.047
 1557W        W69920  30.530  23.141  13.367
 1558W        W69921  42.315  27.482   2.302
 1559W        W69922  20.707  44.421  13.900
 1560W        W69923  18.673  21.157  10.983
 1561W        W69924  14.613  25.185   4.302
 1562W        W69925  10.322  24.690  13.871
 1563W        W69926  31.991  13.665   4.616
 1564W        W69927   4.867  13.745  13.837
 1565W        W69928  18.084  25.617   0.247
 1566W        W69929  42.488  31.436  12.980
 1567W        W69930   8.389  23.052   4.685
 1568W        W69931  22.055  32.469   0.952
 1569W        W69932  16.302  36.020   0.826
 1570W        W69933  32.981   5.224  14.361
 1571W        W69934  32.464  18.277   0.805
 1572W        W69935  30.984  16.616   2.812
 1573W        W69936  16.704  43.007   1.750
 1574W        W69937  15.702  18.558   5.803
 1575W        W69938   9.361   1.839   0.464
 1576W        W69939  24.637  35.063   0.923
 1577W        W69940  35.358   3.324   4.803
 1578W        W69941  12.761  42.458   4.121
 1579W        W69942   7.788  19.202  14.897
 1580W        W69943  39.317  26.576  12.477
 1581W        W69944  21.151  41.876   2.290
 1582W        W69945  31.429  26.554   1.326
 1583W        W69946   5.213   2.722  10.491
 1584W        W69947  29.470   5.408  10.532
 1585W        W69948  38.327  11.745  12.489
 1586W        W69949  33.100  19.234  12.493
 1587W        W69950  19.660  32.486  10.552
 1588W        W69951   7.790  43.834  11.095
 1589W        W69952  30.957  37.073   1.730
 1590W        W69953  13.338  14.154   0.353
 1591W        W69954  29.049  19.769  12.957
 1592W        W69955   0.269   1.252   3.727
 1593W        W69956  26.678  15.269   0.288
 1594W        W69957  21.677  26.506  13.463
 1595W        W69958  43.427  23.047   0.270
 1596W        W69959   0.254  19.621   2.888
 1597W        W69960   9.787  32.443   4.257
 1598W        W69961   4.818  44.402   0.744
 1599W        W69962  23.085  24.587   3.154
 1600W        W69963  20.125  32.597  14.001
 1601W        W69964  18.082  24.100   3.149
 1602W        W69965  28.125   8.713  10.533
 1603W        W69966   6.894   4.319  13.952
 1604W        W69967  15.621  41.941   1.817
 1605W        W69968  17.792  28.126  12.558
 1606W        W69969  25.075   3.861   0.827
 1607W        W69970  36.464  23.151   1.229
 1608W        W69971  42.794  32.524  10.889
 1609W        W69972   2.310   6.359   1.236
 1610W        W69973  33.900  26.640  13.907
 1611W        W69974   2.234  13.776  14.368
 1612W        W69975  26.493   8.696   1.901
 1613W        W69976  20.067  28.512  12.437
 1614W        W69977   4.252  15.092   3.780
 1615W        W69978  28.676  18.593   1.907
 1616W        W69979  13.176  32.940  12.426
 1617W        W69980  31.055  17.246  13.003
 1618W        W69981  29.630  25.969  11.022
 1619W        W69982  28.645   4.834   0.441
 1620W        W69983  15.678  31.432   1.349
 1621W        W69984  34.920  14.591  11.419
 1622W        W69985  11.700  28.451  12.552
 1623W        W69986   2.831  33.437  13.937
 1624W        W69987  22.735   9.750   2.783
 1625W        W69988   5.246   6.914  11.931
 1626W        W69989  12.291   9.881   3.164
 1627W        W69990   8.256  42.912  13.875
 1628W        W69991   6.348   2.818   4.269
 1629W        W69992  26.142   4.807   4.209
 1630W        W69993  41.838  21.701   3.814
 1631W        W69994   1.311  17.573  14.324
 1632W        W69995  36.364  30.639  10.566
 1633W        W69996  27.597   9.669  13.329
 1634W        W69997  34.020  27.102   3.331
 1635W        W69998  27.579  41.416   3.749
 1636W        W69999  15.763  22.023   4.214
 1637W        W70000  20.570  38.514   0.739
 1638W        W70001  28.161  12.655   0.799
 1639W        W70002  26.644  34.893  14.295
 1640W        W70003   1.821  27.146  12.904
 1641W        W70004  19.755  14.755  11.474
 1642W        W70005  20.530  29.657   1.385
 1643W        W70006   2.871  32.500  14.375
 1644W        W70007   7.296   6.365  12.883
 1645W        W70008  33.607  34.562   2.684
 1646W        W70009   6.857  20.573  14.838
 1647W        W70010  38.952  23.157  10.935
 1648W        W70011   3.252  31.490  14.435
 1649W        W70012  34.388  38.328   4.688
 1650W        W70013  30.609  11.217  14.362
 1651W        W70014   5.414   8.762  13.987
 1652W        W70015  17.572  14.614   1.781
 1653W        W70016  42.876   8.853  10.644
 1654W        W70017  24.035  42.784   4.151
 1655W        W70018  27.114  20.660   2.714
 1656W        W70019  36.494   9.314   3.254
 1657W        W70020  35.030  18.266  13.057
 1658W        W70021   8.225  26.176  13.527
 1659W        W70022  11.826   9.241  11.491
 1660W        W70023  18.108  10.782  12.545
 1661W        W70024   6.677  22.995   4.341
 1662W        W70025  17.260  23.579  12.937
 1663W        W70026  23.192  12.671   0.918
 1664W        W70027  24.982   9.329  14.825
 1665W        W70028  41.954  34.397  11.458
 1666W        W70029  30.446   6.907  14.502
 1667W        W70030   9.169   6.421   3.202
 1668W        W70031   1.899  33.976  14.005
 1669W        W70032  11.856  14.337   9.927
 1670W        W70033  21.082  36.574  11.410
 1671W        W70034  27.497  39.876   0.461
 1672W        W70035  25.137  25.048   2.278
 1673W        W70036  42.964  24.540  12.080
 1674W        W70037  20.530  33.488  11.893
 1675W        W70038   6.259  20.582   1.857
 1676W        W70039  22.232  40.932   4.802
 1677W        W70040  32.404   7.690  13.927
 1678W        W70041   4.227  40.001  14.871
 1679W        W70042  30.053  23.602  13.368
 1680W        W70043  10.277  21.675   1.709
 1681W        W70044  24.086  19.267   2.706
 1682W        W70045  27.504  33.382  14.308
 1683W        W70046   3.799   5.879   4.261
 1684W        W70047  38.528   5.926  12.966
 1685W        W70048  11.307  42.930  14.803
 1686W        W70049   1.424  16.225  12.028
 1687W        W70050  31.528  20.541  14.024
 1688W        W70051  13.711   4.781  10.521
 1689W        W70052  43.479   8.814   5.301
 1690W        W70053  18.697  40.887   0.742
 1691W        W70054  17.645  37.086  11.906
 1692W        W70055   2.357   6.793   3.645
 1693W        W70056  14.294  35.953   1.323
 1694W        W70057  16.754   6.791   3.200
 1695W        W70058  18.614  17.083   3.688
 1696W        W70059  37.509  30.506  14.770
 1697W        W70060  26.128  23.227  11.089
 1698W        W70061   8.350  17.794  13.355
 1699W        W70062  40.989  40.395  11.371
 1700W        W70063  23.663  39.997  12.069
 1701W        W70064   2.920  17.785  13.914
 1702W        W70065  30.646   2.755   1.231
 1703W        W70066  27.117  23.625  14.344
 1704W        W70067  29.593   2.368   4.272
 1705W        W70068  17.127  12.133  13.894
 1706W        W70069  17.609  35.913  13.455
 1707W        W70070  42.386  24.976   1.429
 1708W        W70071  30.626  41.847  13.534
 1709W        W70072  30.100  17.142  10.443
 1710W        W70073  11.306  10.165   0.372
 1711W        W70074  19.689  11.811   2.248
 1712W        W70075  26.991  20.543  12.477
 1713W        W70076  21.201  13.702  13.476
 1714W        W70077  35.858  35.936  11.397
 1715W        W70078  32.028  42.829  13.479
 1716W        W70079   9.269  11.219  13.979
 1717W        W70080  38.399  14.806   4.644
 1718W        W70081  30.593  12.813  14.759
 1719W        W70082  39.906   5.294   3.316
 1720W        W70083  12.236   9.748  10.501
 1721W        W70084   8.350  29.462  12.066
 1722W        W70085  11.176   5.356   1.450
 1723W        W70086  12.829   1.821  14.437
 1724W        W70087  31.965  26.619   2.838
 1725W        W70088  32.907  17.635   4.819
 1726W        W70089  12.800   7.807   0.462
 1727W        W70090  24.168  23.063   4.729
 1728W        W70091  29.120  17.775  10.552
 1729W        W70092   5.821  41.420   2.280
 1730W        W70093  19.271  19.276   3.174
 1731W        W70094  33.443  13.697   3.667
 1732W        W70095   5.245  38.565  13.844
 1733W        W70096  40.529  18.588  12.502
 1734W        W70097  16.670  35.108   4.265
 1735W        W70098  41.907   4.732  11.605
 1736W        W70099  10.692  22.599   4.804
 1737W        W70100  17.264   4.930  14.817
 1738W        W70101  14.197  13.145   2.866
 1739W        W70102   4.427  38.981   1.877
 1740W        W70103  34.579  26.670   2.680
 1741W        W70104  32.425  23.023   4.783
 1742W        W70105  39.005  37.866   3.303
 1743W        W70106  14.272   6.279  14.923
 1744W        W70107   9.176  17.567   0.403
 1745W        W70108   8.240  26.539  13.796
 1746W        W70109  34.000  30.985   3.756
 1747W        W70110  33.448  34.549   4.147
 1748W        W70111   4.316  37.375  14.350
 1749W        W70112  15.602   5.229  14.275
 1750W        W70113  30.981  44.504  13.027
 1751W        W70114  30.915   9.749  14.421
 1752W        W70115  19.253  10.264  13.470
 1753W        W70116  15.157  21.092   4.704
 1754W        W70117  23.084  37.958  11.026
 1755W        W70118  11.281  41.418   3.710
 1756W        W70119  44.943  14.109   3.150
 1757W        W70120  27.593  11.744   1.705
 1758W        W70121  27.465  39.038   4.736
 1759W        W70122   1.467   6.317  14.893
 1760W        W70123   3.898   8.322   2.408
 1761W        W70124  28.523  35.073  13.997
 1762W        W70125   4.258  42.448   4.191
 1763W        W70126  35.528  14.169   2.685
 1764W        W70127  30.046  44.828  10.942
 1765W        W70128  34.111   5.383   4.215
 1766W        W70129  42.914  35.018   2.880
 1767W        W70130   5.333   5.301   4.149
 1768W        W70131  19.282  44.403  10.981
 1769W        W70132  27.630  30.982   3.822
 1770W        W70133   5.757  40.011   3.830
 1771W        W70134  11.762  25.962   3.795
 1772W        W70135  24.016  14.752  13.930
 1773W        W70136  12.750  28.434   3.259
 1774W        W70137  26.021   8.665  14.419
 1775W        W70138  25.136  17.183  11.379
 1776W        W70139  33.574  13.251  12.044
 1777W        W70140  43.883  29.965  10.447
 1778W        W70141  27.516  27.556   0.873
 1779W        W70142  19.578  34.554   0.876
 1780W        W70143  41.948   4.400   1.294
 1781W        W70144  11.779  18.070   4.783
 1782W        W70145   4.376  29.024   0.773
 1783W        W70146  40.387  31.980   4.817
 1784W        W70147  28.613   5.251  12.002
 1785W        W70148   6.231  11.754  14.980
 1786W        W70149  18.619  29.660  10.407
 1787W        W70150   8.328  17.133   3.680
 1788W        W70151  20.769   2.274   3.379
 1789W        W70152  22.099  39.055  12.558
 1790W        W70153  20.149  20.723   0.790
 1791W        W70154   7.234  21.210  12.411
 1792W        W70155  15.128  32.934   4.155
 1793W        W70156  19.631  15.601   3.740
 1794W        W70157  25.526  24.602   3.696
 1795W        W70158  43.412  11.352   0.758
 1796W        W70159   1.937  14.175  13.446
 1797W        W70160   2.399  40.369   0.293
 1798W        W70161   8.260  40.995   0.299
 1799W        W70162   2.429  26.164   1.322
 1800W        W70163   8.861  41.845   4.328
 1801W        W70164  34.471  29.504   2.787
 1802W        W70165  34.988   1.938   2.295
 1803W        W70166  42.900  39.478   3.842
 1804W        W70167  32.552  23.567   0.922
 1805W        W70168  13.349  19.054   1.760
 1806W        W70169   9.199  20.150   2.890
 1807W        W70170   5.908  16.206  13.970
 1808W        W70171  17.687   3.307  11.399
 1809W        W70172   7.877  10.191  12.458
 1810W        W70173  20.236  39.477   4.600
 1811W        W70174  15.254  43.781  13.812
 1812W        W70175   5.278  38.021  13.450
 1813W        W70176   4.326  23.658  10.092
 1814W        W70177  41.503  25.137   3.243
 1815W        W70178   1.361  24.146   0.802
 1816W        W70179  31.154  10.211  14.965
 1817W        W70180  39.514  34.989  12.088
 1818W        W70181  29.580  22.149  14.026
 1819W        W70182  25.652   8.350   0.831
 1820W        W70183   7.901  37.439  13.508
 1821W        W70184  36.499   3.847   0.343
 1822W        W70185   9.758  25.974   1.765
 1823W        W70186   7.187   1.817   4.640
 1824W        W70187  27.589   0.481   3.304
 1825W        W70188  27.571   1.243   2.249
 1826W        W70189  17.582  33.541   4.204
 1827W        W70190  39.549   0.918   2.395
 1828W        W70191  15.813  33.446   2.684
 1829W        W70192  28.648  24.121   0.344
 1830W        W70193  33.595   7.225   4.333
 1831W        W70194  10.784  14.211   4.284
 1832W        W70195  12.311  42.888  11.993
 1833W        W70196  19.775  40.304   0.831
 1834W        W70197  41.820  40.032  13.423
 1835W        W70198  20.722  25.618   4.601
 1836W        W70199  41.428  39.028  11.959
 1837W        W70200  16.182  12.282  14.494
 1838W        W70201  38.860   4.789   5.292
 1839W        W70202  23.060  15.135   0.727
 1840W        W70203  13.207  15.790   2.196
 1841W        W70204  35.409  31.904   2.772
 1842W        W70205  25.530  39.493  12.867
 1843W        W70206  17.641  36.092  12.529
 1844W        W70207   6.712  24.133  12.524
 1845W        W70208  20.753  21.521   1.312
 1846W        W70209  38.905  13.340  10.499
 1847W        W70210   0.405   1.898  12.977
 1848W        W70211  43.415   6.311   4.681
 1849W        W70212  33.442  38.950  13.973
 1850W        W70213  41.823  18.674  12.981
 1851W        W70214  20.155   5.331  10.538
 1852W        W70215  42.031  41.850  11.028
 1853W        W70216  31.944  15.128   3.829
 1854W        W70217  16.659  39.039  14.779
 1855W        W70218  44.335  12.188  12.370
 1856W        W70219  27.594   9.342  14.983
 1857W        W70220  13.124  25.480   1.764
 1858W        W70221  27.045  37.990  13.840
 1859W        W70222  24.674  28.025  11.429
 1860W        W70223  24.591  35.045  13.404
 1861W        W70224  19.265  30.091  13.443
 1862W        W70225   4.283  11.817  11.080
 1863W        W70226  15.672  39.942  13.978
 1864W        W70227  25.667   4.220  13.883
 1865W        W70228  16.703  37.469   1.868
 1866W        W70229  32.428  20.591   3.160
 1867W        W70230  40.043   5.703   2.370
 1868W        W70231   3.353  42.417  12.939
 1869W        W70232  29.575  44.312  14.015
 1870W        W70233  10.166  42.848   2.700
 1871W        W70234  15.173  38.383  10.415
 1872W        W70235  10.239  28.536   3.250
 1873W        W70236  30.509  29.460  14.993
 1874W        W70237  20.734  39.032  11.410
 1875W        W70238  22.657   8.278  13.390
 1876W        W70239  14.788  35.378  11.566
 1877W        W70240   1.471  36.428   1.868
 1878W        W70241  43.375  23.066   2.778
 1879W        W70242  35.013  41.450   1.329
 1880W        W70243   7.342   3.363  10.433
 1881W        W70244  19.653  37.837   2.295
 1882W        W70245  15.269   0.351  10.505
 1883W        W70246  19.584  42.000  13.513
 1884W        W70247   5.760  31.062   4.808
 1885W        W70248  19.560  35.443  11.879
 1886W        W70249  24.996   6.702   2.869
 1887W        W70250  33.069  16.095   2.272
 1888W        W70251  15.236  39.012   0.954
 1889W        W70252  21.528  12.699  14.895
 1890W        W70253  37.541  26.994   3.207
 1891W        W70254  25.483  19.748   4.172
 1892W        W70255  35.513  17.703   1.859
 1893W        W70256  27.657  26.643  13.468
 1894W        W70257  13.184  34.570   2.380
 1895W        W70258  35.477   1.354   0.409
 1896W        W70259  33.088   7.879  13.908
 1897W        W70260  42.405  18.084   1.265
 1898W        W70261  10.830  44.807   0.913
 1899W        W70262  14.808  43.335   4.604
 1900W        W70263  26.641  38.337   3.729
 1901W        W70264  34.957  28.013   0.757
 1902W        W70265  11.853  25.519  13.009
 1903W        W70266  21.249  22.081   0.292
 1904W        W70267  20.220  37.085   1.302
 1905W        W70268  18.065  21.121   3.259
 1906W        W70269  10.655  13.774  13.335
 1907W        W70270   6.278  25.577  12.838
 1908W        W70271  32.530  32.545   1.719
 1909W        W70272   8.163  35.546   0.771
 1910W        W70273  44.812  29.079   3.708
 1911W        W70274   6.784  12.678  11.431
 1912W        W70275  43.819   2.789  10.958
 1913W        W70276  18.157  44.852   0.417
 1914W        W70277  31.969  12.657  14.867
 1915W        W70278  31.439  42.874  12.569
 1916W        W70279  43.765   5.761  13.484
 1917W        W70280   1.793  11.666   0.883
 1918W        W70281  18.132  36.896  13.536
 1919W        W70282  36.394  29.101  14.797
 1920W        W70283  31.960  16.771  10.979
 1921W        W70284   8.830   5.335  12.949
 1922W        W70285   2.282  14.218   2.334
 1923W        W70286  37.031  35.873   4.188
 1924W        W70287  43.330  35.954   2.801
 1925W        W70288   0.863  15.088   4.267
 1926W        W70289  34.923  15.674   1.437
 1927W        W70290  11.363  42.499   1.450
 1928W        W70291  36.918  34.432   3.631
 1929W        W70292  43.309   9.742  13.811
 1930W        W70293   6.895  25.625  14.379
 1931W        W70294  43.504  35.541  12.990
 1932W        W70295  39.896  13.801   1.913
 1933W        W70296  11.202   5.869   0.905
 1934W        W70297  12.855  12.831  14.952
 1935W        W70298   5.438  16.176  11.937
 1936W        W70299  16.795  25.967  12.998
 1937W        W70300   2.349  19.185   4.647
 1938W        W70301  15.192  32.029   2.696
 1939W        W70302  14.759  23.239   2.893
 1940W        W70303   2.756   2.905  11.025
 1941W        W70304  14.108  29.539   5.272
 1942W        W70305  33.513  20.691   4.678
 1943W        W70306  31.031   3.406  13.905
 1944W        W70307  41.034  26.625   2.741
 1945W        W70308  30.015  36.582   2.779
 1946W        W70309  35.999  27.150  10.638
 1947W        W70310   5.307  15.106  11.913
 1948W        W70311   1.393  41.463   4.817
 1949W        W70312  29.983   8.298  12.894
 1950W        W70313  22.638  16.767  11.547
 1951W        W70314  21.216   4.233  13.820
 1952W        W70315  39.470   3.416   5.214
 1953W        W70316  17.209  44.775  11.052
 1954W        W70317   1.446  23.170  14.875
 1955W        W70318  44.893  26.180  10.602
 1956W        W70319   2.297  24.982   2.184
 1957W        W70320  13.790  34.906  11.457
 1958W        W70321  20.704  23.224   1.426
 1959W        W70322  40.419   0.477   0.321
 1960W        W70323  39.483  29.441  11.882
 1961W        W70324  10.361  18.636  13.349
 1962W        W70325  22.651  17.089   2.671
 1963W        W70326  36.528  19.160  12.906
 1964W        W70327  26.081  39.840  12.017
 1965W        W70328  22.686  23.025  13.513
 1966W        W70329  34.376  35.578   2.872
 1967W        W70330  22.168  44.420  11.384
 1968W        W70331  37.992  35.876   0.931
 1969W        W70332   3.853  42.348   1.897
 1970W        W70333  40.503   7.371   4.127
 1971W        W70334  44.280  14.804   0.468
 1972W        W70335  36.549  28.035   4.830
 1973W        W70336  37.394   3.810   0.912
 1974W        W70337  39.043  10.293  13.970
 1975W        W70338  33.450  26.954   0.752
 1976W        W70339  10.851   8.219   2.880
 1977W        W70340  11.656  27.489  13.021
 1978W        W70341  23.987  24.073   1.320
 1979W        W70342  43.849  31.427   0.868
 1980W        W70343  21.644  36.076  14.389
 1981W        W70344   2.367  18.090  12.992
 1982W        W70345  19.238  22.028   0.377
 1983W        W70346  37.888  30.944  12.090
 1984W        W70347  20.062  42.987  11.071
 1985W        W70348  18.163  35.515  13.426
 1986W        W70349  21.168  17.129  14.511
 1987W        W70350  20.537  39.949   0.439
 1988W        W70351   3.341   5.765   0.385
 1989W        W70352  37.986  15.726  12.413
 1990W        W70353  31.074   8.709   4.704
 1991W        W70354  41.526  20.032   0.254
 1992W        W70355   1.827   2.725   3.157
 1993W        W70356   6.379   4.808  10.122
 1994W        W70357  28.947  41.293   0.767
 1995W        W70358  21.153  42.355  14.407
 1996W        W70359   6.838  17.300   3.654
 1997W        W70360   2.862  25.602   5.282
 1998W        W70361   0.753  22.129  12.369
 1999W        W70362  30.439  16.133   0.394
 2000W        W70363   0.342  16.685   2.205
 2001W        W70364  25.597  38.411  12.461
 2002W        W70365   5.806  44.836  10.934
 2003W        W70366  40.023  12.222  12.507
 2004W        W70367   2.319   1.482  12.827
 2005W        W70368  39.446  23.532  14.480
 2006W        W70369  19.614  16.258   1.216
 2007W        W70370  18.077   9.811   0.313
 2008W        W70371  10.781   6.796   0.750
 2009W        W70372  18.646  41.429   0.274
 2010W        W70373  25.209   9.168   1.736
 2011W        W70374  23.701  16.646   1.245
 2012W        W70375  10.282  23.117  14.295
 2013W        W70376  14.823  33.462   3.300
 2014W        W70377  20.755  26.584  12.431
 2015W        W70378  21.040  34.917   2.737
 2016W        W70379  22.618  44.802   1.787
 2017W        W70380  26.189   6.354   1.864
 2018W        W70381  30.598  13.114   5.148
 2019W        W70382   7.899   3.873  13.330
 2020W        W70383  44.267  38.941   5.142
 2021W        W70384  18.104  10.704   0.877
 2022W        W70385  23.037  41.018   0.791
 2023W        W70386  14.831  37.971  12.551
 2024W        W70387  37.925  25.081   3.715
 2025W        W70388   8.199  24.547  10.552
 2026W        W70389  19.270  19.052  12.484
 2027W        W70390  24.046  28.021  12.402
 2028W        W70391  33.023  16.652  11.448
 2029W        W70392  11.679  29.052   0.891
 2030W        W70393   0.969  40.882   4.220
 2031W        W70394   9.168  35.480   1.272
 2032W        W70395  11.702   5.219   1.433
 2033W        W70396  31.084  22.663   0.765
 2034W        W70397  13.733  23.190  14.351
 2035W        W70398  40.043  11.854   3.701
 2036W        W70399   3.926  36.388   0.351
 2037W        W70400  21.564   4.348  11.494
 2038W        W70401  25.651  39.495  13.539
 2039W        W70402  26.539  27.945   2.783
 2040W        W70403  17.635  25.578   2.239
 2041W        W70404  31.036  42.333   4.755
 2042W        W70405   3.377  12.794   2.275
 2043W        W70406  18.553  13.703   4.171
 2044W        W70407   2.775  41.355   2.755
 2045W        W70408  28.161  35.538   3.782
 2046W        W70409  25.147  31.900  13.874
 2047W        W70410   2.316  21.029   0.481
 2048W        W70411  14.182  21.263  11.042
 2049W        W70412  35.443  38.998  14.484
 2050W        W70413  34.967  34.435   2.270
 2051W        W70414  35.468  27.074   1.395
 2052W        W70415  21.105  24.036  12.375
 2053W        W70416  33.043  30.973  12.888
 2054W        W70417  44.319  42.898  13.886
 2055W        W70418  11.234  32.594  10.614
 2056W        W70419  11.235  23.577   0.309
 2057W        W70420  39.455  15.150  12.467
 2058W        W70421  18.621  30.492   5.123
 2059W        W70422  23.161  23.215   2.868
 2060W        W70423   5.256   4.900   1.910
 2061W        W70424  26.187   7.329   2.723
 2062W        W70425   1.394  13.610  10.965
 2063W        W70426  28.089   7.318  12.375
 2064W        W70427  32.043  30.978   5.319
 2065W        W70428  27.540  40.345  13.866
 2066W        W70429  12.315  35.504   1.276
 2067W        W70430  30.467  37.969   4.685
 2068W        W70431  35.943  17.080   3.278
 2069W        W70432   2.316  10.769   1.262
 2070W        W70433  33.889  31.024  14.352
 2071W        W70434  17.651  14.817   0.912
 2072W        W70435  32.544  27.060  11.982
 2073W        W70436  19.267   7.224   1.213
 2074W        W70437  41.007  41.027  13.817
 2075W        W70438   8.875  19.632  14.931
 2076W        W70439  12.258  34.448   3.333
 2077W        W70440  10.697  28.593   3.264
 2078W        W70441  14.307   9.343  12.495
 2079W        W70442  32.511  19.710  11.058
 2080W        W70443  26.703  25.011   1.351
 2081W        W70444  43.475  38.527  12.825
 2082W        W70445  37.972  11.319  13.918
 2083W        W70446  25.703   3.878   3.254
 2084W        W70447  35.861  37.442   0.748
 2085W        W70448  19.659   7.790   3.204
 2086W        W70449  38.973  38.856   2.742
 2087W        W70450   7.787  35.567  10.470
 2088W        W70451   1.803  14.775   3.774
 2089W        W70452  18.664  36.541  12.542
 2090W        W70453  11.323  21.666   2.393
 2091W        W70454   7.174  43.463   2.680
 2092W        W70455  31.135   5.389  11.507
 2093W        W70456  29.588   1.407   3.234
 2094W        W70457  33.948  20.270   3.824
 2095W        W70458  12.617  18.231  11.896
 2096W        W70459  10.199  15.288   4.143
 2097W        W70460  21.611  32.476   3.306
 2098W        W70461  34.956  39.957  13.796
 2099W        W70462  17.268   8.273   4.281
 2100W        W70463  15.182  32.902  14.515
 2101W        W70464  28.137  27.945  11.488
 2102W        W70465  43.477  30.944  11.547
 2103W        W70466  37.377   2.452  14.803
 2104W        W70467  20.646  26.182   4.292
 2105W        W70468  18.561  21.556  12.354
 2106W        W70469  40.043   2.926  10.980
 2107W        W70470  36.991  14.702  11.032
 2108W        W70471  42.901   2.271   3.736
 2109W        W70472  15.145  21.079   0.894
 2110W        W70473  22.024  42.412   3.168
 2111W        W70474  33.919  10.634   2.805
 2112W        W70475  28.441  35.534   2.365
 2113W        W70476  21.034  27.138   4.146
 2114W        W70477   5.212  27.522   2.391
 2115W        W70478  42.017   2.768  14.935
 2116W        W70479  18.593   1.240   0.268
 2117W        W70480  43.849  34.411  13.492
 2118W        W70481   6.266  22.183   0.313
 2119W        W70482  36.541  24.648  14.499
 2120W        W70483  37.832  44.504   0.957
 2121W        W70484  28.186   3.229   0.788
 2122W        W70485  18.127  15.685   1.808
 2123W        W70486  20.539  40.832  13.503
 2124W        W70487  39.351  19.646  11.093
 2125W        W70488  43.337  17.674  12.515
 2126W        W70489  35.979  19.768  10.537
 2127W        W70490  26.558  11.348   3.670
 2128W        W70491  38.484  42.873  13.053
 2129W        W70492  36.548  16.635  13.981
 2130W        W70493  32.582  44.498  14.931
 2131W        W70494   3.307  30.641   2.776
 2132W        W70495  36.991  32.091   3.799
 2133W        W70496  21.072   7.698   1.722
 2134W        W70497  18.551  25.668   4.175
 2135W        W70498   5.213   3.760  13.414
 2136W        W70499  29.161   1.744   3.705
 2137W        W70500  39.402  22.032   4.203
 2138W        W70501  15.750   4.934  14.404
 2139W        W70502  37.577  28.150  12.508
 2140W        W70503  33.011  42.807  13.053
 2141W        W70504  27.575   2.269   2.803
 2142W        W70505  24.605  15.772   1.376
 2143W        W70506  20.701  28.944  14.981
 2144W        W70507  19.710  39.053  12.003
 2145W        W70508  33.410  25.106   4.648
 2146W        W70509  29.980  29.923  11.046
 2147W        W70510  41.445   0.381  11.431
 2148W        W70511  38.529  10.867  13.045
 2149W        W70512  41.856  21.737   3.373
 2150W        W70513   6.718   1.237   3.812
 2151W        W70514   6.401  18.562   2.361
 2152W        W70515  10.762  21.615  12.957
 2153W        W70516   1.798   2.436   1.410
 2154W        W70517   9.161   6.270  12.920
 2155W        W70518  28.587   0.834   4.135
 2156W        W70519  15.292  15.208  11.934
 2157W        W70520  24.132  19.761   1.261
 2158W        W70521  11.805  38.555  13.502
 2159W        W70522  40.930  40.396  14.468
 2160W        W70523  25.022   3.307  11.399
 2161W        W70524   7.669  13.248   1.910
 2162W        W70525  35.538  43.816   2.879
 2163W        W70526   7.242  28.097   3.869
 2164W        W70527  12.782   8.858   3.320
 2165W        W70528  43.378   9.190  11.115
 2166W        W70529  30.048  15.628  11.061
 2167W        W70530   7.885  16.293   1.285
 2168W        W70531  35.948   5.322  13.865
 2169W        W70532  21.209  12.798  14.315
 2170W        W70533   5.773  24.592   4.198
 2171W        W70534  33.997  14.264  11.127
 2172W        W70535  29.631  43.935   2.221
 2173W        W70536  28.538  15.199  13.000
 2174W        W70537  30.978  31.133  12.439
 2175W        W70538  41.990  17.665   2.896
 2176W        W70539  12.747   0.307  11.424
 2177W        W70540  44.834   6.868   1.712
 2178W        W70541   5.933  42.005  12.957
 2179W        W70542  44.825  30.932   0.912
 2180W        W70543  18.588  41.522   4.660
 2181W        W70544  12.184  41.878  14.504
 2182W        W70545  41.895  44.870  11.029
 2183W        W70546  22.658  12.207   3.818
 2184W        W70547   6.228  13.332  14.805
 2185W        W70548  31.934  33.480   1.724
 2186W        W70549  43.493  13.218  14.848
 2187W        W70550  15.630  23.620   0.791
 2188W        W70551  20.531  19.194  14.946
 2189W        W70552  21.583  14.164   3.864
 2190W        W70553   5.804   2.395  10.445
 2191W        W70554  42.920  26.070  12.436
 2192W        W70555  14.141  18.175  13.433
 2193W        W70556  21.740  37.452  13.363
 2194W        W70557  20.557  10.652   1.258
 2195W        W70558  19.065  20.593   0.895
 2196W        W70559   0.388  31.033   0.359
 2197W        W70560  26.126  44.321  13.494
 2198W        W70561  22.216  16.252  14.789
 2199W        W70562   6.386  25.542   4.802
 2200W        W70563   0.971  21.542   3.697
 2201W        W70564  40.839  11.844  11.598
 2202W        W70565  18.147  18.685  14.279
 2203W        W70566  36.421  24.564   1.847
 2204W        W70567  39.813  36.955   2.292
 2205W        W70568  43.317  33.943  12.493
 2206W        W70569  14.329   1.963   4.141
 2207W        W70570   5.705  25.128  11.541
 2208W        W70571  18.707   3.363  12.083
 2209W        W70572  21.599  28.936  11.899
 2210W        W70573  12.854  35.468  13.427
 2211W        W70574   6.242  21.544  12.909
 2212W        W70575  16.271  22.539   0.874
 2213W        W70576  35.069  38.829   9.972
 2214W        W70577  20.213   9.248   2.349
 2215W        W70578  36.579   2.310   3.635
 2216W        W70579  21.049   8.823  12.952
 2217W        W70580  36.569  19.140  13.392
 2218W        W70581  38.911  25.530  10.539
 2219W        W70582  26.086   4.215   2.711
 2220W        W70583  32.610  22.685  14.947
 2221W        W70584  18.728  18.619  14.397
 2222W        W70585  34.492   8.871   2.280
 2223W        W70586  31.978  10.666   4.289
 2224W        W70587  22.026  31.907  13.463
 2225W        W70588  29.933  26.961  13.389
 2226W        W70589  24.656  21.665   2.762
 2227W        W70590  32.440  43.452   1.721
 2228W        W70591   8.266  13.131   1.332
 2229W        W70592  30.983  36.990  10.523
 2230W        W70593  21.650  16.309  12.961
 2231W        W70594  40.974  32.529  11.501
 2232W        W70595  29.024  40.914   0.833
 2233W        W70596  26.532  27.185  14.826
 2234W        W70597  26.521   2.963  14.436
 2235W        W70598  41.396  35.377   4.711
 2236W        W70599  35.908  43.856   2.273
 2237W        W70600   9.726  16.594  11.052
 2238W        W70601  34.975  13.115   4.692
 2239W        W70602   2.354   1.313  11.020
 2240W        W70603  39.370   5.896  11.986
 2241W        W70604  25.963  27.967  11.996
 2242W        W70605  23.024  19.128  13.486
 2243W        W70606  38.420   8.310   3.696
 2244W        W70607  42.285  11.798   2.835
 2245W        W70608  40.956  42.813  11.885
 2246W        W70609  10.666   3.347   1.371
 2247W        W70610  32.911  17.749  13.954
 2248W        W70611   6.259   4.765  13.062
 2249W        W70612  36.949   7.767   4.148
 2250W        W70613  35.426  23.657  12.577
 2251W        W70614  12.320  17.585  14.020
 2252W        W70615  35.922  42.888   1.240
 2253W        W70616  29.142  29.633  10.528
 2254W        W70617  33.040  42.001  13.879
 2255W        W70618  14.678  43.368   0.839
 2256W        W70619  37.576   7.189  13.886
 2257W        W70620  29.989  42.503   4.354
 2258W        W70621  33.059  40.884   0.811
 2259W        W70622  38.900  21.615   0.957
 2260W        W70623  43.945  38.862  10.436
 2261W        W70624   0.958   4.369  12.917
 2262W        W70625   6.816   2.956  13.429
 2263W        W70626  24.197  11.728   2.743
 2264W        W70627  37.409  26.003   3.227
 2265W        W70628  41.857   9.347   0.339
 2266W        W70629  34.555  12.674   1.820
 2267W        W70630   0.928  40.929  10.927
 2268W        W70631  28.512   7.259   4.312
 2269W        W70632  28.478  37.919  12.364
 2270W        W70633  12.835  31.070   3.816
 2271W        W70634  19.564  39.930   0.315
 2272W        W70635  18.076  22.710   2.242
 2273W        W70636   2.898  20.183   2.744
 2274W        W70637  43.385  32.935  10.941
 2275W        W70638  14.196  35.000   3.333
 2276W        W70639  41.336  32.407   2.791
 2277W        W70640  24.160  19.040   3.212
 2278W        W70641  39.388  21.151   4.677
 2279W        W70642  29.502  26.529  10.581
 2280W        W70643  30.496  41.948  11.063
 2281W        W70644   8.207   6.277  11.048
 2282W        W70645  38.509  43.000   3.786
 2283W        W70646   6.911  36.396   3.845
 2284W        W70647  10.809  32.617  10.890
 2285W        W70648  17.726  28.550   0.382
 2286W        W70649  41.804  16.298  14.902
 2287W        W70650  33.398   0.344  14.915
 2288W        W70651  24.176  33.879   2.283
 2289W        W70652  16.695   7.773   0.348
 2290W        W70653   4.287  26.101  11.940
 2291W        W70654  17.782   2.805   2.729
 2292W        W70655  28.558  26.984  11.482
 2293W        W70656  40.366   4.323   4.115
 2294W        W70657  20.584  28.080   1.759
 2295W        W70658   3.306  14.130  13.945
 2296W        W70659  24.683  37.050  12.947
 2297W        W70660  33.929  23.207   4.745
 2298W        W70661  44.372   3.795  13.325
 2299W        W70662  18.636  42.982  11.061
 2300W        W70663   5.313  36.371  10.951
 2301W        W70664  28.568  12.160  13.449
 2302W        W70665  14.244  19.595  13.864
 2303W        W70666  28.636  21.211  10.410
 2304W        W70667  26.164  21.621  11.423
 2305W        W70668  24.559   7.303   3.734
 2306W        W70669  27.179   2.917   1.888
 2307W        W70670  14.621  12.359   4.829
 2308W        W70671  17.190  16.112   0.304
 2309W        W70672   2.816  18.118   4.192
 2310W        W70673   9.889  22.593  11.908
 2311W        W70674  24.016  16.770   3.208
 2312W        W70675  41.975  10.641   0.370
 2313W        W70676  10.873  42.348  11.955
 2314W        W70677  11.288  43.984   3.632
 2315W        W70678   5.742  10.770  13.021
 2316W        W70679  44.802  19.145   2.689
 2317W        W70680   6.762  28.118  10.624
 2318W        W70681   2.472  31.501  12.913
 2319W        W70682   3.220   7.877   1.318
 2320W        W70683  28.626  24.112  10.442
 2321W        W70684  23.588  15.267  13.511
 2322W        W70685  31.522   6.258   2.882
 2323W        W70686  40.491  22.526   1.762
 2324W        W70687  21.027  18.718  14.827
 2325W        W70688  43.390  38.488  12.453
 2326W        W70689  14.802  30.511   4.342
 2327W        W70690  44.975  19.556  13.414
 2328W        W70691   9.744  37.416   1.338
 2329W        W70692  42.287   1.856  12.533
 2330W        W70693  34.410  35.459   0.826
 2331W        W70694  33.021  23.525  12.047
 2332W        W70695  31.512  17.277   4.332
 2333W        W70696   6.394  23.196   4.610
 2334W        W70697   5.789  19.229  11.082
 2335W        W70698   4.801  32.626  14.843
 2336W        W70699  25.593  35.408   0.729
 2337W        W70700  21.689  19.079  10.456
 2338W        W70701  41.532  14.752   3.372
 2339W        W70702  11.234  14.608   4.146
 2340W        W70703  36.022  31.105  11.535
 2341W        W70704   3.349   3.350   0.307
 2342W        W70705  15.660  27.148   1.916
 2343W        W70706  32.554  39.477   3.367
 2344W        W70707  31.036   6.428   0.434
 2345W        W70708  37.976  31.927   4.619
 2346W        W70709   4.411   1.883  13.514
 2347W        W70710  15.592  34.519   4.634
 2348W        W70711  24.045  36.886  13.028
 2349W        W70712   5.874  24.073  14.012
 2350W        W70713  11.165  33.020   3.149
 2351W        W70714   2.924  13.612   2.746
 2352W        W70715  20.618  44.976  13.499
 2353W        W70716  13.201  41.470  10.103
 2354W        W70717   1.807  34.050  10.642
 2355W        W70718  15.306  15.642   5.709
 2356W        W70719  22.702  29.646   9.986
 2357W        W70720   1.471  39.395   2.851
 2358W        W70721  13.708  24.676   2.699
 2359W        W70722  15.222   0.412  14.765
 2360W        W70723   9.817  44.379  11.549
 2361W        W70724   4.932  22.588  12.541
 2362W        W70725  18.562  32.419  14.387
 2363W        W70726  37.852  35.860   4.262
 2364W        W70727  10.674   2.797  10.420
 2365W        W70728  15.248  12.836  14.337
 2366W        W70729  12.310  21.100   4.147
 2367W        W70730   0.481  16.567  12.046
 2368W        W70731  17.105  43.514   3.645
 2369W        W70732  16.085   2.812   3.335
 2370W        W70733  39.547   7.274   4.824
 2371W        W70734  11.628  41.035   4.682
 2372W        W70735  39.551   3.951   1.707
 2373W        W70736  30.542  20.067  13.385
 2374W        W70737  35.883  43.800   3.311
 2375W        W70738  27.994   7.862   4.726
 2376W        W70739  20.210  21.618   1.702
 2377W        W70740  21.216  13.633  12.009
 2378W        W70741  44.790   2.834  12.376
 2379W        W70742  36.523  17.751   4.729
 2380W        W70743   1.877  25.009  12.840
 2381W        W70744   7.176   7.377  12.843
 2382W        W70745   9.275   7.260   3.238
 2383W        W70746   8.324   5.416   4.725
 2384W        W70747   5.259  35.581  11.385
 2385W        W70748  21.030  11.255  12.886
 2386W        W70749  28.532  14.698  14.794
 2387W        W70750   6.278   5.356   0.941
 2388W        W70751   9.155   2.815  11.108
 2389W        W70752  23.087   2.306   0.961
 2390W        W70753   8.281  44.850   0.407
 2391W        W70754  19.583  32.415  14.368
 2392W        W70755  36.926  25.556   0.371
 2393W        W70756  24.551  42.844  12.578
 2394W        W70757  18.706  19.615   3.312
 2395W        W70758  17.564  41.322   1.231
 2396W        W70759  19.117  43.451   0.825
 2397W        W70760   7.402   1.373  12.005
 2398W        W70761  16.669  10.267   3.633
 2399W        W70762  22.540  20.642   2.342
 2400W        W70763  42.785  22.110   1.381
 2401W        W70764  43.947   6.231   0.434
 2402W        W70765   8.744  27.567  11.864
 2403W        W70766  23.501  25.109  13.803
 2404W        W70767  12.193  34.895   0.422
 2405W        W70768  34.477  32.898   4.283
 2406W        W70769  10.813  33.437   2.878
 2407W        W70770  42.328  17.752  11.471
 2408W        W70771  29.462  29.499   0.243
 2409W        W70772   4.741  10.180  11.389
 2410W        W70773  14.653   4.368   1.242
 2411W        W70774  22.011  38.385  13.996
 2412W        W70775  20.253  44.969   3.649
 2413W        W70776  20.161  37.839   2.865
 2414W        W70777  16.805  34.880   1.895
 2415W        W70778   1.344  31.630  12.042
 2416W        W70779  12.729  34.104   4.197
 2417W        W70780  16.298  40.838   0.898
 2418W        W70781  16.747  34.497  12.433
 2419W        W70782  44.438  43.775   0.419
 2420W        W70783  26.463   3.780  14.994
 2421W        W70784  20.229  39.472  11.461
 2422W        W70785  24.563  30.070   3.671
 2423W        W70786   6.407   5.335   0.259
 2424W        W70787   9.761  28.986   2.871
 2425W        W70788   8.368   0.248  11.531
 2426W        W70789  38.017   4.294  14.817
 2427W        W70790   8.270  16.105  11.574
 2428W        W70791  32.046   5.892   0.470
 2429W        W70792  34.033   2.768  11.384
 2430W        W70793   9.845  33.435  10.444
 2431W        W70794  44.799  34.894  11.377
 2432W        W70795  44.939   9.152   1.312
 2433W        W70796  37.976  13.761   3.318
 2434W        W70797  21.660   9.239   0.261
 2435W        W70798  33.897  16.098  13.445
 2436W        W70799  44.837   0.928  10.631
 2437W        W70800  35.422  42.412   4.646
 2438W        W70801  23.192  10.857   0.436
 2439W        W70802  17.196  11.331   4.635
 2440W        W70803  14.281  11.762   4.650
 2441W        W70804  16.697  40.307   4.730
 2442W        W70805   8.307  27.641  12.823
 2443W        W70806  31.429   1.414  13.799
 2444W        W70807  43.886  43.794   2.190
 2445W        W70808  38.363  32.053  12.958
 2446W        W70809  34.035  16.619  14.870
 2447W        W70810  21.516  16.236  14.348
 2448W        W70811  13.146  21.183   3.279
 2449W        W70812  37.475  27.031  10.562
 2450W        W70813  33.436  23.630   0.828
 2451W        W70814  30.995  38.903  10.936
 2452W        W70815  18.757   5.235   4.752
 2453W        W70816  42.828   5.246   0.912
 2454W        W70817  35.958  23.702   0.463
 2455W        W70818  20.198  23.016  14.811
 2456W        W70819  31.122   1.732   1.703
 2457W        W70820  26.644  29.926  12.372
 2458W        W70821  31.940  17.159   5.258
 2459W        W70822   8.831  42.395  12.479
 2460W        W70823  23.690  40.524  14.792
 2461W        W70824   3.377  14.287  11.052
 2462W        W70825  33.618  16.239  12.492
 2463W        W70826  43.446  39.923   3.870
 2464W        W70827  26.102  31.077  11.974
 2465W        W70828  28.507   1.810  11.578
 2466W        W70829  43.792  16.641  12.033
 2467W        W70830  20.628   5.208   0.919
 2468W        W70831  17.704  38.474  13.356
 2469W        W70832  14.129  18.781  13.873
 2470W        W70833  33.409   8.175   1.257
 2471W        W70834  38.912  30.506  11.437
 2472W        W70835  40.824  29.093  10.587
 2473W        W70836  41.839  41.436  12.015
 2474W        W70837  19.619  25.074  11.605
 2475W        W70838   7.393   6.427   5.136
 2476W        W70839  26.667  35.582   4.753
 2477W        W70840  37.950  21.253  14.321
 2478W        W70841  16.687  35.586   2.830
 2479W        W70842   2.864  33.944   3.325
 2480W        W70843  22.249  36.512   0.463
 2481W        W70844  44.446  21.209  13.050
 2482W        W70845  29.609  42.979  14.805
 2483W        W70846  16.738  10.250  12.940
 2484W        W70847   4.726  13.845  12.994
 2485W        W70848  41.461   7.400   0.467
 2486W        W70849  29.024  16.606   4.806
 2487W        W70850  30.140  18.557  14.824
 2488W        W70851  11.346  10.858  14.761
 2489W        W70852  15.113  20.523  14.942
 2490W        W70853  29.624  37.012  12.845
 2491W        W70854   3.830  18.790  12.858
 2492W        W70855  15.658  27.037   4.270
 2493W        W70856  26.696   9.187  12.837
 2494W        W70857   2.729  17.279   0.353
 2495W        W70858  31.031  22.729   5.102
 2496W        W70859  22.744  41.956   2.319
 2497W        W70860  16.762  43.930   2.670
 2498W        W70861  40.814  42.420   2.702
 2499W        W70862  19.213  21.646  11.874
 2500W        W70863   4.772   0.417  14.488
 2501W        W70864   8.337  39.910  11.605
 2502W        W70865  35.538  20.240   3.660
 2503W        W70866   3.461   7.703  11.591
 2504W        W70867  13.125  20.548  13.478
 2505W        W70868  18.637  44.440   5.659
 2506W        W70869  30.992  18.567  11.077
 2507W        W70870  30.615  12.659  12.565
 2508W        W70871  33.547  25.982   4.312
 2509W        W70872  25.690  41.452   0.398
 2510W        W70873  22.687  31.448   1.779
 2511W        W70874   6.691  14.705  11.914
 2512W        W70875  17.288  11.726   3.329
 2513W        W70876  13.281  43.458  11.979
 2514W        W70877  40.039   4.808   4.708
 2515W        W70878  26.657   8.193   3.369
 2516W        W70879  41.432  11.148   3.652
 2517W        W70880   8.336  25.095  14.929
 2518W        W70881  19.619  37.994  10.519
 2519W        W70882  34.077  16.311   4.341
 2520W        W70883  22.706   9.650  12.524
 2521W        W70884  15.325  27.578  11.011
 2522W        W70885  15.766   1.964   2.831
 2523W        W70886   5.720  17.202  13.934
 2524W        W70887   0.778   4.253   0.480
 2525W        W70888  29.128  42.366  12.383
 2526W        W70889  40.975  32.097   0.444
 2527W        W70890   3.753  10.184   1.373
 2528W        W70891  28.664   3.420   0.746
 2529W        W70892  43.276  21.556  12.474
 2530W        W70893  27.544  40.899  10.977
 2531W        W70894  10.214  17.630  11.536
 2532W        W70895  19.136  44.965   2.708
 2533W        W70896  40.974  31.481   3.300
 2534W        W70897  26.511  38.558  10.637
 2535W        W70898  27.534  39.375  13.325
 2536W        W70899  11.650  27.992  12.533
 2537W        W70900  12.789   0.814  10.616
 2538W        W70901   5.789   7.909  11.481
 2539W        W70902  38.867  27.692   1.404
 2540W        W70903   6.389  29.530   4.297
 2541W        W70904  20.654  36.026  13.948
 2542W        W70905  24.999  25.525   2.710
 2543W        W70906   5.278  28.543  10.534
 2544W        W70907  13.151  25.692  10.896
 2545W        W70908  19.232  12.634  13.520
 2546W        W70909  16.186  40.029   4.231
 2547W        W70910  24.610  38.005  12.825
 2548W        W70911  31.425   8.272   4.251
 2549W        W70912  41.892   8.160  14.451
 2550W        W70913  43.938  10.276   4.143
 2551W        W70914  11.839   0.440   3.693
 2552W        W70915  31.430  21.707  12.086
 2553W        W70916   8.784  23.554   3.248
 2554W        W70917  16.266  40.990  12.924
 2555W        W70918  11.170  30.567  11.437
 2556W        W70919   8.396  17.788   1.305
 2557W        W70920  19.057  16.236  12.416
 2558W        W70921   0.841   0.798  10.102
 2559W        W70922  42.929  24.007   5.112
 2560W        W70923  33.039   7.667   2.780
 2561W        W70924  35.929  34.082   0.456
 2562W        W70925  14.609  17.769  10.584
 2563W        W70926  32.502  42.387  10.974
 2564W        W70927  30.043   6.338   3.679
 2565W        W70928  12.212  24.488  14.509
 2566W        W70929  42.494  42.990  14.454
 2567W        W70930  41.909   4.256   2.408
 2568W        W70931  38.489   6.815   4.178
 2569W        W70932   6.898  16.810  13.834
 2570W        W70933   7.181   0.483   4.190
 2571W        W70934  14.159  43.388  13.941
 2572W        W70935  25.203   9.887   4.763
 2573W        W70936  19.249  32.629   1.879
 2574W        W70937   1.266   9.816   0.870
 2575W        W70938  43.828  11.193  13.443
 2576W        W70939  15.320  17.615   0.919
 2577W        W70940  23.508  36.046   3.334
 2578W        W70941  36.496  34.506   2.741
 2579W        W70942  33.923   5.416  10.528
 2580W        W70943  38.848   5.236   2.295
 2581W        W70944   1.344  35.526   2.291
 2582W        W70945  21.213  19.755   0.924
 2583W        W70946  31.554   0.939  13.849
 2584W        W70947  37.362  27.536   1.305
 2585W        W70948  18.297  35.416   2.205
 2586W        W70949  32.978  33.966  10.597
 2587W        W70950  42.439  44.793  14.331
 2588W        W70951  22.221  12.657   2.826
 2589W        W70952   8.278  31.456  13.933
 2590W        W70953  32.955  40.911   1.347
 2591W        W70954   3.822   4.422   3.656
 2592W        W70955  44.274  38.991   1.339
 2593W        W70956  33.426   1.297  13.377
 2594W        W70957  10.845  44.346   0.875
 2595W        W70958   0.877  24.581   2.711
 2596W        W70959   5.843  24.581   2.349
 2597W        W70960  11.291  32.635   1.302
 2598W        W70961  25.054  15.619   2.323
 2599W        W70962  27.979  18.724   3.814
 2600W        W70963  22.535  43.851  11.529
 2601W        W70964  32.513  24.685   1.749
 2602W        W70965   7.903  21.640   3.836
 2603W        W70966  24.107  32.481  10.953
 2604W        W70967  33.612  38.992  12.838
 2605W        W70968   9.750  10.810   2.735
 2606W        W70969  33.512   1.433   1.367
 2607W        W70970  14.800   7.217   1.911
 2608W        W70971  14.219  39.995   3.734
 2609W        W70972   6.278  33.424  13.808
 2610W        W70973   9.341  26.513  13.376
 2611W        W70974   6.884   8.872   2.757
 2612W        W70975  20.233  21.547   2.359
 2613W        W70976  23.641   5.194  13.498
 2614W        W70977   7.820   4.897  12.488
 2615W        W70978  25.198   8.750   4.747
 2616W        W70979  14.135  15.740   0.474
 2617W        W70980  10.247  23.636  14.335
 2618W        W70981  24.151  42.319   3.649
 2619W        W70982  31.531  44.963  12.938
 2620W        W70983  14.691   0.329  11.584
 2621W        W70984  16.673  43.837  10.597
 2622W        W70985  28.008  30.605   0.410
 2623W        W70986  16.674  10.203  11.973
 2624W        W70987   3.397  36.448   2.282
 2625W        W70988  44.309  40.875  12.449
 2626W        W70989   4.229  44.841   1.441
 2627W        W70990  16.175  38.828  13.888
 2628W        W70991   7.312  24.068   1.877
 2629W        W70992  10.384  39.495   3.151
 2630W        W70993  20.132   1.472  10.553
 2631W        W70994   4.343   9.272  13.968
 2632W        W70995  10.771  29.998   2.367
 2633W        W70996  14.619  41.486  14.828
 2634W        W70997  34.035   7.416   3.869
 2635W        W70998  38.491  34.919  11.473
 2636W        W70999  26.702   3.821  10.622
 2637W        W71000  29.578  24.118   2.309
 2638W        W71001  39.490   4.902   0.460
 2639W        W71002   4.219   4.238   2.781
 2640W        W71003   8.283  11.178  14.463
 2641W        W71004  15.758  12.247  11.080
 2642W        W71005  19.643  29.504  13.000
 2643W        W71006  44.981  29.452   4.802
 2644W        W71007  20.030   1.883   3.867
 2645W        W71008  21.660  16.597  13.346
 2646W        W71009  21.755   7.179  11.473
 2647W        W71010  25.503  28.981  11.427
 2648W        W71011  27.006  20.250   3.825
 2649W        W71012  27.115  34.542   0.314
 2650W        W71013  13.329   0.349  11.472
 2651W        W71014  11.838  19.213  14.815
 2652W        W71015  28.140   6.821   2.218
 2653W        W71016   6.745  19.704   3.204
 2654W        W71017   7.698   1.874  14.423
 2655W        W71018  19.270  16.730   0.914
 2656W        W71019  11.644  11.227   2.294
 2657W        W71020  16.264  33.398   0.841
 2658W        W71021  12.187  24.533  11.536
 2659W        W71022  28.119  33.918  10.606
 2660W        W71023  10.754  20.601  13.818
 2661W        W71024  26.122  13.230  14.868
 2662W        W71025  21.755  33.878  13.855
 2663W        W71026   1.758  38.888   3.670
 2664W        W71027  38.370  40.498   0.428
 2665W        W71028  11.827  14.312  13.931
 2666W        W71029  14.800  35.521   0.767
 2667W        W71030   6.838  19.284   1.791
 2668W        W71031  14.786  19.283  11.128
 2669W        W71032   2.940  24.164  14.759
 2670W        W71033  12.672  27.990   3.266
 2671W        W71034   6.829  15.693  11.395
 2672W        W71035  38.864   7.410   3.190
 2673W        W71036  10.730  40.021  12.846
 2674W        W71037  42.787  17.790   0.748
 2675W        W71038   0.331  26.686  10.131
 2676W        W71039   3.267  23.696  10.913
 2677W        W71040   8.349   1.428   0.937
 2678W        W71041  36.403  26.037   1.382
 2679W        W71042  39.392  33.558   2.754
 2680W        W71043  24.041  35.964  11.965
 2681W        W71044   7.204  39.997  12.458
 2682W        W71045  41.842  30.003  11.575
 2683W        W71046  21.682  30.992   4.708
 2684W        W71047  10.302   2.898  14.987
 2685W        W71048  31.106   6.217  10.892
 2686W        W71049  29.505  26.498  10.048
 2687W        W71050  18.584  16.083  13.530
 2688W        W71051  27.568  28.592   3.787
 2689W        W71052  44.814  43.824   0.932
 2690W        W71053  11.327   9.267   1.810
 2691W        W71054  17.186  20.257   1.409
 2692W        W71055  32.412  14.711  10.558
 2693W        W71056  15.601   0.849  12.935
 2694W        W71057  40.344  13.660  14.971
 2695W        W71058  11.693  38.015  10.918
 2696W        W71059  38.519  13.162   2.886
 2697W        W71060  40.827  40.543   4.257
 2698W        W71061  42.507  34.596  11.537
 2699W        W71062  17.218  20.195  11.530
 2700W        W71063   3.439  10.742   2.882
 2701W        W71064  32.400  17.076  11.413
 2702W        W71065   9.687  23.604  14.772
 2703W        W71066   1.938  29.661  11.509
 2704W        W71067  37.524  35.861  13.401
 2705W        W71068  44.922  15.600  12.837
 2706W        W71069  11.648  14.331   1.728
 2707W        W71070   3.317  42.809   0.321
 2708W        W71071  37.878  28.077  12.528
 2709W        W71072  35.515   5.868  13.459
 2710W        W71073  28.579  21.635  13.311
 2711W        W71074  36.028  21.189   2.885
 2712W        W71075  16.288  32.890  12.371
 2713W        W71076  30.619   8.850  14.357
 2714W        W71077  29.597  42.357  13.422
 2715W        W71078  20.624  13.713   3.369
 2716W        W71079  14.174  11.832   0.834
 2717W        W71080  43.831  11.629  11.466
 2718W        W71081  32.026   9.790  11.984
 2719W        W71082  24.191   1.314   4.349
 2720W        W71083   1.446   4.379   2.182
 2721W        W71084  43.506  23.034  13.815
 2722W        W71085  21.590  40.822   0.461
 2723W        W71086  12.356  30.130   2.662
 2724W        W71087  43.776  36.380  11.506
 2725W        W71088  44.349  20.731  14.787
 2726W        W71089   5.901  27.076  14.459
 2727W        W71090  39.480  13.795   4.333
 2728W        W71091  24.704  38.895  10.603
 2729W        W71092  34.461  41.847   4.663
 2730W        W71093  26.145  15.240   3.184
 2731W        W71094   1.936   6.802   2.830
 2732W        W71095  29.000   6.280  11.451
 2733W        W71096  15.329  21.715  12.877
 2734W        W71097  42.514  27.620  10.580
 2735W        W71098   4.802  43.818  11.079
 2736W        W71099   1.450  20.606  13.355
 2737W        W71100   5.724   5.265   2.283
 2738W        W71101  32.454   2.842   0.272
 2739W        W71102  11.837  10.324   2.720
 2740W        W71103  16.662   7.283   0.847
 2741W        W71104  17.256  34.079   0.761
 2742W        W71105  15.753  33.990  10.959
 2743W        W71106  37.054  13.800  13.392
 2744W        W71107  25.658  18.081   1.880
 2745W        W71108  22.570  35.928   5.113
 2746W        W71109   7.380  38.987   2.347
 2747W        W71110  12.267  11.678   0.476
 2748W        W71111  37.949  19.576  11.526
 2749W        W71112  39.029   6.201   2.178
 2750W        W71113  28.164  25.153   2.781
 2751W        W71114  39.872  28.978   3.385
 2752W        W71115   7.737   4.340   3.236
 2753W        W71116   7.864   9.647   0.247
 2754W        W71117  23.064  12.834   2.677
 2755W        W71118  15.130  26.698   1.221
 2756W        W71119  36.514  19.138  10.417
 2757W        W71120  35.040   8.220   3.226
 2758W        W71121  20.714   2.762  11.993
 2759W        W71122  42.504  28.955   0.376
 2760W        W71123  22.708  41.001   0.728
 2761W        W71124  18.694  31.586  10.470
 2762W        W71125  36.457  27.092   0.372
 2763W        W71126   4.919  30.980   3.260
 2764W        W71127  30.935  17.609  12.580
 2765W        W71128  35.961  31.579   4.143
 2766W        W71129   1.756   0.788  10.420
 2767W        W71130  17.583  19.263  14.870
 2768W        W71131   8.825  42.886  12.373
 2769W        W71132   1.741  10.268   2.254
 2770W        W71133  13.726  39.018   4.225
 2771W        W71134  15.291  30.113   3.751
 2772W        W71135   8.404  20.660   2.762
 2773W        W71136  27.964   8.714   4.276
 2774W        W71137  17.695  33.958  13.040
 2775W        W71138   5.236  40.381  10.518
 2776W        W71139  44.899  34.445   3.243
 2777W        W71140   5.913  19.730   4.795
 2778W        W71141  26.055  25.710  11.110
 2779W        W71142  14.626  14.287  12.017
 2780W        W71143  26.684  23.652  13.327
 2781W        W71144  41.005  37.860  10.952
 2782W        W71145  39.002   9.348  14.895
 2783W        W71146  16.080  13.349   3.695
 2784W        W71147   3.850  10.756   1.418
 2785W        W71148  22.232  16.711  13.829
 2786W        W71149  11.716  16.602   0.470
 2787W        W71150  14.766  17.193   3.667
 2788W        W71151   5.236  39.908   4.635
 2789W        W71152  36.898  24.187   1.716
 2790W        W71153  35.449  43.895  14.809
 2791W        W71154   2.357   1.797  14.425
 2792W        W71155  36.927  35.912  13.324
 2793W        W71156   1.355  28.601  10.553
 2794W        W71157   4.360   7.411  12.506
 2795W        W71158  22.151   0.904  14.304
 2796W        W71159   7.319  43.461  12.536
 2797W        W71160  37.843  13.706   9.970
 2798W        W71161  32.056   6.786  11.551
 2799W        W71162  30.119  21.537  12.366
 2800W        W71163  34.898  12.246  14.945
 2801W        W71164  38.470  37.382   0.416
 2802W        W71165  16.202  16.600  13.813
 2803W        W71166  39.519  41.803  14.324
 2804W        W71167  33.608   6.833  12.018
 2805W        W71168  27.027  31.513   3.814
 2806W        W71169   3.460  23.715   2.837
 2807W        W71170  20.673  11.747  11.546
 2808W        W71171   0.927  42.294   0.945
 2809W        W71172  24.979   5.784  10.912
 2810W        W71173  31.524  12.736  11.550
 2811W        W71174  36.505  17.131   3.663
 2812W        W71175  37.341   2.897   3.653
 2813W        W71176  15.183  16.312  14.973
 2814W        W71177  36.539  14.178   3.233
 2815W        W71178  36.558  32.129  14.891
 2816W        W71179  17.651  24.121  10.634
 2817W        W71180  16.687  12.187   2.208
 2818W        W71181  19.771   2.378  13.974
 2819W        W71182  38.550  35.108  14.947
 2820W        W71183   0.367  21.159   0.942
 2821W        W71184  33.113   0.310  14.950
 2822W        W71185  16.081  29.497   0.285
 2823W        W71186  31.982  40.420   4.233
 2824W        W71187  15.631  15.108  13.397
 2825W        W71188  42.943  41.958   2.190
 2826W        W71189  33.404  12.258  11.533
 2827W        W71190  17.214  41.894   0.734
 2828W        W71191  41.298  18.136  11.883
 2829W        W71192  34.898  16.312   0.816
 2830W        W71193   4.444  29.022  12.349
 2831W        W71194  37.031  38.030  11.957
 2832W        W71195  23.993  37.037   4.155
 2833W        W71196  10.314  12.310  11.474
 2834W        W71197  32.991  26.205  14.809
 2835W        W71198  11.697   9.382   4.163
 2836W        W71199   8.210  37.543  13.440
 2837W        W71200  35.517   4.736  12.447
 2838W        W71201  13.221   4.814   1.904
 2839W        W71202  31.595  21.142   4.665
 2840W        W71203  44.473  33.482   0.860
 2841W        W71204  36.445  17.613  14.375
 2842W        W71205  23.998  30.072   3.332
 2843W        W71206   4.255  35.550  12.537
 2844W        W71207  19.174  24.556  13.961
 2845W        W71208  38.976  44.883   2.345
 2846W        W71209   0.348  33.388   2.671
 2847W        W71210  15.777  44.946  11.899
 2848W        W71211   4.258  19.167  14.827
 2849W        W71212  35.395  15.106  12.402
 2850W        W71213  39.918  10.657  11.101
 2851W        W71214   3.943  37.841   4.684
 2852W        W71215  22.118  30.981   4.838
 2853W        W71216  44.856  19.095   2.229
 2854W        W71217   2.424   8.173   3.221
 2855W        W71218   9.269  22.601  13.907
 2856W        W71219   5.250  26.667   3.674
 2857W        W71220  39.036  20.652  10.569
 2858W        W71221   0.976  12.257   3.209
 2859W        W71222  42.848   3.732  10.973
 2860W        W71223   3.753  27.529   4.773
 2861W        W71224  23.242  36.420  13.027
 2862W        W71225  12.780  42.450   3.813
 2863W        W71226   7.791   4.319  13.965
 2864W        W71227  18.220  38.443   1.292
 2865W        W71228  21.658  15.594  14.900
 2866W        W71229  26.030  44.934   1.866
 2867W        W71230  10.196  23.127  10.611
 2868W        W71231  11.367  41.889  13.966
 2869W        W71232   6.422  28.050  13.388
 2870W        W71233   7.730  43.826   1.215
 2871W        W71234  28.119  32.968  10.585
 2872W        W71235  11.194  39.452  11.416
 2873W        W71236   4.413   4.875  11.980
 2874W        W71237   3.448   8.839   2.845
 2875W        W71238   8.368  41.026  11.576
 2876W        W71239  42.946  14.706   0.430
 2877W        W71240  30.133  21.082  12.084
 2878W        W71241  34.969  33.063  13.868
 2879W        W71242  21.610   7.270  14.968
 2880W        W71243   8.169  10.141  14.891
 2881W        W71244   0.898  30.114   3.325
 2882W        W71245   7.774  44.916   2.314
 2883W        W71246  28.096  30.533   4.298
 2884W        W71247  28.574   6.215   3.733
 2885W        W71248  32.525  34.516  12.506
 2886W        W71249  42.501  34.493   4.251
 2887W        W71250  25.118  20.662   0.340
 2888W        W71251  43.382   7.665  14.888
 2889W        W71252  43.990  17.765  12.414
 2890W        W71253  43.349   5.392   1.699
 2891W        W71254  23.035  18.683   1.804
 2892W        W71255  14.679  14.143  13.008
 2893W        W71256  10.373  22.642   4.288
 2894W        W71257  39.064  39.976  11.062
 2895W        W71258  13.677  13.264   4.649
 2896W        W71259  37.520  42.332   1.290
 2897W        W71260  31.923  25.618  13.447
 2898W        W71261   5.390  42.499   4.182
 2899W        W71262   8.276   9.302  11.944
 2900W        W71263   0.249  15.681  13.508
 2901W        W71264   3.918  26.661   4.337
 2902W        W71265   1.786   0.336   0.419
 2903W        W71266  38.377   5.265  12.524
 2904W        W71267  30.021  14.603   1.856
 2905W        W71268  11.331   4.929   3.720
 2906W        W71269  14.331  23.213  12.466
 2907W        W71270  21.736  28.458   4.707
 2908W        W71271  30.996  14.217  10.889
 2909W        W71272  38.433  11.751  12.063
 2910W        W71273  33.447  20.031  13.523
 2911W        W71274  13.837  44.985  11.607
 2912W        W71275  38.333   1.770   0.871
 2913W        W71276  44.264  15.239   3.188
 2914W        W71277  29.048  35.370  12.446
 2915W        W71278   1.913   3.443  13.033
 2916W        W71279   7.207  11.312   1.817
 2917W        W71280  11.781  42.432  10.434
 2918W        W71281  24.974   7.252   1.351
 2919W        W71282   8.876   9.762   0.779
 2920W        W71283   6.409   5.809  13.460
 2921W        W71284  40.910  13.221  10.607
 2922W        W71285  12.164   6.392  11.104
 2923W        W71286  43.357   6.377   3.631
 2924W        W71287  41.340   1.480   1.864
 2925W        W71288  16.091   6.421   3.314
 2926W        W71289  31.977  36.030  12.844
 2927W        W71290  24.031  24.983  13.387
 2928W        W71291  35.374  18.678   1.741
 2929W        W71292   5.260  27.542   1.405
 2930W        W71293  20.107  42.516  12.422
 2931W        W71294  42.487   5.321   0.426
 2932W        W71295  41.027  42.932  10.579
 2933W        W71296   2.291   8.319   1.283
 2934W        W71297   3.441  24.658  14.771
 2935W        W71298  37.436   2.453  11.492
 2936W        W71299   3.416  12.202   2.723
 2937W        W71300  17.790   6.784  13.530
 2938W        W71301  22.059  41.021  11.422
 2939W        W71302  11.717  37.445   1.907
 2940W        W71303  25.036   6.771   3.717
 2941W        W71304  25.098  41.928  13.315
 2942W        W71305  38.446   0.984  13.927
 2943W        W71306  41.415  23.519  10.981
 2944W        W71307   0.260   1.267   4.229
 2945W        W71308  15.721  12.698  10.926
 2946W        W71309  38.838  24.175   4.635
 2947W        W71310  20.233  15.679   4.288
 2948W        W71311  22.170  33.055  12.471
 2949W        W71312  36.419  25.202  12.893
 2950W        W71313  22.600   3.788  10.564
 2951W        W71314  40.826  19.059  14.381
 2952W        W71315  30.978  43.460  13.425
 2953W        W71316  26.123  10.198  12.524
 2954W        W71317   5.818  28.081  12.528
 2955W        W71318  27.542   4.806   4.695
 2956W        W71319  13.782   2.844  10.618
 2957W        W71320  21.607   6.254   4.255
 2958W        W71321  36.464  24.626  14.975
 2959W        W71322  28.551  20.750  13.993
 2960W        W71323  12.612  34.525  14.356
 2961W        W71324  12.786  18.116   4.267
 2962W        W71325  10.175  40.346  14.969
 2963W        W71326  31.069  33.939  14.911
 2964W        W71327   3.228  10.324   2.809
 2965W        W71328   9.194  16.094  10.528
 2966W        W71329  19.098  12.642   1.707
 2967W        W71330  17.065  34.467  14.447
 2968W        W71331  25.092  40.322   0.277
 2969W        W71332  43.398  28.604   0.291
 2970W        W71333  35.463   0.895  10.893
 2971W        W71334  35.476   1.942  12.520
 2972W        W71335  33.471  15.665  10.551
 2973W        W71336   8.795  12.253  11.381
 2974W        W71337  35.892  40.412   1.842
 2975W        W71338   2.806  21.727   5.290
 2976W        W71339  19.545  20.123   3.849
 2977W        W71340  34.501  13.261  14.363
 2978W        W71341  31.113  43.770   1.710
 2979W        W71342  44.856  34.459   1.837
 2980W        W71343  29.498  43.950  13.340
 2981W        W71344   7.329  43.881  13.422
 2982W        W71345  32.476  11.187   1.360
 2983W        W71346  30.585   0.958  13.999
 2984W        W71347  33.617   5.826   9.941
 2985W        W71348  32.894  24.634  11.529
 2986W        W71349  44.794  16.167   3.742
 2987W        W71350  36.363   9.196   0.940
 2988W        W71351  31.026   2.306   1.290
 2989W        W71352  12.138  32.612   2.802
 2990W        W71353   4.398  33.389   1.383
 2991W        W71354  38.015  39.921   3.792
 2992W        W71355  12.739  31.562   0.348
 2993W        W71356  22.020  43.386  13.461
 2994W        W71357  23.541  30.547  13.989
 2995W        W71358  21.135  35.091  14.299
 2996W        W71359  41.002  31.555   2.365
 2997W        W71360   3.791  23.697  14.983
 2998W        W71361  21.202  14.784   3.686
 2999W        W71362  27.672  12.629   4.616
 3000W        W71363  19.198  10.719   0.317
 3001W        W71364  20.637  22.099  12.341
 3002W        W71365   4.883  10.212  10.557
 3003W        W71366  15.809  44.011   4.184
 3004W        W71367  13.229  31.409  13.973
 3005W        W71368  10.316  25.036  11.541
 3006W        W71369  26.562  16.594   0.256
 3007W        W71370  33.093  44.416   1.291
 3008W        W71371  14.721  20.768   2.356
 3009W        W71372  19.632  41.401   3.760
 3010W        W71373  11.806  14.614  12.865
 3011W        W71374  35.000  30.083  11.925
 3012W        W71375  35.065  23.988   3.174
 3013W        W71376   0.413  21.021  13.825
 3014W        W71377  17.761  19.762   1.891
 3015W        W71378  30.555  30.999   5.214
 3016W        W71379  27.623  26.161  11.062
 3017W        W71380  24.708   6.286   0.327
 3018W        W71381  42.847  12.356  14.954
 3019W        W71382   1.853   0.383   5.695
 3020W        W71383  31.623   6.311  14.459
 3021W        W71384   2.405   6.747   2.416
 3022W        W71385  28.529  29.533   0.427
 3023W        W71386   4.304  40.831   3.283
 3024W        W71387   0.307  38.905  11.001
 3025W        W71388  10.174  23.182   0.451
 3026W        W71389  33.927  42.338   3.706
 3027W        W71390  12.213  38.984  12.983
 3028W        W71391  27.689  21.033  13.489
 3029W        W71392  27.497  15.303   4.302
 3030W        W71393   8.889   0.399  10.620
 3031W        W71394  24.167  29.428   0.949
 3032W        W71395  12.774  27.085  13.954
 3033W        W71396  43.368  12.816  13.790
 3034W        W71397  25.511   9.275   1.711
 3035W        W71398  31.463  38.984   4.177
 3036W        W71399  36.006   1.313   2.782
 3037W        W71400  20.647  27.999   4.757
 3038W        W71401  28.457  21.055   4.650
 3039W        W71402  10.769  35.909  11.525
 3040W        W71403   8.826   2.351   3.297
 3041W        W71404  31.562   1.886   1.437
 3042W        W71405  36.076  35.067   2.819
 3043W        W71406  11.654  13.155   4.253
 3044W        W71407   7.727   9.385  14.896
 3045W        W71408  27.039  41.519   1.268
 3046W        W71409  21.149  10.662  11.402
 3047W        W71410  15.600  40.395  14.920
 3048W        W71411  26.622  44.263  11.950
 3049W        W71412  16.576  20.576   2.408
 3050W        W71413  25.659  13.284  12.558
 3051W        W71414   3.856   0.968   5.256
 3052W        W71415   9.319  33.567  10.041
 3053W        W71416  22.638   7.864   1.896
 3054W        W71417  44.419   3.880  14.790
 3055W        W71418  22.064  24.137   2.241
 3056W        W71419  29.971  39.417   0.319
 3057W        W71420   8.197  24.717   0.360
 3058W        W71421   8.221  15.647   3.205
 3059W        W71422  27.017  21.545   1.279
 3060W        W71423   8.694  43.785  13.033
 3061W        W71424  31.482  44.473   2.195
 3062W        W71425  39.962  37.379  13.991
 3063W        W71426  38.444  33.473  10.917
 3064W        W71427  37.975  26.587  11.020
 3065W        W71428  11.156   7.786  14.980
 3066W        W71429  18.669   0.335   3.743
 3067W        W71430  10.302  25.992   2.853
 3068W        W71431  22.510  41.402  10.486
 3069W        W71432  29.012  14.756   3.221
 3070W        W71433  15.120  26.098  14.973
 3071W        W71434  36.574  42.991   4.249
 3072W        W71435  26.664  17.580  10.413
 3073W        W71436  20.184  33.903   4.740
 3074W        W71437  20.074  16.689  12.024
 3075W        W71438   3.326  18.740  13.044
 3076W        W71439  36.910   9.214  11.040
 3077W        W71440   4.411  27.669   3.146
 3078W        W71441  43.348  10.240   2.901
 3079W        W71442   9.375  10.726   2.222
 3080W        W71443   7.415  41.512   0.730
 3081W        W71444  29.039  29.010   2.401
 3082W        W71445  10.268  29.463   4.745
 3083W        W71446  15.742  16.729  10.570
 3084W        W71447  27.095  10.179   2.281
 3085W        W71448  18.196  22.212   1.244
 3086W        W71449  30.942  39.937   3.154
 3087W        W71450  24.566  39.481  12.051
 3088W        W71451   1.435  24.004  14.300
 3089W        W71452  41.499  23.637   4.797
 3090W        W71453  27.454  39.958  13.816
 3091W        W71454  32.616   0.945   0.842
 3092W        W71455   4.262  31.476  13.918
 3093W        W71456  30.635   5.232  14.784
 3094W        W71457  34.999  14.182  14.028
 3095W        W71458  25.197  34.010  10.617
 3096W        W71459  23.084   6.814   1.360
 3097W        W71460  20.266  21.541  14.502
 3098W        W71461  36.947  20.590   1.222
 3099W        W71462  18.083  27.494  14.354
 3100W        W71463  38.350  27.977   4.793
 3101W        W71464  27.048  38.417   4.172
 3102W        W71465  41.852  38.859  13.053
 3103W        W71466  40.810  29.118  10.996
 3104W        W71467  21.728  29.083   2.253
 3105W        W71468  27.625  14.250  14.291
 3106W        W71469  12.789  11.285  10.913
 3107W        W71470  33.537  19.552   2.750
 3108W        W71471  19.185  28.019  12.431
 3109W        W71472  12.211  34.866   3.161
 3110W        W71473   4.262  29.615  11.941
 3111W        W71474  44.799  34.512  10.486
 3112W        W71475  44.790  29.482  14.924
 3113W        W71476  19.577  20.560  12.000
 3114W        W71477  38.976   1.348  11.873
 3115W        W71478  38.471  31.548   1.435
 3116W        W71479  27.525  25.005   4.799
 3117W        W71480  41.448  24.526   4.616
 3118W        W71481  27.661  16.263   9.991
 3119W        W71482  29.145  20.561   2.746
 3120W        W71483  43.820  40.315  11.416
 3121W        W71484  34.035  29.115  12.923
 3122W        W71485  22.578  22.642  13.980
 3123W        W71486   6.406  13.599  14.921
 3124W        W71487  41.879  38.447   4.115
 3125W        W71488   1.800  27.565  10.460
 3126W        W71489  44.472  41.886  14.949
 3127W        W71490  42.898   9.881   1.281
 3128W        W71491  28.612  25.092  12.927
 3129W        W71492  38.012  29.066  10.060
 3130W        W71493   2.837  34.111  12.405
 3131W        W71494  34.606  39.395   3.301
 3132W        W71495  41.302  41.361   2.875
 3133W        W71496  35.857  24.145   3.847
 3134W        W71497   4.407  41.948   3.762
 3135W        W71498   6.879  16.276   0.412
 3136W        W71499  42.332  27.451   4.275
 3137W        W71500  41.975  23.565  13.839
 3138W        W71501  44.483  13.655   1.430
 3139W        W71502  16.115  32.929   2.322
 3140W        W71503  19.049  44.489  14.940
 3141W        W71504  13.714  20.719   2.857
 3142W        W71505   7.891  10.323   1.791
 3143W        W71506  13.148  20.636   1.923
 3144W        W71507  30.997  40.432  14.850
 3145W        W71508  34.933   9.391  11.571
 3146W        W71509   5.725  14.820   2.885
 3147W        W71510  16.610   0.829   3.320
 3148W        W71511  30.477  15.662  12.888
 3149W        W71512  36.031  32.060  12.521
 3150W        W71513  20.628  21.639  14.873
 3151W        W71514  29.670  28.608   0.756
 3152W        W71515  42.850  32.087  11.101
 3153W        W71516  27.665   5.238  14.892
 3154W        W71517  27.083   8.393  13.971
 3155W        W71518   8.338  29.072  14.391
 3156W        W71519   7.703   1.783  11.459
 3157W        W71520  25.150  16.655  12.986
 3158W        W71521  25.557   4.940  12.881
 3159W        W71522  14.826  43.821   1.432
 3160W        W71523  21.524   4.346   3.664
 3161W        W71524  30.112  25.710   4.187
 3162W        W71525   4.894  11.664  12.034
 3163W        W71526  21.533   3.312  12.403
 3164W        W71527  16.270  16.621   2.867
 3165W        W71528  17.131   9.345   1.900
 3166W        W71529  33.054   4.862   4.642
 3167W        W71530   7.793  20.088   0.475
 3168W        W71531   9.157   8.325   4.165
 3169W        W71532  17.266  23.616   2.349
 3170W        W71533   7.704   4.864  11.493
 3171W        W71534   1.348  27.135  12.016
 3172W        W71535  35.433  39.971   0.433
 3173W        W71536  42.836  36.908  11.920
 3174W        W71537  11.372   1.380   3.729
 3175W        W71538  17.570  16.157   1.842
 3176W        W71539  34.451   9.318  14.020
 3177W        W71540  33.583  29.972   4.292
 3178W        W71541  33.938  43.395   1.887
 3179W        W71542   3.784  35.388   4.621
 3180W        W71543  23.643  39.354   3.241
 3181W        W71544  28.668  39.018   0.914
 3182W        W71545  28.647  29.939  10.963
 3183W        W71546  36.849  32.062   1.834
 3184W        W71547  28.082  28.088   1.814
 3185W        W71548  28.038  28.444  10.616
 3186W        W71549  41.311   0.974  12.454
 3187W        W71550  40.972  10.232  14.475
 3188W        W71551   5.412   3.811   4.295
 3189W        W71552  35.050  33.105   3.643
 3190W        W71553  26.970  41.792  12.031
 3191W        W71554   2.841   8.207  14.443
 3192W        W71555  37.886   6.317  10.458
 3193W        W71556  10.364  10.643  13.347
 3194W        W71557  35.879  43.835   4.677
 3195W        W71558  26.058  40.474  10.432
 3196W        W71559  31.945  44.306  12.540
 3197W        W71560  25.053  38.823  13.417
 3198W        W71561  43.481  16.715  14.499
 3199W        W71562  30.465   8.389   2.773
 3200W        W71563  38.566  17.074   0.908
 3201W        W71564  44.993  11.734   2.862
 3202W        W71565  13.199  32.422   0.408
 3203W        W71566  38.444  28.164   2.873
 3204W        W71567  40.896   7.236  10.431
 3205W        W71568   5.764  18.184   4.156
 3206W        W71569  44.861  34.103  12.464
 3207W        W71570  29.011  43.461   3.207
 3208W        W71571   5.351  19.149   3.153
 3209W        W71572  28.650  16.278   3.641
 3210W        W71573  42.349   6.730   0.729
 3211W        W71574  16.781  24.162   2.250
 3212W        W71575  25.140  28.627   3.861
 3213W        W71576  41.324   1.948   4.838
 3214W        W71577  43.950  40.544  14.305
 3215W        W71578   9.246  33.490  12.073
 3216W        W71579  27.546  21.047  12.833
 3217W        W71580  34.457  25.676  14.275
 3218W        W71581   1.786  30.948  14.374
 3219W        W71582  29.122   8.345   4.189
 3220W        W71583  40.531   2.284  12.467
 3221W        W71584   7.307  26.179  10.443
 3222W        W71585  31.060  44.492  10.484
 3223W        W71586  39.370  24.649  10.932
 3224W        W71587  37.544  20.666  12.417
 3225W        W71588   1.932  14.185  11.380
 3226W        W71589  21.209  10.228   2.303
 3227W        W71590  11.320   5.287  13.989
 3228W        W71591  38.971  40.959  12.557
 3229W        W71592   1.895  19.623  12.457
 3230W        W71593   8.233  33.055  14.929
 3231W        W71594  42.982  36.546  10.487
 3232W        W71595  43.868  26.653   3.174
 3233W        W71596  44.460  13.621  13.908
 3234W        W71597  20.607  20.714  11.989
 3235W        W71598   4.760  32.902   3.197
 3236W        W71599  18.583   5.320   3.258
 3237W        W71600  32.613  23.201  11.052
 3238W        W71601  31.421   7.806   4.797
 3239W        W71602  33.068   0.263   1.238
 3240W        W71603  22.164  43.765  14.928
 3241W        W71604  15.747   0.366   5.132
 3242W        W71605  14.675  37.346   0.828
 3243W        W71606   3.734  23.670   4.296
 3244W        W71607  12.321   5.411  10.593
 3245W        W71608  23.157  12.185  11.012
 3246W        W71609  33.111   0.901   5.302
 3247W        W71610  39.486  32.477  14.970
 3248W        W71611  22.027   6.262   3.325
 3249W        W71612  11.335  10.343  11.435
 3250W        W71613  39.000   5.764  12.926
 3251W        W71614  33.515   1.942   3.297
 3252W        W71615  10.684   3.423  11.916
 3253W        W71616  23.033  40.315  11.059
 3254W        W71617  32.025  18.114   0.759
 3255W        W71618  39.836  16.239  11.032
 3256W        W71619  24.118  28.665  12.926
 3257W        W71620  38.478   0.828   1.804
 3258W        W71621  20.539  32.987   3.631
 3259W        W71622   2.288   1.464   4.141
 3260W        W71623  33.056  36.435   1.290
 3261W        W71624  12.242   7.415   4.742
 3262W        W71625   4.298   7.252  13.367
 3263W        W71626   3.750  34.914   4.271
 3264W        W71627   9.847  34.935  13.527
 3265W        W71628   7.281  33.996   2.825
 3266W        W71629  42.843  18.112   4.706
 3267W        W71630  44.792  27.990  11.535
 3268W        W71631  41.913  36.542   3.218
 3269W        W71632   4.273  31.915  13.378
 3270W        W71633  14.640  43.930  10.505
 3271W        W71634  21.049  31.942  14.791
 3272W        W71635  28.126  35.891   0.811
 3273W        W71636  28.135   7.285   3.702
 3274W        W71637  40.546   8.899  13.810
 3275W        W71638  43.496  34.902   9.607
 3276W        W71639  18.193  16.795   4.201
 3277W        W71640   6.897   0.954   2.234
 3278W        W71641  35.040  13.286   4.293
 3279W        W71642  38.517   8.737   4.635
 3280W        W71643  29.635  32.118   0.459
 3281W        W71644  31.631  39.347  11.984
 3282W        W71645  17.198  42.324  12.934
 3283W        W71646  22.599  35.411   4.777
 3284W        W71647  16.729  35.531   2.243
 3285W        W71648  37.021  20.209  11.538
 3286W        W71649  11.669  24.669   2.216
 3287W        W71650  15.681   7.219   3.321
 3288W        W71651   1.781  29.098   0.317
 3289W        W71652  12.347   3.789  11.419
 3290W        W71653  36.009  26.197  11.942
 3291W        W71654  29.559   6.906   4.315
 3292W        W71655  32.058  33.587  11.949
 3293W        W71656  28.133  10.324   1.760
 3294W        W71657  28.456  39.942   3.185
 3295W        W71658   1.356  22.098  11.873
 3296W        W71659  33.009  33.415  12.561
 3297W        W71660  25.649  24.198   1.785
 3298W        W71661  37.465   9.823   1.731
 3299W        W71662  27.505  13.622   4.270
 3300W        W71663  38.563  36.478  11.518
 3301W        W71664  24.195  38.514   2.775
 3302W        W71665   6.706  15.109   2.757
 3303W        W71666  17.643  39.397  12.514
 3304W        W71667  34.593  23.596   0.796
 3305W        W71668  20.232  31.051   3.684
 3306W        W71669  44.385  26.975  10.952
 3307W        W71670  33.495  24.043  11.098
 3308W        W71671  13.186   2.316   0.374
 3309W        W71672  19.052  24.188  13.921
 3310W        W71673  35.867  27.684  13.318
 3311W        W71674  20.618  44.764  14.367
 3312W        W71675  17.717   8.269  11.517
 3313W        W71676   1.399  30.076   0.943
 3314W        W71677  22.523   2.747   4.179
 3315W        W71678  41.335  24.619  13.463
 3316W        W71679  40.812  10.818   3.853
 3317W        W71680   1.899  18.606  13.396
 3318W        W71681  26.555  32.632   5.157
 3319W        W71682  15.262  17.576   0.339
 3320W        W71683  33.489   3.936  14.474
 3321W        W71684  33.928  17.301  13.012
 3322W        W71685  42.978  15.771  14.399
 3323W        W71686  38.011  28.021  13.370
 3324W        W71687   5.196  39.556   1.407
 3325W        W71688   9.818  36.405   4.712
 3326W        W71689  11.221  18.691  12.541
 3327W        W71690   8.830  19.638  12.568
 3328W        W71691  11.324  29.558  13.803
 3329W        W71692  11.142  43.293  14.329
 3330W        W71693  16.734  42.404  13.823
 3331W        W71694   8.286  30.136   1.405
 3332W        W71695   9.809  43.426   4.770
 3333W        W71696   5.437   9.217  13.942
 3334W        W71697   6.743   0.830   3.370
 3335W        W71698  41.009   4.420   1.370
 3336W        W71699  21.204   3.281  12.866
 3337W        W71700  28.103  26.569  14.808
 3338W        W71701  37.895  10.850   1.405
 3339W        W71702  19.552  32.529  12.456
 3340W        W71703   4.793   8.832   0.959
 3341W        W71704  37.973   8.837  12.868
 3342W        W71705   5.327   3.299   1.801
 3343W        W71706  15.800  42.927   4.804
 3344W        W71707  19.739   3.857   1.907
 3345W        W71708  16.072   7.862  14.463
 3346W        W71709  19.267  40.955  14.896
 3347W        W71710  26.541  26.629  12.974
 3348W        W71711   5.814  37.439   3.689
 3349W        W71712   5.225  34.085   4.329
 3350W        W71713  38.044  25.667   3.316
 3351W        W71714   0.364   4.885  13.323
 3352W        W71715   6.388  34.614   2.356
 3353W        W71716  20.030  44.916   4.242
 3354W        W71717  13.767   1.243  13.483
 3355W        W71718   1.395   3.215  12.384
 3356W        W71719  13.680   2.463  13.817
 3357W        W71720  18.096  36.473  11.058
 3358W        W71721  36.983  21.204  10.423
 3359W        W71722  20.102  17.596   3.298
 3360W        W71723  32.447  23.521  11.408
 3361W        W71724  12.767  36.493  14.288
 3362W        W71725  21.024  39.818   4.334
 3363W        W71726  12.176  25.094   4.147
 3364W        W71727  34.055   2.301   4.203
 3365W        W71728  43.464  32.048  12.041
 3366W        W71729  10.182  38.568  13.382
 3367W        W71730  26.018  23.179  12.484
 3368W        W71731   1.369   6.315   1.375
 3369W        W71732  29.435   7.866  10.489
 3370W        W71733   9.393  15.140   0.886
 3371W        W71734  44.494  29.670  10.894
 3372W        W71735  22.252  21.734   2.307
 3373W        W71736   2.820   9.279  14.317
 3374W        W71737  32.091  15.290  13.380
 3375W        W71738  14.739  11.138  12.018
 3376W        W71739  15.293  11.863   4.772
 3377W        W71740  29.058  27.651   1.287
 3378W        W71741  27.543  33.101  14.516
 3379W        W71742  36.557  12.131  12.885
 3380W        W71743  27.675  19.107  14.327
 3381W        W71744  16.248   4.834   4.617
 3382W        W71745  43.335  44.423   0.780
 3383W        W71746  24.034  11.324  10.940
 3384W        W71747   6.225  32.926  11.436
 3385W        W71748  37.352  34.906  12.010
 3386W        W71749   0.813  19.740   4.249
 3387W        W71750   1.401  38.012   2.790
 3388W        W71751  19.539  36.878   0.851
 3389W        W71752  36.877   2.433  14.388
 3390W        W71753  21.699  42.781  12.425
 3391W        W71754  33.389  42.385  14.965
 3392W        W71755   7.280   8.717   0.312
 3393W        W71756  28.069   2.723  14.822
 3394W        W71757  35.025  27.628   0.750
 3395W        W71758  19.220  11.309  12.447
 3396W        W71759  19.690  35.991   3.789
 3397W        W71760  40.506  11.241   3.183
 3398W        W71761   0.812   9.659   1.222
 3399W        W71762  37.553  42.993   0.368
 3400W        W71763  13.123  15.176   1.771
 3401W        W71764  32.922  37.895  12.946
 3402W        W71765  41.856   4.879  11.883
 3403W        W71766   1.807   5.746  11.581
 3404W        W71767  12.767  31.594  11.435
 3405W        W71768  41.909  32.123  13.937
 3406W        W71769  28.054  39.519   0.374
 3407W        W71770   9.357  27.992   3.172
 3408W        W71771  32.072  26.111  13.001
 3409W        W71772  27.543  19.674   2.289
 3410W        W71773  25.601  25.650   4.255
 3411W        W71774  38.522   5.216  13.931
 3412W        W71775  16.615  19.606   2.712
 3413W        W71776  40.354  14.321   3.205
 3414W        W71777   5.360  15.326   4.726
 3415W        W71778  24.137  44.500  11.970
 3416W        W71779  44.872  22.185  12.370
 3417W        W71780  42.519  14.282  14.015
 3418W        W71781   3.439  44.394  14.845
 3419W        W71782  12.767   0.890   2.262
 3420W        W71783  21.066  27.568  14.364
 3421W        W71784  22.624  15.821   1.795
 3422W        W71785  18.106  36.509   4.247
 3423W        W71786  14.666   4.405  11.389
 3424W        W71787  42.428  19.067   3.820
 3425W        W71788  26.985  12.711  14.943
 3426W        W71789  23.159   5.214  13.887
 3427W        W71790  37.527  17.623   3.797
 3428W        W71791  35.107  43.299   0.857
 3429W        W71792   5.420  23.200   3.797
 3430W        W71793  12.317  23.704   3.246
 3431W        W71794  20.687  38.011   3.362
 3432W        W71795  22.667   1.450  10.100
 3433W        W71796  26.476  29.528   1.820
 3434W        W71797  26.185  16.813  10.440
 3435W        W71798  44.883  17.195   3.152
 3436W        W71799  32.443  15.597   4.692
 3437W        W71800  41.336  15.712   3.320
 3438W        W71801   1.775  42.007  14.857
 3439W        W71802   8.356  26.983  13.464
 3440W        W71803  28.449  22.057   4.278
 3441W        W71804  12.829  27.963   2.703
 3442W        W71805  35.473  41.444   4.134
 3443W        W71806   9.255  27.633  13.984
 3444W        W71807   3.913  22.068  11.084
 3445W        W71808  16.603  29.483   0.265
 3446W        W71809  18.112   7.841   2.207
 3447W        W71810  14.291   6.340   0.748
 3448W        W71811  24.094  30.151  13.050
 3449W        W71812   6.186   9.329   3.258
 3450W        W71813  44.769   6.878  13.986
 3451W        W71814   5.791   4.267   1.411
 3452W        W71815   8.680  36.897   1.390
 3453W        W71816  37.396   0.900  11.405
 3454W        W71817  13.682  14.672   0.484
 3455W        W71818  37.452  31.920   5.306
 3456W        W71819  13.837   4.289   3.177
 3457W        W71820  23.657  36.488  12.383
 3458W        W71821  13.301   6.914  10.571
 3459W        W71822  10.791  14.247  11.124
 3460W        W71823  42.902  12.746   4.333
 3461W        W71824  39.466   6.186   4.819
 3462W        W71825  11.270  13.688   0.448
 3463W        W71826  36.971  20.565   2.818
 3464W        W71827  30.946  35.055   4.201
 3465W        W71828   9.236   1.879   3.297
 3466W        W71829  28.560   7.878   4.750
 3467W        W71830  41.497  25.602   2.795
 3468W        W71831  17.645   5.869  13.429
 3469W        W71832   9.649  42.023  14.318
 3470W        W71833  10.160  37.831   2.732
 3471W        W71834  40.443  35.948   4.731
 3472W        W71835  37.450   2.267  13.452
 3473W        W71836   1.775   4.314  12.481
 3474W        W71837   4.434  42.435   3.751
 3475W        W71838  34.993  18.114  14.016
 3476W        W71839   7.775  41.877  10.539
 3477W        W71840  27.599  28.505  14.477
 3478W        W71841   3.729  36.447   2.256
 3479W        W71842  18.116  18.095  12.088
 3480W        W71843  31.554  11.807   2.800
 3481W        W71844   2.768  15.293  11.407
 3482W        W71845  20.712   0.285   4.189
 3483W        W71846  26.627  25.656   2.688
 3484W        W71847   3.856  22.722   5.635
 3485W        W71848   0.358   2.858  12.082
 3486W        W71849   3.348   1.953  12.065
 3487W        W71850  21.140  23.675   3.736
 3488W        W71851  10.791  39.332   2.808
 3489W        W71852   0.256  40.380  13.542
 3490W        W71853  31.149  31.407  11.611
 3491W        W71854  23.648   6.240  12.866
 3492W        W71855  31.523   5.776   3.201
 3493W        W71856  12.715  24.198  10.547
 3494W        W71857   6.903   9.332  14.507
 3495W        W71858   3.268  31.013   1.696
 3496W        W71859   5.351  28.469   1.413
 3497W        W71860   4.921   3.939   4.296
 3498W        W71861  22.131  34.890   1.344
 3499W        W71862  36.349   0.924  12.349
 3500W        W71863  26.983  19.180  12.826
 3501W        W71864   9.769  11.192  13.879
 3502W        W71865  15.166  44.921  10.948
 3503W        W71866  40.919  15.584  12.936
 3504W        W71867  37.956   3.813   1.790
 3505W        W71868  15.283  25.533   3.373
 3506W        W71869  37.365  29.482   1.817
 3507W        W71870   0.432  15.591   2.330
 3508W        W71871  28.132   4.322  14.295
 3509W        W71872  42.938  20.208   2.829
 3510W        W71873  12.738  41.391   1.868
 3511W        W71874   3.788  38.571   3.337
 3512W        W71875  35.423   5.224  12.521
 3513W        W71876  28.993   6.208  10.427
 3514W        W71877   7.242  25.543  14.308
 3515W        W71878  18.212  20.103  14.830
 3516W        W71879  36.391  32.569   2.199
 3517W        W71880  29.460  30.989  14.880
 3518W        W71881   3.843  35.042  14.327
 3519W        W71882  31.142  17.083   2.213
 3520W        W71883   6.387  15.121   3.318
 3521W        W71884  31.145  27.048   2.855
 3522W        W71885  22.010  27.652   0.443
 3523W        W71886  42.393  11.166   2.274
 3524W        W71887  30.576  17.196   0.259
 3525W        W71888   2.415  34.392   4.275
 3526W        W71889  28.489  44.918  14.337
 3527W        W71890  19.543  17.063   1.446
 3528W        W71891   6.725  38.926  13.914
 3529W        W71892  24.219  23.648  13.421
 3530W        W71893  19.554  25.211  13.535
 3531W        W71894  22.190  23.656  11.010
 3532W        W71895  13.615  31.549   3.377
 3533W        W71896  43.955   8.399   3.186
 3534W        W71897   0.875  31.984   2.359
 3535W        W71898  20.588   2.791   1.447
 3536W        W71899  10.324  38.540   3.257
 3537W        W71900  21.547  40.860  10.460
 3538W        W71901   5.256  30.956  13.822
 3539W        W71902  43.357  35.445   3.734
 3540W        W71903  33.044   7.417   0.308
 3541W        W71904   5.764   8.324   0.403
 3542W        W71905  28.014  30.590   1.401
 3543W        W71906  38.367  42.314  12.454
 3544W        W71907  34.058  43.003   2.892
 3545W        W71908   1.241   8.699   4.733
 3546W        W71909  39.546   8.703  12.545
 3547W        W71910  35.598  23.490   4.678
 3548W        W71911  25.709  20.165  10.605
 3549W        W71912  24.047   3.805  14.874
 3550W        W71913  33.512  35.980  13.797
 3551W        W71914   6.203  16.792  13.969
 3552W        W71915  15.111  17.195  12.517
 3553W        W71916   5.273  41.474  13.463
 3554W        W71917  42.338  28.622  12.827
 3555W        W71918   8.360  23.519   2.408
 3556W        W71919  18.576  28.586  13.825
 3557W        W71920  36.981  19.634  11.538
 3558W        W71921  14.304   0.941  11.078
 3559W        W71922  38.931  12.753   1.724
 3560W        W71923  30.092   0.879  11.867
 3561W        W71924  12.732  12.227   3.211
 3562W        W71925  38.416  15.670   3.295
 3563W        W71926  12.124  21.626  10.536
 3564W        W71927  26.149  43.342   2.714
 3565W        W71928  20.137  22.011  14.916
 3566W        W71929   1.343  19.614   2.697
 3567W        W71930   7.889  16.797   4.224
 3568W        W71931  15.812  37.494  14.493
 3569W        W71932   6.917  14.251   3.284
 3570W        W71933  13.710  31.930  10.456
 3571W        W71934   7.381   0.457   3.782
 3572W        W71935  41.807  36.431   0.340
 3573W        W71936  17.245   7.358   4.732
 3574W        W71937   5.217  19.585  11.540
 3575W        W71938  36.513   7.183   2.866
 3576W        W71939  44.877  30.942  13.841
 3577W        W71940  21.723   8.849   1.363
 3578W        W71941  27.176  20.107  11.887
 3579W        W71942   4.378   2.848   2.880
 3580W        W71943  26.005  36.999  14.813
 3581W        W71944  33.382  24.197   0.339
 3582W        W71945  14.674  28.088   1.853
 3583W        W71946  39.524  39.407   4.135
 3584W        W71947   8.736   3.748   0.342
 3585W        W71948   8.738  18.757  12.889
 3586W        W71949  38.064  40.431   0.482
 3587W        W71950  36.887  16.167   4.131
 3588W        W71951   8.769  10.754  12.496
 3589W        W71952   4.869  29.027  11.915
 3590W        W71953  12.699  23.632   0.842
 3591W        W71954   0.873  41.465  12.988
 3592W        W71955  15.654  42.390   2.815
 3593W        W71956   9.783  40.341   4.184
 3594W        W71957  14.706  14.673   4.214
 3595W        W71958   2.424  40.311   3.327
 3596W        W71959   3.925  41.357   2.688
 3597W        W71960  44.295   9.655  14.428
 3598W        W71961  42.482  13.252  10.892
 3599W        W71962  35.054  29.958  13.400
 3600W        W71963  36.970  33.957  11.424
 3601W        W71964  34.428  19.074   0.469
 3602W        W71965   9.392  11.722  13.466
 3603W        W71966  44.828  38.891  14.820
 3604W        W71967   8.214  13.247  11.012
 3605W        W71968  35.537   9.276  11.433
 3606W        W71969   9.345  22.620  11.857
 3607W        W71970  30.985  25.473  11.049
 3608W        W71971  19.550   8.778  11.451
 3609W        W71972   3.825  39.343   2.379
 3610W        W71973   1.473  24.132   2.667
 3611W        W71974   6.915  37.497   0.351
 3612W        W71975  44.760  19.177   4.300
 3613W        W71976  19.638  16.712   2.366
 3614W        W71977  30.452  27.512   3.677
 3615W        W71978  15.589   4.708  11.473
 3616W        W71979  39.816  40.468  10.477
 3617W        W71980   8.311  38.414   1.928
 3618W        W71981  37.846   7.783   4.336
 3619W        W71982   5.913  15.668  14.944
 3620W        W71983   7.721   2.784  14.309
 3621W        W71984  12.317   3.297  12.565
 3622W        W71985   4.320   4.834   4.669
 3623W        W71986  43.780  39.998  11.390
 3624W        W71987  15.148  39.424  14.765
 3625W        W71988   7.888  39.867   1.401
 3626W        W71989   3.262  18.152  11.605
 3627W        W71990  21.736  12.304   2.288
 3628W        W71991  20.686  20.565  10.592
 3629W        W71992   0.988  37.362  10.068
 3630W        W71993   6.710  26.463   0.428
 3631W        W71994  28.629  22.076   1.853
 3632W        W71995  17.568   9.886   3.661
 3633W        W71996  11.730  14.129   3.702
 3634W        W71997  40.542  29.596  14.502
 3635W        W71998  29.101  41.810  12.579
 3636W        W71999   1.936  41.505   4.231
 3637W        W72000   6.893  29.092  12.358
 3638W        W72001  40.327  43.017  12.990
 3639W        W72002   5.836  26.147   2.760
 3640W        W72003   2.739  35.389   1.776
 3641W        W72004  43.336   6.744   4.113
 3642W        W72005  12.840  39.442   4.123
 3643W        W72006  33.116   1.761   2.705
 3644W        W72007  30.471  19.772   1.760
 3645W        W72008  21.727  26.669   2.287
 3646W        W72009  34.004   5.347   3.284
 3647W        W72010  21.246  23.146   4.288
 3648W        W72011   4.863  15.290  11.066
 3649W        W72012  27.471  25.627   1.436
 3650W        W72013  27.021   5.255  12.007
 3651W        W72014  42.403  38.960  13.345
 3652W        W72015   5.272  16.254   2.371
 3653W        W72016  19.680  28.658  10.467
 3654W        W72017  34.912  10.649  12.437
 3655W        W72018   2.446  24.709   1.742
 3656W        W72019  11.850  16.599  10.506
 3657W        W72020  42.408  20.746  11.465
 3658W        W72021   4.406  36.987  13.819
 3659W        W72022  33.477  29.037  13.508
 3660W        W72023   9.220  40.043  12.356
 3661W        W72024   8.337  30.508  14.988
 3662W        W72025  26.564  37.869  12.060
 3663W        W72026   7.827  10.634   1.704
 3664W        W72027  15.293  17.145   3.301
 3665W        W72028  11.624  32.135  11.571
 3666W        W72029   0.872  22.066  13.337
 3667W        W72030   0.400   5.914   4.695
 3668W        W72031   5.404  27.449  13.842
 3669W        W72032   1.431  14.219   1.864
 3670W        W72033   7.710   4.393  10.582
 3671W        W72034  43.948  38.356   1.771
 3672W        W72035   5.336  19.161  14.937
 3673W        W72036  16.305  18.774  12.078
 3674W        W72037  10.181  11.671  14.290
 3675W        W72038   8.655  12.789   1.237
 3676W        W72039   0.348  37.543  12.473
 3677W        W72040  16.102  24.083   2.206
 3678W        W72041  44.920  21.697  14.385
 3679W        W72042  19.046  42.949   2.327
 3680W        W72043  40.463  42.860  10.453
 3681W        W72044  38.505   3.424   1.265
 3682W        W72045   9.823  42.891   3.760
 3683W        W72046  40.906  41.387   2.186
 3684W        W72047  37.390  22.095   4.746
 3685W        W72048  30.028  42.362   0.824
 3686W        W72049  30.489  33.620  11.931
 3687W        W72050  13.204  16.114  13.032
 3688W        W72051   7.229  15.642   2.772
 3689W        W72052  12.630  11.802  14.424
 3690W        W72053  35.005  31.916  14.027
 3691W        W72054  30.045   2.783  14.387
 3692W        W72055   0.427  35.966  13.363
 3693W        W72056  12.796  33.094  10.977
 3694W        W72057   6.824  28.603   2.782
 3695W        W72058   3.315  23.673   4.243
 3696W        W72059  42.785  36.047   0.332
 3697W        W72060  12.614  34.026   3.270
 3698W        W72061  21.536  12.838   2.884
 3699W        W72062   4.305  25.090  12.953
 3700W        W72063  25.111   2.813   3.868
 3701W        W72064  13.636   5.825  13.988
 3702W        W72065  30.144   4.408   0.447
 3703W        W72066  17.094  21.752   3.312
 3704W        W72067   6.908  25.012   0.892
 3705W        W72068  11.143  37.562   4.339
 3706W        W72069  12.670  19.709  12.011
 3707W        W72070  23.051  41.019   1.697
 3708W        W72071  18.212  16.099  13.908
 3709W        W72072  10.685   7.734  12.427
 3710W        W72073  40.498  27.576  10.500
 3711W        W72074  30.121  31.483  12.380
 3712W        W72075   7.400  40.833   0.358
 3713W        W72076   2.449  30.613  12.529
 3714W        W72077   0.301  12.343   4.710
 3715W        W72078  30.007  39.064   1.273
 3716W        W72079  34.953  18.085  11.956
 3717W        W72080  26.973  16.712  13.943
 3718W        W72081  34.508  15.247  14.473
 3719W        W72082  13.782  25.042  13.932
 3720W        W72083   0.978  13.206  12.372
 3721W        W72084  14.137  39.840  14.352
 3722W        W72085  30.047   7.833   1.780
 3723W        W72086  30.050  41.024   3.148
 3724W        W72087  36.059  29.477   0.913
 3725W        W72088  42.913   1.387  13.799
 3726W        W72089   2.951  15.154  14.822
 3727W        W72090   2.747  43.987  11.934
 3728W        W72091   0.759   5.864  10.975
 3729W        W72092  21.621  26.572  14.860
 3730W        W72093  26.144  44.378  11.605
 3731W        W72094  33.977   3.779  11.592
 3732W        W72095  27.548  13.780   0.254
 3733W        W72096   6.405   9.737   4.657
 3734W        W72097   6.264  29.528   2.327
 3735W        W72098   1.361  15.230  13.797
 3736W        W72099   7.805   4.373   2.673
 3737W        W72100  12.126  33.101  11.416
 3738W        W72101  21.215  43.984  14.362
 3739W        W72102  24.209  24.050  13.995
 3740W        W72103  31.470  44.429  13.857
 3741W        W72104  33.383  28.957   1.833
 3742W        W72105   2.316  10.211  11.464
 3743W        W72106  32.932  24.091   4.284
 3744W        W72107   4.746  35.558  10.580
 3745W        W72108   6.238  12.257   0.430
 3746W        W72109  12.291   0.928   2.735
 3747W        W72110  33.945   4.873   3.273
 3748W        W72111   0.847   9.158   1.415
 3749W        W72112  20.056  16.648  13.363
 3750W        W72113  35.932  17.651   1.777
 3751W        W72114  33.040   0.483   0.398
 3752W        W72115   0.810  11.330   1.341
 3753W        W72116   4.829  26.025   3.301
 3754W        W72117  26.153  12.203  11.500
 3755W        W72118  10.753  36.587   2.837
 3756W        W72119  36.355  20.061  12.522
 3757W        W72120  33.618  21.543   3.376
 3758W        W72121  21.597  38.566  12.896
 3759W        W72122  11.812  22.536  13.797
 3760W        W72123  28.586  28.002  14.010
 3761W        W72124   4.309  11.271   4.834
 3762W        W72125   4.252   3.254   3.831
 3763W        W72126  24.066  27.187  12.969
 3764W        W72127  43.374  22.574   1.935
 3765W        W72128  34.026  26.201  12.866
 3766W        W72129  43.954  22.130   3.803
 3767W        W72130  36.878  42.899   0.369
 3768W        W72131  20.152  37.499   0.295
 3769W        W72132  29.486  11.136   2.415
 3770W        W72133  36.977  17.732  12.870
 3771W        W72134  17.122  38.546  14.901
 3772W        W72135  19.603  23.112   2.753
 3773W        W72136  39.428  10.361  11.480
 3774W        W72137  15.631  23.985   4.178
 3775W        W72138  29.115   1.959  11.024
 3776W        W72139  17.573   8.890   1.863
 3777W        W72140  33.445  39.939  10.941
 3778W        W72141  18.651   4.724   1.747
 3779W        W72142  13.635  26.700  13.001
 3780W        W72143   1.439  35.471   4.733
 3781W        W72144  34.406   3.759   4.624
 3782W        W72145  31.577   7.245   2.688
 3783W        W72146  24.517  41.351   4.601
 3784W        W72147  36.443  44.976   0.337
 3785W        W72148  15.326  30.543  14.816
 3786W        W72149  43.317  21.571   4.753
 3787W        W72150  27.455   4.226  12.871
 3788W        W72151  33.934   1.334   5.593
 3789W        W72152  25.682  14.810   1.227
 3790W        W72153  28.180  14.777  10.523
 3791W        W72154   1.380   6.193   4.699
 3792W        W72155   8.188  36.545  12.043
 3793W        W72156  41.860  35.516  13.958
 3794W        W72157  32.413  12.715  12.366
 3795W        W72158  41.999  33.614   4.722
 3796W        W72159  24.624  15.277   4.782
 3797W        W72160  17.795   6.367   0.940
 3798W        W72161  41.528  19.576  11.890
 3799W        W72162  28.577  31.988  10.937
 3800W        W72163  12.638  14.811  13.821
 3801W        W72164  39.051  39.472   1.269
 3802W        W72165  14.759  34.465  10.530
 3803W        W72166  11.246  13.775  10.457
 3804W        W72167  40.367  34.002   1.429
 3805W        W72168  25.576  37.873  13.519
 3806W        W72169  36.468  43.794   4.182
 3807W        W72170  25.199  11.735  11.573
 3808W        W72171  18.651  27.654  10.983
 3809W        W72172  16.769  37.996   1.841
 3810W        W72173  13.292  44.399  10.507
 3811W        W72174  24.189   0.409   3.761
 3812W        W72175  23.074   2.747   0.864
 3813W        W72176  26.550  14.209  11.416
 3814W        W72177   1.864  43.515   4.286
 3815W        W72178   8.192   1.248   1.891
 3816W        W72179  24.060  34.550   4.678
 3817W        W72180  39.882  10.812   0.792
 3818W        W72181  37.378  22.165  14.943
 3819W        W72182  10.316  34.912  11.082
 3820W        W72183  12.756  10.869   2.226
 3821W        W72184   7.699  13.674   4.130
 3822W        W72185  31.628   8.232   2.306
 3823W        W72186  39.885  20.038  12.906
 3824W        W72187  33.954  39.451  11.518
 3825W        W72188  13.180  30.937   4.733
 3826W        W72189  41.003   7.381   1.365
 3827W        W72190  28.493   0.894   1.388
 3828W        W72191  32.473   1.946  13.348
 3829W        W72192   9.259  24.056  10.926
 3830W        W72193  39.502  14.113   4.683
 3831W        W72194   6.845  36.396  13.327
 3832W        W72195  37.530  38.033   1.767
 3833W        W72196  32.954  17.105   1.908
 3834W        W72197   3.917   6.288   4.754
 3835W        W72198  32.581  26.007  13.454
 3836W        W72199   6.202  40.947  14.905
 3837W        W72200   5.247  26.010  11.985
 3838W        W72201  25.533  29.923  11.591
 3839W        W72202  26.527   5.306  13.998
 3840W        W72203   9.752   6.238  13.818
 3841W        W72204  27.131  21.647  10.528
 3842W        W72205   8.812  11.696  12.987
 3843W        W72206  26.125   3.433   4.698
 3844W        W72207  40.009  32.049  14.478
 3845W        W72208  30.152  27.574  12.076
 3846W        W72209  37.020  10.675   5.664
 3847W        W72210  15.216   5.322   3.713
 3848W        W72211   3.899  37.464  13.815
 3849W        W72212  25.675  22.148   0.960
 3850W        W72213  18.069  42.446   3.707
 3851W        W72214  12.709  15.804  10.078
 3852W        W72215  18.680   9.733   3.164
 3853W        W72216   3.332  13.300  11.518
 3854W        W72217   5.352  14.752  14.288
 3855W        W72218  34.588  42.310   3.645
 3856W        W72219  36.583  37.074  14.913
 3857W        W72220  41.922  24.501  14.806
 3858W        W72221  32.069  20.098  10.925
 3859W        W72222  10.213  31.542  13.416
 3860W        W72223  15.228  30.456  13.943
 3861W        W72224  26.955  12.319  12.580
 3862W        W72225   1.753   7.299  13.481
 3863W        W72226   7.252  31.905   3.341
 3864W        W72227  27.548  14.744   2.746
 3865W        W72228  37.996   5.795  13.973
 3866W        W72229  10.146  32.102   2.736
 3867W        W72230  16.191  28.457  14.293
 3868W        W72231   4.782  26.555   4.655
 3869W        W72232  29.162   5.425   3.250
 3870W        W72233  18.099  42.467   4.155
 3871W        W72234  32.508   8.289   0.446
 3872W        W72235  29.499  17.224   1.262
 3873W        W72236  37.858   5.340   2.856
 3874W        W72237  40.423  24.188  11.576
 3875W        W72238  32.607  15.737  14.331
 3876W        W72239  39.468  34.570  10.893
 3877W        W72240  31.093  20.652  10.577
 3878W        W72241  16.208  32.530  14.862
 3879W        W72242  25.041  26.168   0.869
 3880W        W72243  25.011  37.493  10.549
 3881W        W72244  15.640  29.011  12.436
 3882W        W72245   7.389  12.624   2.860
 3883W        W72246   0.314  44.826  12.521
 3884W        W72247   9.725  37.030   4.623
 3885W        W72248   3.284   1.790   3.823
 3886W        W72249  34.387   2.251  14.493
 3887W        W72250  38.863  40.311   4.716
 3888W        W72251  43.384  40.884  14.436
 3889W        W72252  22.049  13.302   2.664
 3890W        W72253  25.677  42.918  11.997
 3891W        W72254  19.043  16.670   4.628
 3892W        W72255  36.593  44.465   0.728
 3893W        W72256  29.062   2.768   2.365
 3894W        W72257  25.521  25.589   3.825
 3895W        W72258   6.322  31.431  12.932
 3896W        W72259  39.996  30.635   2.295
 3897W        W72260   3.834  21.565   0.803
 3898W        W72261  41.436  41.906  12.471
 3899W        W72262  30.998   0.881   4.176
 3900W        W72263  22.085  44.910   3.850
 3901W        W72264  23.551  33.901   2.884
 3902W        W72265   9.759  44.900   1.890
 3903W        W72266   5.894   2.449  14.845
 3904W        W72267  41.331  31.446   4.606
 3905W        W72268  18.623  35.419  13.802
 3906W        W72269   1.820  22.171   3.177
 3907W        W72270   5.762  30.100  10.481
 3908W        W72271  26.702  12.167   4.754
 3909W        W72272  41.977   4.360  13.894
 3910W        W72273  35.068  35.419   4.680
 3911W        W72274  19.681   3.939   3.173
 3912W        W72275  34.466   2.761   3.311
 3913W        W72276  36.993  22.078  13.357
 3914W        W72277  27.515  32.128   0.251
 3915W        W72278  18.585  30.045  10.487
 3916W        W72279  17.185  30.149   0.329
 3917W        W72280  12.825  33.509   1.829
 3918W        W72281  38.355  29.118   2.358
 3919W        W72282   3.784  15.802   1.779
 3920W        W72283  31.119  21.160  13.026
 3921W        W72284  32.028  38.825   5.303
 3922W        W72285   6.275  34.955   1.339
 3923W        W72286  18.573   1.324   2.903
 3924W        W72287   7.825  22.212   2.373
 3925W        W72288  17.617   9.682   3.374
 3926W        W72289   3.935  41.982   1.906
 3927W        W72290  12.718   8.369   1.868
 3928W        W72291  41.881  37.448   0.841
 3929W        W72292   7.763  41.923  13.974
 3930W        W72293   0.290  34.089   3.659
 3931W        W72294   6.340  42.025   2.751
 3932W        W72295  37.457  15.722  13.880
 3933W        W72296  40.861  39.448   3.348
 3934W        W72297  13.842  38.515   2.234
 3935W        W72298  29.539   5.233  13.473
 3936W        W72299  17.558   7.329  12.919
 3937W        W72300  17.776  17.560   3.688
 3938W        W72301  32.440  14.293   1.251
 3939W        W72302  30.643  20.646   0.883
 3940W        W72303  27.498  12.323  13.333
 3941W        W72304  14.231   9.375   1.354
 3942W        W72305  40.399   7.912   1.847
 3943W        W72306   5.891  39.058   2.284
 3944W        W72307  37.843   5.712   0.327
 3945W        W72308  36.410  11.824   2.860
 3946W        W72309  12.853  29.005  11.087
 3947W        W72310  16.301   9.669  12.460
 3948W        W72311   9.160  11.236  13.531
 3949W        W72312  34.916  33.435  12.342
 3950W        W72313  30.163  40.980  11.026
 3951W        W72314  17.719  39.400  11.870
 3952W        W72315  38.910  33.500  13.447
 3953W        W72316  40.385  44.433   5.145
 3954W        W72317  24.079  30.970   3.719
 3955W        W72318  24.724  35.428  13.358
 3956W        W72319   5.697   0.982   3.379
 3957W        W72320  33.921   0.257  11.864
 3958W        W72321   0.341  21.574  13.499
 3959W        W72322  14.659  11.671  10.890
 3960W        W72323   9.167  30.088   1.841
 3961W        W72324  24.125  39.929  12.477
 3962W        W72325  39.385   7.873  12.494
 3963W        W72326   0.258  33.979  13.975
 3964W        W72327  21.517  24.627   4.222
 3965W        W72328   8.657   5.434   3.255
 3966W        W72329  13.144  11.714   1.264
 3967W        W72330   1.750  14.607   0.896
 3968W        W72331  28.484  41.981  13.485
 3969W        W72332  28.158  42.905  12.919
 3970W        W72333  37.838  27.040   4.610
 3971W        W72334   1.346  10.794   2.865
 3972W        W72335  35.472   7.859   0.384
 3973W        W72336   9.878   1.371  10.978
 3974W        W72337  31.033  29.545  13.307
 3975W        W72338   6.817  27.996  10.947
 3976W        W72339  28.516  26.702   5.290
 3977W        W72340  15.750  16.632   2.237
 3978W        W72341  15.711  24.152   0.444
 3979W        W72342  32.026   2.294  12.515
 3980W        W72343  20.191  32.480  10.892
 3981W        W72344  42.334  20.746   0.479
 3982W        W72345  29.586  23.674  11.536
 3983W        W72346   7.174   4.234   1.860
 3984W        W72347  30.603  14.131   1.388
 3985W        W72348   7.849  30.101   2.345
 3986W        W72349  11.715  44.863  12.826
 3987W        W72350  37.427  38.371   1.394
 3988W        W72351  26.115   1.837  11.454
 3989W        W72352  32.503  12.237  11.445
 3990W        W72353  44.268  11.345   3.823
 3991W        W72354  39.850  41.371   4.607
 3992W        W72355   8.185  42.933   1.827
 3993W        W72356  36.979  35.467  12.956
 3994W        W72357  44.298  44.889  13.874
 3995W        W72358  14.303   8.724   4.294
 3996W        W72359   4.751  19.605  10.496
 3997W        W72360  32.963  21.018  11.041
 3998W        W72361  29.484  37.470  10.149
 3999W        W72362  23.022  22.220  13.864
 4000W        W72363   2.780  44.420  13.949
 4001W        W72364   9.300  33.580   1.350
 4002W        W72365  34.435  43.325   2.750
 4003W        W72366   0.289   0.388  11.001
 4004W        W72367   5.863  42.395  14.373
 4005W        W72368   7.214  20.038  13.969
 4006W        W72369   2.336  12.214  12.545
 4007W        W72370  27.561  13.315   1.424
 4008W        W72371  19.739  28.482  12.908
 4009W        W72372  14.152  34.906   3.675
 4010W        W72373   5.818  32.963   2.257
 4011W        W72374   8.823   4.932   2.778
 4012W        W72375  30.516  37.846   0.347
 4013W        W72376   0.305   8.357  14.427
 4014W        W72377  12.307  32.575  14.362
 4015W        W72378   9.286  42.848   2.813
 4016W        W72379  36.415  11.763  14.937
 4017W        W72380  29.041  25.676   3.730
 4018W        W72381  36.096  40.028  12.972
 4019W        W72382  44.988  29.081  14.994
 4020W        W72383  19.691  12.680   3.856
 4021W        W72384  30.427   7.304   2.848
 4022W        W72385  26.544  29.604   0.766
 4023W        W72386   5.343  18.676  14.893
 4024W        W72387  13.639  37.003   1.875
 4025W        W72388  38.457  20.572   3.378
 4026W        W72389   1.751   1.810  12.870
 4027W        W72390  18.606  42.283  13.440
 4028W        W72391   6.809  42.371   1.337
 4029W        W72392  32.979  14.626  11.108
 4030W        W72393  43.328  15.201  13.343
 4031W        W72394  23.061   6.735  14.483
 4032W        W72395  34.048   2.280   3.631
 4033W        W72396  28.060  17.694  11.378
 4034W        W72397   6.307  40.314   0.956
 4035W        W72398  42.365  32.467  10.932
 4036W        W72399  16.097  28.969  12.028
 4037W        W72400  44.420   3.264  13.334
 4038W        W72401   6.284  29.116  13.459
 4039W        W72402  40.886  42.927   3.200
 4040W        W72403  21.529  15.174   4.244
 4041W        W72404  12.342  43.777   1.935
 4042W        W72405  16.090  39.948  10.525
 4043W        W72406  22.700   2.248   0.460
 4044W        W72407  20.640  27.146   1.858
 4045W        W72408  10.167  40.956   2.883
 4046W        W72409  40.314  26.545   0.934
 4047W        W72410  20.661   8.399  14.431
 4048W        W72411  39.394  24.581   2.684
 4049W        W72412  24.055   1.811  11.571
 4050W        W72413  26.466  40.884   4.267
 4051W        W72414  40.380  13.782  10.964
 4052W        W72415   0.871  19.046   0.469
 4053W        W72416  22.505   8.165  12.550
 4054W        W72417   6.677  18.714  11.561
 4055W        W72418  23.009  25.495  14.851
 4056W        W72419  19.134  28.619   3.286
 4057W        W72420   2.429   7.318   3.716
 4058W        W72421  31.116  23.163   4.259
 4059W        W72422   9.249   8.816  11.077
 4060W        W72423  40.963  30.955   4.673
 4061W        W72424  11.232  11.196   1.800
 4062W        W72425  22.164   4.740  10.925
 4063W        W72426  44.475  18.760  10.937
 4064W        W72427  21.622  22.182  12.084
 4065W        W72428   7.367  10.777   2.275
 4066W        W72429  22.635  21.018   1.895
 4067W        W72430  17.763  41.907  13.899
 4068W        W72431  28.006   4.840   2.301
 4069W        W72432  12.815   7.782  10.640
 4070W        W72433   1.442  28.599   0.942
 4071W        W72434  15.231  36.975   4.125
 4072W        W72435  27.059  20.707  14.872
 4073W        W72436  34.038  10.237  11.487
 4074W        W72437  44.865  10.314   0.764
 4075W        W72438  24.163   2.418   1.857
 4076W        W72439  15.257  14.296  11.903
 4077W        W72440  13.810  36.017  11.532
 4078W        W72441  25.486  24.076   4.178
 4079W        W72442  22.200  35.926   0.324
 4080W        W72443  41.538  27.106   1.219
 4081W        W72444  19.074   4.733   0.845
 4082W        W72445  18.745   3.237   0.345
 4083W        W72446  18.228   9.789   0.833
 4084W        W72447   2.440  12.334   3.775
 4085W        W72448  28.615  21.112   4.271
 4086W        W72449  28.010  21.242   0.833
 4087W        W72450   8.883  33.499   2.232
 4088W        W72451  26.698  41.889   1.342
 4089W        W72452  19.074  36.021  11.980
 4090W        W72453  41.423   4.338  11.453
 4091W        W72454   2.302   2.237  11.902
 4092W        W72455  14.273  27.111  12.379
 4093W        W72456  16.686  31.404  11.960
 4094W        W72457  28.183  30.148   1.415
 4095W        W72458  29.975   9.306   4.197
 4096W        W72459   0.277   5.727  11.445
 4097W        W72460  29.078  40.401  14.917
 4098W        W72461  39.846  15.329   2.735
 4099W        W72462  18.287  22.669   3.166
 4100W        W72463  43.903  25.139   4.291
 4101W        W72464   7.736  41.503  14.914
 4102W        W72465  14.245  18.220  13.827
 4103W        W72466  13.115  39.405   0.837
 4104W        W72467  26.556  36.432  13.979
 4105W        W72468  11.832  32.541  13.878
 4106W        W72469  24.538   1.870   2.886
 4107W        W72470  24.722   7.315  13.025
 4108W        W72471  22.526  42.811   5.259
 4109W        W72472  27.003   5.823  14.473
 4110W        W72473  27.047  22.687   2.195
 4111W        W72474   2.300   4.427  14.282
 4112W        W72475  13.761  10.840  11.530
 4113W        W72476  38.057  39.963   4.172
 4114W        W72477  35.102  16.791  14.946
 4115W        W72478  32.519   1.380   1.431
 4116W        W72479   4.852   5.919   1.343
 4117W        W72480   5.194  21.542  10.917
 4118W        W72481  42.282  30.003   0.245
 4119W        W72482   4.791  39.342  12.044
 4120W        W72483  14.638  25.631   0.313
 4121W        W72484   4.282  25.128   4.791
 4122W        W72485  28.652  20.736   3.743
 4123W        W72486   9.266   6.917  12.414
 4124W        W72487  43.446  38.955  11.593
 4125W        W72488   0.966  31.430  13.484
 4126W        W72489  40.983  14.600  13.902
 4127W        W72490  16.278  31.107  14.491
 4128W        W72491  40.931   7.182  12.399
 4129W        W72492  15.275   5.808   0.482
 4130W        W72493  35.419   8.759   4.727
 4131W        W72494  36.359  20.566  12.861
 4132W        W72495   1.926   4.739   1.338
 4133W        W72496  20.109  14.280   0.274
 4134W        W72497  18.187  20.133   3.165
 4135W        W72498  43.272   4.248  11.958
 4136W        W72499   8.396   7.888   4.343
 4137W        W72500  17.264  12.118   0.354
 4138W        W72501  22.228  42.374   0.734
 4139W        W72502  34.952  13.242  12.998
 4140W        W72503  15.180  42.909  13.397
 4141W        W72504   0.257  10.240  11.902
 4142W        W72505  39.033  27.182  13.006
 4143W        W72506  31.451  29.126   4.667
 4144W        W72507  11.333  33.978  11.907
 4145W        W72508   9.248  41.372  10.513
 4146W        W72509  22.047   1.737   4.670
 4147W        W72510   2.293  14.621   1.261
 4148W        W72511   6.677   6.878   3.665
 4149W        W72512  16.225  36.563  12.023
 4150W        W72513   6.804  35.027   4.142
 4151W        W72514   8.278  30.922  11.381
 4152W        W72515  34.519   5.825  12.477
 4153W        W72516  34.398  29.119   2.761
 4154W        W72517  20.106   5.285   2.727
 4155W        W72518  34.870  21.154  13.980
 4156W        W72519  15.745  25.545  13.055
 4157W        W72520  37.877  23.062   1.928
 4158W        W72521  21.180  30.161   1.383
 4159W        W72522   8.802  16.606   2.260
 4160W        W72523   3.920  33.523   3.156
 4161W        W72524  14.307  36.086   2.400
 4162W        W72525   5.320  12.639   4.303
 4163W        W72526  13.798  20.645  11.913
 4164W        W72527  43.307  37.081   1.863
 4165W        W72528  18.764  21.072  12.519
 4166W        W72529  26.989  23.555  13.876
 4167W        W72530   9.771   0.786  12.989
 4168W        W72531   4.719  41.870   0.346
 4169W        W72532  26.566  24.075   1.332
 4170W        W72533   9.329  15.714   9.936
 4171W        W72534  15.304  43.299   4.680
 4172W        W72535  33.067  13.803  12.869
 4173W        W72536  17.759  11.802  13.534
 4174W        W72537  25.702  32.626  12.972
 4175W        W72538  32.464  12.676   4.288
 4176W        W72539  19.553  42.816  13.484
 4177W        W72540  40.490  19.660  12.955
 4178W        W72541  31.493  23.690   0.757
 4179W        W72542  40.050  37.976   2.693
 4180W        W72543  20.157  11.862   1.378
 4181W        W72544  31.402  16.148   4.670
 4182W        W72545  23.736  15.717  10.477
 4183W        W72546  40.817  14.270  14.304
 4184W        W72547   5.324   3.391  12.411
 4185W        W72548  25.038  24.018  13.429
 4186W        W72549  11.349  43.436  13.484
 4187W        W72550  17.199  41.509  14.843
 4188W        W72551   0.466   3.761  13.414
 4189W        W72552  40.306   9.771  12.020
 4190W        W72553  34.915  19.092   0.440
 4191W        W72554   9.821  41.319  11.978
 4192W        W72555  22.588  43.972   1.751
 4193W        W72556  31.916  10.861  11.519
 4194W        W72557  27.556  33.532   1.756
 4195W        W72558  13.810   4.259   4.713
 4196W        W72559  18.738  37.857  13.499
 4197W        W72560  27.657  31.629  11.399
 4198W        W72561  39.953   8.900  11.912
 4199W        W72562  20.759  26.599  12.912
 4200W        W72563  11.792  28.456   1.783
 4201W        W72564  12.323  32.534  13.934
 4202W        W72565  13.329  17.790   1.421
 4203W        W72566  15.732  20.135   5.305
 4204W        W72567  33.556  16.258   2.230
 4205W        W72568  43.469  25.049  14.337
 4206W        W72569   4.337  40.868   1.863
 4207W        W72570  34.504  26.475   1.280
 4208W        W72571  28.161  10.697   4.351
 4209W        W72572  34.470  29.538  12.441
 4210W        W72573  37.935  16.183  11.906
 4211W        W72574  43.493  24.211   4.325
 4212W        W72575   2.372  17.568  10.911
 4213W        W72576  19.764  43.370  12.999
 4214W        W72577  32.402  32.100  13.049
 4215W        W72578  10.170  20.228  11.855
 4216W        W72579   4.379  24.973   2.674
 4217W        W72580   2.335  15.237   2.741
 4218W        W72581  32.422  17.282   4.610
 4219W        W72582  24.166  40.320  13.547
 4220W        W72583  36.584  28.435  13.402
 4221W        W72584   2.287  33.554  12.051
 4222W        W72585  40.876   6.783   1.379
 4223W        W72586  34.087  22.691  14.852
 4224W        W72587  21.023  23.122   3.190
 4225W        W72588  39.901  22.196   2.677
 4226W        W72589   7.772  29.618  13.499
 4227W        W72590  40.311  41.915  14.357
 4228W        W72591  23.038  42.892  14.823
 4229W        W72592  26.607   5.930  10.542
 4230W        W72593  14.824  40.487   3.386
 4231W        W72594   3.941  33.128  13.542
 4232W        W72595  15.317  15.811   5.132
 4233W        W72596   8.277  43.888  11.495
 4234W        W72597   4.794  22.181  10.954
 4235W        W72598  19.550  10.804   2.729
 4236W        W72599  16.288  20.228  13.018
 4237W        W72600  44.913  34.000   3.652
 4238W        W72601  35.975   8.325   0.813
 4239W        W72602  19.275  29.437  14.830
 4240W        W72603  13.734  41.001  13.990
 4241W        W72604  19.186  16.717   0.383
 4242W        W72605  15.151  19.083  12.478
 4243W        W72606  14.813  38.999  10.637
 4244W        W72607  40.326   1.318  11.555
 4245W        W72608  16.180  24.080  10.515
 4246W        W72609  17.752  17.293   2.216
 4247W        W72610  43.845  14.245  10.894
 4248W        W72611  25.107  13.204  13.969
 4249W        W72612  44.909   9.243  13.392
 4250W        W72613   8.680  11.373   4.182
 4251W        W72614  37.038   9.257  12.011
 4252W        W72615  18.731  33.500   5.304
 4253W        W72616   9.304  32.542   2.862
 4254W        W72617  19.107  13.732   0.942
 4255W        W72618  35.398  18.685  13.380
 4256W        W72619   1.332  33.985   3.658
 4257W        W72620  16.757   4.352  10.617
 4258W        W72621   1.259   9.643   1.282
 4259W        W72622  14.775  12.123   4.182
 4260W        W72623  41.011  15.264   2.240
 4261W        W72624  10.697  38.477   2.677
 4262W        W72625  44.262   7.735   4.751
 4263W        W72626   2.761   4.715  11.539
 4264W        W72627  12.797   5.918  11.884
 4265W        W72628  26.569  21.259  11.911
 4266W        W72629  27.979  21.537  14.431
 4267W        W72630  32.407  22.214   0.424
 4268W        W72631   4.356  43.371  12.053
 4269W        W72632  24.629   6.287   2.261
 4270W        W72633   2.288  14.824  13.471
 4271W        W72634  25.039  24.029   1.932
 4272W        W72635  13.700  33.500   0.365
 4273W        W72636  23.050  29.107  12.865
 4274W        W72637  30.441  18.285  13.459
 4275W        W72638  12.326  15.751   2.363
 4276W        W72639  30.512   6.850   4.268
 4277W        W72640  31.038  44.846  10.039
 4278W        W72641  35.920  30.056  10.928
 4279W        W72642  36.994  38.007   1.362
 4280W        W72643   4.715  25.184   2.362
 4281W        W72644  21.569  21.570  14.876
 4282W        W72645  30.633   7.789   2.207
 4283W        W72646  13.232  24.499   0.882
 4284W        W72647  31.056  13.265  13.979
 4285W        W72648  37.976  29.620  10.608
 4286W        W72649  18.291  24.158  14.976
 4287W        W72650   0.865  11.184   3.350
 4288W        W72651  29.089   7.800   2.851
 4289W        W72652  33.552  24.131  11.487
 4290W        W72653   5.773   4.789  12.396
 4291W        W72654  42.900  30.120   1.741
 4292W        W72655  10.213  22.683  14.468
 4293W        W72656  23.238  12.284  10.616
 4294W        W72657  31.909   5.700  12.954
 4295W        W72658   7.702   2.334   4.804
 4296W        W72659  13.677  42.328   0.883
 4297W        W72660   7.904  17.172   5.188
 4298W        W72661  19.759  25.014  12.580
 4299W        W72662   9.253  15.734   3.149
 4300W        W72663  41.360   4.364   4.720
 4301W        W72664  19.550   2.964   0.409
 4302W        W72665  29.119  37.560  12.028
 4303W        W72666   1.294  39.425   3.153
 4304W        W72667  18.243  28.984   0.750
 4305W        W72668  40.906  42.910  12.859
 4306W        W72669  35.902   9.383  10.443
 4307W        W72670  26.105  11.322   4.142
 4308W        W72671  33.917  24.698   1.824
 4309W        W72672  39.331  25.212   0.798
 4310W        W72673  11.262  17.737  11.010
 4311W        W72674  32.072  38.441   1.925
 4312W        W72675  36.924  24.225   4.831
 4313W        W72676   5.375  33.584  14.844
 4314W        W72677  41.521  43.974   4.128
 4315W        W72678  42.004  14.746  12.558
 4316W        W72679   6.907  41.324   3.688
 4317W        W72680  11.651  41.968  13.028
 4318W        W72681  40.370  26.971  11.377
 4319W        W72682  16.715  38.408   2.378
 4320W        W72683  35.505  24.612   0.743
 4321W        W72684   4.889  15.580  13.506
 4322W        W72685  43.916  29.570   2.355
 4323W        W72686  36.386  41.406  11.403
 4324W        W72687  38.525   7.313  13.512
 4325W        W72688   9.885  27.073   3.228
 4326W        W72689  26.107  27.550  14.459
 4327W        W72690  23.216  36.524   1.318
 4328W        W72691  28.455  38.520  12.961
 4329W        W72692  36.588  27.079  13.838
 4330W        W72693  23.214  28.113   4.191
 4331W        W72694   2.935  23.679  10.990
 4332W        W72695   3.368  41.511   4.810
 4333W        W72696  43.415  25.483   1.229
 4334W        W72697  24.599  36.457  12.389
 4335W        W72698  15.230  27.459  14.333
 4336W        W72699  43.318  42.293   4.759
 4337W        W72700  25.126  23.613  10.447
 4338W        W72701   8.248  31.941  11.487
 4339W        W72702  43.435  37.386   5.303
 4340W        W72703  17.239  15.163  12.007
 4341W        W72704  25.048   1.336   2.731
 4342W        W72705  25.666  30.991  13.014
 4343W        W72706  18.562  39.982  11.939
 4344W        W72707   2.877  39.316  11.391
 4345W        W72708  21.112  10.841  14.820
 4346W        W72709  22.085  32.587   4.609
 4347W        W72710  35.590  44.289   2.265
 4348W        W72711  36.015   1.927   2.266
 4349W        W72712  12.666  20.177   3.789
 4350W        W72713  32.054  20.748  10.424
 4351W        W72714  33.942  44.492   3.653
 4352W        W72715   6.842  32.989  14.510
 4353W        W72716  44.848  36.908  11.068
 4354W        W72717   7.771  26.552  13.941
 4355W        W72718  15.228  16.705  14.011
 4356W        W72719  32.538   7.395   0.456
 4357W        W72720  15.220  41.504  13.451
 4358W        W72721  24.059  30.979  10.970
 4359W        W72722  31.631  42.411  14.359
 4360W        W72723  10.864  19.582   0.918
 4361W        W72724   6.317  27.166  12.374
 4362W        W72725  16.784   7.805   4.122
 4363W        W72726   6.278  25.502   1.335
 4364W        W72727  41.817   1.333  11.905
 4365W        W72728   5.309  25.522   3.738
 4366W        W72729   6.241  17.247   0.780
 4367W        W72730  32.958  19.219   2.236
 4368W        W72731  22.191  31.595   2.751
 4369W        W72732   3.413  34.387  11.543
 4370W        W72733   9.322  24.706   4.328
 4371W        W72734  37.369  31.644   3.810
 4372W        W72735  21.632   1.303   0.253
 4373W        W72736   7.396  34.405  14.016
 4374W        W72737  44.466  33.540  12.930
 4375W        W72738  16.147  29.461  14.380
 4376W        W72739   7.222  11.202  10.509
 4377W        W72740  34.113  32.593   2.782
 4378W        W72741  13.742   4.316   1.853
 4379W        W72742  38.510   9.684   3.795
 4380W        W72743  44.421   8.877  12.014
 4381W        W72744   7.667   7.683  13.823
 4382W        W72745   2.878  39.908   4.287
 4383W        W72746   0.257  43.875   2.747
 4384W        W72747   0.934  26.099  10.597
 4385W        W72748  26.954  32.584  10.905
 4386W        W72749  10.768  17.589  11.527
 4387W        W72750  21.251   0.481  11.043
 4388W        W72751  40.016  11.818  13.007
 4389W        W72752  35.488  35.376   4.632
 4390W        W72753  44.826  40.829  11.868
 4391W        W72754  40.037  28.115  14.854
 4392W        W72755  41.910  12.290  10.430
 4393W        W72756  29.666  15.651   0.348
 4394W        W72757   8.305  28.987  11.475
 4395W        W72758   4.215  42.875   1.211
 4396W        W72759  11.203   8.315   0.961
 4397W        W72760   7.781  27.077  11.005
 4398W        W72761   3.380  15.144  13.496
 4399W        W72762  16.671  37.539  12.417
 4400W        W72763  24.094  13.124   4.268
 4401W        W72764  21.096  37.953   2.252
 4402W        W72765  22.646  38.331   1.318
 4403W        W72766  35.856  28.535  11.550
 4404W        W72767  22.017  39.032   2.710
 4405W        W72768   0.905  12.800  14.818
 4406W        W72769  43.418   0.920   9.933
 4407W        W72770  43.802  12.203  13.922
 4408W        W72771  23.663  15.620  14.816
 4409W        W72772   3.293  17.682  14.898
 4410W        W72773   1.431   7.827   4.598
 4411W        W72774  40.380  34.930  12.047
 4412W        W72775  17.118  14.316  14.468
 4413W        W72776  18.683  14.118  11.511
 4414W        W72777  43.949   9.150   4.744
 4415W        W72778  32.417  42.968   3.368
 4416W        W72779   2.769  35.987  13.846
 4417W        W72780  18.775  43.470  12.539
 4418W        W72781  42.988   2.802  14.378
 4419W        W72782  14.798   9.873  13.530
 4420W        W72783  31.027  28.574   0.875
 4421W        W72784  16.235  18.149  10.910
 4422W        W72785   4.734  33.460  11.574
 4423W        W72786  12.170  21.023  12.939
 4424W        W72787   6.883  39.514   2.735
 4425W        W72788  39.468  27.954  13.023
 4426W        W72789  41.429  11.214  12.064
 4427W        W72790  13.764  20.736  10.986
 4428W        W72791   3.746   4.354   1.752
 4429W        W72792  19.165  43.976   4.126
 4430W        W72793  13.266  10.210   3.269
 4431W        W72794  31.023   5.749  10.430
 4432W        W72795  24.135  16.107   2.368
 4433W        W72796  18.182  15.321  11.425
 4434W        W72797  22.616  34.588   4.206
 4435W        W72798  37.359  13.609   4.169
 4436W        W72799  39.323  14.278  14.366
 4437W        W72800   7.177  33.447   4.796
 4438W        W72801   4.932  12.837   4.702
 4439W        W72802  40.430  18.671  13.829
 4440W        W72803  14.106  37.003  11.089
 4441W        W72804  37.915   1.329  12.092
 4442W        W72805  30.540  27.560   9.961
 4443W        W72806  32.109   7.857   3.681
 4444W        W72807  37.571   1.332   0.378
 4445W        W72808  40.880   3.331   4.766
 4446W        W72809   3.761   8.289   4.282
 4447W        W72810  30.557  34.514   1.846
 4448W        W72811  30.137  18.760  13.024
 4449W        W72812  30.983   4.430   4.649
 4450W        W72813   5.430  12.296   0.822
 4451W        W72814  33.986   6.293  12.026
 4452W        W72815  25.136  29.452   3.807
 4453W        W72816   7.278  31.052   1.775
 4454W        W72817  41.400   3.340  14.010
 4455W        W72818  17.198  24.172   2.676
 4456W        W72819  22.697  40.372   0.388
 4457W        W72820  31.087  44.963   1.333
 4458W        W72821  23.729  23.094   4.650
 4459W        W72822   4.924  32.034  13.421
 4460W        W72823  29.591  21.730   2.745
 4461W        W72824  27.100  21.255  12.036
 4462W        W72825  30.008  31.134   2.700
 4463W        W72826  22.232  16.570  14.352
 4464W        W72827   8.216  36.853  13.529
 4465W        W72828  10.703  42.829   2.790
 4466W        W72829  13.327  13.276   2.734
 4467W        W72830  33.435  44.504   0.902
 4468W        W72831  36.866  44.818   0.748
 4469W        W72832   4.297  24.132  13.376
 4470W        W72833  35.872   0.785   3.145
 4471W        W72834  22.219  33.472  12.958
 4472W        W72835  21.125   4.788  13.040
 4473W        W72836  11.749  34.995   0.385
 4474W        W72837   3.251  44.849  10.497
 4475W        W72838  24.075   2.886  12.082
 4476W        W72839   3.896  29.649  11.557
 4477W        W72840  40.474   1.268   2.743
 4478W        W72841   6.684   1.241   4.798
 4479W        W72842  28.168  32.004   0.733
 4480W        W72843   2.781  30.953  11.999
 4481W        W72844  22.160   2.244  12.399
 4482W        W72845   6.317   7.905   3.729
 4483W        W72846  26.966  28.010  11.905
 4484W        W72847  20.560  24.994  11.378
 4485W        W72848  39.837  11.300   2.895
 4486W        W72849  18.736   7.276  14.364
 4487W        W72850  40.356  23.035   4.130
 4488W        W72851  35.065  36.364  10.539
 4489W        W72852  32.994  25.101  10.964
 4490W        W72853   6.304  29.542  13.946
 4491W        W72854  19.640  14.329   3.767
 4492W        W72855  18.214  38.505  14.842
 4493W        W72856  28.150  16.292  12.368
 4494W        W72857   3.251  18.759   1.210
 4495W        W72858   2.768   7.911   0.482
 4496W        W72859  26.565  16.598   3.154
 4497W        W72860  38.049  11.234   1.281
 4498W        W72861   9.334  23.636  13.516
 4499W        W72862   3.270  34.446  11.962
 4500W        W72863  39.040  39.325   1.893
 4501W        W72864  33.594   5.375  11.499
 4502W        W72865  25.991  41.481  12.008
 4503W        W72866  38.878  29.642   2.393
 4504W        W72867  26.465  13.238   0.250
 4505W        W72868  22.219   9.222  11.095
 4506W        W72869  35.041  35.874  13.961
 4507W        W72870  21.183  31.445   1.403
 4508W        W72871  31.911  12.327  10.445
 4509W        W72872  41.829  38.556   4.745
 4510W        W72873  39.450  15.140  14.976
 4511W        W72874  20.525  19.095   0.752
 4512W        W72875  15.592  34.370  10.634
 4513W        W72876  39.814  13.181  10.889
 4514W        W72877  31.470  43.408   3.821
 4515W        W72878  33.616  30.102   2.881
 4516W        W72879   4.383  17.120   3.324
 4517W        W72880  24.485  38.558  13.885
 4518W        W72881  44.915   4.243   0.930
 4519W        W72882  17.248   5.365  11.438
 4520W        W72883  27.999   2.393  13.443
 4521W        W72884   4.920  43.834   3.833
 4522W        W72885  12.162  32.600   4.188
 4523W        W72886   0.319  16.804   4.159
 4524W        W72887  24.514   7.261   1.869
 4525W        W72888  22.219  15.782  14.005
 4526W        W72889   2.782  29.525   3.379
 4527W        W72890  36.842  12.655  11.491
 4528W        W72891  43.277   4.754   3.661
 4529W        W72892  28.486  23.647   2.327
 4530W        W72893  37.549  29.579  13.836
 4531W        W72894   2.418  40.481  14.893
 4532W        W72895  41.529  28.509  10.411
 4533W        W72896  38.929   9.868   3.301
 4534W        W72897  42.829  20.266  13.012
 4535W        W72898  37.471   5.321   0.399
 4536W        W72899  20.653   0.292  10.629
 4537W        W72900  31.005  21.225   1.299
 4538W        W72901  24.096  13.243  14.856
 4539W        W72902  38.874  10.253  13.528
 4540W        W72903  14.632  21.147  14.941
 4541W        W72904  21.565  38.514  13.991
 4542W        W72905  31.572  28.678  14.835
 4543W        W72906  14.167  41.918   0.817
 4544W        W72907  26.162   8.892   5.265
 4545W        W72908  28.501  32.939  12.909
 4546W        W72909  43.375  24.055   2.774
 4547W        W72910  10.723  37.005  10.937
 4548W        W72911   6.748  26.685  13.379
 4549W        W72912   2.886  33.020  12.052
 4550W        W72913  31.154  41.312  14.024
 4551W        W72914   9.811  35.060  12.827
 4552W        W72915  21.560  28.088   2.206
 4553W        W72916  20.693  43.437   1.445
 4554W        W72917  15.211   6.424  10.533
 4555W        W72918  25.062   7.329  11.861
 4556W        W72919  33.880  10.358  10.030
 4557W        W72920  25.534  10.322  11.425
 4558W        W72921  35.888  40.880   0.946
 4559W        W72922  33.488   6.872  12.843
 4560W        W72923  42.388   5.776  13.373
 4561W        W72924  25.136  12.177   4.355
 4562W        W72925  16.726  23.698  14.858
 4563W        W72926  31.470  21.148  10.520
 4564W        W72927  16.760  21.060  11.407
 4565W        W72928  42.522  33.398   2.207
 4566W        W72929   5.428  44.911   2.261
 4567W        W72930  18.127  33.528   0.300
 4568W        W72931  19.655  24.483   2.258
 4569W        W72932  17.709  28.174   2.879
 4570W        W72933  18.612  10.360   4.282
 4571W        W72934  37.980   9.150  12.487
 4572W        W72935  34.401   0.437   2.813
 4573W        W72936  34.888  11.787   5.268
 4574W        W72937  26.631  14.302   1.905
 4575W        W72938  13.222  44.444   0.734
 4576W        W72939  38.064  18.782  11.010
 4577W        W72940  21.750  40.971   3.276
 4578W        W72941  22.508  44.425   5.097
 4579W        W72942  27.144  43.479   4.227
 4580W        W72943  17.107  29.951   0.841
 4581W        W72944  28.152   1.753   3.280
 4582W        W72945  22.093  18.653  13.869
 4583W        W72946  37.355  11.720   3.629
 4584W        W72947  25.075  41.954  13.970
 4585W        W72948  29.424  42.921   3.207
 4586W        W72949  19.645  36.925   4.176
 4587W        W72950   7.338  27.157   1.716
 4588W        W72951  37.579  35.491  11.944
 4589W        W72952  17.125  32.566   4.736
 4590W        W72953   2.922  43.394  12.544
 4591W        W72954  37.501  39.044   4.809
 4592W        W72955  27.111  11.152   0.442
 4593W        W72956  39.474  22.115  13.489
 4594W        W72957  23.580  33.395   0.257
 4595W        W72958  28.110   3.747   0.341
 4596W        W72959   6.812  28.667   1.258
 4597W        W72960  18.207  38.351   3.333
 4598W        W72961  23.693  43.001  11.450
 4599W        W72962  17.122   0.868   4.629
 4600W        W72963   1.355  44.916  13.013
 4601W        W72964  44.977  11.720   2.201
 4602W        W72965  10.187  13.231  13.955
 4603W        W72966  40.414  29.548   0.270
 4604W        W72967  41.425   8.779   4.134
 4605W        W72968  32.468  21.030   0.736
 4606W        W72969   5.795  36.352   2.886
 4607W        W72970  14.116  23.550   4.631
 4608W        W72971  17.115  18.571   2.687
 4609W        W72972  15.119  33.993   1.840
 4610W        W72973  23.612  43.297   2.757
 4611W        W72974  18.639  39.020   3.371
 4612W        W72975  19.755   0.886  10.442
 4613W        W72976  30.922  18.150   0.739
 4614W        W72977  33.449  25.139  13.392
 4615W        W72978  12.185  42.932  14.832
 4616W        W72979  38.499   5.703   0.938
 4617W        W72980  16.726  14.322   2.781
 4618W        W72981  15.217  35.438   1.820
 4619W        W72982   5.720   3.943  13.532
 4620W        W72983  15.144  25.685   0.427
 4621W        W72984  22.071   6.778   2.270
 4622W        W72985   6.908  16.308  12.361
 4623W        W72986  23.557   8.269  14.393
 4624W        W72987  40.040   3.376  13.396
 4625W        W72988  37.896  30.985   1.790
 4626W        W72989   0.878  23.521  12.350
 4627W        W72990  37.545  42.842   0.894
 4628W        W72991  36.090  23.498  14.306
 4629W        W72992  10.360   2.766   4.241
 4630W        W72993  28.545   1.350   3.760
 4631W        W72994  29.130  23.079   2.833
 4632W        W72995  29.482  30.991   0.899
 4633W        W72996   4.836  28.966  12.402
 4634W        W72997  15.587   2.289   5.202
 4635W        W72998  26.954  22.637   1.224
 4636W        W72999  39.380  40.492  14.884
 4637W        W73000   5.299  37.443   0.351
 4638W        W73001  10.743  13.152  11.489
 4639W        W73002  35.438  41.798   4.621
 4640W        W73003  17.073   4.891   4.635
 4641W        W73004  27.135   9.864   3.210
 4642W        W73005   3.925   0.265   1.826
 4643W        W73006  13.754  18.702  12.566
 4644W        W73007  35.521  21.599   0.876
 4645W        W73008  31.981  18.189  10.424
 4646W        W73009  31.030   5.215  10.906
 4647W        W73010  16.605  28.475  12.574
 4648W        W73011  15.668   0.910  12.394
 4649W        W73012   3.854  28.533  13.348
 4650W        W73013  40.976  44.906  13.002
 4651W        W73014  13.216   8.828   9.959
 4652W        W73015   3.763  15.704   3.154
 4653W        W73016   4.891  14.641   4.146
 4654W        W73017   5.344  31.930  12.362
 4655W        W73018  14.789   3.773   2.869
 4656W        W73019  44.767  24.057   1.397
 4657W        W73020   9.732  15.276   3.786
 4658W        W73021  29.001  38.985  12.519
 4659W        W73022  25.616  22.997  11.918
 4660W        W73023  19.661   7.748   2.411
 4661W        W73024  40.497  16.586   2.205
 4662W        W73025  19.071  42.778   9.545
 4663W        W73026  41.903  37.481   4.269
 4664W        W73027  30.614  18.052  10.523
 4665W        W73028  22.194  21.098  10.586
 4666W        W73029  32.563  42.487  11.943
 4667W        W73030   6.368  41.362  13.841
 4668W        W73031  30.568   8.750  12.479
 4669W        W73032  20.633  35.480  13.796
 4670W        W73033   6.220  32.097   2.740
 4671W        W73034  43.020  18.168  14.294
 4672W        W73035  13.323   6.840   0.376
 4673W        W73036  41.988  13.759  14.926
 4674W        W73037  40.373  38.870  13.376
 4675W        W73038  27.047   0.382  10.626
 4676W        W73039  14.276  23.074   0.370
 4677W        W73040  10.154   9.385   1.356
 4678W        W73041  20.679  12.231   4.197
 4679W        W73042   0.810  24.171  11.088
 4680W        W73043  15.696   3.255   2.885
 4681W        W73044  13.270  21.031  13.511
 4682W        W73045  41.943   3.283  10.915
 4683W        W73046  35.009  38.978   4.606
 4684W        W73047  13.169  21.150   9.934
 4685W        W73048  27.987  41.514   1.385
 4686W        W73049  22.105  42.914  12.384
 4687W        W73050  39.061  37.955   4.735
 4688W        W73051  13.120  33.386  12.523
 4689W        W73052  26.524  14.299  14.029
 4690W        W73053   7.311  35.437  12.383
 4691W        W73054  38.437   1.332  10.511
 4692W        W73055  44.844  42.281   1.269
 4693W        W73056   5.408  18.714  12.358
 4694W        W73057  30.032  41.023   1.916
 4695W        W73058  12.193  29.156   2.247
 4696W        W73059  40.010   2.384   0.261
 4697W        W73060  16.729  41.429  11.497
 4698W        W73061  40.433  44.853  13.352
 4699W        W73062  24.202  41.033   3.344
 4700W        W73063  13.764  37.932   1.881
 4701W        W73064  40.487  12.247   2.264
 4702W        W73065  15.665  14.169   1.871
 4703W        W73066  24.568  22.511  14.436
 4704W        W73067  17.133  19.736  11.969
 4705W        W73068  26.515  38.847   4.341
 4706W        W73069  41.950  35.526  11.934
 4707W        W73070  19.718  30.082  11.601
 4708W        W73071  16.222  35.408   4.670
 4709W        W73072  37.518   1.366  12.932
 4710W        W73073  35.858  32.065  11.964
 4711W        W73074  38.426  36.576   3.148
 4712W        W73075   7.310  21.645   0.403
 4713W        W73076  38.566  21.148  13.024
 4714W        W73077  36.422  35.494  12.052
 4715W        W73078  30.022  30.620   4.261
 4716W        W73079  10.805   8.166  11.889
 4717W        W73080   6.812  32.528  10.900
 4718W        W73081   6.867  31.533  14.863
 4719W        W73082  26.555  26.047   3.702
 4720W        W73083  34.068  26.128  11.586
 4721W        W73084  41.385  37.064   3.725
 4722W        W73085  35.073  19.247   1.706
 4723W        W73086  16.282  38.052  12.922
 4724W        W73087  40.403   6.838   1.450
 4725W        W73088  41.298   8.764  14.494
 4726W        W73089   8.894  40.343   3.327
 4727W        W73090  30.654  27.088   1.277
 4728W        W73091  24.555  32.016  11.532
 4729W        W73092  40.860   9.368   0.809
 4730W        W73093  13.204   8.696   1.921
 4731W        W73094  17.132  32.947  12.031
 4732W        W73095  10.287  38.341  13.939
 4733W        W73096   0.985  16.658  11.579
 4734W        W73097  36.035  26.009  14.010
 4735W        W73098  34.439  14.707   3.151
 4736W        W73099  40.035  40.020   4.184
 4737W        W73100  35.063  36.569   2.282
 4738W        W73101  22.513   6.901   4.688
 4739W        W73102  37.573  15.104  13.905
 4740W        W73103  33.971   3.810   3.835
 4741W        W73104  43.882  14.821  14.005
 4742W        W73105  18.195  27.185  13.984
 4743W        W73106  34.556  40.305   3.370
 4744W        W73107  20.655   4.758   1.277
 4745W        W73108  40.371  34.990  10.449
 4746W        W73109  15.272  26.034   4.235
 4747W        W73110  31.030  44.407   0.377
 4748W        W73111  30.495  22.158   3.686
 4749W        W73112  14.763  41.438   0.811
 4750W        W73113  40.977   9.374  10.442
 4751W        W73114  22.715   8.755  11.986
 4752W        W73115  35.527  25.049  12.043
 4753W        W73116  29.921  24.591  10.443
 4754W        W73117  44.962   6.818   2.832
 4755W        W73118  32.057  32.439   0.787
 4756W        W73119  44.885  37.472   9.601
 4757W        W73120  13.121   2.272   4.180
 4758W        W73121  20.212  35.972  13.948
 4759W        W73122  30.097  30.053  10.015
 4760W        W73123  21.040  16.569  12.023
 4761W        W73124  39.316  27.942   1.236
 4762W        W73125  14.149  40.511   2.317
 4763W        W73126  23.530   7.391  14.940
 4764W        W73127  44.489  42.463  11.590
 4765W        W73128  18.763  15.218   4.810
 4766W        W73129   0.909   7.743   1.231
 4767W        W73130  33.109  44.763   4.173
 4768W        W73131  43.392  10.162   4.797
 4769W        W73132  17.568  23.195   1.846
 4770W        W73133  24.566  36.033   3.224
 4771W        W73134  28.074  27.995  12.539
 4772W        W73135  32.133  34.890  13.327
 4773W        W73136  20.746  39.374   0.829
 4774W        W73137  18.231  28.523   0.436
 4775W        W73138   7.316   5.733  13.314
 4776W        W73139  41.508  15.595   0.872
 4777W        W73140  36.371   4.274  12.491
 4778W        W73141  19.171   5.248   1.309
 4779W        W73142   3.795  44.397  13.395
 4780W        W73143  34.602   1.951   0.738
 4781W        W73144  34.471  11.739   3.314
 4782W        W73145  41.493   5.341  11.577
 4783W        W73146   7.683  29.527  10.472
 4784W        W73147  19.137  32.561  12.406
 4785W        W73148  31.535  28.542   0.384
 4786W        W73149  22.717  41.983  14.922
 4787W        W73150  35.060  16.758   1.442
 4788W        W73151  25.075  24.184   0.740
 4789W        W73152  22.634  25.206  13.337
 4790W        W73153   4.928  43.901  12.870
 4791W        W73154  29.043  27.043   3.257
 4792W        W73155  21.533  36.889   2.397
 4793W        W73156   3.732  10.636  13.504
 4794W        W73157   4.440  42.397  10.976
 4795W        W73158   6.418   5.267  11.054
 4796W        W73159  24.492   9.174   2.712
 4797W        W73160  40.329   7.392  14.788
 4798W        W73161  22.202  16.664   1.358
 4799W        W73162  22.687  29.511   2.213
 4800W        W73163   3.352  33.959   0.441
 4801W        W73164  10.778  13.321   2.295
 4802W        W73165   7.678  34.389   4.276
 4803W        W73166  22.649  35.023   0.259
 4804W        W73167   9.769   6.894  14.962
 4805W        W73168  26.123  26.140  10.416
 4806W        W73169   8.338  22.134   1.695
 4807W        W73170  29.457  38.904  14.967
 4808W        W73171  44.993   3.216  10.630
 4809W        W73172  31.901  43.797   5.250
 4810W        W73173  22.020  19.108  12.461
 4811W        W73174   4.710   6.327   2.724
 4812W        W73175   0.300  33.610  10.999
 4813W        W73176   5.228   8.824   2.698
 4814W        W73177  15.662  41.465   1.260
 4815W        W73178  23.569  25.708  11.887
 4816W        W73179  40.888  21.050   3.641
 4817W        W73180  34.900   1.925   4.354
 4818W        W73181  25.153   8.828   2.686
 4819W        W73182  37.971   0.256  14.795
 4820W        W73183   3.455  13.750  12.515
 4821W        W73184  24.534  17.618   0.282
 4822W        W73185  32.559  36.423  12.517
 4823W        W73186  19.146   8.177  11.893
 4824W        W73187  38.020  32.497   4.247
 4825W        W73188  29.511   0.945   2.702
 4826W        W73189   4.448  42.027   2.902
 4827W        W73190   3.401  38.037  14.339
 4828W        W73191  27.174  31.473   1.214
 4829W        W73192   2.330  25.008  13.014
 4830W        W73193  35.037  44.499   5.162
 4831W        W73194   3.424  35.076   2.702
 4832W        W73195  15.776  33.116  13.390
 4833W        W73196  40.921   0.370  13.813
 4834W        W73197  17.682  34.594  11.066
 4835W        W73198  44.844  21.189   4.637
 4836W        W73199  18.212  17.699  11.562
 4837W        W73200  31.496  27.062  12.842
 4838W        W73201  11.239  11.749   2.877
 4839W        W73202  42.942   7.699  11.973
 4840W        W73203   0.333  25.640   4.796
 4841W        W73204  33.611  17.136   2.783
 4842W        W73205  19.600  15.245   2.291
 4843W        W73206   0.967  12.121  10.492
 4844W        W73207   3.849   7.894   1.838
 4845W        W73208   4.392  15.259  11.568
 4846W        W73209  44.832  24.485  14.902
 4847W        W73210  30.082  13.841   0.731
 4848W        W73211  31.148   4.753   4.130
 4849W        W73212  14.784  26.525   1.852
 4850W        W73213  14.208   8.252  10.960
 4851W        W73214  10.301  30.597   0.827
 4852W        W73215  16.640  19.613  14.300
 4853W        W73216  18.257  42.333  14.963
 4854W        W73217  32.455  12.334   2.202
 4855W        W73218  19.197  24.709  12.849
 4856W        W73219  20.168  25.983  14.005
 4857W        W73220  24.548  40.391  13.914
 4858W        W73221   3.900  28.626   0.370
 4859W        W73222  31.002  26.563   0.864
 4860W        W73223  34.420  37.851   0.308
 4861W        W73224  37.073  31.112   3.363
 4862W        W73225  41.984  11.356  10.488
 4863W        W73226  14.246   2.449   1.753
 4864W        W73227  40.967  10.226   2.259
 4865W        W73228   6.234  34.069   1.331
 4866W        W73229  30.015  12.339   0.801
 4867W        W73230  38.523   0.391  13.958
 4868W        W73231   8.661  29.115   0.851
 4869W        W73232  32.631   3.896  12.079
 4870W        W73233  22.174  13.733   4.709
 4871W        W73234  21.221   4.237  11.947
 4872W        W73235  20.647  16.177  13.502
 4873W        W73236  27.582  39.482   2.742
 4874W        W73237  29.097   1.359  11.966
 4875W        W73238  37.419  20.176  12.959
 4876W        W73239  40.357  18.219   2.716
 4877W        W73240  10.250  38.359   0.345
 4878W        W73241   9.383  43.874   0.432
 4879W        W73242  18.206  39.388  14.859
 4880W        W73243   9.765  22.087   0.245
 4881W        W73244  19.061  35.477   2.384
 4882W        W73245  15.083  18.294   4.634
 4883W        W73246  25.139  34.001   2.798
 4884W        W73247  19.562  21.721   0.467
 4885W        W73248  12.794  30.517   4.678
 4886W        W73249   7.881   8.183  12.540
 4887W        W73250  15.722  21.170  14.005
 4888W        W73251  23.069  26.660   4.622
 4889W        W73252  41.846   6.877   3.367
 4890W        W73253  10.206  25.610  14.410
 4891W        W73254  13.330  20.216  13.355
 4892W        W73255  10.249  40.823   1.898
 4893W        W73256  33.009  39.943   0.899
 4894W        W73257   2.372  34.521   1.440
 4895W        W73258  37.968  44.849   0.271
 4896W        W73259  23.676  17.278  11.987
 4897W        W73260  12.679   9.238   2.184
 4898W        W73261   0.271  26.611   4.699
 4899W        W73262  40.990   0.419  12.367
 4900W        W73263  23.713  10.850  12.037
 4901W        W73264  17.135  12.697  11.102
 4902W        W73265  20.213  26.535   4.661
 4903W        W73266  29.172  11.643   1.827
 4904W        W73267  26.562  43.489  11.956
 4905W        W73268  33.557  18.180  14.512
 4906W        W73269  10.706  31.977   1.223
 4907W        W73270   1.821  42.915   4.318
 4908W        W73271  41.451  24.629   2.196
 4909W        W73272  30.649  36.579  10.484
 4910W        W73273   2.756  42.469   3.233
 4911W        W73274  12.253  29.442  14.990
 4912W        W73275  30.435   5.273  13.902
 4913W        W73276  42.478  26.098   4.168
 4914W        W73277   6.677  16.195   2.692
 4915W        W73278  35.357  23.607   2.353
 4916W        W73279   4.817  18.768   3.727
 4917W        W73280  30.020  37.878   0.812
 4918W        W73281  39.944  10.372   4.664
 4919W        W73282  14.286   2.392  12.976
 4920W        W73283  27.584  28.942   3.821
 4921W        W73284  26.178  10.197   2.227
 4922W        W73285  11.751  24.999   9.920
 4923W        W73286  38.885  43.449   1.357
 4924W        W73287  33.524  36.874  14.315
 4925W        W73288   4.870  11.137   3.246
 4926W        W73289  44.935  30.630   0.911
 4927W        W73290  16.799  42.491   0.911
 4928W        W73291  38.420  30.949   4.808
 4929W        W73292   6.896  10.739  12.958
 4930W        W73293  36.561  25.575   1.760
 4931W        W73294   1.472  16.238   2.246
 4932W        W73295  36.002  22.569   3.229
 4933W        W73296  18.560   6.303  14.357
 4934W        W73297   5.756  38.571  13.877
 4935W        W73298   9.395  28.538  14.483
 4936W        W73299  22.636  37.871  12.970
 4937W        W73300  12.759  43.512  13.341
 4938W        W73301  18.130  24.558   4.169
 4939W        W73302  42.807  28.574  13.362
 4940W        W73303  15.174  23.013  12.536
 4941W        W73304   6.278  43.509  12.422
 4942W        W73305  37.064  32.955  11.449
 4943W        W73306  39.031  31.935   4.205
 4944W        W73307  12.679   4.759   3.757
 4945W        W73308  12.715   3.321   4.126
 4946W        W73309  17.146  19.188   1.874
 4947W        W73310  42.523  43.963   4.611
 4948W        W73311  11.285  44.403   4.339
 4949W        W73312  23.126  27.487  12.023
 4950W        W73313  39.356  16.118  13.483
 4951W        W73314   0.331  37.046   1.771
 4952W        W73315   4.747   3.353  10.914
 4953W        W73316  37.574  31.614  13.840
 4954W        W73317  14.312   8.400  11.982
 4955W        W73318   6.247  23.076   2.713
 4956W        W73319   1.452   3.228   4.777
 4957W        W73320  13.252  26.163  14.904
 4958W        W73321  10.705  30.955  14.458
 4959W        W73322  22.723  40.969   3.244
 4960W        W73323   7.784  21.063   4.314
 4961W        W73324  33.962   7.243  13.468
 4962W        W73325  31.149  30.487   1.915
 4963W        W73326   4.862  44.271   9.986
 4964W        W73327  32.981  30.908   2.419
 4965W        W73328   4.900  25.566   4.282
 4966W        W73329  20.200  43.288  14.864
 4967W        W73330  43.777   2.237   4.666
 4968W        W73331  19.720  34.497  10.471
 4969W        W73332  38.071  27.118  14.292
 4970W        W73333  36.477  29.059   3.161
 4971W        W73334  13.308  27.600   3.319
 4972W        W73335  29.920  34.879  10.530
 4973W        W73336  10.685  42.465   0.428
 4974W        W73337  11.739   0.854   0.910
 4975W        W73338  17.799  40.970  14.980
 4976W        W73339  33.461   4.322   3.319
 4977W        W73340  44.286  38.846  11.993
 4978W        W73341  33.986  39.056   0.299
 4979W        W73342   7.706  11.862  12.525
 4980W        W73343   3.840  25.597   3.155
 4981W        W73344  16.590  15.209   4.271
 4982W        W73345  24.045   4.216  14.937
 4983W        W73346  28.971  20.061  14.806
 4984W        W73347  23.994   5.252  13.995
 4985W        W73348  20.628  30.123  12.094
 4986W        W73349   7.359  22.522  13.530
 4987W        W73350  41.498   3.753   3.165
 4988W        W73351   3.285  44.962   1.320
 4989W        W73352  39.841   8.345  12.914
 4990W        W73353  30.649   7.181  14.849
 4991W        W73354   7.846  11.360   4.636
 4992W        W73355  29.952   5.306  13.948
 4993W        W73356   3.271  40.540   1.892
 4994W        W73357  14.604   1.810   2.708
 4995W        W73358  29.576  28.563   5.296
 4996W        W73359  33.553  37.016   0.423
 4997W        W73360  11.167  20.127  13.924
 4998W        W73361  26.117  14.217   4.145
 4999W        W73362  39.478  18.671  12.000
 5000W        W73363   3.750  32.594   3.163
 5001W        W73364  15.730  19.658   2.301
 5002W        W73365   9.308  41.377  12.404
 5003W        W73366   4.330  43.331   5.726
 5004W        W73367   1.865  19.197  12.896
 5005W        W73368  44.816  30.491  14.398
 5006W        W73369  37.423  14.680  13.546
 5007W        W73370   1.930  36.411   3.641
 5008W        W73371  24.039   0.848  14.395
 5009W        W73372  44.376   2.309  11.065
 5010W        W73373  11.764   3.293  14.825
 5011W        W73374  42.406   1.838   0.324
 5012W        W73375  10.689  16.668   0.356
 5013W        W73376  29.169  26.034  14.504
 5014W        W73377  31.952  14.313  14.972
 5015W        W73378   0.840  31.149  13.368
 5016W        W73379  27.982  19.136   3.706
 5017W        W73380  15.190  28.523  10.514
 5018W        W73381  32.543  38.007   4.138
 5019W        W73382  35.586  13.638  14.365
 5020W        W73383  15.265  29.531  13.897
 5021W        W73384  27.948  43.370   2.309
 5022W        W73385  44.271  39.337  12.921
 5023W        W73386  27.075  20.181  11.504
 5024W        W73387   2.329  24.582  14.330
 5025W        W73388  16.688  11.840   4.797
 5026W        W73389  10.300  34.095   1.300
 5027W        W73390  42.515  10.830   1.248
 5028W        W73391  14.682   7.722  13.918
 5029W        W73392   0.341  42.950   4.284
 5030W        W73393  14.323  41.794   1.811
 5031W        W73394  43.787  21.037   1.823
 5032W        W73395  35.471  40.802   2.789
 5033W        W73396  21.043  36.353  13.051
 5034W        W73397  32.928  20.693  12.915
 5035W        W73398  42.317  28.133   1.303
 5036W        W73399  36.997   0.860  11.973
 5037W        W73400  23.239  30.507   1.356
 5038W        W73401  22.189  28.593   4.245
 5039W        W73402  35.908   7.805   0.370
 5040W        W73403   3.796  15.317  11.574
 5041W        W73404  42.960  21.688   0.410
 5042W        W73405   5.247  29.571  12.453
 5043W        W73406  39.831  25.562  12.003
 5044W        W73407  11.811  17.695  14.416
 5045W        W73408  10.743  18.631  11.403
 5046W        W73409  33.397  13.748   0.895
 5047W        W73410  21.607  10.781   1.806
 5048W        W73411  17.560  28.497  14.484
 5049W        W73412  32.139  22.121   4.756
 5050W        W73413  21.747   7.794  13.881
 5051W        W73414  16.731  24.589   3.229
 5052W        W73415  18.584   8.726  13.875
 5053W        W73416  22.015   6.724   0.853
 5054W        W73417  15.189  33.517  12.830
 5055W        W73418  32.432  32.579  12.975
 5056W        W73419  13.230   4.409   0.753
 5057W        W73420  10.196  11.626  11.437
 5058W        W73421  37.939   8.205   2.807
 5059W        W73422  26.613  28.024   1.319
 5060W        W73423   0.307  21.519  10.904
 5061W        W73424  39.008  19.704   5.200
 5062W        W73425  43.918  28.979  13.023
 5063W        W73426  20.168   3.909  14.839
 5064W        W73427  40.969   1.353   0.442
 5065W        W73428  38.981  33.984  11.125
 5066W        W73429  41.860  38.555   3.725
 5067W        W73430   9.295   3.914   2.842
 5068W        W73431  22.230   2.230  12.990
 5069W        W73432  40.450  44.453  14.975
 5070W        W73433   4.356  26.206   1.451
 5071W        W73434  25.574  23.178  14.510
 5072W        W73435  35.055  28.154  10.608
 5073W        W73436   8.386  26.194  11.477
 5074W        W73437  34.602  13.603  14.335
 5075W        W73438   7.792  13.123   1.356
 5076W        W73439  18.235   3.395   4.606
 5077W        W73440  35.384  10.146   2.664
 5078W        W73441  30.143   5.405   0.943
 5079W        W73442   6.204  16.209  11.018
 5080W        W73443   5.776  14.717  14.439
 5081W        W73444  18.062   3.390  14.896
 5082W        W73445  14.773  33.473   4.275
 5083W        W73446  24.155   2.925   4.311
 5084W        W73447  10.333   9.229  13.531
 5085W        W73448  30.946  15.240   1.424
 5086W        W73449  10.656  44.311   3.740
 5087W        W73450  20.574   6.714  13.965
 5088W        W73451  31.023  17.789   4.644
 5089W        W73452  39.965   0.887  13.417
 5090W        W73453  10.653  32.072  14.930
 5091W        W73454   5.826  39.865  11.029
 5092W        W73455  12.644  36.361  13.992
 5093W        W73456  27.593  17.654   4.699
 5094W        W73457  17.690  42.949  11.421
 5095W        W73458  13.172   4.234   4.600
 5096W        W73459   8.900  11.245   2.857
 5097W        W73460  28.182  38.837   0.737
 5098W        W73461  14.332  35.883   3.721
 5099W        W73462  33.433  28.565  14.317
 5100W        W73463   2.815  27.137  10.947
 5101W        W73464   2.796  43.860   0.343
 5102W        W73465  28.155  34.895  14.353
 5103W        W73466   1.863  36.504   4.186
 5104W        W73467  13.788  44.497  10.897
 5105W        W73468   3.246  25.571   1.260
 5106W        W73469   9.666  29.098  12.987
 5107W        W73470   3.296   2.932   4.705
 5108W        W73471  43.968  44.476  14.458
 5109W        W73472  27.067  30.618  13.539
 5110W        W73473  10.348  14.774   3.223
 5111W        W73474  15.106  25.541  11.540
 5112W        W73475  33.422   3.411  12.498
 5113W        W73476  25.665  33.391  14.430
 5114W        W73477   3.322  27.609  13.373
 5115W        W73478  13.715  31.475  11.017
 5116W        W73479  34.085  18.582  10.558
 5117W        W73480  31.956  38.366   2.335
 5118W        W73481  11.133   2.468   2.316
 5119W        W73482  28.452  34.930   3.320
 5120W        W73483  17.681   2.355   0.276
 5121W        W73484  36.586   1.350  11.427
 5122W        W73485  22.235  15.793  14.386
 5123W        W73486  32.076  15.201  14.932
 5124W        W73487  21.546  20.546  12.980
 5125W        W73488  24.561  31.089  14.441
 5126W        W73489  35.948  26.621   3.262
 5127W        W73490  24.229  44.851   3.766
 5128W        W73491  27.669  15.134   4.745
 5129W        W73492  27.109   0.434  12.052
 5130W        W73493   5.780  22.563   4.607
 5131W        W73494   2.911  42.977   3.230
 5132W        W73495  37.394  11.343  10.597
 5133W        W73496   9.692  11.290  10.984
 5134W        W73497  10.827  36.365   1.244
 5135W        W73498  33.952   8.875   3.853
 5136W        W73499   9.247  27.979   3.677
 5137W        W73500  26.537   3.376   4.342
 5138W        W73501   7.399  11.154   2.332
 5139W        W73502  35.051  11.730   1.409
 5140W        W73503   0.339   4.710   0.841
 5141W        W73504  33.392  18.730  13.482
 5142W        W73505  10.269  14.624  10.542
 5143W        W73506  35.992  40.829  10.451
 5144W        W73507  36.006  11.314   1.319
 5145W        W73508  24.975  36.353   0.812
 5146W        W73509   0.392   9.336   0.832
 5147W        W73510  30.017  14.110   0.868
 5148W        W73511  37.898   1.893   0.910
 5149W        W73512   5.836  11.340   4.122
 5150W        W73513  37.923  18.757  14.946
 5151W        W73514  14.803  32.561  11.883
 5152W        W73515   5.260  14.661   3.870
 5153W        W73516   7.754  38.983  11.008
 5154W        W73517  27.053  21.255   0.445
 5155W        W73518  35.964   7.900   2.703
 5156W        W73519  28.623  38.952  14.984
 5157W        W73520  17.179  19.767  11.535
 5158W        W73521   5.914   2.734   4.695
 5159W        W73522  43.438  34.105  13.387
 5160W        W73523  32.926  36.915  10.942
 5161W        W73524  42.296  42.491   4.289
 5162W        W73525  17.753  10.781  12.003
 5163W        W73526  17.260  44.501   4.804
 5164W        W73527  23.564  30.086  10.642
 5165W        W73528  31.135  40.880   3.200
 5166W        W73529  40.429  28.568  10.476
 5167W        W73530  25.642   9.307  14.433
 5168W        W73531  44.921  11.147   3.750
 5169W        W73532  23.716  12.250  14.913
 5170W        W73533  17.077  30.467   3.286
 5171W        W73534  29.447  21.550   0.912
 5172W        W73535  24.015   0.912   2.225
 5173W        W73536  18.687   3.341   2.418
 5174W        W73537   9.865   2.895   3.228
 5175W        W73538  36.450  23.734  11.534
 5176W        W73539  44.893  31.519   1.365
 5177W        W73540   1.891  41.313   1.843
 5178W        W73541  28.104  17.781  13.034
 5179W        W73542  39.414  32.586  10.625
 5180W        W73543  30.069  23.053   4.230
 5181W        W73544  14.765  37.053  14.969
 5182W        W73545  27.492  39.030   0.805
 5183W        W73546  17.768  27.450   4.273
 5184W        W73547  36.421  29.469   2.346
 5185W        W73548  27.615  13.286   9.485
 5186W        W73549  10.671  37.537  11.858
 5187W        W73550  32.630  30.963   4.633
 5188W        W73551  44.987  35.986   2.839
 5189W        W73552  23.678  18.182  11.093
 5190W        W73553  32.439  42.507  13.959
 5191W        W73554  15.178  31.617   0.436
 5192W        W73555  39.808   8.300  11.478
 5193W        W73556   0.884  17.236  10.414
 5194W        W73557  14.293  16.155  12.424
 5195W        W73558   9.709  24.618   4.837
 5196W        W73559  28.045  36.563   2.212
 5197W        W73560   3.939  19.175  10.543
 5198W        W73561  38.407  21.701  12.578
 5199W        W73562  36.390  31.639   1.825
 5200W        W73563   3.318  18.157  12.447
 5201W        W73564  11.848  35.464   3.210
 5202W        W73565   3.935  12.674  10.084
 5203W        W73566  43.835  28.557  10.640
 5204W        W73567  35.024  39.916  14.917
 5205W        W73568  12.137  32.570  11.933
 5206W        W73569  35.971  13.742   1.406
 5207W        W73570   7.858   7.811   4.688
 5208W        W73571  35.898   1.344   1.927
 5209W        W73572  28.983   1.308  12.353
 5210W        W73573  22.607  21.048  13.049
 5211W        W73574  32.912   5.368  11.971
 5212W        W73575  12.675  33.898  10.484
 5213W        W73576  30.072   0.780   0.304
 5214W        W73577  39.425  16.283   3.802
 5215W        W73578  14.827  22.672   2.730
 5216W        W73579  24.635  25.486  13.403
 5217W        W73580  32.046  14.191  10.987
 5218W        W73581  42.333   3.281   0.733
 5219W        W73582  15.815  30.974   2.290
 5220W        W73583  11.332  22.114   4.721
 5221W        W73584   6.742   4.886  10.518
 5222W        W73585   3.349  31.967  12.357
 5223W        W73586  42.004   0.404   1.771
 5224W        W73587  34.437   5.192  12.480
 5225W        W73588  36.546  30.438  14.866
 5226W        W73589  29.988  43.439   3.185
 5227W        W73590  44.796  34.954  10.408
 5228W        W73591  23.662   0.316  12.440
 5229W        W73592  32.526  43.905   5.717
 5230W        W73593  24.566  20.525  14.479
 5231W        W73594  33.568   6.810   2.665
 5232W        W73595  34.388  14.760   1.710
 5233W        W73596  14.722   2.823   0.345
 5234W        W73597   7.174  34.530   4.654
 5235W        W73598  41.433  11.255   1.270
 5236W        W73599  35.930  36.976   2.894
 5237W        W73600  23.107  25.575  12.437
 5238W        W73601  43.345  13.745  13.998
 5239W        W73602  43.850  25.500   3.183
 5240W        W73603  17.119   8.700  12.899
 5241W        W73604  34.018  37.999  12.862
 5242W        W73605  29.127   9.192   2.193
 5243W        W73606  26.994  11.238  14.937
 5244W        W73607  37.935  12.741   4.652
 5245W        W73608  13.142  35.451   2.841
 5246W        W73609  17.301  10.828  12.541
 5247W        W73610  33.515   4.846  14.782
 5248W        W73611  19.563  17.211  14.377
 5249W        W73612  11.297  28.977  11.104
 5250W        W73613  24.592  36.901  12.532
 5251W        W73614   5.928  23.125   0.908
 5252W        W73615   7.868  36.063  14.853
 5253W        W73616   1.371   0.435  11.566
 5254W        W73617  43.437  41.907  10.446
 5255W        W73618  39.392  22.178   3.274
 5256W        W73619  12.731  24.565  11.526
 5257W        W73620  42.527   8.268  11.545
 5258W        W73621  38.510  34.424   2.738
 5259W        W73622  18.238  24.702   3.195
 5260W        W73623  15.625  44.321  13.837
 5261W        W73624  31.035  42.475  10.984
 5262W        W73625  29.967  14.309  12.888
 5263W        W73626  21.105   2.919  10.501
 5264W        W73627  18.240  27.152   3.333
 5265W        W73628   0.918  43.295   0.809
 5266W        W73629  31.552  18.598   2.696
 5267W        W73630  10.163  30.438  10.120
 5268W        W73631  39.054  29.146  10.010
 5269W        W73632  41.446   1.362   3.857
 5270W        W73633  33.417  40.826  12.949
 5271W        W73634  15.159  10.731  10.950
 5272W        W73635  38.856  23.568  11.964
 5273W        W73636  23.171  39.940   2.285
 5274W        W73637  32.075   6.886  13.327
 5275W        W73638  43.994  21.235  13.918
 5276W        W73639  10.153   5.438  11.566
 5277W        W73640  26.480  43.905  11.534
 5278W        W73641  30.500   1.313  11.125
 5279W        W73642   6.888  29.081   4.831
 5280W        W73643  19.168   8.756  11.583
 5281W        W73644  22.153  42.494   4.186
 5282W        W73645  38.838   7.182  10.450
 5283W        W73646   6.372   4.206  13.440
 5284W        W73647  10.836  41.917  11.468
 5285W        W73648   5.726  40.026  11.468
 5286W        W73649  15.799  21.736  14.482
 5287W        W73650   1.334  34.505   3.752
 5288W        W73651  40.373  41.431   0.377
 5289W        W73652  19.226  28.048  14.780
 5290W        W73653  20.274  25.544   1.730
 5291W        W73654  44.505   5.377   0.849
 5292W        W73655  44.895  31.052  13.353
 5293W        W73656  44.471  37.501  11.408
 5294W        W73657  19.277  30.538   2.705
 5295W        W73658  26.623  42.501   4.770
 5296W        W73659  29.972  34.551   2.231
 5297W        W73660  37.487   5.819   9.991
 5298W        W73661   1.911  28.133  13.983
 5299W        W73662   9.788  29.547   4.159
 5300W        W73663  26.597  43.310   1.316
 5301W        W73664  37.445  19.264   1.427
 5302W        W73665  26.160  22.045  11.422
 5303W        W73666  24.721  35.066   4.318
 5304W        W73667   4.217  24.116   4.186
 5305W        W73668  30.909  16.684  10.640
 5306W        W73669  29.427   2.763  10.585
 5307W        W73670  37.012  41.935   3.215
 5308W        W73671  44.401  35.550   9.939
 5309W        W73672  32.899  32.511   2.251
 5310W        W73673   7.294  38.502  14.288
 5311W        W73674  22.231  44.960  13.032
 5312W        W73675  43.915  31.502  13.539
 5313W        W73676  40.962  35.041   1.212
 5314W        W73677  34.918   0.340  11.918
 5315W        W73678   2.866  18.087   1.889
 5316W        W73679  13.287  26.530  13.379
 5317W        W73680  29.483   9.150  13.891
 5318W        W73681  30.034  41.349   0.845
 5319W        W73682   7.296  38.022  14.895
 5320W        W73683   2.398  15.798   5.149
 5321W        W73684  27.108  30.136  14.414
 5322W        W73685  12.773  18.193   0.277
 5323W        W73686  14.657  40.547   0.806
 5324W        W73687   7.383  26.480   4.203
 5325W        W73688  33.567  22.720  13.444
 5326W        W73689  15.794  39.843   3.187
 5327W        W73690  21.221   8.861  14.427
 5328W        W73691   6.826  32.119   3.865
 5329W        W73692  35.971  22.633   0.284
 5330W        W73693  39.843  17.627   1.406
 5331W        W73694  29.056  20.752   1.820
 5332W        W73695   8.337  34.575   0.823
 5333W        W73696  38.331  12.823   5.321
 5334W        W73697  34.932   4.379  12.024
 5335W        W73698  26.991  39.522  13.026
 5336W        W73699  27.541   6.791   1.405
 5337W        W73700  29.055  17.730  13.858
 5338W        W73701  34.545   8.167   4.142
 5339W        W73702  32.029  35.568  11.377
 5340W        W73703  28.156  44.907  14.819
 5341W        W73704  11.352   6.680   1.809
 5342W        W73705  16.205  33.506  13.536
 5343W        W73706  17.698  38.821  11.921
 5344W        W73707  15.251  32.142   1.859
 5345W        W73708   9.774  17.720  13.938
 5346W        W73709  21.229  16.669   4.210
 5347W        W73710  17.740  17.676   9.584
 5348W        W73711  38.906  11.682   4.249
 5349W        W73712  40.529  11.236  11.388
 5350W        W73713   4.765   9.226   1.359
 5351W        W73714  34.382  40.365   3.723
 5352W        W73715  16.233  22.584   2.186
 5353W        W73716  23.988  25.601   4.628
 5354W        W73717  11.187  10.238  12.576
 5355W        W73718  31.457   4.319  13.930
 5356W        W73719  27.128  29.449   9.977
 5357W        W73720  15.247  33.613   1.264
 5358W        W73721  18.769  29.655  11.552
 5359W        W73722   5.338  29.014   1.720
 5360W        W73723  16.655  38.417  10.630
 5361W        W73724  33.385  25.150  10.544
 5362W        W73725   7.356  25.056   3.805
 5363W        W73726   9.879   6.831   4.264
 5364W        W73727  21.100  13.790  12.376
 5365W        W73728  32.044  23.574   2.325
 5366W        W73729   8.372  38.047   4.136
 5367W        W73730  15.083  37.373   2.380
 5368W        W73731  19.055  25.634   4.115
 5369W        W73732  17.785  21.229   0.922
 5370W        W73733  30.026   5.768   2.192
 5371W        W73734  22.559  39.974   0.428
 5372W        W73735   1.867  30.111   3.312
 5373W        W73736  42.362  27.588  12.960
 5374W        W73737  25.009  10.839   1.213
 5375W        W73738  12.279  44.763  12.060
 5376W        W73739  31.404  13.779   2.209
 5377W        W73740   3.279  24.059   1.226
 5378W        W73741  43.015  12.805   3.160
 5379W        W73742   7.353  40.992   2.730
 5380W        W73743  41.373  13.175  11.589
 5381W        W73744   9.779   2.744  12.572
 5382W        W73745  42.445  41.913  10.424
 5383W        W73746  42.525  15.645   1.309
 5384W        W73747   7.226   8.670   4.346
 5385W        W73748  15.191  31.914  11.900
 5386W        W73749   1.407   8.861  11.915
 5387W        W73750  21.174  30.981   2.398
 5388W        W73751  11.768   7.366   0.765
 5389W        W73752   8.764  14.684  11.979
 5390W        W73753  22.741  44.299  10.522
 5391W        W73754  14.790   7.723   4.133
 5392W        W73755  28.543   0.280   4.176
 5393W        W73756   7.898   7.707  10.452
 5394W        W73757  21.619   2.291  14.032
 5395W        W73758  44.481  31.555  11.008
 5396W        W73759  38.026  33.406   3.316
 5397W        W73760  18.603  37.937   2.753
 5398W        W73761  39.463  31.450  11.879
 5399W        W73762  14.800  43.314   2.808
 5400W        W73763   6.796  36.456  11.942
 5401W        W73764   5.923   4.944  14.383
 5402W        W73765  24.188  26.016   3.786
 5403W        W73766  14.698  21.527  10.592
 5404W        W73767   3.801  38.341   3.764
 5405W        W73768  43.769  30.979  14.435
 5406W        W73769  21.072  16.710  10.410
 5407W        W73770  40.952  33.386  13.373
 5408W        W73771  38.824  31.594  13.924
 5409W        W73772  23.996   9.361   4.242
 5410W        W73773   9.256  13.702   3.773
 5411W        W73774  29.631  42.898  14.005
 5412W        W73775  34.584  41.502  10.567
 5413W        W73776  26.167  24.188  10.945
 5414W        W73777   1.786  18.262  14.390
 5415W        W73778  27.980   9.883  12.563
 5416W        W73779  26.597  27.176   0.726
 5417W        W73780  12.203  36.461  11.870
 5418W        W73781   4.209  32.545   3.354
 5419W        W73782  33.542  29.127  11.126
 5420W        W73783  34.905  31.515  14.485
 5421W        W73784   3.429  10.674  14.411
 5422W        W73785  30.561  34.491  13.837
 5423W        W73786  10.643   4.225  12.433
 5424W        W73787  23.724  42.468  12.029
 5425W        W73788   6.763  20.655  12.908
 5426W        W73789   3.948  23.019   5.181
 5427W        W73790  27.493  28.953  14.318
 5428W        W73791   0.898  29.164  13.946
 5429W        W73792  38.567  39.808  10.549
 5430W        W73793  33.929  34.095   1.819
 5431W        W73794  44.453  35.433   0.401
 5432W        W73795  16.598  17.746  12.004
 5433W        W73796  30.998   1.443  12.564
 5434W        W73797  35.436  25.994  10.977
 5435W        W73798   5.230  20.532  12.370
 5436W        W73799  16.251  20.678   0.816
 5437W        W73800   9.378   7.886  11.425
 5438W        W73801   8.236  41.974  12.959
 5439W        W73802  29.616   4.794  13.063
 5440W        W73803  33.380   0.954   2.713
 5441W        W73804   7.738   3.326   3.693
 5442W        W73805  22.574  34.954  11.380
 5443W        W73806  17.086  22.675  13.837
 5444W        W73807  25.701  44.375  14.813
 5445W        W73808  17.171  35.517  10.568
 5446W        W73809  32.046  18.052   2.241
 5447W        W73810   4.848  39.339  10.159
 5448W        W73811  35.982  32.086  14.766
 5449W        W73812  10.790  21.720  11.025
 5450W        W73813  32.073  38.378   0.965
 5451W        W73814  22.516   7.331  13.481
 5452W        W73815   4.776  34.464   4.814
 5453W        W73816  22.233  15.675  12.935
 5454W        W73817  38.493  43.990  12.943
 5455W        W73818  37.544  27.546  14.364
 5456W        W73819  18.617  42.295   4.672
 5457W        W73820  26.557   2.453   2.303
 5458W        W73821  29.628  28.574  13.959
 5459W        W73822   9.679  43.898   3.261
 5460W        W73823   4.734  17.207   2.285
 5461W        W73824  17.277  23.594   3.227
 5462W        W73825   4.820  13.681  10.437
 5463W        W73826   1.836  35.597   2.391
 5464W        W73827  18.750  16.673   0.273
 5465W        W73828  22.525  22.016  11.002
 5466W        W73829  24.675  26.020   1.893
 5467W        W73830  11.648  32.398   2.307
 5468W        W73831  23.572   9.299  11.936
 5469W        W73832  18.669  34.559   0.813
 5470W        W73833  16.249  13.736   1.443
 5471W        W73834  39.354  18.178   4.181
 5472W        W73835  17.596  11.860   3.756
 5473W        W73836  24.502  29.002  14.512
 5474W        W73837  11.202  18.599  11.544
 5475W        W73838  20.036  32.130   4.820
 5476W        W73839  42.399  21.692   4.173
 5477W        W73840  21.209  30.442   4.308
 5478W        W73841  32.009  16.787  14.978
 5479W        W73842  37.041  18.749  13.048
 5480W        W73843   5.197  31.107  10.616
 5481W        W73844  36.374  37.347   5.309
 5482W        W73845  34.011  13.621  11.083
 5483W        W73846   4.281  42.891  12.447
 5484W        W73847  43.869   7.369  13.040
 5485W        W73848  13.762  23.703   1.887
 5486W        W73849   8.747  13.204  12.367
 5487W        W73850  24.629  40.964  13.350
 5488W        W73851  17.157  43.357  11.124
 5489W        W73852  38.511   0.984  10.591
 5490W        W73853  32.466  39.985   2.213
 5491W        W73854  39.040  41.462   0.290
 5492W        W73855  43.972  40.999   4.651
 5493W        W73856  18.280  18.215  13.367
 5494W        W73857   5.823  12.303   0.886
 5495W        W73858   0.787  32.885   2.865
 5496W        W73859  33.602  26.006   3.261
 5497W        W73860   9.287  34.941  11.040
 5498W        W73861   3.277   7.667   2.856
 5499W        W73862   2.813  21.638   2.883
 5500W        W73863  11.719  43.790  13.022
 5501W        W73864  14.191  32.409   2.717
 5502W        W73865   6.355   5.326  12.845
 5503W        W73866  21.676   5.832   0.927
 5504W        W73867   9.354  31.494   0.851
 5505W        W73868  12.190  23.509  14.464
 5506W        W73869  40.821   8.198   4.212
 5507W        W73870  18.101  41.297  13.448
 5508W        W73871   0.889  10.653   4.238
 5509W        W73872  42.969  44.499  12.052
 5510W        W73873  26.204   6.847  14.277
 5511W        W73874  43.906  18.216  11.038
 5512W        W73875  25.472  40.378  11.395
 5513W        W73876  30.111  23.087   1.837
 5514W        W73877  40.038  31.563  12.829
 5515W        W73878  26.696  15.685  11.989
 5516W        W73879  25.615  31.428   1.377
 5517W        W73880  37.380   7.244   2.317
 5518W        W73881  32.613  35.994   3.666
 5519W        W73882   8.889  21.598  12.559
 5520W        W73883  44.427  42.015   2.351
 5521W        W73884   1.901  34.520   1.852
 5522W        W73885  14.193  35.045  13.852
 5523W        W73886  38.973  19.127   3.829
 5524W        W73887  11.310  16.118   1.824
 5525W        W73888   8.160  24.512  11.084
 5526W        W73889  23.694  37.067   3.632
 5527W        W73890  41.516  29.494   1.421
 5528W        W73891  12.278  10.739   0.434
 5529W        W73892  11.270  42.886   4.172
 5530W        W73893   5.239  20.152  10.976
 5531W        W73894  28.639  36.523   3.340
 5532W        W73895  20.624   1.242  12.872
 5533W        W73896  36.589  12.713   0.949
 5534W        W73897  35.358   3.837   3.210
 5535W        W73898  19.739  39.522  12.389
 5536W        W73899  17.255  40.899  14.977
 5537W        W73900  40.952  15.650   1.906
 5538W        W73901  15.771  23.109   2.179
 5539W        W73902   4.764  39.958  13.006
 5540W        W73903  39.328  22.643   4.702
 5541W        W73904  31.936   5.355   4.758
 5542W        W73905  33.892  34.076  14.828
 5543W        W73906   9.206  24.610   3.700
 5544W        W73907   0.923  31.942  11.585
 5545W        W73908  38.892  10.852   2.732
 5546W        W73909   2.721  35.432   2.753
 5547W        W73910   9.772  31.908  14.379
 5548W        W73911  41.947   6.383   4.217
 5549W        W73912   3.778  31.487   4.164
 5550W        W73913   6.738  41.402  14.931
 5551W        W73914  27.115  30.021   3.836
 5552W        W73915   7.669  12.821   9.970
 5553W        W73916  36.458  19.537   5.213
 5554W        W73917   7.220   1.777   3.362
 5555W        W73918   6.317  24.001   4.803
 5556W        W73919   7.805   9.707   1.281
 5557W        W73920  35.052  22.097   1.367
 5558W        W73921  13.708  15.278   4.311
 5559W        W73922  33.949  22.162  12.947
 5560W        W73923   7.362   0.967   4.310
 5561W        W73924  14.748  17.557   3.868
 5562W        W73925  10.724  13.137  14.368
 5563W        W73926  25.194  29.491  14.423
 5564W        W73927   6.897  23.151   4.786
 5565W        W73928  41.400  26.620   4.721
 5566W        W73929  37.069  30.561   1.341
 5567W        W73930  21.611  41.371   2.736
 5568W        W73931  41.826  43.364   1.759
 5569W        W73932  31.551   3.905   1.748
 5570W        W73933  20.112  39.008   1.360
 5571W        W73934  19.276  18.702   4.204
 5572W        W73935  36.473  26.060   0.842
 5573W        W73936   5.388   6.299  14.502
 5574W        W73937  43.787   5.695  11.484
 5575W        W73938  33.018  36.041   4.127
 5576W        W73939  34.907  24.544   2.852
 5577W        W73940   5.931  44.391  14.497
 5578W        W73941  41.933   6.358   0.330
 5579W        W73942  18.692  19.597  11.031
 5580W        W73943  44.996   6.853  14.432
 5581W        W73944  19.563  41.975  10.541
 5582W        W73945  13.128  40.381   1.443
 5583W        W73946  36.451   8.706   3.317
 5584W        W73947  29.981  18.154   4.727
 5585W        W73948  24.107   0.769  13.353
 5586W        W73949  19.280  38.009   3.814
 5587W        W73950  17.269  17.608   3.302
 5588W        W73951  21.730  35.602   1.363
 5589W        W73952  24.544  28.956  13.317
 5590W        W73953  10.384  14.160  11.942
 5591W        W73954  21.106  13.731  11.525
 5592W        W73955  12.799   3.423  14.906
 5593W        W73956  42.415  24.548  10.642
 5594W        W73957  26.621  28.137   0.803
 5595W        W73958  32.030  16.644   2.342
 5596W        W73959  37.521   0.274   3.828
 5597W        W73960   1.294  15.633  13.052
 5598W        W73961  37.993  39.382  13.473
 5599W        W73962  35.496  43.498  14.763
 5600W        W73963  26.611  19.574   3.357
 5601W        W73964  44.413  40.048  10.600
 5602W        W73965  17.754  43.873  14.895
 5603W        W73966  16.137  11.864  14.886
 5604W        W73967  36.909  11.159   4.268
 5605W        W73968  17.233  36.038   0.249
 5606W        W73969   0.290  27.569  10.915
 5607W        W73970  29.529   9.284   0.873
 5608W        W73971  25.588  12.249   1.766
 5609W        W73972  26.609  22.575  10.610
 5610W        W73973   7.373  18.266   2.237
 5611W        W73974  10.698   6.304   2.395
 5612W        W73975  42.377  32.123   1.240
 5613W        W73976   9.242  13.661  14.393
 5614W        W73977   6.207  12.204   3.683
 5615W        W73978  16.635  29.453  14.808
 5616W        W73979  24.699  40.983  10.933
 5617W        W73980   7.311  26.602  11.582
 5618W        W73981  13.635   0.755   4.711
 5619W        W73982  15.820  35.884   2.360
 5620W        W73983  41.913  16.151   2.191
 5621W        W73984  32.039   2.851   1.772
 5622W        W73985  19.668  17.753   0.920
 5623W        W73986   9.288  16.137   1.211
 5624W        W73987   6.258  36.586  10.408
 5625W        W73988   5.380  28.672  14.800
 5626W        W73989  23.123  39.393   2.796
 5627W        W73990   4.450  33.415  13.054
 5628W        W73991  36.904  36.487  11.581
 5629W        W73992  16.243  20.639   3.718
 5630W        W73993  11.203   6.210   3.862
 5631W        W73994  15.754  38.847   1.713
 5632W        W73995  25.193   5.426   1.743
 5633W        W73996  42.482  19.067   3.197
 5634W        W73997   5.248   3.420  10.922
 5635W        W73998  23.241  24.091  10.905
 5636W        W73999  11.747   0.406  11.604
 5637W        W74000  18.051  31.029   4.265
 5638W        W74001  38.511  37.433   5.196
 5639W        W74002  23.032  12.638  13.498
 5640W        W74003  26.038  31.978  14.787
 5641W        W74004  12.658   0.874   2.721
 5642W        W74005   2.361  24.565   3.811
 5643W        W74006  11.288  35.993   2.412
 5644W        W74007  28.586  43.956   4.804
 5645W        W74008  36.498  39.538  12.480
 5646W        W74009  18.758  40.392  14.004
 5647W        W74010  16.180  11.769   4.335
 5648W        W74011  12.327  42.836  12.570
 5649W        W74012  38.038   0.302   0.904
 5650W        W74013   0.252  39.889   0.921
 5651W        W74014  43.816   9.736  11.039
 5652W        W74015   2.464  40.949  12.957
 5653W        W74016  37.914  39.334  10.519
 5654W        W74017  22.595  12.711   0.927
 5655W        W74018  38.523  36.871  13.978
 5656W        W74019  10.779  40.042   3.865
 5657W        W74020  37.964  27.476  12.493
 5658W        W74021  30.050  43.958  10.618
 5659W        W74022  25.542  43.975   0.337
 5660W        W74023  17.228  37.864  12.047
 5661W        W74024  18.269  32.461  13.448
 5662W        W74025  43.769  39.392   0.364
 5663W        W74026  37.030  33.934  13.861
 5664W        W74027  18.724   6.767  14.398
 5665W        W74028  34.378  24.162   2.354
 5666W        W74029  41.535  13.690   2.294
 5667W        W74030  14.118   7.907   1.704
 5668W        W74031  14.652  18.738   3.323
 5669W        W74032  34.973   7.286   5.235
 5670W        W74033  26.199  30.439  11.973
 5671W        W74034  24.053   6.251   4.629
 5672W        W74035  26.568  12.789  13.810
 5673W        W74036  41.360   6.853   4.712
 5674W        W74037  33.501  12.233  13.939
 5675W        W74038   2.818  32.405  10.941
 5676W        W74039  14.655  12.702  11.930
 5677W        W74040  40.817  43.389   2.193
 5678W        W74041  15.141  10.798  13.821
 5679W        W74042   5.343  39.413  11.457
 5680W        W74043  41.024  33.062   0.819
 5681W        W74044  11.834  29.459   3.813
 5682W        W74045  10.263  25.154   0.391
 5683W        W74046   3.268  35.405   4.274
 5684W        W74047   4.274  32.553  12.016
 5685W        W74048   8.715   4.798  14.784
 5686W        W74049  32.128  20.533   0.910
 5687W        W74050  33.507  36.356  10.453
 5688W        W74051  20.194   1.926  12.972
 5689W        W74052   3.278  18.765  13.875
 5690W        W74053  28.635  16.084  12.411
 5691W        W74054  42.954  16.177   4.225
 5692W        W74055   2.756  10.321   3.672
 5693W        W74056  41.866  44.495   1.763
 5694W        W74057  30.436  23.531  14.935
 5695W        W74058   9.220  13.226  11.085
 5696W        W74059  34.398  22.644  13.969
 5697W        W74060  14.117   5.365   0.824
 5698W        W74061  10.841  36.939  10.566
 5699W        W74062   8.286  15.743  12.349
 5700W        W74063  18.739  40.467  10.641
 5701W        W74064   3.862   1.333  11.948
 5702W        W74065  29.476  24.979  11.042
 5703W        W74066  42.329  12.236  12.512
 5704W        W74067   4.794   4.332  14.352
 5705W        W74068  27.642  24.136   3.732
 5706W        W74069  41.952  25.547   3.660
 5707W        W74070   5.832  10.264   3.362
 5708W        W74071  23.230  19.643  11.040
 5709W        W74072  29.443  19.068   2.210
 5710W        W74073   4.739  36.483  13.794
 5711W        W74074  30.654  36.961  10.447
 5712W        W74075  33.977  12.270   0.911
 5713W        W74076  28.567  32.983   1.279
 5714W        W74077  13.700   3.307   0.963
 5715W        W74078  35.930  24.225  12.852
 5716W        W74079   3.852  31.488  13.930
 5717W        W74080  44.462  23.712   1.401
 5718W        W74081  31.479  39.341  11.491
 5719W        W74082   1.429  19.749  12.403
 5720W        W74083  14.283  39.049  11.033
 5721W        W74084  37.885  15.769   3.255
 5722W        W74085  15.116  42.928   3.659
 5723W        W74086  20.146  36.491  11.422
 5724W        W74087  37.869  20.261   4.170
 5725W        W74088  21.717  34.393  11.576
 5726W        W74089   3.748  29.654  10.596
 5727W        W74090   4.856  22.155   5.124
 5728W        W74091  24.678   1.786   0.838
 5729W        W74092  32.889  12.262   1.404
 5730W        W74093  39.519  37.409  13.318
 5731W        W74094  39.897  17.104  11.403
 5732W        W74095  31.071   2.343  12.030
 5733W        W74096  40.863   6.892   0.336
 5734W        W74097   8.288  17.556  14.961
 5735W        W74098   9.268  44.284   3.847
 5736W        W74099   1.459  18.279   3.331
 5737W        W74100  18.255  34.056   4.273
 5738W        W74101   0.868  35.483  12.967
 5739W        W74102   8.314   7.737  13.827
 5740W        W74103  41.301  11.351  12.898
 5741W        W74104  14.728  27.516  10.482
 5742W        W74105   5.720  32.397   4.826
 5743W        W74106  11.656   9.159  10.631
 5744W        W74107  38.854  33.066  13.356
 5745W        W74108  19.122  27.035  14.896
 5746W        W74109  35.603  17.571   3.819
 5747W        W74110  29.467  27.493   3.834
 5748W        W74111  18.275  20.748  12.048
 5749W        W74112   5.898   8.684   0.340
 5750W        W74113  23.039  10.704  14.360
 5751W        W74114  41.926  21.569  10.584
 5752W        W74115  29.668  27.542   2.380
 5753W        W74116  32.439  22.583   1.296
 5754W        W74117  19.628  40.492   3.366
 5755W        W74118   1.940  16.605   2.378
 5756W        W74119   4.770  15.145  14.948
 5757W        W74120  41.804   3.752   0.298
 5758W        W74121   3.269  14.702   4.790
 5759W        W74122  43.335  41.811   2.262
 5760W        W74123  14.239  36.513   5.141
 5761W        W74124  15.824  42.317   0.917
 5762W        W74125   7.708  23.497  11.919
 5763W        W74126  17.705  22.540   3.281
 5764W        W74127  42.937  35.048   0.940
 5765W        W74128  30.971  18.778   5.252
 5766W        W74129   2.309  11.794   9.962
 5767W        W74130  36.959  30.940   4.190
 5768W        W74131  22.233   4.434  10.989
 5769W        W74132  41.966  42.882  10.632
 5770W        W74133  20.662   7.713  14.405
 5771W        W74134  34.067  29.650   4.662
 5772W        W74135  39.340  13.778   0.787
 5773W        W74136  40.337  24.116  10.005
 5774W        W74137  36.520  39.912  11.957
 5775W        W74138  25.050  12.814  14.327
 5776W        W74139   0.436  13.211   1.790
 5777W        W74140  10.343   2.937  11.472
 5778W        W74141  27.131  16.712   5.754
 5779W        W74142  26.568  13.330  14.314
 5780W        W74143  37.506  44.261  14.327
 5781W        W74144  32.477  22.741  11.973
 5782W        W74145  25.972   0.951  13.919
 5783W        W74146  14.736  35.407  13.533
 5784W        W74147  40.005  11.365   3.185
 5785W        W74148  18.630   4.840   3.810
 5786W        W74149   6.397  36.930  12.495
 5787W        W74150  36.073  36.390  13.547
 5788W        W74151  38.538  37.987   4.642
 5789W        W74152  17.710  26.685  11.970
 5790W        W74153  22.097   6.342   4.732
 5791W        W74154  11.769  19.108  14.313
 5792W        W74155  40.474  15.749   3.807
 5793W        W74156   7.843  17.251   1.742
 5794W        W74157  30.500   6.331  12.898
 5795W        W74158  36.060   4.725   4.825
 5796W        W74159  31.419  43.513   1.261
 5797W        W74160  19.209  43.769  10.501
 5798W        W74161  26.472  29.441  10.428
 5799W        W74162   4.278  40.020  13.369
 5800W        W74163   7.803  12.193   3.645
 5801W        W74164  43.469  12.309   3.803
 5802W        W74165  11.151  42.372   1.928
 5803W        W74166  13.151  34.931  13.939
 5804W        W74167  10.637  25.986  14.951
 5805W        W74168  43.984  43.290   1.424
 5806W        W74169  40.511   7.347   1.839
 5807W        W74170  14.256   1.306   4.657
 5808W        W74171  22.677   4.699  12.041
 5809W        W74172   7.388  31.411  14.978
 5810W        W74173  26.534  42.971  14.781
 5811W        W74174  39.519  20.257   4.221
 5812W        W74175  29.575  31.445   2.201
 5813W        W74176   6.881   9.703   2.349
 5814W        W74177  13.316   1.737  10.123
 5815W        W74178  31.908   9.728   0.346
 5816W        W74179  36.562  11.299   0.751
 5817W        W74180  21.093  33.622   3.365
 5818W        W74181  28.012  34.897   3.378
 5819W        W74182  12.744   3.352   0.730
 5820W        W74183  18.620  11.768   1.232
 5821W        W74184  35.910  26.090  10.990
 5822W        W74185  30.594  21.519   2.332
 5823W        W74186  21.754   3.920   3.344
 5824W        W74187   5.745  39.885  12.437
 5825W        W74188  44.906   4.815   3.289
 5826W        W74189  10.836  17.301   1.228
 5827W        W74190  18.102   2.280   0.830
 5828W        W74191   3.389  13.121  14.805
 5829W        W74192  16.304   2.781  13.891
 5830W        W74193  40.470  16.139   4.214
 5831W        W74194  14.737  20.040  10.913
 5832W        W74195  20.581  21.683   3.851
 5833W        W74196  22.616   7.786  14.422
 5834W        W74197   6.877  10.362   4.235
 5835W        W74198  43.007   3.878  12.576
 5836W        W74199   1.394  15.636  14.017
 5837W        W74200  44.259   5.813   0.385
 5838W        W74201  25.068  33.100  10.432
 5839W        W74202  41.528   0.329  13.939
 5840W        W74203  27.027  40.811   0.451
 5841W        W74204  18.704   8.706   1.431
 5842W        W74205  40.383  32.577   3.161
 5843W        W74206  26.965  37.072  12.439
 5844W        W74207  18.122  41.003   3.841
 5845W        W74208  38.820  11.703   2.238
 5846W        W74209  15.188   6.250  12.883
 5847W        W74210  31.000  17.129   1.330
 5848W        W74211  18.728   8.797  11.084
 5849W        W74212   3.805   2.349   4.817
 5850W        W74213  21.162  29.097  11.010
 5851W        W74214  42.336  44.008  14.897
 5852W        W74215   9.824  11.796   3.325
 5853W        W74216  39.815   2.363  11.409
 5854W        W74217   3.835  34.030  10.438
 5855W        W74218  13.680  32.024  11.387
 5856W        W74219  44.907  40.877  12.474
 5857W        W74220   5.245  27.128  14.366
 5858W        W74221   0.859  39.028  11.434
 5859W        W74222  23.158  35.577  13.326
 5860W        W74223  38.950  10.148  14.849
 5861W        W74224  36.399   8.210  12.560
 5862W        W74225   0.928  39.459  14.782
 5863W        W74226  19.242   2.355   1.299
 5864W        W74227  42.885  30.427  13.433
 5865W        W74228  43.500  30.476   4.117
 5866W        W74229  15.601  40.910   1.299
 5867W        W74230  39.990  17.206   3.809
 5868W        W74231  22.179  14.700   2.254
 5869W        W74232   7.803   3.310  11.499
 5870W        W74233  22.221  43.964  13.476
 5871W        W74234  11.155  37.049  14.360
 5872W        W74235  37.948  34.031  12.577
 5873W        W74236  36.861   5.750   4.700
 5874W        W74237  30.915  35.097   3.153
 5875W        W74238  24.709  44.306   2.751
 5876W        W74239  10.836   4.397  10.449
 5877W        W74240  24.004  20.246  14.972
 5878W        W74241   2.232  28.620   4.815
 5879W        W74242  12.288   4.214   0.379
 5880W        W74243  27.662  21.722  14.820
 5881W        W74244   2.947  25.089  11.389
 5882W        W74245  22.221  26.495   4.300
 5883W        W74246  38.830  12.223  10.454
 5884W        W74247  27.039  30.976   2.283
 5885W        W74248  35.929  11.328  10.932
 5886W        W74249  16.651  20.064   3.752
 5887W        W74250  17.204  10.141  11.045
 5888W        W74251  11.650  42.889  14.303
 5889W        W74252  14.710  30.103  12.872
 5890W        W74253  23.709  33.520   2.401
 5891W        W74254  16.178   3.732   5.741
 5892W        W74255  39.430   1.972   0.751
 5893W        W74256  29.035   1.434  13.463
 5894W        W74257   2.757   1.449   2.795
 5895W        W74258  14.238  34.568  13.407
 5896W        W74259  26.101   5.735   0.778
 5897W        W74260  26.132  18.574  10.959
 5898W        W74261   9.162  25.998  11.954
 5899W        W74262  12.809  36.988   1.919
 5900W        W74263  32.013   4.261  13.457
 5901W        W74264   0.960  36.864  14.858
 5902W        W74265  13.324  30.599   0.737
 5903W        W74266   9.778  24.040  13.444
 5904W        W74267  17.623  26.485  14.430
 5905W        W74268  30.914  18.556  12.362
 5906W        W74269  27.605  29.502  13.527
 5907W        W74270  27.630  26.072   4.233
 5908W        W74271  26.990  15.668   2.820
 5909W        W74272  36.534   2.230   2.811
 5910W        W74273  24.039  30.571   0.422
 5911W        W74274  13.755  13.724   1.381
 5912W        W74275  14.829   8.336   1.804
 5913W        W74276  44.429  41.418  11.987
 5914W        W74277  40.828  15.270  13.806
 5915W        W74278   5.869   4.314  10.992
 5916W        W74279   1.246  40.482  11.423
 5917W        W74280  36.500  44.981  11.462
 5918W        W74281  24.672  11.287   0.263
 5919W        W74282   8.345  32.534   3.210
 5920W        W74283  25.692  43.838   1.353
 5921W        W74284   7.696  15.134  14.773
 5922W        W74285  16.601   3.346  14.842
 5923W        W74286  29.494   9.654  13.905
 5924W        W74287  13.191   1.461  11.011
 5925W        W74288  39.547  36.856   2.193
 5926W        W74289  40.909  35.557  11.395
 5927W        W74290   6.826  30.529   4.730
 5928W        W74291  32.927  26.087  14.300
 5929W        W74292  41.859  23.509  10.450
 5930W        W74293   1.303  30.638  10.419
 5931W        W74294  15.298  44.992   3.324
 5932W        W74295  12.676   4.226  10.998
 5933W        W74296  26.520  43.801  12.890
 5934W        W74297  37.553  19.534   1.841
 5935W        W74298  35.076  35.855   2.259
 5936W        W74299   3.356  15.264   0.470
 5937W        W74300  28.145  26.543  12.357
 5938W        W74301  34.457   8.740   0.429
 5939W        W74302  42.949  25.055   0.393
 5940W        W74303  20.204  19.779  12.353
 5941W        W74304  31.076  26.677   4.149
 5942W        W74305  12.681  31.503  12.851
 5943W        W74306  29.023  42.927  12.505
 5944W        W74307  29.658  16.687  13.870
 5945W        W74308  27.573  10.167   3.685
 5946W        W74309  39.006  32.599  14.804
 5947W        W74310   3.952  43.852   5.137
 5948W        W74311  26.701  36.485   1.344
 5949W        W74312  27.639  22.033   1.832
 5950W        W74313  35.879  27.963   1.377
 5951W        W74314  12.764  41.528   1.307
 5952W        W74315  10.196  26.588   4.198
 5953W        W74316  12.280  19.552  12.524
 5954W        W74317  43.838  22.196   0.793
 5955W        W74318   9.679   7.341  13.427
 5956W        W74319  35.489  44.860  12.060
 5957W        W74320  42.472  44.850  11.400
 5958W        W74321  21.666  20.166  10.912
 5959W        W74322  34.549  12.625  13.872
 5960W        W74323  17.264   5.702  12.341
 5961W        W74324  42.364   3.893   2.289
 5962W        W74325  37.413  35.098   3.196
 5963W        W74326  26.042   7.786  10.518
 5964W        W74327  28.480  19.281   4.774
 5965W        W74328  19.707  17.628   3.667
 5966W        W74329   8.175  14.275   1.931
 5967W        W74330  26.973  29.062   3.815
 5968W        W74331  11.795   3.722   1.818
 5969W        W74332  31.534  12.293  14.788
 5970W        W74333  27.046   5.196  10.404
 5971W        W74334  26.680  41.935  13.900
 5972W        W74335  26.065  14.328   0.375
 5973W        W74336  19.568  16.268  13.414
 5974W        W74337   2.725  44.851   3.846
 5975W        W74338  22.529  24.675   0.766
 5976W        W74339  41.841  44.818   4.238
 5977W        W74340   5.349  36.940  10.483
 5978W        W74341  23.610  35.941   1.316
 5979W        W74342  41.425  42.844   4.113
 5980W        W74343  13.613  43.837  13.009
 5981W        W74344  20.556  18.144  14.275
 5982W        W74345  31.558   6.221   4.627
 5983W        W74346  43.454  23.597   3.346
 5984W        W74347  15.650  11.678  11.943
 5985W        W74348  18.686   7.241   1.867
 5986W        W74349  17.098  17.083  13.064
 5987W        W74350  17.173   1.257  12.851
 5988W        W74351  37.525  16.714  12.017
 5989W        W74352   9.873  14.267   4.218
 5990W        W74353   3.724   5.900  10.985
 5991W        W74354  19.741  38.553  11.873
 5992W        W74355  24.111  11.180   4.114
 5993W        W74356   6.717  17.632  12.378
 5994W        W74357  13.769  23.532   3.207
 5995W        W74358  30.925  31.992   2.843
 5996W        W74359  24.596  44.462   3.227
 5997W        W74360  21.612  42.368   1.840
 5998W        W74361  20.614  43.446   4.675
 5999W        W74362  20.063   9.705  14.874
 6000W        W74363   9.867   7.699   3.770
 6001W        W74364  38.834  19.609   1.262
 6002W        W74365  40.536  18.722  14.859
 6003W        W74366   8.742  38.419   0.814
 6004W        W74367  38.872  15.795  14.346
 6005W        W74368  34.993   3.456  12.981
 6006W        W74369   0.802   1.846  10.631
 6007W        W74370   2.839  38.476   1.786
 6008W        W74371  25.710  44.932  10.411
 6009W        W74372  32.582  35.092   1.735
 6010W        W74373   6.424  30.650  12.392
 6011W        W74374  27.651  43.768   1.271
 6012W        W74375   8.758  40.923  11.481
 6013W        W74376  16.175   8.828   0.751
 6014W        W74377   5.856  20.714   0.328
 6015W        W74378  12.796  43.904  12.063
 6016W        W74379  21.103  42.777  13.334
 6017W        W74380   4.255  40.384  10.509
 6018W        W74381   9.774  17.780  13.374
 6019W        W74382  44.980  36.357  13.938
 6020W        W74383   0.933   7.840   1.902
 6021W        W74384   2.394  20.038   4.835
 6022W        W74385  29.079  30.135  10.583
 6023W        W74386   2.420   8.263  14.937
 6024W        W74387   0.265  43.892   4.666
 6025W        W74388   8.284  23.129   0.731
 6026W        W74389  18.076  20.526   4.323
 6027W        W74390  19.711  31.408  12.882
 6028W        W74391   2.945  13.234  14.296
 6029W        W74392   2.444  43.341  13.532
 6030W        W74393  12.155   4.705  14.003
 6031W        W74394  18.288  17.715   1.802
 6032W        W74395   5.295  16.121  10.469
 6033W        W74396  20.251   6.325   3.235
 6034W        W74397  15.090  23.579  12.862
 6035W        W74398  25.129  31.107   3.859
 6036W        W74399  24.581  36.378   4.238
 6037W        W74400  19.703  27.689   1.720
 6038W        W74401  20.078  42.320   1.749
 6039W        W74402  38.859  26.663   5.128
 6040W        W74403   3.892  40.019  14.000
 6041W        W74404   8.821  43.275  14.284
 6042W        W74405  44.474  28.057   0.802
 6043W        W74406  27.972  40.832  10.095
 6044W        W74407  19.634  24.977  13.054
 6045W        W74408  40.334   3.249  11.101
 6046W        W74409  16.783  12.610   2.744
 6047W        W74410  36.987   7.768  12.837
 6048W        W74411  31.438  18.574   3.359
 6049W        W74412  16.310  11.249  14.439
 6050W        W74413   2.264  44.857  10.525
 6051W        W74414   8.666   4.230  11.867
 6052W        W74415   2.316  34.597   4.730
 6053W        W74416  21.556   3.296  13.446
 6054W        W74417  15.679  34.114  11.481
 6055W        W74418  11.276  18.269   2.765
 6056W        W74419  11.231  34.570  11.504
 6057W        W74420  35.594  22.607   2.278
 6058W        W74421  32.490   7.325   4.286
 6059W        W74422  18.101  24.978  12.983
 6060W        W74423   6.761  37.012  13.981
 6061W        W74424  19.659  32.064   3.695
 6062W        W74425  36.551  27.102   1.858
 6063W        W74426   0.354  34.996   1.822
 6064W        W74427  20.655  41.516  13.543
 6065W        W74428  18.718  20.121   0.263
 6066W        W74429  21.084   4.346   5.250
 6067W        W74430  14.137  17.203   1.765
 6068W        W74431  15.152  41.511  11.000
 6069W        W74432  35.106  27.020  14.791
 6070W        W74433  26.187  31.931   0.790
 6071W        W74434  25.703  38.876   4.676
 6072W        W74435  21.648   6.742  14.780
 6073W        W74436  33.969  36.508   0.894
 6074W        W74437   9.336  31.523   2.277
 6075W        W74438  39.043  31.041   4.617
 6076W        W74439  25.643  33.051   4.638
 6077W        W74440   5.917  19.663   0.778
 6078W        W74441  23.093  19.101  10.944
 6079W        W74442  41.961  24.589  10.596
 6080W        W74443   8.900  43.858  10.907
 6081W        W74444  13.740   5.437  11.065
 6082W        W74445  22.086   3.415   0.249
 6083W        W74446  17.255   8.670   4.152
 6084W        W74447  28.123  33.567   0.796
 6085W        W74448   2.446  12.717   2.385
 6086W        W74449  33.460  12.141  10.542
 6087W        W74450  29.495  43.982   2.860
 6088W        W74451  28.435  31.981   2.364
 6089W        W74452  36.961  23.000   0.929
 6090W        W74453   5.390  39.318  13.824
 6091W        W74454   8.709  29.501   0.884
 6092W        W74455  35.010  10.750   3.688
 6093W        W74456  42.783  25.010   3.807
 6094W        W74457  11.829  26.066   3.365
 6095W        W74458   2.336  28.100  11.443
 6096W        W74459  33.623  34.927   3.248
 6097W        W74460  39.471  17.249  10.552
 6098W        W74461  10.148  40.485  12.970
 6099W        W74462  20.695  40.357   2.327
 6100W        W74463   7.676  25.570  14.971
 6101W        W74464  27.095  42.870   3.766
 6102W        W74465  12.154  40.890  12.941
 6103W        W74466   9.344  43.842  11.519
 6104W        W74467   6.213   6.908   1.823
 6105W        W74468   7.899  14.165  12.853
 6106W        W74469   6.707   9.659  12.391
 6107W        W74470  16.689  24.620   2.783
 6108W        W74471  25.217  21.256  12.542
 6109W        W74472  33.052  27.142   2.756
 6110W        W74473   8.669  44.874   1.442
 6111W        W74474  27.079  15.687  13.871
 6112W        W74475  38.973   4.808   2.204
 6113W        W74476  31.118  44.415  12.530
 6114W        W74477   7.359  32.536   0.436
 6115W        W74478  41.307  28.076  10.544
 6116W        W74479  38.947  22.658  13.469
 6117W        W74480   9.233  16.131   0.859
 6118W        W74481  41.348   6.746  13.448
 6119W        W74482  24.658  11.624   1.379
 6120W        W74483  18.200   5.223  10.566
 6121W        W74484  10.280  39.900  14.850
 6122W        W74485  31.082  15.812   0.312
 6123W        W74486  29.128  40.018   4.618
 6124W        W74487  36.544  14.673   2.707
 6125W        W74488  43.872  29.103  11.954
 6126W        W74489  21.065   4.205  12.937
 6127W        W74490  11.306   5.221   1.812
 6128W        W74491  40.506  24.061  11.003
 6129W        W74492  19.619   6.728   4.117
 6130W        W74493   1.956  12.170   2.789
 6131W        W74494  22.227  34.500  14.793
 6132W        W74495  19.208  10.220   2.345
 6133W        W74496  13.239  27.974   5.259
 6134W        W74497   7.258  40.472   2.311
 6135W        W74498   2.312   0.979   9.987
 6136W        W74499  26.529  38.435  11.896
 6137W        W74500  15.256   3.863  12.041
 6138W        W74501  41.427  18.173   3.753
 6139W        W74502   8.732  30.509   3.270
 6140W        W74503  36.998  11.631   0.314
 6141W        W74504  44.285  33.430   2.676
 6142W        W74505  34.457  31.009  11.983
 6143W        W74506  42.864  27.602   0.307
 6144W        W74507  37.855  36.855  10.479
 6145W        W74508  17.727  15.697  11.115
 6146W        W74509  42.999  33.933  13.528
 6147W        W74510  26.621  26.091  10.482
 6148W        W74511   9.375  40.962   2.816
 6149W        W74512  12.152  41.346   3.290
 6150W        W74513  24.207  38.076   1.257
 6151W        W74514   5.209  22.606   4.738
 6152W        W74515  35.406  17.620  14.020
 6153W        W74516   6.695  17.080  14.795
 6154W        W74517  44.275  22.631  10.120
 6155W        W74518  40.858   0.316   3.698
 6156W        W74519  10.240  35.602  12.940
 6157W        W74520  43.811  26.081   0.908
 6158W        W74521   6.833   4.384  14.963
 6159W        W74522   5.773  24.547  14.824
 6160W        W74523   0.304  39.454  14.843
 6161W        W74524  35.514   1.972  10.561
 6162W        W74525  30.556  20.095  12.436
 6163W        W74526  35.978   8.845  13.948
 6164W        W74527  31.070  41.446   0.293
 6165W        W74528   0.309  14.834   2.314
 6166W        W74529  26.671  21.175   2.224
 6167W        W74530  36.429  43.514  14.421
 6168W        W74531  36.972  18.607  11.041
 6169W        W74532   3.216  12.226  13.478
 6170W        W74533  44.805  14.240  10.606
 6171W        W74534   8.304  38.392  12.024
 6172W        W74535   5.281   1.760   3.232
 6173W        W74536  31.090  22.716   0.473
 6174W        W74537  15.211  32.438  13.794
 6175W        W74538  23.177  34.960  13.928
 6176W        W74539  35.487  14.791  13.982
 6177W        W74540  27.176  41.961   4.769
 6178W        W74541  39.423  21.149  14.460
 6179W        W74542  35.056   0.475   3.749
 6180W        W74543   0.319  11.821   1.873
 6181W        W74544  31.549  44.311  12.870
 6182W        W74545   3.263   2.313   1.784
 6183W        W74546  27.622  27.026   0.271
 6184W        W74547   8.183  34.978  10.969
 6185W        W74548  18.133  28.622   0.849
 6186W        W74549   8.773  42.014   0.281
 6187W        W74550   9.229  19.557   3.321
 6188W        W74551   8.396  29.930   4.340
 6189W        W74552   7.876  16.611  11.393
 6190W        W74553  33.043  40.023   0.424
 6191W        W74554  40.805  41.845   3.270
 6192W        W74555   4.737  11.142   2.838
 6193W        W74556   1.249  18.757   0.245
 6194W        W74557   0.774  22.211  12.985
 6195W        W74558  18.152  16.081  11.557
 6196W        W74559   2.929  32.518   2.415
 6197W        W74560  41.495  20.536  10.935
 6198W        W74561   4.831  14.737   0.256
 6199W        W74562   7.311  10.706   3.711
 6200W        W74563  24.500  36.431  12.024
 6201W        W74564  31.013  29.998  11.086
 6202W        W74565  39.063  42.908  10.109
 6203W        W74566  30.075  40.386   1.328
 6204W        W74567  44.753   1.841   1.748
 6205W        W74568  14.677  21.558   1.870
 6206W        W74569  26.512   1.365  14.027
 6207W        W74570  32.430   0.414  12.353
 6208W        W74571  11.169  13.813   4.121
 6209W        W74572  34.876  23.051  10.489
 6210W        W74573   2.738   9.844  14.847
 6211W        W74574  21.110   1.258  14.023
 6212W        W74575  28.506  14.814  14.455
 6213W        W74576  28.545  43.272  12.439
 6214W        W74577  35.432  34.975  12.886
 6215W        W74578   9.648  28.982   4.125
 6216W        W74579   8.871  22.568  13.022
 6217W        W74580  28.175   6.917   0.844
 6218W        W74581  26.103  43.893   1.381
 6219W        W74582  44.373   2.729   0.778
 6220W        W74583  23.137  41.481   0.900
 6221W        W74584   8.774  43.320   3.362
 6222W        W74585  40.933  12.743  13.860
 6223W        W74586   9.272  33.956   1.853
 6224W        W74587  34.484   4.292   4.811
 6225W        W74588  41.880   6.711  11.994
 6226W        W74589  21.167  23.028   0.273
 6227W        W74590  44.885  32.569   0.416
 6228W        W74591   6.392  19.591  11.945
 6229W        W74592  39.356   1.864   4.125
 6230W        W74593  21.050  38.358   1.321
 6231W        W74594  26.460   0.435   1.404
 6232W        W74595  20.125  33.459  13.351
 6233W        W74596   2.296  43.315  12.882
 6234W        W74597  37.464   4.278  13.820
 6235W        W74598  12.345  30.440  14.343
 6236W        W74599   6.742  39.012   4.242
 6237W        W74600  43.309  43.813  10.406
 6238W        W74601  14.647  29.945   0.745
 6239W        W74602  38.470  19.544  12.502
 6240W        W74603  14.784  25.063   2.320
 6241W        W74604  44.278   2.295   4.238
 6242W        W74605  10.251  23.125   4.625
 6243W        W74606   9.760  39.901  13.541
 6244W        W74607   6.869  39.011   1.335
 6245W        W74608  40.806  33.111   4.354
 6246W        W74609  30.447  23.193   0.251
 6247W        W74610  38.344   8.783  11.118
 6248W        W74611  10.847  36.086   0.865
 6249W        W74612  43.449  26.062   4.289
 6250W        W74613  25.693  31.560  13.519
 6251W        W74614  29.084  25.207  12.828
 6252W        W74615  41.965   8.901   4.142
 6253W        W74616  41.487   8.860  13.820
 6254W        W74617  18.719   6.393  12.389
 6255W        W74618  17.224  21.124   2.243
 6256W        W74619  36.942  42.910   0.786
 6257W        W74620   9.846   3.311   2.277
 6258W        W74621   1.306  38.866   0.801
 6259W        W74622   2.781  16.297  13.497
 6260W        W74623  32.431   6.828   0.378
 6261W        W74624  26.200  41.838   0.869
 6262W        W74625  24.699  28.459  13.331
 6263W        W74626   4.895  26.569  12.346
 6264W        W74627  20.169  34.956   5.196
 6265W        W74628  33.619  26.513   3.229
 6266W        W74629   8.400  31.563  12.389
 6267W        W74630  15.784  14.832  10.564
 6268W        W74631  24.215   4.734  11.962
 6269W        W74632  43.785  36.553   3.156
 6270W        W74633   7.266  17.097   4.165
 6271W        W74634  16.672   1.478  13.537
 6272W        W74635   6.745  40.414  13.053
 6273W        W74636   4.886  22.697   0.260
 6274W        W74637  42.480   1.837  10.988
 6275W        W74638  11.839  32.041  13.824
 6276W        W74639  42.789  27.555   3.276
 6277W        W74640  30.542  17.736   2.295
 6278W        W74641   4.905  29.120   1.731
 6279W        W74642   9.832   0.890  12.486
 6280W        W74643  19.632   7.342   1.296
 6281W        W74644   9.308  10.721  10.498
 6282W        W74645  23.027  28.112   2.880
 6283W        W74646   3.252  37.924   4.776
 6284W        W74647  31.557  18.770   0.431
 6285W        W74648   3.872  41.423   2.391
 6286W        W74649  11.738  41.391  10.043
 6287W        W74650   4.738  33.938  11.929
 6288W        W74651  11.707  22.632  11.550
 6289W        W74652  41.426   2.353  11.460
 6290W        W74653  40.350   8.900   0.438
 6291W        W74654  17.294  18.159   3.316
 6292W        W74655  14.760   3.289  10.947
 6293W        W74656  25.005  21.150  13.943
 6294W        W74657  26.091   7.864  11.520
 6295W        W74658  16.088  16.090   2.780
 6296W        W74659  21.660  14.145  12.416
 6297W        W74660  29.457   4.212   4.689
 6298W        W74661  41.423  32.464  13.533
 6299W        W74662  36.857  28.640  13.835
 6300W        W74663  17.760  39.853   4.770
 6301W        W74664  42.427  24.521   4.700
 6302W        W74665   8.170  26.579   4.141
 6303W        W74666   0.491  28.503  14.760
 6304W        W74667  40.321  25.515   2.370
 6305W        W74668  25.513   9.669   4.142
 6306W        W74669  16.654  35.473  12.538
 6307W        W74670  29.052  34.058   3.214
 6308W        W74671  11.698   5.697   3.371
 6309W        W74672  28.941  11.322   3.240
 6310W        W74673  25.136   5.714   2.205
 6311W        W74674  32.547  24.157  11.012
 6312W        W74675  44.457  24.486  13.436
 6313W        W74676  32.934   3.279   2.721
 6314W        W74677  21.563  41.880  12.964
 6315W        W74678  42.386  12.846  10.524
 6316W        W74679  37.038  31.544   3.289
 6317W        W74680  36.922  37.927  11.101
 6318W        W74681  26.509  37.381  12.524
 6319W        W74682   7.846  29.654   4.667
 6320W        W74683  23.688  19.073  14.336
 6321W        W74684  38.974  17.123  12.441
 6322W        W74685  16.693  21.558   1.930
 6323W        W74686  35.380   2.345   2.732
 6324W        W74687  37.345   7.397  11.025
 6325W        W74688  30.000  18.574   1.427
 6326W        W74689  17.639  43.404  13.054
 6327W        W74690  13.671  16.173   2.324
 6328W        W74691  31.635  31.913  10.549
 6329W        W74692  33.085  21.233   4.178
 6330W        W74693  33.625  35.402   3.214
 6331W        W74694  41.934   9.849   2.703
 6332W        W74695  43.894  14.152   4.267
 6333W        W74696  12.310   3.402   3.363
 6334W        W74697   2.741  31.558  11.874
 6335W        W74698   6.296  23.098   2.313
 6336W        W74699  24.070  14.297  14.349
 6337W        W74700  20.057  33.961  10.407
 6338W        W74701  24.004  12.350   1.339
 6339W        W74702  13.342  29.640   0.331
 6340W        W74703   2.817   5.418  12.860
 6341W        W74704  42.360   1.433  13.913
 6342W        W74705   5.410  29.582   0.422
 6343W        W74706   7.171  37.360   0.400
 6344W        W74707  18.705  30.083   0.945
 6345W        W74708  16.630  44.771  11.450
 6346W        W74709   9.291  18.635   4.215
 6347W        W74710  18.628  20.105  14.491
 6348W        W74711  26.044  32.500  10.580
 6349W        W74712   5.826  32.132   1.731
 6350W        W74713  43.998  43.453   2.305
 6351W        W74714   8.228  35.093  11.569
 6352W        W74715  11.800  39.363   4.328
 6353W        W74716  13.773  44.356   1.347
 6354W        W74717  20.033  22.538  13.532
 6355W        W74718  21.102  30.046  14.834
 6356W        W74719  19.217  41.475  12.857
 6357W        W74720  44.292  32.507   2.206
 6358W        W74721  27.106  27.066  12.955
 6359W        W74722  39.858   5.888  13.328
 6360W        W74723  25.209  31.104  10.440
 6361W        W74724  17.154   3.753  10.628
 6362W        W74725  38.449  23.583   4.732
 6363W        W74726  20.764  33.457   2.211
 6364W        W74727  26.611  10.369  11.445
 6365W        W74728   4.752  32.921  13.040
 6366W        W74729  13.741   7.232   3.279
 6367W        W74730   3.748  28.131   2.840
 6368W        W74731  18.161   4.832  11.471
 6369W        W74732  12.611  39.034  11.575
 6370W        W74733   2.467   2.387   3.258
 6371W        W74734  31.561  35.869   4.221
 6372W        W74735   8.218  44.939   2.227
 6373W        W74736   7.897  43.384  11.459
 6374W        W74737  14.658  11.826   4.220
 6375W        W74738   2.322   7.228  10.095
 6376W        W74739  19.208   3.291  13.965
 6377W        W74740  13.713  25.065   1.777
 6378W        W74741  37.338   1.825   3.183
 6379W        W74742  17.171   3.792  13.543
 6380W        W74743   9.178  34.397  11.458
 6381W        W74744   0.391  27.148  12.467
 6382W        W74745  40.405  38.463  14.335
 6383W        W74746  44.416  41.805   0.869
 6384W        W74747  13.782  21.050  14.468
 6385W        W74748  23.162  14.214  14.340
 6386W        W74749  36.502   2.233   0.894
 6387W        W74750  17.252   2.303   3.186
 6388W        W74751   3.877  16.076   4.764
 6389W        W74752  42.359  26.566  10.645
 6390W        W74753  33.111  29.153   3.258
 6391W        W74754  31.586  13.804   4.282
 6392W        W74755   8.876  27.978   4.612
 6393W        W74756   6.245   2.460   0.261
 6394W        W74757  37.507   1.812  12.574
 6395W        W74758  23.109  25.640  11.014
 6396W        W74759  42.371  29.054  10.534
 6397W        W74760   4.259  40.959   2.702
 6398W        W74761  13.253  13.264  14.412
 6399W        W74762  14.215  28.170  13.960
 6400W        W74763  14.621  33.439   4.622
 6401W        W74764   6.855  11.851   2.207
 6402W        W74765  42.822  17.651   0.313
 6403W        W74766  36.434  10.744  13.006
 6404W        W74767  13.178  32.018   5.145
 6405W        W74768  41.317  30.502   2.277
 6406W        W74769  17.070  33.443   9.946
 6407W        W74770  44.402  18.231  11.091
 6408W        W74771   3.231  21.689  11.095
 6409W        W74772  12.661   6.741  13.039
 6410W        W74773   4.334  12.250   1.846
 6411W        W74774  34.880  15.090  12.354
 6412W        W74775   8.838  32.568   0.456
 6413W        W74776  36.381   6.722   4.144
 6414W        W74777  10.702  39.943   1.339
 6415W        W74778   1.948  35.925  11.440
 6416W        W74779  10.214  11.859   1.390
 6417W        W74780   9.831  34.452   4.778
 6418W        W74781  23.142  15.136  12.531
 6419W        W74782  41.400  41.374  11.857
 6420W        W74783  41.445  39.808  14.826
 6421W        W74784  37.357  27.049   2.367
 6422W        W74785  15.747  22.679  12.499
 6423W        W74786  26.493   4.243  11.580
 6424W        W74787   4.420  43.271   4.158
 6425W        W74788  26.143   4.285  11.422
 6426W        W74789  13.788   6.714  14.431
 6427W        W74790   1.244  23.585   0.328
 6428W        W74791   1.430  17.139  12.833
 6429W        W74792  17.776   1.319   3.718
 6430W        W74793  20.625  10.327   2.663
 6431W        W74794  22.581  39.985   3.222
 6432W        W74795  18.228  44.302   3.275
 6433W        W74796  14.154  18.163   5.700
 6434W        W74797   1.385  27.025  12.998
 6435W        W74798  10.217  36.483  14.344
 6436W        W74799   6.690  11.166  11.096
 6437W        W74800  25.187  20.122   1.856
 6438W        W74801  11.350   5.927  13.893
 6439W        W74802  38.521  20.208   2.274
 6440W        W74803   7.364   1.422  11.538
 6441W        W74804   1.270  20.234   4.646
 6442W        W74805   6.703   9.228   4.627
 6443W        W74806   3.389   2.257   5.111
 6444W        W74807  35.902  23.569  14.977
 6445W        W74808   1.753  25.477   1.244
 6446W        W74809  36.935  29.950  11.866
 6447W        W74810  35.970  41.866   4.736
 6448W        W74811  13.762  43.311   4.297
 6449W        W74812  38.042  21.107   2.274
 6450W        W74813  27.005   2.921   4.627
 6451W        W74814  33.594   1.938  13.815
 6452W        W74815  33.098  32.632  11.113
 6453W        W74816  42.874  10.706   0.364
 6454W        W74817  21.108  19.612  14.972
 6455W        W74818   5.203  43.829   2.823
 6456W        W74819   9.738  12.782  12.415
 6457W        W74820  29.453   3.812   0.733
 6458W        W74821   5.924   9.354  11.931
 6459W        W74822  27.615  30.047  14.438
 6460W        W74823   0.277  29.635   4.295
 6461W        W74824  42.989   9.722   1.695
 6462W        W74825   5.259  44.283  14.340
 6463W        W74826  35.481  31.033  14.459
 6464W        W74827  23.692  15.586   2.292
 6465W        W74828  26.011  14.175  11.606
 6466W        W74829  40.329  41.972   1.440
 6467W        W74830  24.612  26.069   4.733
 6468W        W74831  40.451  30.147   4.625
 6469W        W74832  38.003  35.493   1.879
 6470W        W74833  18.719  27.480  13.537
 6471W        W74834  12.668   8.797  10.489
 6472W        W74835  44.330  14.786   2.382
 6473W        W74836   9.804  35.379  14.437
 6474W        W74837  27.611  32.392   2.254
 6475W        W74838  17.152  35.043   4.707
 6476W        W74839  20.594  16.680   4.774
 6477W        W74840  19.099  36.872   0.773
 6478W        W74841  38.010  13.796   2.328
 6479W        W74842  23.237  18.648  14.504
 6480W        W74843   2.386  21.688   5.215
 6481W        W74844  20.240  43.766   2.361
 6482W        W74845  21.684   2.761  14.892
 6483W        W74846  33.925  32.504  13.035
 6484W        W74847  38.914  23.030   2.855
 6485W        W74848  13.654  36.866   3.678
 6486W        W74849   2.770  29.431  14.287
 6487W        W74850  36.566  14.098  13.318
 6488W        W74851  15.086  12.689   1.929
 6489W        W74852  44.425  32.504  11.510
 6490W        W74853  25.144  11.768   5.273
 6491W        W74854  26.181  41.459   0.823
 6492W        W74855   8.244  25.572  14.836
 6493W        W74856   8.700   3.770  14.488
 6494W        W74857  20.049  21.143   0.959
 6495W        W74858  29.563  10.707  14.876
 6496W        W74859  29.140   3.902  10.542
 6497W        W74860  28.493  19.709   0.826
 6498W        W74861  35.430  14.233   4.772
 6499W        W74862  10.330  17.303   0.320
 6500W        W74863   0.277  19.742   4.307
 6501W        W74864   2.864   3.227   1.350
 6502W        W74865  18.120   1.826   3.356
 6503W        W74866  39.969  30.599  14.512
 6504W        W74867   2.847  30.956  13.539
 6505W        W74868   8.886  25.978   3.281
 6506W        W74869  20.693   9.155   2.249
 6507W        W74870  39.988  12.248   3.655
 6508W        W74871   3.321  39.006  13.361
 6509W        W74872  14.144  20.651   3.818
 6510W        W74873  40.915  44.879   2.287
 6511W        W74874   7.698   6.320  14.871
 6512W        W74875  10.231  17.612   1.400
 6513W        W74876  31.577   1.817   4.699
 6514W        W74877   3.873  23.037  10.101
 6515W        W74878  33.523  10.744  14.817
 6516W        W74879  15.224  32.975  10.446
 6517W        W74880  15.299  36.077   1.393
 6518W        W74881  36.546  37.425  13.853
 6519W        W74882  37.985  12.280  10.422
 6520W        W74883  31.990   4.916  14.948
 6521W        W74884   5.369  14.817   1.310
 6522W        W74885   0.289  33.388  10.580
 6523W        W74886  20.055  15.664  12.090
 6524W        W74887  17.110  38.557   3.837
 6525W        W74888  27.654  37.478   2.197
 6526W        W74889  34.420   8.395  12.431
 6527W        W74890  37.034  11.659  11.410
 6528W        W74891   2.785  16.111   4.820
 6529W        W74892   2.894  13.350   3.773
 6530W        W74893  42.423   9.815   2.286
 6531W        W74894  23.670  38.513  11.551
 6532W        W74895  14.666  37.436   2.722
 6533W        W74896  42.424  35.109  13.920
 6534W        W74897  43.841  16.183   1.716
 6535W        W74898   1.238  21.751   1.292
 6536W        W74899  15.754  29.428   1.329
 6537W        W74900  11.696  20.247  13.031
 6538W        W74901  18.168  19.208   2.672
 6539W        W74902  27.106  19.257  13.468
 6540W        W74903  14.806  41.916  14.886
 6541W        W74904  27.155  18.605  11.544
 6542W        W74905  13.831   4.877  11.867
 6543W        W74906  29.492  25.983  13.472
 6544W        W74907  25.526  39.394   4.780
 6545W        W74908   2.821  31.138   2.258
 6546W        W74909  10.856  16.215   0.834
 6547W        W74910  33.967  16.182  14.496
 6548W        W74911   0.788  35.867   2.319
 6549W        W74912   1.780  26.163   1.213
 6550W        W74913  13.766  21.052   3.304
 6551W        W74914  30.052  33.034   2.361
 6552W        W74915   8.779  41.415   1.321
 6553W        W74916  15.763   1.942  11.588
 6554W        W74917  13.752   7.712   4.201
 6555W        W74918  11.863  37.446   1.379
 6556W        W74919  13.122  20.682  12.495
 6557W        W74920  25.495  40.963  14.869
 6558W        W74921   0.905  24.615   5.303
 6559W        W74922   1.260   0.319   1.803
 6560W        W74923  41.886  41.344   3.708
 6561W        W74924   9.798  12.138   1.277
 6562W        W74925  43.476   5.912  12.957
 6563W        W74926   2.856  32.504  13.358
 6564W        W74927  31.592   3.807   4.189
 6565W        W74928  38.070  18.687   4.696
 6566W        W74929   7.415  28.173  14.008
 6567W        W74930  30.594  15.278   4.831
 6568W        W74931  22.634  32.985   2.711
 6569W        W74932  16.644  18.058   0.765
 6570W        W74933  14.287  14.138   3.164
 6571W        W74934  40.390  28.154   0.245
 6572W        W74935  25.116  26.154   4.629
 6573W        W74936   1.340  24.000  11.938
 6574W        W74937   1.283  23.206  12.017
 6575W        W74938  14.199   1.439  12.371
 6576W        W74939   6.391  36.563   0.395
 6577W        W74940   5.760  40.903   0.923
 6578W        W74941  19.283  27.451   2.883
 6579W        W74942  41.913  20.204   3.317
 6580W        W74943  16.158   3.839  13.835
 6581W        W74944  21.594  17.789   0.308
 6582W        W74945   3.288  19.238   1.425
 6583W        W74946  35.383  40.977  13.063
 6584W        W74947  28.498  37.900  14.351
 6585W        W74948  36.440  20.267  14.851
 6586W        W74949  23.704  14.128   0.919
 6587W        W74950  37.347  23.017   1.723
 6588W        W74951  25.210  20.526   1.213
 6589W        W74952  14.607   2.285  11.985
 6590W        W74953  27.565   6.681   3.786
 6591W        W74954  29.007  39.403   1.395
 6592W        W74955   2.339   8.343  10.488
 6593W        W74956  32.622  10.221   1.355
 6594W        W74957   3.296  37.391  11.499
 6595W        W74958  16.150  31.099  11.583
 6596W        W74959  26.968  37.356  11.860
 6597W        W74960  36.950  15.746   2.313
 6598W        W74961  38.511  37.981   2.193
 6599W        W74962  22.633  32.599  12.843
 6600W        W74963  32.535  16.101   3.290
 6601W        W74964  25.530   3.815   0.366
 6602W        W74965   1.442  39.838   4.727
 6603W        W74966  37.465   3.731  13.359
 6604W        W74967  22.734  12.278  13.441
 6605W        W74968  32.613  23.110   2.200
 6606W        W74969   3.426  21.071   5.111
 6607W        W74970  18.631   0.251  13.961
 6608W        W74971   2.870  20.119   4.154
 6609W        W74972  18.628  38.476  13.976
 6610W        W74973  29.498   0.336   0.800
 6611W        W74974  36.001  43.372   1.935
 6612W        W74975  21.191   7.673   1.352
 6613W        W74976  28.994  24.998  13.458
 6614W        W74977  10.669  13.284   4.766
 6615W        W74978  38.565   4.767  13.894
 6616W        W74979  18.768  11.796  12.449
 6617W        W74980  26.484  22.060  13.900
 6618W        W74981   0.849   6.299  13.967
 6619W        W74982  36.005  25.701  10.405
 6620W        W74983   2.901  22.026  13.973
 6621W        W74984  10.692  43.935   2.341
 6622W        W74985  35.454  33.999  14.822
 6623W        W74986   9.689  10.240  11.373
 6624W        W74987   2.255  24.104  14.785
 6625W        W74988  35.467   8.392  14.945
 6626W        W74989  43.902  15.620  11.023
 6627W        W74990  11.846  27.614   2.368
 6628W        W74991  15.329  26.065  10.561
 6629W        W74992  26.968  40.854  11.579
 6630W        W74993   6.233   8.373   4.601
 6631W        W74994  22.557  14.656   2.752
 6632W        W74995   3.813  41.967   3.829
 6633W        W74996  36.071   3.759  14.492
 6634W        W74997  41.313   4.449  10.454
 6635W        W74998  34.009   5.715  11.561
 6636W        W74999  11.858  36.937   0.860
 6637W        W75000  21.548  44.973   1.824
 6638W        W75001  31.483   8.846  12.020
 6639W        W75002   9.654  22.524  10.931
 6640W        W75003   6.372  34.551   1.242
 6641W        W75004   6.344  34.504   3.804
 6642W        W75005  30.958  23.201  14.489
 6643W        W75006  40.992  31.031   1.763
 6644W        W75007  27.960  21.101  14.332
 6645W        W75008   7.684  23.195  13.475
 6646W        W75009  25.036  36.051   4.161
 6647W        W75010  28.982  27.448   2.203
 6648W        W75011  27.624  18.222  12.434
 6649W        W75012   3.814  25.097   0.360
 6650W        W75013  19.040  28.031   0.964
 6651W        W75014   2.742   1.416  10.940
 6652W        W75015  21.736  27.024   3.223
 6653W        W75016  20.523  34.980   1.844
 6654W        W75017  15.083  43.344  13.812
 6655W        W75018  29.653  40.369  12.550
 6656W        W75019  27.072  26.015   1.815
 6657W        W75020  41.417  31.434  14.863
 6658W        W75021  14.595  10.318  14.461
 6659W        W75022  28.680  22.240  12.044
 6660W        W75023  33.564  14.653  10.444
 6661W        W75024  32.598  23.513   4.789
 6662W        W75025  19.568  17.248  10.637
 6663W        W75026  32.888  41.012  12.502
 6664W        W75027  22.020  18.248   2.696
 6665W        W75028  23.136  39.905   4.146
 6666W        W75029  23.001  42.893   1.883
 6667W        W75030   7.712  30.516  11.916
 6668W        W75031  12.801  18.729  12.048
 6669W        W75032  16.708  12.274  14.011
 6670W        W75033   1.417   5.893   0.912
 6671W        W75034   0.950  37.960  13.447
 6672W        W75035  37.563  42.943  14.835
 6673W        W75036  23.199  23.015  12.367
 6674W        W75037  18.611  16.590  13.944
 6675W        W75038  38.464  21.136   2.376
 6676W        W75039  43.810  32.489  13.475
 6677W        W75040  10.272  17.070   3.819
 6678W        W75041  12.719  25.091   3.339
 6679W        W75042  35.035  16.287   4.604
 6680W        W75043   8.832  21.146  13.372
 6681W        W75044   9.829  31.630  14.817
 6682W        W75045  38.471   1.917  10.552
 6683W        W75046  21.615   5.299   4.630
 6684W        W75047   5.768  14.106   4.634
 6685W        W75048   3.251  40.965  11.375
 6686W        W75049  33.425  25.565   2.320
 6687W        W75050   6.698  26.956  12.530
 6688W        W75051  10.684  12.713   3.784
 6689W        W75052  24.195  42.840  14.885
 6690W        W75053  44.262   4.428   3.277
 6691W        W75054  18.072  15.578   2.323
 6692W        W75055  18.564   4.721   2.376
 6693W        W75056  10.696  32.407  14.331
 6694W        W75057  22.228   7.259  11.933
 6695W        W75058  11.308  29.651   1.287
 6696W        W75059  35.004  31.515  10.642
 6697W        W75060   0.342  32.905   3.284
 6698W        W75061  32.134  22.029   2.788
 6699W        W75062   8.676  25.681   1.697
 6700W        W75063  30.161  11.158  13.418
 6701W        W75064  41.880  18.162  14.919
 6702W        W75065  33.894  24.652  12.453
 6703W        W75066  33.106  24.580  12.443
 6704W        W75067   3.234  42.951  10.529
 6705W        W75068   3.792  31.901  13.316
 6706W        W75069  24.033  40.353   5.127
 6707W        W75070   2.898   5.766   3.365
 6708W        W75071  13.716  15.649  11.005
 6709W        W75072   2.399  23.204  12.414
 6710W        W75073  36.543   7.182   4.239
 6711W        W75074  43.936   8.376  14.927
 6712W        W75075  15.713  21.758  12.375
 6713W        W75076  42.322  40.891   0.867
 6714W        W75077  11.819   3.377  11.877
 6715W        W75078  26.042  32.568  13.420
 6716W        W75079   4.758  39.009   4.674
 6717W        W75080  25.577  30.141  13.002
 6718W        W75081  21.698  43.895   0.329
 6719W        W75082   4.435  34.060   1.768
 6720W        W75083  41.391   1.760  10.997
 6721W        W75084  19.257  11.652   4.354
 6722W        W75085  41.003  33.945  10.549
 6723W        W75086  30.076  31.595   4.184
 6724W        W75087  36.006  36.567   0.796
 6725W        W75088  14.119  43.349   0.322
 6726W        W75089  24.579  14.592  11.472
 6727W        W75090  22.995   4.330  13.441
 6728W        W75091   9.670  21.753  13.871
 6729W        W75092   7.360  14.225  14.870
 6730W        W75093  30.627  44.848  10.456
 6731W        W75094  30.454  44.915   4.771
 6732W        W75095  34.049   9.696   4.312
 6733W        W75096  29.584   3.260   4.668
 6734W        W75097  18.714  26.040   2.838
 6735W        W75098  38.414   8.317  10.524
 6736W        W75099  10.322  33.399  14.914
 6737W        W75100   3.822  28.179   0.940
 6738W        W75101  29.086  44.333  12.839
 6739W        W75102  29.155   8.353  13.380
 6740W        W75103  15.265  31.110   4.705
 6741W        W75104  42.448  23.003   0.337
 6742W        W75105  21.227  29.029   0.350
 6743W        W75106  42.937  21.141  11.585
 6744W        W75107  35.491  24.116  12.846
 6745W        W75108  32.127   1.783  12.055
 6746W        W75109  22.588  17.192  10.590
 6747W        W75110  15.590  13.135  13.813
 6748W        W75111  44.504  38.474  11.083
 6749W        W75112   0.838   7.706   3.754
 6750W        W75113  10.821  42.999   1.296
 6751W        W75114  10.716  43.018  10.561
 6752W        W75115  38.921  29.541   4.125
 6753W        W75116  35.103  25.141  11.974
 6754W        W75117  26.516  42.504  12.526
 6755W        W75118  42.390  35.956  13.914
 6756W        W75119  35.055   0.481   1.935
 6757W        W75120  15.591  18.271   1.408
 6758W        W75121  34.868  37.448  14.951
 6759W        W75122   5.359  39.537  14.418
 6760W        W75123  19.625  12.288   2.371
 6761W        W75124   9.240  26.700  12.370
 6762W        W75125  10.199  25.068   3.774
 6763W        W75126  42.417  37.467   0.452
 6764W        W75127  31.009  15.282   4.633
 6765W        W75128  12.756  23.687  13.831
 6766W        W75129  39.520  24.198   3.334
 6767W        W75130  25.626  37.940  14.868
 6768W        W75131   1.922  16.145   1.792
 6769W        W75132   4.733  32.405  13.909
 6770W        W75133  21.084  22.130   1.447
 6771W        W75134  20.566  18.699   0.295
 6772W        W75135  21.522  29.928  12.366
 6773W        W75136  11.633  31.147  13.866
 6774W        W75137  32.467  38.504  13.925
 6775W        W75138  25.032  43.308   1.912
 6776W        W75139  33.587   7.796  11.036
 6777W        W75140   3.715   7.818   4.825
 6778W        W75141  32.062  12.334   4.200
 6779W        W75142  19.279  38.448  11.860
 6780W        W75143  44.835  26.974   1.738
 6781W        W75144  28.169  13.751   9.504
 6782W        W75145  39.405  27.582  12.435
 6783W        W75146  42.902  23.655  12.546
 6784W        W75147  43.428  34.991   1.835
 6785W        W75148  29.524   1.311  10.908
 6786W        W75149  21.535  39.920  13.334
 6787W        W75150  28.004  29.478   3.175
 6788W        W75151  35.447  15.252  13.500
 6789W        W75152  39.874  15.151   1.704
 6790W        W75153  40.458   7.850  13.065
 6791W        W75154   3.936  20.576   2.329
 6792W        W75155  27.115  33.475   1.725
 6793W        W75156  29.485  44.386  14.884
 6794W        W75157  26.099  12.201  14.356
 6795W        W75158   3.757   8.211  12.002
 6796W        W75159  29.073  22.635  10.976
 6797W        W75160  14.176  36.005   4.698
 6798W        W75161   7.887  17.230  11.070
 6799W        W75162  30.495   6.332   0.778
 6800W        W75163  10.196  16.092   1.393
 6801W        W75164   7.791  13.139   4.311
 6802W        W75165  29.667  31.043   4.193
 6803W        W75166  42.907  15.097   3.370
 6804W        W75167  11.642  26.160   1.271
 6805W        W75168   8.293  30.627   3.657
 6806W        W75169  17.152  28.102  11.374
 6807W        W75170  38.928   3.760   3.789
 6808W        W75171  21.191  29.158  10.596
 6809W        W75172  12.317   6.768  10.938
 6810W        W75173  24.604   8.797  10.590
 6811W        W75174  32.105   7.734   2.389
 6812W        W75175  36.915  15.084   2.709
 6813W        W75176  29.132  43.320   2.365
 6814W        W75177  29.537   5.353   0.956
 6815W        W75178   6.281  23.530  12.023
 6816W        W75179  23.551  13.255   4.723
 6817W        W75180  38.963  44.851  11.866
 6818W        W75181  25.208  14.126   0.938
 6819W        W75182  30.997  34.491  12.427
 6820W        W75183  33.889  11.744   1.298
 6821W        W75184   9.831   6.376  14.281
 6822W        W75185  15.644  20.124  12.531
 6823W        W75186   3.393  18.164   3.300
 6824W        W75187  20.088   4.716  13.351
 6825W        W75188  14.719   1.839  12.403
 6826W        W75189  29.165  14.166   1.312
 6827W        W75190   9.162  30.503   2.832
 6828W        W75191  21.102   8.658   0.310
 6829W        W75192  29.621  22.039   1.767
 6830W        W75193  40.983  22.661  14.963
 6831W        W75194  41.881  44.457   1.277
 6832W        W75195  13.790  33.553  13.833
 6833W        W75196  15.247   9.719   2.239
 6834W        W75197  18.561  28.473  11.864
 6835W        W75198  19.691  27.054   1.724
 6836W        W75199  29.118  41.348  14.808
 6837W        W75200  19.618  31.985  14.970
 6838W        W75201  22.563  43.921   3.652
 6839W        W75202  36.999  38.569   3.834
 6840W        W75203  32.904  21.193  14.515
 6841W        W75204  25.578   4.788   3.287
 6842W        W75205  15.249  42.841  11.110
 6843W        W75206  34.109  27.961   1.697
 6844W        W75207   9.676  11.335   0.305
 6845W        W75208  42.390  43.310  14.903
 6846W        W75209  28.972  17.647  14.381
 6847W        W75210  29.951  23.516   4.694
 6848W        W75211  26.147  30.433  14.392
 6849W        W75212   6.357  39.054  14.017
 6850W        W75213  10.681  19.716  12.849
 6851W        W75214  30.413  23.702   2.407
 6852W        W75215  14.114  37.398   2.864
 6853W        W75216   1.827  10.139  12.051
 6854W        W75217  15.813  37.358  11.472
 6855W        W75218  39.907  38.564  13.331
 6856W        W75219  33.921  24.995  13.502
 6857W        W75220   0.336  15.720   4.815
 6858W        W75221   8.872   7.823  14.965
 6859W        W75222  39.050   5.266  12.380
 6860W        W75223  14.772  26.190  13.474
 6861W        W75224  42.886  38.366   4.761
 6862W        W75225  21.611  40.353   0.404
 6863W        W75226  25.489  28.062   3.189
 6864W        W75227   1.955  40.375   3.258
 6865W        W75228  27.573  19.075   3.348
 6866W        W75229  10.222  20.679   5.174
 6867W        W75230  35.492  27.163   4.760
 6868W        W75231   0.439   4.234   0.255
 6869W        W75232   1.330  31.096   0.958
 6870W        W75233  15.590  29.946   5.141
 6871W        W75234   9.346  32.104   1.256
 6872W        W75235  26.584  25.023  12.934
 6873W        W75236  19.164   7.826  11.051
 6874W        W75237   6.772  31.014   3.173
 6875W        W75238   5.313   3.915  14.411
 6876W        W75239  29.925  12.723   0.774
 6877W        W75240  20.695  34.393  13.897
 6878W        W75241  14.641  30.430  12.467
 6879W        W75242   4.891   0.864   3.689
 6880W        W75243  12.231  23.134  13.382
 6881W        W75244  42.826  43.392   2.754
 6882W        W75245  40.432   4.386  12.995
 6883W        W75246  41.409  21.181  10.467
 6884W        W75247  39.986   8.220   2.351
 6885W        W75248   3.929  33.525  14.834
 6886W        W75249  26.702  31.450   2.243
 6887W        W75250   0.838   1.905  11.491
 6888W        W75251  38.857   6.341   3.742
 6889W        W75252  27.641   5.733  13.040
 6890W        W75253   2.267  24.155   0.761
 6891W        W75254  22.053  10.713  11.496
 6892W        W75255  20.128  31.117   3.376
 6893W        W75256   3.749  35.869   2.207
 6894W        W75257   5.271  25.061   1.239
 6895W        W75258  40.503  15.156   0.959
 6896W        W75259  18.235  14.736  13.922
 6897W        W75260  37.450  13.841  12.422
 6898W        W75261  14.761  32.030  12.024
 6899W        W75262  40.038  17.181  10.538
 6900W        W75263  16.585  22.503  14.417
 6901W        W75264  10.371   3.411  14.421
 6902W        W75265  19.143  12.219   0.282
 6903W        W75266   9.730  41.964  13.862
 6904W        W75267  29.636  31.429   0.801
 6905W        W75268   9.343  17.117  12.495
 6906W        W75269  36.001  30.468  12.378
 6907W        W75270  26.511  21.229  13.825
 6908W        W75271  31.604  40.384   0.318
 6909W        W75272  10.817  33.454   1.893
 6910W        W75273  27.952  35.935   4.155
 6911W        W75274  35.581  37.896  10.910
 6912W        W75275  30.953  16.772   1.354
 6913W        W75276  32.972   1.443  12.992
 6914W        W75277  31.134   7.316  13.953
 6915W        W75278  29.000  20.061  10.438
 6916W        W75279   8.834  12.613  14.951
 6917W        W75280  31.619  22.623  12.392
 6918W        W75281   6.785   5.304  11.008
 6919W        W75282   3.931  21.602   2.803
 6920W        W75283   7.407  33.435   3.733
 6921W        W75284  43.372  26.103   2.856
 6922W        W75285  20.217  24.714   0.830
 6923W        W75286  30.076  40.392   1.758
 6924W        W75287  42.398  23.134  11.909
 6925W        W75288  23.691  29.492  11.966
 6926W        W75289   1.967  29.134   0.727
 6927W        W75290  28.937  24.980   1.251
 6928W        W75291  26.185   5.365  10.421
 6929W        W75292  39.542  20.600   3.778
 6930W        W75293  14.615  36.550  14.311
 6931W        W75294  12.260  15.714  14.867
 6932W        W75295  19.709   9.661  12.975
 6933W        W75296  14.275  42.376   3.187
 6934W        W75297   1.459  38.046  12.531
 6935W        W75298  34.103  11.867  10.482
 6936W        W75299  25.671  37.484   3.663
 6937W        W75300  28.958  41.026  12.090
 6938W        W75301  20.182  42.356  11.953
 6939W        W75302  11.654  36.577   2.838
 6940W        W75303  25.566  33.067  11.103
 6941W        W75304  20.251  32.444   2.704
 6942W        W75305  25.661  11.859  12.824
 6943W        W75306  32.472  21.057  14.376
 6944W        W75307  12.200   3.456   4.728
 6945W        W75308   6.191  43.334  11.943
 6946W        W75309  39.415  41.313   4.148
 6947W        W75310   8.848  37.076   2.355
 6948W        W75311  19.676  20.676  11.106
 6949W        W75312  33.003  43.940  10.947
 6950W        W75313  37.553  22.078   2.729
 6951W        W75314  36.037   7.319  11.073
 6952W        W75315   2.459  42.306  11.987
 6953W        W75316   5.246  18.171   1.438
 6954W        W75317   8.714  20.596  10.958
 6955W        W75318  37.380  34.041  11.420
 6956W        W75319  41.431   5.793   4.781
 6957W        W75320  10.142  25.183   4.120
 6958W        W75321  17.728   8.238   4.228
 6959W        W75322  40.883  32.042  14.845
 6960W        W75323  20.099  41.039   2.269
 6961W        W75324   7.276  38.427   3.163
 6962W        W75325  40.035  12.699  13.547
 6963W        W75326  21.584   9.351   2.375
 6964W        W75327   5.802   5.297  14.506
 6965W        W75328  18.150  10.234  10.422
 6966W        W75329  12.742   0.950  12.556
 6967W        W75330   0.929   3.803  12.530
 6968W        W75331  16.262  24.484   1.437
 6969W        W75332  43.501   4.385  13.025
 6970W        W75333  38.559   8.264   2.763
 6971W        W75334  15.101  40.537  11.997
 6972W        W75335  24.164  31.942   3.761
 6973W        W75336   8.358  29.570  12.500
 6974W        W75337  33.562  28.109   1.933
 6975W        W75338  42.922   9.675   2.370
 6976W        W75339  33.558   8.841  13.967
 6977W        W75340  20.764  30.012   1.246
 6978W        W75341  13.192  22.610   3.754
 6979W        W75342  38.366   8.878  11.501
 6980W        W75343  15.617   7.223  14.926
 6981W        W75344  20.076   8.293   2.870
 6982W        W75345   3.935  35.479  13.967
 6983W        W75346  14.713  43.975  13.337
 6984W        W75347  14.183  37.476   0.290
 6985W        W75348   7.729  28.962  12.445
 6986W        W75349  44.756  22.048   4.673
 6987W        W75350  26.970  10.667  10.993
 6988W        W75351  27.632   6.354   3.231
 6989W        W75352  28.117   0.437   4.765
 6990W        W75353  26.167  38.866  14.407
 6991W        W75354  29.944  26.091  13.458
 6992W        W75355   1.737  26.019   1.883
 6993W        W75356  28.472  41.957  12.453
 6994W        W75357  31.444   3.328   0.826
 6995W        W75358  24.616  23.686   0.421
 6996W        W75359  40.439   1.859  10.620
 6997W        W75360  20.049  40.958   0.404
 6998W        W75361  18.741  14.130   5.271
 6999W        W75362  21.142  14.218  10.047
 7000W        W75363  21.031   4.211   0.856
 7001W        W75364  26.043  12.745   2.368
 7002W        W75365  41.998  23.649   1.389
 7003W        W75366  34.066  12.317  13.544
 7004W        W75367   3.392  12.694  12.062
 7005W        W75368   9.222  41.030   1.443
 7006W        W75369  30.571  33.467   1.698
 7007W        W75370  13.302  19.144  10.463
 7008W        W75371  21.739  43.484  11.890
 7009W        W75372  31.046  34.418  11.576
 7010W        W75373  26.682  30.561   4.834
 7011W        W75374  27.464   7.254   4.785
 7012W        W75375  35.931  34.406  12.357
 7013W        W75376   8.359   3.366   3.795
 7014W        W75377  31.028   4.209  14.484
 7015W        W75378  14.167   2.893  11.040
 7016W        W75379   2.401  25.656   3.288
 7017W        W75380  14.180  32.020   5.162
 7018W        W75381  22.742  11.790  14.426
 7019W        W75382  34.937  33.105  10.460
 7020W        W75383  31.039  20.718  11.034
 7021W        W75384  39.395  34.045   2.899
 7022W        W75385  14.256   5.849  12.927
 7023W        W75386  10.188  27.152   4.338
 7024W        W75387  44.878  13.176   4.624
 7025W        W75388  10.288  30.123   1.235
 7026W        W75389  33.568   4.380   0.919
 7027W        W75390  21.234  25.173   4.342
 7028W        W75391  42.385   9.766   0.778
 7029W        W75392  33.401   0.836   1.903
 7030W        W75393   5.379  13.804   0.799
 7031W        W75394  27.103  42.896  14.920
 7032W        W75395  38.890  14.741  13.818
 7033W        W75396  18.297  35.983   2.764
 7034W        W75397  41.966  17.178  11.391
 7035W        W75398  33.609  24.544  14.902
 7036W        W75399  42.330  29.607   2.244
 7037W        W75400  12.814   0.908   4.334
 7038W        W75401  26.147   1.949   3.243
 7039W        W75402  19.598  29.539   2.306
 7040W        W75403  22.125  17.181  13.320
 7041W        W75404  19.155  31.429  13.975
 7042W        W75405   8.289  25.054  11.022
 7043W        W75406   7.190  20.181   0.352
 7044W        W75407  22.141  37.357  13.362
 7045W        W75408  30.099  22.739  13.462
 7046W        W75409  14.281  36.574  12.428
 7047W        W75410  30.471  25.997  14.792
 7048W        W75411  37.468   7.900  10.624
 7049W        W75412  16.722  16.742  14.874
 7050W        W75413  35.413  35.398   4.247
 7051W        W75414  36.545  24.714  10.581
 7052W        W75415  41.867  37.537   2.219
 7053W        W75416  31.114  22.042   0.946
 7054W        W75417   3.899  24.570  14.938
 7055W        W75418   1.410  41.918  11.399
 7056W        W75419  12.194  12.204   4.296
 7057W        W75420  16.297  34.418  12.545
 7058W        W75421  18.662   7.331  10.640
 7059W        W75422  12.238  14.763   0.354
 7060W        W75423  33.977  36.378  10.949
 7061W        W75424  18.084   5.384  13.924
 7062W        W75425  40.869  13.603   3.685
 7063W        W75426   8.179  22.111   1.316
 7064W        W75427  22.683  16.123  13.468
 7065W        W75428  33.420  43.962  14.341
 7066W        W75429   5.263  21.234  10.916
 7067W        W75430  10.670  36.423   4.827
 7068W        W75431  24.179  28.943   2.190
 7069W        W75432  20.199  28.589  11.114
 7070W        W75433   0.275   7.860   1.218
 7071W        W75434  36.955  37.416  14.032
 7072W        W75435  11.147  38.429   1.819
 7073W        W75436  23.079  11.162   0.794
 7074W        W75437   7.339  10.761  12.974
 7075W        W75438   8.280   3.401   0.757
 7076W        W75439  30.648  13.139   1.283
 7077W        W75440  12.646  16.758   0.324
 7078W        W75441  24.982  16.318   1.301
 7079W        W75442  34.975  17.785   0.305
 7080W        W75443   7.826   8.867   2.779
 7081W        W75444   1.305  38.885  13.970
 7082W        W75445   0.291   7.314  12.570
 7083W        W75446  17.151  19.260   4.174
 7084W        W75447  23.495  25.482   1.895
 7085W        W75448  21.250   5.801   1.735
 7086W        W75449  23.533  25.970  11.442
 7087W        W75450  39.814   2.762   3.851
 7088W        W75451   4.786  33.962   0.414
 7089W        W75452  11.243  20.140  11.980
 7090W        W75453  11.367  21.632  10.627
 7091W        W75454  19.636  13.350   2.774
 7092W        W75455   0.260  21.226  10.434
 7093W        W75456  41.388  15.646  10.889
 7094W        W75457  44.893   7.782  12.934
 7095W        W75458  18.216  20.743  11.052
 7096W        W75459  10.206  17.087  11.553
 7097W        W75460  23.178   2.242   2.831
 7098W        W75461  44.435  40.506   5.295
 7099W        W75462  20.102  12.334   4.253
 7100W        W75463   4.807  38.823   1.905
 7101W        W75464  22.677   7.280  11.957
 7102W        W75465  18.650  21.132  13.461
 7103W        W75466  38.831  18.700  12.047
 7104W        W75467   6.301  40.972  10.523
 7105W        W75468  25.041  29.661   2.743
 7106W        W75469  16.208  32.986   3.743
 7107W        W75470  30.094   0.365   1.329
 7108W        W75471  21.093  24.222   3.371
 7109W        W75472   1.935  21.608   9.975
 7110W        W75473  35.534  38.401   1.926
 7111W        W75474  33.532   3.426  14.910
 7112W        W75475   7.201   1.857  13.000
 7113W        W75476  18.591  29.551  14.359
 7114W        W75477  34.887  35.516   2.228
 7115W        W75478  29.054  42.316  13.958
 7116W        W75479  17.107  31.464  11.870
 7117W        W75480  14.628  16.806  13.061
 7118W        W75481   8.333  15.184  11.445
 7119W        W75482   2.262  24.093  10.071
 7120W        W75483   1.479  25.070  14.954
 7121W        W75484  26.041  13.646   3.243
 7122W        W75485  25.178   5.700  13.942
 7123W        W75486   6.795  40.001   0.350
 7124W        W75487  43.405  44.900  11.401
 7125W        W75488   0.827  33.034  14.009
 7126W        W75489   5.425  37.058   3.165
 7127W        W75490  34.907  36.554   4.802
 7128W        W75491  21.165  13.345  12.465
 7129W        W75492  20.160  21.020  14.472
 7130W        W75493   4.384   7.728   0.822
 7131W        W75494  14.166  15.600  13.046
 7132W        W75495  26.041  20.197  12.390
 7133W        W75496  36.503   8.811  14.893
 7134W        W75497  20.580  38.060   1.223
 7135W        W75498  27.107  22.574  10.640
 7136W        W75499  23.723  13.176  11.960
 7137W        W75500  42.991  18.605   1.337
 7138W        W75501   9.190  44.378  11.060
 7139W        W75502  20.614   1.850   2.892
 7140W        W75503   3.921   4.755  11.987
 7141W        W75504  28.575  22.236   2.236
 7142W        W75505  26.666  17.104  11.418
 7143W        W75506  19.277   2.369  13.952
 7144W        W75507  33.008   3.742   1.887
 7145W        W75508  19.254  17.103   4.187
 7146W        W75509   4.806  11.850  13.517
 7147W        W75510   6.210  27.604   1.855
 7148W        W75511  20.241  37.564   1.819
 7149W        W75512   6.693  27.541  11.981
 7150W        W75513  16.318  15.136  11.076
 7151W        W75514  14.161  34.602  12.563
 7152W        W75515  40.951  28.547   3.197
 7153W        W75516  36.988  36.075   0.387
 7154W        W75517   6.919   6.271  13.366
 7155W        W75518  26.533   5.287   0.406
 7156W        W75519   4.904   0.359   3.249
 7157W        W75520  36.875  35.962  12.355
 7158W        W75521  44.931   1.803   2.385
 7159W        W75522  36.408  28.499  13.850
 7160W        W75523  31.912   7.321   1.435
 7161W        W75524  19.587   6.368   3.842
 7162W        W75525  25.040  33.925  11.502
 7163W        W75526  29.081  20.103  13.855
 7164W        W75527  28.972  29.059  13.541
 7165W        W75528   8.678  35.598  12.411
 7166W        W75529  42.324  34.611  13.888
 7167W        W75530  14.217  13.692  10.900
 7168W        W75531  33.419  14.826   1.213
 7169W        W75532  23.494  38.909   3.256
 7170W        W75533   9.790  33.947   0.727
 7171W        W75534   9.173  25.111   0.473
 7172W        W75535   6.731  36.574  10.524
 7173W        W75536  44.842  32.633   2.861
 7174W        W75537   9.364   7.729  13.397
 7175W        W75538  40.002  36.393  13.532
 7176W        W75539  44.503  40.999   3.837
 7177W        W75540  43.367  29.021  13.060
 7178W        W75541  28.963  32.088   0.827
 7179W        W75542  22.534  26.689  14.500
 7180W        W75543  15.579  18.722   0.330
 7181W        W75544  16.182  20.082   0.356
 7182W        W75545  14.296  36.538   1.399
 7183W        W75546  33.619  40.929   3.784
 7184W        W75547   4.719   1.904  12.860
 7185W        W75548  16.087   4.772  14.915
 7186W        W75549  37.427   9.316  11.441
 7187W        W75550  24.677  11.814  13.474
 7188W        W75551  24.003  22.218  11.864
 7189W        W75552  22.710  32.069  10.623
 7190W        W75553   3.236  31.634  10.602
 7191W        W75554  35.586  24.129   3.359
 7192W        W75555  21.677  13.123  11.597
 7193W        W75556  22.744   7.902   2.869
 7194W        W75557  34.516   6.815  10.544
 7195W        W75558  21.143   7.307   4.219
 7196W        W75559  14.237   9.183   2.882
 7197W        W75560  43.506  39.920   2.746
 7198W        W75561  34.975  12.852   0.824
 7199W        W75562  41.797   0.986  13.963
 7200W        W75563  22.221  33.030   3.348
 7201W        W75564   1.340   8.217   2.213
 7202W        W75565  34.980   4.360  10.586
 7203W        W75566  23.236   8.668  12.096
 7204W        W75567  16.210  13.327   4.199
 7205W        W75568   0.879  11.685   2.701
 7206W        W75569   4.727   1.844   4.632
 7207W        W75570   0.371  11.245  10.584
 7208W        W75571   5.792  18.188   0.337
 7209W        W75572  17.765  22.609   2.801
 7210W        W75573  34.885   6.260   3.824
 7211W        W75574  37.517  40.967   3.267
 7212W        W75575  15.167  36.932   2.883
 7213W        W75576   9.761  31.954  14.806
 7214W        W75577  19.637  22.185  11.393
 7215W        W75578  32.074  37.497  14.463
 7216W        W75579   8.802   6.717  10.979
 7217W        W75580  28.648   8.811   4.349
 7218W        W75581  42.463   5.411  14.457
 7219W        W75582  31.962   5.770  14.948
 7220W        W75583  21.668  23.683   5.206
 7221W        W75584  11.293  32.430  11.464
 7222W        W75585  18.100  31.146   4.791
 7223W        W75586  30.636  40.829   0.891
 7224W        W75587  21.099  17.653   2.382
 7225W        W75588  17.251  16.590   0.954
 7226W        W75589  42.915  41.818  14.435
 7227W        W75590  27.505  10.227   4.207
 7228W        W75591  44.278  28.524  12.369
 7229W        W75592  26.167  12.134   3.678
 7230W        W75593  42.355  37.553  11.947
 7231W        W75594  36.585  15.671   5.236
 7232W        W75595  33.474  36.358   0.451
 7233W        W75596   4.348   1.869  14.330
 7234W        W75597  16.784  36.375   1.335
 7235W        W75598  13.665  39.042   2.292
 7236W        W75599  31.909  12.660  13.014
 7237W        W75600  19.052   2.239   0.456
 7238W        W75601   9.789  17.679  11.464
 7239W        W75602  10.771  41.788   0.471
 7240W        W75603  34.581  13.148  12.403
 7241W        W75604  17.675  21.556  13.417
 7242W        W75605  26.660  36.843   4.142
 7243W        W75606  16.210  37.923   4.349
 7244W        W75607  34.117  18.729  12.982
 7245W        W75608   3.798  12.826   2.836
 7246W        W75609  41.498  33.379   1.431
 7247W        W75610  13.809  14.608   2.260
 7248W        W75611  37.065  28.457   2.690
 7249W        W75612  44.814  37.979  10.513
 7250W        W75613  26.548  20.142   0.729
 7251W        W75614   8.686  39.847  11.425
 7252W        W75615  27.464  20.233   3.218
 7253W        W75616  14.285  19.732   1.299
 7254W        W75617  22.671  25.540   2.251
 7255W        W75618  31.563  37.016   1.271
 7256W        W75619  27.074  26.032   4.176
 7257W        W75620  21.200  29.481  12.943
 7258W        W75621  10.793  29.474  10.521
 7259W        W75622  29.620   4.260   2.867
 7260W        W75623  32.613  15.666  11.610
 7261W        W75624  29.966   3.235  12.995
 7262W        W75625   6.912  43.336  12.350
 7263W        W75626  18.173  22.517  10.908
 7264W        W75627  35.925  34.537  10.953
 7265W        W75628  43.960  32.099   2.673
 7266W        W75629   5.360   7.209   1.841
 7267W        W75630  28.112  40.440   1.359
 7268W        W75631  29.951   0.840   3.776
 7269W        W75632  34.073  42.476   0.424
 7270W        W75633  27.940   3.359   3.822
 7271W        W75634  11.188  38.336  10.451
 7272W        W75635  42.367  10.817   2.331
 7273W        W75636  17.586  44.771   0.779
 7274W        W75637   7.338  10.335  10.617
 7275W        W75638  37.881   2.304  12.360
 7276W        W75639   5.702  23.619  10.572
 7277W        W75640  43.394  23.026   3.836
 7278W        W75641  11.208  38.884   0.393
 7279W        W75642  21.159  12.668   5.214
 7280W        W75643  16.156   1.927   4.283
 7281W        W75644   6.827   8.892  10.956
 7282W        W75645  25.700   1.336   4.679
 7283W        W75646  23.056  40.498  14.943
 7284W        W75647  18.206   9.649  10.956
 7285W        W75648  30.089   9.725  13.815
 7286W        W75649  22.741   3.920   3.723
 7287W        W75650  28.490  27.609  12.886
 7288W        W75651  22.597  39.322   2.815
 7289W        W75652   7.870   9.301   1.918
 7290W        W75653  33.954  43.833  14.482
 7291W        W75654  22.178  27.969   1.925
 7292W        W75655  22.543  12.145  14.014
 7293W        W75656   8.160   9.743   1.331
 7294W        W75657  19.205  16.299   2.739
 7295W        W75658  13.617   3.274   0.379
 7296W        W75659  11.273   7.257  11.395
 7297W        W75660  42.383  29.480  11.128
 7298W        W75661  32.989   8.764   4.332
 7299W        W75662  26.526  36.495   2.734
 7300W        W75663  31.465  27.674   2.773
 7301W        W75664   0.324  23.498   9.608
 7302W        W75665  30.437  30.127  12.447
 7303W        W75666  16.689  29.636   4.764
 7304W        W75667  26.611  38.866  11.932
 7305W        W75668  40.029   8.664   2.197
 7306W        W75669   1.847  25.609  11.919
 7307W        W75670   0.931  23.490  10.067
 7308W        W75671   7.396   0.372   1.301
 7309W        W75672  42.419  27.103  14.016
 7310W        W75673  16.152  23.161  10.600
 7311W        W75674  20.631  18.246   3.795
 7312W        W75675  24.489  16.575  12.870
 7313W        W75676  17.253   8.193  12.970
 7314W        W75677   9.163   0.916  13.942
 7315W        W75678  31.625  28.185   2.246
 7316W        W75679  12.268  17.740   0.326
 7317W        W75680  20.252  18.557  11.858
 7318W        W75681  10.793  32.908  13.993
 7319W        W75682  17.750  33.552  12.532
 7320W        W75683  13.199   1.407   3.340
 7321W        W75684  22.024   3.840   0.753
 7322W        W75685  15.320  29.432   1.251
 7323W        W75686  27.686   4.794  13.493
 7324W        W75687   4.798  16.770  11.957
 7325W        W75688  27.051  20.113  13.807
 7326W        W75689  28.632  38.019   1.426
 7327W        W75690  37.941  43.850  14.995
 7328W        W75691  29.486  16.251  10.643
 7329W        W75692   0.489  27.053  13.506
 7330W        W75693  33.468  24.525   3.181
 7331W        W75694  40.035  17.296  12.403
 7332W        W75695   5.265  34.546  12.531
 7333W        W75696  21.622  32.995  11.612
 7334W        W75697  12.238   6.722   0.307
 7335W        W75698  14.271  13.232  13.501
 7336W        W75699  12.344   7.898  12.912
 7337W        W75700   1.928  33.596  12.917
 7338W        W75701  38.060   1.436   0.747
 7339W        W75702  38.940  44.969  12.426
 7340W        W75703  13.740  31.024  13.444
 7341W        W75704   2.434   2.246   1.226
 7342W        W75705   7.331  32.034   2.200
 7343W        W75706  23.989  14.808   0.263
 7344W        W75707  22.222   5.767  11.099
 7345W        W75708   7.377  10.240   1.369
 7346W        W75709  39.961   6.387   2.751
 7347W        W75710  26.680  27.626  12.901
 7348W        W75711  25.127  22.250   4.275
 7349W        W75712  13.640  43.968  10.480
 7350W        W75713  43.421  31.460   2.856
 7351W        W75714  41.892  44.786   1.388
 7352W        W75715   1.926  42.474  14.395
 7353W        W75716   3.406  27.478   1.444
 7354W        W75717  30.089  29.573   2.276
 7355W        W75718  13.770  19.542  12.408
 7356W        W75719   4.352  41.369  13.019
 7357W        W75720   4.334  35.064   3.700
 7358W        W75721   6.846  15.170  14.857
 7359W        W75722  18.118   2.762   0.874
 7360W        W75723   7.237  30.129  14.455
 7361W        W75724  25.632  22.122   1.773
 7362W        W75725  12.226  14.710   0.851
 7363W        W75726  14.137  42.963  10.110
 7364W        W75727  20.249   1.280   2.404
 7365W        W75728  31.035  22.239   4.605
 7366W        W75729  40.969   3.860  13.432
 7367W        W75730   6.218  24.498   1.421
 7368W        W75731  13.253  28.531  10.977
 7369W        W75732  24.577  23.721  12.878
 7370W        W75733  23.009   4.720   2.810
 7371W        W75734  21.087  41.368   1.833
 7372W        W75735  41.440  33.908   3.177
 7373W        W75736  27.082  43.335   3.833
 7374W        W75737  34.074  28.586   3.715
 7375W        W75738  18.068   5.930  14.491
 7376W        W75739  42.841   1.836   4.179
 7377W        W75740  29.454  25.673  12.033
 7378W        W75741  36.970   8.874  11.374
 7379W        W75742  44.796  32.410  13.888
 7380W        W75743  31.113  10.224   0.372
 7381W        W75744  35.547  12.151   2.377
 7382W        W75745  41.498   9.763   0.467
 7383W        W75746  41.394  26.088   3.209
 7384W        W75747  14.656  24.573   0.247
 7385W        W75748  30.939  15.782  14.309
 7386W        W75749  22.239  20.196   0.322
 7387W        W75750   5.400  25.683   1.258
 7388W        W75751  23.602  14.781  10.494
 7389W        W75752  10.171  41.323  14.979
 7390W        W75753  27.504   4.837  14.354
 7391W        W75754  26.976  32.460   4.147
 7392W        W75755  24.119  13.728   0.867
 7393W        W75756   0.277  34.597   4.638
 7394W        W75757  39.927  11.750   9.492
 7395W        W75758   1.296   1.906   2.886
 7396W        W75759  18.549  40.876  11.001
 7397W        W75760  10.734   3.769   3.253
 7398W        W75761  11.294  24.607   3.205
 7399W        W75762   4.738  40.039   1.837
 7400W        W75763  36.918  28.129   2.275
 7401W        W75764  16.092  15.309  12.091
 7402W        W75765  43.941  31.430  12.548
 7403W        W75766  23.600  41.002  13.504
 7404W        W75767   2.720  40.840  14.512
 7405W        W75768  22.614  12.358   2.714
 7406W        W75769  31.443  28.164   3.324
 7407W        W75770  35.461  43.303  13.823
 7408W        W75771   3.260   0.924  11.970
 7409W        W75772  14.302  22.026  12.840
 7410W        W75773   2.265  28.480   1.281
 7411W        W75774   5.854  26.096   2.294
 7412W        W75775  17.154  26.967  14.768
 7413W        W75776  29.939   6.864   4.282
 7414W        W75777  34.952  22.591  10.058
 7415W        W75778  36.465  11.748   0.416
 7416W        W75779  11.681  20.603   0.796
 7417W        W75780  40.347  16.774  11.936
 7418W        W75781   3.716  20.184   1.784
 7419W        W75782   8.672  16.639  10.945
 7420W        W75783  11.733   1.817  13.426
 7421W        W75784   6.373  24.184  13.524
 7422W        W75785  17.088  39.489   1.851
 7423W        W75786  20.661  20.243   3.699
 7424W        W75787   5.850  34.961  13.987
 7425W        W75788  22.207  15.611   0.391
 7426W        W75789  32.990  39.537  14.888
 7427W        W75790   4.304  12.140  14.972
 7428W        W75791  42.376  44.788   2.675
 7429W        W75792   9.159   0.809   3.224
 7430W        W75793  38.907  33.511  13.016
 7431W        W75794  24.978  26.076  10.909
 7432W        W75795  23.127  21.095  13.929
 7433W        W75796   6.371  18.075  11.456
 7434W        W75797   8.171  19.647   4.717
 7435W        W75798  42.876  16.084  10.535
 7436W        W75799  35.873   4.731   2.716
 7437W        W75800  16.168  39.973   2.856
 7438W        W75801  22.643   2.279  13.057
 7439W        W75802   3.714  39.391  12.896
 7440W        W75803  31.054  43.780   2.761
 7441W        W75804   3.931  36.067  12.448
 7442W        W75805  40.482  12.259  10.016
 7443W        W75806  39.876  21.535   2.365
 7444W        W75807  27.558  41.331   2.346
 7445W        W75808  33.122  11.664  14.478
 7446W        W75809  31.444  20.529   0.906
 7447W        W75810   2.847  21.654   0.955
 7448W        W75811   9.296  28.010  14.356
 7449W        W75812  26.674  41.847  11.934
 7450W        W75813  25.123  16.131  11.545
 7451W        W75814  42.805  36.981   3.174
 7452W        W75815  35.083  34.486   0.405
 7453W        W75816   7.173  37.373  10.912
 7454W        W75817   1.403   5.275  13.926
 7455W        W75818  25.192  13.826   4.662
 7456W        W75819  34.932  27.489  10.460
 7457W        W75820  39.532  37.046  14.500
 7458W        W75821   4.756  34.551   0.406
 7459W        W75822  17.245  29.077   3.189
 7460W        W75823  12.667  30.952  13.945
 7461W        W75824  14.670  37.987  11.495
 7462W        W75825  30.556  27.963  10.986
 7463W        W75826   9.733  41.976  11.862
 7464W        W75827   2.271  42.016  14.377
 7465W        W75828   0.764  31.994   1.354
 7466W        W75829  14.161  40.322  11.451
 7467W        W75830   1.357  33.080  12.341
 7468W        W75831   6.834  12.818   3.262
 7469W        W75832  42.350  27.576  11.900
 7470W        W75833  40.493  44.868   3.249
 7471W        W75834  23.590   7.701  11.040
 7472W        W75835  13.145  26.645   3.777
 7473W        W75836  41.819  26.072  12.944
 7474W        W75837   9.719  22.539  14.780
 7475W        W75838  44.430  40.325  14.958
 7476W        W75839  42.861  31.619  12.461
 7477W        W75840  18.547   1.463   2.304
 7478W        W75841  37.531  44.863  11.894
 7479W        W75842  30.915   0.461  13.425
 7480W        W75843  33.400   9.863  13.857
 7481W        W75844  44.378  41.324  11.406
 7482W        W75845  13.688  11.831   1.721
 7483W        W75846   6.915  22.501   3.658
 7484W        W75847  32.425  36.077   3.270
 7485W        W75848  28.518  37.471   0.375
 7486W        W75849  20.089   6.426   4.279
 7487W        W75850  38.456  39.019   1.329
 7488W        W75851  21.047   4.284  10.537
 7489W        W75852   7.204  38.376  11.872
 7490W        W75853  38.343  37.532  11.056
 7491W        W75854  34.377   2.383   0.900
 7492W        W75855  22.199  18.168  13.350
 7493W        W75856  12.163  37.904  10.944
 7494W        W75857  16.096   8.809   2.353
 7495W        W75858  22.061  43.459   0.906
 7496W        W75859  25.204  14.135   2.264
 7497W        W75860   4.760   4.830   1.239
 7498W        W75861  30.642   2.253  11.397
 7499W        W75862  25.202   1.947   4.827
 7500W        W75863   2.264   9.648   1.353
 7501W        W75864   6.416  14.158  10.132
 7502W        W75865  19.083  31.583  12.578
 7503W        W75866  19.556   1.434   1.229
 7504W        W75867  44.505  23.661  13.477
 7505W        W75868   2.261  20.187  12.971
 7506W        W75869   2.901  18.593   2.239
 7507W        W75870  18.233  42.991  11.044
 7508W        W75871  25.991  23.684   1.796
 7509W        W75872  26.533  14.807  11.977
 7510W        W75873  31.642  33.597  13.903
 7511W        W75874  33.008  37.022   3.311
 7512W        W75875  27.972  22.221  11.435
 7513W        W75876  24.154  27.610  10.508
 7514W        W75877  31.107  39.880   4.836
 7515W        W75878  30.111  30.128  13.393
 7516W        W75879  19.651   5.327  14.959
 7517W        W75880  32.115  18.290  12.064
 7518W        W75881  21.208   3.724   0.913
 7519W        W75882  17.645   0.874  10.888
 7520W        W75883  28.966  30.101   5.101
 7521W        W75884  32.568  23.685   0.450
 7522W        W75885  37.549   8.342   4.303
 7523W        W75886  39.559  37.578   3.739
 7524W        W75887  27.080   4.703  12.502
 7525W        W75888  11.211  26.460   0.293
 7526W        W75889  10.852  19.618   0.423
 7527W        W75890   2.438  19.163   3.750
 7528W        W75891  23.538  30.455  12.877
 7529W        W75892  44.263  43.411  14.449
 7530W        W75893  29.554  18.713   2.388
 7531W        W75894  10.350  39.545  12.889
 7532W        W75895  13.715  33.435  14.282
 7533W        W75896  38.059  21.642  14.867
 7534W        W75897   0.981  44.385   3.226
 7535W        W75898   6.356  10.797  10.984
 7536W        W75899  15.326  41.974  14.018
 7537W        W75900  40.912   6.258   4.153
 7538W        W75901   4.434   6.728   3.864
 7539W        W75902   7.890  16.758   0.365
 7540W        W75903  21.753  35.860  10.955
 7541W        W75904  27.526  12.749   0.365
 7542W        W75905  26.624  22.709   3.746
 7543W        W75906  37.438  39.958   0.882
 7544W        W75907  35.897  18.782  14.442
 7545W        W75908  11.864  32.119  14.967
 7546W        W75909  34.073  12.740  12.089
 7547W        W75910  25.987  13.183  10.975
 7548W        W75911   8.830  20.738  12.075
 7549W        W75912  26.166  17.616   2.800
 7550W        W75913  25.063  18.574   3.173
 7551W        W75914  15.206  12.262   2.249
 7552W        W75915   9.673   9.378  10.509
 7553W        W75916  32.500  31.082  11.952
 7554W        W75917   0.325  19.777  13.415
 7555W        W75918  37.836  26.027   4.194
 7556W        W75919   0.465  35.408   1.258
 7557W        W75920  34.611  27.561  14.808
 7558W        W75921   9.250  31.126  13.003
 7559W        W75922  33.064  37.877  12.493
 7560W        W75923  20.138  29.568  12.399
 7561W        W75924  19.734  43.475   0.395
 7562W        W75925  24.002  11.640   4.760
 7563W        W75926  37.069  25.962   0.965
 7564W        W75927  27.974   6.761  10.891
 7565W        W75928  43.433  27.030   2.759
 7566W        W75929  28.162  36.570  13.941
 7567W        W75930  17.295  28.525  12.529
 7568W        W75931  23.241  17.566  12.458
 7569W        W75932  11.258   4.280   0.310
 7570W        W75933  24.215  41.308   5.242
 7571W        W75934  14.773  15.177  14.767
 7572W        W75935  23.567  13.343   2.874
 7573W        W75936  12.633  36.391   4.350
 7574W        W75937  43.381  38.850  10.452
 7575W        W75938  42.400   1.791   1.787
 7576W        W75939  22.155  21.121  13.040
 7577W        W75940  39.384  42.448  12.872
 7578W        W75941  17.126   5.741  12.893
 7579W        W75942  17.656  22.503   3.848
 7580W        W75943   2.879  36.369   4.738
 7581W        W75944  33.568  35.394  13.870
 7582W        W75945  39.558  32.605   3.638
 7583W        W75946   8.788  23.076  13.802
 7584W        W75947   6.204  40.000   1.804
 7585W        W75948  27.599  10.854  10.644
 7586W        W75949  16.721   2.943   1.306
 7587W        W75950  15.666  29.637  12.493
 7588W        W75951  20.763   4.937  11.018
 7589W        W75952  11.321   6.813  12.058
 7590W        W75953   1.299   3.772   3.835
 7591W        W75954  34.491  17.769   2.391
 7592W        W75955  26.647   6.746   4.644
 7593W        W75956  10.379  11.726   4.674
 7594W        W75957  11.155  39.861   0.325
 7595W        W75958  38.029  15.280  14.855
 7596W        W75959  40.344  29.659  12.524
 7597W        W75960   2.328  12.219   2.369
 7598W        W75961   2.324   5.933   2.291
 7599W        W75962   1.857   9.202   2.409
 7600W        W75963  12.266  23.570   4.717
 7601W        W75964  10.206  33.084   3.177
 7602W        W75965  41.354  10.802  11.006
 7603W        W75966  33.956   2.436   0.438
 7604W        W75967  31.424  32.462  13.910
 7605W        W75968  41.335  20.029  11.957
 7606W        W75969  36.511  25.189   3.147
 7607W        W75970  34.937  43.789   2.896
 7608W        W75971  23.036  39.547   1.409
 7609W        W75972  41.986   5.342   4.787
 7610W        W75973  39.032  42.896  13.898
 7611W        W75974  18.262  22.688  14.913
 7612W        W75975  39.319  21.682   0.884
 7613W        W75976  25.675  32.999  14.920
 7614W        W75977   1.478   1.312  12.972
 7615W        W75978  18.290  29.947  12.450
 7616W        W75979  28.041  32.596   4.782
 7617W        W75980  42.885  41.036   1.874
 7618W        W75981  21.167  10.785  14.336
 7619W        W75982  28.068  42.807   5.211
 7620W        W75983  30.993  38.526  11.073
 7621W        W75984  11.809   2.888  11.564
 7622W        W75985   7.388  18.661  14.406
 7623W        W75986  35.589   3.951  12.428
 7624W        W75987  33.993   9.222   3.709
 7625W        W75988  10.229  21.584   4.667
 7626W        W75989  29.438   1.742   4.160
 7627W        W75990  33.885  16.711   2.805
 7628W        W75991  14.191  17.243   3.190
 7629W        W75992  42.438  33.017   0.873
 7630W        W75993  23.686   1.751  14.870
 7631W        W75994  15.114   6.813   5.798
 7632W        W75995  24.058  21.582   1.310
 7633W        W75996  10.255   0.983  10.439
 7634W        W75997  38.549   6.376   4.663
 7635W        W75998  25.208   4.367   1.420
 7636W        W75999  26.142  42.851  13.486
 7637W        W76000  14.323  13.280  12.359
 7638W        W76001  10.240  25.121  14.445
 7639W        W76002  32.511   3.727   1.900
 7640W        W76003  42.930  17.194  12.021
 7641W        W76004  30.058   5.391  11.601
 7642W        W76005   1.448  17.245  11.927
 7643W        W76006  24.229  12.266  13.835
 7644W        W76007  43.311  34.416  12.521
 7645W        W76008  37.570  35.516  13.424
 7646W        W76009   3.875  12.807   5.240
 7647W        W76010  28.933  33.105   2.675
 7648W        W76011  18.563  25.529  11.924
 7649W        W76012  10.248  13.236   0.907
 7650W        W76013   1.242  24.511   2.373
 7651W        W76014  25.103  21.223   0.868
 7652W        W76015  28.035  21.146  12.563
 7653W        W76016  32.127  29.995  12.486
 7654W        W76017  37.482  39.314  14.792
 7655W        W76018  31.463  39.369   0.379
 7656W        W76019   4.302  28.959   1.292
 7657W        W76020  26.069   1.942   1.371
 7658W        W76021  11.348  15.283   1.770
 7659W        W76022  31.402  38.330   3.701
 7660W        W76023  42.824  36.403   5.219
 7661W        W76024   4.853  43.782   5.729
 7662W        W76025  30.555  36.093   0.863
 7663W        W76026  30.501  29.546  13.487
 7664W        W76027  34.903  43.972   1.267
 7665W        W76028  43.960  25.040  14.804
 7666W        W76029  40.328  15.276   1.321
 7667W        W76030  34.416  28.678  13.954
 7668W        W76031  41.856  43.399  13.938
 7669W        W76032  15.760  43.302   0.329
 7670W        W76033  16.315  26.506   3.263
 7671W        W76034  38.498   1.932  11.060
 7672W        W76035   1.765  37.518   3.289
 7673W        W76036  43.393  19.752   0.412
 7674W        W76037  23.098  19.256  12.561
 7675W        W76038  14.634  18.132   2.306
 7676W        W76039  33.888  16.297   3.855
 7677W        W76040  34.473  13.226  14.989
 7678W        W76041  43.814  26.131  14.817
 7679W        W76042   0.967  15.594  12.511
 7680W        W76043   0.424  37.466   4.809
 7681W        W76044  22.660  35.480  13.358
 7682W        W76045  15.280  36.592  13.481
 7683W        W76046  44.364  43.787   1.367
 7684W        W76047  16.126  28.086  12.015
 7685W        W76048  42.875   4.426   1.748
 7686W        W76049  19.732  30.058   2.896
 7687W        W76050  12.361  17.740   4.734
 7688W        W76051   4.742  29.487  11.507
 7689W        W76052  44.358  31.428   4.346
 7690W        W76053  27.027  12.725   4.227
 7691W        W76054  31.517  31.109  13.417
 7692W        W76055  43.282  27.962  10.986
 7693W        W76056  17.229  17.747  11.376
 7694W        W76057  37.451  17.101  14.375
 7695W        W76058  19.120  13.277  13.487
 7696W        W76059   9.355  36.987   2.889
 7697W        W76060  35.546  40.907   0.826
 7698W        W76061  21.731   4.240  13.531
 7699W        W76062  43.003  21.693  14.854
 7700W        W76063  13.203   5.321   3.192
 7701W        W76064  30.948  13.649   3.366
 7702W        W76065  44.336  39.931   1.341
 7703W        W76066   5.210   4.396  12.547
 7704W        W76067  43.946  42.375  14.897
 7705W        W76068  44.997  41.388   1.309
 7706W        W76069  32.463  39.438  11.459
 7707W        W76070  16.200  15.637   9.658
 7708W        W76071  31.595  13.107   3.149
 7709W        W76072  32.560   7.371  14.399
 7710W        W76073  41.001  18.560  10.622
 7711W        W76074   3.267  16.591   4.288
 7712W        W76075   9.828   5.270   4.203
 7713W        W76076  30.482  35.953   3.666
 7714W        W76077   7.214  40.952  11.056
 7715W        W76078   3.914  26.988  14.508
 7716W        W76079  39.017  29.606  13.547
 7717W        W76080  24.717  28.503  10.417
 7718W        W76081  31.897  22.183   4.293
 7719W        W76082   9.780  23.707   0.278
 7720W        W76083  12.677  22.506   1.321
 7721W        W76084   7.736  30.070   0.315
 7722W        W76085  35.528  44.275   0.349
 7723W        W76086  17.705  34.031  13.865
 7724W        W76087  44.373   5.227   4.604
 7725W        W76088  32.579  16.785  10.457
 7726W        W76089  42.955  16.705   4.113
 7727W        W76090  20.598  13.110  12.348
 7728W        W76091  25.491  11.358  12.370
 7729W        W76092  14.827   8.692   1.308
 7730W        W76093   8.398  17.172   0.304
 7731W        W76094  22.094  24.139   3.197
 7732W        W76095  20.704   8.745   2.852
 7733W        W76096  12.208  19.078  12.907
 7734W        W76097  12.207   2.852  13.882
 7735W        W76098  40.942   3.873   4.162
 7736W        W76099  26.465  12.275  11.938
 7737W        W76100  36.883  18.248   3.661
 7738W        W76101   6.736   4.210   4.144
 7739W        W76102  17.569  15.158   2.225
 7740W        W76103   4.364  36.510  13.490
 7741W        W76104  10.145  30.080  10.048
 7742W        W76105  43.805   9.208   0.925
 7743W        W76106  17.206   6.395   3.745
 7744W        W76107  44.819  39.809   1.927
 7745W        W76108  44.944  29.451   0.874
 7746W        W76109  12.124   1.824   3.327
 7747W        W76110  10.335  20.037  12.952
 7748W        W76111  14.686   1.768   1.863
 7749W        W76112  37.044   4.798  14.432
 7750W        W76113   2.877  39.060   2.314
 7751W        W76114  11.729   8.766  10.913
 7752W        W76115   7.373  44.301  10.917
 7753W        W76116  29.154  36.049   2.216
 7754W        W76117   0.370  30.479  10.431
 7755W        W76118  14.718  26.524   0.919
 7756W        W76119  41.973  18.059   1.803
 7757W        W76120  12.806  40.026  12.561
 7758W        W76121  37.442  15.182   2.324
 7759W        W76122  25.468  19.762   2.179
 7760W        W76123  17.666  30.071  12.452
 7761W        W76124  38.952  38.549  14.988
 7762W        W76125  19.702  27.575   4.209
 7763W        W76126  43.833  11.132   1.314
 7764W        W76127  22.100  28.047  11.855
 7765W        W76128  17.200  32.598  11.935
 7766W        W76129  16.195   5.201   3.255
 7767W        W76130  22.214  42.315  11.391
 7768W        W76131  41.455   6.220   1.229
 7769W        W76132  32.463  32.616   4.215
 7770W        W76133   3.268  22.509   2.717
 7771W        W76134  43.478  33.593   3.648
 7772W        W76135   1.826  22.093   4.674
 7773W        W76136   6.842  40.517  11.515
 7774W        W76137  26.477  13.842  11.609
 7775W        W76138  44.927   1.913  11.986
 7776W        W76139  30.460  16.305   2.820
 7777W        W76140   1.278  29.551  12.945
 7778W        W76141  18.693  15.088  12.917
 7779W        W76142  12.849  27.940   3.695
 7780W        W76143   0.381  31.591  13.349
 7781W        W76144  42.840  29.059   1.333
 7782W        W76145   3.455  34.113  10.558
 7783W        W76146  14.670   8.766  14.922
 7784W        W76147  41.472  33.457   3.156
 7785W        W76148  26.567  38.382  14.908
 7786W        W76149  33.089  11.236   2.353
 7787W        W76150  39.817   5.841   3.356
 7788W        W76151  23.211  13.835  11.923
 7789W        W76152  31.433  44.300  10.615
 7790W        W76153  10.865  18.589  13.538
 7791W        W76154  11.730  29.554   2.789
 7792W        W76155  13.123   3.244   0.931
 7793W        W76156   6.398  32.607   3.383
 7794W        W76157  37.059  33.999  13.497
 7795W        W76158  10.722  25.572   4.264
 7796W        W76159  25.058  32.486   4.811
 7797W        W76160  19.557   5.794   1.395
 7798W        W76161  38.511  26.491   0.941
 7799W        W76162  14.179   3.787  12.892
 7800W        W76163  10.731  31.475  12.379
 7801W        W76164  39.993  10.873  11.903
 7802W        W76165  17.268  34.456   4.772
 7803W        W76166  11.676  18.625   4.176
 7804W        W76167  32.997  38.451  14.936
 7805W        W76168  21.209  25.192  11.123
 7806W        W76169  27.195  21.158   3.364
 7807W        W76170  32.955  43.909   5.690
 7808W        W76171  17.640  11.132  12.424
 7809W        W76172  29.949   8.872   0.422
 7810W        W76173  32.411  43.855  10.547
 7811W        W76174  33.890  31.945   0.922
 7812W        W76175  29.494  25.186  13.532
 7813W        W76176  33.511  32.095  10.605
 7814W        W76177  41.999   6.290   2.282
 7815W        W76178  31.584  32.440   2.821
 7816W        W76179  11.190  44.851   2.255
 7817W        W76180  30.592   9.197   4.680
 7818W        W76181  17.117   6.718  10.139
 7819W        W76182  39.479   3.372   2.776
 7820W        W76183  38.068  37.061   4.348
 7821W        W76184   1.944  38.838   2.383
 7822W        W76185  39.545  34.529   1.776
 7823W        W76186  17.630  26.516  14.776
 7824W        W76187  31.591  28.053  12.885
 7825W        W76188  30.017  39.823  13.433
 7826W        W76189  41.827  30.090   3.250
 7827W        W76190  42.517  39.504   3.751
 7828W        W76191  15.657  30.147   1.343
 7829W        W76192  31.948  42.493   2.395
 7830W        W76193  15.685  22.675   0.402
 7831W        W76194  20.604  31.154   4.746
 7832W        W76195  30.051   9.659   4.603
 7833W        W76196  34.084  19.271  10.988
 7834W        W76197  29.616  29.006   3.168
 7835W        W76198  15.705   3.245   3.865
 7836W        W76199   2.753   3.304  11.919
 7837W        W76200  13.273  27.122  11.003
 7838W        W76201  27.486  19.580  14.332
 7839W        W76202  40.879  31.583   1.402
 7840W        W76203  25.096  40.815  13.029
 7841W        W76204  25.687   3.391  10.532
 7842W        W76205   1.744   8.289  12.839
 7843W        W76206  16.223  43.811   2.754
 7844W        W76207   7.208  44.268   3.295
 7845W        W76208  44.288  18.284   2.736
 7846W        W76209  37.355   9.679  12.981
 7847W        W76210  42.883  29.085  11.902
 7848W        W76211   0.853  32.439  11.059
 7849W        W76212   8.859  19.682   4.351
 7850W        W76213  25.217  20.253  13.444
 7851W        W76214  16.304   6.823   1.280
 7852W        W76215   3.824   0.785   9.998
 7853W        W76216   2.813   3.948  14.506
 7854W        W76217  33.880  24.178   1.797
 7855W        W76218  18.056  11.715   1.826
 7856W        W76219  37.945   7.803   1.815
 7857W        W76220  24.624  19.086   0.822
 7858W        W76221  43.479   6.357   1.231
 7859W        W76222  33.570  18.739  12.894
 7860W        W76223  41.794  28.591   3.648
 7861W        W76224   2.268  26.481   2.337
 7862W        W76225   0.376  34.914  13.408
 7863W        W76226  40.530   6.770  14.886
 7864W        W76227   8.792  26.974  10.641
 7865W        W76228  16.138  17.683  13.962
 7866W        W76229  33.614   6.405   2.691
 7867W        W76230  39.402  27.670  12.010
 7868W        W76231  19.247  29.571   0.855
 7869W        W76232  30.606  39.869   1.253
 7870W        W76233  22.032  37.832   4.197
 7871W        W76234  12.135  22.567  12.956
 7872W        W76235   1.287  29.110   4.165
 7873W        W76236  18.655   4.369  11.003
 7874W        W76237  31.934  36.500  13.052
 7875W        W76238   7.366   3.897  13.827
 7876W        W76239   7.769  36.066   1.317
 7877W        W76240   7.690  35.555   4.798
 7878W        W76241  28.671  28.123  11.390
 7879W        W76242  30.618  22.020  14.375
 7880W        W76243   8.871   0.275  11.047
 7881W        W76244  13.238  18.568   3.782
 7882W        W76245  14.680  30.630  13.913
 7883W        W76246  41.471  23.002   1.229
 7884W        W76247   5.736  25.593   1.761
 7885W        W76248   1.762  36.524   0.875
 7886W        W76249  28.611  17.100  10.888
 7887W        W76250   9.222  29.964  11.122
 7888W        W76251  38.354  16.124   4.821
 7889W        W76252  18.123   2.878   2.802
 7890W        W76253   7.374  20.646  13.808
 7891W        W76254  28.632  27.531   1.754
 7892W        W76255  41.959   3.774   1.429
 7893W        W76256   7.415  36.550  12.062
 7894W        W76257  33.386   1.463  12.036
 7895W        W76258  29.126  31.968  10.544
 7896W        W76259  10.268  15.676   0.821
 7897W        W76260   7.806  25.100  11.475
 7898W        W76261  31.613  30.584   3.174
 7899W        W76262  27.983  38.976   0.302
 7900W        W76263   3.335  24.978  12.573
 7901W        W76264  44.902  36.496   4.641
 7902W        W76265  10.654  11.707  14.305
 7903W        W76266  23.165  11.352  11.977
 7904W        W76267  29.942   5.726  11.997
 7905W        W76268  38.008   6.843  11.453
 7906W        W76269  25.139   1.861  10.410
 7907W        W76270  16.780  10.707  13.508
 7908W        W76271  39.857  39.514   1.808
 7909W        W76272  25.150  42.419   4.251
 7910W        W76273  25.541  34.116  12.943
 7911W        W76274   5.725  44.803  12.969
 7912W        W76275  42.028  17.302  12.054
 7913W        W76276  31.516  15.639   2.871
 7914W        W76277  23.188  28.601  12.028
 7915W        W76278  29.031  37.059  14.819
 7916W        W76279  11.367   8.204  14.392
 7917W        W76280  16.272  20.759  11.044
 7918W        W76281   7.205   3.952  14.275
 7919W        W76282  25.978   1.767  10.587
 7920W        W76283   8.674  12.823   0.334
 7921W        W76284  16.773  24.576  12.048
 7922W        W76285  28.670  37.570   3.329
 7923W        W76286  20.213  25.468  11.485
 7924W        W76287  37.579   1.897   2.688
 7925W        W76288  32.954  18.130   1.929
 7926W        W76289  11.756  18.723  11.028
 7927W        W76290  30.160  30.605  14.800
 7928W        W76291  25.680  20.043   4.316
 7929W        W76292  32.035  14.740   3.163
 7930W        W76293   3.361  11.747  13.951
 7931W        W76294  41.358  23.524   1.334
 7932W        W76295  35.456  10.349   3.655
 7933W        W76296  42.305  42.911   2.666
 7934W        W76297  33.584  10.166   2.218
 7935W        W76298  18.613  39.877   2.812
 7936W        W76299  13.604  18.274  13.389
 7937W        W76300  28.941  26.595   0.963
 7938W        W76301  30.584  28.979  14.836
 7939W        W76302  17.790  41.824  11.477
 7940W        W76303  32.431  12.142  13.517
 7941W        W76304  26.474  25.971   3.216
 7942W        W76305  33.483   4.354  14.447
 7943W        W76306   4.285  42.371   2.677
 7944W        W76307   9.204  23.998   0.386
 7945W        W76308  36.352  20.223  10.462
 7946W        W76309  36.514  43.799   4.761
 7947W        W76310  40.939  33.014  13.545
 7948W        W76311  38.960   5.696  10.454
 7949W        W76312  14.161  39.440   3.763
 7950W        W76313  24.606  37.912   1.792
 7951W        W76314  33.623  32.132   4.227
 7952W        W76315  34.906   5.280  10.916
 7953W        W76316  35.572  24.008  13.848
 7954W        W76317  39.813  27.538   1.735
 7955W        W76318  34.113  36.361   4.121
 7956W        W76319  41.897  23.057   4.117
 7957W        W76320  21.068  37.832   5.310
 7958W        W76321  10.655  44.333  12.961
 7959W        W76322  17.576   8.735  14.956
 7960W        W76323   6.837  19.536  12.426
 7961W        W76324  22.085  37.850  13.911
 7962W        W76325   8.869  16.200  13.901
 7963W        W76326  43.991  26.552   9.988
 7964W        W76327  37.476   3.883  11.035
 7965W        W76328   4.731  32.048   2.723
 7966W        W76329  27.465  17.295   9.995
 7967W        W76330  14.651   6.418  10.966
 7968W        W76331  31.945  36.568   4.296
 7969W        W76332  30.630  14.262   3.809
 7970W        W76333   1.814  34.449  10.927
 7971W        W76334  39.531  26.557  13.858
 7972W        W76335   1.425  42.440   0.824
 7973W        W76336  40.533  13.197  12.064
 7974W        W76337  42.781  12.188   4.196
 7975W        W76338  28.589  24.136  13.811
 7976W        W76339   4.376  33.933   1.338
 7977W        W76340  14.727  12.213   0.468
 7978W        W76341  12.685  11.747   0.281
 7979W        W76342  43.403   3.297   1.380
 7980W        W76343  44.873  31.410  13.915
 7981W        W76344  32.637   2.249   0.287
 7982W        W76345  44.345  27.652  10.987
 7983W        W76346  12.779   4.727   0.353
 7984W        W76347  36.044   0.889   2.881
 7985W        W76348  43.285   8.674   3.631
 7986W        W76349   8.797   0.750   5.237
 7987W        W76350   7.780  11.343   2.895
 7988W        W76351  25.567   4.226  10.502
 7989W        W76352  10.147  38.072   0.873
 7990W        W76353  30.072  33.941  12.496
 7991W        W76354  22.086  11.231   1.277
 7992W        W76355  38.988  22.029  11.964
 7993W        W76356  40.309  25.189   0.760
 7994W        W76357  20.769  30.015   3.699
 7995W        W76358   0.841  39.881  13.402
 7996W        W76359   8.260  14.290  12.563
 7997W        W76360  32.427   2.367   3.673
 7998W        W76361  20.646  14.769  13.814
 7999W        W76362  17.220  32.446  14.862
 8000W        W76363  44.364  35.929   4.731
 8001W        W76364  12.677  19.261  10.889
 8002W        W76365  30.949  36.446  14.000
 8003W        W76366  39.402   2.739  12.432
 8004W        W76367  34.522   8.178  10.967
 8005W        W76368  32.048  24.136   4.185
 8006W        W76369   0.393   4.295  12.084
 8007W        W76370  30.093  23.514  12.931
 8008W        W76371  29.659  19.266   3.786
 8009W        W76372  42.942  44.282   0.324
 8010W        W76373  25.628  37.568  12.393
 8011W        W76374   8.857   7.775   2.821
 8012W        W76375  36.908  36.532   2.815
 8013W        W76376  19.570  28.539   1.251
 8014W        W76377   8.195  35.428   0.252
 8015W        W76378  26.032  41.379  13.400
 8016W        W76379  24.534  16.785  10.505
 8017W        W76380   9.745  31.930   2.294
 8018W        W76381  38.900  32.446   2.683
 8019W        W76382  15.644   8.742   1.860
 8020W        W76383  40.900  11.844  14.431
 8021W        W76384  43.273  18.198  12.857
 8022W        W76385  32.094  32.130   4.789
 8023W        W76386  41.478  43.846   0.791
 8024W        W76387  40.981  39.544   3.865
 8025W        W76388  26.534   6.354   3.209
 8026W        W76389   0.340  27.066  12.824
 8027W        W76390   9.319   5.709   2.361
 8028W        W76391  42.492   9.196   1.400
 8029W        W76392   6.702   2.298  14.017
 8030W        W76393  26.980  14.745  13.855
 8031W        W76394  21.532  36.892  11.444
 8032W        W76395  40.382  42.818  12.509
 8033W        W76396   9.280   6.807  10.944
 8034W        W76397  16.598  23.029   0.735
 8035W        W76398  40.343   5.341   0.910
 8036W        W76399  35.426  20.035  13.062
 8037W        W76400  24.981  41.866   0.472
 8038W        W76401  15.741  43.785  13.499
 8039W        W76402  11.163   4.434   4.783
 8040W        W76403  39.434  33.063  14.810
 8041W        W76404  26.595  11.192  14.762
 8042W        W76405   7.766   1.930   3.841
 8043W        W76406  36.973   6.689   3.174
 8044W        W76407  39.391   6.391   1.450
 8045W        W76408  32.473  24.048  13.382
 8046W        W76409   1.800  39.875  13.443
 8047W        W76410  41.379  19.547   4.765
 8048W        W76411  35.889  15.138  13.479
 8049W        W76412   7.865  27.515   3.277
 8050W        W76413  26.571  31.089   1.722
 8051W        W76414  31.149  21.233  13.323
 8052W        W76415  22.059  20.719   4.616
 8053W        W76416  15.798  10.354   2.369
 8054W        W76417  21.196  14.672  10.507
 8055W        W76418  33.911  44.479  12.915
 8056W        W76419  23.733  25.017   2.744
 8057W        W76420  32.038  33.965  12.957
 8058W        W76421  37.946  10.693  14.965
 8059W        W76422  18.224  10.276   1.290
 8060W        W76423   3.443  42.348   4.237
 8061W        W76424  27.468   8.726   3.153
 8062W        W76425  32.111  35.897   3.841
 8063W        W76426  17.678  35.500   2.783
 8064W        W76427  41.474  20.041   0.796
 8065W        W76428  20.242  41.447  10.085
 8066W        W76429  34.489  21.742   0.863
 8067W        W76430  22.018  39.392   0.904
 8068W        W76431   0.971  16.784   0.848
 8069W        W76432   5.337  33.475  11.858
 8070W        W76433  30.966   3.241  10.945
 8071W        W76434  42.915  17.184  12.401
 8072W        W76435  17.657  38.548   2.791
 8073W        W76436  33.026  33.601  12.913
 8074W        W76437  43.357   2.328  13.963
 8075W        W76438   4.804  32.961  14.975
 8076W        W76439  16.264   7.416  11.542
 8077W        W76440  33.494   8.202  12.422
 8078W        W76441  43.893  11.139   1.798
 8079W        W76442   5.806  40.892  10.627
 8080W        W76443  31.916  40.895  10.436
 8081W        W76444  20.210   8.800   2.891
 8082W        W76445  13.819  19.773  11.543
 8083W        W76446  22.574  29.436   0.271
 8084W        W76447  16.670  39.865   2.740
 8085W        W76448  15.767   5.232   4.205
 8086W        W76449   3.842  21.512  12.530
 8087W        W76450  11.290  15.792  10.453
 8088W        W76451  42.492   4.742   0.341
 8089W        W76452  21.243  10.861  13.815
 8090W        W76453  15.730  36.021  13.888
 8091W        W76454  38.501  15.103   2.407
 8092W        W76455  30.099  38.858   2.363
 8093W        W76456   6.879   5.276   1.244
 8094W        W76457  30.636  16.743  12.414
 8095W        W76458  38.930  38.867  12.851
 8096W        W76459  16.643   1.956  11.379
 8097W        W76460  23.016  42.345   4.816
 8098W        W76461  22.562   3.334  12.966
 8099W        W76462  20.072  34.452  14.410
 8100W        W76463  31.482  13.627  10.518
 8101W        W76464  24.001  36.495  14.394
 8102W        W76465  32.118  25.517   3.863
 8103W        W76466  30.630   4.284  14.776
 8104W        W76467   3.248   1.814   4.158
 8105W        W76468  44.822  44.754  13.919
 8106W        W76469   7.709  39.523  12.958
 8107W        W76470  38.999   0.789  10.950
 8108W        W76471  14.740   1.317  13.340
 8109W        W76472   0.971  41.506   1.425
 8110W        W76473  15.602   4.423   4.119
 8111W        W76474  12.250  28.039  13.356
 8112W        W76475   8.160   2.355   4.777
 8113W        W76476  19.718  19.193  11.389
 8114W        W76477  30.136  40.033   2.357
 8115W        W76478  18.688  36.372  10.946
 8116W        W76479  43.353  35.969   1.359
 8117W        W76480  18.628  18.235   1.249
 8118W        W76481  15.209  22.046  11.452
 8119W        W76482  38.888  26.109  14.915
 8120W        W76483  35.879  18.087  14.353
 8121W        W76484  17.566  39.368   4.715
 8122W        W76485  11.624  22.057  11.102
 8123W        W76486   5.272   2.326  10.436
 8124W        W76487  17.135  17.785   2.688
 8125W        W76488   4.225  31.988  13.829
 8126W        W76489   9.644  44.270   1.783
 8127W        W76490   9.826  25.978   0.383
 8128W        W76491   3.876   0.745  11.439
 8129W        W76492   1.780  36.536   1.326
 8130W        W76493   4.903  16.220  14.771
 8131W        W76494  28.008  10.372  14.021
 8132W        W76495  27.547  11.712   3.679
 8133W        W76496  16.298  29.428   2.374
 8134W        W76497  12.123  33.956   3.772
 8135W        W76498  24.061  39.918  14.818
 8136W        W76499   1.849  38.449  13.314
 8137W        W76500   3.814  19.632   2.866
 8138W        W76501  18.592  14.285  13.816
 8139W        W76502   4.261  42.869  14.419
 8140W        W76503  35.066  10.799  13.060
 8141W        W76504  27.944  41.925   3.792
 8142W        W76505  18.104  14.671   1.894
 8143W        W76506  42.969  44.872   1.234
 8144W        W76507   2.347   2.735  13.035
 8145W        W76508  21.619  40.417   3.215
 8146W        W76509  34.414   3.866   3.336
 8147W        W76510  33.414  32.401  13.004
 8148W        W76511  33.469  36.520   4.777
 8149W        W76512  20.705  27.111  14.446
 8150W        W76513  37.084  32.602  10.444
 8151W        W76514   2.902  17.297   2.343
 8152W        W76515  16.287  17.793  10.899
 8153W        W76516   1.886   4.260   3.345
 8154W        W76517   0.399   6.761  10.446
 8155W        W76518  34.114   5.401  13.411
 8156W        W76519  19.562  38.979   3.378
 8157W        W76520  36.348  33.537  12.504
 8158W        W76521  31.005  35.879  11.020
 8159W        W76522  31.116  21.146   3.281
 8160W        W76523  34.965  16.302  10.605
 8161W        W76524  34.994   8.333   3.665
 8162W        W76525  14.603  42.488   1.302
 8163W        W76526  26.492  36.894   1.797
 8164W        W76527  17.218   7.738  12.946
 8165W        W76528  17.243  30.566   4.327
 8166W        W76529   5.709  27.141  10.520
 8167W        W76530  37.045  37.387  11.906
 8168W        W76531  17.263   1.754  13.511
 8169W        W76532  20.659  34.900   2.747
 8170W        W76533  26.566  33.936   1.448
 8171W        W76534   8.722  12.666  10.455
 8172W        W76535  38.991   8.229   0.285
 8173W        W76536  18.166  38.374  13.539
 8174W        W76537   1.352  30.067   3.354
 8175W        W76538  23.012  15.135  13.816
 8176W        W76539  21.643   9.820   1.351
 8177W        W76540  19.541  42.922   4.193
 8178W        W76541  18.566  18.168   3.735
 8179W        W76542   7.381  30.486  10.494
 8180W        W76543  30.573   7.336   1.273
 8181W        W76544  23.170  29.955   1.923
 8182W        W76545   7.700  44.821  11.454
 8183W        W76546  22.060  24.075  11.112
 8184W        W76547   9.340   1.949  10.602
 8185W        W76548  37.027  44.900   4.128
 8186W        W76549  36.972   6.346  14.350
 8187W        W76550  31.933  13.223   1.358
 8188W        W76551  15.152  41.043   2.795
 8189W        W76552  23.139  11.130  14.453
 8190W        W76553  14.693  42.795   3.251
 8191W        W76554  30.107  28.574  14.457
 8192W        W76555  39.452  41.970   3.799
 8193W        W76556  31.614  35.080   1.695
 8194W        W76557   8.725  21.105  12.492
 8195W        W76558  22.710  41.964  12.992
 8196W        W76559   1.978  24.714   1.404
 8197W        W76560   5.268  11.246   1.264
 8198W        W76561  10.814  22.018  12.956
 8199W        W76562  13.721   4.833   4.255
 8200W        W76563  11.626   5.311   4.787
 8201W        W76564  22.118  18.700  14.454
 8202W        W76565  36.929  20.030  14.337
 8203W        W76566   9.836  40.972   3.243
 8204W        W76567  30.562  21.720   1.710
 8205W        W76568   7.339  41.482   3.222
 8206W        W76569  15.323   1.324   3.369
 8207W        W76570  36.523  18.056   2.822
 8208W        W76571   1.769  16.589  14.931
 8209W        W76572  37.969  42.973   3.192
 8210W        W76573   0.743   2.305  14.357
 8211W        W76574  43.018  31.606  14.414
 8212W        W76575   8.822   2.950   0.950
 8213W        W76576  16.272  38.338   1.822
 8214W        W76577  17.709  29.960  13.384
 8215W        W76578   7.377   1.387  12.967
 8216W        W76579  32.946   0.412  11.594
 8217W        W76580  29.426  15.214  10.545
 8218W        W76581   1.286  28.082   4.265
 8219W        W76582  30.158  15.607  10.565
 8220W        W76583  40.523  22.666  11.048
 8221W        W76584  31.537  22.061   0.739
 8222W        W76585  41.481  31.966  12.843
 8223W        W76586  32.090   9.301  11.012
 8224W        W76587  16.589  21.572  14.501
 8225W        W76588  43.795  25.632   1.789
 8226W        W76589  11.358  12.822   1.246
 8227W        W76590  13.717  42.394   4.227
 8228W        W76591  32.982   4.862  14.290
 8229W        W76592   1.756   9.393  11.017
 8230W        W76593  40.357   3.259  10.446
 8231W        W76594   4.741  42.400  14.443
 8232W        W76595  21.170  16.112   0.458
 8233W        W76596  26.629  17.268   4.307
 8234W        W76597  29.649  26.183  11.474
 8235W        W76598  33.971  32.604  12.580
 8236W        W76599   6.730  35.045  11.525
 8237W        W76600  16.082  26.489   4.748
 8238W        W76601  12.820  37.435  12.978
 8239W        W76602  26.108   5.364  12.868
 8240W        W76603  23.240  32.050  12.985
 8241W        W76604  35.575  28.521   4.174
 8242W        W76605  29.510  10.641  12.096
 8243W        W76606   7.259  41.303  12.045
 8244W        W76607  18.601   8.160   0.337
 8245W        W76608  28.464  29.524   3.270
 8246W        W76609  43.471  41.876   0.941
 8247W        W76610  25.076   6.354   3.855
 8248W        W76611  10.244  28.998  12.080
 8249W        W76612  13.685  25.640  13.493
 8250W        W76613   4.880   7.231   4.124
 8251W        W76614  24.145  41.374  13.959
 8252W        W76615  23.987   8.228   0.826
 8253W        W76616  36.553  44.326   2.732
 8254W        W76617   5.320  35.557   4.694
 8255W        W76618  13.161   5.420  13.802
 8256W        W76619   2.867  41.974  10.422
 8257W        W76620  41.386  39.817   4.599
 8258W        W76621  31.027   8.784   3.742
 8259W        W76622  31.455  32.565   3.188
 8260W        W76623  15.673  32.435  14.025
 8261W        W76624  37.486   6.314   1.926
 8262W        W76625  25.489  18.554  11.449
 8263W        W76626   2.734  43.503  12.863
 8264W        W76627   8.819  33.027   1.403
 8265W        W76628   4.306  31.947   2.844
 8266W        W76629  42.838  19.566   2.329
 8267W        W76630  29.479   8.241   3.273
 8268W        W76631  20.028   9.724   4.257
 8269W        W76632  23.627   7.679  14.491
 8270W        W76633  29.426  12.640  10.631
 8271W        W76634  40.812   2.264  13.810
 8272W        W76635  40.496  41.834   5.145
 8273W        W76636  10.141  18.202   3.712
 8274W        W76637  35.037  36.028   2.806
 8275W        W76638  13.236  17.175  13.819
 8276W        W76639   3.386  37.374  12.979
 8277W        W76640   7.375   9.766   3.751
 8278W        W76641  41.844  22.211   2.773
 8279W        W76642   3.287   4.314   0.264
 8280W        W76643   5.325  12.223  14.360
 8281W        W76644  34.985  17.654  11.612
 8282W        W76645  33.108  28.583  12.872
 8283W        W76646  37.038   2.830  10.484
 8284W        W76647  31.560  24.089   2.184
 8285W        W76648  40.851   2.334   1.381
 8286W        W76649  22.211  33.120  12.915
 8287W        W76650  16.680  28.608   4.640
 8288W        W76651  43.874  27.101   1.385
 8289W        W76652   4.856   0.755   1.799
 8290W        W76653  17.605  28.019   3.749
 8291W        W76654  10.856  30.651   1.893
 8292W        W76655  35.513  29.607  14.277
 8293W        W76656  42.796  17.121   4.203
 8294W        W76657  35.957  23.011  11.549
 8295W        W76658  33.451  25.529  10.440
 8296W        W76659   9.685  12.310   3.862
 8297W        W76660  15.748  42.281  11.604
 8298W        W76661  44.260  37.503  14.980
 8299W        W76662  19.076  35.093   4.152
 8300W        W76663   2.754  42.005   4.768
 8301W        W76664  19.541   2.950  12.923
 8302W        W76665  40.029   1.458  13.321
 8303W        W76666  19.762  21.738  13.034
 8304W        W76667  19.041  17.065   4.756
 8305W        W76668   9.767  20.172  13.001
 8306W        W76669  25.480  33.399  13.809
 8307W        W76670   5.394  44.288  12.371
 8308W        W76671  26.955  31.998   1.830
 8309W        W76672   8.888  38.499  13.009
 8310W        W76673  18.661  19.211  13.017
 8311W        W76674  17.249  13.826  12.037
 8312W        W76675  44.394  32.636   1.782
 8313W        W76676  15.759  39.884   4.774
 8314W        W76677  27.571  16.570   5.646
 8315W        W76678  32.534  16.248   0.372
 8316W        W76679  30.953   0.343  10.900
 8317W        W76680  14.307   4.400  10.033
 8318W        W76681   1.905  34.557  14.922
 8319W        W76682  37.366  23.693   2.831
 8320W        W76683  25.570  12.226   3.639
 8321W        W76684  37.900  30.021  13.943
 8322W        W76685  39.952  32.094   3.636
 8323W        W76686  28.560  44.910   1.413
 8324W        W76687   9.192   5.861   0.757
 8325W        W76688  35.491   1.254  13.355
 8326W        W76689  17.258   1.449   4.660
 8327W        W76690  43.427  16.691  11.930
 8328W        W76691  36.443  34.481  10.960
 8329W        W76692   6.762  19.257  14.879
 8330W        W76693  24.569  13.251   4.304
 8331W        W76694  30.421   2.867  10.608
 8332W        W76695   5.795  30.076   4.150
 8333W        W76696  10.669  31.949   3.146
 8334W        W76697  20.761   6.875  11.119
 8335W        W76698  19.163  24.085   3.346
 8336W        W76699  38.353  34.932   4.637
 8337W        W76700  39.001   6.268  13.494
 8338W        W76701  36.543  26.663  13.322
 8339W        W76702   7.240  16.702   2.689
 8340W        W76703  40.464  31.930  11.374
 8341W        W76704  38.893  31.493  13.348
 8342W        W76705   1.967  20.072  10.612
 8343W        W76706  13.734  39.955  13.970
 8344W        W76707  23.528  18.149   3.322
 8345W        W76708  12.202   0.406  13.943
 8346W        W76709   9.741   4.409   4.639
 8347W        W76710  41.507  10.697  14.013
 8348W        W76711  35.936  28.124  11.398
 8349W        W76712  10.735  36.064  13.333
 8350W        W76713  21.033   4.885  13.802
 8351W        W76714  36.364  41.331   2.273
 8352W        W76715  38.371  16.251   0.961
 8353W        W76716   0.393  28.165   2.874
 8354W        W76717  10.156  21.676   2.333
 8355W        W76718  31.457  44.848   5.632
 8356W        W76719   3.807  37.860  12.064
 8357W        W76720  33.470  25.711  11.417
 8358W        W76721  43.508  28.982  13.393
 8359W        W76722  28.961  16.717  11.424
 8360W        W76723  21.145  24.117   1.798
 8361W        W76724  29.054  25.690   0.284
 8362W        W76725  22.122  11.650  14.874
 8363W        W76726   2.294  44.983  13.328
 8364W        W76727  33.030  39.364   2.896
 8365W        W76728  19.624  15.650  12.419
 8366W        W76729  23.212  13.815  10.948
 8367W        W76730  23.533  15.263   0.357
 8368W        W76731  32.051  42.858  14.288
 8369W        W76732  20.679  29.938   2.191
 8370W        W76733  27.046  22.595   1.875
 8371W        W76734  39.046  35.070   4.281
 8372W        W76735  37.010  24.084  13.044
 8373W        W76736  35.381  35.025  14.851
 8374W        W76737  17.563  30.423  12.540
 8375W        W76738  32.123  40.020  13.905
 8376W        W76739   0.262  10.177  12.907
 8377W        W76740  23.187  23.082  10.917
 8378W        W76741  17.651  32.539  11.960
 8379W        W76742  12.314  39.815  13.533
 8380W        W76743  23.617  33.941  13.848
 8381W        W76744  36.064  20.743   0.830
 8382W        W76745  21.530  14.136   5.096
 8383W        W76746  23.543  37.401   3.280
 8384W        W76747  40.952  26.656  12.071
 8385W        W76748  11.193  13.780  11.591
 8386W        W76749  43.871   6.213  13.442
 8387W        W76750  34.409  15.580  13.365
 8388W        W76751  23.636  15.600   4.125
 8389W        W76752  30.014  14.271   3.335
 8390W        W76753  35.865  40.362  14.988
 8391W        W76754  37.885  40.483   3.217
 8392W        W76755   1.895   8.762  12.011
 8393W        W76756  15.257  19.577   4.127
 8394W        W76757  13.755   2.303   3.850
 8395W        W76758  39.488   2.789  14.901
 8396W        W76759  43.816  42.449  12.839
 8397W        W76760  10.304  19.625  10.406
 8398W        W76761  31.010  19.671  14.358
 8399W        W76762   9.295  35.064   1.743
 8400W        W76763   7.367  10.311  14.298
 8401W        W76764  21.517  10.875   1.268
 8402W        W76765  23.570  40.471  10.486
 8403W        W76766  21.231  40.993  11.123
 8404W        W76767  12.222  22.636   1.834
 8405W        W76768  37.369   4.799   2.675
 8406W        W76769  43.391   1.253   4.120
 8407W        W76770  11.803  11.181  14.443
 8408W        W76771  13.246  29.938  12.080
 8409W        W76772  21.542  40.355  13.515
 8410W        W76773  40.970   5.288   3.756
 8411W        W76774   1.818  25.494   2.862
 8412W        W76775  26.530  38.046   4.800
 8413W        W76776   5.703  10.380  13.880
 8414W        W76777  26.635  27.486  14.287
 8415W        W76778   1.333  11.198   4.235
 8416W        W76779  35.493  11.847  12.437
 8417W        W76780  34.483  20.769  11.521
 8418W        W76781  14.669  37.461   3.825
 8419W        W76782   3.788  27.545  14.365
 8420W        W76783  39.038  26.663  13.405
 8421W        W76784  29.939   5.287  10.921
 8422W        W76785  16.743   1.874   2.408
 8423W        W76786  13.654  15.313  12.999
 8424W        W76787  21.667  40.797  13.545
 8425W        W76788  16.282  29.110   1.814
 8426W        W76789  24.047   5.746   1.393
 8427W        W76790  14.225  29.486   2.339
 8428W        W76791  44.281   9.330  14.410
 8429W        W76792  19.577  33.903   2.664
 8430W        W76793  28.674  25.034   0.285
 8431W        W76794  22.014  11.847  12.503
 8432W        W76795  27.512  14.222  13.477
 8433W        W76796   9.366  13.237   2.877
 8434W        W76797  43.406  17.104  14.822
 8435W        W76798  22.155  42.445  10.965
 8436W        W76799  26.100   7.864   3.207
 8437W        W76800  29.582  30.151  14.031
 8438W        W76801  21.726  18.241  12.916
 8439W        W76802  40.438   2.318   1.354
 8440W        W76803  33.981  42.788   2.233
 8441W        W76804  30.998  10.723  13.879
 8442W        W76805  26.589  19.638   2.744
 8443W        W76806  13.781  28.474   0.310
 8444W        W76807   0.397  38.527   3.784
 8445W        W76808  20.263  34.872   3.706
 8446W        W76809  12.255  13.754   1.806
 8447W        W76810  44.872  29.430  13.506
 8448W        W76811  19.095  31.985  11.608
 8449W        W76812  19.168   5.725  12.904
 8450W        W76813  20.047  40.484  11.582
 8451W        W76814  36.922  15.230   4.295
 8452W        W76815  40.799  41.920  12.889
 8453W        W76816  38.349  32.933   4.225
 8454W        W76817  15.664  42.837  13.536
 8455W        W76818  11.128   7.750   2.238
 8456W        W76819  20.732  13.248   1.369
 8457W        W76820  29.035  44.471  14.384
 8458W        W76821  10.878  42.373  13.039
 8459W        W76822  22.605   7.702   3.336
 8460W        W76823  13.655  27.517   3.290
 8461W        W76824  30.642  13.744   4.322
 8462W        W76825  38.874  14.313  12.096
 8463W        W76826  20.119  17.741   0.858
 8464W        W76827  30.593  31.907   3.749
 8465W        W76828  26.521   4.724   0.850
 8466W        W76829   2.902   9.796  12.394
 8467W        W76830  11.721  21.229  11.055
 8468W        W76831  15.597   8.178  10.644
 8469W        W76832  34.561   0.327   2.241
 8470W        W76833  40.983  16.261  12.926
 8471W        W76834  13.280  11.315  13.398
 8472W        W76835   1.938  19.152   4.198
 8473W        W76836  43.829  25.047   2.782
 8474W        W76837  23.553  33.974   0.927
 8475W        W76838  43.849  32.020  13.461
 8476W        W76839   9.263  26.459   3.239
 8477W        W76840  37.422  41.470   3.705
 8478W        W76841  32.141  21.682   4.647
 8479W        W76842   8.346  10.298   1.865
 8480W        W76843   5.333  28.033  10.982
 8481W        W76844  38.033  36.943   2.759
 8482W        W76845  21.602  13.331   1.249
 8483W        W76846  42.490  39.840  14.415
 8484W        W76847  17.741  42.783  10.570
 8485W        W76848   3.378  10.812   1.827
 8486W        W76849  32.504  41.997   0.938
 8487W        W76850  19.598  37.494   3.280
 8488W        W76851  18.698  21.043  10.153
 8489W        W76852   8.171  42.971  12.439
 8490W        W76853   2.742  13.213   1.432
 8491W        W76854   9.293  19.615   1.728
 8492W        W76855  40.455  17.151   1.342
 8493W        W76856  31.148  38.339   0.344
 8494W        W76857  12.126  18.208  12.906
 8495W        W76858  13.154  27.162   2.315
 8496W        W76859  15.187  29.480  13.353
 8497W        W76860  40.473   1.747   0.887
 8498W        W76861  28.148  23.169  12.859
 8499W        W76862  13.152  15.199   0.318
 8500W        W76863  26.129  12.182  12.514
 8501W        W76864   6.423  14.172  11.512
 8502W        W76865   6.735   9.792  13.979
 8503W        W76866   3.816  44.935  11.126
 8504W        W76867  40.946   5.296  12.000
 8505W        W76868  19.662  20.031   4.725
 8506W        W76869  23.684   2.774   0.912
 8507W        W76870  44.446   4.766   2.855
 8508W        W76871   2.770   1.854   0.260
 8509W        W76872   5.368  14.752   1.867
 8510W        W76873  33.543  35.401   1.860
 8511W        W76874  13.623  12.855   1.284
 8512W        W76875   0.310  30.973   3.716
 8513W        W76876  41.522  17.636   4.355
 8514W        W76877  41.537  32.433  14.415
 8515W        W76878  40.872  38.960   0.351
 8516W        W76879   7.336   0.940  10.917
 8517W        W76880  22.706  30.119  10.608
 8518W        W76881   5.313  15.177   1.231
 8519W        W76882  28.110  26.574   5.291
 8520W        W76883  22.515  37.506   0.271
 8521W        W76884  36.079  19.706   2.249
 8522W        W76885  15.824  35.541  13.395
 8523W        W76886  11.357  23.512  14.499
 8524W        W76887   5.299  41.886  13.842
 8525W        W76888  28.141  34.402  13.943
 8526W        W76889   7.313   7.816  11.872
 8527W        W76890  16.760   9.348  12.348
 8528W        W76891  10.791  37.863  11.452
 8529W        W76892  42.981   5.332   0.397
 8530W        W76893  33.550  20.535   4.287
 8531W        W76894  29.569  39.887  11.987
 8532W        W76895   4.928   8.305  14.000
 8533W        W76896  23.491   8.339   1.872
 8534W        W76897  14.309  27.963   3.177
 8535W        W76898  34.481  29.577   4.237
 8536W        W76899   1.348   8.269  14.003
 8537W        W76900   4.435  10.739  12.868
 8538W        W76901  13.809  31.984   0.319
 8539W        W76902   5.247  18.165  12.066
 8540W        W76903  24.616  27.504   3.238
 8541W        W76904  29.017   6.834  10.924
 8542W        W76905   8.184  17.738  13.974
 8543W        W76906   0.833   8.745   1.709
 8544W        W76907   9.337  12.614   2.307
 8545W        W76908   9.728  21.681  10.936
 8546W        W76909  36.032  29.561   3.796
 8547W        W76910  10.310  42.893   4.195
 8548W        W76911  44.762  36.061  14.351
 8549W        W76912  27.467  36.992   3.669
 8550W        W76913  22.603  24.004  12.943
 8551W        W76914  19.098  26.636   2.327
 8552W        W76915  11.200   6.808   2.771
 8553W        W76916   2.462  10.781  13.399
 8554W        W76917  10.669  37.082   2.251
 8555W        W76918  42.781  36.972   4.316
 8556W        W76919  19.044  42.031  14.359
 8557W        W76920  17.775  44.346  12.854
 8558W        W76921  14.171  33.581   1.884
 8559W        W76922  40.901  11.355   0.253
 8560W        W76923   9.303  11.265   4.275
 8561W        W76924  40.399  28.030  14.512
 8562W        W76925  19.111   3.734   0.453
 8563W        W76926  24.102  20.042  12.881
 8564W        W76927  21.190  26.104   2.704
 8565W        W76928  25.713  13.707   1.855
 8566W        W76929  31.955  35.882   0.253
 8567W        W76930  18.291   2.888   1.934
 8568W        W76931  28.083  14.738   3.768
 8569W        W76932  11.844  44.431  10.086
 8570W        W76933  11.240   7.368   4.736
 8571W        W76934  24.146  41.954  11.579
 8572W        W76935   2.338  37.538  10.561
 8573W        W76936   2.314   0.800  11.107
 8574W        W76937   2.299  12.362  14.387
 8575W        W76938  13.634  41.320   2.669
 8576W        W76939   0.742  34.405  13.499
 8577W        W76940   5.204   4.810  12.445
 8578W        W76941  15.285  18.198   3.185
 8579W        W76942  25.631  14.095  13.417
 8580W        W76943  37.914  39.353   2.757
 8581W        W76944  44.865  21.618  12.471
 8582W        W76945  41.483  33.468  10.888
 8583W        W76946  18.241  40.992  13.962
 8584W        W76947  32.036   4.791   2.689
 8585W        W76948   6.808  15.275  13.830
 8586W        W76949  33.885   6.293  10.981
 8587W        W76950  31.088  11.732   3.344
 8588W        W76951  24.976   5.860   3.658
 8589W        W76952  44.444   8.400  11.430
 8590W        W76953  10.238   6.820  12.973
 8591W        W76954  38.863  33.401   1.295
 8592W        W76955  13.777  18.179   4.113
 8593W        W76956  24.661  26.125  12.512
 8594W        W76957  22.513  20.274  14.367
 8595W        W76958  37.922  42.861  11.432
 8596W        W76959  11.766  44.406   4.696
 8597W        W76960  12.615  42.498  12.089
 8598W        W76961  15.160   6.385   3.637
 8599W        W76962  35.377  18.660  11.971
 8600W        W76963  35.519  15.295  14.346
 8601W        W76964  30.472  31.143  10.982
 8602W        W76965   1.976  12.617   3.692
 8603W        W76966   1.458  28.169   0.406
 8604W        W76967  14.832   8.313  13.987
 8605W        W76968  29.111  42.392   0.383
 8606W        W76969  34.499  22.680  14.501
 8607W        W76970  21.534  31.437  10.494
 8608W        W76971   4.924  14.289  14.412
 8609W        W76972  16.167  10.693   0.260
 8610W        W76973  26.112  15.189  11.422
 8611W        W76974   3.305  20.137  11.394
 8612W        W76975  28.071  41.451  14.282
 8613W        W76976  37.073  13.347   9.671
 8614W        W76977  38.073  19.674   2.856
 8615W        W76978  20.536  34.992  13.014
 8616W        W76979  19.222   6.702  13.401
 8617W        W76980  40.916  35.561  14.970
 8618W        W76981   7.867  19.717   0.466
 8619W        W76982   9.734   3.906   4.820
 8620W        W76983  14.165  13.685  14.787
 8621W        W76984  34.933  24.010  11.525
 8622W        W76985  39.975  30.083   0.795
 8623W        W76986  31.086  31.438   1.325
 8624W        W76987  23.506  29.983  12.527
 8625W        W76988  11.173   2.947  11.436
 8626W        W76989  19.251  18.242   4.305
 8627W        W76990  31.466   6.350   1.222
 8628W        W76991  25.033  23.181   2.684
 8629W        W76992  18.163   0.347  14.826
 8630W        W76993  25.129  11.332  12.058
 8631W        W76994  42.941   6.846  11.120
 8632W        W76995  25.177  29.434   5.092
 8633W        W76996  23.117   8.392   4.272
 8634W        W76997  32.946  39.923   3.782
 8635W        W76998  35.472  39.823  13.475
 8636W        W76999  31.134  18.160  12.978
 8637W        W77000   5.411   6.733  13.897
 8638W        W77001  40.911  20.703  10.607
 8639W        W77002  10.148  38.915   3.770
 8640W        W77003  30.505  36.084  12.842
 8641W        W77004  42.421  29.625   3.742
 8642W        W77005   2.347  12.819  11.930
 8643W        W77006   7.780   4.286  14.391
 8644W        W77007  11.749  40.546   1.311
 8645W        W77008  12.125  32.988  10.575
 8646W        W77009  32.447  30.011   2.746
 8647W        W77010  10.676  28.059  11.978
 8648W        W77011  41.459  17.654  12.449
 8649W        W77012  27.182  39.001   0.796
 8650W        W77013  20.742   3.334  10.602
 8651W        W77014  28.491  18.774   4.767
 8652W        W77015  29.624  21.676   4.125
 8653W        W77016  42.809  34.876  13.512
 8654W        W77017  24.168  16.211  11.474
 8655W        W77018   4.447   6.764   2.786
 8656W        W77019  27.978  40.468   3.292
 8657W        W77020  15.755   9.888  10.922
 8658W        W77021   7.291  32.458   3.816
 8659W        W77022  42.002  13.828  13.979
 8660W        W77023   7.400  25.216   4.646
 8661W        W77024  23.497  27.672   1.782
 8662W        W77025  10.340  41.876  11.967
 8663W        W77026  42.439  37.363   2.903
 8664W        W77027  36.557   4.714   3.311
 8665W        W77028   8.242   6.372   0.811
 8666W        W77029  26.474  44.860   0.258
 8667W        W77030  20.219  12.773  12.026
 8668W        W77031  14.338  24.506  10.893
 8669W        W77032  11.318  13.307  12.409
 8670W        W77033  23.087  16.203  10.588
 8671W        W77034  43.396   2.802   0.413
 8672W        W77035   4.904  43.484   3.243
 8673W        W77036  37.390   8.895   3.361
 8674W        W77037  36.933   8.869   0.731
 8675W        W77038  10.276  37.028   1.213
 8676W        W77039  44.392  11.305  10.997
 8677W        W77040  31.068  12.812  10.419
 8678W        W77041  19.117  36.525  13.541
 8679W        W77042  13.317  39.015  10.553
 8680W        W77043  42.816   4.913   1.921
 8681W        W77044   0.880  20.182  13.010
 8682W        W77045   7.211  14.149  13.027
 8683W        W77046  22.017  14.680   0.413
 8684W        W77047  21.532  17.061  10.637
 8685W        W77048  24.121  34.028  13.998
 8686W        W77049   2.920  14.608   3.714
 8687W        W77050  30.921  14.742  11.547
 8688W        W77051  40.504   0.435  11.488
 8689W        W77052  23.582   8.201   2.413
 8690W        W77053  44.959  17.648  12.526
 8691W        W77054  30.916   2.250   2.902
 8692W        W77055  42.939  18.250   1.384
 8693W        W77056  39.427  22.105   3.698
 8694W        W77057  21.624  24.096  12.834
 8695W        W77058  14.129   6.895   4.718
 8696W        W77059  40.445  17.734   1.327
 8697W        W77060  23.538   2.418  12.850
 8698W        W77061  26.631  37.077  13.930
 8699W        W77062   4.758   6.887  12.091
 8700W        W77063  19.704  10.278  12.361
 8701W        W77064  28.003  12.849   0.383
 8702W        W77065   1.975  26.198   3.633
 8703W        W77066  34.072  28.127  11.494
 8704W        W77067  19.619  12.348  13.864
 8705W        W77068  28.544  13.166   4.685
 8706W        W77069  30.024  19.539  12.843
 8707W        W77070  11.751  31.940   9.995
 8708W        W77071  41.956  31.058   4.346
 8709W        W77072   0.428   2.858  13.452
 8710W        W77073  31.525  30.570   9.448
 8711W        W77074   7.672   9.889  12.949
 8712W        W77075  43.924  41.997   1.214
 8713W        W77076  28.139  44.765   3.774
 8714W        W77077   8.168  40.531  11.044
 8715W        W77078  10.338  36.000   1.286
 8716W        W77079  44.932  43.349  14.360
 8717W        W77080  11.780  26.015  13.819
 8718W        W77081  25.986  33.881  11.071
 8719W        W77082  21.198  43.478  12.367
 8720W        W77083  15.590  20.693   5.316
 8721W        W77084  10.364  14.674   1.910
 8722W        W77085   0.293  34.521  12.027
 8723W        W77086   7.667  36.467  11.483
 8724W        W77087   0.809  40.811   3.811
 8725W        W77088   7.235  20.150  10.565
 8726W        W77089  26.129  14.666  10.438
 8727W        W77090  25.176   4.380  14.843
 8728W        W77091  31.608   4.334  12.343
 8729W        W77092  42.342  25.488   1.323
 8730W        W77093  23.673  41.497   3.675
 8731W        W77094  15.198  35.085  12.935
 8732W        W77095  11.695  35.928  13.386
 8733W        W77096  35.034  38.903  13.979
 8734W        W77097  16.128  11.744  11.547
 8735W        W77098  28.965  30.501  10.991
 8736W        W77099   4.437  16.716   2.184
 8737W        W77100  41.866  12.301  14.923
 8738W        W77101  16.625  30.117  13.410
 8739W        W77102  26.526  27.464   0.750
 8740W        W77103  20.067  42.874  13.384
 8741W        W77104   6.235  16.187  14.869
 8742W        W77105  24.106  26.952  11.538
 8743W        W77106  33.959  22.653  10.959
 8744W        W77107  35.923  35.593  12.959
 8745W        W77108   8.389  30.472   1.932
 8746W        W77109  20.738  27.025  12.866
 8747W        W77110  32.004  43.943   3.679
 8748W        W77111  34.052  39.056  12.425
 8749W        W77112  41.368  24.512   2.864
 8750W        W77113  27.561  11.668  11.026
 8751W        W77114  12.264  20.037   3.753
 8752W        W77115  43.445  13.312   1.717
 8753W        W77116  27.542  44.348  10.600
 8754W        W77117  23.723  33.579  14.834
 8755W        W77118  21.139  37.862   2.769
 8756W        W77119  20.648   0.776  11.500
 8757W        W77120  34.992  29.929  10.551
 8758W        W77121  19.171   0.478   2.719
 8759W        W77122  14.684  18.108  12.967
 8760W        W77123   2.333  30.634   1.450
 8761W        W77124  36.967  12.333  11.554
 8762W        W77125  37.378  26.177  13.794
 8763W        W77126  32.997   1.318   3.760
 8764W        W77127  15.160  42.341   0.937
 8765W        W77128   0.382  39.847  10.997
 8766W        W77129  12.688  44.429   1.399
 8767W        W77130  25.088  42.875   0.883
 8768W        W77131  30.994  19.171  12.053
 8769W        W77132  37.392   1.759  14.463
 8770W        W77133  42.888  42.359  12.088
 8771W        W77134  38.474  22.173  13.804
 8772W        W77135  21.718  28.579  14.807
 8773W        W77136  16.214  20.615  11.939
 8774W        W77137  36.010  19.277   3.669
 8775W        W77138  38.460  10.197  11.094
 8776W        W77139  33.006  36.003  14.993
 8777W        W77140   2.275   8.197  14.451
 8778W        W77141  20.718  22.186  12.851
 8779W        W77142  10.175  44.489   0.833
 8780W        W77143  18.687  37.581   1.241
 8781W        W77144   1.874  17.232  12.475
 8782W        W77145  37.401  26.474   1.874
 8783W        W77146  43.451  31.615  11.863
 8784W        W77147  31.083   0.912   0.448
 8785W        W77148  13.176  30.475   2.415
 8786W        W77149  27.029  28.098   4.298
 8787W        W77150   7.894   5.797   3.251
 8788W        W77151  42.361  13.222   3.202
 8789W        W77152  29.457  28.603  12.068
 8790W        W77153   6.820  36.350   4.284
 8791W        W77154  24.559   8.815  10.997
 8792W        W77155  10.197  25.546   4.641
 8793W        W77156  39.968  34.500  14.361
 8794W        W77157  15.596  28.093  11.110
 8795W        W77158  13.821   1.390   2.392
 8796W        W77159  29.594  17.675   1.430
 8797W        W77160  18.629  35.574  11.959
 8798W        W77161   4.298  20.760   1.804
 8799W        W77162  13.680   6.787  11.959
 8800W        W77163  15.761  11.662   2.333
 8801W        W77164  24.077  34.864  14.367
 8802W        W77165  20.036   7.369   0.422
 8803W        W77166   6.305  42.902  11.524
 8804W        W77167  25.712  23.576  14.005
 8805W        W77168  18.248   5.371  10.931
 8806W        W77169  34.515  42.901   3.705
 8807W        W77170  11.731  41.932   1.342
 8808W        W77171  36.062  19.695   2.775
 8809W        W77172  11.207  23.207   2.740
 8810W        W77173  35.435  22.745  13.403
 8811W        W77174  16.692   3.761  13.346
 8812W        W77175   4.370  36.392  13.792
 8813W        W77176  44.857  18.708  10.545
 8814W        W77177  38.040  31.146  12.929
 8815W        W77178   1.954  15.102  10.623
 8816W        W77179  27.116   8.741  14.026
 8817W        W77180  33.624  35.912   5.247
 8818W        W77181   6.686  28.973   2.714
 8819W        W77182  34.429  26.164  14.805
 8820W        W77183  23.639  16.683  12.849
 8821W        W77184  41.974  19.641  10.061
 8822W        W77185  31.575   9.716   3.741
 8823W        W77186  34.595  12.250   1.822
 8824W        W77187   4.753  36.886   1.913
 8825W        W77188  28.120  35.895   3.146
 8826W        W77189  22.607   0.813  13.807
 8827W        W77190  26.486  43.941  13.996
 8828W        W77191   4.388  43.787   1.241
 8829W        W77192   1.776   1.901  12.055
 8830W        W77193  22.720   0.422   1.375
 8831W        W77194  22.620  22.018   2.394
 8832W        W77195  38.043   2.799   1.781
 8833W        W77196   2.438  38.043  10.593
 8834W        W77197  22.604  27.114  12.486
 8835W        W77198  39.493  34.020   4.148
 8836W        W77199  36.371   4.852  10.015
 8837W        W77200  21.723  21.658  11.873
 8838W        W77201  21.167  18.761   3.149
 8839W        W77202   6.389  30.925  12.000
 8840W        W77203  17.098  40.916  13.054
 8841W        W77204  20.641  28.578  12.526
 8842W        W77205  43.018  23.491  13.012
 8843W        W77206   4.721  34.038  14.346
 8844W        W77207  12.703  42.439  10.441
 8845W        W77208   1.267   3.275   3.719
 8846W        W77209  26.984  27.465  11.865
 8847W        W77210  36.936  35.947  11.456
 8848W        W77211  18.083   9.809   4.213
 8849W        W77212  14.097  18.149  11.429
 8850W        W77213  10.843  19.222   3.643
 8851W        W77214  14.771  15.087  10.520
 8852W        W77215  11.645  34.585  12.542
 8853W        W77216   2.289  44.272   4.198
 8854W        W77217  41.342  18.569  13.386
 8855W        W77218  36.515   8.339  13.543
 8856W        W77219  22.163  38.500   4.793
 8857W        W77220   0.816  20.066   0.752
 8858W        W77221  14.206   2.941   1.822
 8859W        W77222  17.568  12.341   4.815
 8860W        W77223  13.271  38.510  12.458
 8861W        W77224  12.259  25.099  10.531
 8862W        W77225  18.649  24.536  14.838
 8863W        W77226  37.569   9.753   3.350
 8864W        W77227  14.164  12.193   2.338
 8865W        W77228   7.375  44.926   3.251
 8866W        W77229  13.731  10.758   3.693
 8867W        W77230  42.952   8.238   0.931
 8868W        W77231   3.232   6.356  14.977
 8869W        W77232  39.440  24.201   0.294
 8870W        W77233  41.037  12.328  14.941
 8871W        W77234  26.960  22.996  14.978
 8872W        W77235  43.478  35.087  14.883
 8873W        W77236  11.298  11.811  11.501
 8874W        W77237  29.504  19.745   1.340
 8875W        W77238  43.405  32.067   2.413
 8876W        W77239  31.444   5.318  13.333
 8877W        W77240  20.636   9.199  10.584
 8878W        W77241  30.456  34.405  14.432
 8879W        W77242  19.204   3.938   2.306
 8880W        W77243  39.943  15.744   2.327
 8881W        W77244   2.904   1.757  10.432
 8882W        W77245  19.584  12.829   1.342
 8883W        W77246  28.017  23.698  14.789
 8884W        W77247  12.797   9.175   0.411
 8885W        W77248  38.562   1.845  13.892
 8886W        W77249  13.719   8.754   2.713
 8887W        W77250  41.002  23.513   2.776
 8888W        W77251  13.680  26.676   0.907
 8889W        W77252  25.145  36.966   1.741
 8890W        W77253  39.976   4.743   2.352
 8891W        W77254  26.650  17.243  10.967
 8892W        W77255  44.274   8.696   4.119
 8893W        W77256  27.092  14.246  14.981
 8894W        W77257   0.953  12.781   0.811
 8895W        W77258  24.717  30.444  11.923
 8896W        W77259  40.490   8.326   3.766
 8897W        W77260  43.497  14.259  12.490
 8898W        W77261  28.144  40.892   2.726
 8899W        W77262  40.973  15.816  10.589
 8900W        W77263  24.990   0.403   4.699
 8901W        W77264   9.861   8.753  10.641
 8902W        W77265  40.369  22.081   2.185
 8903W        W77266  12.130  25.582   2.328
 8904W        W77267  28.597  42.941   3.180
 8905W        W77268  22.614  27.160  13.471
 8906W        W77269  26.666  31.559  11.017
 8907W        W77270  10.787   4.875   1.768
 8908W        W77271  12.328  33.885   1.277
 8909W        W77272  41.463   6.188  14.913
 8910W        W77273  15.639   5.312   0.759
 8911W        W77274  29.973  15.292   4.128
 8912W        W77275  43.447   7.279   2.380
 8913W        W77276  43.915  25.112  11.977
 8914W        W77277  20.057  44.960   2.261
 8915W        W77278  25.551  17.801  14.777
 8916W        W77279  34.949  35.420   2.824
 8917W        W77280   2.404  20.703  12.348
 8918W        W77281  37.941   8.718   2.786
 8919W        W77282  16.760  23.108   1.844
 8920W        W77283  16.258  25.136   3.814
 8921W        W77284  23.215  28.561  14.017
 8922W        W77285   6.334  44.783  10.467
 8923W        W77286  16.208  17.294   2.242
 8924W        W77287  24.501   8.694  14.362
 8925W        W77288   3.311   9.371  13.947
 8926W        W77289  26.081  30.642  12.908
 8927W        W77290  12.132  25.538   2.807
 8928W        W77291  11.792   6.791  12.978
 8929W        W77292  43.936   8.233   2.802
 8930W        W77293  15.130  36.064  14.811
 8931W        W77294   8.672  33.475  10.978
 8932W        W77295  28.664  24.179   3.166
 8933W        W77296   3.896  10.194   2.377
 8934W        W77297  22.053  23.616   4.630
 8935W        W77298  18.652  41.020   4.775
 8936W        W77299  28.622  40.362  14.478
 8937W        W77300   8.201  35.413  10.961
 8938W        W77301   5.709   5.857  14.363
 8939W        W77302  33.105  18.710   4.805
 8940W        W77303   8.366  33.470   4.257
 8941W        W77304  41.507  17.601  13.334
 8942W        W77305  39.534  28.544  10.932
 8943W        W77306  10.253  43.832  14.903
 8944W        W77307   3.423   2.723  10.511
 8945W        W77308  19.252  23.622   2.823
 8946W        W77309  15.643  18.639  14.962
 8947W        W77310  22.128  30.658   2.396
 8948W        W77311   3.784  34.064   0.763
 8949W        W77312  17.088  22.604  12.494
 8950W        W77313  44.904   4.352  12.515
 8951W        W77314   9.796   2.386   3.700
 8952W        W77315  39.915  12.185   2.412
 8953W        W77316  14.301  41.835  10.454
 8954W        W77317  25.699  15.241   2.375
 8955W        W77318  15.637  42.978   0.889
 8956W        W77319   6.394  39.855  11.412
 8957W        W77320  15.095  28.994   4.213
 8958W        W77321   3.236  22.678   5.097
 8959W        W77322  20.745  24.707  14.497
 8960W        W77323  19.720  40.941   0.434
 8961W        W77324  38.907   1.452   1.219
 8962W        W77325  39.025  44.449  13.040
 8963W        W77326  25.520  17.262  11.090
 8964W        W77327   9.809  10.349   0.901
 8965W        W77328  33.614   2.471  11.102
 8966W        W77329   5.706   7.734   3.152
 8967W        W77330  34.042  28.502   1.237
 8968W        W77331  32.017  10.869   0.399
 8969W        W77332  16.135  39.050   3.657
 8970W        W77333  35.973   2.447   3.814
 8971W        W77334  25.507  15.086   4.684
 8972W        W77335  12.731   4.931  11.569
 8973W        W77336   6.835  41.925   2.774
 8974W        W77337   9.268  16.206  10.999
 8975W        W77338  44.844  11.359   4.680
 8976W        W77339  20.598   9.180  13.337
 8977W        W77340   7.185  15.778   1.320
 8978W        W77341  11.264  10.700   3.224
 8979W        W77342  38.331  35.465  10.500
 8980W        W77343   9.839  13.199  10.552
 8981W        W77344  30.134  30.487   4.758
 8982W        W77345  44.966  10.766   0.785
 8983W        W77346   7.195  31.543   2.728
 8984W        W77347  17.791  21.720   0.480
 8985W        W77348  38.960  32.096   0.879
 8986W        W77349  13.627  25.520   0.470
 8987W        W77350  40.333  36.842   1.243
 8988W        W77351   0.443  33.490  12.895
 8989W        W77352  43.341  42.778  14.954
 8990W        W77353  27.044  31.909  13.543
 8991W        W77354  15.244   8.680   0.908
 8992W        W77355  35.065  19.557   1.902
 8993W        W77356  24.133  40.962  12.388
 8994W        W77357  42.392  21.125  11.545
 8995W        W77358   1.280  34.883  14.931
 8996W        W77359   1.390  22.703   4.255
 8997W        W77360   1.366   5.418   2.246
 8998W        W77361  21.120  36.524   4.312
 8999W        W77362  35.083  22.225  10.541
 9000W        W77363  18.259   7.336  11.529
 9001W        W77364   0.423  41.472  14.799
 9002W        W77365  17.168  38.983  14.843
 9003W        W77366  34.514  39.002  14.392
 9004W        W77367  43.792  29.638   3.166
 9005W        W77368  34.581  17.153  14.765
 9006W        W77369  16.618   1.845   0.826
 9007W        W77370  20.605  23.721   0.413
 9008W        W77371   2.837  41.864  13.452
 9009W        W77372   7.707  21.714  11.928
 9010W        W77373  33.064  42.974  14.498
 9011W        W77374  17.748  25.606   0.931
 9012W        W77375   5.884   2.371   4.603
 9013W        W77376  36.455  42.845   0.405
 9014W        W77377  42.420   1.891   2.901
 9015W        W77378   0.454   8.349   1.763
 9016W        W77379  35.919   3.275  12.357
 9017W        W77380  17.135   8.881  14.836
 9018W        W77381  28.437  10.235   1.757
 9019W        W77382  27.963   9.793  14.825
 9020W        W77383  34.425  42.011   1.726
 9021W        W77384  41.314   0.811   0.290
 9022W        W77385  32.074  14.222  11.377
 9023W        W77386  38.434  19.586   1.713
 9024W        W77387  20.172  39.037  12.504
 9025W        W77388  34.016   1.791   1.419
 9026W        W77389  10.355  21.664   3.736
 9027W        W77390  40.905   5.797   0.283
 9028W        W77391  42.854  38.480   2.666
 9029W        W77392   8.303  14.794  11.074
 9030W        W77393   7.325  25.596   3.208
 9031W        W77394  39.364  22.121  10.525
 9032W        W77395  42.333  40.813  11.415
 9033W        W77396   9.378  38.416   1.327
 9034W        W77397  16.687   3.711   1.791
 9035W        W77398  35.578  28.669  10.412
 9036W        W77399  22.091  42.513   1.408
 9037W        W77400   8.302  40.437  12.395
 9038W        W77401  13.229  12.653   1.282
 9039W        W77402  13.262   6.185   3.198
 9040W        W77403  41.853  13.632   4.124
 9041W        W77404  22.600  10.182   1.301
 9042W        W77405  34.117  31.109   1.874
 9043W        W77406  13.248  19.229  14.279
 9044W        W77407  35.091  26.568   5.234
 9045W        W77408  17.109  16.131   2.221
 9046W        W77409  36.581   0.752   2.687
 9047W        W77410  43.834  40.891   2.226
 9048W        W77411  36.360  10.222  10.018
 9049W        W77412  12.817  12.810   2.244
 9050W        W77413   9.356   7.343   2.211
 9051W        W77414  11.828  18.633  11.543
 9052W        W77415   7.889  43.360   3.303
 9053W        W77416  24.002  14.333   1.732
 9054W        W77417  21.192  29.931   4.168
 9055W        W77418  33.931  12.613  12.843
 9056W        W77419  17.598  43.392   1.407
 9057W        W77420  29.470   6.797  11.902
 9058W        W77421   6.263  34.927  10.563
 9059W        W77422  10.157  14.753  13.970
 9060W        W77423  41.975  28.066  10.982
 9061W        W77424  41.849  36.405   5.150
 9062W        W77425  28.973  12.349   1.775
 9063W        W77426  20.527  15.232   2.248
 9064W        W77427  23.986  13.292  12.508
 9065W        W77428  43.008  26.460  13.372
 9066W        W77429  20.138  25.003  12.919
 9067W        W77430  14.617  24.633   1.227
 9068W        W77431  32.442   0.353   2.413
 9069W        W77432   4.433   8.331   3.227
 9070W        W77433  27.632  20.723  13.833
 9071W        W77434   8.404  22.166   0.738
 9072W        W77435  38.848  13.677   2.751
 9073W        W77436  19.058  42.893  13.004
 9074W        W77437  20.190  41.450   0.754
 9075W        W77438  38.989  35.027   3.870
 9076W        W77439  19.231  31.954  11.914
 9077W        W77440  44.469  42.805   1.765
 9078W        W77441  27.978  24.997   1.871
 9079W        W77442  29.005  32.949   3.294
 9080W        W77443  22.544  36.870  12.976
 9081W        W77444   1.346  17.738   4.214
 9082W        W77445   9.173  32.902   1.741
 9083W        W77446  20.680  18.246  12.942
 9084W        W77447  15.677  29.526  11.946
 9085W        W77448  15.628   2.770  11.029
 9086W        W77449  42.524  26.122   4.611
 9087W        W77450  22.207  34.954  14.819
 9088W        W77451  42.313  42.885   4.348
 9089W        W77452  43.394  22.575   4.784
 9090W        W77453  41.970  25.155   3.723
 9091W        W77454  16.263  19.760  13.822
 9092W        W77455  26.564   3.218   2.378
 9093W        W77456   7.281  34.873   3.341
 9094W        W77457  16.226  12.273  11.045
 9095W        W77458  27.111  12.835  10.915
 9096W        W77459  13.149  24.097  12.559
 9097W        W77460  42.492  33.979   2.330
 9098W        W77461  41.875  22.635   3.687
 9099W        W77462  22.731  25.061  13.934
 9100W        W77463  15.811  15.585   4.649
 9101W        W77464  40.944  32.038   0.748
 9102W        W77465  33.962  31.944  14.335
 9103W        W77466  19.745   2.743   4.787
 9104W        W77467   5.323  29.141   4.804
 9105W        W77468  18.558  17.635   4.163
 9106W        W77469  12.721  35.892   0.837
 9107W        W77470  11.199  10.804  10.611
 9108W        W77471  14.744  33.527   1.741
 9109W        W77472  40.798  37.442  10.606
 9110W        W77473  27.026   3.415   1.385
 9111W        W77474  32.099  19.764  11.977
 9112W        W77475  40.353  10.810  13.882
 9113W        W77476  33.617  41.514   0.768
 9114W        W77477   6.206   5.259  12.527
 9115W        W77478  13.204   8.225   3.314
 9116W        W77479   2.327   0.408  14.276
 9117W        W77480  24.101  37.341   0.909
 9118W        W77481  40.511  14.278  13.958
 9119W        W77482  25.981  39.917   1.883
 9120W        W77483  41.482   0.742  12.942
 9121W        W77484  18.653  13.182  12.023
 9122W        W77485  18.685   5.707   4.634
 9123W        W77486  17.563  13.109   2.413
 9124W        W77487  31.005   9.325  10.997
 9125W        W77488  39.405   7.363  14.925
 9126W        W77489  30.145  28.481   9.969
 9127W        W77490  37.018   8.895  14.361
 9128W        W77491  27.575  26.059   2.711
 9129W        W77492  34.985  27.645  10.947
 9130W        W77493   9.255   0.923   1.448
 9131W        W77494  28.046  36.407  11.529
 9132W        W77495  37.579  36.950   0.360
 9133W        W77496   4.238   2.252  13.478
 9134W        W77497  29.042   2.429   2.257
 9135W        W77498  12.853  20.585   3.640
 9136W        W77499  37.505  31.021   1.866
 9137W        W77500  34.401  40.429  13.032
 9138W        W77501  29.508   8.851  10.964
 9139W        W77502  41.312  34.600  13.884
 9140W        W77503  38.064  41.331   2.744
 9141W        W77504  43.468  25.137  11.864
 9142W        W77505   7.328  21.649   4.264
 9143W        W77506  26.568  10.743  12.366
 9144W        W77507  18.684  29.006   4.682
 9145W        W77508   9.666  40.423   3.362
 9146W        W77509  41.846   6.870  13.919
 9147W        W77510  41.898  35.027  13.022
 9148W        W77511  20.245  25.706   0.960
 9149W        W77512  32.956  40.489  11.041
 9150W        W77513  44.985   7.401  14.829
 9151W        W77514  19.116  34.510   2.399
 9152W        W77515  19.587  32.458  11.488
 9153W        W77516  38.396   6.824   2.802
 9154W        W77517  39.927  13.717   0.902
 9155W        W77518   1.295   2.908  12.551
 9156W        W77519  38.486  36.040   2.276
 9157W        W77520   4.251  42.522  10.467
 9158W        W77521  31.977  12.651   4.298
 9159W        W77522  41.357  24.502  12.420
 9160W        W77523  24.696  17.579   2.306
 9161W        W77524   6.791  32.400  11.881
 9162W        W77525   1.476  11.844   4.303
 9163W        W77526  11.357  40.986   3.361
 9164W        W77527  19.120   1.276  13.048
 9165W        W77528   5.842  15.211  12.022
 9166W        W77529  11.199  43.303   4.829
 9167W        W77530   4.830  42.470  14.944
 9168W        W77531  35.911  21.114  10.895
 9169W        W77532  32.915  34.400  10.943
 9170W        W77533  40.492   6.374  11.047
 9171W        W77534  18.701  35.443   0.880
 9172W        W77535   0.468  10.291   9.993
 9173W        W77536   5.784  35.412   4.332
 9174W        W77537  31.606  36.553  14.782
 9175W        W77538  25.656  20.700   1.276
 9176W        W77539  37.858   1.769  11.495
 9177W        W77540  20.128  16.313   1.381
 9178W        W77541   7.405  28.155   2.814
 9179W        W77542   6.311  10.170   4.168
 9180W        W77543  19.264  33.553   2.697
 9181W        W77544  13.724  15.324   0.319
 9182W        W77545  15.193  33.418  11.929
 9183W        W77546  11.232   3.329  13.862
 9184W        W77547  42.352  19.746  14.350
 9185W        W77548  12.278  23.990   4.621
 9186W        W77549  34.405  40.454   1.292
 9187W        W77550  39.483  17.138   4.153
 9188W        W77551  17.147  29.030  14.433
 9189W        W77552  32.500   1.303   5.211
 9190W        W77553  38.851   2.351  14.478
 9191W        W77554  34.992  35.389  12.038
 9192W        W77555  43.480   9.251  14.966
 9193W        W77556   7.374  34.398   2.882
 9194W        W77557  33.520   1.482  10.408
 9195W        W77558  30.505  13.638  12.848
 9196W        W77559   0.839   1.410   4.183
 9197W        W77560  18.109  19.671   0.844
 9198W        W77561   8.168  40.934   0.934
 9199W        W77562  30.937  32.495  11.585
 9200W        W77563   5.702  29.924   0.836
 9201W        W77564  37.834   0.302   3.811
 9202W        W77565   0.453  37.498  13.370
 9203W        W77566   1.732  35.033   2.674
 9204W        W77567  26.571   5.850  14.847
 9205W        W77568  13.309  24.651   1.260
 9206W        W77569   4.322   9.674  12.827
 9207W        W77570  30.611  11.632  12.493
 9208W        W77571  12.346  39.476   1.298
 9209W        W77572  23.524  39.461   3.840
 9210W        W77573  24.165  40.539  13.003
 9211W        W77574   4.429   9.827   4.277
 9212W        W77575  36.418   5.397   0.819
 9213W        W77576  36.434  44.008  13.427
 9214W        W77577  16.705  13.707  12.399
 9215W        W77578  43.898   7.386  13.494
 9216W        W77579  34.025  31.982  11.020
 9217W        W77580  23.645   1.253   4.241
 9218W        W77581  24.623   0.972  13.024
 9219W        W77582   7.200  24.700  13.386
 9220W        W77583  12.627  11.350  10.429
 9221W        W77584   1.951  24.204  11.053
 9222W        W77585   7.181  30.152   0.438
 9223W        W77586  36.351   6.759  11.112
 9224W        W77587  17.250  27.123  14.304
 9225W        W77588  19.263  14.747   1.405
 9226W        W77589  32.487  28.474  11.925
 9227W        W77590  31.632  14.622   2.716
 9228W        W77591   7.744  40.911  14.445
 9229W        W77592  43.882   2.848  13.800
 9230W        W77593  31.965  25.523   2.409
 9231W        W77594  25.524   4.347   4.779
 9232W        W77595  18.252  17.694   0.750
 9233W        W77596  16.226  29.036  12.839
 9234W        W77597  29.030  35.476  14.497
 9235W        W77598  28.531  34.933  11.611
 9236W        W77599  14.251   3.736   9.505
 9237W        W77600  31.604  36.937   2.272
 9238W        W77601   2.287  24.089  10.536
 9239W        W77602   6.290  44.293  14.393
 9240W        W77603  42.392  38.478   9.598
 9241W        W77604  20.085   3.738   0.480
 9242W        W77605   8.679  43.015   4.732
 9243W        W77606  31.989  38.389  13.856
 9244W        W77607   8.400  43.781   0.300
 9245W        W77608  20.121  38.524   1.306
 9246W        W77609  28.112  33.997   1.310
 9247W        W77610  42.864  28.967  12.492
 9248W        W77611  23.705   3.942   2.676
 9249W        W77612  18.619  38.043   1.745
 9250W        W77613  16.810  39.532  11.898
 9251W        W77614   7.841  32.914   3.351
 9252W        W77615  39.424  37.055  10.925
 9253W        W77616  39.882  29.627   1.266
 9254W        W77617  42.896  37.381   1.345
 9255W        W77618  25.206   5.780  14.327
 9256W        W77619  43.282   3.278   0.326
 9257W        W77620  14.630  34.020  11.982
 9258W        W77621  13.782  13.606  14.480
 9259W        W77622   1.950   9.804   4.838
 9260W        W77623  25.540   6.251   1.928
 9261W        W77624  44.450  10.324  14.452
 9262W        W77625   4.425   0.325   2.304
 9263W        W77626  34.972  33.438   2.703
 9264W        W77627   3.794   6.416  13.403
 9265W        W77628   7.687  35.384  14.797
 9266W        W77629  15.255  29.929  10.478
 9267W        W77630  36.574  43.880  11.070
 9268W        W77631   4.278   3.396   3.279
 9269W        W77632  33.574  21.650   2.219
 9270W        W77633  20.747  17.078   2.895
 9271W        W77634  16.697  13.174   2.341
 9272W        W77635  11.746  19.679   3.767
 9273W        W77636  16.235  36.946  13.878
 9274W        W77637  28.077  30.998  13.054
 9275W        W77638  36.451   4.741   0.382
 9276W        W77639   6.200  43.988   3.767
 9277W        W77640   8.899  14.593   4.115
 9278W        W77641  24.093  15.813   4.295
 9279W        W77642  34.380  38.333   3.843
 9280W        W77643  39.498  42.477   4.667
 9281W        W77644   3.360  17.090   4.828
 9282W        W77645  11.863   8.705  11.484
 9283W        W77646  38.517  36.850  13.536
 9284W        W77647  35.958  34.035   4.807
 9285W        W77648  42.000  27.011   3.212
 9286W        W77649  30.074   9.389  11.047
 9287W        W77650  27.622  17.068   3.383
 9288W        W77651  23.547  40.876  11.423
 9289W        W77652  42.358  39.031  11.390
 9290W        W77653   5.754  27.055   1.424
 9291W        W77654  22.222  42.775  14.026
 9292W        W77655  38.974  23.228  12.888
 9293W        W77656  11.249  22.090   3.341
 9294W        W77657  39.517  33.506  12.527
 9295W        W77658  13.231   2.911   3.742
 9296W        W77659  25.111   0.820   1.283
 9297W        W77660  27.985  12.206   2.323
 9298W        W77661  39.319  25.168  10.542
 9299W        W77662  39.441  16.243   1.776
 9300W        W77663  32.070  17.234  14.836
 9301W        W77664  20.540  36.542   3.656
 9302W        W77665   4.778  12.818  12.054
 9303W        W77666  24.100   2.962   3.805
 9304W        W77667   2.828  18.271   3.306
 9305W        W77668   5.214  10.850  11.374
 9306W        W77669  23.116   8.224  14.967
 9307W        W77670   7.783  16.704  12.934
 9308W        W77671   0.928   2.384   3.189
 9309W        W77672   5.305  44.360   1.392
 9310W        W77673  10.215   3.361   2.387
 9311W        W77674  15.282  18.291  14.293
 9312W        W77675  29.454   6.744  10.956
 9313W        W77676  33.549  38.988   4.347
 9314W        W77677  14.825   0.260  13.054
 9315W        W77678  28.437  40.447  13.482
 9316W        W77679   5.859  10.356  14.437
 9317W        W77680  23.076  20.072  11.535
 9318W        W77681  40.443  41.948  10.589
 9319W        W77682   8.777  39.460  10.960
 9320W        W77683  10.800  18.586   1.338
 9321W        W77684  36.560  12.663   4.277
 9322W        W77685   2.467  10.374  13.350
 9323W        W77686  44.938  34.914  14.318
 9324W        W77687  13.762  19.661  14.010
 9325W        W77688   1.457   0.875   0.836
 9326W        W77689  41.944   3.727  10.585
 9327W        W77690  10.284  18.582  11.912
 9328W        W77691  12.636  44.472  14.513
 9329W        W77692  36.583  43.444   1.729
 9330W        W77693  38.463  11.828   2.381
 9331W        W77694   2.919   2.959   2.266
 9332W        W77695  20.260  31.645   4.185
 9333W        W77696   1.373  17.087  11.509
 9334W        W77697  43.911  14.302   4.746
 9335W        W77698  36.017   7.896  11.033
 9336W        W77699  11.673  16.189  13.544
 9337W        W77700  23.237  36.540  10.405
 9338W        W77701   4.749  34.433   2.183
 9339W        W77702  28.045  23.100  11.585
 9340W        W77703  19.227  25.673  14.881
 9341W        W77704  25.114  33.128   1.211
 9342W        W77705  30.525  25.544  13.886
 9343W        W77706  37.489  27.180   0.422
 9344W        W77707   4.768   2.442  10.446
 9345W        W77708  33.483  17.138   2.307
 9346W        W77709  38.914  34.544  12.825
 9347W        W77710  39.559  27.632  12.999
 9348W        W77711  44.971  16.586   1.411
 9349W        W77712  40.811  19.270  12.862
 9350W        W77713  44.884  35.857   1.256
 9351W        W77714  21.556  21.513   0.911
 9352W        W77715   1.866  27.660  13.894
 9353W        W77716   2.327  41.534   0.268
 9354W        W77717   3.716  36.897  12.407
 9355W        W77718  34.895  25.096  11.382
 9356W        W77719  11.135  27.994   4.804
 9357W        W77720  15.753  16.606  10.914
 9358W        W77721   2.795   9.297  14.975
 9359W        W77722  18.723  20.607  13.838
 9360W        W77723  30.077  27.026   1.306
 9361W        W77724  44.894  44.317   2.783
 9362W        W77725  39.988  26.126  14.431
 9363W        W77726  37.874  33.062   0.382
 9364W        W77727  41.894   5.319  13.482
 9365W        W77728  41.000  27.171  14.516
 9366W        W77729  26.145   7.217   0.453
 9367W        W77730  44.881   0.407   2.679
 9368W        W77731  16.624  33.472  13.335
 9369W        W77732  32.131  22.535   0.304
 9370W        W77733   1.388   4.819  13.465
 9371W        W77734  33.968   6.799  14.479
 9372W        W77735   3.403  31.104   0.836
 9373W        W77736   8.683   4.776   4.704
 9374W        W77737  40.934  11.644  10.989
 9375W        W77738  16.743  44.463   4.771
 9376W        W77739   5.266  11.322  12.914
 9377W        W77740  12.753   3.724  13.448
 9378W        W77741  30.036  26.507  11.121
 9379W        W77742  15.650  42.457  13.798
 9380W        W77743  19.635   3.450   0.850
 9381W        W77744  40.317  11.324   4.803
 9382W        W77745  28.568   2.720  12.041
 9383W        W77746  31.598  17.773  10.431
 9384W        W77747  31.910  11.185  12.079
 9385W        W77748   8.863  37.443  10.597
 9386W        W77749   6.428  34.011   1.879
 9387W        W77750  37.873  26.094  10.950
 9388W        W77751  11.344   5.801   1.390
 9389W        W77752  44.448  15.810  13.831
 9390W        W77753  44.005  21.590   3.716
 9391W        W77754   6.346  16.791  13.502
 9392W        W77755  18.159  41.839   1.772
 9393W        W77756  39.857   8.181  14.379
 9394W        W77757  30.964  15.771   3.275
 9395W        W77758  16.670  43.347   1.288
 9396W        W77759  19.654  17.640  12.841
 9397W        W77760  11.753  25.098   2.666
 9398W        W77761  24.647  44.426  10.558
 9399W        W77762   6.202  37.482  11.128
 9400W        W77763  33.993  21.097  10.608
 9401W        W77764  20.663  22.594  13.803
 9402W        W77765  22.043   9.652  11.594
 9403W        W77766   5.419  37.016  13.969
 9404W        W77767  31.407  36.544   0.285
 9405W        W77768  31.548  13.769   2.753
 9406W        W77769  37.480  24.716  14.447
 9407W        W77770  28.150  23.684  13.817
 9408W        W77771  11.330   2.229  14.431
 9409W        W77772   4.826   0.782   2.748
 9410W        W77773  43.407   0.364  13.310
 9411W        W77774  40.410  21.639   0.327
 9412W        W77775  38.973  36.585  10.423
 9413W        W77776  24.183  37.052   2.851
 9414W        W77777  17.784  17.740   1.254
 9415W        W77778  43.826   1.866  10.639
 9416W        W77779   1.292   1.765   4.751
 9417W        W77780  33.935  23.241  12.011
 9418W        W77781  32.083  24.220   0.430
 9419W        W77782   0.760  29.475   3.636
 9420W        W77783  44.273   4.219   3.662
 9421W        W77784  24.518  27.195   0.346
 9422W        W77785  19.185  15.225  11.488
 9423W        W77786  10.378   8.887  10.454
 9424W        W77787  31.512   6.702  11.521
 9425W        W77788   9.261  22.700   4.326
 9426W        W77789  35.485  11.187  11.514
 9427W        W77790  24.084   0.754   1.921
 9428W        W77791  43.800  36.907   3.306
 9429W        W77792  37.983  39.835   2.774
 9430W        W77793   7.871  17.284   4.699
 9431W        W77794  26.004  29.042   3.820
 9432W        W77795   5.314   8.688   5.249
 9433W        W77796   9.737  44.893  14.401
 9434W        W77797  42.492   0.445   1.252
 9435W        W77798  28.168  25.159  14.911
 9436W        W77799  22.534   6.263   5.183
 9437W        W77800   5.897  37.558   1.438
 9438W        W77801  26.163  18.551   1.218
 9439W        W77802  12.762  18.639  12.511
 9440W        W77803  24.704   4.372  11.105
 9441W        W77804  39.359  12.329  13.034
 9442W        W77805  23.142  20.605   1.844
 9443W        W77806  24.194   2.351  10.920
 9444W        W77807  33.070  23.047   0.796
 9445W        W77808  20.555  12.621   1.719
 9446W        W77809  38.005  31.124   2.392
 9447W        W77810  14.791   5.386  14.016
 9448W        W77811   4.267  12.627  11.594
 9449W        W77812  34.487  32.038  13.940
 9450W        W77813  40.381  16.754   0.814
 9451W        W77814  15.145  22.057   4.160
 9452W        W77815   4.852  36.513  10.976
 9453W        W77816   2.737  21.062  11.020
 9454W        W77817  44.455  11.867  11.034
 9455W        W77818  23.580  40.877   4.346
 9456W        W77819  44.975   0.820  13.319
 9457W        W77820  36.990  12.772  13.908
 9458W        W77821  41.339  12.689   3.322
 9459W        W77822  18.106   1.966   2.394
 9460W        W77823   9.311   9.312   2.328
 9461W        W77824   9.179  35.600   0.300
 9462W        W77825  44.400  14.766  11.414
 9463W        W77826  26.049  35.916   0.381
 9464W        W77827  23.168  27.113  12.837
 9465W        W77828   8.733  41.925   3.152
 9466W        W77829  11.354   7.414  12.961
 9467W        W77830  44.765  42.327  14.436
 9468W        W77831  38.520  41.446  12.507
 9469W        W77832  39.359   6.853  11.036
 9470W        W77833  42.931  28.983   3.820
 9471W        W77834  23.632   4.908   4.350
 9472W        W77835  20.672  25.016   4.674
 9473W        W77836  12.758   1.956  13.823
 9474W        W77837  43.439   6.869  13.503
 9475W        W77838   0.961  24.220   4.227
 9476W        W77839   1.434  37.015   4.251
 9477W        W77840  39.455  34.879  14.810
 9478W        W77841  44.869  27.993   3.730
 9479W        W77842  15.122   5.698   4.737
 9480W        W77843  10.740   3.917   2.391
 9481W        W77844  30.447  38.921   2.880
 9482W        W77845  33.384  40.413   5.189
 9483W        W77846  26.012  41.863   3.679
 9484W        W77847   8.883  31.588   2.288
 9485W        W77848  40.980  29.042   2.184
 9486W        W77849  36.097  34.493  14.831
 9487W        W77850   6.858   6.236  11.914
 9488W        W77851   2.967   7.877   2.679
 9489W        W77852   3.721   7.839   1.409
 9490W        W77853  18.551  18.765   2.669
 9491W        W77854   6.689   4.706   2.740
 9492W        W77855  31.049  24.570   2.343
 9493W        W77856   2.923  43.499   3.634
 9494W        W77857  16.770   0.766  11.537
 9495W        W77858   2.869  39.470   3.718
 9496W        W77859  44.295  39.985   3.822
 9497W        W77860   0.878   5.272  10.975
 9498W        W77861  37.040  30.135   0.935
 9499W        W77862   8.877   5.258  13.539
 9500W        W77863   3.725  39.972   1.895
 9501W        W77864   4.448  28.037  11.888
 9502W        W77865  28.178   5.196   4.835
 9503W        W77866  10.659  26.049  10.999
 9504W        W77867  15.315  29.486   3.697
 9505W        W77868  35.979  32.026   2.801
 9506W        W77869   2.768  34.087  14.865
 9507W        W77870   5.907  19.110  14.868
 9508W        W77871  35.917  33.954  12.579
 9509W        W77872  12.665  12.328   2.347
 9510W        W77873  22.227  42.026  14.934
 9511W        W77874   2.785  34.589  13.342
 9512W        W77875   6.702  40.486   2.230
 9513W        W77876  34.466  28.612   2.857
 9514W        W77877  21.097   5.404  13.920
 9515W        W77878  43.963   5.723   1.357
 9516W        W77879  18.079  17.268   1.274
 9517W        W77880   8.772   1.356  11.506
 9518W        W77881   7.287   4.220  10.620
 9519W        W77882  27.557  18.674  10.918
 9520W        W77883  17.247  32.453  10.574
 9521W        W77884  14.167  27.996   0.461
 9522W        W77885  34.923   9.185  14.878
 9523W        W77886  24.984  21.203   2.181
 9524W        W77887  11.820  11.846  10.554
 9525W        W77888  23.512  39.875   4.692
 9526W        W77889  37.576  28.040   5.091
 9527W        W77890  42.360  43.811  14.029
 9528W        W77891  23.170  32.571   1.935
 9529W        W77892  38.973  23.570   2.889
 9530W        W77893  17.123  36.387  10.887
 9531W        W77894   0.487  29.652  13.823
 9532W        W77895  34.498   5.218   0.460
 9533W        W77896  22.206   5.391  11.111
 9534W        W77897   2.804  40.432   1.369
 9535W        W77898  43.823  10.226   1.880
 9536W        W77899  25.523  14.224  10.518
 9537W        W77900  21.709   5.420   0.958
 9538W        W77901   2.232  35.422   2.766
 9539W        W77902  40.351  39.822   3.286
 9540W        W77903  17.705  38.396  14.975
 9541W        W77904  27.538  12.225   3.239
 9542W        W77905  39.046  23.645  13.060
 9543W        W77906   9.846   9.671  12.564
 9544W        W77907  23.696  32.496  10.449
 9545W        W77908   6.315  11.299   2.374
 9546W        W77909  38.853  22.222   2.239
 9547W        W77910  36.995  35.989   3.706
 9548W        W77911  20.540  19.100   2.726
 9549W        W77912  36.399  32.033   5.172
 9550W        W77913  17.182   1.909  10.017
 9551W        W77914  23.162  19.162   2.708
 9552W        W77915  44.460  10.180  12.396
 9553W        W77916  36.366  16.284  13.977
 9554W        W77917   6.680  33.417  11.116
 9555W        W77918  31.431  14.252   0.430
 9556W        W77919  31.614  12.641   1.229
 9557W        W77920   1.788  35.375  13.398
 9558W        W77921  29.167  43.466  14.295
 9559W        W77922   0.968  35.977  14.845
 9560W        W77923  20.589  36.392  11.019
 9561W        W77924  40.981   3.898  13.941
 9562W        W77925  16.169   8.655   1.438
 9563W        W77926  34.892  39.948  11.916
 9564W        W77927  23.169  19.578   1.313
 9565W        W77928  25.593  25.999   1.906
 9566W        W77929   0.452  39.984   2.253
 9567W        W77930  21.105   0.926   0.759
 9568W        W77931  44.331  35.987   3.205
 9569W        W77932   9.231  10.282   4.327
 9570W        W77933  37.894  41.419  14.503
 9571W        W77934   3.873  15.318   1.259
 9572W        W77935  43.350  18.082  11.434
 9573W        W77936  38.878  33.418   4.187
 9574W        W77937   9.317  42.971  12.364
 9575W        W77938  36.080  38.359  13.024
 9576W        W77939  13.642   0.362   1.319
 9577W        W77940  42.890  39.930  14.977
 9578W        W77941   6.910  17.669   3.856
 9579W        W77942  25.067  22.697  14.484
 9580W        W77943  20.541  32.586   0.260
 9581W        W77944  25.690  24.558   2.693
 9582W        W77945  37.041  30.127  10.577
 9583W        W77946   8.843  22.150  10.425
 9584W        W77947  26.481  31.079   2.793
 9585W        W77948  32.481   4.419   3.649
 9586W        W77949  12.230   5.267   2.217
 9587W        W77950   8.189  19.207   3.751
 9588W        W77951   7.344  13.807   4.191
 9589W        W77952  15.724  24.615  13.496
 9590W        W77953  29.528  22.562  14.025
 9591W        W77954  20.074  22.628   1.744
 9592W        W77955  19.611  27.198   0.456
 9593W        W77956  11.667  30.939  14.343
 9594W        W77957  38.466  10.816   0.391
 9595W        W77958  30.160  40.049   0.305
 9596W        W77959   4.413  17.115  14.955
 9597W        W77960   1.806   9.199   0.481
 9598W        W77961  39.558  39.066   1.892
 9599W        W77962  25.566  29.116  13.314
 9600W        W77963   7.809  35.498   1.762
 9601W        W77964  39.921   1.883   2.204
 9602W        W77965  36.922   1.246   2.180
 9603W        W77966  21.728  22.214  11.540
 9604W        W77967   1.446  36.080  12.963
 9605W        W77968  26.126  40.340   1.434
 9606W        W77969  24.015   7.775   5.268
 9607W        W77970  21.516  26.989  10.487
 9608W        W77971  37.431  35.425  13.952
 9609W        W77972  16.227  15.643   1.356
 9610W        W77973   6.422  13.817  14.362
 9611W        W77974  41.863  37.353  11.389
 9612W        W77975  39.881   7.849  14.281
 9613W        W77976  41.850  38.496   3.279
 9614W        W77977  16.302   5.854   9.924
 9615W        W77978  13.626  44.273  12.565
 9616W        W77979   6.405   7.243   5.254
 9617W        W77980   7.344  35.013   2.842
 9618W        W77981  16.176   8.861   0.284
 9619W        W77982  20.124  40.886  12.456
 9620W        W77983  25.020  17.281   4.123
 9621W        W77984   7.688  26.073   4.258
 9622W        W77985  32.062  40.439  14.380
 9623W        W77986   3.299  13.635  14.995
 9624W        W77987  21.574   8.400  11.080
 9625W        W77988  42.380   2.387  14.905
 9626W        W77989  22.690   4.807   5.319
 9627W        W77990  21.186  11.773  14.300
 9628W        W77991   7.803   9.320   3.803
 9629W        W77992  27.982  16.316   4.183
 9630W        W77993   0.762   6.783   0.419
 9631W        W77994  33.379  41.948  12.929
 9632W        W77995  36.096   9.302   0.851
 9633W        W77996  35.091  37.520  12.455
 9634W        W77997  39.849  36.400   4.162
 9635W        W77998  42.504  29.554  14.483
 9636W        W77999  23.613  25.039   4.622
 9637W        W78000  18.571   8.887   2.874
 9638W        W78001  42.879  27.047   0.368
 9639W        W78002  14.677  22.123   1.783
 9640W        W78003  35.938  30.624  12.980
 9641W        W78004  36.493   3.332  10.020
 9642W        W78005   6.817  43.359   3.646
 9643W        W78006  24.037   3.287   3.260
 9644W        W78007   9.179   7.372  13.879
 9645W        W78008  21.157  36.067   1.382
 9646W        W78009   2.320   8.796  12.863
 9647W        W78010  20.081  39.457   3.758
 9648W        W78011  25.208  34.414   4.241
 9649W        W78012  14.620   2.430   2.233
 9650W        W78013  20.769   0.810  12.998
 9651W        W78014  23.036   1.877  12.070
 9652W        W78015  42.805  38.528  14.485
 9653W        W78016  23.628  14.295  12.423
 9654W        W78017  24.186  18.732   0.284
 9655W        W78018   5.363  27.992   2.186
 9656W        W78019  32.902  28.110  11.072
 9657W        W78020  10.209  10.697  13.981
 9658W        W78021   6.288   2.283   2.305
 9659W        W78022  30.141  12.651  12.563
 9660W        W78023  27.983  17.630   1.923
 9661W        W78024  29.936  43.460  14.504
 9662W        W78025  14.677   3.267   2.226
 9663W        W78026  31.627  36.078   4.641
 9664W        W78027  18.659  27.952  10.475
 9665W        W78028  13.789   2.811  11.518
 9666W        W78029  27.195  12.792  10.116
 9667W        W78030  12.157  36.445   0.262
 9668W        W78031  38.456  42.031  14.305
 9669W        W78032   2.358  41.923   3.263
 9670W        W78033  34.915  14.337  10.429
 9671W        W78034   3.277   2.337  10.891
 9672W        W78035  35.410  25.051   0.305
 9673W        W78036  27.512   2.307   3.182
 9674W        W78037   6.310  15.092  13.462
 9675W        W78038   3.912  18.742   0.751
 9676W        W78039   9.358   4.336  14.402
 9677W        W78040  16.733  11.697   2.669
 9678W        W78041  21.757  24.976   3.673
 9679W        W78042  11.635  14.185   0.877
 9680W        W78043  29.555  36.091   4.835
 9681W        W78044   0.431  41.966  12.045
 9682W        W78045  26.609  19.202   4.155
 9683W        W78046  37.935  32.952  12.040
 9684W        W78047   8.331  15.214  10.481
 9685W        W78048  36.514  31.403  12.435
 9686W        W78049  19.226  14.703  12.850
 9687W        W78050  10.261  23.653   4.793
 9688W        W78051  36.885  12.304   4.826
 9689W        W78052  21.516   6.216   4.748
 9690W        W78053  44.326  39.559   3.152
 9691W        W78054   7.901   2.797   1.251
 9692W        W78055  42.400   1.946   4.789
 9693W        W78056  25.691   7.380  13.962
 9694W        W78057  37.961  15.161  13.323
 9695W        W78058  29.496  44.871  12.926
 9696W        W78059   7.799  20.237  13.468
 9697W        W78060  43.270   7.267  11.061
 9698W        W78061   0.399  29.099   3.870
 9699W        W78062  26.686   8.284  12.866
 9700W        W78063  14.308  36.442  10.458
 9701W        W78064  15.230   4.915  14.908
 9702W        W78065  13.265   2.255  12.847
 9703W        W78066  43.437  42.448   0.781
 9704W        W78067  19.051   3.782   4.688
 9705W        W78068  38.363  41.043   3.320
 9706W        W78069   5.734  24.629   1.385
 9707W        W78070  20.535  37.947  13.935
 9708W        W78071  13.191  10.638  14.910
 9709W        W78072  40.512   6.371  11.857
 9710W        W78073   8.378  39.492  12.991
 9711W        W78074  33.503   3.926  11.533
 9712W        W78075  25.528  44.874  12.378
 9713W        W78076   1.922  21.263   2.235
 9714W        W78077  29.033  36.510  13.358
 9715W        W78078  16.205  25.006   3.202
 9716W        W78079  25.999   3.860   1.244
 9717W        W78080  33.009  29.521  13.904
 9718W        W78081  13.213   7.871  10.921
 9719W        W78082  13.819  44.797   0.848
 9720W        W78083  41.460  13.775  13.887
 9721W        W78084  33.945   2.426   2.884
 9722W        W78085  20.139  42.360  10.559
 9723W        W78086   5.248  25.105   4.784
 9724W        W78087   2.918  11.817  10.451
 9725W        W78088  19.173  26.207  11.865
 9726W        W78089  26.035   5.311   4.783
 9727W        W78090  37.539  42.289  12.859
 9728W        W78091  37.080  12.168   3.247
 9729W        W78092  40.548  17.273   5.215
 9730W        W78093   4.264  27.186   0.448
 9731W        W78094  19.561  14.179  10.529
 9732W        W78095  35.854  16.774  13.434
 9733W        W78096  12.782  44.819  11.040
 9734W        W78097  12.242  23.079  12.002
 9735W        W78098  25.538  18.224  12.974
 9736W        W78099   1.323  22.610   2.364
 9737W        W78100   4.428  42.813   2.798
 9738W        W78101  31.477  30.918   0.245
 9739W        W78102   9.188  25.101  14.356
 9740W        W78103  15.087  26.969   2.730
 9741W        W78104  36.094   7.865  10.630
 9742W        W78105  36.430  18.123   1.796
 9743W        W78106  27.645  44.950  12.847
 9744W        W78107  21.523  30.610   2.214
 9745W        W78108   7.726   1.377  11.118
 9746W        W78109  37.071  26.169  12.552
 9747W        W78110  31.951  29.568   9.660
 9748W        W78111   6.252   3.879  10.962
 9749W        W78112  28.527  34.576   1.376
 9750W        W78113  22.105  10.855   2.756
 9751W        W78114   3.712  21.048   1.218
 9752W        W78115  19.234   7.192  14.432
 9753W        W78116  14.784  31.546  13.352
 9754W        W78117  13.304  26.013  11.960
 9755W        W78118  17.174  41.970   1.797
 9756W        W78119  31.098  33.395  13.996
 9757W        W78120  36.024  33.387   1.443
 9758W        W78121   4.879   2.877  13.980
 9759W        W78122  35.596  42.343  14.513
 9760W        W78123  41.523  16.666   3.285
 9761W        W78124  44.946   6.370   4.331
 9762W        W78125  26.130   4.712   1.844
 9763W        W78126  40.459  44.765  12.074
 9764W        W78127  39.519  32.065  14.818
 9765W        W78128   0.892   3.303   1.301
 9766W        W78129   0.960  38.498   4.355
 9767W        W78130  19.048  18.147  11.498
 9768W        W78131  42.378  26.616   3.675
 9769W        W78132  36.001  10.199  14.379
 9770W        W78133  43.318   1.946   4.328
 9771W        W78134  43.376  17.116  13.353
 9772W        W78135  32.494  39.043  14.458
 9773W        W78136  11.297  19.610   0.943
 9774W        W78137  38.928   2.228  12.541
 9775W        W78138  33.085  39.958  13.935
 9776W        W78139  26.587  35.530   1.274
 9777W        W78140   5.320  42.334  14.759
 9778W        W78141  33.928  28.543   0.941
 9779W        W78142  19.135  31.015   1.764
 9780W        W78143  37.053  13.346  14.911
 9781W        W78144  12.650  24.074  11.898
 9782W        W78145   6.701  43.021   4.252
 9783W        W78146  24.038   0.378   0.953
 9784W        W78147  27.004  13.700   5.641
 9785W        W78148   2.305  27.614   2.260
 9786W        W78149  27.531  29.933  13.544
 9787W        W78150  32.448  35.085  13.353
 9788W        W78151  36.546   5.334  14.009
 9789W        W78152  38.831   5.873   3.719
 9790W        W78153   3.866  15.589  11.462
 9791W        W78154   8.891  42.497   2.208
 9792W        W78155  37.440  33.924  14.899
 9793W        W78156  29.982   2.367   2.331
 9794W        W78157  30.488  20.208  10.571
 9795W        W78158  36.963  35.015   2.319
 9796W        W78159  40.851  26.067   0.750
 9797W        W78160  26.024  23.014  13.356
 9798W        W78161  10.325  33.083   2.376
 9799W        W78162  31.485  14.702   1.429
 9800W        W78163  20.613  34.450  12.035
 9801W        W78164  41.881  26.644   2.673
 9802W        W78165   3.377  19.079  11.863
 9803W        W78166  41.009  41.448  13.969
 9804W        W78167  44.979  35.954   3.699
 9805W        W78168  10.766  34.570   2.341
 9806W        W78169   2.826  27.046  11.477
 9807W        W78170  34.995  10.331  14.975
 9808W        W78171  35.577  40.339   1.396
 9809W        W78172  29.141  29.978  11.553
 9810W        W78173  32.399  29.096   0.829
 9811W        W78174  10.749  42.294  14.979
 9812W        W78175   8.191  19.053  13.511
 9813W        W78176  21.604   1.828  13.505
 9814W        W78177  15.219  15.589   1.347
 9815W        W78178  22.151  44.981   0.878
 9816W        W78179  44.764  39.548   2.266
 9817W        W78180   0.914  41.298   3.300
 9818W        W78181   2.949  16.660   1.403
 9819W        W78182  12.344  33.401   2.232
 9820W        W78183   1.262  22.548   3.213
 9821W        W78184   3.816  39.515   0.427
 9822W        W78185  39.886  28.530  11.387
 9823W        W78186  38.952   1.741   1.841
 9824W        W78187  15.659  33.491  10.449
 9825W        W78188  44.837  39.834   0.884
 9826W        W78189  38.347  15.212  12.440
 9827W        W78190  14.599  30.425   0.477
 9828W        W78191   9.161  44.918  10.915
 9829W        W78192   1.902   3.333   2.287
 9830W        W78193   1.325  30.555   2.896
 9831W        W78194   5.749  33.463  14.465
 9832W        W78195  28.094  27.976   0.262
 9833W        W78196  10.282  26.593   2.763
 9834W        W78197   2.818  11.159  12.050
 9835W        W78198   3.734   8.218   0.769
 9836W        W78199   8.320   0.249   0.438
 9837W        W78200  20.539  39.483   4.781
 9838W        W78201  13.120  35.497  14.765
 9839W        W78202  21.248   7.677  11.947
 9840W        W78203   3.850  38.024   0.475
 9841W        W78204  17.612  13.657   1.728
 9842W        W78205  24.073  17.685  12.482
 9843W        W78206  34.571  38.489  10.528
 9844W        W78207  10.692  16.269   3.853
 9845W        W78208  18.750   8.675  10.592
 9846W        W78209  36.015   6.256  11.126
 9847W        W78210  17.258  21.560   4.302
 9848W        W78211  33.540  11.319  14.878
 9849W        W78212  28.555  41.365   2.844
 9850W        W78213  33.392   9.269  10.921
 9851W        W78214  34.112  39.510  11.039
 9852W        W78215  25.056  32.043  11.607
 9853W        W78216   6.390   3.941   0.820
 9854W        W78217  32.456   5.325   2.258
 9855W        W78218  22.008  44.771  10.529
 9856W        W78219  19.124  38.430   1.441
 9857W        W78220  30.521  42.777  14.313
 9858W        W78221  22.682  41.920  11.094
 9859W        W78222  40.921  18.682  14.993
 9860W        W78223  16.807  18.560  14.001
 9861W        W78224  42.822  39.958   3.701
 9862W        W78225  25.142   5.888   0.441
 9863W        W78226  22.037  20.067   3.223
 9864W        W78227  14.100  11.639   0.468
 9865W        W78228  30.507  33.608  13.883
 9866W        W78229  28.106  28.156   4.602
 9867W        W78230  29.080  31.149   4.762
 9868W        W78231  41.495  39.808   0.807
 9869W        W78232   9.653   7.299   4.609
 9870W        W78233   9.216  43.372  13.456
 9871W        W78234  10.196  14.182  14.011
 9872W        W78235  17.215  33.072   2.816
 9873W        W78236   8.861  10.669  11.470
 9874W        W78237  43.849  42.941  14.509
 9875W        W78238  42.971  28.532  11.900
 9876W        W78239  17.247  34.900   2.315
 9877W        W78240  25.617  28.572   0.895
 9878W        W78241  21.246  43.287   4.774
 9879W        W78242  41.431  30.492  14.781
 9880W        W78243   6.818  29.481  14.454
 9881W        W78244  19.147  21.160  13.419
 9882W        W78245  27.103   2.727  11.991
 9883W        W78246  20.246  12.733  10.159
 9884W        W78247  28.136  28.179   3.380
 9885W        W78248  44.308  24.036  14.490
 9886W        W78249  12.346   0.790  11.871
 9887W        W78250   0.443   2.433   2.226
 9888W        W78251  21.714  32.003  13.313
 9889W        W78252   5.409  24.155   2.664
 9890W        W78253  29.095  21.027   3.190
 9891W        W78254  38.015  16.578   1.362
 9892W        W78255  16.233   3.279   4.626
 9893W        W78256  31.531  28.985   3.737
 9894W        W78257  22.252   5.797  14.385
 9895W        W78258  18.198  13.685   1.823
 9896W        W78259   1.256  44.388   1.392
 9897W        W78260  15.198   2.315  13.003
 9898W        W78261  31.045  27.541   4.116
 9899W        W78262  10.169   0.488   1.215
 9900W        W78263  44.782   6.914  10.485
 9901W        W78264  38.071  40.968   2.231
 9902W        W78265   2.235  13.139  12.955
 9903W        W78266  19.279  13.137  10.996
 9904W        W78267   7.216  36.364  14.293
 9905W        W78268  14.730  33.101  14.800
 9906W        W78269  10.244  10.265  14.025
 9907W        W78270  35.066  17.594   2.376
 9908W        W78271  31.573  41.958   4.120
 9909W        W78272  39.038   0.771   3.641
 9910W        W78273   3.832  18.081  13.000
 9911W        W78274  43.956  20.659   1.927
 9912W        W78275  19.696  39.510  10.903
 9913W        W78276   4.705  22.149  14.854
 9914W        W78277  39.319  13.320  11.495
 9915W        W78278  18.583  40.803   2.352
 9916W        W78279  21.597  29.095  14.420
 9917W        W78280   2.914  27.036  14.423
 9918W        W78281  19.748  34.918   1.730
 9919W        W78282  38.373  43.764   1.742
 9920W        W78283  23.503  36.886   0.824
 9921W        W78284  24.208  25.514   4.245
 9922W        W78285   0.421  15.310   4.834
 9923W        W78286  40.442  16.211  13.404
 9924W        W78287  19.172  29.629   1.255
 9925W        W78288  43.869  33.404  11.000
 9926W        W78289  25.521  18.629   4.336
 9927W        W78290   3.936  33.395  11.433
 9928W        W78291  22.597   5.225   2.880
 9929W        W78292   0.819  29.510   0.875
 9930W        W78293  17.586   1.929  12.038
 9931W        W78294  12.133  37.540  14.502
 9932W        W78295  32.608  23.996   3.200
 9933W        W78296  22.181  43.511  13.001
 9934W        W78297   9.248  19.679  10.432
 9935W        W78298  40.047   8.285   1.326
 9936W        W78299  11.808  11.822  11.916
 9937W        W78300   7.206  27.676   0.452
 9938W        W78301  33.117  31.627  14.025
 9939W        W78302  23.138  44.264  14.343
 9940W        W78303  39.821  10.700   3.312
 9941W        W78304  26.650   4.304  12.842
 9942W        W78305  35.528  40.817  14.933
 9943W        W78306  13.209  27.006  14.761
 9944W        W78307   5.248  15.690   0.851
 9945W        W78308  14.617  11.864   2.358
 9946W        W78309  36.996  18.093  12.894
 9947W        W78310  42.858  37.392  10.044
 9948W        W78311   7.282   8.689  10.563
 9949W        W78312  20.618  40.859   3.255
 9950W        W78313  30.522  12.620  11.885
 9951W        W78314  26.621  11.327   4.286
 9952W        W78315   6.760  44.988  13.039
 9953W        W78316  27.121  24.702  14.766
 9954W        W78317   0.277  28.947  14.464
 9955W        W78318  11.201  11.285  13.449
 9956W        W78319  19.773  30.132   2.355
 9957W        W78320  25.165  35.941  11.483
 9958W        W78321  41.509  13.651  12.066
 9959W        W78322  37.040   0.744  14.970
 9960W        W78323  34.939  35.107   2.810
 9961W        W78324  29.443  44.352   4.655
 9962W        W78325  30.596   4.392   0.257
 9963W        W78326  20.129  22.251  10.913
 9964W        W78327  40.871  34.567  14.998
 9965W        W78328   4.233  14.246   1.347
 9966W        W78329   0.379  11.324   2.851
 9967W        W78330  12.669   4.274  12.514
 9968W        W78331   4.712  40.418  11.062
 9969W        W78332  34.979  31.120  14.970
 9970W        W78333  23.085  27.625   1.746
 9971W        W78334  13.611   1.357   1.703
 9972W        W78335  21.531   1.436  12.417
 9973W        W78336   7.366  21.134  14.006
 9974W        W78337  16.188  38.556   2.791
 9975W        W78338  29.454  21.142  10.070
 9976W        W78339  22.053  20.587  13.368
 9977W        W78340  26.029  33.453   0.451
 9978W        W78341  15.166  22.239   2.388
 9979W        W78342  15.781  10.209   1.761
 9980W        W78343  20.630  33.074  13.538
 9981W        W78344  32.990   0.490  10.618
 9982W        W78345   9.773  41.005   3.795
 9983W        W78346  18.196   6.770  14.863
 9984W        W78347   1.378  27.593  14.974
 9985W        W78348   9.355  10.744  14.792
 9986W        W78349   9.347  20.034  13.014
 9987W        W78350  24.184  38.499  12.875
 9988W        W78351  29.174   9.755  12.509
 9989W        W78352  33.130  18.655   2.701
 9990W        W78353  21.091   8.267  13.018
 9991W        W78354   2.849   5.699   1.905
 9992W        W78355  44.405  43.325  10.541
 9993W        W78356   2.438   1.920   3.300
 9994W        W78357  34.468   9.675   2.322
 9995W        W78358  23.200   1.244  13.879
 9996W        W78359  15.257  34.442  14.839
 9997W        W78360  17.638  44.829  14.440
 9998W        W78361  32.548  36.848  13.331
 9999W        W78362   0.918   3.246   4.263
10000W        W78363  29.943  43.796  12.367
10001W        W78364  20.118  13.789   4.598
10002W        W78365  18.577   9.668  13.422
10003W        W78366  24.620  27.023   0.795
10004W        W78367   6.330  13.206  10.437
10005W        W78368  30.456  40.805   4.288
10006W        W78369  14.766  20.567  12.490
10007W        W78370   6.822  27.574   3.154
10008W        W78371   4.724   2.285  13.814
10009W        W78372  38.326   0.960  12.350
10010W        W78373  35.869   0.465  14.300
10011W        W78374  44.902  32.407   4.648
10012W        W78375  27.958   4.711  13.028
10013W        W78376  31.993  29.443  14.888
10014W        W78377  10.178  31.404   4.211
10015W        W78378  14.314   1.903   4.628
10016W        W78379  33.884   6.831  11.935
10017W        W78380  24.665   1.270   0.282
10018W        W78381  12.816  25.031  13.382
10019W        W78382  30.423   9.206  13.320
10020W        W78383  34.512  14.339   3.765
10021W        W78384  29.641   7.209   4.258
10022W        W78385   7.688  14.111   2.189
10023W        W78386  22.043  33.122   2.225
10024W        W78387  37.045  31.056  11.957
10025W        W78388   9.238  19.533  13.860
10026W        W78389  44.896  32.599   1.424
10027W        W78390  44.916  38.053   1.714
10028W        W78391  11.622  34.479   4.304
10029W        W78392  23.540  23.586  10.629
10030W        W78393  19.626  20.592  11.373
10031W        W78394  26.592  25.083  10.954
10032W        W78395  11.128   8.358  11.982
10033W        W78396  11.362  30.477  13.044
10034W        W78397  39.482  27.508   1.336
10035W        W78398   0.772  34.484   5.281
10036W        W78399   9.338  25.109   1.337
10037W        W78400  39.923  16.756  10.623
10038W        W78401  38.899  33.940  13.393
10039W        W78402   6.357  20.622  11.521
10040W        W78403  22.121  42.432  12.853
10041W        W78404  29.653  13.662   1.413
10042W        W78405  13.234  34.589  12.483
10043W        W78406  25.021  25.524  13.838
10044W        W78407  39.323  18.152  12.350
10045W        W78408  37.072  26.006   0.284
10046W        W78409  13.756  33.429  14.889
10047W        W78410  29.013  19.680   4.693
10048W        W78411  35.493  43.894  13.862
10049W        W78412  11.228   7.208  12.504
10050W        W78413  19.222  28.450  13.348
10051W        W78414   3.286  44.270  14.282
10052W        W78415  34.971  44.349  11.966
10053W        W78416   0.340  30.646  13.823
10054W        W78417   7.202  29.568  13.970
10055W        W78418  14.172   6.746  14.286
10056W        W78419  42.985   6.421  14.780
10057W        W78420  43.785  31.150  14.027
10058W        W78421  38.555  11.227   2.716
10059W        W78422  21.104  30.912  12.351
10060W        W78423   7.849  16.266  10.449
10061W        W78424   2.438  29.057  11.521
10062W        W78425  19.632   2.443   4.271
10063W        W78426  19.550   5.312   4.274
10064W        W78427  10.639  15.811  12.566
10065W        W78428   7.786  42.511  14.459
10066W        W78429  32.583  26.544   4.779
10067W        W78430  23.556  27.189   3.767
10068W        W78431  15.253  31.527   1.218
10069W        W78432  28.123  33.390   2.719
10070W        W78433  11.332  28.023  14.790
10071W        W78434   1.923   0.763  11.432
10072W        W78435  44.391  21.718  13.368
10073W        W78436   1.323  23.735  11.116
10074W        W78437   3.374  42.852  14.964
10075W        W78438   3.821  20.183   1.369
10076W        W78439  17.555  25.673  12.029
10077W        W78440  33.455  25.152   1.368
10078W        W78441   2.255  21.705   2.761
10079W        W78442  31.954  37.902   2.719
10080W        W78443  12.237   6.378  10.077
10081W        W78444   3.378  35.887  10.439
10082W        W78445  32.635   3.743  12.915
10083W        W78446  41.873   7.821   0.791
10084W        W78447  37.003   8.347   4.353
10085W        W78448  24.082   0.921  12.435
10086W        W78449  36.862   6.676  12.565
10087W        W78450   1.482  22.535  14.825
10088W        W78451  33.880  29.602  12.508
10089W        W78452   4.336   8.244   2.331
10090W        W78453  20.225  17.127   1.234
10091W        W78454  17.282  35.477  13.978
10092W        W78455  15.659   7.173   3.825
10093W        W78456  39.010  15.294   3.697
10094W        W78457  38.570   8.776  12.080
10095W        W78458   1.852  22.031   9.598
10096W        W78459  10.187  16.601   3.263
10097W        W78460   0.941  12.118   3.716
10098W        W78461   3.948   0.402  14.442
10099W        W78462   3.752  11.160   2.282
10100W        W78463   2.734  18.622  10.515
10101W        W78464  22.239  40.898   0.322
10102W        W78465  42.440   1.328  13.373
10103W        W78466  38.485  26.585  13.473
10104W        W78467  16.746  29.583   4.331
10105W        W78468   1.309   0.311   9.932
10106W        W78469  21.122  41.885  14.334
10107W        W78470  24.072  43.298  12.982
10108W        W78471  18.719  13.641   0.739
10109W        W78472  24.026  37.464  13.405
10110W        W78473  15.620  41.005  14.768
10111W        W78474  21.659  22.150   4.293
10112W        W78475   4.222  39.314   0.364
10113W        W78476  20.731  39.886  10.502
10114W        W78477   1.806  23.635   3.174
10115W        W78478  28.085  16.290   2.884
10116W        W78479  15.114   6.880   4.347
10117W        W78480  20.563   8.851  12.478
10118W        W78481  35.022   6.270  14.772
10119W        W78482   5.888   7.789   0.345
10120W        W78483   4.251  43.448   3.739
10121W        W78484  16.752  26.478  14.918
10122W        W78485  33.477   5.236   2.318
10123W        W78486   5.236  38.459  12.064
10124W        W78487  26.108  32.632   2.237
10125W        W78488  27.976  13.139   4.815
10126W        W78489   2.928  35.086  13.963
10127W        W78490  32.514  26.140  11.957
10128W        W78491  12.183  22.611  13.513
10129W        W78492  22.534   2.290   4.685
10130W        W78493  18.602  22.511   0.964
10131W        W78494  36.486  23.634   0.436
10132W        W78495   3.886  18.207  14.884
10133W        W78496   3.263  42.398   0.314
10134W        W78497  35.467   2.410  10.613
10135W        W78498  10.696  38.076   0.421
10136W        W78499  30.006  11.763  12.858
10137W        W78500  27.574  29.494   2.667
10138W        W78501  13.175  17.278   5.157
10139W        W78502  37.913  44.791   4.184
10140W        W78503  38.011  19.557  13.976
10141W        W78504  41.945  14.679  12.874
10142W        W78505  43.434  11.840   1.707
10143W        W78506   1.454  19.074   1.851
10144W        W78507  28.544   1.817  12.069
10145W        W78508  25.178  37.562  12.991
10146W        W78509   1.907  29.635  12.828
10147W        W78510   0.986  34.595   3.212
10148W        W78511  13.200  16.652   0.309
10149W        W78512  19.556  36.858  13.889
10150W        W78513  29.560  36.006  12.353
10151W        W78514  18.213  44.938   1.268
10152W        W78515  11.630  37.840  11.947
10153W        W78516  39.873  39.506   4.239
10154W        W78517  32.438  17.123  14.425
10155W        W78518  21.754  10.854  14.812
10156W        W78519  20.242  12.656  13.959
10157W        W78520  36.992  15.760  13.973
10158W        W78521  43.922   4.229  11.605
10159W        W78522   5.835   1.319  14.795
10160W        W78523  42.468   9.352  13.825
10161W        W78524  17.621  28.114   2.339
10162W        W78525  35.913  15.580   0.961
10163W        W78526  15.303   6.757  14.496
10164W        W78527  17.148  12.748  10.063
10165W        W78528   3.829   5.284  11.875
10166W        W78529  13.310  23.600  12.479
10167W        W78530  23.580  18.587  12.885
10168W        W78531  32.017  11.777   4.827
10169W        W78532  10.804  30.558   3.728
10170W        W78533  24.686  36.534   3.825
10171W        W78534   1.417  35.539   1.374
10172W        W78535  16.201  30.583   5.183
10173W        W78536   4.891  13.236   2.320
10174W        W78537   6.680  17.198  13.488
10175W        W78538  42.992  32.453   4.731
10176W        W78539  40.020  10.202   0.779
10177W        W78540   6.785   3.419   1.840
10178W        W78541  42.958   3.433  12.357
10179W        W78542  39.443  13.150  14.448
10180W        W78543  24.619  30.590   0.903
10181W        W78544  22.239  12.762   3.261
10182W        W78545  34.111  19.552  14.314
10183W        W78546  44.980   2.316   2.354
10184W        W78547  12.149  36.085   3.368
10185W        W78548   4.427   6.886   1.783
10186W        W78549   8.873  36.959  10.514
10187W        W78550   7.794   9.651   1.846
10188W        W78551  10.809  25.496   2.235
10189W        W78552   0.957  34.567   9.980
10190W        W78553  32.126   8.696   2.394
10191W        W78554  31.956  13.179  14.279
10192W        W78555   0.977  32.967  11.906
10193W        W78556  21.062  35.520  11.468
10194W        W78557  23.021  43.851  12.937
10195W        W78558  22.644   9.668   4.724
10196W        W78559   0.921  30.029   0.358
10197W        W78560  10.715   4.752   4.655
10198W        W78561  40.024  30.083   0.306
10199W        W78562  14.329  27.602  14.469
10200W        W78563   2.362  17.109  10.024
10201W        W78564   3.794  20.544   3.831
10202W        W78565  25.680  13.110   0.366
10203W        W78566   7.740  24.576  11.893
10204W        W78567   0.970  22.175   0.801
10205W        W78568   1.455  31.620  12.899
10206W        W78569  12.628  34.093  12.422
10207W        W78570   5.878  23.190   2.250
10208W        W78571   7.730  30.461  11.496
10209W        W78572  30.908  10.244  13.912
10210W        W78573   2.898  42.397  10.967
10211W        W78574  41.797   1.938  14.336
10212W        W78575  32.445   2.395   3.164
10213W        W78576  14.797  43.859  14.876
10214W        W78577  32.634  38.499   2.783
10215W        W78578  23.038  44.278  10.929
10216W        W78579   1.357  32.585  11.103
10217W        W78580  13.657  30.459  11.419
10218W        W78581  19.692   4.373   3.752
10219W        W78582  42.893   3.905  13.914
10220W        W78583  18.250  25.476   1.740
10221W        W78584  33.584   9.172   2.242
10222W        W78585  11.690  41.411   4.251
10223W        W78586  20.110   3.821  12.347
10224W        W78587  24.716  25.714   1.929
10225W        W78588  37.915  12.236  11.587
10226W        W78589  29.641  13.617  12.941
10227W        W78590  36.468  23.722   9.935
10228W        W78591  12.185  15.787  14.393
10229W        W78592   8.283  31.481   4.122
10230W        W78593  29.052  28.468   1.859
10231W        W78594  42.955  24.070  11.040
10232W        W78595  27.513   9.196   4.702
10233W        W78596  25.580  22.595  12.014
10234W        W78597  41.834  38.834   4.769
10235W        W78598  20.206  16.262  12.368
10236W        W78599  27.470   3.795  12.562
10237W        W78600  35.400  30.487  13.064
10238W        W78601  35.038  42.416   2.284
10239W        W78602   5.220   6.288   2.290
10240W        W78603   7.240  44.433  14.338
10241W        W78604  39.011   4.920   4.623
10242W        W78605   1.878   1.775   4.234
10243W        W78606  36.948  18.178  13.794
10244W        W78607  30.451  42.893   4.310
10245W        W78608  21.145  36.523   1.885
10246W        W78609   9.391   9.261  11.539
10247W        W78610  26.065  18.712   4.333
10248W        W78611  22.240  29.668   1.222
10249W        W78612  26.579  18.291  11.044
10250W        W78613  37.839   9.261  10.907
10251W        W78614  19.190   8.332   0.272
10252W        W78615  11.263  39.409   4.720
10253W        W78616  10.813  37.485  14.916
10254W        W78617  38.428  29.454  12.865
10255W        W78618  21.649   7.891  11.951
10256W        W78619  31.413  39.990  14.317
10257W        W78620  28.173   0.473  10.434
10258W        W78621  19.198  19.052   2.266
10259W        W78622  12.647  41.956   2.733
10260W        W78623   5.241  39.488  10.956
10261W        W78624   3.908  24.978   4.807
10262W        W78625  11.728  21.694  14.330
10263W        W78626  37.976  42.437  11.590
10264W        W78627   6.375  36.037   4.194
10265W        W78628  35.521  21.587  12.493
10266W        W78629   4.752   2.880  11.053
10267W        W78630  20.768  25.139  11.072
10268W        W78631   7.765  24.145  10.463
10269W        W78632  32.973   1.251   1.923
10270W        W78633  42.868  44.272  13.513
10271W        W78634  22.225   9.738   4.311
10272W        W78635  21.120  17.279  14.990
10273W        W78636  41.313  23.151  12.576
10274W        W78637   2.902   3.453  12.377
10275W        W78638   5.885  25.178  12.988
10276W        W78639  36.366   3.245  13.985
10277W        W78640  29.667  22.639  11.127
10278W        W78641  31.153  19.666   4.127
10279W        W78642   6.311  32.409  12.055
10280W        W78643  14.692  23.619  13.053
10281W        W78644  28.942  13.223   3.173
10282W        W78645  38.883  13.335   9.941
10283W        W78646  19.256  28.493  13.007
10284W        W78647  31.614  26.130   3.865
10285W        W78648  13.320   8.838   3.760
10286W        W78649  30.149  16.198   3.706
10287W        W78650  12.216  10.866   1.887
10288W        W78651   6.303  38.023   4.334
10289W        W78652  24.706  38.340   0.337
10290W        W78653  44.892  43.941   0.402
10291W        W78654  35.593  16.622  11.903
10292W        W78655  42.458  42.896   0.434
10293W        W78656  36.471  34.536  13.813
10294W        W78657  42.295  39.004  11.925
10295W        W78658  33.566  41.319   0.442
10296W        W78659  14.199  10.715  12.926
10297W        W78660  12.279  23.491   1.394
10298W        W78661  32.139  12.629   2.227
10299W        W78662  38.402   9.794   1.258
10300W        W78663  27.485  24.053  13.326
10301W        W78664  29.141  22.557   3.194
10302W        W78665  36.931  15.763   0.436
10303W        W78666  24.524   7.704  10.937
10304W        W78667  26.462  13.719   1.324
10305W        W78668  31.018   4.877   0.275
10306W        W78669  27.626  17.739   3.168
10307W        W78670  14.655   7.238  14.497
10308W        W78671  43.997  17.228  11.942
10309W        W78672  18.188   3.324   1.297
10310W        W78673  18.786  41.448   9.442
10311W        W78674   3.750   5.761   4.749
10312W        W78675  20.587  11.199   4.303
10313W        W78676  33.459  11.365  12.393
10314W        W78677  26.978  10.151   3.661
10315W        W78678  40.361   7.176  10.946
10316W        W78679  31.977  21.718   0.760
10317W        W78680  20.227  11.632   1.744
10318W        W78681   2.414   1.335   3.680
10319W        W78682  20.030  31.927  14.389
10320W        W78683   3.872  20.131  12.087
10321W        W78684  16.759  30.435  12.385
10322W        W78685   7.241  17.150   1.444
10323W        W78686  32.429  11.262   0.251
10324W        W78687  17.299  34.536  10.986
10325W        W78688  21.124  30.571  11.496
10326W        W78689  19.135  21.698  12.875
10327W        W78690  39.932   9.206   3.691
10328W        W78691   7.744  42.879  11.392
10329W        W78692  10.346  21.562  12.555
10330W        W78693  33.409   5.324   4.753
10331W        W78694  29.004  26.617  10.052
10332W        W78695  13.740   9.312   4.829
10333W        W78696  28.109   1.793   1.311
10334W        W78697  35.023  10.173  12.461
10335W        W78698   4.222  27.975  13.346
10336W        W78699  17.269  14.602  11.020
10337W        W78700  40.048  41.990  10.516
10338W        W78701   4.775  21.039   2.400
10339W        W78702  31.103   0.334   4.212
10340W        W78703   6.702  21.578  11.580
10341W        W78704  29.583  18.635   0.264
10342W        W78705   5.875  21.116  13.347
10343W        W78706  33.959   0.870  11.569
10344W        W78707   8.696   0.323   1.835
10345W        W78708  17.604  24.590   0.933
10346W        W78709  40.389  29.667  10.897
10347W        W78710  10.860  28.046   0.869
10348W        W78711  35.604   8.660  10.611
10349W        W78712  34.006   5.909  14.892
10350W        W78713  30.538  27.471   4.343
10351W        W78714   0.841  32.432   0.373
10352W        W78715   4.262  19.687  11.576
10353W        W78716  26.970  21.179  12.903
10354W        W78717  33.092  32.887  14.944
10355W        W78718  27.562   3.826   0.471
10356W        W78719  24.697  31.073  12.443
10357W        W78720   2.878   7.754   0.909
10358W        W78721   8.361  18.258   2.884
10359W        W78722   3.342  18.250   4.807
10360W        W78723  12.292  27.635   1.757
10361W        W78724  26.056  36.079  14.967
10362W        W78725   0.926  11.762   4.648
10363W        W78726  24.179  41.510  14.791
10364W        W78727  42.843   7.324  11.420
10365W        W78728  39.471  20.666  13.362
10366W        W78729  23.624   2.279   3.182
10367W        W78730  29.167  16.599  11.995
10368W        W78731  17.615  38.539  11.517
10369W        W78732  27.945  41.900  11.561
10370W        W78733  19.148  40.512  10.528
10371W        W78734  32.499  12.707  14.025
10372W        W78735  15.145  32.613  10.527
10373W        W78736  16.165  29.517  11.951
10374W        W78737  18.776  44.846   4.600
10375W        W78738  39.955  33.458   2.830
10376W        W78739  10.369  25.035  10.561
10377W        W78740  11.362  37.028   0.815
10378W        W78741  32.013  11.866  14.889
10379W        W78742  18.097   6.766  11.598
10380W        W78743  38.981  39.317   0.808
10381W        W78744   1.479  34.035  12.440
10382W        W78745  11.633  12.132  13.378
10383W        W78746  32.030  25.659  11.112
10384W        W78747  32.000  17.291  13.038
10385W        W78748   4.908  32.432   3.686
10386W        W78749  43.892   9.331   3.806
10387W        W78750  43.873  24.590  10.592
10388W        W78751   6.385  43.510   3.646
10389W        W78752  20.540   1.298   1.701
10390W        W78753  12.742  43.899  13.842
10391W        W78754  19.777  31.924  12.564
10392W        W78755  11.157  40.893  14.428
10393W        W78756  20.204  43.826   0.797
10394W        W78757  28.464  12.334  14.836
10395W        W78758  24.541   8.181   3.855
10396W        W78759  43.946  34.480   1.293
10397W        W78760  17.773  33.998   0.249
10398W        W78761  35.008  16.230  11.864
10399W        W78762  17.650  43.889   2.902
10400W        W78763  25.032  17.202   1.801
10401W        W78764  12.185  38.855  11.863
10402W        W78765  40.032  43.349   2.275
10403W        W78766  10.208  33.454  12.911
10404W        W78767  16.659  31.036  11.972
10405W        W78768  31.935  32.562   4.245
10406W        W78769  34.423  10.678   4.633
10407W        W78770  28.576  40.867  13.333
10408W        W78771  36.969  20.177   3.371
10409W        W78772   4.742  44.911  14.879
10410W        W78773  38.822  37.842  14.491
10411W        W78774  41.414  38.432   2.199
10412W        W78775  41.532  29.503   4.259
10413W        W78776  12.631  32.037   3.794
10414W        W78777   5.848  44.767   4.833
10415W        W78778  36.927  27.502   4.234
10416W        W78779   2.396   2.864   2.749
10417W        W78780  42.831  28.627  14.763
10418W        W78781  19.562  12.680  12.413
10419W        W78782  27.972  20.081  14.478
10420W        W78783   5.784   7.733   1.365
10421W        W78784  41.884  19.681   4.327
10422W        W78785   9.257  22.118  11.563
10423W        W78786   7.265  31.090   0.918
10424W        W78787  28.486  27.008  10.984
10425W        W78788  14.655  26.024  10.585
10426W        W78789  36.502  23.530  12.456
10427W        W78790  20.696  31.543   0.884
10428W        W78791   9.232  34.027  12.041
10429W        W78792   7.745  42.794   0.874
10430W        W78793  12.227   0.343  12.092
10431W        W78794  14.645   8.861   2.861
10432W        W78795  21.227  25.974   2.259
10433W        W78796  33.038  26.084   1.842
10434W        W78797  24.129  40.379  11.119
10435W        W78798  30.606  32.560   4.784
10436W        W78799  36.935  39.513  10.917
10437W        W78800  16.759   2.892  11.105
10438W        W78801  36.964   4.805   1.337
10439W        W78802  25.068  22.221  11.907
10440W        W78803  35.422  34.426   4.331
10441W        W78804  27.661  42.979   0.832
10442W        W78805  37.516  41.512   1.804
10443W        W78806  13.725  38.005  12.524
10444W        W78807   3.437  41.344  13.376
10445W        W78808   7.860  37.011   3.325
10446W        W78809  11.708   8.179  14.983
10447W        W78810  16.310   1.770  14.820
10448W        W78811   8.842  41.400  10.926
10449W        W78812  28.668   4.417   2.746
10450W        W78813  28.653  21.635   0.295
10451W        W78814  18.151  11.146  14.958
10452W        W78815  44.358   4.223  12.843
10453W        W78816   3.842  44.298  10.574
10454W        W78817  24.223  43.921  11.964
10455W        W78818  29.977  14.152   1.745
10456W        W78819   0.929   4.931   4.230
10457W        W78820   7.826   1.859   4.248
10458W        W78821  33.014  11.348   2.780
10459W        W78822   6.265  15.628   0.325
10460W        W78823  40.884  31.075  10.579
10461W        W78824  34.376  18.055   2.323
10462W        W78825  12.701  13.234  13.359
10463W        W78826  27.644   9.800   1.769
10464W        W78827  11.802  31.497   4.755
10465W        W78828   6.210   5.898   4.776
10466W        W78829  34.472   2.795   4.215
10467W        W78830  22.048  32.429  10.911
10468W        W78831   4.423  31.110   0.442
10469W        W78832  38.051  44.902  11.025
10470W        W78833  29.918   7.249  14.356
10471W        W78834  24.619  15.581  13.988
10472W        W78835  15.658   2.963  11.555
10473W        W78836   2.445  28.082  10.893
10474W        W78837  44.787  44.327   1.283
10475W        W78838  15.746  34.948  14.475
10476W        W78839  23.710   0.494   0.464
10477W        W78840  18.080  36.374  10.418
10478W        W78841  30.141  36.556   0.902
10479W        W78842  27.084  22.607   3.205
10480W        W78843  44.378   5.359   1.347
10481W        W78844  35.941  14.609  13.468
10482W        W78845  24.684  19.230   3.342
10483W        W78846  34.613  26.069  14.290
10484W        W78847  37.485   0.881   4.305
10485W        W78848   7.203  36.454  11.020
10486W        W78849  27.467  10.649  11.994
10487W        W78850   1.905  23.556  14.415
10488W        W78851  20.136  39.381  13.051
10489W        W78852   6.314  34.539  14.822
10490W        W78853  37.348  25.574   0.814
10491W        W78854   3.830   3.932  11.073
10492W        W78855  14.616  24.606   4.166
10493W        W78856  35.921  32.396  13.416
10494W        W78857  36.502  34.004   3.669
10495W        W78858  40.326   5.286  13.964
10496W        W78859  18.052  21.053  10.078
10497W        W78860  17.197  19.608  12.378
10498W        W78861  30.914   6.248   4.668
10499W        W78862  38.414   3.325   3.240
10500W        W78863  25.570   3.752  14.891
10501W        W78864  34.483  18.127  10.998
10502W        W78865  36.487  43.484  12.552
10503W        W78866  36.009  31.129   4.754
10504W        W78867  25.164  21.743   2.755
10505W        W78868  16.581  22.679   1.256
10506W        W78869  29.950  32.608  14.909
10507W        W78870  14.160  29.465   0.385
10508W        W78871  27.108  12.262  12.953
10509W        W78872  21.644  25.682   3.372
10510W        W78873  12.848  22.616   2.300
10511W        W78874   4.216   0.860  11.063
10512W        W78875  16.696   3.805   3.725
10513W        W78876  23.552  11.353   3.835
10514W        W78877   1.744  10.142   1.366
10515W        W78878  14.811  15.772  12.986
10516W        W78879  29.074  28.022   2.210
10517W        W78880  32.073  10.190   1.299
10518W        W78881  25.166  14.741  12.090
10519W        W78882  37.506  18.224   2.838
10520W        W78883   7.295  26.506   0.310
10521W        W78884  34.372  21.115  12.967
10522W        W78885  27.031   3.427   0.728
10523W        W78886  23.077  33.032  12.950
10524W        W78887   0.352  21.545   0.286
10525W        W78888  14.636  22.570   0.333
10526W        W78889  38.932   6.877   0.431
10527W        W78890  34.888  14.264   4.799
10528W        W78891  24.510  12.357   0.308
10529W        W78892  34.511  16.218  10.419
10530W        W78893  36.557  15.159   4.783
10531W        W78894  40.973  30.140   2.281
10532W        W78895  13.835  29.948   2.239
10533W        W78896  16.184   0.789  12.873
10534W        W78897   9.802  35.413   0.298
10535W        W78898  12.170  27.053  10.990
10536W        W78899  14.161  16.734   4.157
10537W        W78900  11.815   1.956  12.040
10538W        W78901   9.856   5.868  12.087
10539W        W78902  28.061  31.048  14.945
10540W        W78903  30.416  19.084  12.365
10541W        W78904  33.393   9.354   5.171
10542W        W78905  43.882  24.162  12.501
10543W        W78906   7.242  17.173   1.914
10544W        W78907  23.117  33.605   4.731
10545W        W78908   3.871  30.428   2.857
10546W        W78909  25.508  14.664   0.876
10547W        W78910  32.019   7.733   4.249
10548W        W78911   4.430  26.564  12.442
10549W        W78912  16.713  40.879  11.920
10550W        W78913  36.429  25.198   0.781
10551W        W78914  28.631  39.923  11.437
10552W        W78915  22.740   0.300  14.786
10553W        W78916   4.916  41.034  12.849
10554W        W78917  36.059  15.213   1.907
10555W        W78918  25.004  43.835   0.879
10556W        W78919  35.945  41.918  13.404
10557W        W78920  26.672   1.838  13.421
10558W        W78921  20.523   8.210   0.902
10559W        W78922   3.766   8.256  11.042
10560W        W78923  18.680  23.736  13.993
10561W        W78924   8.316  18.682  10.512
10562W        W78925  17.685  36.577   3.760
10563W        W78926  35.577  33.590  11.513
10564W        W78927  16.098  19.726   2.704
10565W        W78928  22.219   6.770  10.926
10566W        W78929   0.903  31.557   0.360
10567W        W78930  42.978   8.770  13.018
10568W        W78931  41.363   1.740   2.199
10569W        W78932   1.288  42.514   4.204
10570W        W78933   4.931  23.229  11.120
10571W        W78934  26.091  14.162  11.050
10572W        W78935  12.725   7.349  13.934
10573W        W78936  43.967  44.368   3.163
10574W        W78937  21.099  26.952   2.847
10575W        W78938  22.532  14.244  12.943
10576W        W78939  12.827  34.868   3.242
10577W        W78940  26.987  41.496  13.341
10578W        W78941  24.030  11.303  14.991
10579W        W78942   9.879  37.035  12.000
10580W        W78943  34.103  43.787   4.278
10581W        W78944  39.422  38.365  13.877
10582W        W78945  16.794  27.146  10.608
10583W        W78946  42.856  11.770   3.376
10584W        W78947  18.623   8.836  11.546
10585W        W78948   4.870  14.772  14.391
10586W        W78949  31.998  20.650  13.356
10587W        W78950   5.748  17.643  12.881
10588W        W78951   2.331  43.882   4.662
10589W        W78952  30.521   9.654  10.531
10590W        W78953  20.726  44.489  14.487
10591W        W78954  28.139  42.380   1.702
10592W        W78955  17.560  31.428   0.865
10593W        W78956  23.519  30.048   1.798
10594W        W78957   0.327  34.896   0.929
10595W        W78958  37.034   0.763  12.524
10596W        W78959  31.612  15.794   4.650
10597W        W78960  10.867  19.640  13.493
10598W        W78961  36.953   2.776   4.286
10599W        W78962  27.120  34.380   4.293
10600W        W78963  36.016  24.642  12.901
10601W        W78964  27.623   4.769   2.729
10602W        W78965  24.585  17.193  14.013
10603W        W78966  13.622  24.548  12.933
10604W        W78967  32.020   2.371  11.482
10605W        W78968   1.918  30.655   4.319
10606W        W78969  11.661   3.763  11.531
10607W        W78970  13.783  23.990  11.903
10608W        W78971  29.098  33.487   4.649
10609W        W78972  31.968   0.439   2.835
10610W        W78973  23.052  31.082   4.731
10611W        W78974  21.224  12.284   1.418
10612W        W78975  32.554  10.761   3.760
10613W        W78976  25.087   8.840  11.541
10614W        W78977   4.806  21.649  11.586
10615W        W78978  26.970  24.187  11.867
10616W        W78979   2.895  31.028   3.317
10617W        W78980   3.397  23.042   3.831
10618W        W78981   3.389   6.331   0.938
10619W        W78982   2.760  37.898   3.859
10620W        W78983  27.000  34.555  11.082
10621W        W78984  41.009  21.132  10.597
10622W        W78985  15.184  24.621   0.789
10623W        W78986  20.246   6.793  12.862
10624W        W78987  25.687  18.713  12.576
10625W        W78988  22.623  23.490  14.794
10626W        W78989  40.005  11.693  11.402
10627W        W78990  28.496  27.074   0.827
10628W        W78991   7.822  11.239   2.290
10629W        W78992  34.533  19.208  10.420
10630W        W78993  37.968  38.930   2.287
10631W        W78994  28.544  23.187  12.050
10632W        W78995  15.316  33.543   4.146
10633W        W78996  10.810   5.371   0.261
10634W        W78997  36.965   6.256   0.921
10635W        W78998  15.752  22.044   3.720
10636W        W78999  31.975  34.029   1.797
10637W        W79000  18.112  30.937  10.535
10638W        W79001  44.350  12.147   3.673
10639W        W79002  21.717   2.257   1.799
10640W        W79003  37.948  21.244  11.098
10641W        W79004  42.806  41.414  10.421
10642W        W79005  39.445  43.404  14.277
10643W        W79006  16.298   7.307  14.917
10644W        W79007  26.673   9.787  10.496
10645W        W79008  27.144  41.525   2.786
10646W        W79009   5.748  22.203  13.000
10647W        W79010   2.356  26.020  11.996
10648W        W79011  42.928  13.736   1.377
10649W        W79012  31.125  10.345   5.319
10650W        W79013  22.696  27.010  13.948
10651W        W79014  43.900  24.501   3.814
10652W        W79015  14.819  27.455   1.242
10653W        W79016  23.699  16.074   2.283
10654W        W79017   1.248  27.594  12.051
10655W        W79018  24.592  27.446  14.888
10656W        W79019   4.772  25.185   9.929
10657W        W79020  23.604  22.613  13.980
10658W        W79021  24.161  42.295  10.939
10659W        W79022  23.151  42.857   2.769
10660W        W79023  23.728   0.953  14.806
10661W        W79024  43.879  20.704   2.366
10662W        W79025   2.939   7.315  14.353
10663W        W79026  39.930  32.888   2.352
10664W        W79027  17.220  40.853   1.748
10665W        W79028   4.936  39.015  13.060
10666W        W79029  34.516  12.698   2.857
10667W        W79030  23.034   3.440  12.898
10668W        W79031  25.034  14.273   5.172
10669W        W79032  39.497   5.915   0.464
10670W        W79033  34.985  36.556  12.876
10671W        W79034  11.683  38.861   1.812
10672W        W79035  35.947   4.737  14.021
10673W        W79036   1.350  13.198  13.833
10674W        W79037   9.703   6.181   1.251
10675W        W79038  32.521  24.591   1.234
10676W        W79039  28.589   0.874  10.536
10677W        W79040  34.563  21.704   4.174
10678W        W79041  18.258  24.551   2.361
10679W        W79042   0.478  27.599  14.987
10680W        W79043   0.780  11.743  14.891
10681W        W79044  38.494  27.144  12.977
10682W        W79045  26.688  40.874   0.426
10683W        W79046  24.716  24.056   4.267
10684W        W79047  33.944  17.736  14.297
10685W        W79048  37.865  16.104   2.822
10686W        W79049  26.579  28.028  13.325
10687W        W79050   8.379  32.112  10.981
10688W        W79051  35.070   6.810   4.835
10689W        W79052  39.918  44.434   1.730
10690W        W79053  40.477  14.116   1.712
10691W        W79054  39.556  29.004   0.742
10692W        W79055  13.636  42.903  12.384
10693W        W79056   0.884  36.012   0.444
10694W        W79057  18.728   7.372   0.750
10695W        W79058   7.402  12.738  11.907
10696W        W79059   3.852  19.610  14.383
10697W        W79060  23.609  22.674  10.985
10698W        W79061  40.399  13.172   1.713
10699W        W79062  33.381  28.084  11.939
10700W        W79063  29.009  12.754  10.972
10701W        W79064  12.242  30.504  11.431
10702W        W79065  12.732  10.168  13.905
10703W        W79066  28.679   7.688  11.589
10704W        W79067  20.187  22.250   2.815
10705W        W79068  32.056  30.043  11.871
10706W        W79069  16.283  17.209   3.696
10707W        W79070  13.772  35.387  13.445
10708W        W79071   6.688   8.765   0.815
10709W        W79072   9.312   3.786   1.824
10710W        W79073  25.547   7.815  14.434
10711W        W79074  26.620  10.282   3.205
10712W        W79075  17.114   5.698  10.621
10713W        W79076  35.454  44.329   0.844
10714W        W79077  18.780   8.681   3.208
10715W        W79078  18.142  20.542   1.762
10716W        W79079  30.135  33.624  14.785
10717W        W79080  21.062  24.024   1.231
10718W        W79081  39.057  16.089   1.399
10719W        W79082  36.492  41.998  10.950
10720W        W79083   0.297  17.116  14.862
10721W        W79084  20.724   7.786   2.742
10722W        W79085  37.383  10.735  10.020
10723W        W79086  38.534  36.574  12.082
10724W        W79087  43.356  11.215  12.881
10725W        W79088  36.036  31.581  12.483
10726W        W79089   1.953   8.780   3.353
10727W        W79090  27.173  38.540   2.254
10728W        W79091  10.748  22.732  14.443
10729W        W79092  10.818  22.177  11.569
10730W        W79093  12.667  30.416  11.866
10731W        W79094  18.643  44.305   3.198
10732W        W79095   1.919   0.745   0.763
10733W        W79096  34.082  40.971   1.898
10734W        W79097  43.382   6.323  14.402
10735W        W79098  32.531  14.311  13.902
10736W        W79099  41.389   7.241  11.885
10737W        W79100  20.062  12.204  13.908
10738W        W79101   5.867  16.812   0.814
10739W        W79102  16.117  39.949   0.350
10740W        W79103  37.502  25.691  10.609
10741W        W79104  24.151   4.207  13.796
10742W        W79105  28.181   0.977  10.927
10743W        W79106  37.375  30.141  14.882
10744W        W79107  32.580  35.536  14.280
10745W        W79108  28.969   0.770   3.242
10746W        W79109  10.210  22.046   4.354
10747W        W79110  38.361  43.817  12.062
10748W        W79111  24.194  41.793  12.081
10749W        W79112  22.518  41.841   0.242
10750W        W79113  43.980   0.979   3.647
10751W        W79114  38.371   6.365  14.371
10752W        W79115  29.954  39.851   2.759
10753W        W79116   4.887  28.150   5.266
10754W        W79117   8.245  19.729  10.627
10755W        W79118  25.217  40.872   1.913
10756W        W79119  41.408  23.989   2.283
10757W        W79120  19.160  41.026  11.493
10758W        W79121  35.907  44.409   0.945
10759W        W79122  42.796  38.567   3.339
10760W        W79123  42.855  19.120   3.706
10761W        W79124  16.701   2.911  12.366
10762W        W79125  40.924  23.050   4.301
10763W        W79126   2.360   7.695  13.014
10764W        W79127  28.629  34.384  10.509
10765W        W79128  43.500  33.392   2.233
10766W        W79129  37.570  37.949  14.948
10767W        W79130  33.062  14.300  14.861
10768W        W79131  18.051  31.501   4.815
10769W        W79132   3.367  11.728  14.417
10770W        W79133   8.213  15.609  10.978
10771W        W79134  29.930  25.978  11.125
10772W        W79135  29.471  34.070  13.034
10773W        W79136   9.327  33.384   0.403
10774W        W79137  26.002  41.017   3.339
10775W        W79138  23.208  11.748   1.746
10776W        W79139  27.547   3.766   4.292
10777W        W79140  41.816   9.804   4.113
10778W        W79141  26.570  12.345  14.471
10779W        W79142  15.729  13.241   2.199
10780W        W79143  22.051  31.011  11.963
10781W        W79144  15.167  11.180  10.620
10782W        W79145  43.306   0.319  14.802
10783W        W79146  37.414   1.909  14.933
10784W        W79147  37.874   2.408   1.739
10785W        W79148  16.269  35.906  12.003
10786W        W79149  42.867  14.774   4.321
10787W        W79150  41.378  14.811  14.894
10788W        W79151  12.205  21.535   4.737
10789W        W79152   8.174  10.738   4.787
10790W        W79153   0.294   3.278  14.275
10791W        W79154  21.552  40.021  14.861
10792W        W79155   0.826  42.842  11.598
10793W        W79156  30.650  22.219  11.096
10794W        W79157  23.158   5.901   4.731
10795W        W79158  11.363   9.298  13.406
10796W        W79159  34.491  19.765  12.409
10797W        W79160  36.484  22.566   3.317
10798W        W79161  12.287  30.131  12.000
10799W        W79162  44.812   3.716   4.229
10800W        W79163   6.842  17.145   1.870
10801W        W79164   9.734  22.143   0.729
10802W        W79165   3.900  14.723  14.022
10803W        W79166  11.764  43.821  14.398
10804W        W79167   1.874   9.264  13.033
10805W        W79168  41.811  30.528   1.311
10806W        W79169  28.625  43.920  11.570
10807W        W79170  34.987  30.564  13.008
10808W        W79171  31.524  29.971   3.668
10809W        W79172   5.700  43.885   1.758
10810W        W79173   9.852  32.507   1.871
10811W        W79174  32.598  36.934  13.970
10812W        W79175  29.468   2.435  11.993
10813W        W79176  32.017   7.683   0.372
10814W        W79177   7.347   5.883   4.810
10815W        W79178  24.218  32.084   4.309
10816W        W79179  27.532  32.968  11.919
10817W        W79180  32.557  21.745  13.915
10818W        W79181   5.236  25.130   0.404
10819W        W79182  12.280  17.080   0.960
10820W        W79183  20.170   5.377  11.379
10821W        W79184   9.713   5.351   4.830
10822W        W79185  16.081  16.166  12.563
10823W        W79186  39.447  30.495   0.400
10824W        W79187  12.830   6.858  14.846
10825W        W79188  27.453  23.168  11.859
10826W        W79189  13.654   9.382  11.054
10827W        W79190   8.864  25.657  14.015
10828W        W79191  41.334  37.490  10.002
10829W        W79192  15.193  40.498  13.840
10830W        W79193  10.805  41.462  11.011
10831W        W79194  17.255  24.206  11.953
10832W        W79195  26.504  37.452   4.632
10833W        W79196  30.616  24.153   1.275
10834W        W79197   8.367   5.411  10.979
10835W        W79198  27.538   4.764   4.243
10836W        W79199  16.259   8.347  14.412
10837W        W79200  34.593  43.782   1.374
10838W        W79201  17.630  23.019  11.466
10839W        W79202  35.579  19.252   3.832
10840W        W79203  43.389  36.007  12.850
10841W        W79204  19.238   7.253  14.788
10842W        W79205   2.443  12.722  13.852
10843W        W79206  37.983  23.205   4.715
10844W        W79207  31.631  32.075  14.895
10845W        W79208  21.074   5.323  11.477
10846W        W79209   7.767  25.538  11.960
10847W        W79210  39.431  43.327  11.441
10848W        W79211  43.010  21.638  12.363
10849W        W79212  20.102  18.551  10.519
10850W        W79213  14.278  11.848   3.255
10851W        W79214  33.601  25.210  10.890
10852W        W79215  10.709  33.447   4.702
10853W        W79216   4.861  20.644   3.707
10854W        W79217   8.882  25.522   0.449
10855W        W79218   6.334  34.582  14.002
10856W        W79219   4.720  24.104   5.185
10857W        W79220  10.165   5.829   9.974
10858W        W79221  41.343  31.939  12.396
10859W        W79222  17.124   8.372  12.056
10860W        W79223  30.028  26.544  12.924
10861W        W79224  32.887  14.653  11.600
10862W        W79225  18.164  35.396   0.245
10863W        W79226   5.814   0.443  12.525
10864W        W79227  40.493  24.068   3.764
10865W        W79228  16.167  29.583  14.940
10866W        W79229  36.035  21.645  14.332
10867W        W79230   5.253  35.513  14.842
10868W        W79231  25.133   3.337  12.825
10869W        W79232  26.699  34.406  14.811
10870W        W79233  28.030   4.377  11.037
10871W        W79234  30.012  24.164  11.111
10872W        W79235  22.178  42.381  14.816
10873W        W79236  25.708  32.076   2.300
10874W        W79237  29.633  21.063  14.323
10875W        W79238   4.725  28.133  10.065
10876W        W79239  27.661  30.462  12.508
10877W        W79240   7.817  28.436   2.802
10878W        W79241   2.795  33.098   3.224
10879W        W79242  12.768   0.805  11.857
10880W        W79243  11.669  23.105   1.447
10881W        W79244  19.689   8.896   1.384
10882W        W79245  32.497   8.704  14.322
10883W        W79246  30.926  12.158  14.407
10884W        W79247  41.372   0.941  11.127
10885W        W79248  17.635   2.844  14.906
10886W        W79249  22.519  28.985  10.434
10887W        W79250  21.096  11.732  10.634
10888W        W79251  24.224  23.219  11.582
10889W        W79252  22.202   2.766   3.640
10890W        W79253  20.269  31.139   0.957
10891W        W79254   2.905  27.072  10.421
10892W        W79255  24.195  34.607  13.799
10893W        W79256   2.897  20.226  12.076
10894W        W79257  44.333   0.799  14.774
10895W        W79258  34.522  30.566  11.880
10896W        W79259  27.101  10.293  11.532
10897W        W79260  35.868  39.864  11.521
10898W        W79261  31.028  12.269   4.308
10899W        W79262  42.912  40.889   0.248
10900W        W79263  26.570   6.318  12.485
10901W        W79264  19.585  41.326  12.066
10902W        W79265  18.289  36.985   4.637
10903W        W79266  20.717  19.545  11.011
10904W        W79267  20.149   5.725   2.690
10905W        W79268   8.230   5.885  12.973
10906W        W79269  15.686   5.815   9.945
10907W        W79270   2.735  29.171  12.083
10908W        W79271  25.611   5.790  14.761
10909W        W79272   7.312  33.949  13.533
10910W        W79273  23.646  13.171  14.900
10911W        W79274  39.461  37.344   4.211
10912W        W79275  41.953  20.731   1.369
10913W        W79276  13.612  43.944   0.958
10914W        W79277  30.531   8.855   4.621
10915W        W79278  30.601  30.095  11.564
10916W        W79279  29.478  33.116  12.018
10917W        W79280   9.174  16.716  13.397
10918W        W79281  30.129  39.040  10.492
10919W        W79282  27.668  23.509  13.468
10920W        W79283  20.682  42.309  11.888
10921W        W79284  37.529   0.836   3.659
10922W        W79285  22.651  37.486   3.796
10923W        W79286   1.791  44.472   4.183
10924W        W79287   9.820   9.169  14.942
10925W        W79288  35.867   3.829   2.889
10926W        W79289   4.928  17.080  12.424
10927W        W79290  19.584   6.885   3.311
10928W        W79291  26.076  29.137   2.278
10929W        W79292  33.879  37.522  11.561
10930W        W79293   1.424   4.704   1.314
10931W        W79294  23.689  25.973   0.879
10932W        W79295  33.082  43.319  12.384
10933W        W79296  17.755   6.287   1.790
10934W        W79297  42.478  38.912   4.812
10935W        W79298  29.008  17.562   2.834
10936W        W79299   8.801  14.234   0.819
10937W        W79300  19.651   1.379   2.785
10938W        W79301  43.337  32.481  11.496
10939W        W79302   3.278  18.659   4.245
10940W        W79303  39.848  11.846   5.587
10941W        W79304   2.957   3.909  13.315
10942W        W79305  23.145  43.000  10.526
10943W        W79306  11.734  21.678  14.973
10944W        W79307  38.515  40.363   3.727
10945W        W79308  20.079  41.410   3.158
10946W        W79309   1.850   2.860   2.666
10947W        W79310  33.060  23.537   4.295
10948W        W79311   9.652  20.701  13.418
10949W        W79312  38.052   2.232   2.774
10950W        W79313  32.423  27.186   1.849
10951W        W79314   6.233  20.622  13.796
10952W        W79315   9.343  36.540  13.023
10953W        W79316  17.300  43.425   1.730
10954W        W79317  32.530   4.245  13.340
10955W        W79318   8.170  24.625  11.872
10956W        W79319  29.164  33.939   2.326
10957W        W79320  13.210  35.454  10.613
10958W        W79321   3.368  41.356   3.836
10959W        W79322  42.823  22.227  12.364
10960W        W79323  35.546  34.385  12.352
10961W        W79324  28.659   0.324   1.323
10962W        W79325   4.709  44.497   2.318
10963W        W79326  40.948  18.171  10.557
10964W        W79327  42.380  39.882   3.245
10965W        W79328  42.369  34.077   4.774
10966W        W79329  23.100   4.288  10.973
10967W        W79330   5.760   5.812   0.801
10968W        W79331   4.819  43.777   5.272
10969W        W79332  44.925  37.508  14.368
10970W        W79333  30.522  43.870  10.410
10971W        W79334  28.458  23.586   2.826
10972W        W79335  43.400   3.422   0.813
10973W        W79336  26.011   6.799   2.185
10974W        W79337   4.733   4.839  10.431
10975W        W79338  43.977  21.611   2.270
10976W        W79339  37.337  10.203   2.663
10977W        W79340   2.366  27.643   0.432
10978W        W79341  21.627  39.049   4.145
10979W        W79342  21.612  26.651  10.407
10980W        W79343   7.369   8.875   3.854
10981W        W79344  43.883  20.702  11.560
10982W        W79345  37.847  42.362   3.384
10983W        W79346  37.872  16.073   4.729
10984W        W79347   7.887  32.933   0.856
10985W        W79348  17.793  19.229  12.405
10986W        W79349  38.334  16.646   4.660
10987W        W79350   2.909  37.526   1.415
10988W        W79351  25.701   6.833  11.379
10989W        W79352   6.332  24.719  14.797
10990W        W79353  40.961  22.522   3.676
10991W        W79354  27.559  24.052   0.743
10992W        W79355  41.294   7.409  14.001
10993W        W79356  27.181   0.480   1.916
10994W        W79357  27.169  19.066   3.275
10995W        W79358  31.132  23.661  10.053
10996W        W79359  16.620  31.027  10.525
10997W        W79360  42.925   1.760  12.415
10998W        W79361  28.050   5.224  13.411
10999W        W79362  29.964  42.307  13.547
11000W        W79363  16.252   6.856   3.707
11001W        W79364  37.464  13.312  12.525
11002W        W79365   7.233   4.804  12.429
11003W        W79366  43.475  27.081   0.753
11004W        W79367   2.870  14.760  11.962
11005W        W79368  17.245  39.809   3.213
11006W        W79369  20.057   9.861  11.858
11007W        W79370  22.170  29.026   0.944
11008W        W79371  19.056  30.656   2.233
11009W        W79372  21.021  32.583   3.770
11010W        W79373  44.405  21.243   1.249
11011W        W79374  26.634  12.630   0.415
11012W        W79375  37.353  13.221   0.837
11013W        W79376  37.512   7.704  14.878
11014W        W79377  39.376  32.107   2.331
11015W        W79378  43.981   7.842   0.798
11016W        W79379  36.945  39.457   1.814
11017W        W79380  42.351  17.298   0.793
11018W        W79381  42.810  25.468  13.456
11019W        W79382  29.441  36.066  10.595
11020W        W79383   0.954  32.591   4.738
11021W        W79384  36.479   4.430  11.479
11022W        W79385   4.226  32.898  14.322
11023W        W79386  30.030   3.730   0.948
11024W        W79387   3.738  41.889  10.437
11025W        W79388  28.571  15.708  12.371
11026W        W79389  27.544  20.738  10.538
11027W        W79390   5.829  36.385  11.894
11028W        W79391  35.930  26.559   0.313
11029W        W79392  10.326  42.019   0.964
11030W        W79393  15.680  20.048   0.254
11031W        W79394  30.979  19.265  11.421
11032W        W79395   4.220  14.273  13.947
11033W        W79396  41.827   3.783  12.570
11034W        W79397  43.278  29.003   4.734
11035W        W79398  10.764  20.056  13.494
11036W        W79399  19.149  14.247  13.435
11037W        W79400  39.825  41.388   0.394
11038W        W79401  34.373  13.248   0.954
11039W        W79402  13.252  10.843   0.414
11040W        W79403  22.238  17.603  14.407
11041W        W79404   0.749  37.459   1.734
11042W        W79405  29.491  30.099   0.952
11043W        W79406  43.854   9.871   2.354
11044W        W79407   3.334  32.617  11.860
11045W        W79408  31.404  10.684  13.812
11046W        W79409  32.903  40.997   4.188
11047W        W79410  37.032  33.623  14.442
11048W        W79411  14.625  23.668   1.257
11049W        W79412   4.331  14.258  10.974
11050W        W79413  18.261   4.336   0.740
11051W        W79414  41.028  30.147  13.368
11052W        W79415  43.323  24.615   0.793
11053W        W79416  12.340  12.681   4.323
11054W        W79417  44.297  28.940   4.682
11055W        W79418  33.561  30.417   3.806
11056W        W79419  26.053  26.694   2.363
11057W        W79420  17.774   4.293  12.492
11058W        W79421  15.127  41.325  13.900
11059W        W79422   0.431  37.994   1.437
11060W        W79423  36.069  23.208  12.578
11061W        W79424   9.701  17.063  11.536
11062W        W79425  31.415  42.429  12.409
11063W        W79426   0.268   3.728  14.815
11064W        W79427  44.337  31.003  10.617
11065W        W79428  33.590  42.888   0.442
11066W        W79429   8.734   6.785  12.068
11067W        W79430  33.518   1.377  13.041
11068W        W79431  15.635  25.666  14.434
11069W        W79432  17.063  17.767   5.276
11070W        W79433   1.856  41.012   4.713
11071W        W79434  14.135   4.798  11.108
11072W        W79435   8.288  24.564   3.837
11073W        W79436  42.486  14.785   1.341
11074W        W79437  31.430   5.736  12.909
11075W        W79438  41.342  41.879   4.205
11076W        W79439  21.698  42.378   0.897
11077W        W79440   7.702  15.195   1.215
11078W        W79441  35.045  14.191   3.148
11079W        W79442  25.161  13.778   3.264
11080W        W79443  43.766  13.204   2.363
11081W        W79444  36.528  19.732   1.349
11082W        W79445  34.568  37.368   4.720
11083W        W79446   9.180   1.388  10.526
11084W        W79447  40.894   9.770  11.947
11085W        W79448  31.980  34.110  13.518
11086W        W79449  44.334  20.114   0.479
11087W        W79450  19.179   2.460  10.478
11088W        W79451  14.728   9.332  12.943
11089W        W79452  14.669  24.151   0.316
11090W        W79453  32.595   0.968  12.555
11091W        W79454  31.603   1.792  11.424
11092W        W79455   9.281   9.843   4.671
11093W        W79456  40.369  38.033  14.376
11094W        W79457   5.778  15.611   2.394
11095W        W79458  37.849   3.323   0.315
11096W        W79459  22.191  28.502   2.275
11097W        W79460  28.565  28.518  12.073
11098W        W79461  42.931   2.254  11.511
11099W        W79462  29.453  35.488   1.825
11100W        W79463  24.177  16.705  11.116
11101W        W79464  39.004  17.194   2.892
11102W        W79465  10.241   1.379   3.287
11103W        W79466  20.707  43.936   2.866
11104W        W79467   9.178  31.412   0.334
11105W        W79468  34.592  39.353  13.463
11106W        W79469  37.472  13.752   9.631
11107W        W79470  34.931  13.160  13.400
11108W        W79471   8.313  21.679  10.904
11109W        W79472   8.184  29.978   4.634
11110W        W79473  21.144  33.575  14.502
11111W        W79474  19.173  15.251   2.268
11112W        W79475  39.470   0.984  12.414
11113W        W79476  19.718  37.006   0.287
11114W        W79477  36.589  20.059   0.955
11115W        W79478  37.973   0.911   0.251
11116W        W79479   3.942   5.268  13.912
11117W        W79480   6.845   0.983   1.719
11118W        W79481  44.755  25.081   3.287
11119W        W79482   2.382  18.707   0.768
11120W        W79483  21.537  18.284   3.860
11121W        W79484  22.228   3.733   4.651
11122W        W79485  23.175  25.496   0.456
11123W        W79486  33.396  18.151  14.969
11124W        W79487  11.195  31.939  12.412
11125W        W79488  28.511  36.894   1.929
11126W        W79489  31.991  14.695  13.833
11127W        W79490  20.604  44.287   3.694
11128W        W79491  19.223  23.241  13.862
11129W        W79492  13.135   6.910  14.287
11130W        W79493   0.796  42.927  11.104
11131W        W79494  34.004  21.221   1.283
11132W        W79495   7.775  19.128  12.513
11133W        W79496  38.854  25.111  11.863
11134W        W79497  28.050  14.664  12.566
11135W        W79498  14.139  30.931  11.495
11136W        W79499  19.104  41.487  10.095
11137W        W79500  42.344  31.896  12.555
11138W        W79501  33.559  37.954   3.320
11139W        W79502   8.779   5.244   4.826
11140W        W79503  13.655   0.407  10.988
11141W        W79504  26.070  38.957  14.015
11142W        W79505  18.134  11.774   0.884
11143W        W79506  20.592   7.369  11.414
11144W        W79507  25.702  35.528  12.397
11145W        W79508  36.073  18.070  12.031
11146W        W79509  29.029  30.999   3.842
11147W        W79510   7.324  28.169  13.436
11148W        W79511  31.121  14.655  14.811
11149W        W79512  30.614  25.499   2.310
11150W        W79513  19.701  33.957   4.121
11151W        W79514  31.498  29.097   0.261
11152W        W79515  23.040  38.867   2.343
11153W        W79516  14.765  26.642  12.077
11154W        W79517  28.958  39.905   4.337
11155W        W79518  37.420  23.231  14.446
11156W        W79519  42.963  39.048   2.724
11157W        W79520   3.771  26.187   1.867
11158W        W79521  41.380  14.736   1.884
11159W        W79522   0.938  39.885   2.405
11160W        W79523   1.892  38.394  11.981
11161W        W79524  27.457  25.181   3.713
11162W        W79525  25.701  13.227   3.341
11163W        W79526  34.424  21.196  10.887
11164W        W79527  20.748  34.902   4.259
11165W        W79528  27.499  37.856   4.294
11166W        W79529  44.342  32.011  10.098
11167W        W79530   7.756  28.666  10.509
11168W        W79531  19.059  33.894  13.322
11169W        W79532  25.672  21.122   9.998
11170W        W79533  25.704   7.863  11.506
11171W        W79534  28.438  29.971  13.410
11172W        W79535   6.324   7.906  12.948
11173W        W79536   1.459  37.048   3.663
11174W        W79537  42.506  26.651  13.044
11175W        W79538  39.507  25.149  11.446
11176W        W79539  43.906   7.182  10.629
11177W        W79540  18.125   1.918  14.881
11178W        W79541  44.970  14.253  12.387
11179W        W79542  39.439  40.390   0.886
11180W        W79543  26.006  39.845   2.416
11181W        W79544  41.336  42.338  12.359
11182W        W79545  36.956  35.958   3.340
11183W        W79546  24.035  41.971   0.896
11184W        W79547  13.648  36.055   3.860
11185W        W79548   1.819  25.529  12.859
11186W        W79549  14.626   2.757   3.717
11187W        W79550  23.651  21.600   4.321
11188W        W79551  26.535  26.625   2.248
11189W        W79552  12.239  23.689   2.735
11190W        W79553  30.999  14.607   0.265
11191W        W79554  25.507  11.290  11.089
11192W        W79555  34.435  12.194   0.364
11193W        W79556  31.044  27.663  14.782
11194W        W79557   1.782  28.475   1.443
11195W        W79558   0.374  18.785  10.434
11196W        W79559  12.334  42.448  14.881
11197W        W79560  24.994  36.573   2.855
11198W        W79561   4.739  27.552   0.761
11199W        W79562   1.794  19.215  13.427
11200W        W79563   0.422  25.678  13.504
11201W        W79564  26.020  19.091  12.862
11202W        W79565  35.048   9.326  11.866
11203W        W79566  16.597  13.224  12.495
11204W        W79567  34.911  24.032  14.989
11205W        W79568  23.586  30.651   3.224
11206W        W79569   7.707  29.607  11.424
11207W        W79570   5.368  12.259   1.739
11208W        W79571  38.932  36.348  14.461
11209W        W79572  28.062   5.934   4.817
11210W        W79573  21.637   1.375  14.334
11211W        W79574   8.808   8.723  11.610
11212W        W79575  26.515   0.266  14.931
11213W        W79576  10.762  42.778   0.754
11214W        W79577  12.331  13.761   0.349
11215W        W79578  43.370   6.876   3.346
11216W        W79579  17.070  20.116  11.981
11217W        W79580   9.318  18.741   0.791
11218W        W79581  36.867  42.400   0.811
11219W        W79582  16.679  16.111   2.809
11220W        W79583   9.759  21.564   2.371
11221W        W79584  10.827   0.814   2.263
11222W        W79585  37.358  37.864  13.362
11223W        W79586  29.630  39.332   0.285
11224W        W79587   3.821   0.487   1.248
11225W        W79588  36.090   4.821   0.420
11226W        W79589   4.744  36.470   5.309
11227W        W79590  39.818  26.473  13.795
11228W        W79591  23.725   5.331  14.504
11229W        W79592  18.158  37.839   2.865
11230W        W79593  44.825   2.895   2.372
11231W        W79594  30.499   1.851   3.689
11232W        W79595  31.590  42.501   1.890
11233W        W79596   6.698  29.020   2.412
11234W        W79597  29.658  26.160   3.339
11235W        W79598  32.062  24.690   0.337
11236W        W79599  33.598  38.049  12.907
11237W        W79600  29.070  26.029  12.398
11238W        W79601  29.948  19.580   1.731
11239W        W79602  38.909  17.295   4.320
11240W        W79603  26.967  13.167  13.909
11241W        W79604  16.588  35.978  10.637
11242W        W79605  26.568  33.381   0.782
11243W        W79606   5.433  41.531   4.783
11244W        W79607  21.132  12.817   0.292
11245W        W79608  24.525  44.974   2.694
11246W        W79609  34.545  21.129   1.267
11247W        W79610  24.700  44.909  10.485
11248W        W79611  33.442  30.084  12.368
11249W        W79612  38.966  21.659   1.776
11250W        W79613  18.102  19.690  12.368
11251W        W79614  41.411  19.748  10.512
11252W        W79615  11.859   9.809  12.947
11253W        W79616  26.165  37.505  14.416
11254W        W79617  18.647   3.248  14.822
11255W        W79618  10.649  43.000   3.819
11256W        W79619  28.476   0.464  14.986
11257W        W79620  40.881  13.805   3.357
11258W        W79621  36.464  18.051  10.470
11259W        W79622  35.861   0.842   2.203
11260W        W79623   1.864  16.298   0.411
11261W        W79624  16.585   4.796  11.432
11262W        W79625  38.411   6.410   1.720
11263W        W79626  26.133  38.470   0.786
11264W        W79627  30.005  27.607   0.764
11265W        W79628  42.908  29.611   0.848
11266W        W79629   3.401   4.864  10.138
11267W        W79630  25.641   8.809  11.984
11268W        W79631  28.943  25.063   1.861
11269W        W79632   8.192  31.423  10.581
11270W        W79633  33.537   1.763  13.058
11271W        W79634  17.072   3.258   0.897
11272W        W79635   7.716   9.160   4.155
11273W        W79636  42.450  30.511   1.222
11274W        W79637  38.994  24.135  13.937
11275W        W79638   9.337  20.575   3.732
11276W        W79639  28.562  37.459   0.768
11277W        W79640  39.920   2.861  12.896
11278W        W79641  24.693  10.239   4.343
11279W        W79642  21.261  13.163   0.933
11280W        W79643  21.200  31.083   0.757
11281W        W79644   4.854  26.561  11.473
11282W        W79645   9.298  19.153  14.950
11283W        W79646   5.202  43.395  14.339
11284W        W79647  17.233  41.976  13.335
11285W        W79648  33.586  25.166  11.588
11286W        W79649  12.620  39.359  10.904
11287W        W79650  44.924  38.841  11.457
11288W        W79651  26.030  38.556   4.209
11289W        W79652  16.755   7.187   3.837
11290W        W79653  30.418  10.782   4.166
11291W        W79654   6.761  21.134   3.820
11292W        W79655  23.151  36.903  12.408
11293W        W79656  21.743   6.189   2.254
11294W        W79657  40.381  20.666  11.504
11295W        W79658  12.260  33.475   0.772
11296W        W79659  35.527  24.544   1.329
11297W        W79660  29.670  22.678   1.346
11298W        W79661  15.681  41.028   3.234
11299W        W79662  21.733  13.725  13.032
11300W        W79663  42.348  40.402  10.951
11301W        W79664   0.929  42.386   1.217
11302W        W79665  10.794  35.040  14.892
11303W        W79666   4.825   9.181   2.363
11304W        W79667  31.478  42.496   2.757
11305W        W79668  15.773  44.370  14.303
11306W        W79669  34.004   5.795   3.684
11307W        W79670  30.441   4.359   1.781
11308W        W79671   9.785   4.229  13.936
11309W        W79672  29.549  30.998  11.022
11310W        W79673  21.682  33.404  13.845
11311W        W79674  30.152   4.412  10.631
11312W        W79675   4.889  42.341   2.687
11313W        W79676  39.034  14.797  10.026
11314W        W79677  24.230  43.390  12.414
11315W        W79678  26.536  17.601  13.481
11316W        W79679  25.033  44.986   1.419
11317W        W79680  14.775  33.949   3.673
11318W        W79681   9.677  17.075   4.121
11319W        W79682  29.952   7.403   4.114
11320W        W79683  43.474   9.386  10.546
11321W        W79684  10.155  30.952  12.964
11322W        W79685  13.114  34.516  11.421
11323W        W79686  19.587  23.629  12.339
11324W        W79687  15.105   4.872  10.005
11325W        W79688  25.690  27.014   0.244
11326W        W79689   6.198  26.975  10.947
11327W        W79690  21.695  24.597   1.779
11328W        W79691  28.144  16.750  10.983
11329W        W79692  34.906  18.286  10.017
11330W        W79693  24.105  21.527  10.581
11331W        W79694  19.050  34.380   2.666
11332W        W79695  37.830  19.654  10.964
11333W        W79696  27.187  43.875  10.971
11334W        W79697  42.366   9.668   0.420
11335W        W79698  22.674  26.551  14.002
11336W        W79699  32.628  14.305   1.776
11337W        W79700   4.426   3.330  14.283
11338W        W79701  22.503  42.889  12.854
11339W        W79702  30.066   8.384  14.822
11340W        W79703  30.025  26.072  12.561
11341W        W79704  39.523  12.634   1.832
11342W        W79705  40.913  25.479   1.780
11343W        W79706  40.440  35.003  13.933
11344W        W79707  24.016   4.802   0.429
11345W        W79708  13.842  40.970   2.899
11346W        W79709  15.646  39.013   2.391
11347W        W79710  15.316  29.560  12.417
11348W        W79711  40.472  39.865  14.487
11349W        W79712   1.243  41.422   4.205
11350W        W79713  30.080  36.508   4.692
11351W        W79714  11.203  12.233   0.963
11352W        W79715  28.039  40.998  14.465
11353W        W79716   3.328  34.495   0.890
11354W        W79717  23.547  37.856   2.266
11355W        W79718  29.919  14.813   3.729
11356W        W79719  43.383  27.683  13.862
11357W        W79720  35.029  19.119  10.474
11358W        W79721   4.267  29.511  14.931
11359W        W79722  24.203  44.453  13.384
11360W        W79723   6.280   0.322  13.321
11361W        W79724  25.171  10.224   2.330
11362W        W79725  20.674  22.243  11.530
11363W        W79726   2.942   5.221  11.006
11364W        W79727  17.226  38.932   5.301
11365W        W79728  12.200  26.578  12.361
11366W        W79729  33.541  22.226  11.580
11367W        W79730  17.567  26.493  13.406
11368W        W79731  24.207  24.659  10.458
11369W        W79732   2.356  13.775  11.406
11370W        W79733   9.336  36.950   0.287
11371W        W79734  25.140   3.790  13.434
11372W        W79735  12.838  23.603   3.288
11373W        W79736  32.415  18.726  14.004
11374W        W79737  38.876  22.729  10.511
11375W        W79738  14.832  25.653   2.673
11376W        W79739  23.109  16.306   4.214
11377W        W79740  38.046  16.568   4.276
11378W        W79741   4.254  32.411   1.789
11379W        W79742  28.127  27.479  10.506
11380W        W79743   8.892  12.168  10.935
11381W        W79744  27.007  13.292   1.412
11382W        W79745  22.526   0.775  12.015
11383W        W79746  24.155  39.461   3.336
11384W        W79747   3.452   3.393  14.990
11385W        W79748  40.045  16.798   4.205
11386W        W79749  26.494  24.173   4.156
11387W        W79750   3.938  37.419   0.438
11388W        W79751  21.577  32.974  12.926
11389W        W79752  27.044  27.592  10.971
11390W        W79753   9.181  36.871   1.410
11391W        W79754  42.858  13.308   1.251
11392W        W79755  13.266   3.242   3.682
11393W        W79756  16.115  41.344  13.425
11394W        W79757  32.980   8.228   2.741
11395W        W79758  11.824  24.063  14.864
11396W        W79759  40.906   1.416   2.792
11397W        W79760  38.022   0.493   4.282
11398W        W79761  25.044  33.064  11.488
11399W        W79762  25.146  34.885  14.898
11400W        W79763  25.700   4.309   4.350
11401W        W79764  35.532  25.989   1.293
11402W        W79765  18.579  14.785   0.455
11403W        W79766   1.264   7.744   1.704
11404W        W79767  25.096  17.799   0.926
11405W        W79768  16.218  44.898   2.360
11406W        W79769  14.335  44.769  10.620
11407W        W79770   3.328  37.376  11.074
11408W        W79771  18.254  26.622   2.386
11409W        W79772  13.143  12.780  10.909
11410W        W79773  13.106  25.991   0.781
11411W        W79774  23.130  16.194   1.717
11412W        W79775   8.880  18.265  13.911
11413W        W79776  22.232  13.202   0.387
11414W        W79777  31.647  42.323  10.964
11415W        W79778  10.813  19.212   2.388
11416W        W79779  18.078  34.116   4.708
11417W        W79780  17.175  15.273  14.867
11418W        W79781   0.398  14.665   4.246
11419W        W79782  38.883  18.725   0.728
11420W        W79783  20.077   2.294  12.016
11421W        W79784   6.275   4.857   0.250
11422W        W79785  28.525  44.875  12.376
11423W        W79786  43.022  24.006  11.561
11424W        W79787   4.767   5.825   2.852
11425W        W79788   4.933   5.397  11.414
11426W        W79789  37.525   5.810  13.316
11427W        W79790  38.839  13.272   1.762
11428W        W79791  32.129  40.339   2.280
11429W        W79792  28.081  37.937  13.539
11430W        W79793  43.919   2.774  12.468
11431W        W79794  12.847   4.701  10.895
11432W        W79795  11.769  23.635   2.293
11433W        W79796  18.269   7.790  12.860
11434W        W79797  44.763  23.577  14.767
11435W        W79798   5.788   9.768  14.485
11436W        W79799  37.528  43.380   3.180
11437W        W79800   3.932  18.243   1.829
11438W        W79801  33.557  23.149   2.882
11439W        W79802  17.092  39.509   3.788
11440W        W79803  37.469  16.107  13.957
11441W        W79804   4.282  29.001   2.184
11442W        W79805   1.877  28.099  11.505
11443W        W79806  43.776   2.417  14.328
11444W        W79807  16.278  35.434   1.444
11445W        W79808  17.693  11.709  13.852
11446W        W79809  37.475  24.148  13.382
11447W        W79810  12.783   7.874  14.893
11448W        W79811  41.964  24.093  13.800
11449W        W79812  15.276  39.975   3.313
11450W        W79813  30.540  26.962   4.665
11451W        W79814   9.818   4.229   2.889
11452W        W79815  39.473  13.751   1.308
11453W        W79816  41.898   1.940   5.119
11454W        W79817  26.560  34.431  13.920
11455W        W79818  27.653  26.572  12.969
11456W        W79819  19.154  17.716  12.998
11457W        W79820  44.331  13.796   0.914
11458W        W79821  17.122  18.212  10.900
11459W        W79822  34.917  26.187  10.959
11460W        W79823  17.598  35.545  14.406
11461W        W79824   5.248  37.904  14.440
11462W        W79825   5.740  42.482  10.462
11463W        W79826  37.058  31.151  10.959
11464W        W79827  19.543  32.059   1.784
11465W        W79828  42.370  32.059  11.066
11466W        W79829   7.301  44.853  11.559
11467W        W79830  10.221  28.510  13.902
11468W        W79831  29.988  25.974   0.809
11469W        W79832   1.267  44.424  10.053
11470W        W79833   5.703  34.375  11.509
11471W        W79834  25.058  18.225   0.419
11472W        W79835  21.068  36.541  13.799
11473W        W79836   2.925  27.561  13.896
11474W        W79837  17.308  28.569   4.761
11475W        W79838  39.365  36.390   3.799
11476W        W79839  26.681  43.323   2.299
11477W        W79840  37.017  12.278   2.342
11478W        W79841  32.538  21.065   2.805
11479W        W79842   0.262  18.273  12.552
11480W        W79843  42.989  33.932   2.221
11481W        W79844   4.213  41.338  14.841
11482W        W79845  30.024  39.532  13.928
11483W        W79846   3.832  34.010   1.799
11484W        W79847   8.696  25.208   1.407
11485W        W79848   4.448  20.157   2.332
11486W        W79849   3.459   1.923   0.837
11487W        W79850  31.414   3.952   3.633
11488W        W79851  34.482  10.248   2.667
11489W        W79852  15.812  22.186  14.488
11490W        W79853  12.812  32.398  10.405
11491W        W79854  28.613  30.015   3.180
11492W        W79855   4.299  13.218   2.896
11493W        W79856  39.045  26.670  13.035
11494W        W79857  29.555   6.343  13.010
11495W        W79858  28.476  12.734  10.448
11496W        W79859  15.171  10.679  11.937
11497W        W79860   9.856  33.875  11.975
11498W        W79861   4.738  24.542   1.728
11499W        W79862  15.616  30.442   3.381
11500W        W79863  39.834  29.069   4.299
11501W        W79864  12.322  17.774   0.738
11502W        W79865  33.957  25.569  10.959
11503W        W79866  31.629  28.631  11.544
11504W        W79867  11.190  27.589  13.017
11505W        W79868  34.889  43.338  10.494
11506W        W79869  15.804  17.208   1.706
11507W        W79870  28.651  42.788  11.456
11508W        W79871  39.543  30.426   1.818
11509W        W79872  28.564   7.281  11.068
11510W        W79873  36.938  31.568  11.891
11511W        W79874  17.164  25.659  11.912
11512W        W79875  44.943  38.327  14.393
11513W        W79876  20.055  21.161   2.339
11514W        W79877  21.738  30.152  13.498
11515W        W79878   4.751  39.915  10.568
11516W        W79879  34.924   0.906   2.218
11517W        W79880  44.325  44.478  12.476
11518W        W79881   8.844   5.232  14.435
11519W        W79882  34.384  42.383  12.829
11520W        W79883  38.536  27.529  12.884
11521W        W79884  33.520   3.791  10.575
11522W        W79885  43.927  19.190  12.904
11523W        W79886  25.132  11.235  14.319
11524W        W79887  27.583  41.025   4.639
11525W        W79888   8.802  31.083   1.355
11526W        W79889  17.690  41.841  14.491
11527W        W79890  21.085  13.248  14.874
11528W        W79891  20.187  21.612   4.798
11529W        W79892  19.548  19.100   2.200
11530W        W79893   6.840  16.164   1.409
11531W        W79894   9.183   5.696   3.312
11532W        W79895   8.852   9.243   3.354
11533W        W79896  23.667   2.277  11.491
11534W        W79897  26.463  27.590   1.215
11535W        W79898   0.926  43.956   2.768
11536W        W79899  31.048  38.442  10.630
11537W        W79900  38.853  39.460  14.283
11538W        W79901   8.400  27.972  11.925
11539W        W79902  44.948  42.961   5.322
11540W        W79903  43.969  27.678   3.192
11541W        W79904   2.270  41.524  12.000
11542W        W79905  16.727  36.391  10.990
11543W        W79906  41.299  35.862  10.122
11544W        W79907   9.692   5.295  12.343
11545W        W79908  41.960   4.812  10.588
11546W        W79909  37.384  12.819   0.739
11547W        W79910  12.847  36.554   3.344
11548W        W79911   8.191  28.439   3.279
11549W        W79912  20.090  34.912  13.976
11550W        W79913  14.736  24.517   4.723
11551W        W79914  13.606   6.217   5.645
11552W        W79915  10.214  14.240  10.549
11553W        W79916  34.018   9.203   2.303
11554W        W79917  41.404   7.902  13.038
11555W        W79918  14.731  32.961   1.415
11556W        W79919  34.425   1.360   2.270
11557W        W79920   1.361   8.657  13.479
11558W        W79921  10.671  19.185   1.759
11559W        W79922   8.299  11.214   0.363
11560W        W79923   1.842  24.039   0.883
11561W        W79924  31.975  36.406   3.278
11562W        W79925  30.980  12.354  13.437
11563W        W79926  37.077  23.693   0.851
11564W        W79927  20.628   2.336  12.045
11565W        W79928  34.021  30.013   1.715
11566W        W79929   7.291  17.709   3.806
11567W        W79930   4.260  31.030   2.764
11568W        W79931   4.263   7.785  13.916
11569W        W79932  39.342  17.192   1.374
11570W        W79933  35.376  13.732  12.023
11571W        W79934  24.974  18.240   3.865
11572W        W79935  44.831  44.337   0.315
11573W        W79936  24.022   0.744  10.980
11574W        W79937  21.242   1.243   4.125
11575W        W79938   8.338   0.408   1.218
11576W        W79939  11.131  10.336   4.246
11577W        W79940   3.380  19.052   2.179
11578W        W79941   2.262  28.015   3.744
11579W        W79942  37.885  18.288   3.833
11580W        W79943  37.875  29.979   0.779
11581W        W79944  44.332  44.928   2.900
11582W        W79945   7.378  43.438  14.905
11583W        W79946  30.496  20.689  10.513
11584W        W79947  21.717  26.983  14.758
11585W        W79948  36.387   5.779  12.966
11586W        W79949  24.582  18.609   2.725
11587W        W79950  37.878  24.177   2.808
11588W        W79951   5.392  21.694   3.822
11589W        W79952  41.418  27.523  12.083
11590W        W79953  36.430  21.083   2.868
11591W        W79954   4.785  35.873   4.694
11592W        W79955  17.653  27.602  14.353
11593W        W79956  39.508  20.144  13.930
11594W        W79957  15.160  30.570  11.111
11595W        W79958   2.330   3.936   4.618
11596W        W79959  14.200  42.341   3.790
11597W        W79960  33.037  18.750  11.418
11598W        W79961  30.482   7.687   2.738
11599W        W79962  29.005  16.151  10.956
11600W        W79963  10.707   2.312   3.781
11601W        W79964  38.860  22.579   2.743
11602W        W79965  34.396  32.453   0.329
11603W        W79966  11.299   4.215   1.375
11604W        W79967  33.110  17.239  13.525
11605W        W79968  30.163  35.853  11.580
11606W        W79969  21.199   8.810  13.421
11607W        W79970   8.244  12.116  14.913
11608W        W79971   7.366  36.853   2.674
11609W        W79972  38.832   3.408   0.775
11610W        W79973  10.336  37.944  12.414
11611W        W79974  11.276  20.138  14.287
11612W        W79975  20.538  22.186  10.483
11613W        W79976  41.974  10.843   0.777
11614W        W79977  41.828  19.651  13.816
11615W        W79978  13.639  30.525   4.311
11616W        W79979  27.090  31.648  13.320
11617W        W79980   7.853  12.851   0.955
11618W        W79981   3.749  12.758   2.195
11619W        W79982  24.102  22.184   4.708
11620W        W79983  22.006  28.933   1.283
11621W        W79984  13.142  16.216   3.272
11622W        W79985  16.102  18.764  10.917
11623W        W79986  31.146  22.128   2.294
11624W        W79987  10.828  31.449  11.016
11625W        W79988  36.079   8.304  13.030
11626W        W79989  20.554   7.730   1.824
11627W        W79990  41.991  38.436  12.347
11628W        W79991  15.616   1.285   2.780
11629W        W79992   8.687  24.703   2.360
11630W        W79993  10.677  31.493   0.426
11631W        W79994  40.389  23.123   1.886
11632W        W79995  15.321  31.427   0.803
11633W        W79996  27.558  33.405   1.224
11634W        W79997   9.197  32.120  13.394
11635W        W79998  18.100   8.234  12.414
11636W        W79999  10.280  25.972  13.541
11637W        W80000  30.551  26.473   0.435
11638W        W80001  31.543  13.630  13.525
11639W        W80002  18.130  15.822  13.512
11640W        W80003  17.104   2.275   0.865
11641W        W80004  44.317  35.449   3.376
11642W        W80005  21.668  29.945   4.776
11643W        W80006   4.739  35.361  11.093
11644W        W80007   6.873  35.579   3.311
11645W        W80008  36.934  35.443   4.787
11646W        W80009  23.151  30.073  14.020
11647W        W80010  34.534  16.797  10.591
11648W        W80011   3.844  18.277  11.573
11649W        W80012  42.934  24.496  13.800
11650W        W80013  36.538  15.128   2.350
11651W        W80014  23.084   0.958  14.316
11652W        W80015   3.232  37.490  13.522
11653W        W80016   3.879  12.832   1.696
11654W        W80017  23.176   9.808  14.863
11655W        W80018  43.416  33.114   2.356
11656W        W80019  40.009  21.573  13.964
11657W        W80020  35.038   9.730   1.802
11658W        W80021  43.507  19.675   1.232
11659W        W80022   8.231  24.564   2.398
11660W        W80023  14.125  18.261  11.109
11661W        W80024  23.605  43.915  14.432
11662W        W80025  29.063  22.214  12.957
11663W        W80026   8.347  21.724  13.435
11664W        W80027  36.849   7.741   2.759
11665W        W80028  23.060   9.310  14.495
11666W        W80029   9.367  24.193  12.978
11667W        W80030   1.854   9.695  12.033
11668W        W80031  36.551  14.734  12.360
11669W        W80032  10.813  18.155  12.963
11670W        W80033  30.435  36.398   3.658
11671W        W80034   3.908  18.130  12.572
11672W        W80035  41.490   4.210   1.915
11673W        W80036   9.351  16.724   2.351
11674W        W80037  27.085  11.216  14.375
11675W        W80038  41.041  10.241   3.759
11676W        W80039  17.632   6.744  11.541
11677W        W80040  28.622  18.613   1.343
11678W        W80041  20.701  35.527  12.911
11679W        W80042  24.522   4.425   4.203
11680W        W80043  15.149  26.597  13.992
11681W        W80044   3.725  35.024  13.946
11682W        W80045  19.661  14.265   3.253
11683W        W80046  19.731  12.642   0.957
11684W        W80047  25.977  38.039   1.440
11685W        W80048  41.438  22.722   3.212
11686W        W80049  37.865  25.607   2.399
11687W        W80050   4.221  43.299  14.013
11688W        W80051  27.525  39.956   0.932
11689W        W80052  29.496  19.103  13.497
11690W        W80053  40.966  21.641  10.450
11691W        W80054   1.898   7.812   4.611
11692W        W80055  20.710  18.050   1.243
11693W        W80056   3.798  35.479   2.384
11694W        W80057  14.143  18.614   4.171
11695W        W80058  21.611  18.140   1.812
11696W        W80059  24.103  33.109  13.997
11697W        W80060  23.016  33.502   2.874
11698W        W80061  37.403   6.811  14.807
11699W        W80062  18.140  35.951   1.795
11700W        W80063  23.616  37.410   0.294
11701W        W80064  20.113  43.358  11.054
11702W        W80065  17.289  39.418   0.390
11703W        W80066  14.659   6.238   1.333
11704W        W80067  41.417  32.582   0.967
11705W        W80068  19.688  44.455   4.268
11706W        W80069   8.901   7.267  10.958
11707W        W80070  35.437  36.068   3.858
11708W        W80071  36.936  35.895   2.722
11709W        W80072   4.770  14.722   2.319
11710W        W80073  43.364  28.129   3.737
11711W        W80074  43.354  35.864   4.246
11712W        W80075   2.428  16.139  13.364
11713W        W80076  23.640  10.172  10.572
11714W        W80077  34.418  40.431  14.295
11715W        W80078  20.111  40.013  14.981
11716W        W80079  38.859   6.705  11.441
11717W        W80080  24.092  12.156  14.403
11718W        W80081  10.644  17.692   4.120
11719W        W80082   2.344  38.441   1.724
11720W        W80083  35.436  41.896  12.067
11721W        W80084  16.732   7.343   4.730
11722W        W80085   7.208   7.744  14.426
11723W        W80086  39.826  39.048   3.631
11724W        W80087  37.388  12.784   3.824
11725W        W80088  14.641   0.361  10.414
11726W        W80089  37.383  43.332   0.446
11727W        W80090  32.587   8.866   2.298
11728W        W80091  36.565  29.481  14.864
11729W        W80092  24.647  16.789  14.781
11730W        W80093  25.125   0.967   4.666
11731W        W80094  27.555  20.699  11.398
11732W        W80095  27.008   1.831  12.493
11733W        W80096  25.993  38.956   9.997
11734W        W80097   7.350  31.409  11.962
11735W        W80098  15.689  18.100  10.149
11736W        W80099  38.425  21.175  13.379
11737W        W80100  35.981   2.324  14.974
11738W        W80101  16.692   9.817   2.203
11739W        W80102   3.257  17.713   3.257
11740W        W80103  17.132  29.122   2.717
11741W        W80104  25.619  13.782   4.696
11742W        W80105  32.052  27.458   3.692
11743W        W80106  41.966  30.132   2.878
11744W        W80107  10.822  37.928  12.470
11745W        W80108  40.395  14.688  11.980
11746W        W80109  27.131  24.184   0.299
11747W        W80110   0.470  21.121  10.912
11748W        W80111  16.638  36.508  14.904
11749W        W80112  39.449  39.867  14.277
11750W        W80113  17.085  44.295   5.209
11751W        W80114   5.822  28.044   4.728
11752W        W80115  33.380  44.476  11.078
11753W        W80116  13.338  18.736  11.870
11754W        W80117  15.227  22.598   0.270
11755W        W80118   5.246  24.610  14.305
11756W        W80119  13.291  33.945   0.320
11757W        W80120  31.510  10.647   3.277
11758W        W80121  32.567  15.689   2.241
11759W        W80122  17.700  41.297   2.404
11760W        W80123  38.986  15.661  13.058
11761W        W80124  30.504   7.278   1.727
11762W        W80125  37.513  30.591  12.484
11763W        W80126  24.655  39.854   1.726
11764W        W80127  20.143   0.841   3.817
11765W        W80128   5.410  43.279   4.123
11766W        W80129  14.126  35.547   3.755
11767W        W80130  12.324  21.684   0.931
11768W        W80131  10.783  25.575  13.984
11769W        W80132  14.593  18.290   1.817
11770W        W80133  31.540  32.922  10.639
11771W        W80134  34.941  25.170   1.848
11772W        W80135  15.100   3.949  14.908
11773W        W80136  29.965  20.702   4.181
11774W        W80137  40.468   5.355  10.505
11775W        W80138  24.140  14.113   3.631
11776W        W80139  16.277   9.153   1.378
11777W        W80140  25.584   1.867  10.922
11778W        W80141   9.383  27.557  12.435
11779W        W80142  15.185  23.004  12.943
11780W        W80143  18.074  43.358   4.249
11781W        W80144  43.941  38.399   0.297
11782W        W80145  43.403   1.738  12.474
11783W        W80146  19.244  19.655   0.750
11784W        W80147  18.210  34.441  12.474
11785W        W80148   8.892   5.746   0.297
11786W        W80149  29.579  40.405   0.904
11787W        W80150  37.074  19.136  14.903
11788W        W80151   9.303  42.473   3.346
11789W        W80152  44.867  23.658  13.866
11790W        W80153  13.204  31.641   4.310
11791W        W80154  20.123   6.770  13.806
11792W        W80155   1.431  22.582   1.338
11793W        W80156  15.752  24.609  11.913
11794W        W80157  12.795  28.506  11.420
11795W        W80158   4.938  10.691   0.471
11796W        W80159   0.484  31.622   1.739
11797W        W80160   1.288  44.367  13.824
11798W        W80161  43.313  22.571  12.825
11799W        W80162   9.184  17.646  11.481
11800W        W80163  36.964  44.499  14.500
11801W        W80164   2.800  21.641  14.331
11802W        W80165   5.429   4.226   1.790
11803W        W80166  15.257  28.171   0.768
11804W        W80167  37.990  43.858  13.912
11805W        W80168  16.251  39.861   0.874
11806W        W80169  44.756  11.159  13.405
11807W        W80170  19.636  18.165  11.372
11808W        W80171   2.413   5.209   3.193
11809W        W80172   2.750   3.849  14.983
11810W        W80173  13.783  24.192  13.868
11811W        W80174  17.787   8.311  14.325
11812W        W80175  36.988  32.049  13.460
11813W        W80176  25.572  39.813   3.335
11814W        W80177  22.515   7.839  13.345
11815W        W80178  14.192  39.024  12.455
11816W        W80179  32.543   3.750  12.445
11817W        W80180  40.891  39.514  10.580
11818W        W80181  36.353  37.513   4.684
11819W        W80182  11.283  26.144  14.409
11820W        W80183   4.382  25.023   1.432
11821W        W80184  19.674  25.024   0.777
11822W        W80185  42.898  29.014  11.478
11823W        W80186  38.030  15.210  14.276
11824W        W80187  32.401  32.567   3.191
11825W        W80188  44.779  31.581  13.383
11826W        W80189  29.505   6.698   0.824
11827W        W80190  19.045  31.978  10.967
11828W        W80191  19.741  42.365  10.058
11829W        W80192  36.383   0.405   2.370
11830W        W80193  13.607   2.275   2.878
11831W        W80194  44.848  24.710  13.535
11832W        W80195  28.045  20.186  11.964
11833W        W80196   2.335  31.619   2.766
11834W        W80197  27.103   8.679   4.689
11835W        W80198  22.215  27.538  11.548
11836W        W80199  29.936  15.794  14.817
11837W        W80200   6.912  15.273  10.455
11838W        W80201   4.447  24.552   0.467
11839W        W80202   4.707  25.507   5.174
11840W        W80203  12.123  39.066   1.405
11841W        W80204  30.424  39.355  13.838
11842W        W80205   7.328  17.294  13.919
11843W        W80206  10.727  41.403  12.380
11844W        W80207  44.401   1.959   2.335
11845W        W80208  22.616  31.633   0.822
11846W        W80209   8.212  21.625  10.560
11847W        W80210  32.489  34.531   3.212
11848W        W80211  42.032  39.025  10.084
11849W        W80212  11.356  28.971  14.994
11850W        W80213  22.517  31.573   1.223
11851W        W80214  44.928  44.478  10.038
11852W        W80215   4.921  44.369  13.827
11853W        W80216  39.900  28.005  11.532
11854W        W80217  12.243  28.479  10.461
11855W        W80218   0.778  34.075   3.633
11856W        W80219  41.499  27.085   3.713
11857W        W80220  11.334  41.423   2.830
11858W        W80221  17.182  34.011  13.848
11859W        W80222   7.710  10.645  14.348
11860W        W80223  41.811   6.695   2.284
11861W        W80224   2.776  16.316  14.955
11862W        W80225  19.732  20.613   0.244
11863W        W80226  34.374  28.597  14.288
11864W        W80227   5.317  31.068  14.827
11865W        W80228  39.848  19.566  10.926
11866W        W80229  22.590  36.453   2.250
11867W        W80230  26.619   2.280   3.836
11868W        W80231  10.256  10.725  12.878
11869W        W80232  42.345   1.410   1.435
11870W        W80233  19.664  26.488   0.354
11871W        W80234   4.876  33.493   2.880
11872W        W80235   3.450   7.256  10.560
11873W        W80236   8.207  31.921  12.399
11874W        W80237  11.332  43.388  12.969
11875W        W80238  25.136  20.532   2.778
11876W        W80239   0.865  24.013   1.420
11877W        W80240  43.995   2.856   2.751
11878W        W80241   7.357  41.497  10.573
11879W        W80242  31.108   8.243   3.167
11880W        W80243   2.733  26.682   4.131
11881W        W80244  33.103  30.440  13.369
11882W        W80245  19.683  11.712   4.764
11883W        W80246  36.561  30.546  13.405
11884W        W80247  34.565  16.705   4.336
11885W        W80248  15.793  23.569  12.888
11886W        W80249  26.170  39.949   0.440
11887W        W80250  12.735  13.338  10.440
11888W        W80251  15.599  12.177   1.305
11889W        W80252  25.653  30.455  13.842
11890W        W80253  39.053   1.925   0.754
11891W        W80254  30.937   7.776  13.494
11892W        W80255  21.542  26.202  13.548
11893W        W80256   6.723  11.331  14.989
11894W        W80257  44.914  30.559  12.070
11895W        W80258  24.184  39.872  11.435
11896W        W80259  28.094  22.693   0.345
11897W        W80260  11.862   0.358  11.858
11898W        W80261  13.614  13.631   3.803
11899W        W80262  39.445  35.904  14.920
11900W        W80263   6.293   6.371   1.293
11901W        W80264  33.548  19.652  11.607
11902W        W80265  43.393   1.475   0.398
11903W        W80266  16.623  16.626  11.460
11904W        W80267  24.170   8.301  13.442
11905W        W80268  26.059  34.556   1.832
11906W        W80269   7.218  42.476   3.787
11907W        W80270  37.914   9.723   3.329
11908W        W80271  18.272   5.374   1.903
11909W        W80272  22.105  44.957   3.219
11910W        W80273  20.166  30.946   2.872
11911W        W80274  24.657  32.448  11.452
11912W        W80275   6.834  15.693   1.302
11913W        W80276  41.909  18.598  11.970
11914W        W80277   8.280  19.746  12.347
11915W        W80278  35.384   6.747   3.762
11916W        W80279  37.472   6.420  14.791
11917W        W80280  42.830  14.265  13.475
11918W        W80281   7.264   1.349   1.280
11919W        W80282  11.750  13.341   1.247
11920W        W80283  12.309   3.234  11.869
11921W        W80284  25.122   2.402  13.459
11922W        W80285   6.345  41.442   2.740
11923W        W80286  12.266  37.968  11.557
11924W        W80287   3.307  29.484   2.772
11925W        W80288  32.907  16.643  10.428
11926W        W80289  17.139  29.096  12.841
11927W        W80290  13.650   8.862   4.795
11928W        W80291   0.797  17.204   3.711
11929W        W80292   4.335  13.115  12.912
11930W        W80293  32.139  32.479  10.526
11931W        W80294  22.576  37.930  14.930
11932W        W80295  37.862  37.953  12.403
11933W        W80296  36.586   2.397  13.915
11934W        W80297  39.924  29.523  12.861
11935W        W80298  43.344   2.285  11.443
11936W        W80299  13.663   3.277   4.713
11937W        W80300  15.606  30.948  13.376
11938W        W80301  31.476  24.660   2.266
11939W        W80302  42.916   9.387   1.445
11940W        W80303  10.254   8.349   3.669
11941W        W80304  41.953  28.534   2.737
11942W        W80305  37.021   2.351   4.837
11943W        W80306  15.199  40.948   3.849
11944W        W80307  14.295  33.009   1.734
11945W        W80308  22.545  15.662   2.373
11946W        W80309  30.058   0.903  13.009
11947W        W80310  17.061  26.107   1.443
11948W        W80311  31.433   2.931   4.801
11949W        W80312  19.092  17.582   2.216
11950W        W80313   9.760  33.506   4.286
11951W        W80314   2.878  28.993   4.171
11952W        W80315  24.715  34.006  10.486
11953W        W80316  43.404  10.657  13.537
11954W        W80317  37.899  31.481  12.009
11955W        W80318  41.931  34.867   1.437
11956W        W80319  21.633   7.226   4.836
11957W        W80320  28.633   4.369  13.891
11958W        W80321  20.690  27.643   0.964
11959W        W80322  24.165  31.900  14.032
11960W        W80323  36.891   2.275  13.921
11961W        W80324  28.020  18.548   2.274
11962W        W80325  19.054  31.569  10.441
11963W        W80326  43.872  10.378  11.438
11964W        W80327  12.673  39.903   1.369
11965W        W80328  38.358  12.794  12.895
11966W        W80329  33.577  33.899   2.722
11967W        W80330   0.974  42.319  12.401
11968W        W80331   7.276   8.297   2.318
11969W        W80332  16.113  18.180  12.417
11970W        W80333  26.976  43.884   3.305
11971W        W80334  22.065  29.505   2.703
11972W        W80335   9.764   9.201   1.753
11973W        W80336  38.327   1.931  14.940
11974W        W80337  36.918  13.248   0.254
11975W        W80338   8.795  13.778  13.869
11976W        W80339  22.723  41.976   2.851
11977W        W80340  35.896  39.356   2.785
11978W        W80341  34.469  42.357  13.823
11979W        W80342  16.659  12.774  10.954
11980W        W80343  37.582  11.153   1.439
11981W        W80344  14.258  17.720   1.790
11982W        W80345   9.313  23.653   1.388
11983W        W80346  37.862  33.092  14.503
11984W        W80347  42.967   2.965  13.464
11985W        W80348  19.218   4.935  11.006
11986W        W80349   3.816  17.748   2.243
11987W        W80350  13.234  31.508   0.304
11988W        W80351  28.660  12.336  10.633
11989W        W80352  14.233   2.742   5.249
11990W        W80353   0.934  36.932   1.830
11991W        W80354  17.640  44.837  11.600
11992W        W80355  32.086  21.145   2.416
11993W        W80356   1.936  15.632  12.356
11994W        W80357  44.975  41.533   2.338
11995W        W80358  25.494  37.390   4.215
11996W        W80359  25.159  33.580   1.781
11997W        W80360  21.158  21.539  11.397
11998W        W80361   0.806   0.983  10.972
11999W        W80362  12.292  40.973  11.502
12000W        W80363  21.550  28.039  13.857
12001W        W80364  21.719   6.774   2.387
12002W        W80365  24.011  11.751  10.457
12003W        W80366   1.357   3.319  14.819
12004W        W80367  44.461  25.523   0.923
12005W        W80368  21.589  17.255   3.838
12006W        W80369  33.053   7.223   3.156
12007W        W80370   1.323   3.359  11.943
12008W        W80371  37.835   8.184  12.437
12009W        W80372   0.781  28.444  13.355
12010W        W80373  16.292  19.067  10.040
12011W        W80374  15.220   8.800   3.827
12012W        W80375  16.084  37.037  14.278
12013W        W80376   8.655   2.945   3.164
12014W        W80377  41.384  20.549  12.479
12015W        W80378  39.894  36.980  12.874
12016W        W80379  44.425  42.514   1.401
12017W        W80380  11.195  41.878  11.120
12018W        W80381  41.822   3.717   1.759
12019W        W80382  17.263  37.943  11.605
12020W        W80383  16.596  19.072  14.403
12021W        W80384  35.568  24.048  11.083
12022W        W80385   4.377  39.352  10.615
12023W        W80386   9.888  36.488   0.889
12024W        W80387  23.570   5.789  14.449
12025W        W80388  27.180  36.039  10.984
12026W        W80389  42.859  25.658  12.837
12027W        W80390  31.574  35.469  14.766
12028W        W80391  23.218  11.351  14.923
12029W        W80392  11.154  15.711  13.428
12030W        W80393  19.226  33.557   2.217
12031W        W80394  42.370  28.144   0.446
12032W        W80395  18.728  10.366  12.847
12033W        W80396  34.110  28.506   2.262
12034W        W80397  16.572  43.302   0.733
12035W        W80398   4.823  20.102  11.471
12036W        W80399  11.158  39.044  13.796
12037W        W80400  36.853  31.436   1.226
12038W        W80401  32.084  28.658  14.833
12039W        W80402  28.510  13.283   0.949
12040W        W80403  36.346  34.030   0.481
12041W        W80404  13.710  29.642   2.192
12042W        W80405  31.974  33.017  12.027
12043W        W80406  19.561  18.687  14.759
12044W        W80407   7.252  39.531  10.613
12045W        W80408  28.476  22.731  13.902
12046W        W80409  20.666  15.818  12.420
12047W        W80410   4.792   8.858   2.217
12048W        W80411   7.207  43.851   1.403
12049W        W80412   2.331   3.441  12.029
12050W        W80413  20.054  39.932   3.756
12051W        W80414  42.872   5.228   3.746
12052W        W80415  10.259  20.550   2.384
12053W        W80416  36.097  36.480   3.343
12054W        W80417  25.520   5.805  11.008
12055W        W80418  29.504  44.320  10.547
12056W        W80419  25.497  35.900  13.523
12057W        W80420   0.413  18.690  14.501
12058W        W80421  17.607  41.879   4.657
12059W        W80422   9.320   5.358   4.235
12060W        W80423  10.265   1.295   9.993
12061W        W80424   5.866  30.631  10.408
12062W        W80425  43.279   3.748   0.825
12063W        W80426  12.276  17.687  10.622
12064W        W80427  17.184  43.507  13.851
12065W        W80428  38.951  39.413  11.538
12066W        W80429  11.715  39.340   4.779
12067W        W80430  13.800   7.278   1.927
12068W        W80431  32.981  18.626   3.843
12069W        W80432  35.855  36.025   3.348
12070W        W80433  14.628  16.798   0.824
12071W        W80434  40.884  12.213   1.898
12072W        W80435  10.812  21.688   3.836
12073W        W80436  18.548  42.852   0.773
12074W        W80437  22.630  13.164   3.705
12075W        W80438   7.901  20.095   1.413
12076W        W80439  29.480  40.323   1.434
12077W        W80440  10.699  20.599   2.179
12078W        W80441  14.703   0.394   3.680
12079W        W80442   6.408  24.499  13.353
12080W        W80443  30.980  29.943   5.262
12081W        W80444  21.600  37.971   0.820
12082W        W80445  43.434  38.052   1.921
12083W        W80446   7.320  39.336  13.964
12084W        W80447  19.633  19.051   1.751
12085W        W80448  26.135  20.756  14.464
12086W        W80449   2.751  21.721   3.741
12087W        W80450  43.876  34.520   2.190
12088W        W80451  21.591  40.027  13.852
12089W        W80452  29.549  41.374  14.423
12090W        W80453  14.697  22.184  14.800
12091W        W80454  34.416  16.604  13.348
12092W        W80455  35.871  37.392  13.838
12093W        W80456  42.415  43.883   2.204
12094W        W80457  21.261  26.158  13.857
12095W        W80458  44.283   4.229   2.873
12096W        W80459  37.522   5.845  10.450
12097W        W80460   2.326  40.452   0.852
12098W        W80461   2.796  43.358   1.436
12099W        W80462  20.202  32.058   2.805
12100W        W80463  10.698  29.091  11.571
12101W        W80464   9.776  24.662   3.649
12102W        W80465  22.161  30.148  13.039
12103W        W80466  18.692  27.956   3.297
12104W        W80467  39.919  31.407  12.078
12105W        W80468  19.285  22.162  14.843
12106W        W80469  28.134  19.568   2.284
12107W        W80470   8.772  29.547   4.670
12108W        W80471  36.905  41.450  11.071
12109W        W80472  30.534  19.715  10.891
12110W        W80473  30.642  25.987  12.445
12111W        W80474  42.879  22.680  11.009
12112W        W80475   4.249  21.086  14.348
12113W        W80476  10.327  17.141   5.303
12114W        W80477   6.379  30.607  12.923
12115W        W80478  38.976  15.304  13.545
12116W        W80479  27.099  18.672   1.228
12117W        W80480  43.994  28.032   3.291
12118W        W80481  14.685  19.158   4.685
12119W        W80482   8.210   9.181   3.838
12120W        W80483  18.659   7.816  10.415
12121W        W80484  30.994  21.129  14.490
12122W        W80485  26.083  10.237   3.825
12123W        W80486  13.339  12.304  13.473
12124W        W80487   5.885   6.799   3.672
12125W        W80488  29.965   4.329   1.779
12126W        W80489  13.616  10.341   2.794
12127W        W80490   0.310   4.307  13.808
12128W        W80491  42.466   3.955  11.091
12129W        W80492  33.087  41.988  14.765
12130W        W80493  19.688   2.820   1.907
12131W        W80494  16.612  22.554  11.914
12132W        W80495  37.907   5.901   1.831
12133W        W80496  44.815  31.116   4.612
12134W        W80497  21.178   2.828   2.205
12135W        W80498  20.084   3.947  12.931
12136W        W80499  12.315  38.918  11.568
12137W        W80500  39.825  23.564   0.754
12138W        W80501  35.931  42.939  14.873
12139W        W80502  20.542  19.050  12.497
12140W        W80503  25.657  23.164   0.325
12141W        W80504  43.834   0.407  14.322
12142W        W80505  10.243  32.481   3.216
12143W        W80506   4.938  32.893   0.262
12144W        W80507  30.430  33.927  14.514
12145W        W80508  33.574  37.960   4.703
12146W        W80509   3.380   2.866   0.743
12147W        W80510  13.693  41.332  10.991
12148W        W80511   3.929  16.118  13.341
12149W        W80512  24.576  29.571  13.383
12150W        W80513  16.597  31.425   4.766
12151W        W80514  31.930  33.007  14.940
12152W        W80515  25.187  17.574  11.029
12153W        W80516  25.601  22.165  14.370
12154W        W80517   2.774  35.936   2.371
12155W        W80518  18.685  27.542   1.710
12156W        W80519  33.594  31.036   3.644
12157W        W80520  28.117  25.011  10.932
12158W        W80521   4.400  31.037   4.243
12159W        W80522  42.923   3.236   1.349
12160W        W80523   8.196  27.964   4.666
12161W        W80524  13.790  29.970  13.853
12162W        W80525  20.146  16.703  12.848
12163W        W80526  31.594  41.933  14.780
12164W        W80527   1.927  28.090   4.646
12165W        W80528  20.669  35.867   3.652
12166W        W80529  15.126  17.788  11.541
12167W        W80530  21.105  30.499   3.824
12168W        W80531  15.591  38.867  13.328
12169W        W80532  40.419  13.664  13.832
12170W        W80533  36.851  12.732   2.274
12171W        W80534  31.505  31.404   3.643
12172W        W80535  10.377  42.408   4.122
12173W        W80536  13.262  15.135  10.902
12174W        W80537  39.865  35.481   2.402
12175W        W80538   0.968  24.100  13.991
12176W        W80539   4.227  10.224  14.443
12177W        W80540  40.479   3.751  14.462
12178W        W80541  22.043  34.548   4.116
12179W        W80542  27.683  19.242  11.598
12180W        W80543   5.919  10.699  10.980
12181W        W80544   0.394   7.262   1.286
12182W        W80545  16.203  39.376  12.416
12183W        W80546   5.827  19.764   0.475
12184W        W80547   4.810  21.142  14.030
12185W        W80548  41.313  44.489   3.305
12186W        W80549  40.864  16.095  12.063
12187W        W80550  11.343   9.862  10.449
12188W        W80551   2.285  42.430   1.443
12189W        W80552  25.672  35.864   1.240
12190W        W80553  16.160  26.094   2.325
12191W        W80554  26.613   9.356  13.844
12192W        W80555  35.066  21.155  11.064
12193W        W80556  30.025  33.952   1.255
12194W        W80557  29.057  26.601  13.546
12195W        W80558  12.349  39.463  11.973
12196W        W80559  13.621  20.573   1.224
12197W        W80560  18.718  25.534  13.421
12198W        W80561  28.978  43.873  12.047
12199W        W80562  39.971  22.208   4.774
12200W        W80563  26.967  44.882   0.920
12201W        W80564  37.074  12.632  11.040
12202W        W80565  36.946  36.460  12.981
12203W        W80566  27.012   7.765  14.020
12204W        W80567  37.465  30.131   3.826
12205W        W80568   9.252  11.315   0.870
12206W        W80569  16.771  39.020   3.238
12207W        W80570  20.031  44.332   2.788
12208W        W80571  26.561  41.912   0.388
12209W        W80572  24.624  30.601  12.354
12210W        W80573  21.247  26.590   2.721
12211W        W80574  39.022   0.752  11.399
12212W        W80575   0.881  12.250   1.800
12213W        W80576  34.875  44.952   1.375
12214W        W80577   5.809  13.254   1.916
12215W        W80578  13.168  15.149  12.972
12216W        W80579  36.551   7.757   1.347
12217W        W80580  14.660  44.955  12.926
12218W        W80581   6.848  43.396   2.767
12219W        W80582  40.324  23.664  14.914
12220W        W80583  21.520  38.358   0.727
12221W        W80584  29.035  32.409  11.948
12222W        W80585  42.997   0.450  10.602
12223W        W80586  11.635  24.488  13.945
12224W        W80587  16.208  27.137  11.120
12225W        W80588  21.174  43.385   2.849
12226W        W80589  28.598   8.882  12.937
12227W        W80590  37.356  10.738   3.680
12228W        W80591  23.690   9.856   4.168
12229W        W80592  40.371   7.811  11.999
12230W        W80593  32.926  44.958  12.458
12231W        W80594  34.097  31.988  13.531
12232W        W80595   9.224  14.264   4.162
12233W        W80596  39.907  20.259   2.289
12234W        W80597  34.592  31.947   5.119
12235W        W80598  24.220  23.523  11.450
12236W        W80599  42.437  10.164   4.204
12237W        W80600  43.966   9.347  14.468
12238W        W80601  44.753  17.194  13.950
12239W        W80602  29.624  13.171  13.848
12240W        W80603  17.151  27.634   0.456
12241W        W80604   3.940  11.763   3.648
12242W        W80605  18.636  39.026   0.803
12243W        W80606  12.308  41.393   4.787
12244W        W80607  22.204  10.846   0.836
12245W        W80608   1.453  41.332  13.828
12246W        W80609  23.531  20.532  14.872
12247W        W80610  32.593  35.993  13.486
12248W        W80611  43.433  29.475  11.924
12249W        W80612  38.922  37.449   2.846
12250W        W80613  27.053   5.923  12.365
12251W        W80614  11.792  14.753  10.508
12252W        W80615   7.865  27.572  10.501
12253W        W80616  24.574   4.936  11.892
12254W        W80617  12.278  18.269  14.497
12255W        W80618  43.904  36.424  14.454
12256W        W80619  29.581  20.241   2.681
12257W        W80620  26.165  28.578  12.376
12258W        W80621   1.790   6.302  11.907
12259W        W80622  22.188  11.201   3.689
12260W        W80623   5.268  19.056  11.940
12261W        W80624  20.595   3.448  12.493
12262W        W80625  13.310  10.636   2.248
12263W        W80626  20.696   4.401   1.405
12264W        W80627   7.254  17.577   4.697
12265W        W80628  16.739  28.674  13.950
12266W        W80629  23.072  11.209   0.309
12267W        W80630  44.902  14.656  12.414
12268W        W80631  36.979  24.660   4.692
12269W        W80632  10.875  24.645  11.905
12270W        W80633  31.027  33.511  14.473
12271W        W80634  41.823  19.654  13.466
12272W        W80635  13.642  11.327   0.954
12273W        W80636   2.306  34.916  11.946
12274W        W80637  17.297  25.565   4.820
12275W        W80638  15.096   1.826   3.190
12276W        W80639  40.908  29.483  13.799
12277W        W80640  23.561  24.014  10.432
12278W        W80641  16.575   3.837   4.663
12279W        W80642  20.659  21.696   1.746
12280W        W80643  15.276  26.507   3.192
12281W        W80644  28.478   5.432   4.333
12282W        W80645  44.399  43.838  12.950
12283W        W80646  12.763  14.659   4.158
12284W        W80647   0.806   3.946   1.696
12285W        W80648  24.607   3.297  13.470
12286W        W80649  37.492  40.486   4.704
12287W        W80650  13.237  32.135   3.151
12288W        W80651  14.222  11.857  14.960
12289W        W80652  20.073  18.080  14.807
12290W        W80653  20.164   0.751  13.034
12291W        W80654  18.150  10.210   1.893
12292W        W80655  10.202  21.074   3.836
12293W        W80656  39.493  22.593  12.496
12294W        W80657  22.538  19.572  11.493
12295W        W80658  28.680  24.669  10.459
12296W        W80659  38.338  41.339  10.925
12297W        W80660  37.484  23.712   0.319
12298W        W80661  16.288  13.784   1.829
12299W        W80662  25.527  10.312   1.747
12300W        W80663  44.809   2.780   3.630
12301W        W80664  30.435  23.151   3.853
12302W        W80665  18.262  35.055  14.790
12303W        W80666  21.121  15.698   0.846
12304W        W80667  11.219   1.875  11.087
12305W        W80668  42.412   4.379   3.282
12306W        W80669   2.825   5.302   1.845
12307W        W80670  32.526  19.104  14.882
12308W        W80671  26.205  43.930  10.960
12309W        W80672   1.392  40.813  11.962
12310W        W80673  40.398  18.203   1.823
12311W        W80674   8.760  11.734  12.005
12312W        W80675  21.723  20.257   3.347
12313W        W80676  18.681  32.524  11.900
12314W        W80677  41.968  32.475  12.961
12315W        W80678   2.403  15.698  11.559
12316W        W80679  15.584  42.458   4.141
12317W        W80680  20.600  30.035   0.275
12318W        W80681  33.116   1.833   1.276
12319W        W80682  23.574  16.757  14.483
12320W        W80683  32.536  32.634  11.525
12321W        W80684  12.344  14.761  10.897
12322W        W80685  16.312  17.113  11.014
12323W        W80686  27.103  34.404  10.613
12324W        W80687  35.498  18.249   3.204
12325W        W80688   5.743  28.059  11.006
12326W        W80689  21.574  24.108   1.761
12327W        W80690  25.139   2.282  11.547
12328W        W80691  32.960  42.021   1.790
12329W        W80692   0.271  44.352   4.708
12330W        W80693  28.476  40.537   0.350
12331W        W80694  37.963  12.283  13.840
12332W        W80695  23.676   7.263  13.964
12333W        W80696   9.157  29.964  13.836
12334W        W80697  44.375  34.453  14.802
12335W        W80698  35.475  13.300  13.945
12336W        W80699  39.523  10.226  13.848
12337W        W80700   9.351  24.050  13.860
12338W        W80701  34.918  37.032   1.303
12339W        W80702  29.046  30.485   0.281
12340W        W80703  24.033  24.130   4.176
12341W        W80704  24.076   6.829  11.928
12342W        W80705  43.925  24.506  11.597
12343W        W80706  13.607  29.924  11.394
12344W        W80707   5.323  23.010   2.340
12345W        W80708  44.406  30.517  11.985
12346W        W80709  40.948  10.682  12.937
12347W        W80710  27.174  36.439   1.849
12348W        W80711  35.872   4.777   4.238
12349W        W80712  24.481  17.563  11.910
12350W        W80713  44.845  10.153   4.779
12351W        W80714   3.917  36.841   2.201
12352W        W80715   9.776  35.937   2.748
12353W        W80716  16.596  11.168   0.288
12354W        W80717   7.818  31.638   4.237
12355W        W80718  29.639  11.800   2.698
12356W        W80719   0.853   9.392  13.045
12357W        W80720  36.036  43.938  12.448
12358W        W80721  20.718  27.511  11.967
12359W        W80722  16.757  11.768  13.888
12360W        W80723  15.202   6.405  11.978
12361W        W80724  29.466  15.723  11.449
12362W        W80725  26.005  42.027  10.961
12363W        W80726  35.432  44.303   4.154
12364W        W80727  17.704  43.509  14.285
12365W        W80728  30.456  12.144   1.737
12366W        W80729  20.533  11.625  14.393
12367W        W80730  16.654  11.844  10.610
12368W        W80731  12.768  33.431  11.988
12369W        W80732  35.447   0.477   0.915
12370W        W80733  24.085   8.739   0.345
12371W        W80734  38.478  41.851  14.764
12372W        W80735  42.420  37.952  12.576
12373W        W80736  21.050  21.226  10.455
12374W        W80737   1.301  33.917   4.808
12375W        W80738  44.805  34.591   2.725
12376W        W80739  11.358  30.067  13.951
12377W        W80740  40.374  33.461  10.406
12378W        W80741  11.726  19.776  11.410
12379W        W80742   7.826  18.576  13.064
12380W        W80743   6.722  29.630   1.281
12381W        W80744   4.939   2.246  13.328
12382W        W80745   3.216  21.251   4.732
12383W        W80746   2.272  42.427   2.350
12384W        W80747  43.954   5.785   2.858
12385W        W80748   4.735  38.025   0.428
12386W        W80749   9.334   4.942  12.533
12387W        W80750  19.729  41.847   2.819
12388W        W80751  38.452  28.505  11.043
12389W        W80752   7.175  29.442  10.433
12390W        W80753  16.688  13.181  13.795
12391W        W80754  40.361  38.487  12.836
12392W        W80755   1.461  15.775   1.935
12393W        W80756   7.821   3.810  12.360
12394W        W80757  36.502   5.768  14.841
12395W        W80758  17.714  16.672  13.051
12396W        W80759  11.254  36.503   1.930
12397W        W80760  16.603  21.108  10.464
12398W        W80761  36.532   1.439  13.308
12399W        W80762  44.368   5.395   3.146
12400W        W80763  29.090   2.447  11.092
12401W        W80764  24.722  12.789  10.446
12402W        W80765  27.989  16.567   3.182
12403W        W80766   9.341  32.141  11.454
12404W        W80767  30.488  26.171   0.836
12405W        W80768  21.599   8.658  12.850
12406W        W80769  40.807  24.522  14.968
12407W        W80770  22.234  22.579   4.816
12408W        W80771  23.566  44.756   2.749
12409W        W80772  42.954  44.923  11.405
12410W        W80773   1.302  19.533  14.827
12411W        W80774   5.926  35.086   0.385
12412W        W80775   0.248  40.994   4.721
12413W        W80776  10.787   4.870  13.011
12414W        W80777  32.039  32.615  14.448
12415W        W80778   7.249   5.903   2.347
12416W        W80779  31.542  13.139  13.805
12417W        W80780  35.075  35.428   0.367
12418W        W80781  19.174  10.291  14.429
12419W        W80782  32.985  18.050  14.854
12420W        W80783  12.141  20.088   4.727
12421W        W80784  22.549  17.713  13.533
12422W        W80785  36.447  38.432  11.873
12423W        W80786  14.820  25.495  14.362
12424W        W80787   5.872  13.141   1.381
12425W        W80788   5.437  43.308  11.867
12426W        W80789  30.930   5.277   4.136
12427W        W80790   7.746  39.355  12.506
12428W        W80791  27.176  26.097  14.876
12429W        W80792  10.678   5.221   4.829
12430W        W80793  17.298  12.722  11.544
12431W        W80794   7.829   0.774   1.885
12432W        W80795   2.309  21.694  12.069
12433W        W80796  22.118  21.247   3.822
12434W        W80797  36.979  40.519  12.050
12435W        W80798  17.274  43.292   4.353
12436W        W80799  13.182  13.294  11.598
12437W        W80800  20.134  26.098   4.279
12438W        W80801  17.721  12.627  14.515
12439W        W80802  31.445  44.813   2.254
12440W        W80803  42.513   7.880   0.373
12441W        W80804  17.263   8.192  14.428
12442W        W80805  42.015  36.061   5.141
12443W        W80806  40.350  26.193   4.120
12444W        W80807   2.784  42.382   3.743
12445W        W80808   3.765  11.735  10.005
12446W        W80809  34.050  27.948   2.184
12447W        W80810  27.036  16.668  11.502
12448W        W80811  25.020  27.674   2.876
12449W        W80812   6.268  22.138   4.778
12450W        W80813  23.509  11.296  13.806
12451W        W80814   1.421  11.136  11.957
12452W        W80815   3.293  29.489  13.033
12453W        W80816  43.321  24.665   3.254
12454W        W80817  35.566  29.138  14.942
12455W        W80818   6.795  11.183  11.590
12456W        W80819  28.577  36.964  11.572
12457W        W80820   9.310  27.644  10.510
12458W        W80821   7.687  14.282   1.870
12459W        W80822  17.663  30.014   1.343
12460W        W80823  31.471   1.335  12.826
12461W        W80824  39.957  15.248  11.101
12462W        W80825  41.328  26.962   0.851
12463W        W80826   6.844   8.306  12.847
12464W        W80827  13.338  28.131   2.376
12465W        W80828   1.366  32.601   4.233
12466W        W80829  33.091  10.168   0.959
12467W        W80830   6.862   7.774  12.414
12468W        W80831   4.308  24.039   3.193
12469W        W80832  17.704  38.865  12.831
12470W        W80833  44.965  42.471  11.881
12471W        W80834  37.959   7.361  14.433
12472W        W80835  42.936  15.678  10.632
12473W        W80836  23.212  38.871   1.840
12474W        W80837   8.769  26.601   4.177
12475W        W80838  14.118  22.565   4.677
12476W        W80839  14.265   1.929   2.322
12477W        W80840   1.820   8.799   1.910
12478W        W80841  25.160  33.900   0.251
12479W        W80842   6.916  32.943  10.617
12480W        W80843  33.090   1.778  10.127
12481W        W80844   4.759   0.819  14.976
12482W        W80845   6.918  30.445  12.487
12483W        W80846  20.174  14.253  10.549
12484W        W80847   8.680  44.364  13.351
12485W        W80848  40.319  26.510   4.647
12486W        W80849  28.046   3.338  13.877
12487W        W80850   2.783   7.725   4.684
12488W        W80851   2.379  40.892   3.763
12489W        W80852   0.452   0.279   2.182
12490W        W80853  41.380  38.542  10.572
12491W        W80854  11.752  38.362   0.889
12492W        W80855  11.666  13.337  14.999
12493W        W80856  23.142  26.110   3.171
12494W        W80857   6.329  13.351   4.169
12495W        W80858  12.843  41.983  10.472
12496W        W80859   9.767  31.954  13.829
12497W        W80860  16.100   6.207   5.268
12498W        W80861  17.611  27.535  11.877
12499W        W80862  31.445  31.060  14.400
12500W        W80863  38.569  39.947   1.229
12501W        W80864  16.688  29.474   2.235
12502W        W80865  40.411   4.891   4.731
12503W        W80866  13.680  21.021   4.731
12504W        W80867  39.987  41.343  11.991
12505W        W80868  38.445   3.773  12.381
12506W        W80869   9.391  35.083  10.582
12507W        W80870  20.112  35.997   5.160
12508W        W80871  18.766  30.548  12.347
12509W        W80872  16.166  30.032   4.183
12510W        W80873  42.950   3.779   1.445
12511W        W80874  30.140  14.170   4.349
12512W        W80875  37.087  30.152   1.430
12513W        W80876  15.274  11.831   1.831
12514W        W80877  21.036  27.011  11.112
12515W        W80878  28.452  38.465  13.547
12516W        W80879  42.894  27.037   0.749
12517W        W80880  32.945  16.661   3.285
12518W        W80881  22.245  43.874  12.017
12519W        W80882  11.758  29.628   0.867
12520W        W80883  14.227  37.499  12.074
12521W        W80884  39.485  37.897   2.758
12522W        W80885  23.086   8.737  10.491
12523W        W80886  43.914  33.937  13.403
12524W        W80887  12.666  20.219   4.274
12525W        W80888   8.392  19.146   4.666
12526W        W80889  11.815   7.339  13.818
12527W        W80890  31.510  10.269  13.926
12528W        W80891  32.087  40.961   0.943
12529W        W80892  10.749  34.008   0.426
12530W        W80893   5.767   7.286  11.403
12531W        W80894  42.973  35.536  14.958
12532W        W80895  20.677   3.806   3.269
12533W        W80896  23.573  10.666   4.752
12534W        W80897   1.443  37.841   4.317
12535W        W80898   8.900  13.279  11.951
12536W        W80899  20.530  13.650  13.344
12537W        W80900  44.298  15.777  13.024
12538W        W80901  44.430  13.184  14.429
12539W        W80902   8.760  41.003   2.802
12540W        W80903  20.738  25.522   2.295
12541W        W80904  40.014  12.808   4.698
12542W        W80905   5.832   0.778  13.379
12543W        W80906  36.525  10.362   0.886
12544W        W80907  26.983  39.933  14.452
12545W        W80908  44.441  41.322  13.022
12546W        W80909  21.138  30.964  13.026
12547W        W80910  15.775  38.568  14.403
12548W        W80911  38.992  31.152  11.450
12549W        W80912  22.012  22.704  14.316
12550W        W80913  23.702   1.822  10.467
12551W        W80914  31.115  30.528  11.440
12552W        W80915  32.923   4.377   1.405
12553W        W80916  23.521  38.407  13.840
12554W        W80917  11.178  33.970   3.774
12555W        W80918  10.760  19.687   1.405
12556W        W80919  10.832  18.174  11.559
12557W        W80920   3.907   6.355  14.387
12558W        W80921  23.178  29.053   4.289
12559W        W80922  11.371  32.034   1.233
12560W        W80923  20.630  10.285  14.463
12561W        W80924  22.744  21.727  10.612
12562W        W80925   5.765  43.485   2.243
12563W        W80926  36.413   7.298   1.919
12564W        W80927   3.902  24.519   4.260
12565W        W80928  22.154  17.172   0.445
12566W        W80929  14.328  12.663  10.549
12567W        W80930  22.651  36.520  10.621
12568W        W80931   4.928  37.396   1.786
12569W        W80932  18.094   6.277  13.323
12570W        W80933  40.487   8.223   0.930
12571W        W80934  14.176   7.761  11.012
12572W        W80935  19.754  40.839  12.448
12573W        W80936  31.967  43.847  13.421
12574W        W80937   8.726  42.446  11.477
12575W        W80938  35.884  22.052   0.363
12576W        W80939  21.720  18.582   3.796
12577W        W80940  36.086   4.254   0.829
12578W        W80941   4.711  35.867   2.703
12579W        W80942  19.764  26.972   2.875
12580W        W80943  43.332  29.634   2.799
12581W        W80944   2.734   2.865   4.754
12582W        W80945  20.737  30.995  12.542
12583W        W80946  21.086  34.992   1.447
12584W        W80947  28.154  19.206   1.301
12585W        W80948   7.722  29.667  13.834
12586W        W80949  21.077   9.690   0.923
12587W        W80950  29.568   1.838  14.871
12588W        W80951  43.986  12.850   2.311
12589W        W80952  16.754  36.481   2.219
12590W        W80953  12.291  44.863   4.210
12591W        W80954  41.432   3.436  13.341
12592W        W80955  31.003  34.880   5.208
12593W        W80956   5.196  13.253   3.838
12594W        W80957   7.908  25.963   1.293
12595W        W80958  14.704  15.751  14.975
12596W        W80959   6.852   7.281   2.845
12597W        W80960  19.277  42.344   9.967
12598W        W80961  27.064  23.130   4.731
12599W        W80962  13.604  29.965   4.123
12600W        W80963  14.262  30.040  11.579
12601W        W80964  38.507  26.064   4.265
12602W        W80965  30.915  29.476  14.441
12603W        W80966  32.527  21.590   3.711
12604W        W80967  34.380   6.782   3.152
12605W        W80968   0.426  38.328   1.309
12606W        W80969  31.469  42.432   3.670
12607W        W80970  26.703  15.328   3.358
12608W        W80971  18.771  26.609   2.676
12609W        W80972  41.469  24.165  11.463
12610W        W80973  37.343   8.380   3.788
12611W        W80974   1.313  29.990   1.233
12612W        W80975  32.524  37.547   2.825
12613W        W80976  26.658  44.851  13.541
12614W        W80977  13.138   7.197   3.822
12615W        W80978  28.072  42.886   2.685
12616W        W80979  41.461  20.137  10.534
12617W        W80980  34.935   6.687   0.908
12618W        W80981  43.770   7.247   2.812
12619W        W80982  40.476  32.121   5.290
12620W        W80983  20.079  10.217  12.919
12621W        W80984   4.754   0.332   5.768
12622W        W80985  28.478  37.841  13.444
12623W        W80986   1.961  35.082   3.147
12624W        W80987   6.867  33.486  14.312
12625W        W80988  12.136  12.692   3.715
12626W        W80989   3.409  16.785   1.827
12627W        W80990  41.367  38.994   0.298
12628W        W80991   4.704   8.363  14.320
12629W        W80992  44.297  33.600   2.213
12630W        W80993  25.995   9.759  12.485
12631W        W80994  30.622  18.077  13.925
12632W        W80995   6.889  36.867   3.863
12633W        W80996  12.627  30.114  13.001
12634W        W80997  28.518  37.026   4.776
12635W        W80998  19.747  38.875   5.318
12636W        W80999  25.581   7.778   0.456
12637W        W81000  43.307   4.450   1.430
12638W        W81001  14.310  18.249   0.399
12639W        W81002  31.953  41.873  13.322
12640W        W81003  17.596   4.806   0.269
12641W        W81004  41.416  36.081   0.355
12642W        W81005   9.195   0.778   2.355
12643W        W81006  24.048  18.053  11.102
12644W        W81007  13.301  22.127   0.806
12645W        W81008  39.026   4.361   2.801
12646W        W81009   4.851   2.959   1.353
12647W        W81010  12.325  10.799  13.799
12648W        W81011  17.185  35.922  13.021
12649W        W81012   1.391  18.230  13.531
12650W        W81013  30.003  42.882   1.799
12651W        W81014  42.024  34.002   3.282
12652W        W81015   0.969  13.773   1.354
12653W        W81016  41.965  12.295   2.293
12654W        W81017  39.529  25.207  13.901
12655W        W81018  39.885  22.564  10.929
12656W        W81019  38.035  36.867  12.469
12657W        W81020  11.145  41.459  11.883
12658W        W81021   6.854  18.050  12.076
12659W        W81022  18.190  24.711   0.255
12660W        W81023  29.526  10.678   2.326
12661W        W81024  25.212  28.658   0.932
12662W        W81025  27.570   2.448   1.933
12663W        W81026  26.614  30.614   0.355
12664W        W81027  42.853  10.785  13.890
12665W        W81028  14.253  22.220   2.323
12666W        W81029  27.074  42.517   4.179
12667W        W81030  44.264  18.122  11.469
12668W        W81031  15.811   3.256  14.410
12669W        W81032  38.869  25.149  11.045
12670W        W81033  28.590  23.212  12.358
12671W        W81034  12.776  41.009   3.838
12672W        W81035   6.694   6.768   3.161
12673W        W81036  44.439  21.235   2.753
12674W        W81037  27.020  37.396   1.788
12675W        W81038  36.495  25.024  11.558
12676W        W81039  22.073  28.504   3.216
12677W        W81040  35.028  39.377   1.812
12678W        W81041  31.478  16.728  11.041
12679W        W81042   6.913  17.126   2.680
12680W        W81043  17.271  34.006  13.446
12681W        W81044  44.873  19.725  12.856
12682W        W81045   4.871  29.665  13.491
12683W        W81046  32.035  19.622   2.184
12684W        W81047  30.441  34.387  10.602
12685W        W81048  14.097  28.661   2.226
12686W        W81049  22.582  14.658   0.781
12687W        W81050  11.706  25.151   0.858
12688W        W81051  40.509  36.075  11.425
12689W        W81052  19.167  41.322   3.648
12690W        W81053  23.575   0.271   1.803
12691W        W81054  35.900  40.487  14.393
12692W        W81055  44.771  14.628   3.812
12693W        W81056  33.903  35.050  12.352
12694W        W81057  35.493  34.387   0.812
12695W        W81058  31.939  36.377  11.604
12696W        W81059  21.648   6.870   3.312
12697W        W81060  40.337  40.509  12.522
12698W        W81061  10.860  16.685  14.846
12699W        W81062  43.873  40.304   0.269
12700W        W81063  17.634  33.559  13.889
12701W        W81064  40.002  41.923   4.788
12702W        W81065  19.191  10.188   0.394
12703W        W81066   3.711  30.072  11.121
12704W        W81067  27.508  18.664  10.568
12705W        W81068  20.063  12.642   0.829
12706W        W81069   8.855  43.401  12.926
12707W        W81070  11.642  12.261   3.179
12708W        W81071  29.547   3.322   1.284
12709W        W81072  25.631  10.689   4.712
12710W        W81073  10.253   1.353  12.379
12711W        W81074   7.835   8.763   3.869
12712W        W81075   9.808   4.214   1.434
12713W        W81076  43.897  35.916  10.036
12714W        W81077  25.004  13.724  12.866
12715W        W81078   9.759  32.092   3.667
12716W        W81079  15.090  35.524   3.261
12717W        W81080  33.528  10.373  11.947
12718W        W81081   8.663   8.882  12.837
12719W        W81082  20.549   4.415   4.753
12720W        W81083  37.999   6.902   4.195
12721W        W81084   7.342  15.084   3.869
12722W        W81085  33.513  16.578   3.334
12723W        W81086   0.389  35.076  10.495
12724W        W81087  31.585   4.839  11.978
12725W        W81088  27.091   7.344  12.526
12726W        W81089   0.483  24.605  13.026
12727W        W81090   2.263  25.554   4.122
12728W        W81091   4.710  29.072   9.985
12729W        W81092  44.866   8.707  11.475
12730W        W81093  18.271  13.650  13.443
12731W        W81094  20.122  12.192  11.098
12732W        W81095   4.443  41.362   0.786
12733W        W81096  37.971  12.161  14.369
12734W        W81097  36.392   2.930  10.484
12735W        W81098   4.735  29.959  12.476
12736W        W81099  29.003  30.138   2.836
12737W        W81100  29.634  35.883  11.019
12738W        W81101  10.373   6.735  11.487
12739W        W81102  12.687  31.548  14.893
12740W        W81103  39.998  13.330  14.793
12741W        W81104  24.619  41.038   4.342
12742W        W81105   2.452   2.873   0.342
12743W        W81106   1.976  23.138   4.146
12744W        W81107  37.493  16.615   9.945
12745W        W81108  41.986  27.965   2.780
12746W        W81109  25.218  44.767   4.230
12747W        W81110  42.941  31.495  11.087
12748W        W81111  19.553  32.501   3.706
12749W        W81112  41.496  35.891   4.214
12750W        W81113  40.005  27.546  10.418
12751W        W81114  32.578  42.000  11.006
12752W        W81115   9.227  42.025  13.858
12753W        W81116   8.704  29.618  14.853
12754W        W81117  39.515  28.128   4.161
12755W        W81118  13.780  13.698  12.883
12756W        W81119   4.896  19.263   3.694
12757W        W81120  35.888  39.036   0.891
12758W        W81121  40.401  27.464   4.828
12759W        W81122   1.471  33.532   2.327
12760W        W81123   0.981  28.632  11.964
12761W        W81124  10.374  38.821  12.456
12762W        W81125  24.221  12.619  14.842
12763W        W81126  37.880  30.938   4.287
12764W        W81127  41.795  29.515   4.250
12765W        W81128  42.831   9.842   2.746
12766W        W81129  27.949  11.819   0.796
12767W        W81130  22.097  19.054  10.948
12768W        W81131  41.880   2.942   3.631
12769W        W81132  24.217  10.210  12.997
12770W        W81133  18.608  10.181  10.481
12771W        W81134  27.501  42.817  12.492
12772W        W81135  15.238  43.835   2.819
12773W        W81136  29.495  20.201  13.536
12774W        W81137  23.658  33.975   3.289
12775W        W81138   2.910  42.807   1.404
12776W        W81139   1.313   1.425   3.179
12777W        W81140   1.920   0.366  14.428
12778W        W81141  29.144   3.258  11.604
12779W        W81142   7.881  40.446   0.802
12780W        W81143  32.553  32.108  10.900
12781W        W81144  43.425   3.334  10.154
12782W        W81145  23.615  38.369   0.424
12783W        W81146  12.692   5.248   3.242
12784W        W81147   6.875  35.506   4.323
12785W        W81148  11.303  16.295  10.538
12786W        W81149   4.942  17.301  11.911
12787W        W81150  13.278  35.927  14.995
12788W        W81151  21.617  26.190   1.364
12789W        W81152  36.843  37.891  14.861
12790W        W81153   2.886  10.722   3.152
12791W        W81154   6.700  30.580   3.634
12792W        W81155  26.999  42.427   2.849
12793W        W81156  30.113  28.045   4.621
12794W        W81157  28.080  26.149  13.879
12795W        W81158  25.062  34.569  12.975
12796W        W81159  29.532  12.775  12.391
12797W        W81160  37.899  13.259  11.999
12798W        W81161   6.315  12.159  13.791
12799W        W81162  19.720  21.042  11.587
12800W        W81163  25.588  34.027   4.293
12801W        W81164  33.078  15.724  11.388
12802W        W81165  26.120  19.273  12.568
12803W        W81166  14.111  17.143  10.988
12804W        W81167  11.133  40.968  13.516
12805W        W81168  23.214  10.686  12.996
12806W        W81169  32.891   9.270  13.353
12807W        W81170   8.888   0.782  13.351
12808W        W81171  19.258  43.282   5.234
12809W        W81172   7.196  30.448  12.440
12810W        W81173  32.040   4.397  13.795
12811W        W81174  22.181  18.194   0.890
12812W        W81175  39.330  40.492  12.927
12813W        W81176  41.812  24.139  13.417
12814W        W81177  24.141  33.498  13.402
12815W        W81178  23.689  29.996   0.948
12816W        W81179  34.405  18.730  10.498
12817W        W81180   9.669  20.089   1.887
12818W        W81181  43.975   4.314   0.353
12819W        W81182  30.939  30.087  10.141
12820W        W81183  33.078  20.557  10.436
12821W        W81184   4.280  44.862  10.140
12822W        W81185  21.131  35.488  14.000
12823W        W81186  43.811  14.126  14.957
12824W        W81187  28.576  20.222  10.588
12825W        W81188   2.828  37.060  11.380
12826W        W81189  33.422  32.618   1.354
12827W        W81190  32.488   6.410   0.410
12828W        W81191  23.664  19.759   1.722
12829W        W81192  34.601   1.766  13.845
12830W        W81193  42.857  24.654   3.642
12831W        W81194  27.988  42.848   1.304
12832W        W81195   1.410  38.006   2.192
12833W        W81196  17.798  34.560   3.755
12834W        W81197  14.288  33.933   4.185
12835W        W81198  44.841  44.496   4.232
12836W        W81199   2.910  12.286   0.967
12837W        W81200  10.227  37.457   3.745
12838W        W81201  39.377   5.831   0.835
12839W        W81202  26.541  16.297  13.949
12840W        W81203  44.419  29.950   0.856
12841W        W81204  37.353  30.629  10.917
12842W        W81205   3.433  38.003  11.433
12843W        W81206  27.689  21.131  11.515
12844W        W81207  41.436  21.057  11.930
12845W        W81208  32.416  17.131  12.836
12846W        W81209  42.791   5.863  14.809
12847W        W81210  30.955  42.884   2.380
12848W        W81211  22.713  42.002   4.638
12849W        W81212   0.981   5.707  10.447
12850W        W81213  27.092  23.528  12.543
12851W        W81214   0.370  13.318   4.196
12852W        W81215   5.232  29.066  13.856
12853W        W81216  12.358  28.499   4.310
12854W        W81217  27.669   5.210  12.837
12855W        W81218   8.193  40.337   3.711
12856W        W81219  14.792  35.047   1.391
12857W        W81220  34.578   1.784  14.448
12858W        W81221  27.087  25.527  11.485
12859W        W81222  43.393   9.302  13.393
12860W        W81223  41.988  34.487   0.825
12861W        W81224  14.126  32.419   0.754
12862W        W81225  31.499   7.408  14.763
12863W        W81226  27.178  17.633   2.415
12864W        W81227  18.545  37.577   5.096
12865W        W81228  27.978   0.898   2.863
12866W        W81229  10.856  32.080   3.757
12867W        W81230  34.065  17.094   1.210
12868W        W81231  10.724  21.233   4.115
12869W        W81232  44.290   3.235  11.555
12870W        W81233  31.980  10.291   2.197
12871W        W81234  34.117   6.297   2.775
12872W        W81235  21.042  41.892  14.966
12873W        W81236  27.633   4.384  13.520
12874W        W81237  12.826  39.950  13.976
12875W        W81238  24.210  39.959   0.344
12876W        W81239   6.231  32.008   1.274
12877W        W81240   7.359  21.207  13.391
12878W        W81241  13.813   5.390  12.485
12879W        W81242  21.693  23.561  12.867
12880W        W81243   3.808  37.076   1.935
12881W        W81244  28.527  21.124   2.365
12882W        W81245  33.431  27.102  14.837
12883W        W81246  27.975  15.222   1.416
12884W        W81247  34.914  42.378  12.400
12885W        W81248   5.282  38.004  12.890
12886W        W81249  12.259   0.942  10.464
12887W        W81250  23.158  14.141   3.831
12888W        W81251  17.723  22.662  11.021
12889W        W81252  40.347  17.705   3.822
12890W        W81253  22.146  35.913   3.816
12891W        W81254  38.851  36.034   1.896
12892W        W81255   4.226  18.566  11.442
12893W        W81256  13.214  34.113   2.688
12894W        W81257   4.927  23.720  13.493
12895W        W81258  27.058  31.427  13.891
12896W        W81259  21.588  23.217   1.376
12897W        W81260   3.379  20.563  12.361
12898W        W81261  40.451  10.283   2.681
12899W        W81262   4.767  10.260   4.148
12900W        W81263  12.781   8.253  14.988
12901W        W81264  11.769  15.696  13.954
12902W        W81265  44.851  22.124   0.856
12903W        W81266  31.982  26.130   1.785
12904W        W81267  18.734   1.247   4.723
12905W        W81268  17.120  41.837   4.276
12906W        W81269  18.067  42.335   1.827
12907W        W81270  30.457  24.043   0.946
12908W        W81271  40.549   8.255   4.813
12909W        W81272  41.879   5.366   0.884
12910W        W81273  36.844  22.645  11.448
12911W        W81274   4.929  28.646   4.323
12912W        W81275  10.286   6.763   1.913
12913W        W81276   2.303  36.503   0.788
12914W        W81277  29.516  10.378   1.253
12915W        W81278  41.500  31.435  14.019
12916W        W81279  15.720   0.366   0.290
12917W        W81280  29.125   8.257   1.698
12918W        W81281   7.181  44.294   0.243
12919W        W81282   3.301  26.079   3.799
12920W        W81283  36.934   2.956   0.844
12921W        W81284  26.986  44.502  14.455
12922W        W81285  16.298  38.438  10.956
12923W        W81286   1.735  10.660  12.482
12924W        W81287  18.789  36.377  11.386
12925W        W81288  43.876   9.368   3.265
12926W        W81289  22.737  43.950  13.879
12927W        W81290  25.539  29.497   1.224
12928W        W81291  35.438  43.441  12.485
12929W        W81292  24.193   3.417   1.922
12930W        W81293  22.621  33.015  11.013
12931W        W81294   4.313  41.018   3.818
12932W        W81295  10.676  28.555   1.759
12933W        W81296  21.044  23.081  10.538
12934W        W81297   9.662  41.307  13.914
12935W        W81298  19.714   0.916   4.632
12936W        W81299  31.536   5.864  11.095
12937W        W81300  17.269  31.096   1.924
12938W        W81301  31.582  30.071   2.252
12939W        W81302  43.485  17.130   3.842
12940W        W81303  23.492   4.369   1.768
12941W        W81304  26.488  34.407  14.349
12942W        W81305  38.974   6.383  14.948
12943W        W81306  42.871   3.353   3.709
12944W        W81307  16.614  22.194  13.028
12945W        W81308   9.321  33.399   4.652
12946W        W81309  30.954  44.835  12.024
12947W        W81310  11.228  18.150  14.397
12948W        W81311  14.650  42.884   0.417
12949W        W81312  37.922   7.893   2.740
12950W        W81313   1.734  39.887   2.854
12951W        W81314  40.822  30.475   2.193
12952W        W81315   6.372  22.084  11.495
12953W        W81316   9.160   7.286   5.197
12954W        W81317  14.282  42.837   3.360
12955W        W81318  37.336  42.334   2.415
12956W        W81319   4.405  36.565   1.373
12957W        W81320  12.191  28.480   0.887
12958W        W81321  15.288  36.875   3.259
12959W        W81322  26.550  40.342  11.869
12960W        W81323  23.692  41.883   0.360
12961W        W81324  39.446  36.018  12.010
12962W        W81325  17.562   9.298  13.010
12963W        W81326  43.870   3.302  10.457
12964W        W81327  16.316  43.915   3.268
12965W        W81328  10.240   8.859   2.696
12966W        W81329  37.526  13.836  10.559
12967W        W81330   5.240  28.974   4.146
12968W        W81331  30.493  29.455   3.370
12969W        W81332  29.435  16.223   0.442
12970W        W81333  10.633  36.963   4.349
12971W        W81334   5.267   0.467  14.933
12972W        W81335  33.561  37.349  10.601
12973W        W81336  36.454   8.166  14.329
12974W        W81337  31.020  39.993  14.031
12975W        W81338  38.383  31.096   1.211
12976W        W81339  11.218  21.173   0.967
12977W        W81340   9.290  43.005  10.958
12978W        W81341  31.926  37.889  14.759
12979W        W81342  23.687   7.840   0.323
12980W        W81343  40.848  39.412  12.070
12981W        W81344  19.715  23.650   1.742
12982W        W81345   9.787  21.066   2.355
12983W        W81346  37.891  35.878   1.303
12984W        W81347  42.431  35.438  10.589
12985W        W81348  25.619   8.881  13.837
12986W        W81349  32.440   0.366  14.339
12987W        W81350  14.823  15.221  12.459
12988W        W81351  22.581   6.367   1.837
12989W        W81352   3.947  21.091  13.343
12990W        W81353  34.907  13.130   0.252
12991W        W81354  39.379   6.793  14.992
12992W        W81355  11.249  24.222   4.304
12993W        W81356   5.240  37.891  13.844
12994W        W81357   5.913  14.747   1.718
12995W        W81358  28.562  20.175   2.196
12996W        W81359  30.914  30.084  13.017
12997W        W81360  23.622  40.352   4.219
12998W        W81361  41.961   1.319  14.331
12999W        W81362  11.640  27.672  12.345
13000W        W81363  18.717  13.257   1.834
13001W        W81364  42.896  44.480  14.366
13002W        W81365  35.005  30.104   4.122
13003W        W81366  31.035  43.884  10.474
13004W        W81367  28.674  29.073   3.671
13005W        W81368   2.435  23.595  14.807
13006W        W81369  25.112  22.528   1.764
13007W        W81370  15.179  12.199  10.541
13008W        W81371  42.828  22.237  14.846
13009W        W81372  16.216   7.173  13.500
13010W        W81373  34.050  32.995   3.272
13011W        W81374  21.645   0.946  10.918
13012W        W81375   9.811  36.092  13.469
13013W        W81376   1.977  19.698  14.378
13014W        W81377  40.809  17.589   2.805
13015W        W81378   9.372  37.034  12.901
13016W        W81379  33.092  41.463  12.531
13017W        W81380   5.926  21.216  11.494
13018W        W81381  42.477   1.379   4.621
13019W        W81382  40.439   2.865   2.864
13020W        W81383  38.897   8.214  13.541
13021W        W81384  32.994  15.313  12.038
13022W        W81385   2.450  25.666   0.334
13023W        W81386  15.792  33.961  12.873
13024W        W81387  34.109  43.865   9.985
13025W        W81388  26.613  41.901   4.728
13026W        W81389  10.306  18.779   0.925
13027W        W81390  35.089   7.315  10.147
13028W        W81391  36.369  26.595   4.750
13029W        W81392  12.358  15.801   4.208
13030W        W81393  10.876  44.360  11.384
13031W        W81394  13.789  19.201   4.636
13032W        W81395  18.050  29.043  13.981
13033W        W81396  39.550  12.269  10.129
13034W        W81397   6.922  40.369  11.974
13035W        W81398   9.653   5.387   0.827
13036W        W81399  20.221   2.392   2.708
13037W        W81400  38.454  36.555   0.456
13038W        W81401  41.964  36.955   0.819
13039W        W81402  23.185  23.584  13.487
13040W        W81403  39.920  28.458   2.391
13041W        W81404  36.510  20.200  13.800
13042W        W81405  30.962  14.696  13.355
13043W        W81406  37.342  34.912  14.884
13044W        W81407  11.163  31.542   1.445
13045W        W81408   0.364  31.013  11.569
13046W        W81409  34.917  35.937  11.958
13047W        W81410  13.845   6.271   2.355
13048W        W81411  21.178   3.713  10.574
13049W        W81412  25.659  16.649   4.173
13050W        W81413   9.697   3.845   1.747
13051W        W81414  41.894  17.158  14.023
13052W        W81415  24.606   5.289   4.197
13053W        W81416   8.878  15.616  13.922
13054W        W81417  27.468  10.152  14.915
13055W        W81418  29.134   4.880   2.350
13056W        W81419  26.953  24.507  11.560
13057W        W81420  32.579   6.311   2.743
13058W        W81421   5.931  40.903   0.265
13059W        W81422  34.895  26.079   1.737
13060W        W81423  38.537  14.614   2.866
13061W        W81424  27.180   6.818   3.763
13062W        W81425   4.429  43.808  12.013
13063W        W81426  18.606   8.715  14.806
13064W        W81427  12.757  44.933   4.671
13065W        W81428  29.981  28.499   4.649
13066W        W81429  30.437  30.509   3.276
13067W        W81430  44.338  34.904   1.815
13068W        W81431  33.526  37.864   3.717
13069W        W81432   7.342  26.166   3.700
13070W        W81433  27.075  27.961  12.933
13071W        W81434   9.273  34.372  12.925
13072W        W81435   3.382  12.721  13.498
13073W        W81436  20.113   7.710   5.181
13074W        W81437  19.741  28.555   2.785
13075W        W81438  37.513  20.044  12.524
13076W        W81439  32.009  44.499   0.863
13077W        W81440  14.753  40.003  14.927
13078W        W81441   7.413  17.660  14.353
13079W        W81442  20.533  18.120  11.536
13080W        W81443  15.659  19.174   5.731
13081W        W81444  35.371   5.691   3.371
13082W        W81445   8.300  12.671  13.513
13083W        W81446  38.556  35.095  12.842
13084W        W81447  41.909   3.752   2.297
13085W        W81448  35.597  41.370  10.618
13086W        W81449  34.874   2.723   2.396
13087W        W81450   7.255  12.806   2.207
13088W        W81451  44.829   1.457   0.338
13089W        W81452   0.393  38.850  12.350
13090W        W81453  39.857  43.961  11.079
13091W        W81454  44.496   5.744  13.501
13092W        W81455   6.182  18.549   5.267
13093W        W81456  20.710  19.707  12.416
13094W        W81457  36.537  43.898   3.272
13095W        W81458  17.615  14.112   1.890
13096W        W81459  11.373  37.879  14.922
13097W        W81460   9.788  31.037   2.690
13098W        W81461  25.072   6.197  10.600
13099W        W81462  37.372   1.477   0.738
13100W        W81463  16.606  31.458   0.873
13101W        W81464  24.664   1.841  13.905
13102W        W81465   4.317  27.647   3.696
13103W        W81466  44.002  10.163  10.559
13104W        W81467  12.717   9.221   2.709
13105W        W81468  38.354  43.877   2.263
13106W        W81469   7.216  28.486  11.070
13107W        W81470  27.151  27.630  10.637
13108W        W81471  25.160   9.204   4.261
13109W        W81472  22.071  30.162   3.697
13110W        W81473  21.688  15.727   4.783
13111W        W81474  23.578  39.906  14.350
13112W        W81475   0.747  40.898   1.708
13113W        W81476  23.658   3.291  13.358
13114W        W81477  41.332  34.018   4.634
13115W        W81478   2.737   1.349   1.370
13116W        W81479  40.438  34.900   5.224
13117W        W81480   1.448  25.188  14.386
13118W        W81481  39.880  30.914   0.814
13119W        W81482  14.763   5.736   3.257
13120W        W81483  38.853   4.878  12.035
13121W        W81484   3.396  40.440  12.092
13122W        W81485   4.372  23.000  14.921
13123W        W81486  13.205  27.679   0.912
13124W        W81487  18.706   9.164   3.794
13125W        W81488   9.183  30.521  14.338
13126W        W81489   8.237   8.818   1.897
13127W        W81490  23.240  19.087   3.180
13128W        W81491  19.567   3.911  13.372
13129W        W81492  25.004  31.112  12.534
13130W        W81493  37.997  38.498   4.227
13131W        W81494  28.564  29.621   1.706
13132W        W81495  30.087   9.835  14.982
13133W        W81496  25.092  31.997   2.346
13134W        W81497  30.050  38.390   4.657
13135W        W81498  35.557  10.347  11.608
13136W        W81499  37.481  24.991  11.391
13137W        W81500  10.634  44.850   3.215
13138W        W81501  40.881  11.771   4.640
13139W        W81502  27.120  10.706   3.381
13140W        W81503  28.571  43.770   4.236
13141W        W81504  25.076  39.316   3.646
13142W        W81505  31.144  30.597   3.803
13143W        W81506  23.589   4.931  13.801
13144W        W81507  14.686   8.872   0.354
13145W        W81508  18.565   2.785  14.405
13146W        W81509   4.290  11.640  11.521
13147W        W81510  28.628   1.824   0.255
13148W        W81511  12.817   5.709   5.619
13149W        W81512  36.990   3.365  13.519
13150W        W81513  13.222  40.001   0.355
13151W        W81514  38.909  32.428   3.266
13152W        W81515  42.382   8.165  11.002
13153W        W81516   7.896  24.522   4.688
13154W        W81517  43.982  17.271  10.584
13155W        W81518   7.358  23.562  10.887
13156W        W81519  30.006  18.167   1.694
13157W        W81520   3.776   2.729   0.408
13158W        W81521  30.487  24.585  10.539
13159W        W81522  23.546   2.251  14.839
13160W        W81523  10.879  27.600  13.516
13161W        W81524  32.920  13.842   3.789
13162W        W81525   1.733  15.320  11.431
13163W        W81526  21.095  18.207  11.418
13164W        W81527  16.114  19.641   1.899
13165W        W81528  21.512  15.773  11.381
13166W        W81529  24.015   2.240   4.650
13167W        W81530  19.613  26.601   1.393
13168W        W81531  30.598  12.843  13.980
13169W        W81532   6.872  43.991  14.932
13170W        W81533  10.210  37.452  13.977
13171W        W81534  12.156  25.703  11.558
13172W        W81535  43.772  13.259  12.520
13173W        W81536   6.237  35.037   4.251
13174W        W81537  36.016   5.866   2.235
13175W        W81538  19.700  35.503   0.408
13176W        W81539   5.708   2.730  13.056
13177W        W81540  40.916  19.099   0.292
13178W        W81541   1.752  26.103  13.882
13179W        W81542   8.234  18.725   4.807
13180W        W81543  28.562  43.458  14.898
13181W        W81544  27.519  14.115   0.777
13182W        W81545  22.241  38.012  11.912
13183W        W81546   2.901  34.514   4.324
13184W        W81547  11.371  30.029   2.898
13185W        W81548  32.395  27.615  12.369
13186W        W81549   1.377  44.304   4.643
13187W        W81550  43.319  23.622  13.887
13188W        W81551   5.867  31.943   2.841
13189W        W81552  41.855   0.477  12.002
13190W        W81553  20.552  19.665   1.294
13191W        W81554  23.548  36.418   1.767
13192W        W81555   8.311  43.270   4.791
13193W        W81556   0.266   9.241   2.692
13194W        W81557   8.298  39.434   1.885
13195W        W81558  42.776  13.297   0.930
13196W        W81559  27.573  32.634   1.261
13197W        W81560  28.177  13.605  12.023
13198W        W81561  33.006  20.153  11.117
13199W        W81562  18.241   2.738  12.023
13200W        W81563  13.217  31.447  12.918
13201W        W81564   1.242  18.558   1.898
13202W        W81565   8.385  27.509   0.251
13203W        W81566  33.419  25.517   4.831
13204W        W81567  37.078  24.656   0.819
13205W        W81568  41.855  22.155   4.203
13206W        W81569  32.458   9.702   3.159
13207W        W81570  20.058   0.479   4.782
13208W        W81571  29.604  28.540   3.240
13209W        W81572  16.579  31.578  10.904
13210W        W81573  36.981  34.939  12.996
13211W        W81574  22.526  30.007   3.174
13212W        W81575   7.191  27.535   4.761
13213W        W81576  38.443   7.201   0.809
13214W        W81577  24.031  28.554  13.988
13215W        W81578   8.701  31.146  14.303
13216W        W81579  44.911  24.110   4.318
13217W        W81580  41.297  13.289  14.911
13218W        W81581  16.687   7.291   1.342
13219W        W81582  28.098  24.219   4.179
13220W        W81583  29.944   2.374   4.242
13221W        W81584   6.262  19.653  12.833
13222W        W81585  27.502  12.706  11.504
13223W        W81586   4.240  13.220   2.303
13224W        W81587  40.941  21.576   2.812
13225W        W81588  42.514  27.985  10.638
13226W        W81589  42.822  43.476  12.825
13227W        W81590  35.020  15.602  14.361
13228W        W81591  42.775  43.806  12.911
13229W        W81592  18.587  41.825  12.015
13230W        W81593  40.318  31.499  14.876
13231W        W81594  27.174   3.873   1.232
13232W        W81595  14.774   8.729  10.042
13233W        W81596  38.955  34.039  11.495
13234W        W81597   2.828   7.260  10.521
13235W        W81598  43.342   5.789   4.213
13236W        W81599  20.570  43.500   0.254
13237W        W81600   4.419  41.921   4.738
13238W        W81601  16.127  40.915   2.325
13239W        W81602   4.447  10.847   0.296
13240W        W81603  26.116   4.287  13.047
13241W        W81604  29.438  33.527   0.277
13242W        W81605   2.432   4.794  12.965
13243W        W81606  43.780  14.225   3.788
13244W        W81607   1.959  38.411  14.868
13245W        W81608  13.754  43.849   0.333
13246W        W81609  34.863  21.140   3.252
13247W        W81610   7.241  29.081  13.832
13248W        W81611  11.193  16.777  12.980
13249W        W81612  44.396  40.909   1.426
13250W        W81613   9.380   3.450   3.198
13251W        W81614  44.493  38.070   5.242
13252W        W81615  23.566  18.701   3.682
13253W        W81616  21.212   2.799   3.679
13254W        W81617  18.743  44.775   5.290
13255W        W81618  18.196  40.465   1.276
13256W        W81619  23.584  44.336   1.359
13257W        W81620  22.063  29.584  11.612
13258W        W81621   2.323  37.364  10.150
13259W        W81622   5.724   6.273   0.254
13260W        W81623  17.794  32.514  14.496
13261W        W81624  38.555   6.276  12.434
13262W        W81625  21.181  11.359   2.720
13263W        W81626  35.513  32.547   0.453
13264W        W81627  14.170   6.409   9.493
13265W        W81628  42.376  11.853   2.204
13266W        W81629  18.591  26.004  11.451
13267W        W81630  40.031   9.170   0.880
13268W        W81631   5.759  17.165   4.324
13269W        W81632   2.917  26.065   3.742
13270W        W81633  14.263  24.613   0.818
13271W        W81634  12.717  43.277   4.282
13272W        W81635  30.055  13.341  13.824
13273W        W81636  40.393  29.647  13.006
13274W        W81637   3.721  41.393  11.478
13275W        W81638  31.113  16.262   0.928
13276W        W81639   6.919   1.840  11.937
13277W        W81640   1.338   0.795   5.213
13278W        W81641  20.542   9.751  12.341
13279W        W81642  23.225  38.561   2.680
13280W        W81643  17.153  28.610  13.852
13281W        W81644  17.574  13.179  14.440
13282W        W81645  36.376  44.439  13.988
13283W        W81646  36.362  43.355   3.772
13284W        W81647   5.762  12.838  12.828
13285W        W81648   1.956  19.720   2.719
13286W        W81649  24.130  34.029   1.338
13287W        W81650  32.002  29.927  11.380
13288W        W81651  37.522  26.642   2.790
13289W        W81652  27.519   8.292  11.936
13290W        W81653  35.360  24.591   3.299
13291W        W81654  12.765  20.270  12.915
13292W        W81655  26.175  31.604  14.291
13293W        W81656  38.343   9.707   1.845
13294W        W81657  23.199  17.631  11.968
13295W        W81658  29.463   8.226   4.712
13296W        W81659  10.658  11.689   1.398
13297W        W81660  31.593  17.691  10.963
13298W        W81661   7.196  11.168   0.354
13299W        W81662  38.025   0.750   0.792
13300W        W81663   5.717  15.698   1.776
13301W        W81664  41.809  26.108  12.034
13302W        W81665  13.664  40.513   4.830
13303W        W81666   3.818   1.470   9.948
13304W        W81667   0.249   5.425  13.800
13305W        W81668  29.639  14.314   5.300
13306W        W81669  39.504  17.149   1.847
13307W        W81670  23.233  25.185  14.854
13308W        W81671  33.587   1.437   2.865
13309W        W81672   6.332  27.140  12.029
13310W        W81673  44.827  26.974  10.929
13311W        W81674   3.338  20.682   0.945
13312W        W81675  11.660  31.129   0.950
13313W        W81676  28.603   3.321   5.108
13314W        W81677  23.687  30.943  11.467
13315W        W81678  43.784  38.525   5.231
13316W        W81679  13.801   9.755  14.816
13317W        W81680  20.167   4.744  11.864
13318W        W81681  21.599  30.461   4.838
13319W        W81682  31.124  16.084  12.987
13320W        W81683  40.371   1.861  13.406
13321W        W81684   8.769  34.439  14.936
13322W        W81685  16.722  36.018   0.475
13323W        W81686   8.403  19.116   0.431
13324W        W81687  11.710  17.066   2.416
13325W        W81688   9.869  32.950   1.282
13326W        W81689   6.199   8.766  12.928
13327W        W81690  36.493  29.937  14.415
13328W        W81691  40.512  19.688   4.234
13329W        W81692  34.580  21.136  12.459
13330W        W81693  29.589   7.323  11.512
13331W        W81694  13.253  37.851   3.858
13332W        W81695   2.339  35.579  11.508
13333W        W81696  40.484  39.902   2.837
13334W        W81697  31.491  37.416  13.790
13335W        W81698  18.760  10.316   0.787
13336W        W81699  18.725  43.382   1.914
13337W        W81700  29.144  44.890   3.852
13338W        W81701  23.017   9.373  11.419
13339W        W81702  44.448   9.711   4.674
13340W        W81703   0.934  41.021   0.940
13341W        W81704  20.579   2.930  13.320
13342W        W81705  41.296  38.374  11.407
13343W        W81706   8.269   6.360  12.368
13344W        W81707  25.131   5.926  12.411
13345W        W81708  20.085   5.782   3.870
13346W        W81709  22.503  33.473  13.541
13347W        W81710  10.714  17.671  13.532
13348W        W81711  16.312  35.587   0.726
13349W        W81712  18.070  39.441   2.751
13350W        W81713   1.251  41.475  11.934
13351W        W81714  39.400  29.476   4.164
13352W        W81715  37.543  16.229   2.700
13353W        W81716  44.963  26.603  14.811
13354W        W81717  22.175  35.403   0.779
13355W        W81718  36.355   7.390  14.805
13356W        W81719   4.751  32.486  11.507
13357W        W81720  19.582  37.396  14.769
13358W        W81721  15.791   7.361  10.949
13359W        W81722  21.516  43.278  12.971
13360W        W81723  26.189  37.898   3.299
13361W        W81724  36.946  41.027  12.427
13362W        W81725  21.215  19.262   0.441
13363W        W81726  41.900   9.218   4.756
13364W        W81727  21.523  13.256   0.317
13365W        W81728   5.379  36.587  13.511
13366W        W81729   6.349  13.784   4.292
13367W        W81730  22.509  25.567   4.726
13368W        W81731   3.406  19.259   4.350
13369W        W81732  40.004   1.287  10.608
13370W        W81733   0.455  23.040  10.141
13371W        W81734  15.583  28.077  14.294
13372W        W81735  19.213   0.274   2.312
13373W        W81736  12.215  36.884   4.836
13374W        W81737  39.933  35.945   3.304
13375W        W81738  12.724  21.708   4.639
13376W        W81739  17.121  42.477   3.353
13377W        W81740  30.549  21.195  11.419
13378W        W81741   8.177   6.784  10.550
13379W        W81742   3.289  11.215  13.355
13380W        W81743  24.659   7.689  12.011
13381W        W81744   9.207  34.038  11.469
13382W        W81745   8.820  12.672  14.008
13383W        W81746  27.030  29.560   2.311
13384W        W81747  39.053  34.596  12.028
13385W        W81748  41.834  34.386   4.310
13386W        W81749  23.716  13.349  13.442
13387W        W81750  15.319  41.896   4.262
13388W        W81751  12.753   9.294  13.866
13389W        W81752  23.016  30.418  13.043
13390W        W81753   2.725   7.830  11.990
13391W        W81754  39.516  37.849   1.337
13392W        W81755  21.204   8.167   0.365
13393W        W81756  13.231  23.140  10.900
13394W        W81757  31.464  10.326  12.020
13395W        W81758  17.585  44.947   4.180
13396W        W81759  25.663   1.259  14.443
13397W        W81760   8.700  25.137   2.209
13398W        W81761  13.779  15.654   4.125
13399W        W81762  18.210  25.053  13.957
13400W        W81763  17.185   0.917  11.508
13401W        W81764  18.570  37.553  11.541
13402W        W81765  41.978  11.646   4.308
13403W        W81766  44.474  12.775   5.185
13404W        W81767  21.666  11.355  10.432
13405W        W81768   8.669  14.222   4.652
13406W        W81769  29.564   6.861  10.551
13407W        W81770  30.992  23.496   2.876
13408W        W81771  20.206   0.405  12.937
13409W        W81772  31.062  28.441  10.030
13410W        W81773   5.728  20.167   3.258
13411W        W81774  34.467   1.776  12.499
13412W        W81775  32.589  43.430  12.493
13413W        W81776  11.127  39.474   3.324
13414W        W81777   3.236   2.720   1.751
13415W        W81778  10.729  43.478   1.361
13416W        W81779   3.337  34.607   1.911
13417W        W81780  28.435  34.037   1.860
13418W        W81781  43.370  20.683   0.888
13419W        W81782  17.618  23.719  12.049
13420W        W81783   0.391  43.424   3.285
13421W        W81784  28.051  26.088   1.795
13422W        W81785   4.701  25.620   3.738
13423W        W81786  22.723   3.424   5.094
13424W        W81787  35.068  22.190  13.998
13425W        W81788  43.507  24.526   4.161
13426W        W81789  34.532  28.639  10.528
13427W        W81790  15.274  19.543  13.848
13428W        W81791  23.527  13.297  12.382
13429W        W81792  22.094  36.022  14.370
13430W        W81793  19.221  43.900  13.536
13431W        W81794  17.683  43.826   9.982
13432W        W81795  29.602   0.270   2.209
13433W        W81796  22.136   4.369   1.297
13434W        W81797   4.708  27.995   2.850
13435W        W81798  43.856  34.900   0.896
13436W        W81799  21.578  13.349  11.007
13437W        W81800  36.359  37.370  11.035
13438W        W81801  14.669  37.574  14.430
13439W        W81802  18.258  29.539  13.985
13440W        W81803   6.812  39.918  11.599
13441W        W81804  37.432  44.011   3.867
13442W        W81805  25.522  35.475   3.832
13443W        W81806  28.505  43.481   4.772
13444W        W81807  22.238  21.091   4.755
13445W        W81808  16.639  38.444   1.326
13446W        W81809  37.443  29.031   0.927
13447W        W81810  26.066   4.380  10.947
13448W        W81811  40.840  17.232  14.870
13449W        W81812  22.583  22.504   0.432
13450W        W81813  20.653  16.205  11.477
13451W        W81814  27.118   2.341   3.635
13452W        W81815  17.210   7.730  14.469
13453W        W81816  17.292  26.571   5.265
13454W        W81817  34.971  12.663   4.659
13455W        W81818  27.489  42.283   2.249
13456W        W81819   3.265  30.080   1.923
13457W        W81820  16.644  30.055   1.223
13458W        W81821  25.969  37.548   0.853
13459W        W81822  18.107  26.508   9.972
13460W        W81823  23.092  11.624   2.820
13461W        W81824  14.593   7.830  10.982
13462W        W81825  12.323  32.896  13.426
13463W        W81826  34.005  38.444   4.212
13464W        W81827  15.766  29.052   5.107
13465W        W81828  35.395  11.295  13.354
13466W        W81829  36.969  29.931   1.851
13467W        W81830   9.828  30.622   1.218
13468W        W81831   3.450  27.597  10.422
13469W        W81832  38.863   0.416  10.638
13470W        W81833  24.175  40.883   0.407
13471W        W81834  21.054   6.678  13.905
13472W        W81835  33.402   3.910   1.256
13473W        W81836   0.296  11.216  14.390
13474W        W81837  29.925   8.361   1.903
13475W        W81838  19.670   5.805   4.134
13476W        W81839   6.394   3.780   1.272
13477W        W81840  16.220  40.496   2.283
13478W        W81841  28.996   0.962  13.006
13479W        W81842  26.152   5.714   4.309
13480W        W81843  19.572  17.152   0.456
13481W        W81844  11.138  18.681  14.457
13482W        W81845  42.848  12.669   0.752
13483W        W81846  12.189  10.717   0.766
13484W        W81847  14.122  43.020  12.935
13485W        W81848  15.636  43.392   2.788
13486W        W81849  14.102  16.799  11.036
13487W        W81850   6.421  27.001   4.143
13488W        W81851  27.553  42.436  13.813
13489W        W81852   0.765   9.228   4.300
13490W        W81853  29.592  32.889  13.989
13491W        W81854   3.855  14.119   5.322
13492W        W81855  32.030   9.367   2.740
13493W        W81856  44.410  22.153   2.759
13494W        W81857  44.935   2.879  13.373
13495W        W81858  19.167  14.716  11.069
13496W        W81859  23.717  35.523  14.952
13497W        W81860  32.038  37.009  12.478
13498W        W81861  39.966  28.932   1.926
13499W        W81862  26.694  12.660   0.769
13500W        W81863  29.014  39.457   3.726
13501W        W81864  43.010   6.366  10.951
13502W        W81865  35.387  43.796   2.325
13503W        W81866  12.212  32.503  14.903
13504W        W81867  11.373  20.255  12.880
13505W        W81868   9.339   9.221  14.458
13506W        W81869   1.474  13.659   3.651
13507W        W81870  22.652  13.747   2.267
13508W        W81871  26.967  41.481   1.694
13509W        W81872  33.021  43.354   4.345
13510W        W81873   9.667   1.842  13.961
13511W        W81874  24.179  34.382  11.896
13512W        W81875  43.501  37.431   4.290
13513W        W81876  15.217  44.497   0.770
13514W        W81877  16.692  39.501  13.357
13515W        W81878  34.919   3.288   4.249
13516W        W81879  11.302  28.153  12.437
13517W        W81880  42.436  43.502   1.834
13518W        W81881  23.226  33.100  13.816
13519W        W81882  20.055   2.255  14.971
13520W        W81883  39.870   0.881   0.313
13521W        W81884  17.208  32.925   0.482
13522W        W81885   5.913  15.227   2.734
13523W        W81886   6.235  24.132  10.986
13524W        W81887  18.124   2.329  14.428
13525W        W81888   7.838   8.207  14.424
13526W        W81889   7.283  10.174   4.813
13527W        W81890  17.655  26.102  14.991
13528W        W81891   3.376  40.414   3.384
13529W        W81892  41.296  25.986  11.857
13530W        W81893  42.513  24.501   2.683
13531W        W81894  33.964  21.600  14.999
13532W        W81895  30.017   3.271   3.291
13533W        W81896   9.813  26.056  11.470
13534W        W81897  40.814  32.934   1.845
13535W        W81898  27.118  16.139   0.450
13536W        W81899  39.047  20.209   3.242
13537W        W81900  24.559  36.039   2.787
13538W        W81901   6.881  14.682   4.192
13539W        W81902  31.946  19.234  11.858
13540W        W81903   0.288  23.995   0.927
13541W        W81904  37.916  13.340   5.176
13542W        W81905   6.293   6.205   2.331
13543W        W81906  43.399  40.998   3.156
13544W        W81907  21.201  28.035   0.291
13545W        W81908  44.422   2.351  12.958
13546W        W81909  37.361   5.787   2.239
13547W        W81910  19.634  33.957  14.319
13548W        W81911   6.245  17.642   1.392
13549W        W81912  32.989   5.809  11.502
13550W        W81913  40.470  23.001   0.387
13551W        W81914   2.237  13.723  10.948
13552W        W81915   1.242  30.471  10.934
13553W        W81916  36.472   4.314   0.374
13554W        W81917  43.826   4.818   0.450
13555W        W81918  28.650   9.839  12.511
13556W        W81919  17.120  14.211   0.426
13557W        W81920  26.133  34.412  12.342
13558W        W81921  22.146   9.706  14.335
13559W        W81922  44.907  15.740   0.266
13560W        W81923  21.597  24.596   0.907
13561W        W81924  31.099  23.202   3.723
13562W        W81925  12.679  35.098  11.450
13563W        W81926  18.281   5.727  11.916
13564W        W81927   2.336   0.972   2.840
13565W        W81928  42.335  22.085   3.713
13566W        W81929  28.483  30.056  13.943
13567W        W81930  20.243  29.175  12.964
13568W        W81931  42.946  19.241   2.331
13569W        W81932  17.223  26.556   1.845
13570W        W81933  31.446  42.953   1.713
13571W        W81934  39.964  38.880   4.790
13572W        W81935  36.993  13.686  14.419
13573W        W81936  31.126  21.541  14.009
13574W        W81937  15.712  14.208   4.620
13575W        W81938  15.752  30.572   0.409
13576W        W81939  22.570  39.001  14.900
13577W        W81940  28.068  30.164  12.026
13578W        W81941  34.404  27.525   0.831
13579W        W81942  37.567   2.343   3.365
13580W        W81943  26.608  26.498  12.040
13581W        W81944  31.543   7.737  14.787
13582W        W81945  42.844  26.105   0.403
13583W        W81946   8.737  13.171   2.281
13584W        W81947  42.854  29.583   3.316
13585W        W81948  22.665  34.614  12.344
13586W        W81949   2.944  42.527   4.182
13587W        W81950   9.745  13.255  14.779
13588W        W81951  35.994  17.290   4.807
13589W        W81952   7.267  29.106  13.428
13590W        W81953  38.382  44.798  12.901
13591W        W81954  38.883  27.125  14.371
13592W        W81955  18.587  36.379   3.768
13593W        W81956  40.464  41.354  12.523
13594W        W81957  44.476  37.500   0.289
13595W        W81958  29.581   7.858   1.757
13596W        W81959  36.496   9.862   1.408
13597W        W81960  35.440  21.576  13.005
13598W        W81961  35.399  17.657   4.268
13599W        W81962  17.696  21.169   2.772
13600W        W81963   6.226  22.724  12.540
13601W        W81964  29.572  28.170   9.641
13602W        W81965  34.003  40.970   3.335
13603W        W81966  42.906  23.090   4.117
13604W        W81967  39.459  37.085  11.914
13605W        W81968  29.592  15.804   2.227
13606W        W81969  21.163  44.008   4.122
13607W        W81970  37.945  31.445   0.965
13608W        W81971  20.536   7.286  10.562
13609W        W81972  19.269  44.459   5.793
13610W        W81973  32.029  38.473  10.007
13611W        W81974  22.083  29.451  14.786
13612W        W81975  38.421  35.885   4.219
13613W        W81976  22.033  35.527  14.885
13614W        W81977   5.363   8.163   2.821
13615W        W81978  23.615  42.945  14.513
13616W        W81979  30.493  26.126  10.577
13617W        W81980  27.183  14.611  14.330
13618W        W81981   4.448  35.380  14.507
13619W        W81982  34.438  33.079  12.408
13620W        W81983  26.074  36.589  11.979
13621W        W81984   7.677  43.914   0.741
13622W        W81985  28.462   2.823   1.888
13623W        W81986  10.839  19.194   0.891
13624W        W81987   5.261   2.377  11.558
13625W        W81988  39.361  31.517  10.493
13626W        W81989  34.090  38.383   0.318
13627W        W81990  39.968  30.595   3.807
13628W        W81991  28.592  23.230   1.712
13629W        W81992  23.218  22.179   0.316
13630W        W81993  26.591  25.186   0.792
13631W        W81994  29.098  12.700  12.989
13632W        W81995   7.383  26.523  13.805
13633W        W81996   9.715  10.278  13.467
13634W        W81997   6.218  43.451  13.375
13635W        W81998  29.934  41.382  10.417
13636W        W81999  18.188  10.667  13.926
13637W        W82000  31.542  26.174   0.474
13638W        W82001   3.426  25.975  13.451
13639W        W82002  20.272  12.184   1.929
13640W        W82003  36.876  35.056  14.846
13641W        W82004  15.288  24.179   2.291
13642W        W82005  18.710  18.197  14.015
13643W        W82006  22.060  42.828  10.600
13644W        W82007  21.059  41.923  13.800
13645W        W82008  38.958  14.687   1.400
13646W        W82009  10.844   0.904   3.706
13647W        W82010  24.058  24.643  12.573
13648W        W82011   3.723  44.469  12.478
13649W        W82012   0.826  35.414  13.902
13650W        W82013  32.960  26.671  12.436
13651W        W82014   3.778  13.844  10.553
13652W        W82015  15.619  19.709   1.271
13653W        W82016  24.663  32.929  14.791
13654W        W82017  23.575  40.323   1.375
13655W        W82018   0.426  22.718  10.407
13656W        W82019  36.857  31.987  10.546
13657W        W82020   7.356  24.692   3.185
13658W        W82021  16.717  15.807  11.385
13659W        W82022   0.276  15.630   0.903
13660W        W82023  37.950  12.307   1.262
13661W        W82024  21.125  32.935  14.357
13662W        W82025  33.398  11.645  14.973
13663W        W82026  20.060  43.805   4.753
13664W        W82027  10.647  12.615   4.250
13665W        W82028  27.684  24.512  11.420
13666W        W82029   8.291  41.458  10.426
13667W        W82030  20.257  40.536  10.484
13668W        W82031  30.489  19.728  14.489
13669W        W82032  34.004  28.048  13.022
13670W        W82033   9.657   7.341   4.129
13671W        W82034  21.684  39.387  10.960
13672W        W82035  40.420  12.354   1.826
13673W        W82036   9.341  23.165   1.360
13674W        W82037  12.659  27.058  14.469
13675W        W82038   1.417  26.543  11.968
13676W        W82039   5.388   8.742   0.375
13677W        W82040  30.466  35.036  14.468
13678W        W82041  36.484  31.609   0.400
13679W        W82042   4.856  24.623  14.828
13680W        W82043  12.199  43.428  10.907
13681W        W82044  18.653  28.138   0.901
13682W        W82045  35.873  35.873  13.502
13683W        W82046  43.355  15.808   2.374
13684W        W82047   2.238  24.519   9.538
13685W        W82048  27.492  23.233  11.569
13686W        W82049  19.094  30.529   0.265
13687W        W82050  40.390  16.711  12.490
13688W        W82051  31.417  15.658  11.599
13689W        W82052  30.062  15.611   1.918
13690W        W82053  38.378  10.638   3.767
13691W        W82054  34.867  10.367  12.007
13692W        W82055   9.751  30.142  14.813
13693W        W82056  19.746  24.522   4.265
13694W        W82057  36.472   3.380   3.294
13695W        W82058  42.994  20.677   0.330
13696W        W82059  30.637  40.051   0.460
13697W        W82060  42.340  39.525   4.730
13698W        W82061  26.685  32.555  10.983
13699W        W82062  11.825  39.883  12.438
13700W        W82063   5.277   0.262   5.192
13701W        W82064  27.992  20.581   2.276
13702W        W82065  38.987  33.913  12.375
13703W        W82066  27.971   6.300   2.383
13704W        W82067  13.776  12.134  13.917
13705W        W82068  16.697  16.164  10.586
13706W        W82069  18.677  18.682  11.403
13707W        W82070   5.327  12.197   4.800
13708W        W82071   0.843  32.395  12.000
13709W        W82072  41.039  13.215  13.526
13710W        W82073   5.405  44.985  14.844
13711W        W82074  16.199   0.387   4.324
13712W        W82075  41.470  26.099  12.381
13713W        W82076  14.768  16.664   3.708
13714W        W82077  39.981  35.011  11.037
13715W        W82078  12.323  42.346  11.417
13716W        W82079  27.465   3.784  10.618
13717W        W82080  26.977  22.576   2.724
13718W        W82081  42.349  19.167  11.500
13719W        W82082  24.187  10.698  14.513
13720W        W82083   4.324   9.820   4.768
13721W        W82084  42.348  29.064   3.292
13722W        W82085  44.978   3.919  14.932
13723W        W82086  32.103  36.459   4.703
13724W        W82087  24.565  30.641  13.856
13725W        W82088   6.742  35.928   4.698
13726W        W82089  39.993  21.516  11.426
13727W        W82090  10.709  14.626  12.071
13728W        W82091  11.188  37.482  10.115
13729W        W82092  29.450   6.297  12.483
13730W        W82093  25.053   3.408   2.402
13731W        W82094  23.595  33.464   0.940
13732W        W82095  27.544  34.934  13.951
13733W        W82096  22.178  11.189  11.927
13734W        W82097  10.162  14.173   1.722
13735W        W82098  24.494   7.809   4.598
13736W        W82099  20.162  43.999   5.619
13737W        W82100   4.366  32.911   2.780
13738W        W82101  23.672  13.289   3.269
13739W        W82102  11.757  22.540  12.360
13740W        W82103  34.886   6.313  13.842
13741W        W82104  33.973  31.151   0.748
13742W        W82105  38.399  39.402   0.777
13743W        W82106  40.353   9.187   0.958
13744W        W82107  23.195  25.682  14.008
13745W        W82108   9.268  42.327   2.378
13746W        W82109   6.266  31.560  11.411
13747W        W82110  16.573  33.945   1.714
13748W        W82111  24.498  43.003  11.881
13749W        W82112   8.326  35.097  14.292
13750W        W82113  27.119  23.229   1.313
13751W        W82114  13.733  23.098   4.230
13752W        W82115  43.477  44.282   3.865
13753W        W82116  28.461  44.326  12.506
13754W        W82117  41.984   1.295   4.162
13755W        W82118  14.818   8.346   1.424
13756W        W82119  21.725  26.000  12.532
13757W        W82120  42.961  26.157   3.309
13758W        W82121  22.520   4.916  14.913
13759W        W82122   9.215  40.318   0.434
13760W        W82123  13.227  41.946   4.251
13761W        W82124  15.722   1.838  10.126
13762W        W82125  32.603  19.047  13.336
13763W        W82126  18.733   5.811   3.212
13764W        W82127  22.210   4.760  14.909
13765W        W82128  11.213  20.642  14.933
13766W        W82129  15.320  23.166   1.934
13767W        W82130  13.689  23.206  11.554
13768W        W82131  33.957  24.003  10.132
13769W        W82132   1.765  15.199   1.275
13770W        W82133   0.308  20.653  13.999
13771W        W82134  14.202  24.213   0.342
13772W        W82135   3.312  43.984   0.408
13773W        W82136  31.418  16.589   3.796
13774W        W82137  29.554   7.194   4.828
13775W        W82138  19.673  14.143   2.340
13776W        W82139   9.878  24.493  11.938
13777W        W82140  43.018  43.381  13.956
13778W        W82141  35.973   1.798   0.830
13779W        W82142  34.927  32.074   0.953
13780W        W82143  32.604  20.611  11.447
13781W        W82144  43.510   5.413   4.679
13782W        W82145   3.460  30.035  11.891
13783W        W82146  24.699  32.550   4.316
13784W        W82147  37.497  40.034   1.734
13785W        W82148  11.644   7.798  10.152
13786W        W82149  15.812  20.551   4.252
13787W        W82150  34.552  19.113  12.504
13788W        W82151  33.983  41.854  14.469
13789W        W82152  10.240  31.056   4.804
13790W        W82153  40.323  38.345  14.973
13791W        W82154  28.463  17.644  11.578
13792W        W82155  37.858  41.492  12.540
13793W        W82156  40.443  33.547   4.299
13794W        W82157  42.797   6.845  12.991
13795W        W82158  40.041  31.114   1.775
13796W        W82159  13.227  43.932  12.353
13797W        W82160  40.979  35.877  14.767
13798W        W82161  12.823  26.123   1.274
13799W        W82162   0.334  20.215  12.521
13800W        W82163  40.403  12.807  12.831
13801W        W82164  23.988  25.561  14.818
13802W        W82165  16.592   4.711  14.339
13803W        W82166   5.316   9.885   1.384
13804W        W82167  44.832   0.845   0.346
13805W        W82168   8.897  15.167   4.169
13806W        W82169   6.188   8.264   9.972
13807W        W82170  38.894  20.123  11.892
13808W        W82171   1.301  11.312  12.355
13809W        W82172   7.724  26.686   0.914
13810W        W82173  40.821  40.957  12.546
13811W        W82174  26.958   6.689  11.989
13812W        W82175  29.542  20.586   0.436
13813W        W82176  42.318  20.199   2.707
13814W        W82177  38.952  43.435  13.512
13815W        W82178  14.277  43.862  13.417
13816W        W82179  30.570  22.650   0.858
13817W        W82180  19.118  11.775   2.394
13818W        W82181  38.863  28.942  11.982
13819W        W82182   7.212  25.193   0.322
13820W        W82183  19.684   4.739   2.261
13821W        W82184  19.693  43.298   2.380
13822W        W82185  25.575  29.581  14.446
13823W        W82186  41.387   9.153   5.320
13824W        W82187  14.263  23.585  11.856
13825W        W82188  16.716   5.422   0.345
13826W        W82189   5.398  23.016  11.488
13827W        W82190   7.412   7.704   3.296
13828W        W82191  24.643   1.931  12.387
13829W        W82192   1.901   6.237  14.492
13830W        W82193  12.831  36.956  13.809
13831W        W82194   3.836  12.318  11.002
13832W        W82195  22.530  16.774   2.331
13833W        W82196  11.735   9.381   2.405
13834W        W82197   8.668  15.712   4.763
13835W        W82198  21.119  32.519   2.288
13836W        W82199  28.568  43.409   3.735
13837W        W82200   6.323  12.362   1.376
13838W        W82201  40.903  40.940   2.862
13839W        W82202   9.338  39.025   1.445
13840W        W82203  29.936  17.264   1.364
13841W        W82204   3.256  13.823   0.397
13842W        W82205  26.492   4.386  12.564
13843W        W82206  13.735   7.417  14.497
13844W        W82207   5.805  17.245  14.868
13845W        W82208  34.423   1.318   4.734
13846W        W82209  24.196  23.523  10.467
13847W        W82210  11.786  30.151   1.768
13848W        W82211   0.319  42.869   3.720
13849W        W82212  23.705  29.451  14.443
13850W        W82213  40.438   0.417  14.442
13851W        W82214  41.501   3.452  12.468
13852W        W82215  39.543   3.229  14.970
13853W        W82216  17.599  19.105  13.856
13854W        W82217  44.778  17.100  12.351
13855W        W82218   1.760  33.906  13.449
13856W        W82219  20.570  33.917   4.123
13857W        W82220   5.291  35.097   1.763
13858W        W82221  42.301  37.027   1.318
13859W        W82222  17.266  14.821   3.791
13860W        W82223  39.547  35.931  10.546
13861W        W82224  14.724  13.786   4.662
13862W        W82225  18.228  26.008  11.579
13863W        W82226  30.592  32.000  12.541
13864W        W82227  22.617  32.598  14.488
13865W        W82228   9.812  33.434   1.439
13866W        W82229  18.291   1.898   1.881
13867W        W82230  38.851  37.526   0.330
13868W        W82231  20.054  35.383  12.916
13869W        W82232  25.510   9.169  12.840
13870W        W82233  13.351  37.348   3.858
13871W        W82234   0.852  31.601   3.845
13872W        W82235  17.190   5.436  14.289
13873W        W82236  32.084  18.631  13.948
13874W        W82237  16.643  31.481   3.355
13875W        W82238  33.386  12.813  14.488
13876W        W82239  17.248  33.112   1.306
13877W        W82240  10.671   9.167  12.070
13878W        W82241  44.352  26.463   1.300
13879W        W82242  14.670   5.262   2.358
13880W        W82243  18.648   2.786   0.352
13881W        W82244  12.142  13.114   0.284
13882W        W82245   4.823  25.149  14.976
13883W        W82246  23.136  21.087  14.760
13884W        W82247   3.734   0.793   5.597
13885W        W82248   2.925   8.260  10.520
13886W        W82249   9.847  44.902   2.771
13887W        W82250  12.309  37.574   4.690
13888W        W82251   6.872  28.612  10.608
13889W        W82252  39.467  44.387  10.424
13890W        W82253  42.872   6.870  11.524
13891W        W82254  33.490   8.291  10.525
13892W        W82255   3.885  21.715   4.751
13893W        W82256  13.270  44.499  14.444
13894W        W82257  17.223  26.185   2.187
13895W        W82258  31.054  34.080  13.892
13896W        W82259  44.767  33.510  10.151
13897W        W82260  21.254   3.836  14.877
13898W        W82261  44.492  40.399  11.972
13899W        W82262  28.088  19.177  11.477
13900W        W82263   6.741  19.279   4.785
13901W        W82264  13.210   2.956   0.308
13902W        W82265  30.058  10.354   4.331
13903W        W82266  25.627   9.709  11.915
13904W        W82267  17.775  24.644   1.695
13905W        W82268   5.432  32.579  14.353
13906W        W82269  30.416  28.588  10.598
13907W        W82270  29.623  42.859  10.569
13908W        W82271  20.585   0.270   0.943
13909W        W82272  44.349  12.231   0.870
13910W        W82273  15.096  27.183  11.608
13911W        W82274  42.476   1.805  13.822
13912W        W82275  12.360   3.956   2.892
13913W        W82276  12.128  22.090  14.971
13914W        W82277  31.436  43.826   1.326
13915W        W82278  35.518   8.338   0.852
13916W        W82279  25.101  37.043  10.994
13917W        W82280  34.076   5.902  10.497
13918W        W82281   6.721  11.138  13.460
13919W        W82282  20.625   2.392   4.614
13920W        W82283  10.756  41.032  11.454
13921W        W82284   0.447   5.225  14.277
13922W        W82285   5.314  15.670  14.309
13923W        W82286  22.733  15.162  12.509
13924W        W82287  14.785  17.289  14.377
13925W        W82288   7.899   1.241  12.552
13926W        W82289  17.138  28.019   5.162
13927W        W82290   0.336  10.804  10.987
13928W        W82291  23.604  10.634   1.218
13929W        W82292  28.106  28.076   0.922
13930W        W82293  17.273  32.495   3.706
13931W        W82294  29.031  14.324  12.353
13932W        W82295  20.693  31.134   0.446
13933W        W82296  20.575  16.176   0.909
13934W        W82297   3.843   8.202  10.598
13935W        W82298   3.833   8.813  12.882
13936W        W82299  28.123  10.686  10.504
13937W        W82300  32.565  36.496   2.183
13938W        W82301  43.876   6.302   1.405
13939W        W82302   2.737   3.422   4.770
13940W        W82303  20.237   4.906  10.933
13941W        W82304   2.866  25.195   3.241
13942W        W82305  31.907   5.866   9.924
13943W        W82306  23.031  16.152  13.484
13944W        W82307  29.170  36.535  12.392
13945W        W82308  35.954  29.645  12.017
13946W        W82309  27.650  27.480   1.823
13947W        W82310  10.184  37.892  13.896
13948W        W82311  25.488  19.623  14.413
13949W        W82312  33.893   5.737   4.646
13950W        W82313  22.623  17.661  12.999
13951W        W82314  36.368   2.470   3.190
13952W        W82315  36.851  23.571   2.892
13953W        W82316  28.108  40.900  12.459
13954W        W82317  40.534  41.018  12.884
13955W        W82318  38.536  39.815  13.457
13956W        W82319  17.690  12.178   4.202
13957W        W82320  29.974  42.856   0.767
13958W        W82321  44.814  39.809   4.297
13959W        W82322   2.328  33.942   1.926
13960W        W82323  38.962  14.107  14.497
13961W        W82324  35.894  37.487   1.735
13962W        W82325  15.655  18.705   3.256
13963W        W82326  15.200  16.158  11.383
13964W        W82327  36.860  29.090  14.412
13965W        W82328  16.749  30.611  11.555
13966W        W82329  42.921  44.334   1.931
13967W        W82330  37.505  22.041   3.738
13968W        W82331  21.630  28.564   1.694
13969W        W82332  24.595  35.410  14.909
13970W        W82333  17.741   5.307  14.977
13971W        W82334   1.923  23.235  14.770
13972W        W82335  23.506   1.931   0.252
13973W        W82336  11.312  10.204   1.863
13974W        W82337  24.975  13.725  13.865
13975W        W82338  12.216   6.360   1.351
13976W        W82339  21.690  41.520  10.977
13977W        W82340   2.785   2.376  13.482
13978W        W82341  32.606  37.037   1.800
13979W        W82342   4.321  28.981   2.765
13980W        W82343  21.722  29.006   4.290
13981W        W82344  35.903  20.166  11.090
13982W        W82345  31.614  33.939  13.936
13983W        W82346  17.608  17.238  11.077
13984W        W82347  44.917  37.861  12.978
13985W        W82348  10.669  34.069  14.341
13986W        W82349  11.672  44.470   1.734
13987W        W82350  22.194  41.491   1.798
13988W        W82351  43.502  31.903  13.004
13989W        W82352   3.295   5.835  14.026
13990W        W82353  33.591  34.536  14.031
13991W        W82354  11.706  26.175  10.620
13992W        W82355  38.426  33.562   3.252
13993W        W82356  15.171   3.746   1.336
13994W        W82357   4.770  24.021   4.702
13995W        W82358  40.998  20.604   1.862
13996W        W82359  29.094  32.142   3.252
13997W        W82360  29.635  33.508  13.469
13998W        W82361  10.251  21.735  12.928
13999W        W82362   2.429  16.168   0.275
14000W        W82363  43.378  13.822   2.872
14001W        W82364  28.953  44.469   2.311
14002W        W82365  25.988  10.820  12.918
14003W        W82366   0.304  16.276   3.218
14004W        W82367   2.742  39.552   4.154
14005W        W82368   8.786  24.559  14.419
14006W        W82369   7.198  23.498   3.199
14007W        W82370  41.863  11.321  12.932
14008W        W82371   3.428   9.727   4.305
14009W        W82372  39.521  44.947   1.428
14010W        W82373  16.134  36.482  12.892
14011W        W82374  12.682  38.356  13.859
14012W        W82375   7.746  41.356  11.509
14013W        W82376  39.893   7.280  13.849
14014W        W82377  43.895  32.395  11.450
14015W        W82378  10.175  42.958  11.372
14016W        W82379  23.599  20.652  13.513
14017W        W82380  15.198   5.841   0.823
14018W        W82381  15.664   9.713   0.795
14019W        W82382  35.525   3.740  12.959
14020W        W82383  36.953  10.215  12.505
14021W        W82384  25.103  27.084   3.361
14022W        W82385  40.341  26.064   3.662
14023W        W82386  16.622  37.547  14.346
14024W        W82387   8.862  10.733   0.316
14025W        W82388   1.750  20.160  14.289
14026W        W82389  44.928   4.409  11.052
14027W        W82390   5.217  25.119  14.501
14028W        W82391  30.067   8.730  14.276
14029W        W82392  31.617  18.763  10.423
14030W        W82393  20.540  13.685  13.875
14031W        W82394  11.858  10.642  11.855
14032W        W82395  19.099  24.598   0.910
14033W        W82396  24.584  12.184  11.478
14034W        W82397   4.438  42.891   4.762
14035W        W82398  32.568  37.987  12.393
14036W        W82399  32.073  23.552  10.635
14037W        W82400  33.046   1.949  12.889
14038W        W82401  34.522  38.383   1.373
14039W        W82402  40.913  20.111   0.250
14040W        W82403   7.678  19.041   0.933
14041W        W82404  24.511  15.327  11.006
14042W        W82405  13.302   8.816   4.600
14043W        W82406   8.262   1.958  11.597
14044W        W82407  38.042  26.566   1.787
14045W        W82408   5.294  19.555   5.102
14046W        W82409  31.610  32.091   1.798
14047W        W82410  19.628  32.586   2.712
14048W        W82411  31.546   2.460  10.608
14049W        W82412  37.404  10.734   5.766
14050W        W82413  36.955   4.930   0.255
14051W        W82414   2.283  25.160   4.676
14052W        W82415  23.651   6.386   4.354
14053W        W82416  21.726  26.178  11.468
14054W        W82417   9.379  18.139  14.851
14055W        W82418   6.838   8.402   2.313
14056W        W82419  34.402  31.637   3.743
14057W        W82420   7.350  18.055   1.796
14058W        W82421   3.266  14.682   2.705
14059W        W82422   1.931   7.694  11.905
14060W        W82423  24.190  10.173  14.474
14061W        W82424  25.618  19.256   1.764
14062W        W82425  25.060   7.399   9.947
14063W        W82426  33.989  44.977  12.927
14064W        W82427  32.565  25.574  11.919
14065W        W82428  39.499   8.285  14.962
14066W        W82429  27.085  37.983  14.971
14067W        W82430   7.389  39.976   1.240
14068W        W82431  31.024  32.602   4.332
14069W        W82432  38.445   2.234   3.804
14070W        W82433  44.003  27.980  13.897
14071W        W82434  21.537  14.668  13.008
14072W        W82435   0.417  16.575   0.367
14073W        W82436  14.205   4.211  11.973
14074W        W82437  20.551   1.843  11.129
14075W        W82438  43.407  44.457   1.929
14076W        W82439  27.040  18.290   0.461
14077W        W82440  29.625  14.697  11.548
14078W        W82441  21.171   0.469  13.816
14079W        W82442  20.138  26.691   1.824
14080W        W82443  29.648   9.168  13.434
14081W        W82444   5.803  21.734  10.432
14082W        W82445  28.154  12.722  14.944
14083W        W82446  44.468  42.782  12.006
14084W        W82447   5.397   7.874  11.467
14085W        W82448   9.234  38.985   3.182
14086W        W82449   2.458  19.637   0.370
14087W        W82450  15.093  14.663   1.923
14088W        W82451   4.792   9.786   1.376
14089W        W82452   4.446  10.161  10.461
14090W        W82453   8.745   3.435  11.492
14091W        W82454  36.847   7.759  10.966
14092W        W82455  43.431   0.982  14.355
14093W        W82456  16.683  12.246   2.824
14094W        W82457   2.766  24.585  10.915
14095W        W82458  43.905  16.730   3.300
14096W        W82459  19.163  29.158  14.901
14097W        W82460   6.786  33.532  12.017
14098W        W82461  35.359  17.569  14.407
14099W        W82462  11.212  10.318  13.833
14100W        W82463   6.808  19.541   2.801
14101W        W82464  21.569  41.939  13.487
14102W        W82465   8.679  31.405  12.014
14103W        W82466  22.518  27.467   1.434
14104W        W82467  29.984  36.918   2.678
14105W        W82468  11.273   2.839   4.763
14106W        W82469  19.142  35.556  11.092
14107W        W82470  16.225  17.076   4.171
14108W        W82471   5.424  17.082   4.752
14109W        W82472  10.288  22.670   1.701
14110W        W82473  29.611  41.354  12.914
14111W        W82474   3.233  43.953   3.750
14112W        W82475  17.120  44.996  10.601
14113W        W82476  32.547  36.012   4.187
14114W        W82477  29.956  39.470  14.475
14115W        W82478  39.875  18.584   2.852
14116W        W82479   0.802  43.313  12.423
14117W        W82480  24.082  12.159  10.470
14118W        W82481  19.734  15.687  11.606
14119W        W82482  29.425   1.909  13.498
14120W        W82483  44.324  39.396   2.836
14121W        W82484   4.274  32.547  14.274
14122W        W82485  24.226  18.754  14.443
14123W        W82486   4.231  39.316  12.344
14124W        W82487  44.768  20.537   4.210
14125W        W82488  35.539  20.189   1.871
14126W        W82489  43.013  21.034  13.904
14127W        W82490   1.405   6.218  13.841
14128W        W82491  43.357  15.618  14.467
14129W        W82492  44.777  33.009   0.780
14130W        W82493   5.229  34.899  11.909
14131W        W82494  14.653  16.134  10.895
14132W        W82495  37.020  41.999   1.290
14133W        W82496   2.347  11.757   3.631
14134W        W82497  43.414  29.630   4.718
14135W        W82498   5.915  32.994   1.729
14136W        W82499  24.674  32.518   3.687
14137W        W82500   2.843  43.864   2.749
14138W        W82501  32.441  39.484   1.308
14139W        W82502   5.369  13.722   2.840
14140W        W82503  27.948  10.289  13.045
14141W        W82504  11.632  39.987   9.964
14142W        W82505  41.462  36.584  14.418
14143W        W82506   0.795  24.532  14.445
14144W        W82507  34.944  34.494  11.079
14145W        W82508  30.465  21.218  12.896
14146W        W82509  38.067  25.539  13.525
14147W        W82510  24.045  27.469   1.853
14148W        W82511  30.047  14.130   1.277
14149W        W82512  16.187  10.153  10.950
14150W        W82513   4.310  39.975   4.640
14151W        W82514   1.434  14.210   5.179
14152W        W82515  26.200  44.777   2.194
14153W        W82516   1.787  25.972  14.496
14154W        W82517   8.166  43.900  12.924
14155W        W82518   8.773   2.409   3.702
14156W        W82519  34.068  39.970   1.802
14157W        W82520   0.367  22.628   4.734
14158W        W82521  13.822  32.568  14.017
14159W        W82522  18.268  36.486  12.555
14160W        W82523  22.740  32.423  12.573
14161W        W82524  18.666  15.137   1.353
14162W        W82525  41.934   6.257  11.126
14163W        W82526  21.563  41.423  10.494
14164W        W82527   7.300  40.530  12.945
14165W        W82528  43.975  22.136  12.992
14166W        W82529  18.256  23.673  12.866
14167W        W82530  28.021   8.284  14.812
14168W        W82531  31.629   9.654   2.896
14169W        W82532  32.952  26.662  13.359
14170W        W82533   7.211  15.739   3.739
14171W        W82534  21.085  41.440   4.777
14172W        W82535  11.644  17.716   3.801
14173W        W82536   5.303  44.928   5.307
14174W        W82537  30.951   6.192   1.918
14175W        W82538  16.779  16.129  11.472
14176W        W82539  29.967  28.960   0.354
14177W        W82540  13.771   6.331   2.864
14178W        W82541  12.753   6.875  11.051
14179W        W82542  42.831  15.273   0.735
14180W        W82543  43.275  35.975   1.751
14181W        W82544  44.488  35.409  11.078
14182W        W82545  34.609  24.113  10.406
14183W        W82546   4.879  40.984  13.924
14184W        W82547  33.404  32.019  13.801
14185W        W82548  39.966  28.140   0.282
14186W        W82549  41.869   7.675  12.880
14187W        W82550  23.093  42.798  12.343
14188W        W82551  29.549   5.702   1.326
14189W        W82552  16.159  11.847   2.382
14190W        W82553  33.921  41.960   4.173
14191W        W82554  41.362  40.543  12.047
14192W        W82555  33.027  35.368  12.544
14193W        W82556  34.908   2.761   4.311
14194W        W82557  33.555  15.766  12.344
14195W        W82558  27.543   7.849   3.739
14196W        W82559  32.996  28.960  11.936
14197W        W82560  28.096   9.863   0.934
14198W        W82561   5.402   1.338   4.806
14199W        W82562  26.667  40.031  12.894
14200W        W82563  20.113  19.066   4.788
14201W        W82564   8.865   5.241  14.768
14202W        W82565  42.398   1.402   1.839
14203W        W82566  33.970   7.374   3.346
14204W        W82567  40.396  26.107   2.386
14205W        W82568   3.341  16.776   4.804
14206W        W82569  40.530  44.822  11.066
14207W        W82570  20.215   0.442   3.367
14208W        W82571  44.498   4.910  12.043
14209W        W82572  24.215  43.282   2.198
14210W        W82573  33.027  44.793  10.644
14211W        W82574   4.227  13.703   4.753
14212W        W82575  34.925  23.136   1.794
14213W        W82576  31.534  22.150  13.429
14214W        W82577   6.725  23.155   3.683
14215W        W82578  16.075   7.886   2.875
14216W        W82579   6.785   0.271   0.795
14217W        W82580   8.348  17.790   2.790
14218W        W82581  30.474  35.420   0.860
14219W        W82582  22.636  35.485   3.666
14220W        W82583  34.011  15.618  10.941
14221W        W82584   1.750  11.227   4.288
14222W        W82585   7.207  44.819  10.936
14223W        W82586  31.922   4.223  14.919
14224W        W82587  12.791  17.710  14.476
14225W        W82588  42.981  14.307  12.938
14226W        W82589   9.870  36.940   2.718
14227W        W82590   6.310  40.989   3.834
14228W        W82591  36.979  25.997   1.904
14229W        W82592  19.678  43.479  14.828
14230W        W82593  10.677  35.563  12.433
14231W        W82594   7.207  42.482   4.260
14232W        W82595  12.353  10.683  12.341
14233W        W82596  13.174   8.773  10.534
14234W        W82597  33.940  37.881   3.296
14235W        W82598  12.634  23.044   2.262
14236W        W82599  18.213  17.071   2.382
14237W        W82600  32.529   7.682   4.168
14238W        W82601  12.836   4.409   3.847
14239W        W82602  38.471  26.047  13.793
14240W        W82603  16.276   8.316  10.910
14241W        W82604  42.289  29.944  14.827
14242W        W82605  41.376   4.721  12.507
14243W        W82606  37.975  24.183  13.539
14244W        W82607  41.365   8.860  11.495
14245W        W82608  19.694  13.611  12.459
14246W        W82609  19.101  22.549   2.831
14247W        W82610  20.731  23.681  14.761
14248W        W82611   4.805  29.488   3.866
14249W        W82612  33.472  33.949   0.842
14250W        W82613  17.197   5.354   2.851
14251W        W82614  23.124  29.046  11.578
14252W        W82615  39.933  33.538   4.753
14253W        W82616  43.014  12.778  13.996
14254W        W82617  28.530   3.335  13.484
14255W        W82618  37.438  21.716   4.318
14256W        W82619  24.532  42.973   4.768
14257W        W82620  14.148  25.000  13.802
14258W        W82621  11.754  34.552   0.456
14259W        W82622  27.617  29.663   0.401
14260W        W82623  37.379  32.569   4.297
14261W        W82624  12.652  24.154   2.224
14262W        W82625   1.913  44.929  13.051
14263W        W82626  35.960  31.084   4.325
14264W        W82627  11.260  15.650   2.244
14265W        W82628   2.378  22.670   3.783
14266W        W82629  23.060   5.697   4.203
14267W        W82630   5.733   4.380   2.737
14268W        W82631  28.066   5.714   2.419
14269W        W82632  25.125  44.893  12.854
14270W        W82633  37.336  19.777   4.795
14271W        W82634   6.247  18.151  14.384
14272W        W82635  36.448  29.428  11.006
14273W        W82636  34.912  44.402   3.832
14274W        W82637  39.556  28.585  12.360
14275W        W82638  24.630  28.148   1.708
14276W        W82639  16.194  26.132  13.879
14277W        W82640  35.017  41.461  13.476
14278W        W82641  19.585  20.214   1.875
14279W        W82642  13.779   0.843   4.240
14280W        W82643   1.922  39.853  13.009
14281W        W82644   6.219  40.386   0.430
14282W        W82645  20.248   0.814  13.905
14283W        W82646   6.286  23.629   4.640
14284W        W82647  35.870  37.472  13.055
14285W        W82648  32.006  27.194  14.011
14286W        W82649  33.094  32.503   3.629
14287W        W82650  20.576  22.517  10.494
14288W        W82651  28.472  25.661  13.436
14289W        W82652   9.737  21.132  13.498
14290W        W82653  17.642  13.229   4.222
14291W        W82654   4.797  40.018   3.326
14292W        W82655   3.338  41.349  14.831
14293W        W82656  43.515  15.786   3.333
14294W        W82657  39.002   6.848   4.646
14295W        W82658   3.805  23.701  13.338
14296W        W82659  30.069   5.860   1.710
14297W        W82660  23.072   9.832  13.799
14298W        W82661  18.573  43.312  11.049
14299W        W82662  12.846  43.432  12.468
14300W        W82663   7.385  16.581  10.628
14301W        W82664  18.732  31.414  13.444
14302W        W82665   0.972  34.869   3.204
14303W        W82666  32.932  36.406   2.336
14304W        W82667   8.168   9.337  14.280
14305W        W82668  13.614  31.962  13.792
14306W        W82669  40.026  42.985  10.912
14307W        W82670   4.943  36.092   2.190
14308W        W82671  39.365  26.100   2.724
14309W        W82672  27.449   0.855   1.843
14310W        W82673  28.996  36.039  14.985
14311W        W82674  19.626  31.986   4.163
14312W        W82675  15.657  22.249  10.071
14313W        W82676  42.993  14.629   1.429
14314W        W82677   5.695  30.987  11.604
14315W        W82678  35.064  11.738  13.910
14316W        W82679  21.113  43.905   0.900
14317W        W82680  30.029   7.356  14.947
14318W        W82681   3.937   3.778   4.153
14319W        W82682  42.448  26.574  13.993
14320W        W82683  38.406   5.863   0.388
14321W        W82684  24.092  44.462   4.602
14322W        W82685  17.286  23.668   4.637
14323W        W82686  13.276   5.428  13.448
14324W        W82687  15.087  31.542  14.976
14325W        W82688  19.204  23.003   2.808
14326W        W82689   9.187  32.635  13.997
14327W        W82690  14.151  16.691  13.421
14328W        W82691  37.932  36.583  10.633
14329W        W82692  32.631  25.515   2.266
14330W        W82693   9.325  31.979   3.258
14331W        W82694  13.352  10.767  12.960
14332W        W82695  29.590   8.806  10.557
14333W        W82696  36.922  40.017  13.798
14334W        W82697  25.468  23.556   4.781
14335W        W82698   9.240  44.338  10.066
14336W        W82699  22.683  14.100  10.630
14337W        W82700   1.342  35.073   3.652
14338W        W82701  37.888   3.447   4.325
14339W        W82702  20.083  23.688  10.568
14340W        W82703  14.254  33.563  10.615
14341W        W82704  41.306  42.809   3.304
14342W        W82705  35.926  19.154  13.493
14343W        W82706  32.095  23.720  14.404
14344W        W82707  23.631  30.591   2.705
14345W        W82708  37.954  32.033  14.287
14346W        W82709   9.289  16.705  12.387
14347W        W82710  40.895  11.692   2.401
14348W        W82711  22.638  44.772   0.351
14349W        W82712  44.461  37.455  11.096
14350W        W82713  16.126  25.210   2.751
14351W        W82714  13.647  26.183  13.483
14352W        W82715  26.186  22.093  14.315
14353W        W82716  13.612  11.188   3.826
14354W        W82717  24.070   0.864  14.826
14355W        W82718  43.787  30.152   0.479
14356W        W82719  35.578   4.264  13.824
14357W        W82720   3.805   7.790  11.014
14358W        W82721   6.297  44.294   3.822
14359W        W82722  10.285  26.176   3.282
14360W        W82723  15.587   3.345   1.249
14361W        W82724  41.874  39.440   0.934
14362W        W82725  21.262  32.535   1.403
14363W        W82726  13.266  38.852  11.898
14364W        W82727  12.691   3.898   1.848
14365W        W82728  36.902  41.484   0.456
14366W        W82729   8.344  41.871  10.610
14367W        W82730  37.512  43.844  11.111
14368W        W82731   9.748  38.469  14.332
14369W        W82732  35.375  12.220  13.945
14370W        W82733  27.670  33.880  11.612
14371W        W82734  43.975  20.113  12.863
14372W        W82735  28.172  42.352  10.599
14373W        W82736   1.343  26.478  12.967
14374W        W82737  15.248  14.247  14.867
14375W        W82738   7.212  10.381   0.333
14376W        W82739  36.033  31.461  14.897
14377W        W82740   3.849  29.129   4.158
14378W        W82741   1.875  11.659  12.974
14379W        W82742   3.943  30.463  14.356
14380W        W82743  20.215  34.504   1.391
14381W        W82744  21.676  21.705   1.867
14382W        W82745  23.593  25.560   4.611
14383W        W82746   3.931  21.612  10.570
14384W        W82747  30.565  23.090  10.434
14385W        W82748  34.116  13.141   1.696
14386W        W82749  15.199  12.808   1.272
14387W        W82750  25.974  19.144  10.935
14388W        W82751  38.428   8.247  11.404
14389W        W82752  40.460  11.277  14.426
14390W        W82753   9.174  29.018  14.433
14391W        W82754  38.412  19.652  14.981
14392W        W82755  44.442  31.050  12.562
14393W        W82756  31.151   1.836  12.078
14394W        W82757  13.817  15.326  14.467
14395W        W82758  16.712  40.367   2.876
14396W        W82759  12.214  14.748   1.739
14397W        W82760  25.546  14.309   1.307
14398W        W82761  37.830  12.117   3.365
14399W        W82762  16.072  42.457   4.219
14400W        W82763  38.465  31.479  12.928
14401W        W82764  38.552  39.065  12.943
14402W        W82765  31.020  30.034  10.548
14403W        W82766   4.448   0.818   4.230
14404W        W82767  31.409  17.196   2.258
14405W        W82768  18.612  16.778   1.721
14406W        W82769  37.922  38.821  14.777
14407W        W82770  20.264  18.074  10.978
14408W        W82771  22.995   5.283   4.322
14409W        W82772  39.324  26.062  11.514
14410W        W82773  23.611  44.878   0.753
14411W        W82774  13.743   8.391   4.322
14412W        W82775  35.570  22.542   4.256
14413W        W82776  28.645  25.542   0.308
14414W        W82777  18.705  24.041  13.959
14415W        W82778  36.997  22.623   2.189
14416W        W82779   2.347  32.892   0.426
14417W        W82780   3.406  16.213   2.215
14418W        W82781   8.847  23.195  13.395
14419W        W82782   8.289  20.527  13.966
14420W        W82783  43.375  25.643   4.172
14421W        W82784  30.593   8.794  11.519
14422W        W82785  20.617  20.745  14.282
14423W        W82786  36.049  32.391  10.427
14424W        W82787  28.482  19.236   2.775
14425W        W82788  26.073  17.785  10.424
14426W        W82789   7.279  17.166  12.374
14427W        W82790   4.802  37.423  10.416
14428W        W82791  14.588  43.504  13.329
14429W        W82792  13.830  32.504  14.833
14430W        W82793  40.303  30.104   3.799
14431W        W82794  19.620  11.190  11.098
14432W        W82795   1.388  33.492   1.770
14433W        W82796  16.261   2.795   0.909
14434W        W82797  10.695  21.706   0.457
14435W        W82798  18.192  15.178   4.139
14436W        W82799  41.402   3.347  11.490
14437W        W82800   0.924  41.847   1.324
14438W        W82801  23.583  21.657   0.868
14439W        W82802  24.722  23.512   2.250
14440W        W82803  21.149  29.067  13.882
14441W        W82804  25.581   1.973   2.808
14442W        W82805   7.254  35.504   0.435
14443W        W82806  18.640  41.371  14.503
14444W        W82807  30.972  36.984   3.867
14445W        W82808   3.952  13.171   4.195
14446W        W82809  39.993  10.720  13.891
14447W        W82810   3.856  12.752   3.186
14448W        W82811  21.168  10.639   1.321
14449W        W82812  24.687   5.437   1.817
14450W        W82813  29.640  33.926  12.020
14451W        W82814  27.625  15.207   1.695
14452W        W82815  28.522   2.965  13.983
14453W        W82816  11.834  28.611   0.332
14454W        W82817  36.036   8.319   3.372
14455W        W82818  29.536  35.937  13.819
14456W        W82819   2.902  43.907  13.885
14457W        W82820  41.316   8.379   1.410
14458W        W82821  44.388  20.545   5.216
14459W        W82822  33.915  11.261   3.233
14460W        W82823  30.954   5.841   2.294
14461W        W82824  14.219   4.211  13.505
14462W        W82825   0.432  37.541   5.098
14463W        W82826   1.975  44.413   1.734
14464W        W82827   8.755   6.233  10.570
14465W        W82828  35.554  38.384  13.417
14466W        W82829  16.204   1.812   1.742
14467W        W82830  18.546  10.276  12.375
14468W        W82831   8.718  41.387   0.837
14469W        W82832  10.710  22.566   2.414
14470W        W82833  19.599  29.471  13.792
14471W        W82834  27.185  16.308  11.389
14472W        W82835  14.206   3.218  10.911
14473W        W82836  43.920  13.264  14.446
14474W        W82837  22.021  36.381   0.871
14475W        W82838  15.812  42.983  12.442
14476W        W82839  13.111  22.688  10.053
14477W        W82840   0.393  20.269   1.831
14478W        W82841  38.846  20.177   2.804
14479W        W82842  21.178  37.536  12.364
14480W        W82843  14.646   1.338   3.262
14481W        W82844  12.163   5.209  12.446
14482W        W82845  16.624  31.582   4.319
14483W        W82846  29.024  30.613   4.764
14484W        W82847  16.118  28.012  14.444
14485W        W82848  30.531   8.778  12.046
14486W        W82849  19.631  38.869  11.489
14487W        W82850  39.402  41.378  14.931
14488W        W82851  34.613   2.339   3.684
14489W        W82852  36.914  17.656   4.659
14490W        W82853  43.828   9.363   1.847
14491W        W82854  23.120  16.665  13.917
14492W        W82855  35.561  31.141  11.381
14493W        W82856  18.787  42.838  14.345
14494W        W82857   8.229  15.139   1.700
14495W        W82858  25.059  27.093  11.077
14496W        W82859  24.497  33.423  11.966
14497W        W82860  23.085  20.539  12.834
14498W        W82861  35.100  21.101  12.478
14499W        W82862   1.803  35.077  13.357
14500W        W82863  28.657   0.334   3.632
14501W        W82864  31.013   8.776  10.924
14502W        W82865  36.841  44.474  12.499
14503W        W82866  22.641  24.037   3.747
14504W        W82867  17.230  41.413  12.013
14505W        W82868  43.814  38.398  13.520
14506W        W82869  36.550  21.196  13.846
14507W        W82870   0.393   0.822   3.196
14508W        W82871  38.003   7.199   2.806
14509W        W82872  15.243  44.005  12.018
14510W        W82873   0.402  19.664  14.935
14511W        W82874  26.527   3.321   0.951
14512W        W82875  18.762  28.534  14.926
14513W        W82876  22.157  10.866  13.333
14514W        W82877   2.246  26.976  12.524
14515W        W82878  16.652  28.522  14.935
14516W        W82879   7.331  30.535  13.350
14517W        W82880   7.709   5.917  14.994
14518W        W82881  27.118   8.682   4.195
14519W        W82882   2.353  43.971   1.418
14520W        W82883   9.666  14.119  14.439
14521W        W82884  40.904  41.455  13.401
14522W        W82885  41.324  14.801   4.124
14523W        W82886  10.150  22.249   3.298
14524W        W82887   6.704   3.306  12.460
14525W        W82888  10.796  10.666   2.332
14526W        W82889  32.997  21.720   2.373
14527W        W82890   2.779  27.142   3.762
14528W        W82891  24.090   5.700  12.003
14529W        W82892  44.005   4.825  14.295
14530W        W82893  31.119  10.276   1.449
14531W        W82894  39.940  16.711   3.649
14532W        W82895   7.765  32.555  12.920
14533W        W82896   2.898  15.112   0.837
14534W        W82897  24.498   5.891   2.899
14535W        W82898  11.665  42.483  10.891
14536W        W82899  43.947  33.881   0.752
14537W        W82900  21.614  29.003  10.613
14538W        W82901   8.833  19.567   3.663
14539W        W82902   4.403  25.115  11.541
14540W        W82903  14.319  43.804  12.548
14541W        W82904  43.935  11.225   2.221
14542W        W82905   4.240  35.047   4.152
14543W        W82906   5.909   1.877   4.603
14544W        W82907   4.334  42.897  10.889
14545W        W82908  22.556  18.134   1.889
14546W        W82909  33.095  27.083   4.609
14547W        W82910  37.558  25.084   3.768
14548W        W82911  19.258  24.082  10.438
14549W        W82912   5.315   0.880   1.694
14550W        W82913   1.926   0.863   4.300
14551W        W82914  38.510  23.237   3.717
14552W        W82915   2.904  26.158  13.877
14553W        W82916  42.294   1.436  12.580
14554W        W82917  37.538   5.416  13.316
14555W        W82918   9.367  23.531   2.201
14556W        W82919   9.293  15.227   1.933
14557W        W82920  27.032  32.017  10.411
14558W        W82921  15.098  10.676   0.389
14559W        W82922   7.798  38.374   0.835
14560W        W82923  25.149   1.872   2.870
14561W        W82924  30.423  21.593  12.443
14562W        W82925  30.415   9.163  13.018
14563W        W82926  14.337  35.000   2.331
14564W        W82927  42.489   7.392  13.408
14565W        W82928  19.252  28.652  10.957
14566W        W82929  37.951  30.964  14.470
14567W        W82930  27.598  10.743   2.748
14568W        W82931  37.835  34.968   3.802
14569W        W82932  22.056  19.167  13.908
14570W        W82933   8.314   6.701  14.282
14571W        W82934   7.759  33.894   1.450
14572W        W82935  37.567  15.629  10.143
14573W        W82936  18.091  34.417   1.299
14574W        W82937  34.386   9.695   4.342
14575W        W82938  14.726  40.912   0.440
14576W        W82939  26.483  44.440   3.691
14577W        W82940   1.952  14.320   0.309
14578W        W82941  41.479  28.102  14.297
14579W        W82942  39.337   8.364  13.876
14580W        W82943  44.350  33.494   1.860
14581W        W82944  24.012  15.672  13.025
14582W        W82945   9.795  23.139   4.122
14583W        W82946  32.506  35.905   1.886
14584W        W82947  18.077   9.242  12.892
14585W        W82948  31.978   3.381   1.317
14586W        W82949  37.043   6.191  13.792
14587W        W82950   0.783   6.824  12.955
14588W        W82951  43.853  44.961   3.786
14589W        W82952  20.063   3.853   3.348
14590W        W82953  35.474  20.078   2.180
14591W        W82954   4.945  21.672   5.313
14592W        W82955  24.632  29.477  14.779
14593W        W82956  10.869  30.083  11.530
14594W        W82957  37.064  43.837   0.953
14595W        W82958  30.637  38.049   0.779
14596W        W82959  16.671  34.439  12.923
14597W        W82960  23.515  21.541  14.430
14598W        W82961  28.156   3.378  13.029
14599W        W82962  22.521  26.692  11.473
14600W        W82963  17.233  13.236   2.792
14601W        W82964  18.234  41.531  14.499
14602W        W82965  31.406  43.002   5.088
14603W        W82966  17.158  21.078  14.449
14604W        W82967  29.576   3.247   9.961
14605W        W82968  34.596  17.599   4.821
14606W        W82969  15.329   2.420  12.569
14607W        W82970  37.965   4.824  13.535
14608W        W82971   0.915  42.302  13.500
14609W        W82972  31.085  21.590   1.288
14610W        W82973  31.639   8.668  14.460
14611W        W82974  34.517  36.394  12.988
14612W        W82975  38.538  11.754  14.790
14613W        W82976  14.762  37.972  14.460
14614W        W82977  38.868  18.104   1.841
14615W        W82978  41.912  39.896   3.362
14616W        W82979  25.590  27.496  14.904
14617W        W82980   8.226  34.526  13.398
14618W        W82981  38.333   5.433   4.224
14619W        W82982  19.047   9.880   2.684
14620W        W82983  28.017  34.053  11.990
14621W        W82984  28.661  18.768   2.669
14622W        W82985  26.076   2.761  12.345
14623W        W82986  26.474   7.254   2.333
14624W        W82987  37.896   2.391   0.469
14625W        W82988   1.480   6.818   4.626
14626W        W82989  28.497  31.986  10.503
14627W        W82990  15.688  19.706   4.816
14628W        W82991  41.880  36.062  14.447
14629W        W82992  26.461   8.204  14.817
14630W        W82993   3.285   9.267   2.233
14631W        W82994   7.691  24.498  13.397
14632W        W82995  13.200  40.432  11.942
14633W        W82996  43.895  26.544  11.856
14634W        W82997  11.682  12.770   0.461
14635W        W82998  30.004   0.396  13.488
14636W        W82999  29.488   6.691  14.390
14637W        W83000  38.834  33.091  10.476
14638W        W83001   3.397  29.140  10.419
14639W        W83002  43.356   6.808  14.001
14640W        W83003  33.619  43.905  11.441
14641W        W83004  33.970  44.362   5.090
14642W        W83005  16.234   6.224   0.429
14643W        W83006  40.954   3.429  13.344
14644W        W83007  28.614  40.321  12.848
14645W        W83008  40.355   8.698  12.954
14646W        W83009  19.156  28.176  10.508
14647W        W83010  25.493  35.995  12.451
14648W        W83011  41.987  19.735  14.765
14649W        W83012  33.447  11.292  13.800
14650W        W83013  39.428  22.679  13.858
14651W        W83014  15.157  16.645   1.757
14652W        W83015   9.802  33.117  10.531
14653W        W83016  38.024  25.506   4.146
14654W        W83017   3.391  44.925  13.909
14655W        W83018  19.171   4.388  11.969
14656W        W83019  28.503  27.502   3.375
14657W        W83020  12.195   8.256   0.729
14658W        W83021  16.724  25.216  10.965
14659W        W83022  34.523  31.646   2.678
14660W        W83023  30.963  11.310   1.858
14661W        W83024   6.720  27.525  14.324
14662W        W83025   7.250  27.135   2.791
14663W        W83026   2.371  32.100   3.795
14664W        W83027   5.845  20.584   4.257
14665W        W83028  22.672  28.164  14.807
14666W        W83029  26.626  29.443  12.412
14667W        W83030  44.355  41.001  10.136
14668W        W83031   0.428  28.553  11.411
14669W        W83032  25.160  23.104   4.259
14670W        W83033  11.856  32.489  10.407
14671W        W83034  21.054  40.840  14.383
14672W        W83035   7.722  30.999   2.718
14673W        W83036  23.666   8.755   1.811
14674W        W83037  10.201  20.742  14.852
14675W        W83038  34.382   6.206   3.252
14676W        W83039  13.623   0.824  13.381
14677W        W83040   9.748  36.493   2.306
14678W        W83041  22.211  17.288   4.325
14679W        W83042  40.315  36.419  14.788
14680W        W83043  42.394  39.528   2.413
14681W        W83044  21.173  44.456  14.886
14682W        W83045  35.041  12.801  11.408
14683W        W83046  28.953  31.648  14.914
14684W        W83047  19.249   5.271  10.520
14685W        W83048  11.730  18.583   3.154
14686W        W83049  39.901   6.250   4.739
14687W        W83050  37.043   9.300  13.827
14688W        W83051  23.528  36.428   3.355
14689W        W83052  17.284  25.531   1.902
14690W        W83053  37.465  21.079   1.710
14691W        W83054   6.242  34.577  13.473
14692W        W83055  20.738  44.784  12.369
14693W        W83056   0.435  42.797   2.261
14694W        W83057  26.958  43.375  12.475
14695W        W83058  32.443  36.921  12.917
14696W        W83059  36.438   3.863  13.964
14697W        W83060  24.186  16.594  11.583
14698W        W83061   1.385  32.991  11.505
14699W        W83062  14.670  41.477  14.023
14700W        W83063  11.270  13.718   3.384
14701W        W83064  14.607  17.284   0.956
14702W        W83065  18.598   7.706  13.434
14703W        W83066  34.585  25.996   0.429
14704W        W83067   1.815  35.406   3.639
14705W        W83068   7.675  31.444  11.579
14706W        W83069  29.145  24.000   1.255
14707W        W83070  22.146   4.379  10.479
14708W        W83071   9.249  26.980   2.381
14709W        W83072  22.195   3.799   2.777
14710W        W83073  16.613  18.753   3.256
14711W        W83074  22.595   9.355  11.509
14712W        W83075  10.669  37.881   2.871
14713W        W83076  39.532  24.671  12.073
14714W        W83077  36.998   6.815  10.545
14715W        W83078  38.425  12.156  13.953
14716W        W83079   7.276  29.655   0.274
14717W        W83080  33.060  13.276  10.578
14718W        W83081  44.976  35.099  14.876
14719W        W83082  10.316   5.815   3.341
14720W        W83083  30.453  33.892  12.875
14721W        W83084  22.171  26.485   0.772
14722W        W83085  23.229  27.518   1.323
14723W        W83086   3.339  31.125   3.275
14724W        W83087  30.064   8.365   1.437
14725W        W83088  41.856  16.800   0.450
14726W        W83089  23.050  14.679   4.735
14727W        W83090  19.252  32.453   4.638
14728W        W83091   3.405  35.953   0.279
14729W        W83092  22.567  25.485   0.410
14730W        W83093  41.466   4.703  10.576
14731W        W83094   5.297  16.623  10.908
14732W        W83095  12.353  42.328  10.512
14733W        W83096  33.922  36.910   0.328
14734W        W83097   1.285   9.342   2.378
14735W        W83098  36.524   4.858  13.473
14736W        W83099  28.102  12.189  11.569
14737W        W83100  16.211   2.274   4.748
14738W        W83101  14.614   8.805  12.916
14739W        W83102  35.979  11.719  10.626
14740W        W83103  14.657  28.130  12.543
14741W        W83104  18.114  18.083   3.693
14742W        W83105  31.451   8.190  13.370
14743W        W83106  22.170   0.986  13.045
14744W        W83107  29.631  38.457   2.349
14745W        W83108  25.504  35.365  14.950
14746W        W83109  15.708  24.019   4.621
14747W        W83110  24.193  15.744  10.023
14748W        W83111   3.794  14.165   3.869
14749W        W83112  30.465  22.735   4.613
14750W        W83113  37.354  15.138  11.474
14751W        W83114  32.421  43.825  14.855
14752W        W83115  44.813  23.184   3.821
14753W        W83116   7.700  18.247  14.992
14754W        W83117  13.204  40.427  13.505
14755W        W83118   7.337   9.713  12.867
14756W        W83119  29.581   8.656  14.880
14757W        W83120  13.603  33.020   0.352
14758W        W83121  19.710  19.172   4.224
14759W        W83122  39.005   8.824  11.598
14760W        W83123   6.270  38.344  12.966
14761W        W83124  41.328  35.369  12.388
14762W        W83125   6.397  39.050   1.361
14763W        W83126   4.747  31.563  13.500
14764W        W83127  37.052  19.720  12.536
14765W        W83128   1.807  19.185   1.249
14766W        W83129  15.807   3.843   5.624
14767W        W83130  41.031  18.269   2.801
14768W        W83131  42.317  43.896  13.395
14769W        W83132  10.875  21.120  12.577
14770W        W83133  12.822  27.636  11.577
14771W        W83134   0.836   3.277   3.158
14772W        W83135  12.193   0.967  10.942
14773W        W83136  25.590  34.989   4.197
14774W        W83137  40.896  16.668  10.991
14775W        W83138  43.448  40.906  11.998
14776W        W83139   0.350   6.331   0.947
14777W        W83140  36.498  37.079  10.517
14778W        W83141   4.227  16.763  11.081
14779W        W83142  14.326  11.342  12.443
14780W        W83143  44.006  25.585   4.122
14781W        W83144  41.904  16.271  11.932
14782W        W83145  27.672  24.502   0.771
14783W        W83146  36.486  37.341  12.898
14784W        W83147  12.305  19.775  12.912
14785W        W83148  37.409   6.354  12.947
14786W        W83149  17.261  35.866   2.306
14787W        W83150   4.846  19.659  13.852
14788W        W83151  20.239  19.767   4.204
14789W        W83152  41.038  37.529   2.218
14790W        W83153  33.445  17.710  11.577
14791W        W83154  12.177  13.667   2.824
14792W        W83155  17.300  16.584  10.432
14793W        W83156  13.838  31.552   1.729
14794W        W83157  43.381  11.367  13.355
14795W        W83158   8.718  32.008  14.813
14796W        W83159  20.525   1.951  13.441
14797W        W83160  16.123  12.775  14.394
14798W        W83161   7.727  27.563   2.801
14799W        W83162  43.391  44.366  11.894
14800W        W83163  23.584  15.804  12.424
14801W        W83164  16.293  36.444   2.219
14802W        W83165  35.925   3.802  12.517
14803W        W83166  37.468  20.534  11.914
14804W        W83167  44.993  40.396  13.043
14805W        W83168  34.467  14.101   0.747
14806W        W83169  15.689  34.514   1.294
14807W        W83170  42.833  27.091  10.936
14808W        W83171  34.056  33.927  11.377
14809W        W83172   8.368  30.110  11.079
14810W        W83173  21.617   8.668   0.936
14811W        W83174  40.546  20.206  12.344
14812W        W83175  35.919  15.179  12.046
14813W        W83176  31.038   1.364   4.629
14814W        W83177  36.448  42.357   4.706
14815W        W83178  32.114   8.271  11.478
14816W        W83179   0.449  19.064  12.518
14817W        W83180   5.691  31.904   3.333
14818W        W83181   1.919  18.677   1.368
14819W        W83182  34.032  18.153  11.545
14820W        W83183  38.872  22.560   1.363
14821W        W83184  17.247  21.251   1.277
14822W        W83185  30.461  44.844   3.338
14823W        W83186  38.933  14.316   2.278
14824W        W83187  29.558  25.055  11.500
14825W        W83188  14.326  36.850   2.361
14826W        W83189  34.914  17.262   9.980
14827W        W83190   2.740  37.461   4.805
14828W        W83191  39.347  18.714   2.372
14829W        W83192  10.187  32.402  12.555
14830W        W83193  28.150  39.904   1.803
14831W        W83194  44.940   3.720  11.551
14832W        W83195   0.425   5.776   3.699
14833W        W83196  22.520  11.834  14.861
14834W        W83197  33.007   3.343  10.565
14835W        W83198  36.543  25.519   0.796
14836W        W83199  22.179  31.990   0.323
14837W        W83200   9.357   5.696  13.975
14838W        W83201  33.114  38.381   4.227
14839W        W83202  34.462  43.285  13.480
14840W        W83203  38.501  35.580   2.740
14841W        W83204  38.493  28.504   3.775
14842W        W83205  23.552   7.809   4.632
14843W        W83206   2.769  10.812   0.358
14844W        W83207  11.808   9.697  10.910
14845W        W83208  39.438  42.904   0.966
14846W        W83209   4.253  30.597  12.365
14847W        W83210  22.544  25.107   0.280
14848W        W83211  27.126  35.857  12.930
14849W        W83212   2.310  43.011  12.052
14850W        W83213   2.740  13.628  14.984
14851W        W83214  43.287  35.531   0.255
14852W        W83215  42.280  31.967   3.347
14853W        W83216  23.571  11.659   1.243
14854W        W83217   6.887  29.539   3.308
14855W        W83218  18.567  31.978  13.434
14856W        W83219   0.391  30.481   3.384
14857W        W83220   3.431  32.564   4.612
14858W        W83221   7.311  39.382  14.368
14859W        W83222  24.590  28.510   4.688
14860W        W83223   6.870  22.613   4.124
14861W        W83224   0.977  27.013   0.916
14862W        W83225  15.301  37.373   0.732
14863W        W83226   8.659  21.671  13.929
14864W        W83227  28.930   7.203  10.958
14865W        W83228  11.646  24.620  10.495
14866W        W83229   4.286  31.925  11.433
14867W        W83230  22.040   4.237  14.831
14868W        W83231  43.450  42.862  14.378
14869W        W83232  36.847  36.023  11.048
14870W        W83233  39.898  43.000   4.786
14871W        W83234  23.133   5.247  11.863
14872W        W83235   8.808  21.023   4.784
14873W        W83236  37.047  39.413   4.743
14874W        W83237  34.876  43.980  12.524
14875W        W83238  37.976  37.347  13.463
14876W        W83239  21.059  39.908  13.957
14877W        W83240  13.156  40.438   3.285
14878W        W83241   5.915  31.999  10.995
14879W        W83242  15.655  21.748   0.945
14880W        W83243  34.454  32.027   2.810
14881W        W83244  43.311  44.352   2.316
14882W        W83245  40.051   2.737  14.393
14883W        W83246  11.676  37.036   3.740
14884W        W83247  39.486  38.954  12.986
14885W        W83248   6.882  18.775   3.743
14886W        W83249  10.204  15.315   1.323
14887W        W83250  41.927  21.635  11.014
14888W        W83251  33.914   2.932  12.414
14889W        W83252   1.819  20.048   1.762
14890W        W83253  16.568   8.353   0.817
14891W        W83254  34.523  33.403   1.740
14892W        W83255   5.783  21.733  14.795
14893W        W83256   2.858  12.725   0.813
14894W        W83257   6.247   9.376  11.024
14895W        W83258  28.146  38.029   9.993
14896W        W83259  34.482  13.759   2.742
14897W        W83260   7.855  30.658   1.697
14898W        W83261  25.988  12.325  12.879
14899W        W83262  40.907  37.864  14.309
14900W        W83263  27.111  10.359  14.390
14901W        W83264  32.513  22.734   2.307
14902W        W83265  21.600  44.879   2.815
14903W        W83266   5.425  37.388   0.750
14904W        W83267   0.948  17.583   1.271
14905W        W83268  31.576  20.212   1.331
14906W        W83269  29.107   5.722   4.282
14907W        W83270  23.605   6.741  12.059
14908W        W83271  10.242  41.796  13.974
14909W        W83272  10.844  30.529  14.347
14910W        W83273  17.067  36.987   4.312
14911W        W83274   5.320  31.531  12.832
14912W        W83275  31.599  29.444   0.831
14913W        W83276  38.893   2.923   2.677
14914W        W83277  24.646  40.036  13.046
14915W        W83278  39.419   9.722   0.951
14916W        W83279  33.929  11.653  11.892
14917W        W83280  41.804   6.709  10.425
14918W        W83281  30.055  14.725  14.363
14919W        W83282  22.652  14.156  11.063
14920W        W83283   3.949  34.940  13.311
14921W        W83284  15.236  32.109   1.302
14922W        W83285   5.319  11.719  12.427
14923W        W83286  15.674   4.248   2.898
14924W        W83287  17.616  44.304  10.124
14925W        W83288  24.993  16.746   4.253
14926W        W83289  13.232  12.815  12.474
14927W        W83290  32.429  31.095   4.299
14928W        W83291  26.128  32.056   3.851
14929W        W83292  21.030  42.805  14.819
14930W        W83293  15.298   8.703  11.510
14931W        W83294   9.312  30.552  13.889
14932W        W83295  42.338   5.885   2.705
14933W        W83296  26.003   1.955  13.820
14934W        W83297  19.078  30.157   2.836
14935W        W83298  34.491  35.998   1.909
14936W        W83299  37.484   0.416  11.958
14937W        W83300  44.326  25.040   3.371
14938W        W83301  21.210  23.568   2.820
14939W        W83302  37.012   0.761  11.103
14940W        W83303  13.624  16.242  14.423
14941W        W83304  42.945  12.172  12.913
14942W        W83305  44.814  35.576   0.397
14943W        W83306  37.846   7.397   3.214
14944W        W83307  23.515  40.904  11.900
14945W        W83308  37.492   8.212  12.430
14946W        W83309  35.013   4.723   0.796
14947W        W83310  10.354  26.073  12.905
14948W        W83311   6.304  36.883   4.192
14949W        W83312  27.071  15.269  12.580
14950W        W83313  25.615  42.820  12.469
14951W        W83314  30.623  25.177  11.555
14952W        W83315  22.709  36.917  14.848
14953W        W83316  13.714   0.299   3.373
14954W        W83317  18.091  37.384  12.482
14955W        W83318   0.750   5.810   1.265
14956W        W83319   3.912  37.023   2.794
14957W        W83320  32.559  13.305  11.372
14958W        W83321   5.311  29.535   1.747
14959W        W83322  18.067  26.023   0.363
14960W        W83323   2.243  39.880  12.945
14961W        W83324   1.284  44.863   3.870
14962W        W83325  32.012   5.239   3.775
14963W        W83326  11.734   0.923   4.664
14964W        W83327  27.181  10.651  11.871
14965W        W83328  19.260   5.919  12.388
14966W        W83329  42.306  21.699  11.856
14967W        W83330  41.789   9.221  11.887
14968W        W83331  33.055  37.945  10.910
14969W        W83332  14.298  35.989   0.764
14970W        W83333   8.806  12.163  11.998
14971W        W83334  23.080  30.138   2.771
14972W        W83335   4.310  42.785  12.995
14973W        W83336  43.490  34.968   4.188
14974W        W83337   5.278  10.842  10.596
14975W        W83338  19.125   3.951  13.350
14976W        W83339  34.551   0.385  11.607
14977W        W83340  22.611  15.690   4.304
14978W        W83341  30.983  36.349  10.411
14979W        W83342  44.779   2.303  12.020
14980W        W83343  16.702  25.109   3.380
14981W        W83344  25.990  43.359   0.247
14982W        W83345  11.173  40.861   2.354
14983W        W83346  16.196  36.845   2.713
14984W        W83347  29.111  41.043   0.263
14985W        W83348   9.813  41.942  10.958
14986W        W83349  39.495  26.078   4.123
14987W        W83350  33.455  23.620   1.222
14988W        W83351  34.609  33.959   1.812
14989W        W83352  42.508  33.929   3.346
14990W        W83353  35.021  32.110  12.936
14991W        W83354   0.426  35.523   5.202
14992W        W83355  30.915  10.817   3.759
14993W        W83356  26.670  42.474  13.989
14994W        W83357  41.295  20.247  13.840
14995W        W83358  18.278  30.946  13.335
14996W        W83359  21.247  25.975   4.210
14997W        W83360   2.298  14.737   0.481
14998W        W83361  33.040  31.620  14.430
14999W        W83362  10.276  37.924  14.424
15000W        W83363   6.193  41.313   0.480
15001W        W83364  35.982  26.658   2.848
15002W        W83365  34.952  23.609   4.197
15003W        W83366   7.399   5.791  14.812
15004W        W83367  23.735  33.968  13.358
15005W        W83368  25.578  34.570   0.424
15006W        W83369   7.774  33.020  11.391
15007W        W83370   3.296  13.796   4.221
15008W        W83371  11.333  43.875   2.381
15009W        W83372   8.351  40.371   2.680
15010W        W83373  20.118   7.364   4.766
15011W        W83374  34.387  32.622   0.881
15012W        W83375  16.110  15.288   5.686
15013W        W83376  25.107  18.626  12.576
15014W        W83377  11.669   5.789   2.759
15015W        W83378  29.919   2.347  13.927
15016W        W83379  24.086  28.991  10.991
15017W        W83380   8.716  26.489  11.997
15018W        W83381   0.771  39.548  14.439
15019W        W83382  24.505  42.323  11.405
15020W        W83383  39.957  35.438  11.861
15021W        W83384  31.526  35.029  11.472
15022W        W83385  21.148  41.422  12.897
15023W        W83386  28.035   0.863   2.281
15024W        W83387  34.974  25.084   4.757
15025W        W83388  33.938  12.194   0.387
15026W        W83389  35.409  38.934  12.407
15027W        W83390  41.465  32.089  10.954
15028W        W83391  43.015  13.172   4.158
15029W        W83392   5.800   6.183  10.943
15030W        W83393  25.638  36.026   2.754
15031W        W83394   0.981  39.380   1.860
15032W        W83395  31.563   8.384  11.987
15033W        W83396  38.444  21.142   1.742
15034W        W83397  11.676  39.987  12.931
15035W        W83398  27.986  15.629  14.917
15036W        W83399   6.210  30.620  10.441
15037W        W83400  22.502   3.303   4.227
15038W        W83401  16.703  22.692  13.845
15039W        W83402  41.976  25.164   1.449
15040W        W83403  11.694  15.193  11.029
15041W        W83404  40.868  11.239  14.987
15042W        W83405  35.512  10.646   0.935
15043W        W83406  35.457  38.937   4.350
15044W        W83407   2.943  42.832   1.763
15045W        W83408   5.209  11.863   4.309
15046W        W83409   3.264   4.827   4.139
15047W        W83410  27.005  18.584   4.330
15048W        W83411  25.184  20.618   4.307
15049W        W83412   5.797  22.723   0.912
15050W        W83413  32.605  16.148  14.966
15051W        W83414   6.191  14.308  14.445
15052W        W83415  10.342  18.571   2.246
15053W        W83416  39.528  16.268  10.561
15054W        W83417  43.304  28.159   4.138
15055W        W83418  38.435  25.652   1.821
15056W        W83419   0.379  39.447   3.808
15057W        W83420  42.438   3.225  11.909
15058W        W83421   1.259   0.934   0.348
15059W        W83422  34.090  39.379  12.487
15060W        W83423  10.690   0.380   2.392
15061W        W83424  29.541   3.736   0.429
15062W        W83425  10.184   0.334   9.987
15063W        W83426  11.779  26.583   3.313
15064W        W83427  14.138  26.967  11.397
15065W        W83428  39.428   6.271  10.142
15066W        W83429  24.059  28.167   0.428
15067W        W83430   3.880  11.795   2.726
15068W        W83431  14.801  23.546  14.352
15069W        W83432   1.874  30.425   3.629
15070W        W83433  11.673  19.565   2.669
15071W        W83434  27.050  32.498   1.253
15072W        W83435  38.838  16.693   4.763
15073W        W83436  41.361  40.349  13.792
15074W        W83437   5.404  14.201  14.988
15075W        W83438  43.442  22.235   0.252
15076W        W83439  12.708  29.520  14.781
15077W        W83440   9.852  11.702   0.438
15078W        W83441  26.035   6.829   1.726
15079W        W83442   2.461   6.692  11.051
15080W        W83443  15.304   2.264   3.314
15081W        W83444   7.363  26.026   0.740
15082W        W83445   4.886  10.876  14.340
15083W        W83446  18.593  37.969   1.377
15084W        W83447  44.471   6.820   2.288
15085W        W83448  42.956   4.227   4.202
15086W        W83449  20.108  27.147  14.978
15087W        W83450  36.930  43.370  11.966
15088W        W83451  42.857  10.154   3.738
15089W        W83452  30.965  17.214   4.251
15090W        W83453  34.471   7.759   1.363
15091W        W83454  15.734  44.917  14.282
15092W        W83455   3.956  40.937   4.630
15093W        W83456   6.420  40.849   2.229
15094W        W83457  29.172  43.430  13.984
15095W        W83458  26.538  41.430   0.248
15096W        W83459  32.548  29.066   4.696
15097W        W83460  32.498  33.574  13.916
15098W        W83461  22.242   5.728   3.231
15099W        W83462   6.869  43.481  14.978
15100W        W83463   5.271  32.602   1.776
15101W        W83464  27.040   9.712   4.311
15102W        W83465   4.314  24.064   2.268
15103W        W83466  41.319  40.006   3.299
15104W        W83467  34.910   6.242  12.979
15105W        W83468  20.209  42.879   4.181
15106W        W83469  20.108  37.337   2.327
15107W        W83470  33.505  37.492  11.956
15108W        W83471  27.965  43.878   4.838
15109W        W83472  33.407  21.159  12.343
15110W        W83473  36.508  28.005   2.295
15111W        W83474   6.749  27.179   3.307
15112W        W83475   3.391   2.759   3.661
15113W        W83476  23.216  16.255   0.278
15114W        W83477   1.369  36.406  12.546
15115W        W83478  25.612  31.147  11.566
15116W        W83479  21.545  29.931  11.434
15117W        W83480  34.608   9.679   1.278
15118W        W83481  23.498  18.637  12.527
15119W        W83482  30.448  29.022   0.842
15120W        W83483   5.260  37.350   4.768
15121W        W83484   8.726  44.985   0.859
15122W        W83485   9.764  35.066   2.398
15123W        W83486  35.369  27.489   0.788
15124W        W83487  27.672  12.772  11.035
15125W        W83488  44.331  20.613  11.417
15126W        W83489   7.904  14.663  10.976
15127W        W83490   6.786   6.873  10.983
15128W        W83491  25.648  10.705   2.288
15129W        W83492   4.405   8.824   1.735
15130W        W83493  39.953  20.757   1.337
15131W        W83494  43.853  40.321  11.898
15132W        W83495  19.203   2.935  11.583
15133W        W83496  42.428  16.730   2.779
15134W        W83497  11.843  22.692  14.377
15135W        W83498  18.559  17.727   2.672
15136W        W83499  10.187  22.560   5.277
15137W        W83500  42.967   6.851   2.675
15138W        W83501  43.398  25.097  12.539
15139W        W83502  15.600  33.474   3.211
15140W        W83503  14.224   9.321   0.820
15141W        W83504  39.063  25.139   2.852
15142W        W83505  21.639   8.675   4.152
15143W        W83506  11.686  26.702   0.877
15144W        W83507  44.846  39.051  13.795
15145W        W83508  33.557   3.319   1.935
15146W        W83509  39.007  30.413   0.457
15147W        W83510   0.393   9.825   0.367
15148W        W83511   1.372  29.518   2.665
15149W        W83512  42.474  36.587  11.031
15150W        W83513  33.990   4.778   2.781
15151W        W83514  38.028  28.647   4.126
15152W        W83515  25.970  38.450  14.018
15153W        W83516  32.469   1.452   4.713
15154W        W83517  12.187  27.053   1.279
15155W        W83518  19.655  42.803  12.446
15156W        W83519  11.722  27.063   3.845
15157W        W83520  35.061   1.397   0.829
15158W        W83521   4.405  15.774   2.374
15159W        W83522  25.510  30.165  13.510
15160W        W83523  24.616  19.202   4.701
15161W        W83524  27.587  26.662  12.045
15162W        W83525  16.597  29.144   4.303
15163W        W83526  42.342  21.177  14.444
15164W        W83527  29.960  22.216  11.869
15165W        W83528  33.413  44.502   2.225
15166W        W83529  23.506  42.297  10.546
15167W        W83530  17.785  43.403   5.311
15168W        W83531  18.619  23.615   2.773
15169W        W83532  42.503  35.459  14.763
15170W        W83533  12.362  41.872   2.415
15171W        W83534  25.118  20.066  11.124
15172W        W83535   7.678  44.498   5.114
15173W        W83536  30.607   4.776   2.256
15174W        W83537  18.595  19.575  10.118
15175W        W83538  18.142  27.036  13.339
15176W        W83539   1.931  13.730  14.921
15177W        W83540   2.760  42.012  12.045
15178W        W83541  10.733   9.278  13.349
15179W        W83542  24.555   6.216  10.950
15180W        W83543  22.697   7.269  14.001
15181W        W83544  17.672  26.101  12.937
15182W        W83545  22.089  21.560   3.633
15183W        W83546   9.645  12.703   4.166
15184W        W83547  21.078  17.725  14.999
15185W        W83548   3.822  18.775  11.428
15186W        W83549   1.858  36.000  14.835
15187W        W83550  34.105  36.584  13.055
15188W        W83551  32.025   6.703  12.891
15189W        W83552  17.698   7.318   2.719
15190W        W83553  26.640  44.304   5.152
15191W        W83554  35.924  17.767  12.834
15192W        W83555  17.153   8.172   2.304
15193W        W83556  35.047  30.639  12.488
15194W        W83557  23.147   0.767  13.838
15195W        W83558  32.483  24.487   4.690
15196W        W83559  19.196  38.432  12.429
15197W        W83560  25.589  27.979   4.736
15198W        W83561  26.609  43.932   2.310
15199W        W83562  37.956  28.105  11.989
15200W        W83563   7.182  30.911   2.414
15201W        W83564  42.379  21.699   0.828
15202W        W83565  10.340  33.117   3.642
15203W        W83566  22.732  29.136  13.954
15204W        W83567  17.622  15.305   4.221
15205W        W83568  14.662  40.919   2.261
15206W        W83569   3.731  23.064   3.827
15207W        W83570  10.327  34.475   1.237
15208W        W83571  35.369   7.766  12.097
15209W        W83572  32.436  37.899   3.371
15210W        W83573  30.474  31.151  11.533
15211W        W83574   7.692   0.840   0.732
15212W        W83575  16.735  43.308   2.722
15213W        W83576  18.079  38.526   4.294
15214W        W83577  18.605  44.783  10.124
15215W        W83578  42.882  43.892   4.723
15216W        W83579  44.982  38.451   9.560
15217W        W83580   2.372  40.852   2.691
15218W        W83581  21.023  30.007   2.778
15219W        W83582   4.798  40.840   4.814
15220W        W83583  18.625  31.908  14.808
15221W        W83584  13.147  27.048   1.741
15222W        W83585  28.992  39.843  12.366
15223W        W83586  44.408   4.353  14.946
15224W        W83587   8.783   2.958  11.004
15225W        W83588  39.999  18.130  12.854
15226W        W83589  17.556  24.489  14.849
15227W        W83590  42.822  34.075  12.966
15228W        W83591   8.246  37.862  11.086
15229W        W83592  11.323  33.400   4.278
15230W        W83593  13.257  12.826  11.957
15231W        W83594  32.498  44.462   5.757
15232W        W83595  17.168   2.406   1.884
15233W        W83596  31.607   5.850  14.868
15234W        W83597   0.816  28.613   3.367
15235W        W83598  42.425  34.562  10.582
15236W        W83599   0.779  29.562  10.483
15237W        W83600   5.349   1.371  14.824
15238W        W83601   5.283  24.992  12.835
15239W        W83602  42.451  36.933   2.365
15240W        W83603  19.774   5.334  13.832
15241W        W83604  40.934   3.258  13.913
15242W        W83605  31.605  27.170  10.923
15243W        W83606  32.084  17.173   2.355
15244W        W83607  30.550   6.901   3.800
15245W        W83608  23.732  11.640  14.833
15246W        W83609   2.345  10.152   4.308
15247W        W83610   2.888  39.461  14.934
15248W        W83611  16.611  15.325   3.188
15249W        W83612  33.919   3.436  10.495
15250W        W83613   6.322  28.517   4.212
15251W        W83614  27.581  18.108   2.794
15252W        W83615  12.849  28.947  13.379
15253W        W83616  10.720  16.726   2.799
15254W        W83617   2.815  11.648  12.976
15255W        W83618  20.581   5.900  12.415
15256W        W83619   3.363   5.438   0.467
15257W        W83620   9.701  17.617  14.961
15258W        W83621  16.160   6.754  12.498
15259W        W83622  12.620   5.388  13.884
15260W        W83623  13.323  33.110  14.941
15261W        W83624  43.429  44.754  11.027
15262W        W83625  17.253   3.785   0.388
15263W        W83626  19.138  43.912   3.826
15264W        W83627  44.430  29.464   5.278
15265W        W83628   7.845   6.335  12.414
15266W        W83629   3.812  16.286  10.405
15267W        W83630   2.814   0.952  10.519
15268W        W83631  33.091  18.115   2.319
15269W        W83632  40.384  18.202   1.382
15270W        W83633  42.834  30.612  12.997
15271W        W83634  33.423  43.866  14.948
15272W        W83635  31.053  23.108  11.390
15273W        W83636   0.430  24.986   2.860
15274W        W83637  37.576   4.701  13.012
15275W        W83638  38.027  31.608  13.398
15276W        W83639  40.389   8.294   0.250
15277W        W83640  20.263  20.660  12.942
15278W        W83641   5.747   9.385   3.262
15279W        W83642  27.193   0.863  14.402
15280W        W83643  26.016  25.097  10.904
15281W        W83644  43.970  11.856  10.988
15282W        W83645  28.531  44.997   0.469
15283W        W83646  39.527  21.217   2.205
15284W        W83647  27.003  29.146  13.439
15285W        W83648  17.272  28.561  10.523
15286W        W83649  28.475  15.134  12.566
15287W        W83650  37.975  38.438   1.403
15288W        W83651  42.926  31.080   1.213
15289W        W83652   6.252  44.297  10.469
15290W        W83653  23.681  20.614   3.159
15291W        W83654   0.266   8.235  10.630
15292W        W83655  11.652  17.644  12.457
15293W        W83656  33.469   3.825   4.135
15294W        W83657   1.760  36.455   1.699
15295W        W83658  15.214  23.699   1.294
15296W        W83659  34.087  16.728  13.852
15297W        W83660  43.456  19.758  11.410
15298W        W83661  40.840  20.201   4.755
15299W        W83662  16.080  28.577  10.463
15300W        W83663   8.311   1.292  14.436
15301W        W83664  34.912  25.988   1.406
15302W        W83665  28.010  32.437   1.403
15303W        W83666   9.260  41.790  11.119
15304W        W83667  40.430   3.730   4.677
15305W        W83668   0.814  11.828  10.933
15306W        W83669  11.229   7.725  14.483
15307W        W83670   5.423  15.703  12.443
15308W        W83671   9.218  18.101  13.375
15309W        W83672  27.672  11.627   1.270
15310W        W83673  10.170  32.605   2.355
15311W        W83674  31.516   4.425  14.284
15312W        W83675   7.884   4.785   2.688
15313W        W83676  38.075  12.247  12.534
15314W        W83677   3.323  11.743  12.891
15315W        W83678   5.306  26.565  13.997
15316W        W83679  19.218  10.250   1.313
15317W        W83680  17.221  44.964   3.273
15318W        W83681  31.926  35.007  11.432
15319W        W83682  18.648  18.161  12.996
15320W        W83683   7.382   0.447   0.438
15321W        W83684  29.468  19.168   1.866
15322W        W83685  35.896  31.508   1.432
15323W        W83686  37.946  34.002  14.420
15324W        W83687  11.240  16.743  10.408
15325W        W83688   9.237  25.627  11.104
15326W        W83689  26.149   0.765   2.231
15327W        W83690  21.112  40.860   3.228
15328W        W83691  42.954  33.382   3.733
15329W        W83692   4.702  34.099  13.349
15330W        W83693  12.732  15.261  10.633
15331W        W83694   9.802  13.256   2.399
15332W        W83695  25.548  37.945   0.853
15333W        W83696  37.001  27.093   4.315
15334W        W83697  17.570  21.545  13.872
15335W        W83698  15.242   9.843  11.930
15336W        W83699  39.023  43.502  11.602
15337W        W83700  38.457  33.034   4.677
15338W        W83701  26.118  40.830   1.709
15339W        W83702  43.275   7.792   4.326
15340W        W83703  36.435  14.296  11.943
15341W        W83704  39.443  17.239  13.941
15342W        W83705  21.573  27.053   1.861
15343W        W83706  21.602  28.179   4.142
15344W        W83707  37.402  39.523   4.644
15345W        W83708  24.480   3.225   0.954
15346W        W83709  33.469  39.834   0.891
15347W        W83710  17.574  28.632   2.286
15348W        W83711   4.354  30.616   0.919
15349W        W83712   6.830   0.354  13.880
15350W        W83713   8.186  28.566   0.411
15351W        W83714  19.759  43.773   5.256
15352W        W83715   6.248   8.160  12.558
15353W        W83716  34.574  41.421   4.180
15354W        W83717  35.401  37.503   3.867
15355W        W83718  41.853  36.481   1.276
15356W        W83719  35.059  14.688  10.909
15357W        W83720  25.597  14.204  11.856
15358W        W83721  36.433  23.200  10.917
15359W        W83722   7.335  32.917  11.961
15360W        W83723  19.544  13.606   2.257
15361W        W83724   8.168  31.439   1.290
15362W        W83725   9.734  40.916   0.295
15363W        W83726  41.410   5.313   2.282
15364W        W83727  21.572  31.502   2.336
15365W        W83728  35.604  37.063   1.886
15366W        W83729  36.445   7.225   3.728
15367W        W83730   6.861  10.715   2.260
15368W        W83731   6.922  18.714  13.893
15369W        W83732   3.928  29.989   0.925
15370W        W83733  35.065  12.197   3.708
15371W        W83734  39.947  20.140  12.575
15372W        W83735  41.491  22.244  10.942
15373W        W83736  22.043  31.518   2.200
15374W        W83737  37.858  26.585   2.409
15375W        W83738  15.654  26.081   3.265
15376W        W83739   0.478  26.089   2.862
15377W        W83740  19.572  40.051  10.020
15378W        W83741  35.574  44.858   3.317
15379W        W83742  10.744  37.544   3.737
15380W        W83743  17.709   9.262  13.398
15381W        W83744  33.961   1.856  12.497
15382W        W83745  28.473  22.143  14.825
15383W        W83746  36.027  43.367  11.924
15384W        W83747   3.329  27.145   1.292
15385W        W83748   0.447  24.145   3.278
15386W        W83749  13.755  32.981  12.526
15387W        W83750  43.987   0.831   0.947
15388W        W83751  29.460  13.310   3.866
15389W        W83752   1.295  33.573   3.365
15390W        W83753  44.419  28.123   1.826
15391W        W83754  27.642  37.378   1.322
15392W        W83755  11.311  21.222  14.357
15393W        W83756   2.227  18.669  14.275
15394W        W83757  38.856  18.286   1.408
15395W        W83758  44.819  19.542   3.710
15396W        W83759   1.833   5.870   4.751
15397W        W83760   5.916  33.969  12.535
15398W        W83761  24.044   9.286  12.439
15399W        W83762  24.640  24.214   3.717
15400W        W83763  30.601  34.934  13.421
15401W        W83764  27.048  10.726  10.499
15402W        W83765  12.229  11.277  12.850
15403W        W83766  42.382  44.423  13.322
15404W        W83767   4.402  15.101   3.173
15405W        W83768  34.877   7.890   4.765
15406W        W83769  38.920  40.521  12.092
15407W        W83770   8.837   3.746  13.005
15408W        W83771  15.254  35.498  13.474
15409W        W83772  28.559   2.258  11.419
15410W        W83773  34.400  42.398  11.095
15411W        W83774   9.167  13.297   3.240
15412W        W83775  22.181  41.338  10.484
15413W        W83776  10.663   5.854  12.972
15414W        W83777  17.116  11.221  10.898
15415W        W83778   5.807  35.461  14.461
15416W        W83779  18.688  24.585   0.434
15417W        W83780  23.032  44.798  13.380
15418W        W83781   4.300  18.750   2.764
15419W        W83782  44.480  15.632  11.032
15420W        W83783  12.667  40.882   3.285
15421W        W83784  13.280   1.380  11.944
15422W        W83785  36.570   6.824   3.219
15423W        W83786  17.301   7.754  12.462
15424W        W83787   8.671  35.066  14.477
15425W        W83788  10.228  11.266  10.979
15426W        W83789  13.314  22.243   2.727
15427W        W83790   3.430  15.682   1.849
15428W        W83791  25.534  28.100  12.354
15429W        W83792   5.808  12.705  12.389
15430W        W83793   3.275  17.234  12.968
15431W        W83794  26.004  30.451  11.492
15432W        W83795  36.583  40.931  10.530
15433W        W83796   1.315   8.307  12.553
15434W        W83797  32.547  19.154   2.804
15435W        W83798   2.930  25.053   3.856
15436W        W83799  18.182   7.374  14.881
15437W        W83800  22.041  26.483   3.213
15438W        W83801  11.174  11.793   4.310
15439W        W83802  14.611   6.206  10.542
15440W        W83803  15.298  17.753  11.927
15441W        W83804   2.457  40.497   2.251
15442W        W83805  14.688  23.584  11.103
15443W        W83806  19.606  22.150  14.377
15444W        W83807   7.201   6.183   4.816
15445W        W83808  41.884  32.430  12.363
15446W        W83809   0.775  12.330  13.944
15447W        W83810  23.538  31.970   4.698
15448W        W83811  40.452   2.948   2.266
15449W        W83812  14.338  23.223  13.887
15450W        W83813  19.645  16.138  10.515
15451W        W83814  43.308  44.912  13.939
15452W        W83815  39.908  35.981  12.095
15453W        W83816  34.581  18.220  11.551
15454W        W83817  35.589  40.424   3.743
15455W        W83818   1.391  40.487   1.860
15456W        W83819  35.531  19.718   2.707
15457W        W83820   6.716  23.002   0.828
15458W        W83821  11.816   6.207   0.428
15459W        W83822  17.696  18.551   3.147
15460W        W83823  33.410  22.567   4.300
15461W        W83824  23.086   8.188  10.580
15462W        W83825   9.267   5.808   2.668
15463W        W83826   2.380  22.173   0.838
15464W        W83827  15.689  17.779  12.556
15465W        W83828  32.999   3.761  11.457
15466W        W83829  30.596  43.850   3.233
15467W        W83830  30.142  28.458  14.806
15468W        W83831  37.449  10.804   4.735
15469W        W83832   9.863  30.117  11.505
15470W        W83833  37.349  33.543   4.617
15471W        W83834  26.187  19.083   1.210
15472W        W83835  16.274  41.986  11.466
15473W        W83836  33.114  31.132   0.353
15474W        W83837   8.853  26.030  13.902
15475W        W83838  31.550  43.841   5.236
15476W        W83839  28.059  19.053  10.424
15477W        W83840  22.016  39.940  10.982
15478W        W83841  30.532   3.263   0.307
15479W        W83842  25.609  36.962   0.354
15480W        W83843   2.361   4.875   2.685
15481W        W83844  36.431  29.035   2.198
15482W        W83845   9.274  44.010   2.809
15483W        W83846  36.980  23.721  10.433
15484W        W83847  43.387  39.441   3.672
15485W        W83848  32.541  42.403  14.441
15486W        W83849  43.441   8.828  12.410
15487W        W83850   1.336  11.132  13.013
15488W        W83851  21.086  29.091   4.690
15489W        W83852   9.361  44.992  14.924
15490W        W83853  29.516   6.362   2.697
15491W        W83854  43.446   0.785  12.833
15492W        W83855  22.124   8.168  11.919
15493W        W83856  18.127  37.377   2.284
15494W        W83857  31.109  30.152   1.774
15495W        W83858  26.025   2.291  11.586
15496W        W83859  32.901  24.176   2.874
15497W        W83860   0.346  28.633   2.207
15498W        W83861  14.253   4.219   4.757
15499W        W83862  43.452  14.280   1.326
15500W        W83863   5.693  14.314   3.335
15501W        W83864  26.555  22.225  11.559
15502W        W83865   5.281   5.746  12.499
15503W        W83866   6.706   1.918   3.866
15504W        W83867  29.428   3.443   5.201
15505W        W83868  20.641  44.879   4.639
15506W        W83869  43.330  17.753   4.218
15507W        W83870  27.483  40.376   2.261
15508W        W83871   8.756  42.884   3.685
15509W        W83872   5.439  24.529   2.239
15510W        W83873  39.851  33.435  11.375
15511W        W83874  39.942   0.463   1.783
15512W        W83875  26.964  13.649   3.702
15513W        W83876  12.342   1.847  11.472
15514W        W83877  35.410  24.163  10.589
15515W        W83878  16.151  28.092   2.818
15516W        W83879   5.692  19.117   0.309
15517W        W83880  19.137  11.781  14.953
15518W        W83881  24.044  17.790   1.929
15519W        W83882   1.475  43.019   4.292
15520W        W83883  31.033   6.304   1.244
15521W        W83884  21.086  43.367  11.600
15522W        W83885  16.111  23.657   0.811
15523W        W83886  37.498  17.715  12.017
15524W        W83887  17.071  38.027   1.332
15525W        W83888  23.703  42.986   2.334
15526W        W83889  35.881   1.925  12.548
15527W        W83890   2.244  12.842  10.942
15528W        W83891  34.477   6.800   3.737
15529W        W83892  28.964   5.276   2.820
15530W        W83893   0.858   8.268  11.008
15531W        W83894  16.732  16.177  10.962
15532W        W83895   9.182  23.146   0.458
15533W        W83896  35.467  28.123  12.444
15534W        W83897  44.792  30.568   2.269
15535W        W83898   5.917  11.694  13.987
15536W        W83899   7.805  11.324  12.473
15537W        W83900   3.461   0.439   3.337
15538W        W83901  16.086  39.391  13.815
15539W        W83902  17.595  10.248  13.359
15540W        W83903   9.801  33.408  11.538
15541W        W83904   4.344  35.867   4.638
15542W        W83905  15.643  21.174   5.295
15543W        W83906  29.658   9.285   4.199
15544W        W83907  30.630   4.783  13.807
15545W        W83908  41.821  18.623   2.857
15546W        W83909  26.206  28.650  11.065
15547W        W83910  39.009  35.535   3.750
15548W        W83911  10.179   0.337  12.510
15549W        W83912  34.114   2.962  13.516
15550W        W83913  41.388   3.945  11.455
15551W        W83914   8.789  41.823  12.390
15552W        W83915  22.144   6.902  11.587
15553W        W83916  41.844  11.294  11.074
15554W        W83917  15.718   5.309   2.872
15555W        W83918  13.658   8.865   3.630
15556W        W83919  26.103  43.278  11.128
15557W        W83920  17.574   1.372   2.828
15558W        W83921  24.141  33.460  12.474
15559W        W83922  15.624  11.265  10.555
15560W        W83923  38.512   6.330   3.291
15561W        W83924   1.831  31.085   2.388
15562W        W83925  20.210   0.855   1.311
15563W        W83926  43.451  13.209  12.920
15564W        W83927  16.248  18.546  13.063
15565W        W83928  42.866  12.310  11.050
15566W        W83929   4.295  43.301   2.417
15567W        W83930  38.943  29.991  11.459
15568W        W83931  19.231  16.300   0.967
15569W        W83932  34.984  43.938   3.668
15570W        W83933  16.673  36.022  14.974
15571W        W83934   2.282  30.507   0.405
15572W        W83935  30.063  38.405   0.344
15573W        W83936  40.312  31.525   0.903
15574W        W83937  44.819  30.913  11.608
15575W        W83938  20.247  17.162   2.840
15576W        W83939  35.423   7.344   3.641
15577W        W83940  18.741  27.596   4.657
15578W        W83941  16.592  44.314   4.297
15579W        W83942  28.649  38.420   3.779
15580W        W83943   2.731  43.323  14.985
15581W        W83944  19.078  33.601  10.427
15582W        W83945   8.193  40.465  11.963
15583W        W83946  37.544  32.061  12.370
15584W        W83947   0.917  30.429   5.271
15585W        W83948  19.745  17.165  11.526
15586W        W83949  36.921  16.281  13.352
15587W        W83950  13.250   4.224  14.899
15588W        W83951   9.705  40.484  14.494
15589W        W83952  41.426   9.215  14.490
15590W        W83953   0.428   0.751  10.906
15591W        W83954  43.298  38.905   4.789
15592W        W83955  31.148  18.586   0.243
15593W        W83956  24.611  10.367  14.007
15594W        W83957  33.036  34.941  11.588
15595W        W83958  21.525  33.544  11.372
15596W        W83959   9.813  24.630  13.823
15597W        W83960  36.935  16.579   3.378
15598W        W83961  41.306  13.791  13.511
15599W        W83962  25.602  37.980  14.384
15600W        W83963  43.382  15.267  11.403
15601W        W83964  10.364  32.033  13.459
15602W        W83965   4.810   1.247   2.408
15603W        W83966  23.081  26.492  10.087
15604W        W83967   3.219  10.833  13.462
15605W        W83968  10.231  22.030  12.513
15606W        W83969  33.949  18.747  11.498
15607W        W83970  23.548  35.997  10.475
15608W        W83971  10.732  24.999   2.319
15609W        W83972  10.336   7.728   1.861
15610W        W83973  38.822  30.079   1.801
15611W        W83974   5.381  36.440  10.644
15612W        W83975  36.885  21.603  11.500
15613W        W83976  20.661  34.586   2.216
15614W        W83977  29.110  16.127  12.833
15615W        W83978  22.246  33.114  10.443
15616W        W83979  36.087   3.244   0.459
15617W        W83980   0.307  11.213  11.484
15618W        W83981  21.127   7.724  14.870
15619W        W83982  11.202   0.354  11.423
15620W        W83983  40.447  29.975   4.139
15621W        W83984  38.009  15.246   1.339
15622W        W83985   0.457  41.836   3.639
15623W        W83986  24.690   3.253   3.727
15624W        W83987  44.363  13.176   3.815
15625W        W83988  12.757   4.804   4.727
15626W        W83989  35.558   7.305  14.795
15627W        W83990  39.056  31.046   5.259
15628W        W83991   7.747  15.092   2.343
15629W        W83992  14.218  12.714   2.325
15630W        W83993  10.730  22.740  12.476
15631W        W83994  18.221  34.477   2.795
15632W        W83995  15.111  26.108  13.389
15633W        W83996  28.068   9.710   1.882
15634W        W83997  32.571  19.176   0.375
15635W        W83998   9.666  30.997   1.327
15636W        W83999  30.944   2.378  13.924
15637W        W84000  29.646  24.038   1.235
15638W        W84001  37.578  15.147   0.420
15639W        W84002  22.635  17.240  11.891
15640W        W84003   4.436  19.115  10.910
15641W        W84004  30.971   6.256  14.761
15642W        W84005  19.564  39.988  13.994
15643W        W84006   9.657  14.220  13.813
15644W        W84007   3.712  42.991   5.208
15645W        W84008  10.345   7.397  12.038
15646W        W84009  37.503  15.659  12.007
15647W        W84010  16.570  32.391  14.502
15648W        W84011  10.355  39.517   4.237
15649W        W84012  29.002  42.790  10.928
15650W        W84013   7.678  22.157  10.514
15651W        W84014   5.700  14.201   0.740
15652W        W84015  12.336  20.126  13.441
15653W        W84016   3.842   8.656  11.969
15654W        W84017   2.465  33.049  13.520
15655W        W84018  31.039   4.433   0.270
15656W        W84019  12.709  30.967  11.078
15657W        W84020   9.746  20.650   1.864
15658W        W84021  23.581   1.385   1.369
15659W        W84022  25.495  13.116  10.554
15660W        W84023  29.011   8.787   3.298
15661W        W84024  28.161  11.815   1.236
15662W        W84025  34.574   3.768  12.560
15663W        W84026  28.058  22.148  11.073
15664W        W84027  31.958   7.279   0.796
15665W        W84028  36.896  42.879   5.228
15666W        W84029  23.513  35.059  11.545
15667W        W84030  38.474  10.798  13.822
15668W        W84031  26.125  34.083  12.014
15669W        W84032  29.072  42.814   2.314
15670W        W84033  40.054  42.370  12.823
15671W        W84034  21.193  25.662  11.425
15672W        W84035   6.265  33.930   3.728
15673W        W84036  22.624  19.621   4.328
15674W        W84037  41.384  14.155   2.338
15675W        W84038   8.235  37.940  11.392
15676W        W84039  43.508  33.462  13.023
15677W        W84040  13.206  15.159  14.318
15678W        W84041  21.204  23.646  10.911
15679W        W84042  20.765  12.302  13.403
15680W        W84043  17.716  18.572   2.669
15681W        W84044   4.846  12.202  12.011
15682W        W84045  29.993  37.972   2.274
15683W        W84046  10.314   7.773   0.884
15684W        W84047  43.461  16.264   2.895
15685W        W84048  20.671  16.697  13.894
15686W        W84049  26.197  22.009   2.335
15687W        W84050  34.525  38.835   3.812
15688W        W84051  17.282  14.216   1.781
15689W        W84052  18.765   9.293  13.518
15690W        W84053  39.405  27.523  13.797
15691W        W84054  43.463   3.915  11.056
15692W        W84055  37.576  28.558  11.562
15693W        W84056  34.107   0.826   0.743
15694W        W84057  36.408  43.349   2.290
15695W        W84058  11.217  33.993   0.413
15696W        W84059   9.275   9.252  13.410
15697W        W84060   7.371  17.064  14.451
15698W        W84061  17.176  12.250  11.426
15699W        W84062  42.504  12.840   1.847
15700W        W84063  31.114  33.923   0.279
15701W        W84064  21.259  29.011  12.472
15702W        W84065  42.405  35.048   3.212
15703W        W84066  20.526   8.713  14.857
15704W        W84067  18.558  34.482   9.987
15705W        W84068  23.638  14.669   4.265
15706W        W84069   4.404  33.101   4.719
15707W        W84070  30.450  43.415  12.939
15708W        W84071  39.035  18.593  13.976
15709W        W84072  11.272  15.240   4.825
15710W        W84073  14.815   3.269   1.290
15711W        W84074  36.546  22.582   3.693
15712W        W84075  21.672  26.143   2.668
15713W        W84076  29.920  20.582   0.297
15714W        W84077  24.661  14.225   0.394
15715W        W84078  33.889  43.423  11.423
15716W        W84079  32.391   4.770  14.862
15717W        W84080   3.375   8.296   1.701
15718W        W84081  43.479   1.248  12.458
15719W        W84082  32.486  28.666  12.984
15720W        W84083  11.216  37.438  12.427
15721W        W84084   4.239  30.136   0.753
15722W        W84085  30.983   2.891  12.508
15723W        W84086   4.785  39.462  11.062
15724W        W84087  34.558  23.147  12.541
15725W        W84088  40.839  39.462  12.361
15726W        W84089  39.950  24.142   1.317
15727W        W84090  15.584  28.461  13.977
15728W        W84091  43.975  16.173   0.765
15729W        W84092  12.720  34.518  11.089
15730W        W84093  19.152  23.638  12.028
15731W        W84094   0.284  41.311  11.408
15732W        W84095   6.349  34.385   0.410
15733W        W84096   8.799  31.961  13.415
15734W        W84097   3.266  32.520   0.302
15735W        W84098  25.625  44.833  11.873
15736W        W84099   0.912  13.725  11.901
15737W        W84100  28.004  10.142  10.502
15738W        W84101   7.896  10.167   0.731
15739W        W84102  10.228  21.163  11.879
15740W        W84103  19.041   7.703  14.787
15741W        W84104   4.752   1.970  14.784
15742W        W84105  34.563  14.189  12.054
15743W        W84106  16.124  37.544   1.724
15744W        W84107  16.710  11.718   1.239
15745W        W84108  20.086   3.439  14.365
15746W        W84109   0.891  39.050  12.456
15747W        W84110   3.940   2.440   4.117
15748W        W84111  12.290  26.960   2.798
15749W        W84112  25.612  14.672  13.982
15750W        W84113   0.464  43.859  11.073
15751W        W84114  24.545  20.709   1.891
15752W        W84115   6.909  23.624  13.526
15753W        W84116  11.676  19.640   1.823
15754W        W84117  21.241  16.670  14.911
15755W        W84118  25.624  44.498  12.089
15756W        W84119  13.803   8.861   5.195
15757W        W84120   3.362  17.258   3.301
15758W        W84121  11.177   6.284  14.811
15759W        W84122  11.211  29.619   0.473
15760W        W84123  25.054  25.643   4.836
15761W        W84124  10.781  32.461   2.308
15762W        W84125  19.276  25.679  12.980
15763W        W84126  22.643   3.330   3.188
15764W        W84127  34.995  20.604   2.344
15765W        W84128  43.891  42.784  13.523
15766W        W84129  32.907  38.069  13.805
15767W        W84130   7.769  22.023  10.997
15768W        W84131  12.850  16.317   4.816
15769W        W84132  15.233  15.272   3.679
15770W        W84133  25.054  41.895  10.978
15771W        W84134  44.972  25.590   0.294
15772W        W84135  23.639  43.982   1.799
15773W        W84136  26.065  10.710  11.990
15774W        W84137   2.899  22.144   0.282
15775W        W84138  28.165   1.773  14.433
15776W        W84139  10.227   0.857  14.834
15777W        W84140  14.321  20.764  12.060
15778W        W84141  37.353  25.549   4.306
15779W        W84142   2.283  12.852  14.382
15780W        W84143  33.392  34.925   1.892
15781W        W84144  29.057  14.633   4.768
15782W        W84145   5.847  21.245   0.357
15783W        W84146  42.282  15.162  10.572
15784W        W84147  27.973  37.989  12.881
15785W        W84148   6.761  35.379  12.414
15786W        W84149   1.905  31.142   4.616
15787W        W84150  28.140  11.242  11.021
15788W        W84151  11.360  35.464  14.949
15789W        W84152  27.088  11.224  10.511
15790W        W84153  35.543  13.828   2.705
15791W        W84154  13.720  32.890  13.044
15792W        W84155  16.298  36.350   3.820
15793W        W84156  27.092  35.068  14.803
15794W        W84157  43.383  40.052  10.557
15795W        W84158  40.359  35.025   0.732
15796W        W84159  27.180  32.902   2.261
15797W        W84160  28.996  27.962   4.808
15798W        W84161   1.356  12.610   0.792
15799W        W84162  15.197   3.735   3.719
15800W        W84163  31.950   3.403   4.600
15801W        W84164  15.285  42.990   4.324
15802W        W84165   5.902  36.843  11.476
15803W        W84166   6.336  28.111   1.313
15804W        W84167  30.976  21.165   0.894
15805W        W84168  17.070  12.354  10.513
15806W        W84169  37.376  44.982  13.359
15807W        W84170  29.132  12.758   3.670
15808W        W84171  22.544  44.448  10.054
15809W        W84172  25.025  21.242   5.266
15810W        W84173   7.898  42.854   3.751
15811W        W84174  18.288  43.923   5.217
15812W        W84175   4.240  24.095  14.346
15813W        W84176  41.903   8.320   0.892
15814W        W84177  40.365  14.095   2.227
15815W        W84178  10.756  10.235   0.273
15816W        W84179  44.929  39.841  11.467
15817W        W84180   4.446  12.612  13.394
15818W        W84181  11.272   4.209  10.442
15819W        W84182  36.508  12.122  12.382
15820W        W84183  23.641  13.842  14.295
15821W        W84184  37.990  20.248   1.409
15822W        W84185  44.979   5.347  10.894
15823W        W84186  22.204  14.184   4.822
15824W        W84187  19.656   1.287  11.944
15825W        W84188  14.236   5.344   1.732
15826W        W84189  36.395  43.995   1.762
15827W        W84190  25.502  40.000   1.784
15828W        W84191  43.996  35.482  12.414
15829W        W84192  41.786  40.970  13.929
15830W        W84193  40.983  20.210  11.023
15831W        W84194  14.257  11.186  14.394
15832W        W84195  43.437  17.737  11.595
15833W        W84196  34.419   1.481  12.075
15834W        W84197  31.140  30.109   3.630
15835W        W84198  15.255  27.524   1.335
15836W        W84199  18.176  27.183   1.812
15837W        W84200   6.804  27.517  10.997
15838W        W84201   1.354   6.738   2.676
15839W        W84202  41.846  19.222   4.682
15840W        W84203   5.234  21.029  11.912
15841W        W84204   8.725  32.449   3.181
15842W        W84205  27.074  16.727  12.046
15843W        W84206   4.728  18.623   0.296
15844W        W84207  22.632   0.940   3.750
15845W        W84208  14.143  43.997   4.197
15846W        W84209  23.082  16.252   3.760
15847W        W84210   5.215  40.475   4.600
15848W        W84211  22.575   8.775   5.109
15849W        W84212   9.175  18.713   0.243
15850W        W84213  25.523   4.438  11.965
15851W        W84214  28.036   3.373  11.426
15852W        W84215   9.277  20.679  13.379
15853W        W84216  30.573  43.961  11.015
15854W        W84217  30.609  28.037   1.800
15855W        W84218  19.681  15.610  10.496
15856W        W84219  33.007  11.217   1.276
15857W        W84220  33.924   1.396  11.976
15858W        W84221  20.089  22.613  14.332
15859W        W84222  42.443  36.017  14.290
15860W        W84223   8.894   6.733   3.791
15861W        W84224  32.941   6.388   0.946
15862W        W84225  38.922  39.950   0.741
15863W        W84226  37.995   3.450  10.553
15864W        W84227  15.214  36.522   2.688
15865W        W84228  33.409  29.552  12.034
15866W        W84229  27.487  43.862  14.002
15867W        W84230  25.122  20.052   4.313
15868W        W84231  12.810  20.565   2.278
15869W        W84232  30.498  19.267   1.326
15870W        W84233  32.000  43.868  14.460
15871W        W84234   6.279  19.177  11.600
15872W        W84235   6.291  34.521   2.880
15873W        W84236  10.749  12.296   0.481
15874W        W84237  41.294  26.679   1.854
15875W        W84238  40.817  14.259  13.049
15876W        W84239  19.135  40.840   4.665
15877W        W84240  36.578   4.254   3.292
15878W        W84241  14.633  30.160  13.414
15879W        W84242  44.780   0.428  13.029
15880W        W84243   1.407  26.048   4.600
15881W        W84244  29.661  18.068  14.781
15882W        W84245  13.288  26.203  12.861
15883W        W84246  25.022  28.071   3.832
15884W        W84247  24.155  23.700   0.474
15885W        W84248   9.278   6.877   0.275
15886W        W84249   0.448  44.805   0.915
15887W        W84250  15.113  44.904  11.476
15888W        W84251   6.813  20.103   4.198
15889W        W84252  39.508   1.397  12.545
15890W        W84253  18.096  20.051  14.448
15891W        W84254   5.195  26.203  10.625
15892W        W84255  19.665  17.775   4.170
15893W        W84256   4.324  15.710   1.367
15894W        W84257   7.173  16.224   1.901
15895W        W84258  23.538  33.117   2.745
15896W        W84259  26.460  22.681   5.179
15897W        W84260  34.399  22.715  13.404
15898W        W84261  37.521  21.655  13.499
15899W        W84262  17.088  28.664   2.869
15900W        W84263  24.157  27.164   2.193
15901W        W84264   0.256  11.752   0.482
15902W        W84265   9.741  25.118  12.506
15903W        W84266  15.810   0.464   3.677
15904W        W84267  34.119  43.780   1.759
15905W        W84268  36.076  38.919  12.857
15906W        W84269  12.122  27.659  13.807
15907W        W84270  25.094  25.140   3.679
15908W        W84271  32.604  20.765  10.406
15909W        W84272  34.381   4.424   3.244
15910W        W84273  39.396   3.923   4.804
15911W        W84274   5.907  32.454   1.347
15912W        W84275  33.991   1.890  10.967
15913W        W84276  14.647   4.872   0.737
15914W        W84277  20.726  13.678  14.868
15915W        W84278  17.776  21.168   3.759
15916W        W84279  38.004  41.855   1.354
15917W        W84280  39.030  20.271   1.364
15918W        W84281   1.930  26.462  13.823
15919W        W84282  17.109  29.174   4.697
15920W        W84283  33.001  20.546   1.890
15921W        W84284   7.753  34.538  11.121
15922W        W84285  38.959  24.210  10.611
15923W        W84286  28.136  15.602  12.046
15924W        W84287   8.193  27.189   0.419
15925W        W84288  43.356  41.343  11.520
15926W        W84289  34.895  27.086   3.844
15927W        W84290  21.656  26.698   0.846
15928W        W84291   6.846  44.270   4.243
15929W        W84292  11.806  43.847   3.756
15930W        W84293  21.066  14.264  11.102
15931W        W84294  41.386  12.315   3.700
15932W        W84295   0.752   5.321   0.771
15933W        W84296  23.041  42.929   0.782
15934W        W84297  38.873  10.382   5.162
15935W        W84298  15.775  38.985   5.158
15936W        W84299  30.625  16.072   0.819
15937W        W84300   9.395  44.462   2.235
15938W        W84301  28.082   7.686  13.837
15939W        W84302   1.396   8.676  11.478
15940W        W84303  13.162  21.740   4.310
15941W        W84304  14.834  25.631   4.806
15942W        W84305   8.348  41.849  10.949
15943W        W84306  38.437  28.935  12.925
15944W        W84307  12.135  43.406   0.293
15945W        W84308  27.051  35.552   1.881
15946W        W84309   1.313  15.243   1.863
15947W        W84310  20.243  29.625  11.560
15948W        W84311   6.277  40.316  11.086
15949W        W84312   8.202  30.068   0.728
15950W        W84313  40.302  22.564  12.398
15951W        W84314  19.629  32.046  10.606
15952W        W84315  21.632  11.699   0.893
15953W        W84316  44.830  14.656   4.267
15954W        W84317  34.604  43.850   0.844
15955W        W84318  20.614  38.327  14.883
15956W        W84319  18.141  20.523   0.403
15957W        W84320  23.706   9.356  14.820
15958W        W84321  40.826  17.719  14.490
15959W        W84322  24.155  26.007   0.777
15960W        W84323  35.523   9.853  14.881
15961W        W84324  12.220   2.415  12.856
15962W        W84325   1.412  22.069   2.847
15963W        W84326  44.783   9.667   4.826
15964W        W84327   1.333  24.479   0.763
15965W        W84328  16.134   7.793   0.434
15966W        W84329   0.834  30.594   4.667
15967W        W84330  43.011  22.587  12.981
15968W        W84331  39.909   7.246   2.213
15969W        W84332  32.482  22.631  12.855
15970W        W84333  17.062  32.102   3.348
15971W        W84334  32.410  19.640  11.386
15972W        W84335  40.391  23.014  11.397
15973W        W84336  21.592  15.710   1.811
15974W        W84337  14.116  34.056  12.512
15975W        W84338  27.543  38.439  13.311
15976W        W84339  22.245  33.054   0.353
15977W        W84340  13.294  28.168  13.418
15978W        W84341  13.278  23.175   0.961
15979W        W84342  15.584   2.765  12.432
15980W        W84343   4.413   6.864  12.059
15981W        W84344  20.567   1.839  12.028
15982W        W84345   5.352   5.791   3.379
15983W        W84346  43.829  21.214  12.430
15984W        W84347  28.107  35.371   0.909
15985W        W84348   4.725  24.663   4.624
15986W        W84349  33.995  20.031   1.725
15987W        W84350   4.347  13.626   3.214
15988W        W84351  23.639  25.577   2.196
15989W        W84352  27.481  25.554   0.331
15990W        W84353   7.409  40.547   4.183
15991W        W84354  43.916  43.900  11.407
15992W        W84355  28.500   8.174   1.710
15993W        W84356  28.624  24.137   0.847
15994W        W84357   4.314   4.323   0.797
15995W        W84358  10.751  18.188  11.982
15996W        W84359   6.335   4.436   3.708
15997W        W84360   1.871  23.069  13.888
15998W        W84361   1.746  21.221   9.988
15999W        W84362  42.011  25.044   5.174
16000W        W84363   0.357  35.991   5.278
16001W        W84364  43.891  22.510  11.974
16002W        W84365  44.993  17.765   2.212
16003W        W84366   8.274  22.637   0.278
16004W        W84367   1.292   6.313   4.275
16005W        W84368  18.171  31.922  14.439
16006W        W84369  39.329  42.359   3.292
16007W        W84370  31.591  27.457   3.809
16008W        W84371  28.176   8.663   3.870
16009W        W84372   4.225  17.121   2.838
16010W        W84373  20.270  40.432   1.874
16011W        W84374  31.141  12.189   3.658
16012W        W84375  28.936   7.392  14.765
16013W        W84376  28.148  22.235   3.788
16014W        W84377   7.732  29.954  14.346
16015W        W84378   0.341  23.985  14.335
16016W        W84379  13.647   5.852   2.345
16017W        W84380  11.723  25.206  13.448
16018W        W84381   1.844  30.122   1.332
16019W        W84382   7.817  16.766  13.967
16020W        W84383  20.607  15.617  13.479
16021W        W84384  43.271  18.170   3.377
16022W        W84385  39.369  35.890   4.210
16023W        W84386   9.324  41.410   0.277
16024W        W84387   8.278  28.552  12.999
16025W        W84388  32.608  12.140   0.435
16026W        W84389  37.551   9.751   1.258
16027W        W84390  36.944  20.102  14.842
16028W        W84391  42.520   7.677   2.849
16029W        W84392  44.919  33.040  12.892
16030W        W84393   0.464  29.614   0.742
16031W        W84394   3.754   2.760  14.318
16032W        W84395  42.482  43.776  11.126
16033W        W84396   7.269   2.269   4.130
16034W        W84397  42.919  19.594  10.041
16035W        W84398   2.423  44.905   1.312
16036W        W84399  30.513  11.668  10.897
16037W        W84400  41.986  41.876   1.379
16038W        W84401  29.010  12.353  11.601
16039W        W84402   5.402  41.317  13.940
16040W        W84403  22.501  36.560   1.884
16041W        W84404   8.668  25.523  12.513
16042W        W84405  39.886  35.514  13.838
16043W        W84406   3.794  25.146   2.733
16044W        W84407   9.277  29.441   2.778
16045W        W84408  42.825  17.105   2.299
16046W        W84409  31.049  19.568   0.854
16047W        W84410  14.724  23.084  14.322
16048W        W84411  35.011   1.877  13.902
16049W        W84412  39.413  15.634   3.294
16050W        W84413  38.865  21.155   0.377
16051W        W84414  25.219  13.308   4.669
16052W        W84415  24.620   3.333  13.855
16053W        W84416  33.046  17.623   3.641
16054W        W84417  14.623  34.945  11.042
16055W        W84418  31.897  19.549  13.463
16056W        W84419  21.213   9.743  14.819
16057W        W84420   7.225  11.708   4.354
16058W        W84421   1.810  18.725  10.460
16059W        W84422  35.364  16.713   3.768
16060W        W84423  16.674  24.719   4.793
16061W        W84424  30.478  43.847   1.884
16062W        W84425  44.460   6.913   3.856
16063W        W84426  36.876  30.628   2.413
16064W        W84427  30.556  25.665  13.408
16065W        W84428  39.871  35.501   4.330
16066W        W84429  25.020   7.395  14.773
16067W        W84430  44.772  36.034  12.494
16068W        W84431  13.729  23.558   2.875
16069W        W84432  33.126  31.123   3.842
16070W        W84433  33.120   5.268   2.850
16071W        W84434  23.533  44.881   4.602
16072W        W84435  12.724  25.624  14.933
16073W        W84436   6.832  13.287   0.853
16074W        W84437  18.110  23.714  11.031
16075W        W84438  30.044  36.508   0.462
16076W        W84439   9.390  22.592  14.409
16077W        W84440   0.465  44.911   2.220
16078W        W84441  36.471  20.137  11.389
16079W        W84442  21.742  26.124  12.008
16080W        W84443  27.042  35.389  13.937
16081W        W84444  23.613  29.477  10.971
16082W        W84445   5.748  14.164   4.262
16083W        W84446   7.830  30.146  10.906
16084W        W84447  17.759   8.864   1.249
16085W        W84448   9.335  16.102  14.339
16086W        W84449  16.167  14.172   4.625
16087W        W84450  34.896  26.541   4.815
16088W        W84451  35.099  11.682   2.258
16089W        W84452   5.833  44.857  14.454
16090W        W84453  21.529  18.084   4.265
16091W        W84454  24.707  36.349  12.834
16092W        W84455  19.721  22.585   1.363
16093W        W84456   8.708  40.318   3.700
16094W        W84457  26.650  43.505   4.752
16095W        W84458  27.453  32.598   2.693
16096W        W84459  15.293   8.303  13.458
16097W        W84460  19.543   1.301   4.293
16098W        W84461  12.260   7.888   2.899
16099W        W84462   0.316  10.759   0.848
16100W        W84463   7.685  25.156   1.780
16101W        W84464  44.974  21.072   0.831
16102W        W84465  23.523   4.719  11.907
16103W        W84466  26.617  34.993  13.545
16104W        W84467  35.861   1.940   3.172
16105W        W84468  34.026  35.537   4.132
16106W        W84469   3.952  27.551  13.313
16107W        W84470   1.853   3.897  14.407
16108W        W84471  34.500  38.452  12.083
16109W        W84472  28.138  38.046   1.902
16110W        W84473  27.165  13.808  13.031
16111W        W84474   0.277   5.858   1.408
16112W        W84475  38.044   0.784   1.414
16113W        W84476  12.124  20.033  12.399
16114W        W84477  30.474  27.998  12.469
16115W        W84478  40.514  29.466   5.113
16116W        W84479   9.193  35.017   2.831
16117W        W84480   2.797  32.444   0.351
16118W        W84481  23.571   0.281  13.407
16119W        W84482   2.953  38.426   1.330
16120W        W84483  12.345  28.000   3.845
16121W        W84484   5.748   6.208  13.421
16122W        W84485  26.490  21.608  12.954
16123W        W84486  39.334   7.698  13.850
16124W        W84487  43.800   1.919  11.584
16125W        W84488  11.141  22.636  12.993
16126W        W84489   2.290   7.311  13.028
16127W        W84490  38.886   8.385   3.852
16128W        W84491  22.201  17.157   3.739
16129W        W84492  35.423  19.665   3.345
16130W        W84493  41.998  39.851  13.946
16131W        W84494  19.248  16.094  13.042
16132W        W84495   9.215   4.210  13.388
16133W        W84496  39.824  44.466   4.741
16134W        W84497  44.937  12.715  11.396
16135W        W84498  23.149  28.013   0.272
16136W        W84499  42.397  10.740  10.540
16137W        W84500  19.285   7.260   4.201
16138W        W84501   4.854   1.965   4.169
16139W        W84502  21.571  41.019  13.021
16140W        W84503  16.657  26.980  12.502
16141W        W84504   7.769  28.999  12.877
16142W        W84505  23.684  43.976   0.282
16143W        W84506  37.040   2.446   2.835
16144W        W84507   3.380  13.209   1.368
16145W        W84508  13.665  19.719   4.286
16146W        W84509  29.012   0.793  13.401
16147W        W84510  12.350  39.343   1.885
16148W        W84511  12.783  10.309   4.826
16149W        W84512  11.179  28.556  12.532
16150W        W84513  20.163  19.278   2.879
16151W        W84514  24.223  10.226  13.431
16152W        W84515  12.690   1.914  10.429
16153W        W84516  21.599  25.490  10.992
16154W        W84517  28.144   1.386  11.380
16155W        W84518  14.716   2.734   5.185
16156W        W84519  41.492  19.548  11.056
16157W        W84520  36.933  14.621  14.332
16158W        W84521  26.195  36.897  12.492
16159W        W84522   1.320   2.445  12.967
16160W        W84523  44.841  10.222  13.910
16161W        W84524  20.182  28.139   4.295
16162W        W84525   4.859   2.434   2.865
16163W        W84526  14.671  37.937  14.893
16164W        W84527  34.013  41.851  12.420
16165W        W84528  29.027  20.069  11.495
16166W        W84529  19.055  14.593   3.157
16167W        W84530   0.392  17.117  13.952
16168W        W84531  43.465  35.586   4.816
16169W        W84532  25.539  23.034   2.313
16170W        W84533  28.584  16.637  12.997
16171W        W84534   4.229  25.018   5.308
16172W        W84535  23.507  29.087   0.887
16173W        W84536   6.861  19.739  13.841
16174W        W84537  12.159  11.665  10.492
16175W        W84538  15.688  14.118  14.825
16176W        W84539  13.676   6.812   0.403
16177W        W84540  34.013   4.419   2.264
16178W        W84541  40.892  29.487  11.075
16179W        W84542   2.262  29.511  12.573
16180W        W84543  32.475   1.825  12.972
16181W        W84544  19.753  22.702   4.686
16182W        W84545  23.676   6.789   1.397
16183W        W84546  43.461   1.932  14.476
16184W        W84547  15.617  18.248   4.599
16185W        W84548  15.602  28.591  11.464
16186W        W84549  13.750  37.411   3.191
16187W        W84550   9.259  11.795   3.790
16188W        W84551   4.269  41.537  12.002
16189W        W84552  24.627  26.954   2.209
16190W        W84553   1.457  32.558  12.339
16191W        W84554  42.441  39.919  11.948
16192W        W84555  29.935  35.986   0.755
16193W        W84556   0.879   2.427   0.477
16194W        W84557  38.427  33.916  13.544
16195W        W84558  15.811  32.062  10.952
16196W        W84559  34.016   9.751  14.816
16197W        W84560  15.327   9.251   3.192
16198W        W84561  26.502   0.399   1.701
16199W        W84562   7.738   2.925  13.409
16200W        W84563  10.148  36.423  10.113
16201W        W84564  42.956  42.452   1.232
16202W        W84565  15.619  31.071  11.958
16203W        W84566   9.686  43.388   4.199
16204W        W84567   5.352  26.069   3.671
16205W        W84568  14.613  10.665   2.352
16206W        W84569  30.629  27.014  10.641
16207W        W84570  22.128  22.064   3.705
16208W        W84571  31.495  33.616   3.744
16209W        W84572  30.563   6.718  12.867
16210W        W84573  43.940  36.544   1.447
16211W        W84574  22.529  23.496  11.531
16212W        W84575  28.654  22.596   4.670
16213W        W84576  39.045  20.567   1.747
16214W        W84577  26.671  16.124  13.322
16215W        W84578  15.143  13.778   0.890
16216W        W84579  42.412   3.727   3.720
16217W        W84580  21.041  10.730   2.195
16218W        W84581  14.269   2.766   3.365
16219W        W84582  19.237  29.031  13.449
16220W        W84583   0.865   0.458   1.428
16221W        W84584   5.418  34.057  12.342
16222W        W84585  28.529  27.461  10.912
16223W        W84586   8.758  13.808  10.463
16224W        W84587  26.143  35.427   2.675
16225W        W84588   3.388  22.176   3.381
16226W        W84589  10.253  34.596   0.856
16227W        W84590  38.427   7.330   1.438
16228W        W84591   9.289  38.013   4.813
16229W        W84592  11.715   7.707   1.714
16230W        W84593  15.763  39.922   1.382
16231W        W84594   1.889  27.607   0.270
16232W        W84595  41.328  39.518   2.725
16233W        W84596  11.263  19.057   1.341
16234W        W84597  35.382  30.464   4.660
16235W        W84598  33.926  17.797  13.459
16236W        W84599  36.362   0.451   4.814
16237W        W84600  28.636   1.885  14.350
16238W        W84601  40.810  17.076   2.351
16239W        W84602   1.262  11.272   2.859
16240W        W84603   7.897   2.233   0.285
16241W        W84604  38.346  32.132   5.098
16242W        W84605   8.722  10.377  13.933
16243W        W84606  13.752  11.701   4.737
16244W        W84607  30.458  35.479  13.363
16245W        W84608  11.225  19.157  10.636
16246W        W84609   9.273  41.994  14.515
16247W        W84610  40.442  35.534   4.765
16248W        W84611  37.980  21.202   1.844
16249W        W84612  43.348  16.590   2.248
16250W        W84613  36.400  17.113   2.289
16251W        W84614  27.689  28.929   2.323
16252W        W84615  17.762  37.870  14.315
16253W        W84616   1.817  30.994  13.798
16254W        W84617   5.876  42.033   2.205
16255W        W84618  36.505  33.509   4.823
16256W        W84619  21.703   3.349   2.765
16257W        W84620  42.397  14.247   2.369
16258W        W84621  21.710  19.084  12.917
16259W        W84622  10.747  23.234   1.888
16260W        W84623  34.594  21.659   1.288
16261W        W84624   3.269  32.063   3.346
16262W        W84625  41.795  32.433   0.410
16263W        W84626  30.615   1.287  13.807
16264W        W84627  32.623  25.482  10.464
16265W        W84628  43.426  38.018   4.332
16266W        W84629   4.257  21.700   4.756
16267W        W84630  27.962  44.980   1.415
16268W        W84631  24.104   5.338   1.914
16269W        W84632  26.099  43.349   3.694
16270W        W84633  42.933  38.866  14.294
16271W        W84634  33.125  18.581  10.569
16272W        W84635  15.119  23.684  14.413
16273W        W84636  28.673  27.957  10.955
16274W        W84637  10.837  13.804   3.329
16275W        W84638  28.669  40.483  10.507
16276W        W84639  28.563  31.631   4.165
16277W        W84640  13.720  33.618   3.658
16278W        W84641   1.891  22.707  12.050
16279W        W84642  32.516  13.153  11.908
16280W        W84643   2.897  16.726  13.964
16281W        W84644  24.120  29.604   4.276
16282W        W84645   1.766  15.672   3.773
16283W        W84646   2.403  12.814   1.882
16284W        W84647  22.669  36.072  12.992
16285W        W84648  17.716  11.732   2.816
16286W        W84649  13.225  21.637  13.351
16287W        W84650  14.197   5.721  10.121
16288W        W84651  38.533   9.261   3.705
16289W        W84652  24.480  40.302   3.318
16290W        W84653   4.784   4.266  11.607
16291W        W84654  21.696  11.813   0.320
16292W        W84655   4.752   1.336   2.857
16293W        W84656  41.820  27.480   1.283
16294W        W84657   2.446  42.486   4.773
16295W        W84658  18.079  35.503  14.996
16296W        W84659  25.102  32.617  14.489
16297W        W84660  37.992  21.039  14.833
16298W        W84661  39.430  34.602   1.253
16299W        W84662  33.108  14.299  10.616
16300W        W84663  42.861  42.914  10.611
16301W        W84664   2.343  17.638  11.592
16302W        W84665  12.132  40.053  12.426
16303W        W84666  14.633  11.329   1.821
16304W        W84667  14.625  15.098   4.696
16305W        W84668  33.057  19.699  11.485
16306W        W84669  30.488   4.814   9.960
16307W        W84670   3.325  18.619   4.624
16308W        W84671   7.897   0.749  14.375
16309W        W84672  20.559  38.546  13.802
16310W        W84673  42.333   6.813   4.834
16311W        W84674  18.682   6.204   2.418
16312W        W84675  28.489  12.730   2.899
16313W        W84676  26.056  14.297   3.863
16314W        W84677  22.586   6.343  13.386
16315W        W84678  24.585   2.422  14.288
16316W        W84679   6.326  16.147   4.315
16317W        W84680  27.468  17.560  13.395
16318W        W84681   4.912   5.794  13.001
16319W        W84682   6.807  28.661  14.467
16320W        W84683   6.397  26.516  10.558
16321W        W84684   4.349  14.170   0.417
16322W        W84685  18.637  14.610  13.930
16323W        W84686  12.798  42.030   2.252
16324W        W84687   8.200  18.246   1.356
16325W        W84688  41.493  27.560  12.540
16326W        W84689  10.662  19.750  14.404
16327W        W84690   7.806  26.154   0.317
16328W        W84691  16.302  26.520  14.819
16329W        W84692   1.835   5.759  10.497
16330W        W84693  14.748  17.118   1.888
16331W        W84694  23.174  19.085   1.893
16332W        W84695  28.096  37.509   2.215
16333W        W84696  37.834  13.606  10.483
16334W        W84697  29.665  19.094  11.080
16335W        W84698   6.863  31.466   0.329
16336W        W84699  23.565   0.277  11.856
16337W        W84700  30.153  32.411   3.737
16338W        W84701  35.431   8.355   2.756
16339W        W84702   8.174  35.861   4.332
16340W        W84703  27.643  40.411  12.438
16341W        W84704  23.233  26.530   0.757
16342W        W84705  24.196   4.842   0.921
16343W        W84706  31.501  24.526  13.370
16344W        W84707  20.695  24.218  14.962
16345W        W84708  16.576  22.664   4.787
16346W        W84709   4.239  20.611   1.315
16347W        W84710  11.666  39.532   1.448
16348W        W84711  37.513  25.161   4.261
16349W        W84712   5.933  36.052  13.366
16350W        W84713   6.348  24.228  14.489
16351W        W84714   1.926   5.356   4.615
16352W        W84715  41.936  42.852   3.338
16353W        W84716  25.987   5.746  13.964
16354W        W84717  20.270  15.179  13.368
16355W        W84718   5.276  34.604   0.306
16356W        W84719  14.266  22.516   3.239
16357W        W84720  38.928   8.826   2.849
16358W        W84721  37.944   9.227  12.085
16359W        W84722   4.301  44.903   3.249
16360W        W84723  25.985   4.781  12.088
16361W        W84724  27.142   4.878   3.747
16362W        W84725  28.068  37.505   3.806
16363W        W84726  17.723  35.512  12.905
16364W        W84727  37.498  35.089   5.212
16365W        W84728  21.611   3.304   3.278
16366W        W84729   6.418  30.653   4.698
16367W        W84730  43.392  21.152   0.744
16368W        W84731   7.289  37.941  14.367
16369W        W84732  12.827   5.247   0.956
16370W        W84733  25.079   6.787  12.872
16371W        W84734  32.997  10.349   3.204
16372W        W84735   7.905  43.358  14.421
16373W        W84736  42.351  38.553   0.346
16374W        W84737   4.313  11.198   3.804
16375W        W84738   3.372   1.415   4.634
16376W        W84739  43.782  12.268   2.821
16377W        W84740   6.698  25.577  14.860
16378W        W84741  42.490  20.648   3.632
16379W        W84742   9.698  40.502   1.735
16380W        W84743  36.919  26.676  14.907
16381W        W84744  36.561  19.233  10.969
16382W        W84745  28.524  10.866  14.875
16383W        W84746  32.529  35.906   1.386
16384W        W84747  12.150   0.955   2.350
16385W        W84748  40.377  44.309  10.585
16386W        W84749  24.985  40.481   3.186
16387W        W84750  40.477   0.842   5.169
16388W        W84751  39.382   6.696  14.326
16389W        W84752  23.556  27.615  14.424
16390W        W84753   1.355  28.944  11.548
16391W        W84754   7.720  23.554  11.031
16392W        W84755   1.324  14.748   0.859
16393W        W84756  26.191   0.332  10.463
16394W        W84757  32.627  16.123   1.440
16395W        W84758  43.473   8.216  10.960
16396W        W84759  30.038  20.246  12.508
16397W        W84760   4.348  15.266  13.500
16398W        W84761  27.158   1.805   3.800
16399W        W84762   6.351  37.338   1.362
16400W        W84763  34.493   8.163  10.516
16401W        W84764  39.862  37.463  12.537
16402W        W84765  26.011   1.792   2.230
16403W        W84766  39.510  19.673  13.535
16404W        W84767   7.743  25.618   3.323
16405W        W84768  37.072  17.761  10.493
16406W        W84769  41.872   4.835   3.643
16407W        W84770  17.634  18.641   0.471
16408W        W84771  11.853  12.288  12.891
16409W        W84772  31.020  31.546   0.758
16410W        W84773  30.144  14.314  13.490
16411W        W84774  36.469  10.218  11.023
16412W        W84775  39.533  32.017   3.679
16413W        W84776  37.409  21.560   3.274
16414W        W84777  29.066  42.458   2.194
16415W        W84778   2.466  20.604  13.995
16416W        W84779   7.262  26.118   0.455
16417W        W84780  18.740  13.152   4.311
16418W        W84781  10.273   7.671   3.182
16419W        W84782  21.722   8.859  10.579
16420W        W84783  31.132  41.831  10.573
16421W        W84784  40.905  18.719   0.825
16422W        W84785   2.225  44.939   4.638
16423W        W84786   8.776   9.228  12.418
16424W        W84787  13.313  17.064   3.367
16425W        W84788  28.026  27.633   0.304
16426W        W84789  34.902  33.595   5.248
16427W        W84790  13.688  14.736  13.988
16428W        W84791   7.783  11.804   4.267
16429W        W84792  24.227  16.220   2.782
16430W        W84793   9.386  41.369   4.731
16431W        W84794  33.387  35.543  10.425
16432W        W84795  29.620  42.887  13.518
16433W        W84796  12.213  40.384   0.464
16434W        W84797  34.076  35.950  12.048
16435W        W84798   5.284  28.126   1.896
16436W        W84799   2.915  16.156  13.041
16437W        W84800   3.446  20.577  11.968
16438W        W84801  39.026   2.741   2.296
16439W        W84802   2.920   6.200   0.873
16440W        W84803  44.286   9.667  11.955
16441W        W84804  33.574  42.486  11.875
16442W        W84805  36.085  25.144   0.454
16443W        W84806  40.341  10.845  10.575
16444W        W84807  15.709  19.164  12.823
16445W        W84808  40.806   5.811   1.882
16446W        W84809  39.922  32.524  10.994
16447W        W84810   1.292   7.708  13.523
16448W        W84811  29.959  35.481   1.708
16449W        W84812   6.726   2.265  11.020
16450W        W84813   2.906  40.947   2.715
16451W        W84814   0.836   5.933  13.883
16452W        W84815  39.855  17.724  13.986
16453W        W84816  41.490  38.353   3.798
16454W        W84817  10.636  17.601   3.861
16455W        W84818  25.559  39.900  10.561
16456W        W84819  18.596  37.509  11.035
16457W        W84820   0.762  15.290   2.879
16458W        W84821   9.352  40.864   4.224
16459W        W84822   0.487  43.914   1.371
16460W        W84823  37.846  15.806  10.458
16461W        W84824  33.087  36.359   2.683
16462W        W84825  38.540  32.569  10.529
16463W        W84826   3.722  16.687  14.873
16464W        W84827   3.720   6.299  11.488
16465W        W84828   0.254  44.900   4.144
16466W        W84829   8.193  11.174  13.968
16467W        W84830  33.417  39.962  13.381
16468W        W84831  20.192  27.184  11.601
16469W        W84832  17.681  10.713  11.102
16470W        W84833  10.382  44.920  14.277
16471W        W84834   7.825   3.410  12.043
16472W        W84835  40.052  42.514  11.037
16473W        W84836  13.286  36.351  11.048
16474W        W84837  11.755  25.216  10.437
16475W        W84838  23.647   3.748   1.352
16476W        W84839  41.403  11.661   2.723
16477W        W84840  11.659  28.442   0.780
16478W        W84841  15.588  43.847   1.363
16479W        W84842   3.236  33.913   2.816
16480W        W84843  26.469  21.512   3.793
16481W        W84844   0.450   8.665   4.741
16482W        W84845  30.120  17.635  10.424
16483W        W84846  20.535  13.198   0.816
16484W        W84847  43.512  40.875  10.473
16485W        W84848  13.753   8.831  10.445
16486W        W84849  44.307  33.930  12.997
16487W        W84850   0.782  33.082  14.494
16488W        W84851  30.494  39.866  10.471
16489W        W84852  16.252  10.257   0.342
16490W        W84853  41.442  36.985  12.566
16491W        W84854  26.964   4.331   1.743
16492W        W84855   0.430  23.002  12.084
16493W        W84856  11.284  41.031  12.926
16494W        W84857   0.269  44.400   0.876
16495W        W84858   6.833   1.781  14.420
16496W        W84859  14.102  13.637  10.475
16497W        W84860  44.385  10.257   2.689
16498W        W84861  30.658  26.015   3.375
16499W        W84862  20.141   5.855  10.963
16500W        W84863  20.726  12.786   2.383
16501W        W84864  20.590   2.802   1.915
16502W        W84865   0.753  22.187  11.121
16503W        W84866  29.521  16.259   4.760
16504W        W84867  41.989   0.466   1.325
16505W        W84868   3.955  24.222  10.452
16506W        W84869   5.424  44.929  11.915
16507W        W84870   6.218  29.654   0.817
16508W        W84871   5.843  12.299   3.232
16509W        W84872  17.765   1.955  10.493
16510W        W84873  34.041  19.690   1.792
16511W        W84874   9.200  10.661  11.054
16512W        W84875  37.005   4.865  10.926
16513W        W84876   2.418  39.452   3.811
16514W        W84877  30.946  27.064   3.149
16515W        W84878  14.737  24.996  12.480
16516W        W84879  27.131   2.884  13.901
16517W        W84880   7.754  18.109  13.919
16518W        W84881   8.660   9.716   3.837
16519W        W84882   1.875  15.098   4.132
16520W        W84883  29.475  21.230  12.824
16521W        W84884  38.900   3.339  14.382
16522W        W84885   4.439  32.572  13.881
16523W        W84886  36.974  41.913   3.692
16524W        W84887  16.763  27.000  14.790
16525W        W84888  13.326  34.394  14.918
16526W        W84889  26.016  35.050  12.904
16527W        W84890   5.709  36.477  10.536
16528W        W84891  39.353  33.466  13.041
16529W        W84892  28.617  44.782   0.806
16530W        W84893  29.082  20.547  14.427
16531W        W84894   8.682   8.803  12.488
16532W        W84895   7.372   5.787  12.536
16533W        W84896  26.123  28.569  12.005
16534W        W84897  10.632  42.319   3.767
16535W        W84898  10.638  24.990   1.917
16536W        W84899   0.254   5.258   1.847
16537W        W84900  40.864  35.875  13.984
16538W        W84901  36.356  21.178  14.779
16539W        W84902  19.103   6.407  13.920
16540W        W84903   8.203   7.704  12.562
16541W        W84904  19.110   6.373   2.803
16542W        W84905  39.519   9.375  13.473
16543W        W84906  40.377  27.943   2.670
16544W        W84907   4.375   3.934   2.234
16545W        W84908   3.266   0.894  13.916
16546W        W84909  25.113  44.285  11.471
16547W        W84910   3.337   0.843  14.861
16548W        W84911   2.242   3.335   1.319
16549W        W84912  26.491  22.737   4.812
16550W        W84913  26.106  43.841  11.448
16551W        W84914  21.099  35.407  14.860
16552W        W84915  36.456  28.638   0.792
16553W        W84916  28.059  23.582   3.778
16554W        W84917  44.384  25.188  11.076
16555W        W84918  23.602   0.468   4.338
16556W        W84919  20.689  32.026  12.857
16557W        W84920  15.233  14.150   0.911
16558W        W84921  36.945  15.289   3.842
16559W        W84922   9.653  42.805  10.957
16560W        W84923  25.022  27.631  13.958
16561W        W84924  37.470  22.175   1.236
16562W        W84925  36.021  29.115  12.834
16563W        W84926  43.948  27.048  11.124
16564W        W84927  42.957  43.409  14.832
16565W        W84928  22.037  26.587  14.920
16566W        W84929   0.445  41.418  11.960
16567W        W84930  30.010  16.295  12.436
16568W        W84931  16.660   1.850  13.391
16569W        W84932  40.003  13.809   0.447
16570W        W84933  41.406   4.783   0.432
16571W        W84934  32.090  16.135  13.796
16572W        W84935  17.746   0.338   1.777
16573W        W84936  30.998  31.997  12.842
16574W        W84937  28.665   4.232  12.501
16575W        W84938   9.164  35.358  13.353
16576W        W84939  26.457   5.754   2.296
16577W        W84940  14.103   3.740   3.238
16578W        W84941  33.601  34.100  12.466
16579W        W84942  43.950  30.134   4.218
16580W        W84943  23.067  39.892  13.361
16581W        W84944  16.098  10.781   3.379
16582W        W84945  11.183  32.972   2.409
16583W        W84946   6.822   5.240  13.333
16584W        W84947  30.490  22.675  10.453
16585W        W84948  21.709   8.709  14.369
16586W        W84949  12.777   0.493  10.539
16587W        W84950   6.413  39.386  10.638
16588W        W84951  12.270  41.485  14.992
16589W        W84952  11.638  43.305  11.089
16590W        W84953  12.260   8.694   2.359
16591W        W84954  35.427  43.343   0.843
16592W        W84955   7.343  21.551  10.462
16593W        W84956  33.985  16.227  14.029
16594W        W84957  37.039  31.955   4.329
16595W        W84958   5.286  10.161   0.363
16596W        W84959  19.240  20.697  13.526
16597W        W84960  40.520  41.909   2.796
16598W        W84961   9.778  16.737   1.272
16599W        W84962  43.381   5.389   3.233
16600W        W84963   3.828  12.715   4.156
16601W        W84964  16.293  31.638  11.477
16602W        W84965  41.864   2.810  14.419
16603W        W84966  35.387  29.926   2.882
16604W        W84967  41.892  31.555   0.481
16605W        W84968  24.648   8.236   3.358
16606W        W84969  26.953  40.322  10.140
16607W        W84970  19.218  26.604  12.066
16608W        W84971  22.190  40.436  12.574
16609W        W84972  12.331  25.178  12.078
16610W        W84973  22.165  43.805   4.293
16611W        W84974   1.471  32.915  12.929
16612W        W84975   2.927  21.019  12.900
16613W        W84976  30.112  15.096  13.449
16614W        W84977   4.344  21.039  11.555
16615W        W84978   8.794  31.531  12.540
16616W        W84979   1.398  24.661  11.396
16617W        W84980  19.616  35.090   1.271
16618W        W84981  26.028  11.862   4.277
16619W        W84982  10.646  10.156  13.008
16620W        W84983   0.842  27.056   3.191
16621W        W84984  11.362  22.065  13.386
16622W        W84985   0.892   0.828  12.013
16623W        W84986  42.520  28.518   0.457
16624W        W84987  43.816  12.640  12.912
16625W        W84988  39.936   0.433   3.668
16626W        W84989   2.399   3.943  13.539
16627W        W84990   9.653  25.713  13.044
16628W        W84991   0.470  44.415  11.995
16629W        W84992  43.412  16.313  14.368
16630W        W84993  32.931   1.370  13.383
16631W        W84994  10.300  41.310   1.925
16632W        W84995  10.672  34.067  10.550
16633W        W84996  36.888  20.268   4.729
16634W        W84997  29.440   7.375   3.797
16635W        W84998   9.287  27.668   0.907
16636W        W84999  29.064   5.871   1.288
16637W        W85000  28.606  19.643  12.065
16638W        W85001   0.862   6.884   1.279
16639W        W85002  19.553   8.871  10.498
16640W        W85003   1.749  16.805  13.063
16641W        W85004  42.466  16.173   4.662
16642W        W85005   5.224  12.819   0.852
16643W        W85006  43.861  25.644   3.808
16644W        W85007  32.473  39.489  14.492
16645W        W85008  39.045  24.570  12.380
16646W        W85009  18.220  15.224   1.428
16647W        W85010  27.578  19.091  14.797
16648W        W85011  39.943  42.403   1.904
16649W        W85012  10.358  28.051  13.883
16650W        W85013  38.506  20.166   0.377
16651W        W85014   8.260  25.963   4.182
16652W        W85015  18.787   2.817  14.009
16653W        W85016   1.419   8.280   1.737
16654W        W85017  12.189  17.657   2.380
16655W        W85018  36.064  36.999  13.831
16656W        W85019  23.128  32.957   1.769
16657W        W85020  12.781  19.693   0.284
16658W        W85021   4.396  27.653  14.886
16659W        W85022  35.437   6.824  10.486
16660W        W85023  21.235  34.117  13.852
16661W        W85024  12.754   0.984  14.894
16662W        W85025  24.224  18.071   2.683
16663W        W85026  32.423  11.349  13.908
16664W        W85027  42.910  30.024   0.336
16665W        W85028  24.129  14.765  12.983
16666W        W85029  21.082   1.779  12.933
16667W        W85030  43.510  33.969   2.779
16668W        W85031  31.134  36.024   4.189
16669W        W85032  28.953  41.984  14.913
16670W        W85033  40.993   9.787   0.327
16671W        W85034  24.213  16.270  10.620
16672W        W85035   9.672  33.554  10.988
16673W        W85036  40.420   6.243  13.514
16674W        W85037   2.762   2.770  12.854
16675W        W85038  43.337   7.374  14.983
16676W        W85039  21.022  43.997  13.367
16677W        W85040   0.785  30.592  11.461
16678W        W85041  33.888  40.531  12.841
16679W        W85042  14.177  15.624  11.864
16680W        W85043  13.662  30.611  14.439
16681W        W85044  43.445  28.462  12.562
16682W        W85045  37.488   6.216   1.232
16683W        W85046  26.519   1.763   3.719
16684W        W85047  13.686  12.841   2.804
16685W        W85048   8.231  21.138  13.334
16686W        W85049  11.791   6.884   1.881
16687W        W85050  34.533  29.465   0.915
16688W        W85051  37.535  11.622   1.432
16689W        W85052  33.615  14.600  12.402
16690W        W85053  16.293   6.781  13.843
16691W        W85054  26.038  40.936  13.969
16692W        W85055  40.951  43.801   2.832
16693W        W85056  30.139  12.330  12.943
16694W        W85057  13.196  14.637   4.724
16695W        W85058  13.722  30.482  11.881
16696W        W85059   1.397   9.865  13.940
16697W        W85060   1.920   9.729  11.586
16698W        W85061   0.863  13.276   0.307
16699W        W85062  40.033  12.153   3.194
16700W        W85063  39.516  20.089   3.330
16701W        W85064  13.671   5.224  14.879
16702W        W85065   6.877  31.466  13.407
16703W        W85066  30.006  38.834   2.732
16704W        W85067   3.406  42.339  13.912
16705W        W85068   2.933   8.660  13.454
16706W        W85069  20.251   3.219   4.640
16707W        W85070  23.604  23.119   0.833
16708W        W85071  44.319   0.815  12.931
16709W        W85072  11.806   4.789  13.994
16710W        W85073  23.569  27.454   0.332
16711W        W85074  22.190  43.388   3.192
16712W        W85075  44.786   5.388  10.515
16713W        W85076  29.478  33.383   0.842
16714W        W85077  24.492  32.413   3.209
16715W        W85078  44.964  27.128   3.778
16716W        W85079  42.527   2.899  11.408
16717W        W85080  12.624  42.329   1.734
16718W        W85081  17.268   7.265   3.165
16719W        W85082   8.209  10.662   1.332
16720W        W85083  40.348   6.373   1.214
16721W        W85084  39.401  28.078   1.814
16722W        W85085  20.221   3.764   4.223
16723W        W85086  27.589  23.673   1.413
16724W        W85087  43.926  33.908   3.634
16725W        W85088  16.706  10.194   2.343
16726W        W85089  10.313  18.275   0.792
16727W        W85090  15.792  18.744  14.339
16728W        W85091  12.170  23.662  14.850
16729W        W85092  16.180  31.027  12.993
16730W        W85093   7.196  18.115  12.831
16731W        W85094  40.453  14.657   1.735
16732W        W85095  42.914  20.736  13.824
16733W        W85096  34.887  29.458  11.924
16734W        W85097   4.396  11.282  14.835
16735W        W85098  25.177  36.921   2.369
16736W        W85099  28.657  31.936  14.860
16737W        W85100   1.887  30.611   2.304
16738W        W85101  42.307  19.198  13.498
16739W        W85102   5.689  15.627  11.478
16740W        W85103  44.875  40.369  10.986
16741W        W85104  40.017  10.340  10.130
16742W        W85105   8.299   4.412  13.016
16743W        W85106  42.499  40.948   3.723
16744W        W85107   6.853  31.580   1.800
16745W        W85108  33.875  15.665   3.305
16746W        W85109   1.911  40.985  10.557
16747W        W85110   2.811   9.877   0.265
16748W        W85111  34.613   7.715   4.602
16749W        W85112  42.334  28.115   3.228
16750W        W85113  28.435  35.857  12.849
16751W        W85114  22.720  41.362  13.383
16752W        W85115  26.680  30.624  12.543
16753W        W85116  29.061   9.239  13.309
16754W        W85117  31.529  11.638  12.358
16755W        W85118   2.386  33.010  10.450
16756W        W85119  41.419   5.850   1.280
16757W        W85120  32.397  18.785   1.935
16758W        W85121  27.047  24.058  10.903
16759W        W85122   0.804  21.243  10.964
16760W        W85123  35.569   9.342  14.028
16761W        W85124  14.609  38.989   3.150
16762W        W85125  32.983  15.723  11.941
16763W        W85126  33.130  15.586  12.828
16764W        W85127  35.439  30.481   3.281
16765W        W85128  32.569  40.525  12.369
16766W        W85129  16.688  40.378  13.432
16767W        W85130   6.796  42.398   0.266
16768W        W85131  12.820   4.437  10.627
16769W        W85132  16.298  23.540  14.889
16770W        W85133  31.496  41.969  12.881
16771W        W85134  17.134  15.630   2.369
16772W        W85135   4.786  27.149   3.870
16773W        W85136   2.919   2.421  11.401
16774W        W85137  39.534  27.638  11.529
16775W        W85138   3.303   6.882  11.452
16776W        W85139  11.139  32.081   2.706
16777W        W85140   9.332  25.663   4.346
16778W        W85141   2.799  34.878  10.483
16779W        W85142  16.782  32.430   3.688
16780W        W85143  19.594   1.767  11.945
16781W        W85144  29.146  43.422   1.384
16782W        W85145  41.017  12.325   0.297
16783W        W85146  15.180  39.008  14.511
16784W        W85147  24.184  15.102  10.597
16785W        W85148  16.251  28.956  14.778
16786W        W85149  12.847  11.170   3.250
16787W        W85150  40.828  19.197  13.413
16788W        W85151  20.646  20.541  12.869
16789W        W85152  35.424  24.697  13.382
16790W        W85153   7.265  44.870   1.233
16791W        W85154  41.375  27.951   3.331
16792W        W85155  25.178  16.175   0.775
16793W        W85156   0.424   4.727  12.971
16794W        W85157   9.653  43.906  12.009
16795W        W85158  21.749  13.158  13.424
16796W        W85159  35.583  21.163  13.947
16797W        W85160   0.338  11.755  11.486
16798W        W85161  38.025  13.822   9.487
16799W        W85162  16.798   8.764   1.806
16800W        W85163  16.080  36.530  14.422
16801W        W85164  34.874  27.014   3.303
16802W        W85165   5.909  20.643   3.799
16803W        W85166  14.193  14.094  11.034
16804W        W85167   4.410  35.858   2.767
16805W        W85168  16.614  35.079   3.227
16806W        W85169  18.061  31.623  10.599
16807W        W85170  15.728   0.939  11.005
16808W        W85171  33.467  14.678  13.489
16809W        W85172  17.095  44.377   5.693
16810W        W85173  12.644  18.073  12.825
16811W        W85174  32.000  35.070   2.229
16812W        W85175  33.454  10.235  12.855
16813W        W85176  12.123   1.271  14.979
16814W        W85177  12.350  38.347  10.541
16815W        W85178  35.489  31.993  14.030
16816W        W85179  15.232  39.917   0.957
16817W        W85180   2.856   3.759   0.958
16818W        W85181  39.351  40.904  14.343
16819W        W85182  24.597  39.914  14.413
16820W        W85183  15.590  20.134   3.818
16821W        W85184  36.432   6.831   2.822
16822W        W85185   4.316   2.836   3.671
16823W        W85186  17.702  11.677   3.274
16824W        W85187  40.920  23.507  11.991
16825W        W85188  34.454  44.268  13.382
16826W        W85189  19.086  22.585  14.844
16827W        W85190  22.726   7.677  13.024
16828W        W85191  43.891  32.471   0.939
16829W        W85192   7.245  42.975   3.842
16830W        W85193  27.564  14.230   2.837
16831W        W85194  21.725  42.984  13.988
16832W        W85195  14.328  22.690   1.429
16833W        W85196  32.445   5.763  10.955
16834W        W85197  32.622  22.188  11.987
16835W        W85198  33.106  41.490   2.347
16836W        W85199  37.357  25.017  12.366
16837W        W85200   2.330  25.002  14.917
16838W        W85201  29.020  11.843   1.301
16839W        W85202  29.055  31.605  11.501
16840W        W85203  10.874   5.881  10.641
16841W        W85204   1.832  43.858   0.258
16842W        W85205  44.754  44.273   0.743
16843W        W85206  30.467  28.646  14.032
16844W        W85207  41.516   6.359   3.222
16845W        W85208  19.757  33.876  12.567
16846W        W85209  17.592  35.538  12.428
16847W        W85210  10.794  32.391   3.675
16848W        W85211  16.241   4.431   3.769
16849W        W85212  23.593  19.121   2.795
16850W        W85213  33.524  24.593  10.505
16851W        W85214  39.460  44.269  13.029
16852W        W85215  25.215  19.250  11.433
16853W        W85216  27.454  42.824   3.687
16854W        W85217  24.579  31.042   0.898
16855W        W85218   0.809  10.692  13.936
16856W        W85219  16.805  10.145   4.127
16857W        W85220  14.616   3.771   4.809
16858W        W85221  42.468  34.378   3.817
16859W        W85222  39.400  10.336   4.155
16860W        W85223   4.795  12.351   2.344
16861W        W85224  44.343  14.248   2.411
16862W        W85225  24.180  22.997   3.778
16863W        W85226  31.485  41.474   4.830
16864W        W85227  14.753  19.716  13.793
16865W        W85228  10.275  20.187   5.083
16866W        W85229  11.358  13.710  12.896
16867W        W85230  20.671  38.917   2.276
16868W        W85231   6.338  40.009   9.938
16869W        W85232   5.817  42.372   4.612
16870W        W85233  25.055  19.644   4.812
16871W        W85234   9.818   3.311   1.376
16872W        W85235   7.207  37.928   1.221
16873W        W85236  37.033  21.124   2.277
16874W        W85237  22.192  39.470   3.765
16875W        W85238   1.246   5.370   0.932
16876W        W85239  26.040  29.131  13.479
16877W        W85240  32.613   0.766  11.912
16878W        W85241   4.351  35.365  13.383
16879W        W85242   1.438  30.954   4.186
16880W        W85243  35.073  36.418   3.858
16881W        W85244  25.526  16.132  14.928
16882W        W85245  42.961  27.003   3.752
16883W        W85246  10.376  14.229  14.469
16884W        W85247  24.185  15.179   4.772
16885W        W85248   4.412  40.325   3.175
16886W        W85249  21.722  32.974   1.714
16887W        W85250  20.563  17.748   3.752
16888W        W85251  40.372  12.748   3.368
16889W        W85252   4.723  27.646  11.488
16890W        W85253  35.564  30.508  11.126
16891W        W85254  21.718  37.899  11.066
16892W        W85255  28.966  32.604  13.839
16893W        W85256  30.479  19.176  12.979
16894W        W85257   7.194  15.586  13.319
16895W        W85258   8.673  31.466  14.815
16896W        W85259  19.153  41.953   3.155
16897W        W85260  38.006   9.380  11.570
16898W        W85261  41.833  33.520  14.379
16899W        W85262   6.208  30.519  13.507
16900W        W85263   0.800  19.599  12.535
16901W        W85264  20.098  34.902   2.352
16902W        W85265  20.226  28.582  12.897
16903W        W85266  26.157  28.620   3.202
16904W        W85267  18.700  27.483   1.421
16905W        W85268  22.126   7.716  13.390
16906W        W85269  34.055   9.332   0.848
16907W        W85270   3.823  44.004   4.818
16908W        W85271  42.434  19.560   2.261
16909W        W85272  30.474  39.375  12.024
16910W        W85273  37.928  19.658  14.893
16911W        W85274  18.150  36.976   0.392
16912W        W85275  42.342  42.340   2.315
16913W        W85276  18.111  29.628   4.610
16914W        W85277  12.708  14.683  10.638
16915W        W85278  18.548  11.307   4.229
16916W        W85279  27.021  25.140  12.394
16917W        W85280  14.611  40.512  14.938
16918W        W85281  35.900   1.923  12.984
16919W        W85282   2.345   3.291   2.892
16920W        W85283  40.998  23.215  10.637
16921W        W85284  21.750   1.937   4.132
16922W        W85285   0.440  20.221   3.750
16923W        W85286  39.331   0.420   4.802
16924W        W85287  42.470  18.576  11.545
16925W        W85288  33.029   1.394  14.402
16926W        W85289  13.663  44.795  11.869
16927W        W85290  34.901  10.865   2.694
16928W        W85291  42.435   3.939  14.959
16929W        W85292  43.862  43.515   4.303
16930W        W85293  23.658  22.575  10.547
16931W        W85294  29.652  41.321   2.826
16932W        W85295   1.958  23.611   1.299
16933W        W85296   6.401  18.555  12.492
16934W        W85297  33.109  13.335   4.830
16935W        W85298   6.420   9.330   0.451
16936W        W85299  12.248  35.551  11.401
16937W        W85300  32.078  13.814   2.882
16938W        W85301  36.006  32.045  11.077
16939W        W85302  44.491   5.841  12.427
16940W        W85303  10.322   9.208  11.552
16941W        W85304  20.652  13.258  10.889
16942W        W85305   9.799  25.551   0.785
16943W        W85306  16.687  38.470   2.787
16944W        W85307  23.105   1.957   0.916
16945W        W85308  35.978  15.297  10.550
16946W        W85309  12.328   6.212   4.705
16947W        W85310  32.519  42.331   0.478
16948W        W85311  16.079   4.348  14.775
16949W        W85312  39.477  42.839   3.688
16950W        W85313  25.964  19.692  14.959
16951W        W85314  35.530  18.712  10.966
16952W        W85315   1.241   0.944  13.336
16953W        W85316  32.928  36.479  10.494
16954W        W85317  34.371  39.412   4.127
16955W        W85318  21.709  32.070   1.928
16956W        W85319  43.376  19.180   2.787
16957W        W85320  39.813  28.067  10.616
16958W        W85321  17.691  36.591   0.448
16959W        W85322   4.787  25.058  13.875
16960W        W85323  38.513   2.939  12.061
16961W        W85324  24.531  30.092   0.405
16962W        W85325  11.130  19.045  11.494
16963W        W85326  14.729  41.876  13.801
16964W        W85327  29.111  26.208  14.961
16965W        W85328  42.373  32.443  14.462
16966W        W85329   8.781  16.674   2.695
16967W        W85330  11.759  37.074  11.873
16968W        W85331   6.726   5.203   3.265
16969W        W85332  25.182  41.016  11.036
16970W        W85333  28.125   8.233   4.631
16971W        W85334  29.089  37.450  13.373
16972W        W85335  23.670  35.002   4.809
16973W        W85336  11.192  44.784   1.351
16974W        W85337  43.967  40.889  12.941
16975W        W85338  19.656  17.129   2.826
16976W        W85339  33.102   2.938  11.437
16977W        W85340  25.170  42.785  13.929
16978W        W85341  23.559  33.102   4.682
16979W        W85342   5.730  39.473  13.939
16980W        W85343  27.492  33.074   0.732
16981W        W85344  16.661   8.227  14.887
16982W        W85345   6.866  27.139   3.679
16983W        W85346  12.277  41.861  11.494
16984W        W85347   6.338  26.009  12.416
16985W        W85348  13.252  16.773   3.191
16986W        W85349  38.477   7.187  14.359
16987W        W85350  23.050  16.087   1.243
16988W        W85351  30.104  39.430   4.619
16989W        W85352   9.268  14.098  14.813
16990W        W85353  16.611  41.388  11.975
16991W        W85354  28.016   2.894  11.432
16992W        W85355  32.902  22.734   3.173
16993W        W85356   1.294  22.009  14.340
16994W        W85357   3.273  21.090   2.358
16995W        W85358  30.110  25.665   0.918
16996W        W85359  23.730  29.565   3.330
16997W        W85360  38.833  21.038   4.618
16998W        W85361  24.500  26.664   1.935
16999W        W85362  27.642  17.120   4.827
17000W        W85363   3.217  38.343  11.032
17001W        W85364  16.163  16.257  10.992
17002W        W85365  19.548  34.432  11.495
17003W        W85366  12.295   6.697   4.328
17004W        W85367   3.273  10.660  12.567
17005W        W85368   9.362   5.333  12.046
17006W        W85369   1.809  28.004  14.280
17007W        W85370  33.042  22.513   1.865
17008W        W85371   4.440   8.664   0.886
17009W        W85372  19.239  10.685  11.953
17010W        W85373  17.798  39.813  13.398
17011W        W85374  26.178  23.679  11.430
17012W        W85375  34.584  13.215   3.317
17013W        W85376   4.267   0.409   3.695
17014W        W85377  35.548  12.126  12.374
17015W        W85378  37.897  29.047  13.808
17016W        W85379   9.273  31.454   4.231
17017W        W85380  26.189  41.440  10.445
17018W        W85381   3.267  21.513   3.378
17019W        W85382  43.363  35.494   2.300
17020W        W85383  35.953  12.699  10.549
17021W        W85384   2.426  18.097   3.324
17022W        W85385  23.166  33.549  10.519
17023W        W85386  31.104  15.593  10.410
17024W        W85387  33.555   4.862   0.948
17025W        W85388  40.964  37.578   3.761
17026W        W85389  16.145  32.391  10.533
17027W        W85390  34.910   5.907  10.931
17028W        W85391  38.850  20.532   3.776
17029W        W85392   9.246   0.745  10.565
17030W        W85393  12.320  24.709   1.798
17031W        W85394  36.573  44.417  12.998
17032W        W85395  17.093  38.824   0.313
17033W        W85396  13.115  11.353  11.950
17034W        W85397   6.839   9.731  14.310
17035W        W85398  42.350  36.484   4.227
17036W        W85399  25.962  16.157   9.523
17037W        W85400  34.963  44.884  10.108
17038W        W85401  32.060  24.572   1.766
17039W        W85402  20.740  41.038  13.823
17040W        W85403  35.017  20.162   3.165
17041W        W85404  29.574  22.648   3.779
17042W        W85405  30.653  28.084   1.244
17043W        W85406  33.073  27.465  13.308
17044W        W85407  34.419  30.104   2.857
17045W        W85408  32.926  39.402  11.507
17046W        W85409   9.748  42.941   1.451
17047W        W85410  19.144  12.709   3.800
17048W        W85411  11.235  19.547  10.436
17049W        W85412  11.288  31.550  10.477
17050W        W85413  16.586  12.831   3.786
17051W        W85414   4.359  10.200  11.513
17052W        W85415   0.318  33.590  11.459
17053W        W85416  21.533  31.461  12.488
17054W        W85417  44.924   3.768  11.899
17055W        W85418   8.723  40.335  11.034
17056W        W85419  23.710   4.302   2.714
17057W        W85420  14.735  35.466  12.837
17058W        W85421  42.928  39.523   2.214
17059W        W85422  26.049  39.383   0.386
17060W        W85423  35.941   2.230   3.204
17061W        W85424  15.117  42.446  12.852
17062W        W85425  36.094  44.004   0.759
17063W        W85426  27.495   0.853  11.968
17064W        W85427  12.788  29.086   2.726
17065W        W85428  26.010  25.561   4.699
17066W        W85429  42.003  21.757   4.729
17067W        W85430  34.452  32.043  10.910
17068W        W85431  35.494  41.810  12.941
17069W        W85432   0.277   0.364  11.872
17070W        W85433  25.043   7.788   1.704
17071W        W85434  17.091  16.765  12.535
17072W        W85435   7.396  26.566  11.930
17073W        W85436  20.742  14.704  14.390
17074W        W85437   7.280  18.720  11.601
17075W        W85438  27.017  40.543   0.800
17076W        W85439   7.768   9.340  13.809
17077W        W85440   3.248  16.245  14.880
17078W        W85441  22.144  37.388  14.377
17079W        W85442  21.146  39.925   0.448
17080W        W85443  12.150  44.340  14.490
17081W        W85444  18.212  31.012  14.999
17082W        W85445  31.452  24.516   3.711
17083W        W85446  32.979  14.736  10.438
17084W        W85447  20.127   2.919  12.354
17085W        W85448  32.530  26.167   0.858
17086W        W85449   3.288  17.704  12.484
17087W        W85450  30.923  38.525   4.801
17088W        W85451  36.051   1.476   3.790
17089W        W85452  23.126  39.350  14.384
17090W        W85453  14.645  33.573  10.579
17091W        W85454  40.904   9.298   4.640
17092W        W85455  43.892  23.220   2.350
17093W        W85456  17.162  22.225  13.919
17094W        W85457   6.237   5.388   3.332
17095W        W85458  11.154  27.134   2.313
17096W        W85459   0.450  19.273   4.333
17097W        W85460  20.090  20.536   2.243
17098W        W85461  35.470  24.539   2.729
17099W        W85462  32.108  29.157   3.632
17100W        W85463  28.023   2.765   2.344
17101W        W85464   9.856  43.984  12.886
17102W        W85465  17.075   5.865   3.692
17103W        W85466  15.673  41.880  14.384
17104W        W85467  22.630  18.237  13.496
17105W        W85468  28.630  10.250  12.936
17106W        W85469  32.915   1.749  14.002
17107W        W85470  22.064  10.160   0.321
17108W        W85471  14.257  40.351  14.835
17109W        W85472  34.524   0.345  10.954
17110W        W85473  22.032  39.063   1.696
17111W        W85474  18.129   8.895   5.117
17112W        W85475   4.743  20.699  14.987
17113W        W85476  25.987  42.023  13.959
17114W        W85477  39.818  40.463   2.751
17115W        W85478  42.347  17.576  13.897
17116W        W85479  19.561  37.526  12.544
17117W        W85480  18.787  32.551   1.784
17118W        W85481  36.046  29.061   3.762
17119W        W85482  35.393  25.005  11.001
17120W        W85483  41.920   6.369   3.689
17121W        W85484   6.842  11.138   3.670
17122W        W85485  11.848  39.973  13.319
17123W        W85486  29.959  11.297   4.138
17124W        W85487  29.132   7.322   1.213
17125W        W85488  25.057  44.767   2.765
17126W        W85489  17.110  14.813   1.812
17127W        W85490  28.565  36.476   1.356
17128W        W85491   4.811  31.447  14.965
17129W        W85492  40.514  25.470  14.956
17130W        W85493  30.138  30.430  14.293
17131W        W85494  30.560  17.683  12.561
17132W        W85495  40.980   0.461  10.619
17133W        W85496  38.343  28.146  10.504
17134W        W85497  20.140  18.253  14.385
17135W        W85498  23.560  21.247   0.903
17136W        W85499  11.750  13.272  10.903
17137W        W85500  12.219  20.648  13.434
17138W        W85501  35.933   6.199   0.787
17139W        W85502  22.742  20.245  13.378
17140W        W85503  17.763  14.822   4.747
17141W        W85504  13.744  38.951  10.523
17142W        W85505  36.554  17.624  14.889
17143W        W85506  26.634  43.018  12.486
17144W        W85507   3.343  15.581   0.433
17145W        W85508  12.667  28.001  12.439
17146W        W85509   6.399  35.905   3.336
17147W        W85510  11.241  21.755  14.277
17148W        W85511   3.216   1.899  12.918
17149W        W85512  33.108   9.201  12.409
17150W        W85513  28.677  31.539   3.660
17151W        W85514  16.128  16.702  12.427
17152W        W85515  19.573   3.309   0.309
17153W        W85516  31.412  15.715   2.298
17154W        W85517  24.202  15.640   1.420
17155W        W85518   4.242   9.191   3.220
17156W        W85519  19.598  29.924   4.816
17157W        W85520  39.539   4.322  14.420
17158W        W85521  40.955  12.343  11.020
17159W        W85522  27.064   1.379   1.286
17160W        W85523  39.979  43.466  12.534
17161W        W85524  19.062  14.777  12.033
17162W        W85525   9.709  27.964   4.300
17163W        W85526   0.880  15.315   1.416
17164W        W85527  18.704  32.073   0.790
17165W        W85528  36.503  22.240   0.246
17166W        W85529  36.531  12.694  10.601
17167W        W85530  41.364  41.843  14.431
17168W        W85531  23.044  11.338  11.449
17169W        W85532  16.102   2.438  10.908
17170W        W85533  32.070   2.324   3.151
17171W        W85534  39.016  10.823  14.767
17172W        W85535   8.290  10.268  11.459
17173W        W85536  10.302  31.940  10.616
17174W        W85537   1.249  14.658  10.926
17175W        W85538   3.271   0.794   3.291
17176W        W85539  16.662   4.757  13.864
17177W        W85540  32.396   3.813  14.904
17178W        W85541  42.995   9.658   0.890
17179W        W85542  18.146  29.163   0.246
17180W        W85543  35.880  11.228  12.370
17181W        W85544  23.651  37.371  13.343
17182W        W85545  26.042  18.784  11.607
17183W        W85546  14.831  38.880  11.908
17184W        W85547  21.584  23.506  13.916
17185W        W85548  15.312  22.134  14.511
17186W        W85549  36.023   0.300   0.326
17187W        W85550  28.557   7.276   1.391
17188W        W85551  22.096   9.797   0.450
17189W        W85552   6.409  18.568  11.589
17190W        W85553  36.453  23.534  10.557
17191W        W85554  32.578  41.504  13.940
17192W        W85555  32.952  17.289  11.999
17193W        W85556   2.464  36.574  14.822
17194W        W85557   5.295  28.486  11.873
17195W        W85558  30.573  42.832   0.339
17196W        W85559   6.308  23.140  12.923
17197W        W85560  25.064  24.652  12.532
17198W        W85561  18.551  39.855   3.801
17199W        W85562  14.599  18.280  11.408
17200W        W85563   9.354   4.812  10.636
17201W        W85564  24.543   9.760   0.419
17202W        W85565  19.749  14.156   4.353
17203W        W85566  40.915   9.152  12.971
17204W        W85567  34.559  27.022  13.016
17205W        W85568  40.054  27.109   0.316
17206W        W85569  17.092  37.531   0.906
17207W        W85570   6.187  36.919  10.899
17208W        W85571  42.815  34.067  14.348
17209W        W85572  30.113  35.008   0.276
17210W        W85573  15.699  30.162  11.436
17211W        W85574   4.426  14.187  13.006
17212W        W85575   7.852  17.071   1.321
17213W        W85576  30.043  44.828  12.898
17214W        W85577   0.250  30.969  13.860
17215W        W85578  20.607  28.129  12.525
17216W        W85579  13.831   4.775  13.818
17217W        W85580  13.764   0.263  14.011
17218W        W85581  40.378   3.332  10.019
17219W        W85582  30.624  31.512  13.871
17220W        W85583  13.751  23.725   0.915
17221W        W85584  14.741  26.466  10.150
17222W        W85585  17.714  13.251   4.788
17223W        W85586   3.860   1.355   0.423
17224W        W85587  15.198  34.380  12.076
17225W        W85588  31.986  10.296  10.978
17226W        W85589  14.138   4.447  10.996
17227W        W85590   4.755  11.333  11.529
17228W        W85591  40.832  35.423   3.837
17229W        W85592  39.532   5.710   2.686
17230W        W85593  34.437  17.253  12.906
17231W        W85594  39.431  32.592  10.913
17232W        W85595  30.557   7.840  12.466
17233W        W85596  20.670  31.083  14.474
17234W        W85597  44.787  19.627   2.266
17235W        W85598   4.858  24.588  13.497
17236W        W85599   7.297  35.924  14.775
17237W        W85600  24.635  24.080  14.970
17238W        W85601  21.107   0.932   4.786
17239W        W85602  29.019  13.636   4.275
17240W        W85603  38.962  25.163   1.899
17241W        W85604  20.203   0.314  10.488
17242W        W85605  33.597   5.756   3.801
17243W        W85606   4.891  25.194   3.177
17244W        W85607   4.381   3.823  14.417
17245W        W85608  28.491  13.184  12.524
17246W        W85609   1.346  15.660  14.483
17247W        W85610   5.223   1.478   2.366
17248W        W85611  30.440  41.793   2.301
17249W        W85612  44.922  44.888  10.644
17250W        W85613  41.416  11.737   4.149
17251W        W85614   1.780  41.528   0.262
17252W        W85615  38.925  18.580  11.598
17253W        W85616  22.209   5.930   2.799
17254W        W85617  31.965  41.903   4.684
17255W        W85618  43.848   4.765   4.766
17256W        W85619  32.446  37.951  11.582
17257W        W85620  31.570  25.713   3.307
17258W        W85621  43.009  27.456   2.214
17259W        W85622   0.797  14.623   2.808
17260W        W85623  34.401  12.327   1.358
17261W        W85624   8.210  34.109   2.801
17262W        W85625  19.199  30.933   3.238
17263W        W85626  10.269  28.645   3.864
17264W        W85627  33.486  37.000   1.336
17265W        W85628  24.557  33.029   4.726
17266W        W85629   4.791  23.645  14.914
17267W        W85630  38.359  42.940  13.922
17268W        W85631  30.625   6.303  10.514
17269W        W85632   0.479  15.244   1.824
17270W        W85633  40.893  36.972   0.303
17271W        W85634  41.872   5.388  14.398
17272W        W85635  43.341  19.202  12.347
17273W        W85636  19.549  21.686  11.864
17274W        W85637  34.896  33.115   3.248
17275W        W85638  35.551   5.789  10.416
17276W        W85639  35.035  37.343   4.287
17277W        W85640  22.207  22.699  12.438
17278W        W85641  20.679  32.086  11.542
17279W        W85642  32.605  27.030  13.060
17280W        W85643  41.494  34.109  14.918
17281W        W85644  23.080   9.357  14.831
17282W        W85645   2.466  39.417   2.764
17283W        W85646  10.823  32.475  14.833
17284W        W85647   9.161  24.677   3.321
17285W        W85648  31.519  31.531  13.809
17286W        W85649  22.580   8.243   4.684
17287W        W85650  38.829  15.796   1.702
17288W        W85651  33.568  37.988   1.305
17289W        W85652  18.562  37.368   0.415
17290W        W85653  26.672   3.944   0.959
17291W        W85654   4.306  38.072  13.811
17292W        W85655  16.160  39.049  14.938
17293W        W85656   8.223  27.459  10.623
17294W        W85657  32.562  28.036  11.396
17295W        W85658  21.135  17.161   2.273
17296W        W85659  35.100  37.348   3.770
17297W        W85660   1.965  15.722   3.379
17298W        W85661  24.143  19.706   0.918
17299W        W85662  28.091  39.443   0.956
17300W        W85663  36.088  37.929   3.192
17301W        W85664   9.310   6.829  11.916
17302W        W85665  19.573   8.327  14.769
17303W        W85666  16.792   1.824   3.659
17304W        W85667  21.726   7.883   0.295
17305W        W85668   9.290   4.780  14.928
17306W        W85669   5.276  30.927   0.451
17307W        W85670   7.673  27.583  14.991
17308W        W85671  39.888  11.758   4.753
17309W        W85672  30.029  33.429   3.259
17310W        W85673  10.718   6.689   2.277
17311W        W85674  39.825   5.837   0.465
17312W        W85675  34.057  35.411   1.245
17313W        W85676   8.375  32.995  10.436
17314W        W85677   2.256  33.045  14.796
17315W        W85678  31.616  18.659   0.958
17316W        W85679  31.031  36.014  10.058
17317W        W85680  37.965   1.248   1.929
17318W        W85681  26.206   4.232  13.468
17319W        W85682   3.437  35.476  11.924
17320W        W85683  39.428  29.471   2.273
17321W        W85684  43.296  14.211  11.538
17322W        W85685  42.518  15.810   3.800
17323W        W85686  18.630  43.378   2.811
17324W        W85687  38.965   3.898  12.904
17325W        W85688  38.475  10.277  12.526
17326W        W85689  31.546   1.879  10.006
17327W        W85690  37.482  38.376  14.286
17328W        W85691  21.128   8.191  11.561
17329W        W85692  33.906  40.490   4.138
17330W        W85693  39.488   5.414   4.617
17331W        W85694  18.110  13.646   1.288
17332W        W85695  42.406  33.946  13.016
17333W        W85696  16.243  12.622   1.275
17334W        W85697  31.428   1.927  10.466
17335W        W85698  23.730   1.352   1.910
17336W        W85699  40.053  32.482  12.400
17337W        W85700  24.158   7.729  13.496
17338W        W85701  42.457  25.040   4.722
17339W        W85702  13.675  15.243   3.198
17340W        W85703   3.397  35.917  12.463
17341W        W85704   0.766   0.926   5.185
17342W        W85705  20.630   6.814   1.878
17343W        W85706  35.932  32.123  11.529
17344W        W85707  33.496  22.717   5.173
17345W        W85708  21.692   1.285  11.954
17346W        W85709   2.239  22.211  10.613
17347W        W85710  14.669   7.358   2.784
17348W        W85711  36.471  40.805  14.966
17349W        W85712  14.834   5.789   3.660
17350W        W85713  25.712  43.511   1.246
17351W        W85714   5.769  38.378  12.844
17352W        W85715   1.859  40.468  12.078
17353W        W85716   4.782   1.443   1.777
17354W        W85717  43.999  14.705  11.426
17355W        W85718  42.925  22.518  14.357
17356W        W85719  35.965  21.633   2.845
17357W        W85720  34.571  31.941   3.298
17358W        W85721  18.693  44.401  11.994
17359W        W85722  34.062   8.395  10.621
17360W        W85723   0.333  11.343   2.349
17361W        W85724  14.341  40.368  13.865
17362W        W85725  22.561   0.375  13.861
17363W        W85726  37.544   2.466   5.120
17364W        W85727  18.577  34.542   3.325
17365W        W85728  36.922   2.874  11.004
17366W        W85729  15.580  29.571   4.801
17367W        W85730  24.102  29.979  14.303
17368W        W85731  23.035   8.819   4.228
17369W        W85732   4.706   4.751   3.785
17370W        W85733   0.472   1.452   0.918
17371W        W85734  26.533  26.516  10.633
17372W        W85735   9.306  18.258  12.844
17373W        W85736  34.915  12.631  12.042
17374W        W85737  44.276  15.243   1.808
17375W        W85738  39.534  32.552  14.387
17376W        W85739  27.622  34.988   1.716
17377W        W85740   2.355  37.445  12.018
17378W        W85741  28.993  14.790   2.701
17379W        W85742  16.228  16.144  14.341
17380W        W85743   7.267  38.959   4.353
17381W        W85744  11.154  25.565   3.726
17382W        W85745   1.453  24.083  10.416
17383W        W85746  21.037  14.762   2.720
17384W        W85747  12.239  40.856   3.788
17385W        W85748  34.512  35.979   4.341
17386W        W85749  18.610   9.862   1.772
17387W        W85750   0.324   9.734  13.359
17388W        W85751  44.263  11.769   0.327
17389W        W85752  14.148  14.220   1.421
17390W        W85753  18.166  37.571   4.140
17391W        W85754  17.225   1.736  14.322
17392W        W85755  32.139  14.304   0.812
17393W        W85756  35.512  16.124  11.985
17394W        W85757   5.390  21.021  10.513
17395W        W85758  29.613  32.889   1.210
17396W        W85759   6.371   0.346  14.345
17397W        W85760   2.358  39.865   4.181
17398W        W85761  44.441  20.721   1.440
17399W        W85762  23.508  36.900   1.827
17400W        W85763  28.027   6.919   1.262
17401W        W85764  14.230   8.770   1.222
17402W        W85765  35.017   1.426   2.236
17403W        W85766   5.909  25.708   3.815
17404W        W85767  32.443  34.117  14.875
17405W        W85768  44.302  44.362   3.368
17406W        W85769  14.101  17.765   9.971
17407W        W85770   7.305  31.932   4.126
17408W        W85771  18.677  39.478   4.212
17409W        W85772  44.484  27.001   1.260
17410W        W85773  29.161  36.491   1.844
17411W        W85774  27.642  35.063   0.345
17412W        W85775   6.239  12.693   0.953
17413W        W85776  27.654  43.838  12.418
17414W        W85777  43.336  37.927  12.016
17415W        W85778  29.092  42.525  14.446
17416W        W85779  29.429  31.421  11.407
17417W        W85780  42.961   1.355   3.273
17418W        W85781  24.700   3.890   4.303
17419W        W85782  30.652  18.713  13.314
17420W        W85783   1.358   8.896   4.146
17421W        W85784   8.672  41.525  14.938
17422W        W85785  36.040  42.870   2.815
17423W        W85786   7.381   4.722   0.473
17424W        W85787   6.424  17.203   4.693
17425W        W85788  30.987  44.347  13.813
17426W        W85789  15.795  39.467   0.822
17427W        W85790  16.701  34.920  11.866
17428W        W85791   3.923  17.137  10.989
17429W        W85792  22.702  43.906   3.204
17430W        W85793   8.799  39.930   4.181
17431W        W85794   6.828  31.016   2.796
17432W        W85795   1.858  33.386  13.375
17433W        W85796  34.452  41.943   3.637
17434W        W85797   5.275  20.075   4.619
17435W        W85798  19.261  32.887  13.949
17436W        W85799  12.630  42.953   3.217
17437W        W85800   7.299   9.225   4.611
17438W        W85801  32.030   6.351   2.284
17439W        W85802  21.663   3.830  10.896
17440W        W85803  22.062  40.011   0.880
17441W        W85804   9.218  27.002  12.915
17442W        W85805  33.464  30.526  13.336
17443W        W85806   6.275  21.638  11.490
17444W        W85807  32.987  23.239  13.511
17445W        W85808  17.106  33.574   1.292
17446W        W85809   8.702  10.141   4.237
17447W        W85810   7.768  13.782  14.499
17448W        W85811  16.231  43.807   0.454
17449W        W85812  29.663   3.896  14.882
17450W        W85813  18.708  10.730  14.396
17451W        W85814   0.425  28.978  11.594
17452W        W85815  33.612  11.205   1.812
17453W        W85816  14.704   2.256   3.635
17454W        W85817   6.358  35.504   1.884
17455W        W85818   4.926  36.019   4.244
17456W        W85819   2.335  11.837  12.512
17457W        W85820   6.785   6.269  11.118
17458W        W85821  40.810   0.371   0.295
17459W        W85822  25.216  14.602   1.228
17460W        W85823  40.985  41.016   4.125
17461W        W85824  32.539  36.371   1.734
17462W        W85825  33.440  43.301  11.958
17463W        W85826  16.128   6.696  14.885
17464W        W85827  25.115  14.223  12.049
17465W        W85828  26.575  31.636  14.417
17466W        W85829   5.234   2.762  13.362
17467W        W85830   7.890  41.929  12.496
17468W        W85831  25.518  10.262   4.738
17469W        W85832  34.460  33.879  14.759
17470W        W85833   6.735  41.318  14.003
17471W        W85834  21.542  26.471  12.384
17472W        W85835   0.422  28.058  14.816
17473W        W85836  28.475  18.189   1.915
17474W        W85837  13.113  24.978   4.629
17475W        W85838  13.731  18.574  11.987
17476W        W85839  35.901  31.093   2.757
17477W        W85840  15.674  33.054  14.845
17478W        W85841  21.540  33.126  13.326
17479W        W85842   4.387  23.516   1.854
17480W        W85843  13.748  29.631  10.419
17481W        W85844  38.454  25.478   4.822
17482W        W85845  33.599  16.250   3.648
17483W        W85846  34.031  38.844   3.732
17484W        W85847  23.523  21.150   4.676
17485W        W85848  42.491   9.643   3.197
17486W        W85849  33.526  20.768   0.322
17487W        W85850  10.759   9.282   1.784
17488W        W85851  10.346   9.653  13.893
17489W        W85852  44.895  33.532   3.265
17490W        W85853  29.582   6.362   4.748
17491W        W85854  27.028  19.622  13.954
17492W        W85855  33.408  41.393  14.807
17493W        W85856  36.438  29.540   1.440
17494W        W85857  31.454  43.794  11.485
17495W        W85858  44.872  18.108  13.505
17496W        W85859  12.739  19.758  13.825
17497W        W85860  44.997  16.755   4.231
17498W        W85861  32.598  25.663  14.374
17499W        W85862  31.577  26.096   4.159
17500W        W85863  28.487  24.694  11.050
17501W        W85864   0.859  27.990   3.318
17502W        W85865   4.237  33.103   1.783
17503W        W85866  34.925   3.898   0.372
17504W        W85867  41.982  21.161   3.228
17505W        W85868  31.049  13.214   2.866
17506W        W85869  25.622  12.743   0.382
17507W        W85870  23.638  38.545  14.489
17508W        W85871  19.535  44.804   4.620
17509W        W85872   5.271  33.476   2.195
17510W        W85873  37.392  23.162  14.808
17511W        W85874  12.338  19.155  11.930
17512W        W85875  34.456  18.627   2.269
17513W        W85876  28.174  38.911  10.077
17514W        W85877   4.796  40.510   3.380
17515W        W85878  23.726  13.725  10.544
17516W        W85879  38.844   0.952   5.258
17517W        W85880  11.175  35.866   0.817
17518W        W85881  40.362  31.407  14.315
17519W        W85882  23.187  10.275   3.820
17520W        W85883  24.225  40.408   2.418
17521W        W85884  15.634  25.964  14.428
17522W        W85885  33.056  23.554   0.894
17523W        W85886  43.798  35.997   0.443
17524W        W85887  16.200   5.699   3.704
17525W        W85888  44.299   0.934  12.016
17526W        W85889   0.290  34.032  12.001
17527W        W85890   8.381  38.893  13.485
17528W        W85891   3.721  18.739  11.053
17529W        W85892  10.347  11.140   0.963
17530W        W85893  24.062  10.634  13.886
17531W        W85894   5.214  44.482   5.701
17532W        W85895  29.549  28.545   9.941
17533W        W85896  41.461  26.953   3.320
17534W        W85897  20.529  34.497   4.722
17535W        W85898  37.943   5.818  13.045
17536W        W85899  27.941  20.746   1.725
17537W        W85900  43.972  43.818  14.368
17538W        W85901  15.281  29.036   3.705
17539W        W85902  30.472  26.178   2.273
17540W        W85903  16.678  44.754   9.673
17541W        W85904  33.584  23.526   3.633
17542W        W85905  42.290  36.850  11.585
17543W        W85906  42.936   5.361  10.907
17544W        W85907  29.981  18.108  10.446
17545W        W85908  20.601  43.337  12.839
17546W        W85909  39.338  19.213  10.445
17547W        W85910   2.341   2.924  12.488
17548W        W85911  30.546  25.076   4.722
17549W        W85912  43.779  22.721  10.616
17550W        W85913  21.628   1.802   1.284
17551W        W85914  13.296  14.287   4.601
17552W        W85915  44.943  21.130  14.998
17553W        W85916  40.935  30.460  14.476
17554W        W85917  17.241  24.224   1.766
17555W        W85918  18.712  15.233  11.082
17556W        W85919   7.744  42.992   9.940
17557W        W85920  38.035  33.461  14.306
17558W        W85921   9.815   6.266   4.276
17559W        W85922  31.963  17.266   0.399
17560W        W85923  12.762   5.353  11.008
17561W        W85924  42.816  42.911  10.984
17562W        W85925  21.617  41.787  13.937
17563W        W85926  34.946  34.087   3.821
17564W        W85927  21.200  41.500  11.058
17565W        W85928   2.945   8.655   4.130
17566W        W85929   7.239  14.154  11.954
17567W        W85930  13.300  42.500  10.523
17568W        W85931  39.322  23.491  14.023
17569W        W85932   0.805  39.402  11.930
17570W        W85933  44.322  31.433   1.857
17571W        W85934   4.364  32.507  10.906
17572W        W85935  38.823  16.708   0.843
17573W        W85936  17.208  12.313   1.240
17574W        W85937   3.459   4.238  10.485
17575W        W85938   5.794   0.851   2.314
17576W        W85939  35.542  28.140  13.486
17577W        W85940  40.480  26.005  14.454
17578W        W85941  37.861  20.668   3.213
17579W        W85942  30.419  21.096   2.388
17580W        W85943  14.599  17.753   5.319
17581W        W85944  44.798  41.845  10.475
17582W        W85945  35.452  28.962  10.546
17583W        W85946  36.442  37.573   9.962
17584W        W85947  31.005  41.932  12.019
17585W        W85948  33.901   0.398  11.454
17586W        W85949   4.398  37.931  13.362
17587W        W85950  39.913  40.887  13.511
17588W        W85951  43.446   2.918   3.275
17589W        W85952   0.856  30.511  13.518
17590W        W85953  18.284  14.611   2.788
17591W        W85954  40.887  26.567  12.467
17592W        W85955  12.280  14.324   1.443
17593W        W85956  40.405  10.366   4.214
17594W        W85957  40.819  36.474   3.219
17595W        W85958   6.816  11.706   4.780
17596W        W85959  28.521  30.055  11.607
17597W        W85960  44.816   1.811   5.116
17598W        W85961   2.296  18.615   4.806
17599W        W85962  16.661  13.657  12.930
17600W        W85963  11.140  32.954  11.883
17601W        W85964  19.100  13.270  13.805
17602W        W85965  12.320  39.979   3.633
17603W        W85966  33.617   0.314  11.928
17604W        W85967   4.824  44.905  12.356
17605W        W85968  37.011  11.728   4.254
17606W        W85969  43.432  26.066   3.726
17607W        W85970   9.335  33.079  13.415
17608W        W85971  10.796  31.942   1.918
17609W        W85972   5.392  30.110   0.963
17610W        W85973  13.837  32.892  13.537
17611W        W85974  27.190  36.099  10.596
17612W        W85975   5.740  44.767   1.270
17613W        W85976  14.278  35.385  10.580
17614W        W85977  11.739   7.215   0.388
17615W        W85978  37.877  28.559  10.955
17616W        W85979  31.561   3.227   2.795
17617W        W85980   8.255  29.643  12.979
17618W        W85981  36.959  36.085   4.789
17619W        W85982   6.259  14.118   0.320
17620W        W85983  38.398  37.386  12.903
17621W        W85984   0.809  17.647   4.312
17622W        W85985  43.447  16.087   4.287
17623W        W85986  36.544  36.377   4.153
17624W        W85987  31.131  39.009   4.127
17625W        W85988  14.294  19.549  11.077
17626W        W85989  10.701  18.208   0.423
17627W        W85990  43.848  37.423  12.444
17628W        W85991   7.673  18.264   3.293
17629W        W85992  14.621  24.697  12.893
17630W        W85993  19.114  30.043   1.409
17631W        W85994  44.375  11.725  12.458
17632W        W85995  29.559  28.955   3.757
17633W        W85996  26.004  22.565   3.241
17634W        W85997  42.886  35.536   3.292
17635W        W85998  23.021  20.199  13.035
17636W        W85999  24.132  39.838   9.922
17637W        W86000  12.348  28.052   3.172
17638W        W86001  39.891  29.949   4.638
17639W        W86002  13.247   9.262  13.047
17640W        W86003  42.475  34.992   0.729
17641W        W86004  39.825  13.770  14.020
17642W        W86005  10.679  33.479  13.038
17643W        W86006  44.962   7.209   2.684
17644W        W86007  35.970  21.596   4.173
17645W        W86008  41.832   5.393  12.435
17646W        W86009  25.494  26.578  12.857
17647W        W86010  10.858  44.461   4.286
17648W        W86011  38.442  19.777  11.394
17649W        W86012  15.193  11.664  13.408
17650W        W86013  26.581  10.845   0.917
17651W        W86014  25.479  25.126  14.878
17652W        W86015  15.277  41.881   1.320
17653W        W86016  22.670   3.417  12.083
17654W        W86017   3.239  17.780  10.956
17655W        W86018   4.224  16.094  11.566
17656W        W86019  13.796   1.416   0.934
17657W        W86020  28.098   8.296   1.364
17658W        W86021   2.311  43.924   1.738
17659W        W86022  20.670  40.931   1.286
17660W        W86023  43.895  11.696   2.828
17661W        W86024  12.230   2.271  13.988
17662W        W86025  30.963  36.985  11.605
17663W        W86026  21.258  38.548   2.240
17664W        W86027  29.092  29.090  12.516
17665W        W86028   2.428  19.696  13.497
17666W        W86029  37.530  42.282  11.396
17667W        W86030  26.569  23.599   0.447
17668W        W86031  18.780  18.211   2.367
17669W        W86032  42.899  12.857  11.413
17670W        W86033  36.481  16.152   3.191
17671W        W86034  16.166   5.750   4.138
17672W        W86035  16.626  13.615   0.870
17673W        W86036  28.475  15.673  10.441
17674W        W86037   6.904   0.396  13.006
17675W        W86038  13.155  16.574   1.417
17676W        W86039   7.689   9.755   0.767
17677W        W86040  29.064  28.443  12.546
17678W        W86041   0.748   3.944  11.962
17679W        W86042   6.833  10.715   2.745
17680W        W86043  13.775  26.104  10.441
17681W        W86044  16.281  11.311  14.967
17682W        W86045  26.541  29.954  13.023
17683W        W86046  39.349  30.640  10.410
17684W        W86047  35.409  25.125  13.796
17685W        W86048  15.179  19.215   4.643
17686W        W86049   9.391   0.975  12.572
17687W        W86050  40.907  23.524  10.928
17688W        W86051  26.620  14.149  13.512
17689W        W86052  35.546  29.602   2.878
17690W        W86053   6.336  14.814   1.793
17691W        W86054  33.610  12.168   1.296
17692W        W86055   1.950  20.637  14.423
17693W        W86056  41.861  44.959   1.824
17694W        W86057   6.776  40.877   1.307
17695W        W86058   1.272  25.655   3.870
17696W        W86059  40.412   2.380  11.897
17697W        W86060  12.665  33.416  14.870
17698W        W86061  13.608  20.240   2.180
17699W        W86062  41.847  20.537   0.921
17700W        W86063   6.780  35.009   2.838
17701W        W86064  26.600   2.827   3.150
17702W        W86065  15.306   3.838   0.805
17703W        W86066   4.889  13.605  13.517
17704W        W86067  40.507  34.576   3.822
17705W        W86068   1.343  29.545  12.462
17706W        W86069  42.301  35.071  12.568
17707W        W86070   0.761  28.458  12.970
17708W        W86071  30.907  27.034  13.058
17709W        W86072  38.503   5.386   4.626
17710W        W86073  23.715  25.137  10.643
17711W        W86074   5.229   7.400  10.448
17712W        W86075  40.918  22.208  10.412
17713W        W86076  42.935   8.683  10.146
17714W        W86077  35.997   1.843  11.395
17715W        W86078  41.002   7.251   4.317
17716W        W86079   4.878  33.611   0.412
17717W        W86080  16.185  42.443   5.618
17718W        W86081   7.231  41.457   1.238
17719W        W86082  36.481  30.436  11.927
17720W        W86083  18.088   6.248   3.750
17721W        W86084  38.508   4.944   0.275
17722W        W86085  19.676  34.869  13.354
17723W        W86086  44.319  16.599  12.008
17724W        W86087   3.881   2.805  10.608
17725W        W86088  25.996   3.821  14.507
17726W        W86089  17.665   7.699   1.371
17727W        W86090  16.708  41.873   1.370
17728W        W86091  39.947  40.880  11.006
17729W        W86092  22.530  10.822  13.323
17730W        W86093  21.211  20.102  11.954
17731W        W86094  24.691  15.208   0.963
17732W        W86095   5.788  39.956   4.772
17733W        W86096   2.373  12.675   3.204
17734W        W86097  13.297  30.484   5.298
17735W        W86098  43.513  43.307  13.820
17736W        W86099  23.030  30.987  13.541
17737W        W86100   5.261   3.885  11.576
17738W        W86101  39.947   6.195   2.189
17739W        W86102  21.199  10.643   0.353
17740W        W86103  29.621  13.216  12.843
17741W        W86104   1.755  36.547  14.916
17742W        W86105  44.893   9.828   4.232
17743W        W86106  22.529  15.820   0.942
17744W        W86107   1.328  30.124   2.710
17745W        W86108  16.807  22.712   1.923
17746W        W86109  21.735   0.842  14.964
17747W        W86110  12.262  37.380  10.900
17748W        W86111   6.320  22.545  13.402
17749W        W86112  19.755  17.585  11.002
17750W        W86113  41.347  23.036  14.008
17751W        W86114  39.388  14.309   2.359
17752W        W86115  28.162  34.405  10.004
17753W        W86116  19.662  38.395  11.579
17754W        W86117   4.862  18.781   0.896
17755W        W86118  14.815  23.534   0.340
17756W        W86119  28.005  36.510   0.957
17757W        W86120  29.122  37.897  13.848
17758W        W86121  17.241  17.590   0.767
17759W        W86122  44.309  44.906  14.330
17760W        W86123  31.925  28.132  13.518
17761W        W86124  15.766   7.786   4.773
17762W        W86125  15.607  19.265   4.610
17763W        W86126  25.631  20.749  12.052
17764W        W86127  27.958  12.703  13.815
17765W        W86128   0.316   8.754  12.428
17766W        W86129  32.115  17.716  10.457
17767W        W86130  26.100  17.093  11.879
17768W        W86131  29.048  33.962   1.433
17769W        W86132   6.395  29.538   1.406
17770W        W86133  32.438  14.245   4.217
17771W        W86134  25.123   9.854  15.000
17772W        W86135  35.469  28.453  13.826
17773W        W86136   8.733  37.907  12.467
17774W        W86137   3.323   3.765  12.381
17775W        W86138   0.319   4.265   1.817
17776W        W86139  12.333  10.636  11.375
17777W        W86140   9.158  44.926  13.844
17778W        W86141  12.156   4.423  13.332
17779W        W86142   0.820  10.849   3.282
17780W        W86143  35.523  38.530  11.960
17781W        W86144  25.209  38.860  11.514
17782W        W86145  21.234  24.100   0.884
17783W        W86146  13.772  41.003  10.566
17784W        W86147  13.123   5.337   1.395
17785W        W86148  17.068  36.049   4.786
17786W        W86149  33.498  22.200  14.821
17787W        W86150  32.626  32.068   2.262
17788W        W86151  28.987  32.935  11.502
17789W        W86152  29.997  24.154  10.413
17790W        W86153  16.301  17.223   3.272
17791W        W86154  35.982  43.931  10.888
17792W        W86155  44.003   8.690   4.780
17793W        W86156   9.801   7.348   0.480
17794W        W86157   6.742  27.950   1.292
17795W        W86158  32.058  40.049   0.401
17796W        W86159  14.100   7.410   3.712
17797W        W86160  39.961  20.549  10.997
17798W        W86161  41.829  30.098   1.816
17799W        W86162  38.347  31.918  14.418
17800W        W86163   4.410  22.007  12.082
17801W        W86164  41.902  29.048  13.387
17802W        W86165   4.354  24.195  10.932
17803W        W86166   1.905  28.090  11.908
17804W        W86167  25.585   2.733  14.379
17805W        W86168  30.986  15.682   2.708
17806W        W86169  32.970  11.298  13.383
17807W        W86170  11.654  31.611   2.774
17808W        W86171  35.567  14.103   3.644
17809W        W86172  37.508  11.733  10.472
17810W        W86173   1.784  37.070   1.415
17811W        W86174  22.744  28.542   1.917
17812W        W86175   2.811   4.765  14.918
17813W        W86176  13.738  34.488  13.431
17814W        W86177  22.241  25.972   1.890
17815W        W86178   4.777  44.929   4.295
17816W        W86179  17.094  11.362  14.437
17817W        W86180  16.163  29.019  10.434
17818W        W86181  18.690  28.457   4.348
17819W        W86182  35.379  19.251   4.699
17820W        W86183  27.053  40.008  12.016
17821W        W86184  28.981   6.407   3.163
17822W        W86185  29.537  12.759   4.768
17823W        W86186   3.264  36.550   5.146
17824W        W86187  29.147   7.321   4.806
17825W        W86188   0.941   7.909  10.977
17826W        W86189   0.271  22.747   4.334
17827W        W86190  21.204  42.865  12.522
17828W        W86191   2.344  18.235  14.958
17829W        W86192  10.138  34.875   1.703
17830W        W86193   1.365  15.287  10.984
17831W        W86194  38.459  34.874   4.231
17832W        W86195   1.942  18.582   0.734
17833W        W86196   3.307  36.876  11.876
17834W        W86197  32.944  17.083   2.735
17835W        W86198  41.950  21.172   1.399
17836W        W86199  20.192   4.756   0.291
17837W        W86200  40.521  10.367  14.503
17838W        W86201  31.134   2.838  11.855
17839W        W86202  40.367  26.023  12.549
17840W        W86203  44.975  15.579   2.713
17841W        W86204  27.674  21.184  14.959
17842W        W86205  39.428  23.222   3.356
17843W        W86206  29.601  40.798   2.811
17844W        W86207  30.577  43.978   3.702
17845W        W86208  15.717  12.274   2.786
17846W        W86209  42.343  44.820   1.739
17847W        W86210   8.798  14.664  12.850
17848W        W86211   4.252   0.283  13.861
17849W        W86212  31.907  41.498   2.715
17850W        W86213  12.316   0.280   1.834
17851W        W86214  32.500   8.271  14.381
17852W        W86215   1.264  24.682   2.799
17853W        W86216  27.963  11.724  13.407
17854W        W86217   2.250   0.874   1.271
17855W        W86218   6.377  30.945  11.375
17856W        W86219  10.233   3.950  12.437
17857W        W86220  44.459  24.677  11.997
17858W        W86221   6.698  12.709  14.794
17859W        W86222  33.489  13.788   2.779
17860W        W86223   7.790  37.846   0.373
17861W        W86224  31.150  28.630   1.798
17862W        W86225   6.385  40.908   3.370
17863W        W86226  12.247  18.138   3.221
17864W        W86227   1.941  22.073  10.010
17865W        W86228   0.346  10.286  14.918
17866W        W86229  29.148  21.148  14.485
17867W        W86230  36.055  38.330  10.978
17868W        W86231  13.112  13.132  13.345
17869W        W86232  40.985  21.162   4.318
17870W        W86233  17.587  24.549   2.380
17871W        W86234  23.501  11.765  11.899
17872W        W86235  41.897  33.039  10.962
17873W        W86236  38.478   4.349   4.742
17874W        W86237  14.740   6.849  11.527
17875W        W86238   3.904  10.831   3.254
17876W        W86239   8.341   6.194   1.698
17877W        W86240  16.758   8.220  12.514
17878W        W86241  16.604  19.581  12.898
17879W        W86242  34.039   9.729   1.847
17880W        W86243  24.072   0.936  10.468
17881W        W86244   1.848  33.993  11.439
17882W        W86245  38.972  43.358   0.288
17883W        W86246   2.760   7.332   4.770
17884W        W86247  23.503   9.684  10.519
17885W        W86248   0.437  17.558   1.395
17886W        W86249  14.188  11.769  14.472
17887W        W86250   3.239  40.486   3.775
17888W        W86251  43.909  13.272  12.870
17889W        W86252  38.436  32.399   3.753
17890W        W86253  27.015  14.766   1.351
17891W        W86254  12.778  14.273  14.841
17892W        W86255  27.616  16.300  12.826
17893W        W86256  39.395  10.349   0.758
17894W        W86257  40.344  23.047   4.641
17895W        W86258  41.887  44.337  11.011
17896W        W86259   1.308  14.817   4.728
17897W        W86260   5.227  33.611   0.263
17898W        W86261  36.475   7.776  14.947
17899W        W86262  34.563  43.421  11.554
17900W        W86263   2.775  32.089  14.911
17901W        W86264  40.309   7.320  10.128
17902W        W86265  14.260  20.100   3.271
17903W        W86266  12.624  22.095   4.639
17904W        W86267  28.972  15.683  11.890
17905W        W86268  22.634  19.775  11.981
17906W        W86269  25.210  32.543  10.481
17907W        W86270  38.443  22.625   2.765
17908W        W86271  31.416  26.176   3.161
17909W        W86272  36.574  39.416  11.124
17910W        W86273   1.912  40.495   2.732
17911W        W86274  28.079  29.580  11.073
17912W        W86275  15.597  28.135  12.370
17913W        W86276  17.240  35.883   1.749
17914W        W86277  41.519   3.297   0.392
17915W        W86278  14.248   1.841   1.798
17916W        W86279  11.676   9.816   4.270
17917W        W86280  27.117   8.835  11.426
17918W        W86281  36.425  16.154   2.270
17919W        W86282  37.448  26.017   2.194
17920W        W86283  24.100  26.590  10.918
17921W        W86284  15.801  16.665  12.960
17922W        W86285   5.356  22.102   1.722
17923W        W86286   9.840  16.745   3.356
17924W        W86287  13.606  36.453  13.938
17925W        W86288  34.448   4.239   1.422
17926W        W86289  20.039  32.611   3.860
17927W        W86290  14.258  31.644   4.255
17928W        W86291  23.234  33.515  13.530
17929W        W86292  17.215  12.189   3.265
17930W        W86293  10.753  16.314   2.261
17931W        W86294  13.118   4.839  13.882
17932W        W86295  15.293   3.832   2.375
17933W        W86296   1.468  17.776  13.310
17934W        W86297  42.966  35.927   4.119
17935W        W86298   7.723  23.551   1.250
17936W        W86299  40.507  21.551   4.238
17937W        W86300   9.878  21.210   4.766
17938W        W86301  42.893   9.224  13.431
17939W        W86302  19.043  26.137   4.636
17940W        W86303  32.130   3.386   1.918
17941W        W86304  24.096  10.832   0.339
17942W        W86305  42.410  22.598   1.328
17943W        W86306  23.565   9.719   0.311
17944W        W86307   7.239  30.574   0.447
17945W        W86308   0.985  35.421  10.525
17946W        W86309  40.378  44.850   3.757
17947W        W86310   0.339  13.759   1.709
17948W        W86311  31.444  35.421   4.292
17949W        W86312  11.721   2.453   2.708
17950W        W86313  30.922  34.563   4.237
17951W        W86314  24.171   0.338   4.697
17952W        W86315  30.419  33.553  14.434
17953W        W86316  18.222  30.089  14.014
17954W        W86317   6.195  27.533  10.542
17955W        W86318  20.056  37.520   1.430
17956W        W86319  36.031  34.576  10.449
17957W        W86320  13.111  41.496   1.848
17958W        W86321  26.696  16.748   9.973
17959W        W86322  28.484  34.401   0.889
17960W        W86323   9.824   1.946  12.834
17961W        W86324  20.531  23.720  12.081
17962W        W86325   2.741  22.118  14.950
17963W        W86326  35.474  10.314  13.818
17964W        W86327  41.525   4.933  13.974
17965W        W86328   9.825  29.668  10.471
17966W        W86329  14.767  42.305  12.473
17967W        W86330  35.017  29.508   4.714
17968W        W86331  25.601  19.085  11.020
17969W        W86332  35.965  27.940  14.949
17970W        W86333   9.887   2.467   2.688
17971W        W86334   9.820   7.799  14.331
17972W        W86335   9.735  40.375   2.871
17973W        W86336  31.979  10.641  13.984
17974W        W86337  22.523   6.715  12.524
17975W        W86338  21.602  34.581   1.928
17976W        W86339  15.320  10.838  10.411
17977W        W86340  11.819  22.140   1.790
17978W        W86341  22.218   0.857   4.180
17979W        W86342  11.194  22.228  14.412
17980W        W86343  43.893  29.096   2.228
17981W        W86344  18.063   9.329   0.917
17982W        W86345  29.450  35.108   4.306
17983W        W86346  21.704  32.039   3.299
17984W        W86347  18.070  26.974  11.906
17985W        W86348  20.615  43.823   1.363
17986W        W86349  24.186  15.636   1.705
17987W        W86350  17.183  23.162   3.820
17988W        W86351   3.245  10.702  10.497
17989W        W86352  32.603  35.974  10.920
17990W        W86353  28.061   6.721   1.819
17991W        W86354   3.806   6.382  10.549
17992W        W86355   9.812   2.252  12.379
17993W        W86356  11.275  14.190   3.315
17994W        W86357  32.442  25.050  12.435
17995W        W86358  16.254   8.207  13.470
17996W        W86359  16.696  42.331   1.769
17997W        W86360  28.469  13.143   2.848
17998W        W86361  39.968  11.317   5.127
17999W        W86362  43.802   7.251  14.836
18000W        W86363  18.649  31.641   3.190
18001W        W86364   4.259  19.536   0.284
18002W        W86365  30.090   1.411   0.837
18003W        W86366  28.435   6.787  10.451
18004W        W86367  30.053  21.168  12.542
18005W        W86368   8.749   9.392   0.264
18006W        W86369  30.460  19.725  11.876
18007W        W86370  30.421  13.691   4.606
18008W        W86371  31.601   5.251  11.591
18009W        W86372   3.837  29.973   2.335
18010W        W86373  23.565  37.344  13.951
18011W        W86374  26.572  13.124   1.269
18012W        W86375  32.986  21.646   4.205
18013W        W86376  20.106  39.534  12.361
18014W        W86377  43.272   0.449  11.019
18015W        W86378   1.927   5.213  14.459
18016W        W86379   5.723   3.349  14.957
18017W        W86380   0.987   9.698  12.090
18018W        W86381  35.516  16.808   4.623
18019W        W86382  23.157  16.716  14.819
18020W        W86383  34.595  32.432  12.892
18021W        W86384  16.086  37.444   0.245
18022W        W86385   1.376  14.337  14.338
18023W        W86386  24.167  20.037   0.246
18024W        W86387  12.252  43.768   3.815
18025W        W86388  13.696  36.490   1.898
18026W        W86389  28.620  41.862  11.057
18027W        W86390   9.150  11.692   0.822
18028W        W86391  30.603  24.554  13.334
18029W        W86392  31.418  19.747   4.291
18030W        W86393  44.007  15.313  11.516
18031W        W86394  14.806  42.506   2.193
18032W        W86395  15.651  37.855  11.586
18033W        W86396   7.367  22.211  13.925
18034W        W86397  28.117  23.666   1.247
18035W        W86398   6.359  37.942  14.029
18036W        W86399  35.942  21.026   2.328
18037W        W86400  12.150   2.369  10.477
18038W        W86401  42.486  10.654  14.491
18039W        W86402  24.096   8.273  14.327
18040W        W86403  13.839   8.171  14.973
18041W        W86404  40.979  35.017  13.421
18042W        W86405   9.273  43.348  14.344
18043W        W86406  42.823  36.533  14.880
18044W        W86407  24.048  30.001   3.824
18045W        W86408  26.701  34.381  13.039
18046W        W86409  18.291  20.691  13.989
18047W        W86410  25.080  27.624   0.865
18048W        W86411  44.941  16.081   4.209
18049W        W86412  39.854  20.183  13.999
18050W        W86413  43.498  40.920  12.989
18051W        W86414  28.164  32.035  13.508
18052W        W86415  40.923  23.552   1.360
18053W        W86416  29.498  36.901   3.713
18054W        W86417  33.058   7.673   2.245
18055W        W86418  18.664  44.368   2.860
18056W        W86419   0.336  16.813  10.571
18057W        W86420  22.728  39.005  12.845
18058W        W86421  21.195   1.280   3.364
18059W        W86422  43.830  38.381   3.156
18060W        W86423  14.111   5.830  14.438
18061W        W86424  37.025   6.189   4.190
18062W        W86425  36.007   4.400  12.869
18063W        W86426  23.012  12.846   1.765
18064W        W86427   3.868  15.769   0.880
18065W        W86428  26.565   5.729  11.462
18066W        W86429  12.856  20.052   1.417
18067W        W86430   3.355   9.345  10.535
18068W        W86431  44.491  30.414  14.961
18069W        W86432  27.092  19.561  11.554
18070W        W86433  25.662  35.872  12.039
18071W        W86434   8.655   4.248   1.893
18072W        W86435   1.285  22.143   5.182
18073W        W86436   6.804   1.868  13.975
18074W        W86437  14.331   3.427   5.243
18075W        W86438  43.504  18.734   4.142
18076W        W86439  29.552  30.574   1.210
18077W        W86440   3.721  11.309  11.373
18078W        W86441  36.970  37.033   1.929
18079W        W86442  25.152  35.557   3.746
18080W        W86443  28.634  18.741   0.765
18081W        W86444   5.336  22.596   4.137
18082W        W86445  18.240  44.946  11.513
18083W        W86446   0.404  31.051   1.813
18084W        W86447  30.463   9.833   0.868
18085W        W86448  26.602  26.629   1.818
18086W        W86449  30.639  40.366  11.562
18087W        W86450  24.524  16.178  14.029
18088W        W86451  37.493  19.130   0.418
18089W        W86452  36.045  30.001   3.160
18090W        W86453   6.270   2.862   1.829
18091W        W86454  25.690  32.951  12.522
18092W        W86455  18.749  42.308   0.380
18093W        W86456   9.241  25.539  12.038
18094W        W86457  35.999   7.170  13.964
18095W        W86458   7.353  44.290   1.284
18096W        W86459  39.883  25.989  13.335
18097W        W86460  15.115  10.229   1.702
18098W        W86461  42.020   1.762  11.928
18099W        W86462  13.795   0.935   0.255
18100W        W86463   1.779  27.000  13.329
18101W        W86464  44.856   0.473   1.711
18102W        W86465  11.273  42.437  13.328
18103W        W86466   8.252  10.798   3.351
18104W        W86467  24.495  38.416  14.426
18105W        W86468  37.485  29.998   0.453
18106W        W86469  36.553  13.667   3.238
18107W        W86470  30.951  10.191  10.594
18108W        W86471   7.377   9.653   1.702
18109W        W86472   5.434   3.747  12.900
18110W        W86473  17.116  29.126  10.622
18111W        W86474  11.865  41.399   2.670
18112W        W86475  38.964  20.574   4.335
18113W        W86476  32.527  26.066  12.494
18114W        W86477  11.816   6.918  10.483
18115W        W86478  11.262   9.776   3.790
18116W        W86479  24.627  33.886  13.491
18117W        W86480  21.240  20.103  11.477
18118W        W86481  31.020  21.511  10.564
18119W        W86482   6.275   1.438   1.257
18120W        W86483  36.443  25.583   1.329
18121W        W86484  35.876   9.747  10.914
18122W        W86485  33.598  31.494   2.226
18123W        W86486   1.831  27.017  13.817
18124W        W86487  25.993  40.418  13.919
18125W        W86488  35.548  17.301   1.322
18126W        W86489  40.813   7.408  14.499
18127W        W86490  18.220  20.642   1.328
18128W        W86491  19.168  29.129  12.399
18129W        W86492  24.545   0.490  10.932
18130W        W86493   5.907  43.417   3.244
18131W        W86494   9.377  20.606   4.665
18132W        W86495  22.636  19.724  12.341
18133W        W86496  16.105  32.000  14.957
18134W        W86497  29.092  33.416  11.040
18135W        W86498  36.096  40.902   3.153
18136W        W86499  29.495   2.887   4.208
18137W        W86500  32.050   3.890  14.300
18138W        W86501  20.551  16.750  11.401
18139W        W86502  15.655   8.888   0.386
18140W        W86503  11.230  35.943   0.422
18141W        W86504  18.216  19.550  11.588
18142W        W86505   4.286  29.114  14.321
18143W        W86506  21.539   2.961  13.962
18144W        W86507   1.857   9.780   3.169
18145W        W86508  26.041  29.596  12.538
18146W        W86509  37.856  23.619  12.021
18147W        W86510   0.320  25.684   2.240
18148W        W86511  37.409  15.811   4.183
18149W        W86512  20.125  13.111   0.253
18150W        W86513   3.220   9.249   1.282
18151W        W86514  35.550   1.737   1.357
18152W        W86515  18.648   9.885  14.404
18153W        W86516  39.558  12.820  13.454
18154W        W86517  38.032  21.242   3.190
18155W        W86518  14.706   3.838  12.825
18156W        W86519  36.917  17.306   4.222
18157W        W86520   4.772  34.059   4.759
18158W        W86521  36.439  30.951  13.959
18159W        W86522  20.719  21.220  13.885
18160W        W86523  12.640  21.200   1.782
18161W        W86524  12.230  29.535  12.024
18162W        W86525  24.598  43.276  11.904
18163W        W86526   5.873  38.009   0.282
18164W        W86527  44.952  26.484  12.079
18165W        W86528  41.396   0.336   4.235
18166W        W86529   0.259  43.338   2.242
18167W        W86530  38.861  12.630  14.290
18168W        W86531  25.078  11.201   3.749
18169W        W86532   5.208  22.630  13.450
18170W        W86533   2.848  22.733  11.088
18171W        W86534   8.198  16.268  14.764
18172W        W86535  34.933  21.679   2.334
18173W        W86536   4.881   5.420   2.312
18174W        W86537  36.089  42.971  13.527
18175W        W86538  20.037  18.753   3.152
18176W        W86539  21.679   8.189  12.406
18177W        W86540  25.996   5.896   1.888
18178W        W86541  15.814   6.358  14.854
18179W        W86542   6.863  28.535   4.669
18180W        W86543  10.756  16.700  14.277
18181W        W86544  32.074  36.041  13.528
18182W        W86545  35.854   0.869  11.940
18183W        W86546  23.661  40.858  13.884
18184W        W86547  20.105  44.963  13.878
18185W        W86548  22.531  13.208   4.130
18186W        W86549  41.478  21.120  12.876
18187W        W86550  12.763   3.776   0.287
18188W        W86551  19.700   5.831  12.525
18189W        W86552  13.634  27.049   3.252
18190W        W86553  18.554  25.481  14.474
18191W        W86554  34.374  33.557  13.315
18192W        W86555  14.116  43.000   3.650
18193W        W86556  38.891  12.853   1.352
18194W        W86557   5.868  11.718  13.545
18195W        W86558  34.543  43.893  13.455
18196W        W86559  32.464  24.651   3.206
18197W        W86560  40.953  21.696   4.176
18198W        W86561  15.232  11.721  12.510
18199W        W86562  27.048  23.048  12.070
18200W        W86563  31.095   1.861   4.761
18201W        W86564  44.919   7.344  13.889
18202W        W86565  12.245  27.537   2.419
18203W        W86566  28.504  17.600   0.462
18204W        W86567  33.043  24.618   3.825
18205W        W86568  30.031   7.232  13.448
18206W        W86569   8.222  37.997   4.784
18207W        W86570  40.920   8.343   2.729
18208W        W86571  31.616   9.652  14.003
18209W        W86572  22.583   8.366  11.019
18210W        W86573  24.679  13.604  11.403
18211W        W86574  37.059  15.579  12.520
18212W        W86575  32.923  20.524  13.495
18213W        W86576  34.086   9.733  11.490
18214W        W86577  29.488  35.390  13.363
18215W        W86578   4.868  39.926   0.425
18216W        W86579  17.563  10.309   3.795
18217W        W86580  43.404   9.315   3.230
18218W        W86581   9.801  25.973  14.867
18219W        W86582  11.795  17.683   2.850
18220W        W86583  33.939  18.191   2.229
18221W        W86584  32.395  38.503   1.881
18222W        W86585  41.997  17.703  12.076
18223W        W86586  41.375  16.087  14.513
18224W        W86587  37.436  10.283   3.768
18225W        W86588  25.013  13.219  12.546
18226W        W86589  11.641   6.398  11.395
18227W        W86590  25.591  25.571   2.211
18228W        W86591  12.303  25.474   0.958
18229W        W86592   8.255  30.503  14.323
18230W        W86593  38.951  14.299   0.815
18231W        W86594  41.861  43.444  13.374
18232W        W86595   6.694  23.613  10.593
18233W        W86596   8.676  38.889  11.055
18234W        W86597  25.982  28.997  14.878
18235W        W86598  12.690  16.653  14.351
18236W        W86599   5.774   1.426  10.590
18237W        W86600  15.820  35.946   0.425
18238W        W86601  17.721  14.308  11.954
18239W        W86602  36.564   3.461   0.782
18240W        W86603  41.946  13.192  14.347
18241W        W86604   9.153  11.847  10.638
18242W        W86605  35.048  27.112  10.605
18243W        W86606   9.198  13.631   4.687
18244W        W86607  11.137  21.068  13.841
18245W        W86608  26.192  12.350   3.183
18246W        W86609  27.066  11.824   1.314
18247W        W86610   6.756  36.427  14.366
18248W        W86611  24.981  30.615   3.231
18249W        W86612  43.903  16.216  12.993
18250W        W86613   8.728  23.551   3.804
18251W        W86614  24.568  43.006  14.962
18252W        W86615  31.119  39.493  12.073
18253W        W86616   3.295  30.479   4.289
18254W        W86617  15.132   8.361   1.914
18255W        W86618  27.585  25.582   1.882
18256W        W86619  31.625  40.372   3.331
18257W        W86620  30.918  27.974  12.825
18258W        W86621  31.540  29.970   4.641
18259W        W86622  14.675  36.366   2.372
18260W        W86623   2.441  39.544  13.322
18261W        W86624  33.090  16.199   3.854
18262W        W86625  33.450  42.839  12.490
18263W        W86626  38.424  16.143  13.370
18264W        W86627  34.599  32.464   4.769
18265W        W86628  36.537  17.066   1.805
18266W        W86629  14.592  27.030   2.727
18267W        W86630   2.469  24.536  11.978
18268W        W86631  27.988  36.047   0.320
18269W        W86632  34.991  43.363  12.478
18270W        W86633  15.778   8.761   2.338
18271W        W86634   5.313  20.545  13.038
18272W        W86635  21.247  29.592  14.488
18273W        W86636   2.871  21.696  11.484
18274W        W86637  29.931  34.437   1.738
18275W        W86638  35.009  40.348   4.313
18276W        W86639  22.625  30.105  13.892
18277W        W86640  12.308  23.718   4.173
18278W        W86641  29.539  31.935  12.484
18279W        W86642   2.328  34.055   4.790
18280W        W86643  17.069  11.769  12.871
18281W        W86644   8.667  35.944  10.975
18282W        W86645  31.608   7.204  11.044
18283W        W86646  31.139  17.664  14.385
18284W        W86647  17.782  23.240  12.529
18285W        W86648  33.897  24.706  13.877
18286W        W86649  32.452  21.025  14.768
18287W        W86650  25.988  16.190  14.028
18288W        W86651   0.951  28.507   1.814
18289W        W86652  27.574   6.395   1.914
18290W        W86653   2.764  23.229   3.156
18291W        W86654  22.156  28.562  11.428
18292W        W86655  37.922  41.947  13.415
18293W        W86656  27.553  21.651  11.484
18294W        W86657   5.742  17.077  12.868
18295W        W86658  13.798   1.757   4.716
18296W        W86659  12.813  24.721  14.807
18297W        W86660  11.332   4.386   2.786
18298W        W86661  40.861  44.387  14.452
18299W        W86662  10.760   5.803   1.407
18300W        W86663  13.701  39.055   2.816
18301W        W86664  24.098   8.877  11.549
18302W        W86665  12.775   9.229  14.827
18303W        W86666  39.502   7.179  10.521
18304W        W86667   1.480   0.472  12.830
18305W        W86668  28.481  11.708  14.485
18306W        W86669  41.499  43.988  11.944
18307W        W86670  25.118  26.465  10.907
18308W        W86671   3.931  32.000  14.897
18309W        W86672  30.609  12.320  10.619
18310W        W86673   9.870  38.849   1.755
18311W        W86674   3.277  43.455   1.756
18312W        W86675  36.587  31.066   1.443
18313W        W86676  39.931  24.689  14.305
18314W        W86677   4.429  12.637   2.396
18315W        W86678  27.455  30.658  13.934
18316W        W86679  31.405  25.654   4.291
18317W        W86680  37.884  34.964  11.105
18318W        W86681  22.225  22.727  12.998
18319W        W86682  35.374  31.565  14.762
18320W        W86683   6.188  14.738   4.738
18321W        W86684  28.995  15.220  13.975
18322W        W86685  28.949  17.137  11.532
18323W        W86686  34.565  27.510   3.303
18324W        W86687  38.053  26.105  14.481
18325W        W86688  44.845  30.986   4.273
18326W        W86689  24.177  30.913   0.817
18327W        W86690  27.585   6.845  14.990
18328W        W86691   3.863  29.937  12.830
18329W        W86692  38.869  20.178   1.789
18330W        W86693   3.781   9.661  14.324
18331W        W86694  27.015   7.178   1.450
18332W        W86695  11.734  23.727   1.214
18333W        W86696  35.382  24.183   3.650
18334W        W86697  12.817   1.301  11.123
18335W        W86698  33.035  16.072  12.467
18336W        W86699   5.830  21.254  13.820
18337W        W86700  10.716  38.847  12.418
18338W        W86701   3.242  44.380   0.764
18339W        W86702  30.148   0.873   0.966
18340W        W86703  18.224  40.811  13.493
18341W        W86704  36.952  34.907   0.859
18342W        W86705  28.581   6.878  12.986
18343W        W86706   6.784  29.930  13.491
18344W        W86707  13.823  44.485   0.856
18345W        W86708   8.338   9.184   2.686
18346W        W86709  13.251   6.189   5.134
18347W        W86710  10.663  25.022   3.223
18348W        W86711  25.682  16.793   0.772
18349W        W86712  43.860  24.682  13.820
18350W        W86713  10.184  20.538  11.000
18351W        W86714   5.240  34.976  11.584
18352W        W86715  20.557  32.541  11.088
18353W        W86716  26.684   1.378  14.275
18354W        W86717  13.620  11.263  12.528
18355W        W86718  14.113  13.130   4.836
18356W        W86719  39.394  42.308   0.935
18357W        W86720   2.325  21.643  14.016
18358W        W86721  34.033  22.019   3.686
18359W        W86722  31.514  32.426  11.378
18360W        W86723  29.529  38.934   0.770
18361W        W86724  17.262  28.051  12.430
18362W        W86725  35.961  34.950  11.959
18363W        W86726  32.473   6.913   0.818
18364W        W86727  24.559  31.123  13.037
18365W        W86728   9.240  37.463   3.182
18366W        W86729  23.226  31.093   3.258
18367W        W86730  39.491   0.485   4.199
18368W        W86731  34.976   6.916  13.851
18369W        W86732  27.607  41.992   0.268
18370W        W86733  42.490  24.506   0.846
18371W        W86734  34.925  14.649  13.455
18372W        W86735  23.997  14.615  10.562
18373W        W86736  10.863  40.829  12.866
18374W        W86737  15.767  38.546   1.906
18375W        W86738   7.871  33.413  14.929
18376W        W86739   2.326   5.799   4.193
18377W        W86740  41.979  26.491  10.124
18378W        W86741   6.407  16.785   0.838
18379W        W86742  43.772  33.422   2.715
18380W        W86743  31.542   8.205  10.615
18381W        W86744  31.147   5.886  13.438
18382W        W86745  10.356  31.129  11.924
18383W        W86746  27.960  13.743  10.911
18384W        W86747  23.642   9.650  14.801
18385W        W86748  39.481  21.598  12.425
18386W        W86749  16.642  38.524   4.759
18387W        W86750   1.955  34.506  12.039
18388W        W86751  38.890  15.188   2.270
18389W        W86752  14.332  19.761  13.485
18390W        W86753  32.893  20.066   1.712
18391W        W86754   7.880  19.590  12.570
18392W        W86755   9.317  13.630  13.533
18393W        W86756  33.877   5.710   1.771
18394W        W86757  19.638   4.444  14.316
18395W        W86758   1.781  30.515   3.162
18396W        W86759  24.202  17.742   3.823
18397W        W86760  22.618   2.912  14.322
18398W        W86761  11.320  26.024  11.052
18399W        W86762  10.823  14.791   0.955
18400W        W86763   2.739  27.148   3.371
18401W        W86764  30.946  40.446   1.914
18402W        W86765   0.323  31.941   4.772
18403W        W86766  42.294  18.068  13.826
18404W        W86767  16.746  16.309  13.919
18405W        W86768  44.809  36.388  10.057
18406W        W86769   3.220  12.132  12.861
18407W        W86770  39.964   8.677   0.259
18408W        W86771  31.101  14.671  12.394
18409W        W86772  39.812   1.874  13.985
18410W        W86773  12.690  20.148   2.321
18411W        W86774  40.349  35.426  14.794
18412W        W86775  15.595  13.600   0.756
18413W        W86776  28.508  32.523   2.828
18414W        W86777  19.731   5.815  13.425
18415W        W86778  42.816  31.023   1.914
18416W        W86779  13.158  27.613   2.768
18417W        W86780  31.455  17.798   2.348
18418W        W86781  39.999  43.794  10.546
18419W        W86782  29.526  28.133  11.948
18420W        W86783  33.988  37.896   1.363
18421W        W86784  35.020   9.771  13.796
18422W        W86785  38.556  14.293   4.605
18423W        W86786  26.194  21.185   2.776
18424W        W86787  35.397  37.926  11.893
18425W        W86788  40.397  12.191  13.010
18426W        W86789  34.989  37.527   0.776
18427W        W86790  22.209   1.366   0.884
18428W        W86791   0.949  21.165   3.373
18429W        W86792  32.445  12.145  14.354
18430W        W86793  15.792  40.014   9.951
18431W        W86794  16.226  16.105   1.818
18432W        W86795  32.553   1.350  12.412
18433W        W86796   7.203  27.018  14.508
18434W        W86797  24.006  27.658  14.826
18435W        W86798  34.456  44.959   5.173
18436W        W86799  17.215  42.365  13.835
18437W        W86800  29.927  10.780   1.392
18438W        W86801  11.133  34.450  13.352
18439W        W86802  24.198  34.029  12.015
18440W        W86803  35.465  31.465  12.938
18441W        W86804  19.554  28.944   4.290
18442W        W86805  18.630  31.113  11.527
18443W        W86806  18.269  24.981   2.832
18444W        W86807  33.385  44.495   1.857
18445W        W86808  28.946  31.904   2.181
18446W        W86809  33.920  21.106  14.850
18447W        W86810   0.889   9.717  12.566
18448W        W86811  11.181   2.351   1.798
18449W        W86812  20.562  20.072   2.262
18450W        W86813   3.927  20.129  14.846
18451W        W86814  17.216   2.421  13.999
18452W        W86815  10.241  43.832   3.629
18453W        W86816  39.392   0.352  12.940
18454W        W86817  29.060   9.656  13.051
18455W        W86818   1.385   3.352   2.872
18456W        W86819  32.415   4.384  10.522
18457W        W86820  30.938  10.152  12.049
18458W        W86821  25.649  35.959  11.029
18459W        W86822  18.580  10.644  10.534
18460W        W86823   6.898  19.577   1.807
18461W        W86824  19.179  28.492   1.704
18462W        W86825  25.481   5.293   2.873
18463W        W86826  37.084  40.368  10.941
18464W        W86827  10.745  41.032   0.739
18465W        W86828  16.083  34.071  13.355
18466W        W86829  37.514  13.824   2.274
18467W        W86830  44.945  17.076  10.445
18468W        W86831  22.586  35.874  12.410
18469W        W86832  21.159  24.516   3.710
18470W        W86833   8.819  35.414   2.348
18471W        W86834  32.048  24.126   3.176
18472W        W86835  26.076  37.524  13.862
18473W        W86836  18.239  42.794  12.981
18474W        W86837   3.446  43.363   3.755
18475W        W86838  39.326   9.821   4.348
18476W        W86839   8.894   6.206  14.887
18477W        W86840   4.405  29.567   2.195
18478W        W86841  13.116  30.974  12.974
18479W        W86842   9.807   1.791  14.489
18480W        W86843  39.899   3.450   0.352
18481W        W86844  20.709  43.811  10.441
18482W        W86845  40.501  44.400   3.807
18483W        W86846   7.886  29.490   3.230
18484W        W86847  23.649  24.105  12.835
18485W        W86848   1.977  15.219   2.890
18486W        W86849  39.828   4.267  12.407
18487W        W86850   6.856  22.691   2.390
18488W        W86851  10.757   6.199  12.859
18489W        W86852  29.048  10.302   1.771
18490W        W86853  19.279  44.426  13.376
18491W        W86854  27.136  18.214  14.836
18492W        W86855  13.233  38.938   4.668
18493W        W86856  14.768  40.529  13.350
18494W        W86857  14.166  23.063  14.426
18495W        W86858  44.300   4.414  13.538
18496W        W86859  14.809   2.791   2.410
18497W        W86860  24.492   4.340  11.856
18498W        W86861  34.467  19.704   3.715
18499W        W86862  32.549  39.839  14.939
18500W        W86863  35.961  16.799   3.828
18501W        W86864  21.620  43.461  11.610
18502W        W86865  28.045  35.927  10.545
18503W        W86866  29.604   1.292  14.941
18504W        W86867  31.910  22.227   0.377
18505W        W86868  41.373  22.030   2.767
18506W        W86869  34.909  10.166  13.839
18507W        W86870   8.336  11.802   0.944
18508W        W86871   7.835  31.024  11.428
18509W        W86872  23.027   1.735  11.571
18510W        W86873  22.649  38.826   1.724
18511W        W86874  30.454  36.996   0.842
18512W        W86875  11.343  27.950  11.432
18513W        W86876  31.102  16.764  14.759
18514W        W86877  26.555  26.975   3.372
18515W        W86878  23.733  40.384   3.734
18516W        W86879  18.596   0.390  14.998
18517W        W86880  44.411  35.080   2.850
18518W        W86881  35.372  15.743   4.702
18519W        W86882  20.257   5.251   3.271
18520W        W86883  22.245  11.717   4.766
18521W        W86884  38.869  31.551   3.335
18522W        W86885  26.004  15.824   3.869
18523W        W86886   2.868   9.754   4.812
18524W        W86887  15.698  17.607   5.150
18525W        W86888  12.797  11.821   1.321
18526W        W86889  44.990  28.090  14.512
18527W        W86890   2.924  21.030  14.283
18528W        W86891  40.480  11.709  14.311
18529W        W86892  17.079  13.760   3.695
18530W        W86893  36.946   0.465  13.852
18531W        W86894  23.069  23.025  14.922
18532W        W86895  27.494   0.820  14.942
18533W        W86896  42.833   9.813  11.023
18534W        W86897  19.688  40.933   1.250
18535W        W86898  33.490   8.245  14.446
18536W        W86899  25.553  28.575   2.183
18537W        W86900  41.797  15.606   1.426
18538W        W86901   6.306   0.850  12.978
18539W        W86902  37.491  19.080   1.835
18540W        W86903  26.971   5.219   2.783
18541W        W86904  12.282  37.059  13.489
18542W        W86905  16.648  37.437  11.580
18543W        W86906   2.289  18.563   0.333
18544W        W86907  28.565  26.646   1.444
18545W        W86908  12.122  31.066   2.899
18546W        W86909  31.042  21.560   3.645
18547W        W86910  13.787  39.419  14.864
18548W        W86911  33.447   0.889  12.998
18549W        W86912  44.856  38.004   1.445
18550W        W86913  15.129  42.014  11.382
18551W        W86914  30.945  34.594  14.868
18552W        W86915  40.487  41.535   3.836
18553W        W86916  14.649  14.204  13.311
18554W        W86917   4.774  30.537  14.953
18555W        W86918   4.870  24.179  11.374
18556W        W86919  17.062  20.646  14.865
18557W        W86920  22.087  14.640  10.460
18558W        W86921  20.095  20.602   3.670
18559W        W86922   4.719  25.201  12.924
18560W        W86923  13.816  19.206   4.130
18561W        W86924  13.805  19.745  13.328
18562W        W86925   5.868  36.562   0.330
18563W        W86926   4.865  29.130   3.234
18564W        W86927  10.285   3.365  13.872
18565W        W86928  32.974  10.786   2.371
18566W        W86929  40.472  38.906   2.314
18567W        W86930  41.924   7.339  14.865
18568W        W86931   3.272  35.953   4.824
18569W        W86932  41.459  30.022  11.904
18570W        W86933  37.939  39.905   1.324
18571W        W86934  17.690  25.189   2.204
18572W        W86935  12.659  32.497  11.863
18573W        W86936  39.009  15.190   2.700
18574W        W86937  37.972   9.756   1.762
18575W        W86938  34.978  44.880   5.242
18576W        W86939  42.868  14.763  10.520
18577W        W86940  37.519  28.946   0.463
18578W        W86941   1.430   9.362  12.865
18579W        W86942  39.827   9.205   4.798
18580W        W86943  34.976  37.004  11.559
18581W        W86944  10.154   9.713  10.932
18582W        W86945  27.579   7.691   0.434
18583W        W86946  23.026  14.775   4.342
18584W        W86947  13.183  10.166   2.858
18585W        W86948  39.918  40.924   1.858
18586W        W86949  31.613  13.716  14.953
18587W        W86950  35.442  27.665  13.024
18588W        W86951  36.055  42.399  10.492
18589W        W86952  43.414  16.170  13.315
18590W        W86953  18.121   0.394  10.933
18591W        W86954   2.436  36.432  13.874
18592W        W86955  27.992  26.673  10.908
18593W        W86956  20.179  40.360  10.905
18594W        W86957  23.127   4.925   3.814
18595W        W86958  10.699  27.096   4.148
18596W        W86959  25.583   4.432   2.214
18597W        W86960  41.393  39.981  10.443
18598W        W86961   2.268  15.143  11.381
18599W        W86962  26.139  17.709   2.407
18600W        W86963  13.222  25.520   3.856
18601W        W86964   5.353  42.951  13.474
18602W        W86965  43.946  35.937  12.504
18603W        W86966   2.284  43.003  12.380
18604W        W86967  44.437  41.427   0.809
18605W        W86968   2.798   3.767   4.779
18606W        W86969  32.081  34.940  13.823
18607W        W86970   0.820   5.308  10.494
18608W        W86971  11.302  26.104   3.654
18609W        W86972  42.419  24.996  14.983
18610W        W86973  35.582  37.464   0.778
18611W        W86974  35.601  37.876   2.399
18612W        W86975   8.380   2.317   3.381
18613W        W86976  34.594  18.079  12.963
18614W        W86977  25.503  21.166  12.883
18615W        W86978  10.334  15.308   4.662
18616W        W86979  20.746  17.277  14.386
18617W        W86980  38.353   9.383   3.250
18618W        W86981  19.542   4.939  14.311
18619W        W86982   8.888  20.711   3.840
18620W        W86983  22.210  33.921  11.471
18621W        W86984  34.005  42.510  11.032
18622W        W86985  31.082   6.902  11.548
18623W        W86986  38.949  44.864  14.387
18624W        W86987  35.360  39.845  14.430
18625W        W86988  24.087   3.430  10.629
18626W        W86989  23.159  27.552  14.764
18627W        W86990  37.926  23.111  12.858
18628W        W86991  43.981   7.221  11.475
18629W        W86992  14.183  32.450   2.284
18630W        W86993  32.616  27.571  12.864
18631W        W86994  38.038  14.213   0.762
18632W        W86995  39.823  14.695  11.434
18633W        W86996  39.948  11.803   3.238
18634W        W86997  29.146  41.899   4.687
18635W        W86998  35.953   5.342  14.395
18636W        W86999  43.272   2.314   3.658
18637W        W87000  32.493   5.299  12.506
18638W        W87001  11.167  10.351  13.318
18639W        W87002  10.362  43.801  13.994
18640W        W87003  39.864  14.279   2.766
18641W        W87004  26.151   5.227   1.922
18642W        W87005  24.110  13.125   1.933
18643W        W87006  22.211  33.050   1.787
18644W        W87007  22.745  33.037   1.337
18645W        W87008  26.686  33.887  12.886
18646W        W87009  22.619  27.476   2.776
18647W        W87010  43.903  31.968   0.379
18648W        W87011  43.406  25.486  13.431
18649W        W87012  30.611  14.168  14.466
18650W        W87013  36.082  41.947  12.835
18651W        W87014  44.801  24.596   3.843
18652W        W87015  10.739  29.425   2.794
18653W        W87016  20.583   0.260   3.215
18654W        W87017  16.233   8.211  14.025
18655W        W87018  23.099  20.734   2.351
18656W        W87019  33.908  19.684   0.883
18657W        W87020  44.308  11.328   1.850
18658W        W87021  34.961  26.036   2.394
18659W        W87022  17.280  44.899  14.836
18660W        W87023  32.055  38.971  14.465
18661W        W87024  24.200  24.582   4.303
18662W        W87025   2.284  22.225   3.845
18663W        W87026  12.241   5.377  10.910
18664W        W87027  34.900  26.458   4.138
18665W        W87028   3.751  32.939  10.489
18666W        W87029  30.455  32.553  12.068
18667W        W87030  41.904  13.266   2.178
18668W        W87031  14.695  20.709   1.220
18669W        W87032   7.802  24.129  12.518
18670W        W87033  15.222  17.270   2.340
18671W        W87034  22.232  12.847  12.903
18672W        W87035  38.985  14.247  13.383
18673W        W87036   4.404  17.085   1.922
18674W        W87037  24.105   8.683   1.854
18675W        W87038  25.522  19.693   0.917
18676W        W87039  18.099  29.121  11.079
18677W        W87040  39.029  11.351   4.755
18678W        W87041  27.106  23.238  10.467
18679W        W87042  21.722  22.507  13.513
18680W        W87043  40.412  21.234   4.126
18681W        W87044  40.046   3.427  13.795
18682W        W87045   0.394   1.742   4.783
18683W        W87046  34.108  34.982   4.291
18684W        W87047  40.408  28.030  13.926
18685W        W87048  21.127  13.306  10.638
18686W        W87049  35.549  21.147   2.832
18687W        W87050  37.954  36.459   3.210
18688W        W87051  38.053  18.231   0.274
18689W        W87052  24.618  37.933   1.220
18690W        W87053   9.372  44.791   4.350
18691W        W87054  15.601   5.710  11.500
18692W        W87055  35.439  17.256   4.280
18693W        W87056  18.062   3.772  14.365
18694W        W87057  11.145  32.977  10.925
18695W        W87058   1.464   3.227  13.545
18696W        W87059  21.067  32.634   5.312
18697W        W87060  25.995  36.353  12.546
18698W        W87061  10.361  20.092  10.495
18699W        W87062  20.255  43.420  12.515
18700W        W87063  41.856  25.180   0.891
18701W        W87064  10.202  14.618  12.381
18702W        W87065   5.407  42.387  13.383
18703W        W87066   3.863  37.473  11.062
18704W        W87067  40.407  30.949  11.499
18705W        W87068   1.325  44.844   1.255
18706W        W87069  23.217   3.923   2.779
18707W        W87070   8.371  42.503   3.783
18708W        W87071  25.129   0.353  10.004
18709W        W87072  21.564  25.157  12.542
18710W        W87073   2.405  30.093  12.435
18711W        W87074  11.651   9.675   2.723
18712W        W87075  23.553  35.963   0.731
18713W        W87076   1.380  35.968   3.817
18714W        W87077  32.398  21.080   4.342
18715W        W87078  10.732  41.496   2.808
18716W        W87079  24.539  27.564  10.503
18717W        W87080  35.436  19.040   1.720
18718W        W87081   2.842  24.478  13.985
18719W        W87082  15.819   8.191   3.676
18720W        W87083  41.478  39.953   2.704
18721W        W87084  39.820  38.496  14.957
18722W        W87085  18.286  32.582  11.500
18723W        W87086   3.300   3.420  12.490
18724W        W87087  37.526  28.585  11.861
18725W        W87088  11.319  23.696   3.862
18726W        W87089   4.385  38.553   0.324
18727W        W87090  28.014  21.263   1.222
18728W        W87091  42.367  30.008   1.320
18729W        W87092  30.968  42.855   1.275
18730W        W87093  23.082  38.350   2.218
18731W        W87094  44.503  18.776   2.839
18732W        W87095  43.282  27.026  13.859
18733W        W87096  20.649  34.039  13.995
18734W        W87097   2.920  35.894  14.820
18735W        W87098  43.456  21.624  13.991
18736W        W87099  29.152  18.211  12.957
18737W        W87100   2.472  40.324  12.984
18738W        W87101   6.897  44.450   0.962
18739W        W87102  21.625  32.980  12.070
18740W        W87103   2.374  44.911  11.602
18741W        W87104  29.646  26.179   4.343
18742W        W87105  31.446   2.362  11.584
18743W        W87106  40.022  39.525  12.388
18744W        W87107   6.265   3.321  14.354
18745W        W87108  14.718  22.147   0.883
18746W        W87109  32.067  37.965  12.340
18747W        W87110   7.199   1.402  14.804
18748W        W87111  38.529  12.680   0.303
18749W        W87112  29.975  28.049   5.128
18750W        W87113  25.095  21.635   0.951
18751W        W87114   6.259  43.935   2.826
18752W        W87115  33.608  37.977   5.094
18753W        W87116  29.450  38.325  12.846
18754W        W87117  34.969  22.597   3.629
18755W        W87118  44.906  11.244   4.341
18756W        W87119  31.071  42.478   0.898
18757W        W87120   8.852  15.756   2.316
18758W        W87121  19.228  34.939   0.375
18759W        W87122   0.758   4.813   5.182
18760W        W87123  26.703  31.002   4.214
18761W        W87124  44.486  13.837  12.890
18762W        W87125  20.169   7.841   3.273
18763W        W87126  14.825  23.621   0.734
18764W        W87127   2.940  14.268  12.522
18765W        W87128  36.038  14.733   4.820
18766W        W87129  21.735  19.244  14.388
18767W        W87130  32.463  44.776   4.287
18768W        W87131  34.432   5.802  14.938
18769W        W87132  43.415  18.760   0.361
18770W        W87133  31.006  16.730   2.223
18771W        W87134   9.804   6.299   2.197
18772W        W87135   9.649  37.030   1.826
18773W        W87136  14.297  25.184   9.972
18774W        W87137   6.301   9.773   1.252
18775W        W87138  38.923  36.036   2.267
18776W        W87139  33.429  32.611  12.407
18777W        W87140   2.891  33.046   0.424
18778W        W87141  16.083  44.996  12.419
18779W        W87142  36.061  40.944   2.831
18780W        W87143  21.517  41.829   4.335
18781W        W87144  42.301  31.559  14.308
18782W        W87145  18.634  12.670  14.944
18783W        W87146  11.736  38.552   4.805
18784W        W87147   8.807  26.672   2.296
18785W        W87148  31.953   8.889  10.975
18786W        W87149  31.449  36.011   1.701
18787W        W87150  44.759   3.364  12.494
18788W        W87151  26.061  32.412   1.833
18789W        W87152  34.989   1.251   0.266
18790W        W87153  32.431  27.946  11.087
18791W        W87154  32.976  19.274   2.877
18792W        W87155  44.775  35.541   3.365
18793W        W87156  43.329  17.630   4.692
18794W        W87157  17.730  14.210   3.724
18795W        W87158  40.005  43.488  10.963
18796W        W87159  43.887  29.524  12.017
18797W        W87160  25.006  34.895   2.344
18798W        W87161  26.150  31.433   3.336
18799W        W87162   4.336  43.870  11.045
18800W        W87163  17.731  11.318   2.806
18801W        W87164  39.554  34.513  10.510
18802W        W87165  38.378  44.416   1.312
18803W        W87166  21.079  34.865   3.339
18804W        W87167  39.036  16.301   3.248
18805W        W87168  41.023  11.811  12.483
18806W        W87169  14.147   4.761   1.383
18807W        W87170   4.722  42.780   3.664
18808W        W87171  25.586  35.530   2.734
18809W        W87172  20.105   4.430  14.391
18810W        W87173  43.473   9.351   1.259
18811W        W87174  24.510  37.377  12.460
18812W        W87175  12.808  38.456   1.338
18813W        W87176  20.264  26.203   0.464
18814W        W87177  28.181  29.629  11.531
18815W        W87178  26.029  44.417  14.792
18816W        W87179  26.992   0.978  11.914
18817W        W87180  41.793  38.569   0.895
18818W        W87181  32.521   8.220   4.125
18819W        W87182  38.962  25.149   4.628
18820W        W87183  38.850  18.725   4.299
18821W        W87184  31.033  12.791  13.967
18822W        W87185  39.902  28.111  12.974
18823W        W87186  34.563  28.611   3.330
18824W        W87187   4.312  36.553  10.980
18825W        W87188  13.136  40.055   0.869
18826W        W87189  44.397  19.061  14.893
18827W        W87190  19.210  39.436   1.765
18828W        W87191  39.852  36.958   3.176
18829W        W87192   9.202  41.896  14.828
18830W        W87193  10.190   4.912  11.105
18831W        W87194  24.056  31.044   4.252
18832W        W87195  11.777  35.565   0.754
18833W        W87196   5.208   6.806   4.790
18834W        W87197  10.143  28.498  11.613
18835W        W87198   0.875  17.129   5.197
18836W        W87199  37.879  41.918   0.370
18837W        W87200  43.873  22.147   4.632
18838W        W87201  26.698  30.113  14.950
18839W        W87202  25.697  43.857  11.430
18840W        W87203   0.986   9.681  10.636
18841W        W87204   9.265  32.003   2.879
18842W        W87205   3.827  35.973  11.410
18843W        W87206  21.115   2.354  11.035
18844W        W87207  16.239  14.620   4.643
18845W        W87208   3.747  42.369   4.824
18846W        W87209   3.729  30.457  12.076
18847W        W87210   2.868  15.140   1.715
18848W        W87211  28.606  34.007   1.314
18849W        W87212   0.294   8.762   1.322
18850W        W87213  31.904  17.244  13.976
18851W        W87214   6.229  39.046   1.922
18852W        W87215  18.244  31.484  12.942
18853W        W87216  15.128  25.162  12.900
18854W        W87217   9.753  17.267  14.409
18855W        W87218  11.861   3.938   0.420
18856W        W87219  34.914   0.464   2.769
18857W        W87220  29.154   5.852  14.031
18858W        W87221  13.691   6.296   4.798
18859W        W87222  16.578  40.021  10.494
18860W        W87223  40.366  31.058   4.811
18861W        W87224  25.035   0.456  10.462
18862W        W87225  38.356  29.923   1.247
18863W        W87226  15.135  10.711   2.336
18864W        W87227   3.251  26.569  14.475
18865W        W87228   6.699  44.756  11.942
18866W        W87229  32.048  11.722  10.995
18867W        W87230  22.647   5.858   3.206
18868W        W87231  10.669  24.182  14.795
18869W        W87232  17.721   2.260  13.435
18870W        W87233  42.000  43.916  14.953
18871W        W87234  22.170  25.604  12.375
18872W        W87235  21.727  32.625  13.848
18873W        W87236  15.293  41.021  12.861
18874W        W87237   0.984  29.545  12.896
18875W        W87238  27.076   7.331  13.939
18876W        W87239  16.790   0.368  13.317
18877W        W87240  32.073   3.917   0.864
18878W        W87241  29.451   3.366  12.489
18879W        W87242  31.602   2.795  10.615
18880W        W87243  23.187  21.056  13.465
18881W        W87244  13.134  27.981  12.555
18882W        W87245   5.901  32.492  11.514
18883W        W87246   5.810  28.941   0.812
18884W        W87247  31.638  11.296   0.884
18885W        W87248  34.016  22.606   4.202
18886W        W87249   7.357  33.624  12.943
18887W        W87250  10.317  31.067   1.418
18888W        W87251  10.351  22.557  13.908
18889W        W87252  43.810  20.232   0.797
18890W        W87253  42.955   7.351  12.405
18891W        W87254  25.645   4.389  13.313
18892W        W87255  19.179   0.338  11.024
18893W        W87256  21.046  26.979   0.808
18894W        W87257   8.829   6.299   1.268
18895W        W87258   9.647  36.547   1.235
18896W        W87259   5.739  12.254   2.341
18897W        W87260  38.339  39.519   1.399
18898W        W87261  15.606   3.349  12.447
18899W        W87262  31.998  37.041  10.486
18900W        W87263  21.192  42.919   1.437
18901W        W87264  34.393  23.225   3.715
18902W        W87265  41.443   3.796  10.975
18903W        W87266   7.904  24.162  14.976
18904W        W87267  40.472   6.761   2.237
18905W        W87268  20.185   5.715  13.843
18906W        W87269  32.947   5.407   2.332
18907W        W87270  22.691  44.384   2.257
18908W        W87271  35.004  29.091   0.894
18909W        W87272   4.799  17.683   2.768
18910W        W87273  42.841  42.415  12.853
18911W        W87274  29.559  18.296   0.309
18912W        W87275  11.817   1.904   2.344
18913W        W87276  28.182   9.849   1.272
18914W        W87277   8.693  20.139  14.877
18915W        W87278  24.608   3.234  10.514
18916W        W87279   2.929  29.072   2.271
18917W        W87280  29.146   1.745  10.645
18918W        W87281  32.988  43.786   4.655
18919W        W87282  15.766  32.411   4.302
18920W        W87283  11.750  27.186  13.543
18921W        W87284  23.547  10.363  14.786
18922W        W87285  31.124   0.253  11.564
18923W        W87286  22.009  42.810   0.427
18924W        W87287  38.534  22.546  11.396
18925W        W87288   1.328  37.043   2.208
18926W        W87289  27.967   4.342   0.271
18927W        W87290  26.650  33.389  12.393
18928W        W87291  18.553  35.409   2.262
18929W        W87292   3.235  37.569   0.909
18930W        W87293  37.396   2.414  10.526
18931W        W87294  31.009  33.516   9.933
18932W        W87295  22.504  13.743   1.320
18933W        W87296  15.591   1.361  14.410
18934W        W87297  34.426  38.513  13.048
18935W        W87298   9.856  36.002   2.365
18936W        W87299   1.837  25.117  14.849
18937W        W87300   1.293  41.954   2.796
18938W        W87301  23.185   7.728   1.393
18939W        W87302  19.615  11.762  13.950
18940W        W87303  34.952  41.964   2.863
18941W        W87304  25.062  25.001   1.779
18942W        W87305  31.612  24.696   0.811
18943W        W87306   4.289  26.657   0.847
18944W        W87307  22.069  14.140   1.802
18945W        W87308  40.835  34.958  10.558
18946W        W87309  36.089  10.385   1.321
18947W        W87310  21.743  24.011  10.081
18948W        W87311  15.147  14.283   3.782
18949W        W87312  24.076   3.923  10.490
18950W        W87313  37.999  22.121   3.288
18951W        W87314   9.187  41.379   5.173
18952W        W87315   8.750  41.809   5.207
18953W        W87316  25.483  32.406   1.750
18954W        W87317  14.257  10.662   1.371
18955W        W87318  35.886  34.021   3.734
18956W        W87319  18.133  17.242   3.386
18957W        W87320  20.676  35.021   0.469
18958W        W87321  21.207   1.430   2.894
18959W        W87322  37.442  37.550  11.410
18960W        W87323  13.687  21.069  11.382
18961W        W87324   2.864  17.759   4.603
18962W        W87325  27.090  44.429  13.408
18963W        W87326  16.086  31.901  10.454
18964W        W87327   4.855  18.126  14.821
18965W        W87328  30.927  33.500   3.335
18966W        W87329  15.296  27.043  13.822
18967W        W87330   7.380  13.750   1.318
18968W        W87331  36.556  38.442   3.354
18969W        W87332   3.718  11.794   3.294
18970W        W87333  18.287  20.697   3.644
18971W        W87334  19.718  33.452   4.288
18972W        W87335   3.438  39.062   0.871
18973W        W87336  44.416  41.511  11.123
18974W        W87337   4.346  36.886   3.761
18975W        W87338   9.324  38.387   2.340
18976W        W87339  12.353  35.978   4.748
18977W        W87340   2.399  15.329  12.491
18978W        W87341  34.483  29.994   0.276
18979W        W87342   8.785  14.816   3.185
18980W        W87343  44.995  38.497  12.938
18981W        W87344  13.745  20.135   1.379
18982W        W87345  26.120  37.337  13.367
18983W        W87346  30.001  26.508  10.457
18984W        W87347  23.092  43.311  10.943
18985W        W87348  25.690  14.675   4.277
18986W        W87349  12.670   7.784   2.869
18987W        W87350  39.821  42.304  12.453
18988W        W87351   7.240  39.430   4.304
18989W        W87352   7.860  29.600   2.850
18990W        W87353  36.361   5.377  10.967
18991W        W87354  30.453  27.659   4.698
18992W        W87355  38.476  44.285  11.488
18993W        W87356   3.737  40.422  12.909
18994W        W87357  24.515  28.071  14.296
18995W        W87358   2.825  38.411   4.677
18996W        W87359  12.786  17.700  13.453
18997W        W87360   8.249  35.405  11.458
18998W        W87361  11.826  21.651  10.452
18999W        W87362  36.498  17.198  10.098
19000W        W87363  41.408  21.101   2.669
19001W        W87364  18.689  35.402  11.014
19002W        W87365  28.008  26.561  10.532
19003W        W87366  29.122  38.337   0.838
19004W        W87367  27.454  32.905  10.413
19005W        W87368   5.719  43.847  14.840
19006W        W87369   7.262  14.766  11.917
19007W        W87370  36.418  20.671   1.268
19008W        W87371  20.202  35.577  12.091
19009W        W87372  23.618  14.305  13.926
19010W        W87373  22.169  27.037  13.526
19011W        W87374  25.963  22.657   3.671
19012W        W87375   7.790  39.040   2.664
19013W        W87376  12.353  15.123   2.784
19014W        W87377   3.929  42.971   0.965
19015W        W87378  44.762  26.054   3.631
19016W        W87379   4.749  27.525  10.921
19017W        W87380   8.707   8.375   0.953
19018W        W87381  35.899  33.028  14.334
19019W        W87382  41.420  15.177   3.156
19020W        W87383  18.202  24.523  10.987
19021W        W87384  22.682  38.521   3.168
19022W        W87385  38.876  13.140   3.692
19023W        W87386  36.999  28.154  14.331
19024W        W87387  31.565  21.214   2.210
19025W        W87388  20.662   4.411   0.765
19026W        W87389  12.626  25.082  12.534
19027W        W87390  41.863  16.257   0.440
19028W        W87391  12.726  41.513   4.820
19029W        W87392  28.184  22.688  14.760
19030W        W87393  16.779   1.940   3.173
19031W        W87394  21.137  29.979  13.798
19032W        W87395   9.700  34.872   1.756
19033W        W87396   6.228  43.773   2.410
19034W        W87397  10.730  17.174  13.503
19035W        W87398  14.176   8.726   1.741
19036W        W87399  27.948   8.183   1.856
19037W        W87400  28.096  29.463  12.910
19038W        W87401  10.310   5.417  13.893
19039W        W87402  37.879   6.261  11.094
19040W        W87403  24.094   5.343  11.517
19041W        W87404  19.626  17.125  12.002
19042W        W87405  36.098  23.646   4.219
19043W        W87406  12.166  25.077  12.418
19044W        W87407   4.882  43.905   3.336
19045W        W87408  42.976  40.825  14.978
19046W        W87409  31.113  37.854  14.370
19047W        W87410  33.041  17.583  11.897
19048W        W87411  43.895   6.745   0.311
19049W        W87412   6.868   3.915   3.337
19050W        W87413  20.583   7.264   1.726
19051W        W87414  42.877   4.401   2.267
19052W        W87415  35.433  32.421   3.317
19053W        W87416   9.654  14.797   0.430
19054W        W87417   2.782  31.623  13.482
19055W        W87418   3.378  21.071   2.875
19056W        W87419  12.343  11.261  11.878
19057W        W87420   5.772  27.155  12.086
19058W        W87421  36.932  18.176   1.844
19059W        W87422  44.387  30.550  13.841
19060W        W87423   9.788  44.333  12.389
19061W        W87424   1.888  32.911  12.544
19062W        W87425   4.438  26.063   4.777
19063W        W87426  29.512  26.701  10.967
19064W        W87427  35.409  16.275  12.840
19065W        W87428  29.077  41.425   1.922
19066W        W87429   0.806   1.317  11.435
19067W        W87430  17.633   0.856   3.386
19068W        W87431   8.371  29.631   3.849
19069W        W87432  38.556  30.510  12.094
19070W        W87433  43.811  41.883   2.223
19071W        W87434  10.820  12.145  13.793
19072W        W87435  28.496  41.330  13.793
19073W        W87436  19.613  21.258  13.791
19074W        W87437  39.322  13.658   1.810
19075W        W87438  43.438  32.557  10.459
19076W        W87439   5.365  21.726   1.880
19077W        W87440  17.705   0.850   4.713
19078W        W87441   7.403  41.968  12.830
19079W        W87442  11.683  17.098   2.738
19080W        W87443  34.978  17.787   4.332
19081W        W87444  37.856  44.929  11.553
19082W        W87445  29.949  22.092   3.783
19083W        W87446  15.103  40.404   0.344
19084W        W87447  12.752  11.699  11.914
19085W        W87448  35.410  30.632  12.083
19086W        W87449  42.368  20.105  11.471
19087W        W87450   8.250  12.324  12.860
19088W        W87451  37.023  39.500  11.983
19089W        W87452  21.514   6.833  13.972
19090W        W87453  38.374  42.450   3.273
19091W        W87454  22.184   2.401  10.523
19092W        W87455  32.899   0.816   2.745
19093W        W87456  30.055  38.938  13.953
19094W        W87457  24.581   6.405  14.401
19095W        W87458   8.228  11.689  13.876
19096W        W87459  15.659  12.236   1.821
19097W        W87460  36.044  29.927   0.795
19098W        W87461  44.791  31.624  14.938
19099W        W87462  19.212  42.416  10.974
19100W        W87463  39.906  13.725   3.776
19101W        W87464  23.127  26.657   3.807
19102W        W87465  27.656  19.580  13.987
19103W        W87466  35.868   8.239  11.918
19104W        W87467  39.955  32.460  12.052
19105W        W87468  34.959  28.541  12.552
19106W        W87469  10.680  30.051  12.018
19107W        W87470  16.710   4.379   1.246
19108W        W87471  27.989  12.819   3.854
19109W        W87472   5.361  14.315   5.303
19110W        W87473  39.321  43.890   4.802
19111W        W87474   2.937  30.025  10.599
19112W        W87475  19.587  23.222  13.058
19113W        W87476   5.438  18.783  14.316
19114W        W87477  39.449  23.490  11.964
19115W        W87478  39.873  18.745   3.829
19116W        W87479  25.593   5.363  11.958
19117W        W87480   6.342   7.410   3.320
19118W        W87481   7.399  44.959   3.746
19119W        W87482   5.783  20.590   3.236
19120W        W87483  28.938  11.839  13.314
19121W        W87484  23.022  12.676   4.188
19122W        W87485   7.667   5.401  12.412
19123W        W87486  17.271  27.952  11.958
19124W        W87487  38.871  37.044  14.001
19125W        W87488  32.142  11.318   0.868
19126W        W87489  14.335  22.145  14.330
19127W        W87490  29.594  41.979   0.857
19128W        W87491  23.632  25.615   1.221
19129W        W87492  38.888  42.922  11.459
19130W        W87493  41.849   8.802   5.089
19131W        W87494  44.447  36.584  14.901
19132W        W87495   5.396  15.184   4.322
19133W        W87496  12.787  13.248   2.865
19134W        W87497   9.719  41.452  10.517
19135W        W87498  42.959   1.337   1.731
19136W        W87499  38.510  40.340   4.666
19137W        W87500   5.787  38.843   1.340
19138W        W87501  14.808   7.890   4.701
19139W        W87502  36.562  17.578   2.760
19140W        W87503   5.724  23.702   2.191
19141W        W87504   9.354  29.027   4.674
19142W        W87505  23.219  26.680  12.577
19143W        W87506  23.237  31.606  10.569
19144W        W87507   4.233  44.805  14.873
19145W        W87508  27.570  13.810  14.281
19146W        W87509  23.002  44.502   1.233
19147W        W87510   3.878  15.218  12.414
19148W        W87511  26.057   6.192  13.884
19149W        W87512  11.736  23.703  11.121
19150W        W87513  19.625  25.477  12.447
19151W        W87514   0.968  42.455   0.359
19152W        W87515  13.152  23.546   0.783
19153W        W87516  16.796  44.913  13.879
19154W        W87517  28.490  39.030  11.096
19155W        W87518  40.457  19.682   0.825
19156W        W87519   4.749  18.577  13.012
19157W        W87520   3.851  24.599   3.784
19158W        W87521  36.526  12.794  11.050
19159W        W87522  28.492  15.731  13.353
19160W        W87523  42.797  10.698  11.438
19161W        W87524  24.585  14.678  13.395
19162W        W87525  16.660  12.851   4.815
19163W        W87526  42.503   3.456   2.344
19164W        W87527  13.345  19.614   2.896
19165W        W87528   9.160   1.472   1.250
19166W        W87529  31.403  39.893  11.933
19167W        W87530  16.243  36.919  10.548
19168W        W87531  40.426   0.255   4.189
19169W        W87532  34.416   9.799  11.538
19170W        W87533  20.528  29.106  10.592
19171W        W87534  26.192  40.305  11.016
19172W        W87535   5.709  39.506   4.181
19173W        W87536   1.826  22.682   1.909
19174W        W87537  28.564  19.151   0.482
19175W        W87538  11.341  42.390  11.025
19176W        W87539  41.896  12.261   1.795
19177W        W87540  12.149  34.079  13.903
19178W        W87541  29.661  21.031   1.809
19179W        W87542  26.098  36.855  12.026
19180W        W87543   8.186  35.917   3.680
19181W        W87544  17.796  24.642  11.100
19182W        W87545  17.586  43.777   1.893
19183W        W87546  24.039  21.123  10.004
19184W        W87547  23.186  17.212   1.800
19185W        W87548  32.998  37.465  12.893
19186W        W87549   0.284  33.966   3.212
19187W        W87550  43.890  25.660  11.080
19188W        W87551  10.690  43.469  13.357
19189W        W87552  14.185  30.136  13.389
19190W        W87553  35.020  26.622  11.066
19191W        W87554  20.275  28.509   2.887
19192W        W87555  19.106  16.810  11.966
19193W        W87556  37.883  10.734   0.322
19194W        W87557   0.900  40.903  10.543
19195W        W87558  19.745  25.640  13.395
19196W        W87559  37.923  11.698   2.872
19197W        W87560  34.521   4.846  12.358
19198W        W87561  21.203  18.065  10.450
19199W        W87562  15.116  19.083  11.978
19200W        W87563  41.360  17.095   1.780
19201W        W87564  34.506   5.382   3.192
19202W        W87565  36.574   5.746   0.797
19203W        W87566  42.503  43.282  12.046
19204W        W87567  10.797  18.173   0.892
19205W        W87568  37.033  41.996  14.848
19206W        W87569   5.193  26.634   0.435
19207W        W87570   6.891  11.307  12.050
19208W        W87571  18.557   6.298   1.359
19209W        W87572  19.577  26.016   3.187
19210W        W87573  21.652  12.703  13.058
19211W        W87574   9.202  36.052   4.292
19212W        W87575  36.500  15.241   2.838
19213W        W87576   2.305  16.810  14.955
19214W        W87577  30.957   4.839   3.197
19215W        W87578  13.175  44.845  10.599
19216W        W87579  32.598  11.723   2.192
19217W        W87580  39.450  10.377  12.854
19218W        W87581   1.873  37.933  12.859
19219W        W87582   0.846   2.337  11.376
19220W        W87583  23.092  13.730   2.796
19221W        W87584  32.437   1.463  11.587
19222W        W87585   3.249  34.520  14.806
19223W        W87586   9.650   3.405  10.593
19224W        W87587  13.130  12.780   4.254
19225W        W87588  16.208  30.095   4.781
19226W        W87589  17.157  38.469   2.207
19227W        W87590   3.342  28.100  13.509
19228W        W87591  21.196  40.859   1.885
19229W        W87592   4.905  38.528  14.293
19230W        W87593   5.332  43.009  11.583
19231W        W87594  28.138  34.120  13.535
19232W        W87595  19.235  18.549  10.417
19233W        W87596  30.474  13.601   0.756
19234W        W87597  31.059  13.622   4.762
19235W        W87598  41.512   4.376  12.453
19236W        W87599  24.507   1.876   3.376
19237W        W87600  40.390  24.022   0.873
19238W        W87601  21.600   9.204   3.712
19239W        W87602  15.755  37.889   0.293
19240W        W87603  32.078  26.625   2.215
19241W        W87604  41.314  37.061   2.398
19242W        W87605   7.375  29.480  11.865
19243W        W87606  36.514   3.360  13.490
19244W        W87607  40.022  31.477   3.744
19245W        W87608   3.434  24.211   5.132
19246W        W87609  39.915  37.360   3.657
19247W        W87610  21.238  31.648   0.311
19248W        W87611  43.012  18.118  11.444
19249W        W87612  16.611   7.189  10.922
19250W        W87613  32.053  11.862  13.014
19251W        W87614  10.789  34.954  11.552
19252W        W87615   7.200  12.613   1.264
19253W        W87616  36.363  26.180  12.004
19254W        W87617   9.682  42.804  12.370
19255W        W87618  24.491   2.271   3.294
19256W        W87619  11.189  29.154  13.344
19257W        W87620  21.215  21.157  10.895
19258W        W87621  36.518   4.857   5.081
19259W        W87622  30.522  41.833  14.401
19260W        W87623  25.976  15.210   4.651
19261W        W87624   3.916  43.778  11.470
19262W        W87625  34.589  27.648   1.439
19263W        W87626  29.468  16.296  11.410
19264W        W87627  14.142   0.777  11.588
19265W        W87628  13.733  43.270  10.443
19266W        W87629   5.746  13.752   0.874
19267W        W87630  15.653  25.571   0.839
19268W        W87631   3.393  27.584   3.715
19269W        W87632   7.378  12.246  10.916
19270W        W87633  21.120   1.756  13.487
19271W        W87634  17.631  43.486  11.418
19272W        W87635  28.121  30.538  10.898
19273W        W87636   7.776  12.332   2.707
19274W        W87637  44.291  33.084   4.755
19275W        W87638  40.510  24.107   3.384
19276W        W87639  17.239   7.756   0.819
19277W        W87640  33.107  17.721  10.464
19278W        W87641   3.789  21.542  11.045
19279W        W87642   0.266  14.325  10.571
19280W        W87643   6.274  29.452  14.879
19281W        W87644   9.329  18.059  12.051
19282W        W87645  24.113   1.462   3.158
19283W        W87646  18.610  26.977   1.927
19284W        W87647  16.634   2.924  13.936
19285W        W87648  36.415   5.291   4.758
19286W        W87649   3.456  18.672  10.578
19287W        W87650  33.408   1.441   5.129
19288W        W87651  20.083   5.195  11.946
19289W        W87652  15.134  22.182  12.823
19290W        W87653   1.791  29.645   1.425
19291W        W87654  20.217  13.283  10.631
19292W        W87655  16.202  42.787  14.028
19293W        W87656  34.576   7.380   0.906
19294W        W87657  37.341  19.232   4.696
19295W        W87658  39.895  43.917  14.496
19296W        W87659   5.699  44.291   4.250
19297W        W87660  27.598  30.160  14.894
19298W        W87661  28.514  22.651  13.376
19299W        W87662  40.875  23.234  14.773
19300W        W87663  31.413  31.509  12.384
19301W        W87664   4.203  25.699  13.829
19302W        W87665  29.087  17.163  13.838
19303W        W87666   5.812   6.217   3.761
19304W        W87667  36.098  20.743   3.374
19305W        W87668  31.132  29.958   4.159
19306W        W87669  39.539  26.165   4.751
19307W        W87670  35.574  12.733   2.676
19308W        W87671  31.606  43.994  14.895
19309W        W87672  43.937  31.536  10.644
19310W        W87673  17.629   3.247  12.952
19311W        W87674  14.818  30.034   3.688
19312W        W87675   3.242  36.402  10.474
19313W        W87676   5.889   6.789   2.689
19314W        W87677  19.604  11.773  10.438
19315W        W87678  27.170   2.333   4.668
19316W        W87679  15.817   7.783   1.330
19317W        W87680  20.143   2.282   0.765
19318W        W87681   1.848  33.973   0.402
19319W        W87682  41.982  20.664  12.936
19320W        W87683  37.553  23.539   2.225
19321W        W87684   7.893  40.929  13.860
19322W        W87685  25.160  14.663  11.483
19323W        W87686  31.630  33.550  13.523
19324W        W87687  21.646  41.970  11.541
19325W        W87688   5.267  23.136   2.739
19326W        W87689  16.808  14.174   3.313
19327W        W87690  17.095  41.029  11.482
19328W        W87691  26.573  38.943   1.397
19329W        W87692  23.170  41.366   3.349
19330W        W87693  26.696  15.222   0.923
19331W        W87694  42.870  39.452   4.180
19332W        W87695   1.909  25.666   2.270
19333W        W87696  25.642  16.319  10.406
19334W        W87697  26.638  34.051  13.401
19335W        W87698  41.024   7.802  12.436
19336W        W87699  15.801  29.459  14.923
19337W        W87700  38.562  18.191  12.487
19338W        W87701   9.258  15.603  14.949
19339W        W87702  37.961  38.046  10.643
19340W        W87703  23.508  23.666   1.902
19341W        W87704  23.583  40.504  10.915
19342W        W87705   7.199  16.810   1.706
19343W        W87706  24.725   3.450   1.716
19344W        W87707  40.963   1.736   1.414
19345W        W87708  39.993   8.873  12.829
19346W        W87709  18.755  16.103  13.829
19347W        W87710   9.690  15.238   0.929
19348W        W87711   8.899  36.412  14.939
19349W        W87712  44.453  23.192   0.840
19350W        W87713  10.659  10.804  13.971
19351W        W87714  23.704  35.484   1.775
19352W        W87715  27.082   0.324   3.168
19353W        W87716  39.992  37.517   4.143
19354W        W87717   3.259  33.043   2.684
19355W        W87718   3.842  30.079   4.260
19356W        W87719  41.460   6.868   4.174
19357W        W87720  39.360  22.136   1.424
19358W        W87721  12.181  37.387   2.877
19359W        W87722  33.941  36.492  14.413
19360W        W87723  13.136   9.753  14.380
19361W        W87724   9.820  17.248  12.849
19362W        W87725  18.554  19.176  13.942
19363W        W87726   1.749   5.364  13.922
19364W        W87727  30.504  42.305  10.920
19365W        W87728  24.667  11.806  12.061
19366W        W87729   9.378   9.874   2.277
19367W        W87730  28.094  12.287  13.481
19368W        W87731  13.147  34.920  12.514
19369W        W87732  34.443  42.480   0.941
19370W        W87733   8.668   2.926   4.145
19371W        W87734   3.811  35.438  13.033
19372W        W87735  25.082  40.460   2.414
19373W        W87736  24.222   8.673   4.157
19374W        W87737  28.609   7.412   0.748
19375W        W87738  16.102  35.455   3.781
19376W        W87739  22.524  43.848   4.172
19377W        W87740  11.849  10.824   3.636
19378W        W87741  10.721  33.964  11.383
19379W        W87742  26.117  14.657   0.477
19380W        W87743  36.537  20.589  10.410
19381W        W87744  28.120  36.957   2.369
19382W        W87745   8.669  40.508   4.711
19383W        W87746  11.758  35.102   1.812
19384W        W87747   4.339  38.035   1.784
19385W        W87748  28.647   2.874   0.810
19386W        W87749   7.725  36.393   3.854
19387W        W87750  44.759  42.970  11.603
19388W        W87751  23.614   1.482   3.638
19389W        W87752  17.092  14.716  10.580
19390W        W87753   4.921   6.345   1.300
19391W        W87754   1.978  30.490  14.349
19392W        W87755   1.978  40.473  12.379
19393W        W87756   2.756   4.821   2.413
19394W        W87757  18.094  14.184   2.757
19395W        W87758  37.569  24.094  12.001
19396W        W87759   0.921  32.074   5.239
19397W        W87760  15.282   6.242  10.035
19398W        W87761  26.133  35.553  11.592
19399W        W87762   8.746   5.914  14.007
19400W        W87763  15.637   0.939   3.720
19401W        W87764  28.047  42.953   3.775
19402W        W87765   6.409  38.891   3.279
19403W        W87766  22.550  30.607  12.517
19404W        W87767  36.004  15.162  11.452
19405W        W87768   1.962  13.170   3.760
19406W        W87769  14.673  23.537   3.689
19407W        W87770   4.864  10.184   9.970
19408W        W87771  34.496   7.738  12.576
19409W        W87772  33.496  33.978  10.916
19410W        W87773   1.332  21.192  14.799
19411W        W87774   4.443  35.882  12.557
19412W        W87775   1.856  24.133   1.731
19413W        W87776  36.363   2.314   4.643
19414W        W87777  33.982  31.458   0.853
19415W        W87778  12.748  34.373  12.879
19416W        W87779   4.706  34.471  13.499
19417W        W87780  11.303  43.854   4.731
19418W        W87781  31.428  42.918  12.981
19419W        W87782  28.129   5.842   2.903
19420W        W87783  28.931  30.614  14.301
19421W        W87784  26.503  36.080   4.609
19422W        W87785  13.221  13.810  14.307
19423W        W87786  32.053   7.417  12.512
19424W        W87787  39.967  25.057  12.522
19425W        W87788  11.250   6.679  12.845
19426W        W87789  28.437  22.189   2.691
19427W        W87790  18.215   9.669   2.379
19428W        W87791  40.459  14.230   4.786
19429W        W87792   5.334  31.568  11.961
19430W        W87793  33.402  43.893  11.119
19431W        W87794  27.502   8.212   3.748
19432W        W87795  21.706  23.996   3.651
19433W        W87796  23.557   8.387  10.896
19434W        W87797   3.412  28.502   2.327
19435W        W87798   3.821  44.814  12.417
19436W        W87799   6.827  40.039  14.406
19437W        W87800  41.463  20.186   3.852
19438W        W87801  41.900  10.726   3.645
19439W        W87802   3.313  25.989   1.297
19440W        W87803  44.272  43.911   4.735
19441W        W87804   5.752  31.549  11.596
19442W        W87805   8.388  17.763   1.877
19443W        W87806   0.428  39.033  10.629
19444W        W87807  19.206   7.290  13.843
19445W        W87808  19.619  44.761  14.433
19446W        W87809  39.327   5.234  11.864
19447W        W87810  23.661  39.513  11.049
19448W        W87811  40.841  32.028   2.350
19449W        W87812   5.318  17.560  11.465
19450W        W87813  15.217  35.080  12.017
19451W        W87814  27.154  43.499   3.216
19452W        W87815  43.780  28.636  14.950
19453W        W87816  25.165  30.649   4.711
19454W        W87817  13.316  12.151   4.118
19455W        W87818  32.957  44.935   3.800
19456W        W87819  19.137   4.757  10.000
19457W        W87820   0.793  26.205  13.815
19458W        W87821  15.617  15.183  12.340
19459W        W87822   5.282  15.748  10.582
19460W        W87823  33.905   3.247  11.522
19461W        W87824  24.227  43.771  12.993
19462W        W87825  19.739  23.042  14.017
19463W        W87826  30.450  11.668  14.021
19464W        W87827   9.327   1.252  12.077
19465W        W87828   7.317  40.824  13.890
19466W        W87829  36.477  20.110  14.361
19467W        W87830  25.040  31.954   3.344
19468W        W87831   5.284  30.541   4.781
19469W        W87832  17.240   2.932  11.944
19470W        W87833  21.603   0.329  11.872
19471W        W87834  25.591  40.517  10.448
19472W        W87835  20.182  10.662   1.289
19473W        W87836  31.132  40.332   2.305
19474W        W87837  15.796  17.671  11.031
19475W        W87838  24.495  31.544   3.717
19476W        W87839   7.902  26.522   4.319
19477W        W87840  43.791   4.407  14.989
19478W        W87841  20.031  33.003   1.878
19479W        W87842   4.810  43.984  14.823
19480W        W87843  41.857  14.320  14.820
19481W        W87844  25.601  11.147   3.287
19482W        W87845  17.223  36.399  13.908
19483W        W87846  21.757  11.232  14.340
19484W        W87847  21.209  34.970   3.674
19485W        W87848  38.542  25.174   4.783
19486W        W87849  41.824  28.154   3.662
19487W        W87850  39.963  11.305   5.684
19488W        W87851  21.697   1.457   0.863
19489W        W87852  23.131   1.413   0.301
19490W        W87853  38.494  39.869  14.025
19491W        W87854  27.662  42.346   4.792
19492W        W87855  30.963  43.462   3.663
19493W        W87856  39.329  40.926  12.351
19494W        W87857   7.173   2.308   0.321
19495W        W87858   7.392  13.269  14.820
19496W        W87859   2.370  43.807   3.295
19497W        W87860  19.052  44.771  12.339
19498W        W87861  15.783  20.728  13.026
19499W        W87862  26.667  34.934   2.759
19500W        W87863  39.052  24.526   2.416
19501W        W87864  33.073  22.097  14.429
19502W        W87865  43.308  19.738   0.910
19503W        W87866  42.855   2.730   3.309
19504W        W87867   2.241   8.756   3.800
19505W        W87868  26.122  30.163  11.475
19506W        W87869  15.634  37.868  14.368
19507W        W87870  34.931   2.281  13.863
19508W        W87871  18.641   9.175   4.787
19509W        W87872  11.759   4.395   4.158
19510W        W87873   0.963   5.727   4.609
19511W        W87874  12.825   8.226   1.316
19512W        W87875  37.053   7.341  14.851
19513W        W87876  12.297  21.030  13.432
19514W        W87877   5.929  17.653  13.817
19515W        W87878  11.160  37.533  13.967
19516W        W87879  32.076  28.122   3.697
19517W        W87880  26.144  21.238   4.152
19518W        W87881   2.756  20.549  11.492
19519W        W87882  29.130  37.498  11.375
19520W        W87883  44.916   5.332   4.151
19521W        W87884  33.889  30.563  10.498
19522W        W87885  33.097  29.610   4.337
19523W        W87886  42.792   8.694   3.347
19524W        W87887  36.079  11.621  11.921
19525W        W87888  41.012  22.575  12.446
19526W        W87889  42.463  29.538   3.161
19527W        W87890  22.529  22.239  14.282
19528W        W87891  15.159  23.117   2.796
19529W        W87892  34.104  22.540   3.852
19530W        W87893  25.219   0.484   2.833
19531W        W87894  19.652  35.939   1.380
19532W        W87895   5.929   9.192  14.772
19533W        W87896  27.004  10.797  13.472
19534W        W87897  36.493  44.951  12.840
19535W        W87898  12.636  37.855  14.293
19536W        W87899  44.352  40.042   0.779
19537W        W87900  16.285   3.838   2.179
19538W        W87901   6.717  37.086   4.697
19539W        W87902   6.269  15.693   1.844
19540W        W87903  32.612  40.986  12.532
19541W        W87904  27.462  13.308  12.886
19542W        W87905   1.320  32.112  12.943
19543W        W87906  30.511   0.407   2.756
19544W        W87907  31.618  33.490  12.560
19545W        W87908  21.517  39.860   3.147
19546W        W87909  38.928  40.813  13.335
19547W        W87910   8.226  13.334   3.634
19548W        W87911  33.445  38.340   3.748
19549W        W87912  15.203   5.214   2.698
19550W        W87913   6.324  11.722  10.047
19551W        W87914   9.245  14.737  11.882
19552W        W87915   1.270  42.300   3.824
19553W        W87916  26.689  42.291  11.496
19554W        W87917   5.744  20.556  12.395
19555W        W87918   6.771  28.588   3.768
19556W        W87919  11.627  34.086  11.591
19557W        W87920  33.101  39.049  13.433
19558W        W87921  16.793  35.881  12.044
19559W        W87922   8.826  15.278  14.369
19560W        W87923  34.014   6.323   2.392
19561W        W87924   3.296   5.337  14.423
19562W        W87925   5.794  29.480  13.931
19563W        W87926   8.702  42.514   0.785
19564W        W87927  15.094  29.075  12.984
19565W        W87928  17.672  40.029   0.873
19566W        W87929  10.826  25.007  11.606
19567W        W87930  17.713  22.167   1.443
19568W        W87931   1.420  20.076   4.267
19569W        W87932  42.503  28.585   2.826
19570W        W87933  14.608  24.617  13.903
19571W        W87934   5.713  41.932  11.380
19572W        W87935   4.305  22.529  13.547
19573W        W87936   1.360  28.513   3.169
19574W        W87937  40.451   3.241   4.741
19575W        W87938   0.814  11.287   1.795
19576W        W87939  40.388  20.583  13.417
19577W        W87940   1.810   7.804  13.366
19578W        W87941  37.999  44.759   1.339
19579W        W87942  31.996  15.646   0.821
19580W        W87943  36.036  26.142  14.907
19581W        W87944   1.860   6.298   0.745
19582W        W87945  12.744  30.161  13.447
19583W        W87946  14.831   8.249  13.466
19584W        W87947  30.507  37.576  13.533
19585W        W87948  17.630   5.930  14.850
19586W        W87949  17.171   2.787  12.994
19587W        W87950  19.167  43.929  10.082
19588W        W87951   5.748  18.175   4.725
19589W        W87952  35.871  30.579  14.391
19590W        W87953  39.327  12.257  11.588
19591W        W87954  36.040  28.661   1.396
19592W        W87955  35.490  14.695   2.252
19593W        W87956  39.507   8.263  11.562
19594W        W87957  23.064  29.499  14.966
19595W        W87958   8.728  29.014  14.401
19596W        W87959  21.203   7.347  14.819
19597W        W87960  34.488  14.652  11.075
19598W        W87961  42.940  31.136  12.456
19599W        W87962   5.343   5.272  10.634
19600W        W87963   0.886  22.217  14.308
19601W        W87964   3.346  29.143  13.792
19602W        W87965  18.127  37.025  14.388
19603W        W87966  32.001  26.665   3.344
19604W        W87967  28.625  14.280  11.041
19605W        W87968  14.624   0.269   4.207
19606W        W87969  23.160   5.367  14.413
19607W        W87970  31.963  22.644   0.738
19608W        W87971  16.725  44.290   1.792
19609W        W87972   9.685  42.815  14.392
19610W        W87973  35.473   0.390  13.407
19611W        W87974  37.543  29.567  12.368
19612W        W87975   9.667   2.247  12.018
19613W        W87976  32.096  39.553  14.790
19614W        W87977  14.747  31.588  12.956
19615W        W87978  32.140  26.079   2.257
19616W        W87979  35.475   6.321   1.323
19617W        W87980  10.642  32.949   4.647
19618W        W87981  39.471  41.458  12.913
19619W        W87982  14.797  26.052  11.389
19620W        W87983  38.824  29.488  11.861
19621W        W87984  30.933  41.877  13.324
19622W        W87985  17.189   6.309   1.886
19623W        W87986  28.005  32.402   2.394
19624W        W87987  37.520  13.115  13.356
19625W        W87988  23.110   8.748   3.716
19626W        W87989  10.343  41.370  12.995
19627W        W87990  18.057  31.151  10.999
19628W        W87991  26.606  36.454  11.554
19629W        W87992  24.060  31.048  12.549
19630W        W87993  26.633  20.097   0.438
19631W        W87994  44.437  29.491   1.735
19632W        W87995  35.431  29.456   3.661
19633W        W87996  28.474  44.851   1.850
19634W        W87997  16.731  25.581   2.189
19635W        W87998  13.835  35.582   4.335
19636W        W87999  41.364   4.845  10.079
19637W        W88000  43.779  26.043   2.392
19638W        W88001  27.191  15.125  10.008
19639W        W88002  39.473  15.672   4.827
19640W        W88003  11.356  10.258  14.962
19641W        W88004  14.672  16.700  10.453
19642W        W88005   1.338  23.035   5.318
19643W        W88006   0.276   2.925   3.722
19644W        W88007  36.471  19.094   4.679
19645W        W88008   9.336  20.716   4.121
19646W        W88009  26.145   6.334  12.366
19647W        W88010  21.520  11.206   1.306
19648W        W88011  23.497  41.926   4.190
19649W        W88012  41.902   2.261  12.532
19650W        W88013  42.302  12.189   2.341
19651W        W88014  26.683  16.185   2.229
19652W        W88015  28.066  10.658   4.604
19653W        W88016   4.247  44.811   2.266
19654W        W88017   0.388  28.966  12.492
19655W        W88018  31.582  44.853  10.956
19656W        W88019  13.197  36.384  11.560
19657W        W88020  20.605   3.408   4.208
19658W        W88021  42.418  29.553  13.010
19659W        W88022  33.397   6.339   1.218
19660W        W88023  31.012  36.449   4.210
19661W        W88024   5.744  30.560   2.308
19662W        W88025  33.610  35.057   4.600
19663W        W88026  26.112  34.390   1.367
19664W        W88027  36.052   0.939  12.427
19665W        W88028  10.711  18.659  12.060
19666W        W88029  41.334  44.897  13.537
19667W        W88030  11.313   7.798   1.230
19668W        W88031  39.482  22.210   0.964
19669W        W88032   9.238  12.228   3.831
19670W        W88033   1.395  35.481  14.452
19671W        W88034   2.230  40.420  11.961
19672W        W88035  44.326   0.267   1.310
19673W        W88036  33.618  33.482  12.918
19674W        W88037  12.123   7.310  13.503
19675W        W88038  43.309   4.772  11.548
19676W        W88039  14.633   4.801  11.452
19677W        W88040  28.667   3.307  11.384
19678W        W88041  37.836  35.538   1.413
19679W        W88042  42.892  36.076   9.992
19680W        W88043  28.555  34.384  11.443
19681W        W88044  21.264   5.218  12.838
19682W        W88045  29.969  16.736  13.039
19683W        W88046  21.047  19.116  12.966
19684W        W88047   9.341  31.544   1.403
19685W        W88048  20.724  23.723  13.332
19686W        W88049  18.203  32.592  12.545
19687W        W88050  15.145  43.462   1.358
19688W        W88051  38.024  21.556  11.018
19689W        W88052  27.112   8.269  14.490
19690W        W88053   6.300  11.795   4.712
19691W        W88054  30.989  21.232  10.026
19692W        W88055  23.517  25.652  13.825
19693W        W88056  17.173   5.340   1.273
19694W        W88057  22.141  23.221   3.231
19695W        W88058  43.877  22.245  13.445
19696W        W88059  31.147  27.454  10.039
19697W        W88060  25.664   7.233  11.410
19698W        W88061  23.729  15.306   1.901
19699W        W88062   2.472  23.189  13.013
19700W        W88063  19.255  25.070   3.806
19701W        W88064  36.071  41.357   1.393
19702W        W88065  28.630  42.810  10.923
19703W        W88066  11.327   6.278  12.540
19704W        W88067  19.642  42.485   3.367
19705W        W88068  25.115  13.278  14.426
19706W        W88069  31.600  16.129  11.475
19707W        W88070   2.350  13.630   4.218
19708W        W88071  11.311  25.030   3.755
19709W        W88072  31.955  19.659  10.471
19710W        W88073   3.451  17.234   3.660
19711W        W88074   4.383  30.942   2.287
19712W        W88075  24.724  40.854   1.315
19713W        W88076  40.932  28.116  14.433
19714W        W88077  22.077  18.081  11.929
19715W        W88078  14.184  15.200   4.692
19716W        W88079  37.984  27.503  10.888
19717W        W88080   4.414  23.633   1.307
19718W        W88081  20.653  37.948   1.886
19719W        W88082  35.880  39.960   1.245
19720W        W88083  24.029  14.687  11.981
19721W        W88084  34.966  22.619   3.368
19722W        W88085  32.493  22.233  14.987
19723W        W88086  26.651  29.953   1.373
19724W        W88087  18.088  42.927   4.200
19725W        W88088   0.912  30.642  14.364
19726W        W88089  14.621  29.656  13.992
19727W        W88090   8.687  15.152   0.914
19728W        W88091   1.886   6.835   3.702
19729W        W88092  20.035  41.374  11.431
19730W        W88093  12.177  15.805   3.192
19731W        W88094   0.465  30.461   0.930
19732W        W88095  16.174  13.343  13.918
19733W        W88096   4.900  41.003  14.349
19734W        W88097  12.711  22.134   0.261
19735W        W88098  22.592  19.602   2.309
19736W        W88099  30.923  34.874  14.476
19737W        W88100  21.649  28.679   2.744
19738W        W88101  11.780  15.757   2.395
19739W        W88102  10.805  40.510   3.682
19740W        W88103  24.077  27.545   2.299
19741W        W88104  14.691   1.744  14.847
19742W        W88105  18.199   3.933  14.777
19743W        W88106  20.560  12.651  13.319
19744W        W88107  15.666  27.514  10.104
19745W        W88108  22.534  13.253   0.862
19746W        W88109  25.043   2.900  13.867
19747W        W88110   3.298  38.912  11.019
19748W        W88111  36.499  11.217  10.999
19749W        W88112   6.740  31.458  12.417
19750W        W88113  27.456  15.322   3.326
19751W        W88114  14.590  35.360  13.946
19752W        W88115  21.262  44.497   1.394
19753W        W88116  26.582  17.735   2.206
19754W        W88117  37.063  44.444   1.773
19755W        W88118  31.959  39.544  10.633
19756W        W88119  44.802  13.608   1.393
19757W        W88120  43.991  18.220  14.794
19758W        W88121  30.150  14.283  13.826
19759W        W88122  31.462  16.760  11.975
19760W        W88123   3.311  30.464  13.535
19761W        W88124  16.596   0.879  14.783
19762W        W88125  16.121  41.314   4.153
19763W        W88126  41.974  11.212   1.369
19764W        W88127  16.725  38.551   3.698
19765W        W88128  31.590  23.698  10.440
19766W        W88129  42.940  22.141   0.395
19767W        W88130  26.497  37.072  13.347
19768W        W88131  10.196  22.034  13.503
19769W        W88132  44.771  40.304  14.494
19770W        W88133  10.738  15.822  12.983
19771W        W88134   3.216   4.791   4.649
19772W        W88135  24.665  44.418   1.855
19773W        W88136  11.808   4.900  14.324
19774W        W88137  43.270  15.290  10.955
19775W        W88138   4.241  20.104  13.410
19776W        W88139   9.291  41.992  12.433
19777W        W88140  24.570   4.782   1.416
19778W        W88141  31.601  34.085   3.317
19779W        W88142  20.233  41.823   4.224
19780W        W88143  19.602  16.292   2.891
19781W        W88144   0.345  27.999  11.566
19782W        W88145  43.307   3.426  13.417
19783W        W88146  31.007  30.417  13.480
19784W        W88147  32.422  18.750  12.932
19785W        W88148   2.732  44.949   0.366
19786W        W88149  28.097  36.517   4.632
19787W        W88150  26.511  24.709   0.781
19788W        W88151   7.860   8.750  11.408
19789W        W88152  12.172  18.547   0.376
19790W        W88153  34.917  18.682  10.459
19791W        W88154  25.036   3.421   2.719
19792W        W88155  25.647   4.837   2.850
19793W        W88156  16.674   7.696  11.125
19794W        W88157  30.102  44.914   2.292
19795W        W88158  10.360  18.603  10.506
19796W        W88159  12.715  14.193  12.473
19797W        W88160  15.729   1.930   4.166
19798W        W88161   0.423  42.788  12.055
19799W        W88162  15.088   3.942  12.490
19800W        W88163  41.881  22.043   2.291
19801W        W88164  33.002  27.677   3.724
19802W        W88165  10.150  34.926  12.372
19803W        W88166  19.195  28.673  10.585
19804W        W88167  26.542  28.656  14.405
19805W        W88168  11.649   3.222   4.725
19806W        W88169  35.006   0.840   4.216
19807W        W88170  17.730   6.406  13.518
19808W        W88171  12.159  20.103  14.488
19809W        W88172  18.634  39.457   4.689
19810W        W88173  12.612   2.962   4.196
19811W        W88174  36.425  27.464   0.875
19812W        W88175   8.219  41.340   4.134
19813W        W88176  10.797  36.356  11.943
19814W        W88177  22.731   9.745  13.442
19815W        W88178  21.696  31.070   4.160
19816W        W88179  44.945  18.196   4.648
19817W        W88180  36.512  30.652   3.789
19818W        W88181  44.764  42.974  12.019
19819W        W88182  26.492  13.105   3.253
19820W        W88183  32.965   9.169  10.640
19821W        W88184  33.519  24.630  12.512
19822W        W88185  19.697  31.067   0.870
19823W        W88186  42.969   7.319   3.647
19824W        W88187  18.277   2.287   3.246
19825W        W88188   1.469  10.837  10.493
19826W        W88189  16.723  38.512  13.063
19827W        W88190  19.244   1.865  11.056
19828W        W88191  38.063  10.823  12.977
19829W        W88192  22.567  42.454   4.207
19830W        W88193   7.313  40.881  10.520
19831W        W88194  20.075  43.801   1.299
19832W        W88195  32.487  26.069   2.897
19833W        W88196   6.297  12.318  10.460
19834W        W88197   9.344  32.505  14.831
19835W        W88198  27.650  40.323  10.576
19836W        W88199  17.183  37.346   2.861
19837W        W88200   4.942  21.030   4.281
19838W        W88201  22.613  43.280  12.545
19839W        W88202   9.876   7.744  10.516
19840W        W88203  27.649  29.449  13.841
19841W        W88204  35.372  26.142  12.361
19842W        W88205  32.004  23.597   4.736
19843W        W88206  24.679  21.168   2.845
19844W        W88207  22.237   3.881  12.908
19845W        W88208  17.285  43.439  14.864
19846W        W88209   4.733  28.949   4.776
19847W        W88210  28.081  41.418   0.884
19848W        W88211   5.379  11.665   2.310
19849W        W88212  25.575  18.084   0.758
19850W        W88213   3.278   0.985  10.906
19851W        W88214  22.746  28.084   4.732
19852W        W88215  40.872   6.909  14.376
19853W        W88216  22.637  19.270   0.920
19854W        W88217  19.649   8.700  11.088
19855W        W88218  21.023  27.059  14.474
19856W        W88219  19.102  25.592   2.319
19857W        W88220  16.073  37.374  13.495
19858W        W88221  44.885  16.143  14.021
19859W        W88222  16.087  24.147   2.734
19860W        W88223  21.565   9.725  10.471
19861W        W88224   5.740  12.271  14.014
19862W        W88225  25.543  32.964   0.792
19863W        W88226  31.560  44.782  12.342
19864W        W88227   5.798  26.999  13.888
19865W        W88228   7.338  37.384   1.775
19866W        W88229  31.054  19.591   3.644
19867W        W88230  20.079  38.411  13.827
19868W        W88231   8.273  12.725  11.955
19869W        W88232  42.436  17.191   3.689
19870W        W88233  36.348  33.979  12.873
19871W        W88234  25.680  21.742  14.514
19872W        W88235  23.520  17.741  10.987
19873W        W88236   5.301  38.919  12.430
19874W        W88237  14.292  19.263  10.407
19875W        W88238  17.585   2.406   1.321
19876W        W88239  13.650  44.905  14.799
19877W        W88240   7.724  37.506   0.261
19878W        W88241  24.985  23.051   3.781
19879W        W88242  42.522  31.602  11.986
19880W        W88243  21.083  43.862  10.904
19881W        W88244  10.774  12.811  12.018
19882W        W88245  38.422   2.387   3.156
19883W        W88246  33.059  18.157  12.045
19884W        W88247   3.833  33.391  13.454
19885W        W88248  41.822  18.646   1.219
19886W        W88249   1.968  36.064   2.273
19887W        W88250  32.624  20.120  12.476
19888W        W88251  42.986   2.440  11.982
19889W        W88252  34.928   8.863   1.772
19890W        W88253  27.955  33.931  14.377
19891W        W88254  24.516  30.536  10.889
19892W        W88255  23.600  23.010  12.435
19893W        W88256  44.501  19.724   1.698
19894W        W88257  25.143  30.111   2.266
19895W        W88258  21.164   1.825  14.392
19896W        W88259  36.392   9.716  12.572
19897W        W88260   2.755  36.041   3.797
19898W        W88261  34.020  14.149   3.353
19899W        W88262   2.283   1.475   0.245
19900W        W88263  29.970  18.563   3.200
19901W        W88264  37.000  27.656   2.270
19902W        W88265  21.027  25.994  11.530
19903W        W88266  30.448  32.633  10.481
19904W        W88267  22.704  41.941   3.166
19905W        W88268  40.028   6.699   4.732
19906W        W88269  37.978  20.527   4.733
19907W        W88270  35.056  27.958   3.659
19908W        W88271  18.222  27.692   2.897
19909W        W88272  33.397  25.981  13.533
19910W        W88273  37.552  22.627   0.933
19911W        W88274  11.802  21.045  14.892
19912W        W88275  20.581  36.005  10.584
19913W        W88276  14.195  24.714   2.764
19914W        W88277  28.126  13.339   1.268
19915W        W88278   7.827   0.470  11.409
19916W        W88279  28.447  32.547  14.013
19917W        W88280  26.016  14.324  13.931
19918W        W88281  10.280  16.588   1.305
19919W        W88282  27.123  41.296   0.323
19920W        W88283  28.955  31.457   2.323
19921W        W88284  28.010  24.980  11.451
19922W        W88285  26.032  31.085  13.333
19923W        W88286   1.866  11.738   1.740
19924W        W88287  26.034  15.657   1.898
19925W        W88288  25.544  27.604  12.037
19926W        W88289  42.024  21.164  14.453
19927W        W88290  20.273  19.239  10.500
19928W        W88291  20.034   4.383   4.161
19929W        W88292  43.330  37.846   0.759
19930W        W88293  21.704   4.215  10.987
19931W        W88294   1.958  15.801  11.938
19932W        W88295   1.378   5.738  13.448
19933W        W88296   6.365  17.170   5.103
19934W        W88297   1.875  44.956  11.109
19935W        W88298   7.738  29.099   0.465
19936W        W88299  12.327  44.343  10.422
19937W        W88300  24.583  36.936   1.826
19938W        W88301   3.370  38.464   3.756
19939W        W88302  21.711   0.371  11.382
19940W        W88303   4.898  29.953  10.947
19941W        W88304  30.453  11.309  12.447
19942W        W88305   9.809   6.909  14.279
19943W        W88306  27.632   8.260  14.457
19944W        W88307   1.319  24.040  14.780
19945W        W88308   2.304  20.271   4.123
19946W        W88309   4.762  40.322  14.826
19947W        W88310  44.819   9.324  12.373
19948W        W88311  34.062  14.732  11.403
19949W        W88312  17.597  16.134   2.677
19950W        W88313  27.529  26.047   2.308
19951W        W88314  44.455   9.157  12.498
19952W        W88315  10.761  28.617  13.948
19953W        W88316  43.770  43.320  14.946
19954W        W88317  16.241   4.308  14.472
19955W        W88318  17.721  41.925  13.022
19956W        W88319   5.744  11.799  12.538
19957W        W88320  19.064  19.756   1.411
19958W        W88321  34.510   9.750   4.675
19959W        W88322  29.924  27.189   2.868
19960W        W88323  24.586  37.572   5.309
19961W        W88324  10.759  34.493  14.853
19962W        W88325  11.363   3.929  13.052
19963W        W88326  32.454  14.720   0.408
19964W        W88327  35.102  39.452   4.150
19965W        W88328  34.058  39.825   0.300
19966W        W88329  14.246   9.291  11.529
19967W        W88330   2.905  39.032  14.912
19968W        W88331  10.835  24.138   4.671
19969W        W88332  19.248  43.388   2.225
19970W        W88333  18.100   3.925  12.340
19971W        W88334  32.088  22.171  11.499
19972W        W88335   8.272  22.143  12.857
19973W        W88336  30.482   2.275   4.315
19974W        W88337  17.127  15.793  12.427
19975W        W88338  36.506  44.824   3.664
19976W        W88339  31.540  44.318  10.016
19977W        W88340  23.193  35.459  14.832
19978W        W88341   2.742  23.708  13.509
19979W        W88342  39.322  25.478   2.215
19980W        W88343   9.389  14.215   3.200
19981W        W88344  13.225   6.906   5.743
19982W        W88345  19.144  11.304  13.022
19983W        W88346   8.177  27.113   1.226
19984W        W88347  14.292  44.892  12.928
19985W        W88348   1.969  22.094   5.197
19986W        W88349  35.028  31.449  12.035
19987W        W88350  39.329   2.446  12.039
19988W        W88351  40.019  22.041   2.227
19989W        W88352  18.191  39.810   1.788
19990W        W88353  22.023  19.691  13.891
19991W        W88354  33.016  13.719  12.375
19992W        W88355  42.398   1.761  11.857
19993W        W88356  36.900  12.617  13.321
19994W        W88357  31.053  10.834   2.258
19995W        W88358  19.588   7.358   2.826
19996W        W88359  29.563   1.789   3.804
19997W        W88360   3.744  44.838   4.203
19998W        W88361  34.012  11.169   3.745
19999W        W88362  12.252  43.487  14.933
20000W        W88363   7.707  23.035  11.945
20001W        W88364  40.498   3.356  12.545
20002W        W88365   6.289   1.800   2.279
20003W        W88366  33.522  17.798  10.562
20004W        W88367  19.675  29.093   2.901
20005W        W88368  12.813   3.900   2.298
20006W        W88369  39.342  15.208  13.443
20007W        W88370   2.964  35.080  13.420
20008W        W88371  11.145  43.972   1.339
20009W        W88372  11.369  27.518   0.312
20010W        W88373  32.442  28.966   1.249
20011W        W88374  39.904   7.826   3.863
20012W        W88375  20.073   8.827  11.488
20013W        W88376  18.115   0.814  12.374
20014W        W88377   7.758  35.033   4.756
20015W        W88378  28.539  29.669  11.045
20016W        W88379  41.349  13.149  12.560
20017W        W88380   3.718  39.393   0.822
20018W        W88381  21.632   0.780  12.824
20019W        W88382   8.775  17.644   2.202
20020W        W88383  21.532  29.067  13.816
20021W        W88384  30.547  13.204   0.767
20022W        W88385  24.175  14.712   3.254
20023W        W88386  44.301   1.977  12.972
20024W        W88387  19.193  33.067  14.372
20025W        W88388  38.933  37.356   1.333
20026W        W88389  41.458  41.843   3.296
20027W        W88390  38.981  36.512   2.401
20028W        W88391  28.545  14.296   5.620
20029W        W88392  34.013  43.807  11.550
20030W        W88393  38.985  33.909   3.839
20031W        W88394   4.839   9.172  13.004
20032W        W88395   4.699   1.369  14.761
20033W        W88396  32.599  37.460  14.885
20034W        W88397  32.987  43.854   9.460
20035W        W88398  27.548   0.960   1.269
20036W        W88399  40.512  36.854  11.071
20037W        W88400  39.537  24.007  11.940
20038W        W88401  25.635  30.601   3.762
20039W        W88402  23.020  33.542   2.390
20040W        W88403  26.647  16.744   5.625
20041W        W88404  18.694  38.554   2.785
20042W        W88405  20.224  42.450  13.453
20043W        W88406   8.783   2.851   1.386
20044W        W88407  39.458  34.091  11.959
20045W        W88408  30.111  32.396   0.406
20046W        W88409  16.257  18.130   4.786
20047W        W88410  42.868  12.212   4.723
20048W        W88411   7.812  12.679  11.497
20049W        W88412  33.021  15.252  14.029
20050W        W88413  17.080  32.592   2.762
20051W        W88414  20.259  19.738   3.222
20052W        W88415  36.944  43.789  11.869
20053W        W88416  41.991  16.643  13.884
20054W        W88417  31.558  32.563  10.586
20055W        W88418  41.829  43.366   0.374
20056W        W88419  26.116  23.522   4.153
20057W        W88420   1.289  43.356   3.643
20058W        W88421  17.203  44.450  12.413
20059W        W88422  10.314   2.316  13.485
20060W        W88423   8.884  16.632  10.531
20061W        W88424  41.377  25.080  13.053
20062W        W88425  21.610  32.920   1.233
20063W        W88426  27.670  10.199   9.959
20064W        W88427  17.623  16.808   9.959
20065W        W88428  21.184  37.083  14.965
20066W        W88429   7.328   5.777   4.286
20067W        W88430  24.116  44.794  11.066
20068W        W88431  40.340  11.326  12.065
20069W        W88432  37.954  42.997   2.200
20070W        W88433  13.668  37.006   2.685
20071W        W88434  11.291   7.907   2.773
20072W        W88435  18.294  17.106  12.895
20073W        W88436  37.464  15.617  11.112
20074W        W88437  44.404  38.516   9.559
20075W        W88438  22.502   5.888  13.906
20076W        W88439  33.107  40.889  11.102
20077W        W88440  14.258   4.843   4.342
20078W        W88441  41.979  16.747   4.189
20079W        W88442   5.735  23.231  14.435
20080W        W88443  18.121  17.296  10.919
20081W        W88444   9.178   9.716  12.844
20082W        W88445   2.226  27.991   2.679
20083W        W88446  20.082  15.320  10.516
20084W        W88447  44.333   5.304  10.446
20085W        W88448  32.040  33.047  12.990
20086W        W88449   1.480  24.207   3.804
20087W        W88450  16.592  26.537  11.888
20088W        W88451  39.367  19.183  12.868
20089W        W88452  43.932  35.412  14.865
20090W        W88453   0.920  41.363  14.775
20091W        W88454   4.255  29.497   1.803
20092W        W88455  32.956   1.306  12.550
20093W        W88456  39.976   6.869   0.955
20094W        W88457  10.842  28.039   3.804
20095W        W88458  39.838  39.850   0.420
20096W        W88459   8.193  43.017  10.472
20097W        W88460  18.244  18.620   3.677
20098W        W88461  20.601  25.085   3.152
20099W        W88462   3.789  33.491   2.762
20100W        W88463  19.184  43.924  11.122
20101W        W88464  12.162  39.809  11.863
20102W        W88465  11.334   0.292  11.106
20103W        W88466   2.278  34.394  12.435
20104W        W88467  36.470  32.061  13.792
20105W        W88468  33.467   6.890  13.932
20106W        W88469  30.158  21.645  13.931
20107W        W88470  29.568   1.739   3.320
20108W        W88471   9.831  11.800   0.918
20109W        W88472  37.409  39.976  10.442
20110W        W88473  14.830  11.789   0.327
20111W        W88474  39.417  20.260   2.693
20112W        W88475  33.613   9.804  11.961
20113W        W88476   6.274  16.687  11.870
20114W        W88477  12.199   2.952   2.242
20115W        W88478   0.872  17.181  11.008
20116W        W88479  42.801   3.459   1.741
20117W        W88480  16.275  35.991   5.180
20118W        W88481  36.362  27.072   3.327
20119W        W88482  11.279  16.613   0.847
20120W        W88483   8.395  32.529   2.785
20121W        W88484   4.801   0.358  10.945
20122W        W88485   0.372  40.867  14.323
20123W        W88486  26.604  22.692   4.226
20124W        W88487   0.803  14.721  14.465
20125W        W88488  40.986  39.871   1.359
20126W        W88489   2.946  32.984  10.901
20127W        W88490  27.135  11.715  13.545
20128W        W88491  12.667  26.656  12.018
20129W        W88492  27.533  28.048   1.299
20130W        W88493  16.800   7.874   2.835
20131W        W88494  26.161  36.940  10.942
20132W        W88495  11.793  11.828  11.390
20133W        W88496  15.299   9.342   4.833
20134W        W88497   5.883  44.310  10.640
20135W        W88498  44.917   2.402  12.894
20136W        W88499  41.944   0.798   2.331
20137W        W88500  39.860  23.097   3.379
20138W        W88501  31.124   2.240  11.014
20139W        W88502   1.906  35.991  10.473
20140W        W88503   7.665   6.241  14.447
20141W        W88504  29.509  43.854   3.751
20142W        W88505  21.031  39.475   0.402
20143W        W88506  28.459   3.783  11.074
20144W        W88507   2.934  41.961   2.392
20145W        W88508  18.192  14.240  11.970
20146W        W88509  23.604   3.252   1.780
20147W        W88510  15.679  18.553   4.332
20148W        W88511  11.216   1.249   0.905
20149W        W88512  17.245  36.908  13.540
20150W        W88513  29.029  30.145   9.925
20151W        W88514  32.394   8.677  11.968
20152W        W88515  44.962  11.221  12.886
20153W        W88516   3.786  34.988  11.396
20154W        W88517  28.979  13.680   2.843
20155W        W88518   9.705  25.185   1.348
20156W        W88519   5.711  12.296  12.356
20157W        W88520  17.678  13.613   0.915
20158W        W88521  25.972  13.178  14.304
20159W        W88522   2.458  22.561   9.921
20160W        W88523  19.667   3.740   0.784
20161W        W88524  29.565  33.406  11.072
20162W        W88525   0.785   6.882   4.242
20163W        W88526  17.577  41.864   2.361
20164W        W88527  23.574  28.619   4.299
20165W        W88528   1.389  44.843  13.346
20166W        W88529   1.862  12.346   2.405
20167W        W88530   2.943   7.896   4.245
20168W        W88531  17.143   3.816   0.851
20169W        W88532   4.775  28.581  13.005
20170W        W88533  27.671  16.648   0.819
20171W        W88534  29.055  21.089   0.744
20172W        W88535  43.441  30.644   5.265
20173W        W88536  16.241  12.763   0.867
20174W        W88537  30.017  21.140   2.838
20175W        W88538  12.127  15.653   2.671
20176W        W88539  30.074  21.029   4.667
20177W        W88540  13.308  39.526  13.360
20178W        W88541  15.734   9.671   0.374
20179W        W88542  32.491  18.183  13.307
20180W        W88543  36.860   3.955   4.637
20181W        W88544  15.723  42.429   4.663
20182W        W88545  28.984  36.906   2.737
20183W        W88546  33.439   6.760   3.820
20184W        W88547  38.853   8.890   1.425
20185W        W88548   4.820  35.019  11.611
20186W        W88549   9.808  30.031   1.820
20187W        W88550  22.017  35.082  13.500
20188W        W88551  24.486  35.961  14.009
20189W        W88552  18.764  10.225  13.539
20190W        W88553   2.379  25.613  11.490
20191W        W88554  39.437  42.351   2.851
20192W        W88555  23.546   2.796  14.941
20193W        W88556  12.236   1.474  11.940
20194W        W88557  17.149  24.161   2.408
20195W        W88558  38.042  21.669   3.382
20196W        W88559  39.001  17.072  13.465
20197W        W88560   6.308  19.646  10.638
20198W        W88561  16.608   9.650  14.278
20199W        W88562  42.838  35.495   2.830
20200W        W88563  29.557  42.804   3.791
20201W        W88564  30.095  17.102   4.826
20202W        W88565   8.338  14.282  14.459
20203W        W88566  30.437  40.866  13.801
20204W        W88567  22.569  38.858  11.476
20205W        W88568   4.748   6.362  14.008
20206W        W88569  27.524  10.743   0.268
20207W        W88570  14.689  36.986  13.373
20208W        W88571  25.962  23.107  14.879
20209W        W88572  18.674  12.678   4.692
20210W        W88573  31.484   2.754   3.825
20211W        W88574  28.150  22.119   4.316
20212W        W88575  14.834  17.605  11.417
20213W        W88576  20.243  20.133  13.548
20214W        W88577  15.266  28.011   4.193
20215W        W88578  22.060   7.869  14.397
20216W        W88579  11.355   3.739  12.076
20217W        W88580  22.659  37.915   3.713
20218W        W88581  11.128  42.868   0.784
20219W        W88582   5.740   2.433  12.954
20220W        W88583  15.125   4.247  12.866
20221W        W88584  19.267  23.729   0.953
20222W        W88585  18.213   3.249  13.982
20223W        W88586   9.676  30.630  12.069
20224W        W88587   1.954  22.130  11.601
20225W        W88588  35.521  14.683   2.788
20226W        W88589  39.924  15.237   0.821
20227W        W88590  19.215  21.107   1.324
20228W        W88591  12.265  13.260  14.004
20229W        W88592  16.141  40.325   1.855
20230W        W88593  22.737  26.680   1.834
20231W        W88594  19.249  14.143   5.183
20232W        W88595  28.507  32.107  13.934
20233W        W88596  10.246   4.307   1.863
20234W        W88597   7.757  24.072  12.848
20235W        W88598  42.443  21.073   1.215
20236W        W88599  16.184  34.051  14.028
20237W        W88600  36.869   9.867  11.103
20238W        W88601  13.177  39.439  14.498
20239W        W88602   2.422   5.396  13.336
20240W        W88603  15.163  21.755  13.916
20241W        W88604  36.508   8.198  10.525
20242W        W88605   7.235  30.469  10.995
20243W        W88606  40.395  24.651  11.512
20244W        W88607  21.072  31.978   4.786
20245W        W88608  35.447  40.372   2.205
20246W        W88609  29.645  38.867   5.084
20247W        W88610  37.575  18.110   3.763
20248W        W88611   3.794  41.812   2.386
20249W        W88612  20.653  34.863   4.707
20250W        W88613  30.454  28.642   1.433
20251W        W88614   3.932  10.688  13.991
20252W        W88615  25.188  25.697  14.956
20253W        W88616   7.783  16.127   0.305
20254W        W88617  30.079  13.640  10.481
20255W        W88618  12.644  39.026  14.808
20256W        W88619  39.893  20.738   0.277
20257W        W88620  13.113  17.792  14.793
20258W        W88621  44.776  23.527   2.279
20259W        W88622  35.880   7.328  13.524
20260W        W88623  38.975   1.377   0.357
20261W        W88624  19.120  44.830   0.907
20262W        W88625  29.055  27.651   3.818
20263W        W88626  28.435   4.305   3.164
20264W        W88627  11.841  23.709   0.423
20265W        W88628  15.578  36.058  14.375
20266W        W88629  41.892  25.202  14.395
20267W        W88630  25.689  30.604   1.348
20268W        W88631  34.980   8.657  13.520
20269W        W88632  31.622   3.734  10.412
20270W        W88633  26.050  16.197   4.634
20271W        W88634  35.917  14.617   4.116
20272W        W88635  24.510  21.022  14.461
20273W        W88636  28.627  24.975   0.809
20274W        W88637  30.497  43.888   1.376
20275W        W88638   2.934  15.205   3.734
20276W        W88639  18.147  14.807  11.410
20277W        W88640  32.978  31.592   0.433
20278W        W88641  20.721  26.702   4.605
20279W        W88642  25.572  21.126   4.611
20280W        W88643   6.777  42.479  14.470
20281W        W88644  24.694  35.955  13.496
20282W        W88645  34.407  42.333  12.371
20283W        W88646  22.505   0.349   4.824
20284W        W88647  39.374   9.786   2.766
20285W        W88648  33.431  30.989  11.046
20286W        W88649  26.053  32.005  11.051
20287W        W88650   1.239  26.641   5.194
20288W        W88651   7.180   4.755   3.846
20289W        W88652  44.980  24.545   3.260
20290W        W88653  28.145   1.813  10.576
20291W        W88654  44.770  12.251  12.559
20292W        W88655  19.065  36.085   4.194
20293W        W88656  35.055  12.277  13.348
20294W        W88657   5.339  36.534  11.876
20295W        W88658  11.187  19.730  14.499
20296W        W88659  27.177   2.467   2.903
20297W        W88660  23.198  32.605   0.264
20298W        W88661  31.594  13.287  10.901
20299W        W88662  43.466   7.214  12.913
20300W        W88663   4.277  28.160  10.511
20301W        W88664  28.933  11.351  13.887
20302W        W88665   7.223  13.800  11.449
20303W        W88666  16.176  10.137   2.836
20304W        W88667   7.372  25.502   4.197
20305W        W88668   7.901   4.205   3.860
20306W        W88669  39.465  29.564   2.725
20307W        W88670   1.454  13.258  11.537
20308W        W88671  18.760  26.099  14.853
20309W        W88672  17.793   9.192   2.844
20310W        W88673   5.351  39.812   4.269
20311W        W88674  16.275  16.602  12.998
20312W        W88675  44.377  19.214   0.290
20313W        W88676  17.215  21.155   1.725
20314W        W88677   8.859  10.782   2.846
20315W        W88678  19.224  39.488  13.950
20316W        W88679  39.953  27.089  14.360
20317W        W88680   5.739   1.462  14.018
20318W        W88681  22.214  30.565  10.907
20319W        W88682   8.883  25.704   3.758
20320W        W88683  40.895  10.194   0.728
20321W        W88684  27.670   7.745   0.863
20322W        W88685  37.980  18.195  12.478
20323W        W88686   8.804  30.490  12.932
20324W        W88687  37.551  25.578  14.425
20325W        W88688  35.102  23.193  14.336
20326W        W88689  30.624  11.726   3.837
20327W        W88690  16.782  17.095   1.422
20328W        W88691   3.935  18.078  10.905
20329W        W88692  35.517  25.102  11.517
20330W        W88693  10.726  37.921   3.778
20331W        W88694  41.407  31.093   1.820
20332W        W88695  22.999  11.263   1.331
20333W        W88696   0.791   1.826   0.336
20334W        W88697  27.950  33.600  12.912
20335W        W88698   1.793  32.109  13.516
20336W        W88699  23.035   4.420   0.788
20337W        W88700  15.778   5.202   3.631
20338W        W88701  29.026  15.805  12.949
20339W        W88702  23.069  10.764   1.742
20340W        W88703  12.358  23.120  10.633
20341W        W88704  28.594  11.248   4.252
20342W        W88705   9.328  33.963  14.871
20343W        W88706  17.748  22.208   2.226
20344W        W88707  43.017  31.629   0.868
20345W        W88708  37.080  34.953  13.511
20346W        W88709  19.076   7.324  10.526
20347W        W88710   5.267  39.902  14.022
20348W        W88711  12.328   3.717  12.437
20349W        W88712  16.134  44.835  10.945
20350W        W88713   5.795   6.703  11.597
20351W        W88714  20.234   4.883  14.020
20352W        W88715  18.254  33.929  14.396
20353W        W88716  25.481  40.455  10.933
20354W        W88717   5.841   6.287   4.154
20355W        W88718  40.500  21.564   3.799
20356W        W88719  24.226  11.644   0.785
20357W        W88720  38.328  41.344  14.322
20358W        W88721  38.918  29.432  13.003
20359W        W88722  36.019   9.833   4.726
20360W        W88723  10.825  11.151  12.875
20361W        W88724   3.916  15.799  11.971
20362W        W88725  31.538  10.315   2.343
20363W        W88726  20.072  16.669  10.569
20364W        W88727  43.960  17.249   2.843
20365W        W88728   3.411  26.184  12.491
20366W        W88729  12.314   0.471   2.817
20367W        W88730  36.931  12.230  12.559
20368W        W88731  39.926  26.693   1.390
20369W        W88732  41.964  35.032   9.964
20370W        W88733  15.136   8.832   2.384
20371W        W88734   9.306   8.718   3.158
20372W        W88735  20.215   0.436  12.011
20373W        W88736  17.284  15.157  14.378
20374W        W88737  25.152  15.318  12.413
20375W        W88738  22.061  24.119  11.917
20376W        W88739  30.424   7.793   0.916
20377W        W88740  41.527   1.756  13.860
20378W        W88741  32.983  41.956   0.746
20379W        W88742  26.527  43.858   2.779
20380W        W88743  30.157   3.736  13.430
20381W        W88744  20.609  40.885   2.785
20382W        W88745  31.541  31.957  11.948
20383W        W88746  37.074  10.236   4.652
20384W        W88747  16.222  30.111  13.981
20385W        W88748   5.267  24.151   0.403
20386W        W88749  43.953  27.660  12.365
20387W        W88750  29.049  13.244   1.417
20388W        W88751  36.967  21.082  12.080
20389W        W88752   3.220  30.067  11.461
20390W        W88753  17.210  20.576   2.776
20391W        W88754   1.350  22.060   4.311
20392W        W88755  42.990   9.212   4.789
20393W        W88756   7.835  21.728  13.365
20394W        W88757  34.580  12.702   0.323
20395W        W88758  30.487  31.510   0.364
20396W        W88759  20.067  23.673  12.047
20397W        W88760  44.462  22.523   1.739
20398W        W88761  15.233  16.262   0.424
20399W        W88762  12.770  13.118  11.994
20400W        W88763   8.195  20.098  13.521
20401W        W88764  35.541  12.797  12.092
20402W        W88765  25.650  26.655  11.891
20403W        W88766  24.682  30.659   3.705
20404W        W88767  24.026  23.657  11.953
20405W        W88768  43.843  18.791  10.997
20406W        W88769   2.255  23.511   0.899
20407W        W88770  11.166  16.173  11.068
20408W        W88771  18.126  27.570   1.758
20409W        W88772  15.205   0.389   2.285
20410W        W88773  42.022  33.384  10.149
20411W        W88774  39.527   0.797   2.843
20412W        W88775  11.629  20.618   1.847
20413W        W88776  24.084  40.467   1.911
20414W        W88777  17.168  19.039   3.350
20415W        W88778  13.786  24.222   4.322
20416W        W88779  35.519  22.502   3.220
20417W        W88780   1.274  16.687   4.673
20418W        W88781  33.029  17.594  14.780
20419W        W88782   3.421  41.799   4.288
20420W        W88783  16.230  15.312   1.291
20421W        W88784  33.425   9.749   2.410
20422W        W88785  10.781  34.602  12.967
20423W        W88786  36.458  34.055   1.736
20424W        W88787  24.720  31.627   4.279
20425W        W88788  38.357  41.503   0.363
20426W        W88789  14.130   7.816  12.921
20427W        W88790   3.366  26.571  11.386
20428W        W88791  36.986  17.277   0.936
20429W        W88792  18.273  36.042  13.518
20430W        W88793  27.198  17.125   3.763
20431W        W88794  40.965  42.489   4.145
20432W        W88795  27.989  32.464  12.846
20433W        W88796  24.660  24.667  12.023
20434W        W88797  10.794  29.920  12.431
20435W        W88798  26.562  16.163  14.463
20436W        W88799  42.927   2.287   5.199
20437W        W88800  26.963  42.952  13.844
20438W        W88801  12.281  16.074  10.448
20439W        W88802  28.138  30.568  12.069
20440W        W88803  13.309   3.444  14.356
20441W        W88804  36.038  35.382  10.954
20442W        W88805  11.320  22.175   1.396
20443W        W88806   6.276   6.877  14.284
20444W        W88807   1.817   9.303  13.445
20445W        W88808  24.513   0.967   2.826
20446W        W88809  30.651  34.896  10.904
20447W        W88810  23.564  35.876  13.509
20448W        W88811   3.833   9.873   0.829
20449W        W88812  44.862  28.931   3.210
20450W        W88813   7.297   2.728   1.751
20451W        W88814  32.998  37.442   0.378
20452W        W88815  24.098   6.188   3.285
20453W        W88816   1.799  35.547  13.803
20454W        W88817   2.297   5.373  12.042
20455W        W88818  36.966  33.489  11.494
20456W        W88819  19.702   0.298  14.366
20457W        W88820   1.745   2.867  11.398
20458W        W88821  34.450   6.823  13.526
20459W        W88822  44.272   5.323  14.362
20460W        W88823  43.360  42.820   3.276
20461W        W88824   8.174  37.421  12.988
20462W        W88825  29.121  19.164  14.933
20463W        W88826  29.535  15.634   3.762
20464W        W88827  42.516  33.541   0.386
20465W        W88828  17.307  31.919   1.264
20466W        W88829  42.879  43.806   1.227
20467W        W88830   1.879  43.348   0.419
20468W        W88831  25.012   9.671   2.810
20469W        W88832  33.883  25.688  13.399
20470W        W88833   8.234   3.419   1.255
20471W        W88834  12.797   3.785  14.779
20472W        W88835  28.134  15.257  13.012
20473W        W88836  44.916   8.762   1.764
20474W        W88837  31.978  27.094   3.661
20475W        W88838  37.438   8.180   0.857
20476W        W88839  39.884  10.643   2.333
20477W        W88840   8.823  26.203   2.893
20478W        W88841  10.650  27.083   0.767
20479W        W88842  12.709   7.203   1.423
20480W        W88843  37.047  33.521   2.240
20481W        W88844  26.011   0.461  14.298
20482W        W88845  33.540  34.893   2.210
20483W        W88846   2.380   7.361  13.363
20484W        W88847   6.919  30.541   3.271
20485W        W88848  29.453  14.254   4.614
20486W        W88849   4.860  17.224  13.029
20487W        W88850  30.535  41.388  11.035
20488W        W88851  44.264  36.456   3.216
20489W        W88852  34.986   7.759  14.354
20490W        W88853  35.501   4.899  14.398
20491W        W88854  35.545   6.271  12.430
20492W        W88855  41.534  24.484  10.892
20493W        W88856  42.861  12.255  12.046
20494W        W88857  31.106  33.945  13.398
20495W        W88858  16.112  29.033   2.178
20496W        W88859  11.283   8.803  13.819
20497W        W88860   3.952  38.340   1.328
20498W        W88861   1.471  12.218   3.720
20499W        W88862  40.474  25.192   5.144
20500W        W88863  29.080  14.237   3.228
20501W        W88864  36.904  42.995   3.338
20502W        W88865  40.349  22.651  11.566
20503W        W88866  29.609   5.324  13.815
20504W        W88867   9.317  21.668   4.823
20505W        W88868  16.168   7.830   4.798
20506W        W88869  35.026  25.486   0.346
20507W        W88870  28.145  19.609  14.964
20508W        W88871   5.276  33.890  14.908
20509W        W88872  13.681  36.574  11.031
20510W        W88873  26.585  15.642   0.792
20511W        W88874  30.021  42.776  11.967
20512W        W88875  43.782  12.846  14.805
20513W        W88876   3.823  13.256  13.474
20514W        W88877  35.389  16.808   0.381
20515W        W88878  25.613  38.011   0.468
20516W        W88879   4.862  28.155   3.632
20517W        W88880  20.231  23.065  12.503
20518W        W88881   8.264  35.865  11.030
20519W        W88882  39.532   6.231  11.068
20520W        W88883   8.308   4.401  12.458
20521W        W88884   4.236  28.941  13.871
20522W        W88885   0.323  19.747   1.404
20523W        W88886   7.278  32.059  14.966
20524W        W88887  22.518   2.450   2.743
20525W        W88888  30.953   1.324   2.836
20526W        W88889  34.076  29.998  11.924
20527W        W88890  44.952  10.256   0.424
20528W        W88891  31.635  42.422   3.199
20529W        W88892  22.597  16.286  14.469
20530W        W88893  21.523   8.233   3.190
20531W        W88894   1.414   7.736   0.447
20532W        W88895   0.758  15.248  14.278
20533W        W88896  21.624   4.215  12.553
20534W        W88897  38.920  42.989   4.196
20535W        W88898  15.288  40.050   1.267
20536W        W88899  37.579  34.447   4.689
20537W        W88900  37.445  28.980   3.861
20538W        W88901  19.219  15.615  14.799
20539W        W88902  21.555   9.198  13.051
20540W        W88903  25.063   1.363  13.976
20541W        W88904  41.369  26.991   2.842
20542W        W88905   8.663  19.055  11.528
20543W        W88906  34.884  36.077   0.787
20544W        W88907  39.947  29.956   2.780
20545W        W88908   3.443  39.838   3.690
20546W        W88909   1.747  26.635  14.506
20547W        W88910   5.385  42.334   1.217
20548W        W88911   0.267  37.374   5.741
20549W        W88912   3.378  16.116   1.834
20550W        W88913  25.539   4.922  10.130
20551W        W88914   4.289   5.253  14.463
20552W        W88915  38.049  17.772   0.323
20553W        W88916   2.302   5.917  13.520
20554W        W88917  20.031  15.695   2.316
20555W        W88918  20.121  14.784  10.558
20556W        W88919  42.509  23.643  13.548
20557W        W88920  38.045  13.218  11.410
20558W        W88921  23.124   9.384   0.894
20559W        W88922  37.579  22.242   3.343
20560W        W88923   6.367  38.361  14.029
20561W        W88924  34.035  31.578   1.764
20562W        W88925  12.686  38.423  14.931
20563W        W88926   2.298  35.064   2.294
20564W        W88927  30.088  25.532  12.965
20565W        W88928  28.437  35.517  12.828
20566W        W88929   9.265  30.417  11.912
20567W        W88930  31.971  36.012  11.492
20568W        W88931  17.122  21.518   1.786
20569W        W88932  21.209  40.021   1.753
20570W        W88933  17.130  31.081  13.888
20571W        W88934  24.979   1.927   3.279
20572W        W88935  14.678  35.063  12.523
20573W        W88936  17.079  43.925  13.868
20574W        W88937  35.602  33.551   4.115
20575W        W88938   0.355  14.252  14.815
20576W        W88939  34.505  41.822   2.414
20577W        W88940  30.930  27.594  13.525
20578W        W88941  18.790  22.581   2.670
20579W        W88942  17.681   3.315   4.202
20580W        W88943  31.122  19.596  10.576
20581W        W88944  13.825  37.071  13.807
20582W        W88945   8.317  15.286   3.807
20583W        W88946   4.787  28.603   1.752
20584W        W88947   3.343  44.472  10.481
20585W        W88948  32.074   5.344  13.847
20586W        W88949  11.213   9.683  10.964
20587W        W88950  27.072  24.491   3.798
20588W        W88951   4.904  40.497   4.666
20589W        W88952  41.985  35.063   4.119
20590W        W88953  21.017  32.073  13.972
20591W        W88954   5.897  14.618  12.390
20592W        W88955  17.181  14.296  10.538
20593W        W88956  11.853  25.159  14.860
20594W        W88957  27.028  26.185  11.116
20595W        W88958  40.534  23.655  10.473
20596W        W88959  14.131   7.204  13.348
20597W        W88960   5.815   9.746   0.404
20598W        W88961   1.799  23.193   1.288
20599W        W88962   2.915   3.319   0.424
20600W        W88963  44.963   4.790  12.442
20601W        W88964  17.729  41.359  12.577
20602W        W88965   9.179  29.041  13.005
20603W        W88966  37.904  38.982  12.458
20604W        W88967  14.790   0.791  14.449
20605W        W88968   0.769   8.179   1.367
20606W        W88969   4.246   1.291  11.530
20607W        W88970   9.682  29.054  11.549
20608W        W88971  12.711  29.046  10.631
20609W        W88972  24.221  44.376  13.962
20610W        W88973  24.561  29.495   0.775
20611W        W88974  39.399  28.171  10.946
20612W        W88975  13.284  35.379   4.113
20613W        W88976  18.218  11.814  10.996
20614W        W88977  37.887   4.940   1.368
20615W        W88978   8.662   8.865  13.972
20616W        W88979   6.194  40.826  11.424
20617W        W88980   9.188  43.917  14.996
20618W        W88981  30.918  36.908  13.035
20619W        W88982   0.286  42.980   2.738
20620W        W88983   1.819  19.613   4.752
20621W        W88984  16.603  37.574   0.265
20622W        W88985   0.918  38.033   3.847
20623W        W88986  27.952  42.864  12.056
20624W        W88987  40.031  43.403  13.820
20625W        W88988  43.484   6.915   2.313
20626W        W88989   7.717   9.256   0.320
20627W        W88990  37.397  42.812   5.083
20628W        W88991  17.149  42.470  11.398
20629W        W88992  10.815  17.212   0.753
20630W        W88993  11.807  13.207   0.361
20631W        W88994  43.768  42.797  12.442
20632W        W88995  38.431  35.883  13.834
20633W        W88996  32.042  39.002   2.677
20634W        W88997  13.267  22.619   1.235
20635W        W88998  15.635  40.428   5.245
20636W        W88999  17.282  30.924   4.126
20637W        W89000  29.974   9.157  10.511
20638W        W89001  34.077  19.733   4.715
20639W        W89002  44.336   8.175   3.750
20640W        W89003  28.436  23.108  14.884
20641W        W89004  16.712  21.657   0.375
20642W        W89005  14.621  27.503   0.948
20643W        W89006  43.794  42.814  11.466
20644W        W89007  14.160  31.000   0.907
20645W        W89008  24.712  33.901   2.319
20646W        W89009  44.992   4.850  10.924
20647W        W89010  17.797  43.334   0.833
20648W        W89011  24.166   0.362  13.440
20649W        W89012  23.735  27.554  12.443
20650W        W89013  41.439  37.485  11.532
20651W        W89014  37.449  15.268   0.754
20652W        W89015  30.011  18.700  12.092
20653W        W89016  11.850   7.342   2.740
20654W        W89017  16.631   3.901  14.029
20655W        W89018  15.680  32.607   3.208
20656W        W89019  38.484  24.628  13.063
20657W        W89020  14.682   9.218   2.774
20658W        W89021   1.956  13.241   1.920
20659W        W89022  28.176  12.207  12.980
20660W        W89023  38.363  10.313  11.513
20661W        W89024  40.309  22.503  13.915
20662W        W89025  43.975  18.197  11.983
20663W        W89026   2.410  42.310   3.821
20664W        W89027  44.282  38.903  13.883
20665W        W89028   0.974  19.577   1.723
20666W        W89029  29.606  32.911   4.120
20667W        W89030  35.411  42.796   1.801
20668W        W89031   7.749  23.680   0.740
20669W        W89032  33.620  34.904  14.356
20670W        W89033   5.423   9.259   2.270
20671W        W89034  21.673  28.626  12.354
20672W        W89035   6.769  33.981  14.330
20673W        W89036  35.446  36.423  12.022
20674W        W89037   2.272   9.264   0.886
20675W        W89038  34.427   5.808   4.803
20676W        W89039  18.681  18.058  14.383
20677W        W89040  41.803   6.712   1.373
20678W        W89041  24.211   0.465  10.444
20679W        W89042  41.498  23.669   3.262
20680W        W89043  31.968  31.630  10.460
20681W        W89044  25.516   8.357   4.795
20682W        W89045  22.601   8.294  13.018
20683W        W89046  23.054  32.431   2.675
20684W        W89047  21.254  42.996  14.326
20685W        W89048  18.217  16.219   2.272
20686W        W89049   2.802  13.311  13.887
20687W        W89050  25.511   9.235   3.298
20688W        W89051  38.564   3.925   4.716
20689W        W89052  32.550  39.932  12.391
20690W        W89053  20.645  25.037   4.161
20691W        W89054   3.281  20.615  14.976
20692W        W89055  27.009   7.200  11.077
20693W        W89056  31.422  14.753   3.785
20694W        W89057  30.653   3.419  13.900
20695W        W89058  22.589  26.017  12.397
20696W        W89059   0.359  44.861  11.111
20697W        W89060  22.053  44.490  14.788
20698W        W89061  26.490  40.410  13.388
20699W        W89062  39.032  20.552  13.832
20700W        W89063  20.709   8.263   0.445
20701W        W89064  20.763   8.227   1.360
20702W        W89065  38.498  24.623   3.315
20703W        W89066  41.909  40.050   1.882
20704W        W89067  31.579  20.617   1.291
20705W        W89068  26.572  30.473   2.848
20706W        W89069  11.189   0.969  11.939
20707W        W89070  16.196  15.233   9.575
20708W        W89071  32.893  23.109   2.418
20709W        W89072   0.956  31.496   2.815
20710W        W89073  40.510  36.083   2.776
20711W        W89074  30.657  15.633   0.761
20712W        W89075  33.533  36.476  13.509
20713W        W89076  12.731  20.714  12.055
20714W        W89077  21.215  23.054   3.857
20715W        W89078  33.431  37.340   1.410
20716W        W89079  28.025  28.531  12.398
20717W        W89080  30.955   5.281   2.845
20718W        W89081  38.520   8.684  14.978
20719W        W89082   8.664  40.545  12.415
20720W        W89083  12.236  13.292   3.787
20721W        W89084  16.713  16.590   5.117
20722W        W89085  11.188  31.898   4.159
20723W        W89086  37.053  41.523   3.637
20724W        W89087   5.869  30.625   1.241
20725W        W89088  21.546  32.069  10.160
20726W        W89089   2.332  13.234  14.514
20727W        W89090  15.265  14.610   2.879
20728W        W89091  17.063  19.063   4.633
20729W        W89092  26.049  30.154  12.961
20730W        W89093  18.266   6.243   4.623
20731W        W89094   0.960  25.600   4.298
20732W        W89095   1.846  32.011   0.790
20733W        W89096   6.340   3.360   3.294
20734W        W89097  32.038  30.465   2.679
20735W        W89098  15.306   1.958  14.010
20736W        W89099  36.434  20.549  13.852
20737W        W89100  16.690  38.524  12.023
20738W        W89101   9.346   3.915  11.951
20739W        W89102   4.298  20.264   0.350
20740W        W89103  20.764  22.120   4.155
20741W        W89104  41.302  25.488  13.357
20742W        W89105  25.049  13.606   3.816
20743W        W89106  10.855  38.391  12.349
20744W        W89107  43.994  14.316  11.557
20745W        W89108  24.544  44.892  12.554
20746W        W89109  10.810  32.080  13.859
20747W        W89110  27.681   7.728   2.722
20748W        W89111  28.045  28.171   2.767
20749W        W89112  34.541  14.144   3.166
20750W        W89113  12.207   1.871   0.242
20751W        W89114  44.497   6.336   1.781
20752W        W89115  32.910  28.567   9.444
20753W        W89116  22.636  30.546  13.008
20754W        W89117  42.029  14.196  14.032
20755W        W89118  21.694  31.482   3.179
20756W        W89119  28.465   8.840   3.357
20757W        W89120  30.076  24.132   0.771
20758W        W89121  30.560  13.217  11.074
20759W        W89122  25.988  40.951  10.617
20760W        W89123   8.706  19.093   4.214
20761W        W89124  44.976  42.937   3.195
20762W        W89125  44.469  40.490   3.366
20763W        W89126  37.024   4.753  14.856
20764W        W89127  44.946  42.844   0.881
20765W        W89128  27.978  13.283   3.731
20766W        W89129  14.198  42.845  13.308
20767W        W89130  18.740  36.430   4.127
20768W        W89131   9.156  19.091   3.207
20769W        W89132  14.309  30.148  10.932
20770W        W89133   0.985  44.904  13.791
20771W        W89134  17.180  26.154  12.560
20772W        W89135  34.113  39.416   3.632
20773W        W89136   4.928   7.397   3.385
20774W        W89137  42.297   8.375   1.362
20775W        W89138  29.962  32.073   1.787
20776W        W89139  10.638  28.957   0.893
20777W        W89140  29.494  33.481   2.677
20778W        W89141  42.431  11.839   4.115
20779W        W89142  20.152  12.761  14.937
20780W        W89143  15.653   8.162  11.397
20781W        W89144  26.195   1.483  13.871
20782W        W89145  19.611  13.287   0.405
20783W        W89146  25.058   6.249   3.263
20784W        W89147  13.693  22.648  14.353
20785W        W89148  33.937   3.280  10.931
20786W        W89149  28.610  33.939  12.880
20787W        W89150   1.276  42.926  11.875
20788W        W89151   6.813  29.528   2.849
20789W        W89152   3.289   8.754   5.277
20790W        W89153  14.228  25.514  14.485
20791W        W89154  39.910  28.043   4.706
20792W        W89155  34.070   2.936  11.935
20793W        W89156  10.327  11.346   3.757
20794W        W89157  34.028  11.370  12.395
20795W        W89158  23.678   4.813  10.889
20796W        W89159  15.614  26.679   1.443
20797W        W89160   0.450  33.516   1.899
20798W        W89161  20.036  20.529  11.480
20799W        W89162  10.255  35.883  12.864
20800W        W89163  35.887  44.401   2.847
20801W        W89164   3.799  37.846   1.782
20802W        W89165  30.571  34.917  12.043
20803W        W89166  15.305  12.823   4.208
20804W        W89167  36.529  24.512   4.691
20805W        W89168  26.077  35.953  13.866
20806W        W89169  18.717  12.845   5.107
20807W        W89170  17.077  31.494   4.741
20808W        W89171  33.951  10.351  14.027
20809W        W89172   1.454  16.237  14.426
20810W        W89173  40.430  21.042  11.926
20811W        W89174  13.809  43.835  12.485
20812W        W89175  26.130   3.710  12.405
20813W        W89176  14.105  29.575  13.323
20814W        W89177  21.519   5.884   2.333
20815W        W89178  21.575  35.985   0.407
20816W        W89179   3.811   4.828   1.386
20817W        W89180  20.110   8.732   3.737
20818W        W89181   7.832  16.224  13.936
20819W        W89182  18.584   1.240  10.424
20820W        W89183  21.717  22.192   4.834
20821W        W89184   3.854   1.368  14.449
20822W        W89185  21.699  13.135   1.769
20823W        W89186  20.109  20.696   1.351
20824W        W89187  13.196  25.146  11.437
20825W        W89188  42.890  35.078  11.855
20826W        W89189   5.789  34.088   1.363
20827W        W89190   6.391  29.592  12.033
20828W        W89191  16.171  31.995   2.413
20829W        W89192  43.507   1.756   2.790
20830W        W89193  11.193  25.011   3.207
20831W        W89194   2.854  22.206   1.350
20832W        W89195  32.466  19.158  10.420
20833W        W89196  23.997  18.754  13.991
20834W        W89197  17.652  37.842   4.743
20835W        W89198  34.079  35.935   0.264
20836W        W89199   2.821  25.973  10.963
20837W        W89200  31.072  33.586  11.022
20838W        W89201  12.795   9.304  10.515
20839W        W89202   9.255   5.705  10.517
20840W        W89203   1.393  22.739   2.881
20841W        W89204   6.302   5.422   1.223
20842W        W89205  39.969  29.483   0.359
20843W        W89206  35.403  22.249  13.858
20844W        W89207  27.663  36.882  13.884
20845W        W89208  23.705  34.028   0.255
20846W        W89209  33.995  35.520  13.034
20847W        W89210  44.420  40.375   1.746
20848W        W89211   4.822   4.337   3.158
20849W        W89212  39.969  26.185   2.340
20850W        W89213   7.801   8.898   1.268
20851W        W89214   7.738  38.015  10.625
20852W        W89215   9.183  37.950   2.410
20853W        W89216  43.352  37.061   4.721
20854W        W89217   6.808  44.943   3.800
20855W        W89218   6.844   8.870  13.907
20856W        W89219  35.920  18.626  11.903
20857W        W89220  11.834  10.335  12.915
20858W        W89221  23.056  19.155   1.440
20859W        W89222  31.996  29.480  12.353
20860W        W89223  40.957  39.395   2.883
20861W        W89224  43.387  24.509   2.417
20862W        W89225  19.061   9.761  10.933
20863W        W89226   3.439  38.978  13.052
20864W        W89227  44.410  36.969  13.975
20865W        W89228  15.767  38.414  14.022
20866W        W89229  38.909  30.508  12.516
20867W        W89230  29.573  40.343   1.876
20868W        W89231  43.988  26.591   1.333
20869W        W89232  33.519  22.519  10.483
20870W        W89233  40.448  10.879   3.276
20871W        W89234  40.458  37.500  14.945
20872W        W89235  40.339  28.495  12.914
20873W        W89236  27.124  13.727   1.758
20874W        W89237  36.966  44.992  11.458
20875W        W89238  41.017  19.205  13.979
20876W        W89239  12.748   6.395  14.477
20877W        W89240  23.180  30.552   2.376
20878W        W89241  11.818   7.209   1.882
20879W        W89242  44.950  30.443   2.795
20880W        W89243  12.644  30.626  12.472
20881W        W89244  41.814   9.258  10.991
20882W        W89245  20.271  14.143   5.176
20883W        W89246  21.517  38.040   3.826
20884W        W89247  23.569  17.708  13.806
20885W        W89248   2.942  34.065   0.924
20886W        W89249  23.557  40.828  14.380
20887W        W89250  25.038  11.857  13.412
20888W        W89251   2.957   9.872   1.271
20889W        W89252  27.489  36.535  12.540
20890W        W89253  19.141  35.377  13.863
20891W        W89254   7.769  40.814   0.948
20892W        W89255  40.372  29.062  13.542
20893W        W89256  38.417  38.511   4.803
20894W        W89257  13.740   3.259  14.874
20895W        W89258  40.410   4.756   3.837
20896W        W89259  22.546   1.469  11.407
20897W        W89260  28.042   5.917   3.317
20898W        W89261  27.074  31.906  12.849
20899W        W89262  18.589  23.240   0.909
20900W        W89263   9.787  38.043   3.837
20901W        W89264  35.917  39.389   3.266
20902W        W89265  34.989   1.873   2.812
20903W        W89266   7.259  37.944   3.196
20904W        W89267  19.620  37.946   3.311
20905W        W89268   2.380  40.877   0.377
20906W        W89269  23.732  10.290  13.964
20907W        W89270  16.126   4.900  13.311
20908W        W89271  22.707  32.395  12.023
20909W        W89272   4.309   5.763  12.414
20910W        W89273   4.714   0.977   5.177
20911W        W89274  15.090  24.109  12.561
20912W        W89275  16.094  19.765  10.616
20913W        W89276   8.230   7.369  14.448
20914W        W89277  25.695  35.576   3.172
20915W        W89278  37.055   0.955  13.011
20916W        W89279   2.769  39.356  12.426
20917W        W89280  20.046   6.337   2.301
20918W        W89281  24.626  11.227  14.496
20919W        W89282  14.281   3.842  10.608
20920W        W89283  21.195  10.871  11.992
20921W        W89284   0.815   3.435   2.203
20922W        W89285  39.986  25.048   4.615
20923W        W89286  44.262  14.657   1.909
20924W        W89287  26.609   1.330  11.453
20925W        W89288  27.188   1.391   3.331
20926W        W89289   0.805   1.772  13.320
20927W        W89290  41.896  42.418  13.013
20928W        W89291   9.262  39.936  14.349
20929W        W89292   4.901  30.031  13.330
20930W        W89293   1.886  18.102   3.714
20931W        W89294  29.957   7.886   3.367
20932W        W89295  24.103  38.414   4.820
20933W        W89296  37.484  42.023   1.705
20934W        W89297  39.880   6.195  12.453
20935W        W89298   9.220  43.272   1.250
20936W        W89299   0.392  38.036  12.451
20937W        W89300  38.952  29.024   4.610
20938W        W89301  33.597   2.351   3.676
20939W        W89302  33.116  25.181   0.477
20940W        W89303  24.101  25.214   1.445
20941W        W89304   6.423  11.661   0.437
20942W        W89305  42.853  37.955  11.393
20943W        W89306   8.729   2.246   1.309
20944W        W89307   2.967  26.166   0.294
20945W        W89308  41.948  26.165  14.406
20946W        W89309  31.484  23.656   2.304
20947W        W89310  40.883   9.665  11.377
20948W        W89311  44.753  28.130  13.895
20949W        W89312  30.029  32.927   3.806
20950W        W89313   3.298   9.276  12.528
20951W        W89314  43.305  13.314   3.192
20952W        W89315   6.231  36.098   1.923
20953W        W89316  43.383  21.717  14.307
20954W        W89317  19.175  43.458  10.550
20955W        W89318  10.800  28.967  11.093
20956W        W89319  38.363  36.413   4.136
20957W        W89320   5.237  30.975  14.369
20958W        W89321   6.221  14.295  10.582
20959W        W89322  20.091  23.504  12.938
20960W        W89323  10.313  34.972   5.194
20961W        W89324  14.768  11.129  11.584
20962W        W89325  41.451  44.331   2.409
20963W        W89326  37.344  43.309  12.451
20964W        W89327  30.113  31.050  14.794
20965W        W89328   9.174  34.916   2.276
20966W        W89329  33.906  38.919   1.414
20967W        W89330   9.356  33.906   4.219
20968W        W89331   1.887  21.617  12.848
20969W        W89332  34.477  23.066   0.866
20970W        W89333  36.448  21.065   4.680
20971W        W89334   0.968  26.632   4.302
20972W        W89335  14.665   4.365  13.794
20973W        W89336  39.533  16.631  12.959
20974W        W89337  39.352  41.984  13.367
20975W        W89338  41.466  43.928  13.047
20976W        W89339  17.577  30.491   0.375
20977W        W89340   6.296  39.949  13.871
20978W        W89341   7.174   5.785   1.414
20979W        W89342  20.665   9.178  11.886
20980W        W89343  40.349   5.278  12.389
20981W        W89344  18.731  12.738  11.500
20982W        W89345   7.290  35.956   0.412
20983W        W89346  40.029  10.820  14.368
20984W        W89347   9.812  44.913  11.864
20985W        W89348  34.395   2.919  13.917
20986W        W89349  27.948  44.319  14.932
20987W        W89350  19.706  24.080   0.325
20988W        W89351   3.838   7.346   1.756
20989W        W89352  38.332  18.720   1.824
20990W        W89353   9.233  34.531   3.221
20991W        W89354   6.744  35.917  12.012
20992W        W89355  32.112  35.573  11.867
20993W        W89356  21.177  17.068  13.487
20994W        W89357  32.610  18.673   2.877
20995W        W89358  28.540  36.936  11.116
20996W        W89359   3.915  24.570  11.536
20997W        W89360  32.969  28.151  12.419
20998W        W89361  30.432  11.661   2.255
20999W        W89362  10.691  38.058  13.354
21000W        W89363  10.860  17.234   2.242
21001W        W89364  36.846  19.710   3.773
21002W        W89365  31.052   1.761   2.752
21003W        W89366   4.437  21.118   3.700
21004W        W89367  11.688   6.770  11.083
21005W        W89368   9.333  31.144   3.341
21006W        W89369   6.901  13.624   2.866
21007W        W89370   8.668   0.829   1.850
21008W        W89371  27.066  28.566   1.351
21009W        W89372  35.063   2.750   0.772
21010W        W89373   0.482  34.533  14.455
21011W        W89374  37.912  30.449   1.248
21012W        W89375  26.199  35.587   2.236
21013W        W89376  14.659  19.556   5.281
21014W        W89377  10.659  19.684  11.428
21015W        W89378   3.875   2.861  11.586
21016W        W89379  41.009  14.660   2.818
21017W        W89380  16.601   8.654   0.931
21018W        W89381   8.750  24.187  11.946
21019W        W89382  42.934  38.064  14.444
21020W        W89383   7.178  38.836  13.963
21021W        W89384  10.822  34.061  13.490
21022W        W89385   6.338  31.911  10.140
21023W        W89386  20.206  31.467   4.622
21024W        W89387   3.740  13.159   1.921
21025W        W89388  32.623  14.835  13.825
21026W        W89389  32.920  28.547   4.330
21027W        W89390  42.881   0.383   0.327
21028W        W89391  23.029   0.965  11.007
21029W        W89392  43.828  12.281  10.480
21030W        W89393  19.147  34.024   4.655
21031W        W89394  40.461   8.859   3.761
21032W        W89395   2.311  18.097  12.402
21033W        W89396  35.594  21.575   3.766
21034W        W89397  32.594  34.109   3.223
21035W        W89398   1.448   9.295   1.849
21036W        W89399  44.851  17.194   4.293
21037W        W89400  21.557  15.325  13.836
21038W        W89401   8.306  24.122  13.816
21039W        W89402  23.200  33.123   0.779
21040W        W89403   7.311   2.879  12.506
21041W        W89404  20.168  35.534   4.141
21042W        W89405  40.326  19.771  10.627
21043W        W89406   7.671   9.740  12.436
21044W        W89407  34.551  43.021   1.743
21045W        W89408  37.835  23.582  12.927
21046W        W89409  23.995  20.545   2.838
21047W        W89410  17.586  29.107   3.164
21048W        W89411   6.325  31.115   4.241
21049W        W89412  36.422  10.764  13.470
21050W        W89413   2.756  30.518   0.468
21051W        W89414   1.867  21.567  10.535
21052W        W89415  16.294  36.081  12.575
21053W        W89416  20.199   7.240   3.337
21054W        W89417  44.493  28.578   1.744
21055W        W89418  44.469  31.085  13.423
21056W        W89419  40.934  39.908  14.865
21057W        W89420  27.953  44.984   0.787
21058W        W89421  11.334  37.963  14.488
21059W        W89422  10.375  38.982   0.421
21060W        W89423   8.376   0.450   4.726
21061W        W89424  19.231  40.314  13.384
21062W        W89425  39.882  20.650  12.533
21063W        W89426  14.664  41.829   1.809
21064W        W89427  40.495  43.329   1.910
21065W        W89428   6.375  11.621   2.301
21066W        W89429  13.218  17.241   4.819
21067W        W89430   9.367  11.167  11.969
21068W        W89431  11.338   1.309  13.797
21069W        W89432  14.685  33.111  11.991
21070W        W89433  32.452  31.499  12.043
21071W        W89434  24.140  23.999  12.050
21072W        W89435   9.864  34.875   1.394
21073W        W89436  44.324  23.515  13.908
21074W        W89437  28.113  10.191   3.171
21075W        W89438  41.008  21.163  11.084
21076W        W89439  17.631  44.404  13.888
21077W        W89440   7.362   3.439   0.929
21078W        W89441  36.911  41.512  10.458
21079W        W89442   4.373   4.865  11.111
21080W        W89443   9.254   7.909   1.297
21081W        W89444   0.829  40.423   0.463
21082W        W89445   6.253  41.454   4.156
21083W        W89446  21.527  41.425   4.771
21084W        W89447  18.731  16.237   2.242
21085W        W89448  37.445  11.687  13.526
21086W        W89449  21.642  28.550   3.711
21087W        W89450  13.260  14.626  14.360
21088W        W89451  15.630  26.606  12.953
21089W        W89452   9.847   6.830  10.623
21090W        W89453  33.424  39.895  11.383
21091W        W89454  30.562  29.127   2.249
21092W        W89455  11.214   0.802  12.511
21093W        W89456  15.776  41.895  12.416
21094W        W89457  19.710  14.278   1.313
21095W        W89458  19.590  37.980  11.497
21096W        W89459   9.324   1.255   0.420
21097W        W89460  18.666  30.448   2.407
21098W        W89461   6.797  37.900  10.911
21099W        W89462  23.519  23.099   1.696
21100W        W89463  31.053  34.519  13.496
21101W        W89464   8.675  23.670  11.885
21102W        W89465  27.574  44.345   4.126
21103W        W89466  21.627  26.168  14.886
21104W        W89467  20.039  30.572   1.714
21105W        W89468  16.626  23.217  12.824
21106W        W89469  31.087  26.524   3.333
21107W        W89470  28.074  37.051   3.681
21108W        W89471  29.978   8.207  13.817
21109W        W89472  30.528  29.973   1.823
21110W        W89473  18.226   6.878  11.033
21111W        W89474  15.790  36.968   4.345
21112W        W89475  26.558  26.035   4.759
21113W        W89476  42.964   2.907   1.283
21114W        W89477  30.068  42.488  10.579
21115W        W89478  10.690  34.493  10.469
21116W        W89479  17.653  16.643   5.282
21117W        W89480  44.444  32.964   2.186
21118W        W89481  29.056  31.487   1.389
21119W        W89482  35.411  29.469  11.500
21120W        W89483   4.331  40.960  14.788
21121W        W89484  23.022  18.052  13.999
21122W        W89485  28.077  33.604   5.305
21123W        W89486  39.387   9.744   1.849
21124W        W89487  13.110  18.654   2.317
21125W        W89488   1.382  35.883  11.448
21126W        W89489  42.314  19.590   3.222
21127W        W89490  21.040  18.703  10.525
21128W        W89491  25.969  38.894   0.397
21129W        W89492  36.452  37.373  14.296
21130W        W89493  23.184  38.839   1.288
21131W        W89494  42.392  15.180   2.260
21132W        W89495   9.384  26.074  10.530
21133W        W89496  33.939  34.952   3.331
21134W        W89497  31.506  16.595  13.026
21135W        W89498  25.472   3.419   0.454
21136W        W89499  18.690  11.864   3.158
21137W        W89500   9.314  40.423  12.967
21138W        W89501  14.212  18.650   1.796
21139W        W89502  39.933  24.120  13.535
21140W        W89503  23.005   8.713   2.415
21141W        W89504   0.317   6.346  11.569
21142W        W89505   6.416   3.438  13.897
21143W        W89506   9.152  43.966   3.865
21144W        W89507  13.120  18.558   0.732
21145W        W89508  44.383   4.794  11.434
21146W        W89509  29.934  37.940   4.309
21147W        W89510  16.308  24.058  12.434
21148W        W89511  32.631  23.502  12.417
21149W        W89512  32.508  20.657   1.436
21150W        W89513   6.253  18.767  11.886
21151W        W89514  39.550  10.689  11.577
21152W        W89515  17.243  35.597  11.936
21153W        W89516  34.471  37.462  13.806
21154W        W89517  33.436  33.961  10.638
21155W        W89518   0.923   0.485   4.681
21156W        W89519  21.737   3.331   4.685
21157W        W89520  42.326  14.716  13.458
21158W        W89521  44.947  17.763   0.850
21159W        W89522  44.423  39.006  10.956
21160W        W89523  44.842   7.801  10.572
21161W        W89524  34.041  24.650  14.944
21162W        W89525  23.112  16.254  14.804
21163W        W89526  24.573   5.379  12.471
21164W        W89527  10.266   6.758   3.359
21165W        W89528  18.718   4.360  11.872
21166W        W89529  19.144  13.815  13.022
21167W        W89530  44.372  11.153  12.405
21168W        W89531  16.206   4.381   3.238
21169W        W89532  40.390   8.268  11.014
21170W        W89533   2.286  40.505  10.034
21171W        W89534  17.715  19.668  10.912
21172W        W89535   2.396  27.077   4.768
21173W        W89536  12.771  39.330   0.845
21174W        W89537  43.871   8.831  14.031
21175W        W89538  19.718  11.294  14.357
21176W        W89539  22.079   9.344   3.665
21177W        W89540  33.060  22.161  12.384
21178W        W89541   1.829  21.534  14.375
21179W        W89542  29.546   4.756  11.395
21180W        W89543  18.119  37.560  14.300
21181W        W89544  23.113  27.010  10.984
21182W        W89545   7.780   8.280  11.073
21183W        W89546  34.501  23.612   2.300
21184W        W89547  35.871  16.083   4.243
21185W        W89548   4.810  19.126  13.064
21186W        W89549  23.611   3.270  13.009
21187W        W89550  39.364  30.095   4.128
21188W        W89551  35.992  43.903  10.626
21189W        W89552  36.083   3.264   3.765
21190W        W89553  43.906  42.295  14.433
21191W        W89554  40.406  37.477   4.208
21192W        W89555  10.743  28.671  10.930
21193W        W89556  37.441  44.805   0.959
21194W        W89557  29.589  20.609  10.887
21195W        W89558  36.015  10.194   2.224
21196W        W89559  19.549  27.512  11.902
21197W        W89560  25.488   6.866   0.848
21198W        W89561  36.484  33.522   3.861
21199W        W89562   6.239  21.210   0.768
21200W        W89563  26.199   0.910  11.525
21201W        W89564  22.509  22.041   3.365
21202W        W89565  29.931  32.414  11.874
21203W        W89566   7.785  41.496  14.499
21204W        W89567  16.654   7.701   3.312
21205W        W89568  18.565  20.189   0.828
21206W        W89569   7.328   2.368   1.908
21207W        W89570  21.635  13.604  14.338
21208W        W89571  37.978  12.246   1.767
21209W        W89572  21.075  40.872  12.405
21210W        W89573  32.141   0.981   4.258
21211W        W89574  32.423   8.289   0.898
21212W        W89575  26.109  17.211  10.989
21213W        W89576  33.485  39.515   4.200
21214W        W89577  16.717   6.232  11.524
21215W        W89578  21.214   1.857  12.048
21216W        W89579  31.474  14.624  14.015
21217W        W89580  43.336  21.164   3.232
21218W        W89581  43.330   6.220  11.068
21219W        W89582  26.192   7.722   3.662
21220W        W89583  37.393  44.980  10.451
21221W        W89584  14.176  13.730  11.901
21222W        W89585  23.047  12.661   2.392
21223W        W89586  34.105  31.952  11.398
21224W        W89587  38.961  30.571  13.464
21225W        W89588  22.673  11.785   2.800
21226W        W89589  32.403  30.520   2.867
21227W        W89590   8.681   1.444   3.198
21228W        W89591  31.127  12.832  10.134
21229W        W89592  33.082  23.588  11.379
21230W        W89593  13.155  31.002  10.450
21231W        W89594  42.833   4.413   4.676
21232W        W89595  37.069  18.243   0.801
21233W        W89596  18.668   0.428  12.501
21234W        W89597  40.446   4.753  10.486
21235W        W89598  43.899   2.381  10.898
21236W        W89599  40.890  18.695   3.836
21237W        W89600  12.791  20.145  13.862
21238W        W89601  42.778  33.597  14.312
21239W        W89602  39.010  40.427  10.429
21240W        W89603  33.509  38.502   0.787
21241W        W89604  16.286  44.355   0.290
21242W        W89605  14.332  11.320   3.229
21243W        W89606  18.068  29.573   3.370
21244W        W89607  42.785  16.115  11.029
21245W        W89608  12.175  16.587  11.419
21246W        W89609   5.847  16.590   2.178
21247W        W89610   3.423  13.149   3.223
21248W        W89611   2.282  23.239   2.264
21249W        W89612  15.127  26.544  13.510
21250W        W89613  22.580  23.538  10.145
21251W        W89614  24.597  39.066   3.691
21252W        W89615  41.023  42.801   0.393
21253W        W89616  44.449  18.632  11.534
21254W        W89617  10.197  32.950   1.277
21255W        W89618  14.327   0.887   1.428
21256W        W89619  10.862  35.058  11.859
21257W        W89620  39.856  26.971  11.545
21258W        W89621  20.106  27.978   2.184
21259W        W89622  13.175  15.163  10.644
21260W        W89623  17.691  30.553  11.975
21261W        W89624  13.785  29.437  11.951
21262W        W89625  44.959   2.232  12.419
21263W        W89626  10.875  22.743   2.876
21264W        W89627  15.276  37.947   2.806
21265W        W89628  38.016  17.613   1.366
21266W        W89629  22.719   4.309   0.386
21267W        W89630  44.967  39.541  13.423
21268W        W89631  28.538   4.780   3.734
21269W        W89632  42.030  22.692  13.357
21270W        W89633  11.695  29.138  14.768
21271W        W89634  27.010  10.382  14.901
21272W        W89635   7.817   6.893  10.905
21273W        W89636  11.344  22.682   1.451
21274W        W89637   6.685  43.864   2.875
21275W        W89638  28.648  34.470  11.066
21276W        W89639  41.472  18.194   1.250
21277W        W89640  11.144  32.488  14.340
21278W        W89641   7.316  27.647   1.296
21279W        W89642  41.464  27.620   4.611
21280W        W89643  13.167   4.728   9.921
21281W        W89644  24.983  33.129   1.862
21282W        W89645  35.466  14.733   4.743
21283W        W89646  27.984  34.549  12.449
21284W        W89647  20.641  36.398   0.872
21285W        W89648   5.351  18.577  13.322
21286W        W89649  17.788  15.242  11.482
21287W        W89650  43.329   1.912  11.985
21288W        W89651  43.425  37.022  11.952
21289W        W89652  15.192  26.588  11.108
21290W        W89653  33.940   0.787   2.264
21291W        W89654  28.440   8.716  11.382
21292W        W89655  36.853  41.961  12.006
21293W        W89656  34.057  17.797   4.152
21294W        W89657  16.735  33.026  14.912
21295W        W89658  44.503  13.340  14.941
21296W        W89659  10.791  37.971   3.331
21297W        W89660  15.110   8.163   3.372
21298W        W89661   9.827  25.695  14.767
21299W        W89662  19.152  29.464  14.351
21300W        W89663  36.912  40.894  10.460
21301W        W89664  17.084  44.397   0.891
21302W        W89665  11.773  42.887   0.406
21303W        W89666  10.701  12.235  11.427
21304W        W89667  15.261  22.515   4.138
21305W        W89668  18.111  41.838   5.234
21306W        W89669  11.268  29.521   1.793
21307W        W89670   7.312  30.133  11.542
21308W        W89671  23.545  13.797  10.945
21309W        W89672  42.802  36.578   4.817
21310W        W89673  36.843  42.953  11.025
21311W        W89674   7.326  35.927   4.715
21312W        W89675  39.316  26.028  13.331
21313W        W89676  22.724  21.552   1.758
21314W        W89677  39.919  11.199   9.564
21315W        W89678   9.326  33.932   0.425
21316W        W89679  43.016  10.147   5.306
21317W        W89680  35.860   5.916  13.448
21318W        W89681   0.819  14.673   1.881
21319W        W89682   2.401  43.997  13.852
21320W        W89683   2.397  38.425  13.048
21321W        W89684  27.976   2.451   2.790
21322W        W89685   1.400   1.798   4.219
21323W        W89686  26.672  10.364  13.893
21324W        W89687  14.187  27.046   4.115
21325W        W89688  20.675  18.251   0.313
21326W        W89689  20.046  37.872  13.025
21327W        W89690  21.126   8.347  14.767
21328W        W89691   9.215  20.081   2.180
21329W        W89692  42.926  43.799  14.907
21330W        W89693  23.733  29.050   4.805
21331W        W89694  35.861   8.265   1.745
21332W        W89695  32.015  21.243  14.283
21333W        W89696  34.912  41.301   3.766
21334W        W89697  11.315  22.710   4.138
21335W        W89698  21.737  10.813   4.233
21336W        W89699  33.960  18.781   2.369
21337W        W89700  10.264  11.681  10.926
21338W        W89701  43.346  19.627   1.896
21339W        W89702  29.171  43.826  12.371
21340W        W89703  28.091  44.923   3.246
21341W        W89704  30.959  36.043   5.140
21342W        W89705   9.654   2.862  10.458
21343W        W89706  22.537  30.992  14.015
21344W        W89707  14.755   1.462   0.303
21345W        W89708  18.173  27.000   4.720
21346W        W89709  21.257  16.109   0.857
21347W        W89710  34.574   3.804  11.066
21348W        W89711  21.710  30.124   1.243
21349W        W89712  29.929  17.194   3.206
21350W        W89713  14.295  42.903   4.805
21351W        W89714  12.684  40.024  11.450
21352W        W89715  14.678   3.222   5.566
21353W        W89716  21.749   0.861   1.262
21354W        W89717  36.080   3.771   0.370
21355W        W89718  36.035  16.790   0.466
21356W        W89719  11.199   2.358  13.386
21357W        W89720   3.805   3.874  12.480
21358W        W89721  33.017   9.355   2.186
21359W        W89722  13.225  11.197  13.793
21360W        W89723  31.566  38.047  11.416
21361W        W89724  39.337  12.343   0.302
21362W        W89725  35.967   3.280   1.732
21363W        W89726  30.003  17.228  11.016
21364W        W89727  11.810  24.185  13.314
21365W        W89728  21.111  24.539  11.423
21366W        W89729  35.016  29.573  14.445
21367W        W89730  30.527  39.006   4.160
21368W        W89731   1.426  42.946   1.253
21369W        W89732  22.539  41.421   5.143
21370W        W89733  37.373   5.856   0.929
21371W        W89734  32.405  31.531   3.290
21372W        W89735   4.225  17.581   2.732
21373W        W89736  38.876  27.668  13.500
21374W        W89737  26.032  22.135   1.340
21375W        W89738   6.406   8.874  14.403
21376W        W89739  31.436  33.484   4.652
21377W        W89740  36.852  43.877  13.307
21378W        W89741  33.934  41.406  11.547
21379W        W89742  18.698  38.852  10.962
21380W        W89743  31.905  31.911   2.868
21381W        W89744  26.622  31.472  11.963
21382W        W89745  42.390  24.065  11.886
21383W        W89746  34.434  35.888  14.462
21384W        W89747  25.100  30.533  10.463
21385W        W89748  29.661   2.289  10.480
21386W        W89749  10.732   8.798  13.056
21387W        W89750  11.342   3.284   0.936
21388W        W89751  40.016   1.744  13.538
21389W        W89752  32.602  28.182   2.238
21390W        W89753   4.699  11.236   2.213
21391W        W89754  42.358  22.654  13.444
21392W        W89755  15.148  41.963  14.373
21393W        W89756  27.030  43.269  10.421
21394W        W89757  32.115  38.359   2.790
21395W        W89758  22.130   7.819   2.756
21396W        W89759   5.411  20.175  14.801
21397W        W89760  12.185  40.040  11.470
21398W        W89761  37.576  11.167   4.270
21399W        W89762  37.856  18.790  10.448
21400W        W89763  23.565  44.889  12.921
21401W        W89764  29.665  19.043   0.475
21402W        W89765  14.153  19.217  13.908
21403W        W89766   4.248   3.745  14.933
21404W        W89767  31.997  30.104   1.805
21405W        W89768   2.766  40.433   4.813
21406W        W89769  12.196  42.306  13.953
21407W        W89770  40.035  27.950  14.512
21408W        W89771  30.446  21.045   4.214
21409W        W89772  10.659  32.436  12.441
21410W        W89773  33.483  26.688   5.264
21411W        W89774  11.767  15.220  12.990
21412W        W89775  21.046  26.174  10.529
21413W        W89776  36.365  36.905   4.655
21414W        W89777  23.990  20.665  12.857
21415W        W89778  18.716   1.455   3.325
21416W        W89779  16.238  28.481   4.614
21417W        W89780  35.423  44.795   2.760
21418W        W89781   6.398  42.003  12.459
21419W        W89782  25.144  27.549  13.352
21420W        W89783  11.837  39.445  11.410
21421W        W89784   3.276  16.761   0.913
21422W        W89785   6.415  12.819  12.072
21423W        W89786  29.643  15.211  10.016
21424W        W89787  31.494  39.870   1.848
21425W        W89788  14.336   5.324  10.058
21426W        W89789  26.979  28.151   2.708
21427W        W89790   5.246   1.427   1.697
21428W        W89791  24.995  26.654  10.474
21429W        W89792   0.394  43.849   3.246
21430W        W89793  26.115   9.849  10.587
21431W        W89794  23.513  29.170   3.646
21432W        W89795  14.153  28.545   1.410
21433W        W89796  24.120  44.756  14.953
21434W        W89797  19.742  10.372  10.433
21435W        W89798  20.261   2.954   0.371
21436W        W89799  39.811  16.578   0.281
21437W        W89800  40.503  34.000  10.977
21438W        W89801   6.764  10.740   4.325
21439W        W89802  28.650  32.522  14.395
21440W        W89803  24.985  17.223  12.094
21441W        W89804  14.176  29.929   0.358
21442W        W89805  31.489  24.622   4.668
21443W        W89806  24.713  35.375   4.145
21444W        W89807  20.165   5.337   0.379
21445W        W89808  29.944   7.681   4.712
21446W        W89809  14.302   0.325   1.874
21447W        W89810  25.179  26.611  10.147
21448W        W89811   2.378   2.236  14.895
21449W        W89812  16.148   6.221   4.191
21450W        W89813   3.749  22.535   4.781
21451W        W89814  44.271  13.721   3.691
21452W        W89815   5.698  40.331   1.336
21453W        W89816  11.823  42.953   4.689
21454W        W89817   3.372   2.847  14.456
21455W        W89818  12.778  16.581  11.981
21456W        W89819   7.417  14.662  14.833
21457W        W89820  32.143   3.724   0.469
21458W        W89821  30.557   6.846  10.573
21459W        W89822  26.526  27.952  12.096
21460W        W89823  39.470  14.251  12.024
21461W        W89824  15.800   2.901  13.959
21462W        W89825  14.187  31.628   1.719
21463W        W89826  20.031  11.367   3.195
21464W        W89827   3.361  28.022   4.830
21465W        W89828  34.110  12.670  13.460
21466W        W89829  24.069  21.705   3.206
21467W        W89830  37.458  32.018   3.351
21468W        W89831   4.840   6.387   4.355
21469W        W89832  26.065  13.712   9.976
21470W        W89833   7.223  13.262  11.094
21471W        W89834  13.692  19.713   1.823
21472W        W89835  17.567  40.916   3.286
21473W        W89836  39.469  26.983  14.881
21474W        W89837  24.687  16.289   4.709
21475W        W89838  30.542  32.910  12.899
21476W        W89839  40.423   8.400  10.448
21477W        W89840  27.106  17.691   4.234
21478W        W89841   3.896  28.519  10.595
21479W        W89842  43.018  41.907   3.275
21480W        W89843  22.049  14.763  11.525
21481W        W89844  11.755  42.902  11.449
21482W        W89845  32.615  15.122   1.825
21483W        W89846  33.933   1.432   1.210
21484W        W89847  12.118  42.971   2.901
21485W        W89848  35.066  13.650  11.003
21486W        W89849  13.244  37.070   1.749
21487W        W89850  16.618  31.419  12.861
21488W        W89851   7.179   3.814  11.611
21489W        W89852  41.526  28.495   2.793
21490W        W89853  26.140  22.207   0.355
21491W        W89854  11.279  12.655  11.570
21492W        W89855  27.469  30.528   1.242
21493W        W89856   6.898   3.834  12.399
21494W        W89857  41.375  13.726   3.255
21495W        W89858   1.283   7.350   3.336
21496W        W89859  32.021  35.954  13.981
21497W        W89860  35.059   6.260   3.159
21498W        W89861  29.625  19.174  11.492
21499W        W89862   4.706   7.667   2.853
21500W        W89863   9.732  25.036   0.769
21501W        W89864  29.088  39.393   4.143
21502W        W89865   2.903  41.866   2.893
21503W        W89866  18.264  12.316   2.767
21504W        W89867   0.423  20.582   3.235
21505W        W89868   1.285  25.703   1.372
21506W        W89869  44.338  14.295  13.818
21507W        W89870  22.545  30.938   1.284
21508W        W89871  33.474  23.618   0.410
21509W        W89872  39.061  42.780   0.883
21510W        W89873  38.029  13.789  13.346
21511W        W89874   2.324  39.939  12.055
21512W        W89875  23.651  12.232  14.452
21513W        W89876  26.627  38.056  10.976
21514W        W89877  28.129  43.411  13.007
21515W        W89878  13.220  32.491  12.072
21516W        W89879  12.827  14.267   3.278
21517W        W89880  36.494   7.410  11.047
21518W        W89881  18.746  26.471   1.331
21519W        W89882  26.566  16.589   2.894
21520W        W89883  31.606  41.302   2.870
21521W        W89884  31.948  31.581  12.983
21522W        W89885   4.859  22.666   3.211
21523W        W89886   3.819  19.649   4.258
21524W        W89887  26.642  15.819   0.395
21525W        W89888   7.294   4.338  13.941
21526W        W89889  44.497  42.372   1.776
21527W        W89890  43.388  29.054   0.799
21528W        W89891   5.316  31.130   2.778
21529W        W89892   7.818   3.848   4.118
21530W        W89893  33.083   9.692  12.492
21531W        W89894  11.804  14.168  10.545
21532W        W89895  17.793  23.585   3.849
21533W        W89896  33.982  41.413  14.779
21534W        W89897  32.954  40.906   1.753
21535W        W89898  38.366  43.349  10.629
21536W        W89899   0.891  32.077  13.539
21537W        W89900  31.904  25.144  13.866
21538W        W89901  38.888  26.671   4.199
21539W        W89902   2.343  14.098  14.343
21540W        W89903  11.667  26.658   1.236
21541W        W89904  10.713  36.576  14.881
21542W        W89905  16.146   3.376   0.858
21543W        W89906  10.823  32.895  14.500
21544W        W89907  26.550  34.016  14.465
21545W        W89908  13.729  10.861  13.837
21546W        W89909  25.000  15.691   4.270
21547W        W89910  23.582  30.439   3.863
21548W        W89911   3.879  44.469   3.736
21549W        W89912   8.729  35.401  10.479
21550W        W89913  10.298   0.902  13.849
21551W        W89914  44.373  32.999  12.085
21552W        W89915  10.301   8.371  13.466
21553W        W89916  21.669  17.584   3.720
21554W        W89917  37.855  36.855  13.504
21555W        W89918  33.530  34.899   4.130
21556W        W89919  21.029   6.727   2.353
21557W        W89920  12.651  17.220   1.262
21558W        W89921   6.771  29.085  13.983
21559W        W89922  25.980  35.948  14.508
21560W        W89923  21.137  17.745   4.740
21561W        W89924  31.439  14.239   4.655
21562W        W89925  13.616   7.826   3.293
21563W        W89926   5.809  23.555   3.747
21564W        W89927  20.170  14.787   0.848
21565W        W89928  28.675  20.643  12.833
21566W        W89929  20.758  12.182   3.235
21567W        W89930  35.067  18.591  14.821
21568W        W89931  40.013  41.414  13.007
21569W        W89932  11.754  43.840   4.347
21570W        W89933   1.789  15.229   1.890
21571W        W89934  44.789   0.973  12.093
21572W        W89935   5.243   3.253  11.949
21573W        W89936   1.834   9.230   0.912
21574W        W89937  39.352   8.777  10.990
21575W        W89938  31.923  16.566  13.400
21576W        W89939  26.088  11.356  10.919
21577W        W89940  35.999  12.857   3.687
21578W        W89941   2.907  12.691   1.802
21579W        W89942   8.717  31.037   0.316
21580W        W89943   8.341   8.265  13.944
21581W        W89944  35.481   2.911  11.512
21582W        W89945  20.068  27.597  14.403
21583W        W89946   5.743  36.981  11.055
21584W        W89947  42.299  25.978  12.499
21585W        W89948   6.343  29.474   3.331
21586W        W89949  13.300  38.832  14.446
21587W        W89950  28.490  16.221   1.826
21588W        W89951  10.154   3.250   1.909
21589W        W89952  42.377  10.260  12.983
21590W        W89953  16.629  44.273   9.637
21591W        W89954  25.061   5.361  14.847
21592W        W89955  16.684   0.764  14.028
21593W        W89956  23.723  14.806   2.782
21594W        W89957  33.423  16.585  11.610
21595W        W89958  27.661  28.528   4.631
21596W        W89959  30.984  43.853   0.900
21597W        W89960   8.402  10.644  13.430
21598W        W89961   8.858  16.640   0.279
21599W        W89962  29.527  31.459  14.000
21600W        W89963  27.011  31.016   2.684
21601W        W89964  12.685  33.598   2.665
21602W        W89965  25.576  31.580  11.040
21603W        W89966  42.792  42.450  12.455
21604W        W89967   2.369  35.515  14.329
21605W        W89968  28.608  25.978   2.377
21606W        W89969   3.944  33.069   0.777
21607W        W89970  17.589  15.189   0.727
21608W        W89971  42.443  35.482   2.230
21609W        W89972  39.927  15.607   0.359
21610W        W89973  23.040  14.232  10.951
21611W        W89974  37.352  37.024  10.105
21612W        W89975  17.247  22.641   3.162
21613W        W89976   5.793  13.701  11.057
21614W        W89977  12.137  37.048   3.761
21615W        W89978  35.105  20.707   1.835
21616W        W89979  28.150   4.331  11.939
21617W        W89980  11.283  25.494   0.802
21618W        W89981   9.341   6.695  11.471
21619W        W89982  40.353  29.443   3.368
21620W        W89983  27.602  39.928  10.593
21621W        W89984   2.329   0.387   4.699
21622W        W89985   9.387   6.714   3.870
21623W        W89986  15.604   1.740  12.355
21624W        W89987  17.756  22.210   4.275
21625W        W89988   4.343   5.866  13.890
21626W        W89989  16.171  31.556   0.842
21627W        W89990  36.353  37.515   2.297
21628W        W89991  28.462  12.703  12.881
21629W        W89992  41.421  27.623   1.234
21630W        W89993  36.464  36.948   2.679
21631W        W89994  22.226  13.232   3.223
21632W        W89995   9.748  35.892   0.285
21633W        W89996  15.600  41.374   3.812
21634W        W89997  22.016   5.268  12.355
21635W        W89998  22.610  12.805  10.946
21636W        W89999  23.135  40.475  13.969
21637W        W90000  10.172  16.202   0.402
21638W        W90001  35.464   4.868  13.025
21639W        W90002  31.075   8.279  10.453
21640W        W90003  39.900  42.513  11.474
21641W        W90004  40.029  40.955  11.889
21642W        W90005   2.847  15.824   3.377
21643W        W90006  39.981   3.777   4.266
21644W        W90007  10.268  44.271  12.910
21645W        W90008  29.467  11.189   0.304
21646W        W90009   1.970  22.549  14.798
21647W        W90010   4.324  18.224   0.254
21648W        W90011  10.685  14.212   3.148
21649W        W90012  16.149   2.859  14.302
21650W        W90013  28.489  29.499   2.763
21651W        W90014   5.786  14.223   2.747
21652W        W90015  23.609  32.013  11.431
21653W        W90016  37.929  22.702   1.909
21654W        W90017  13.186  37.967  10.409
21655W        W90018  37.386  36.999   2.715
21656W        W90019  30.910   8.892  14.776
21657W        W90020   9.787  24.684   2.776
21658W        W90021  27.989  30.527  13.829
21659W        W90022   9.841   3.439  13.796
21660W        W90023  30.462  25.981  11.938
21661W        W90024   1.752  44.822   9.952
21662W        W90025   4.930   2.868   3.170
21663W        W90026  26.634  32.940  13.818
21664W        W90027  29.605  43.805  12.889
21665W        W90028   9.245  25.068  11.862
21666W        W90029  29.069  13.111  12.401
21667W        W90030  40.371  14.106  10.596
21668W        W90031  10.155  40.936   3.218
21669W        W90032  33.998   0.886   3.713
21670W        W90033  20.677  13.117  13.937
21671W        W90034  43.997   5.293  14.031
21672W        W90035  21.021  33.541  14.985
21673W        W90036  20.089  29.157   0.275
21674W        W90037  21.546  22.139  12.514
21675W        W90038  13.294  27.538  11.546
21676W        W90039  40.499  32.569  11.032
21677W        W90040  37.989  32.508   3.189
21678W        W90041  28.010  14.146  12.380
21679W        W90042  18.618  37.522  14.781
21680W        W90043  22.713  24.172  11.992
21681W        W90044  44.349  44.289  12.868
21682W        W90045  22.545   8.314  10.540
21683W        W90046  16.665  32.493   1.922
21684W        W90047  20.233  33.100  11.018
21685W        W90048   1.860  24.066  13.380
21686W        W90049   5.339  23.662  10.421
21687W        W90050  23.008   2.440  14.911
21688W        W90051  17.163  17.187  14.311
21689W        W90052  34.930  24.224   4.113
21690W        W90053  36.545  14.237  12.919
21691W        W90054  27.594  37.513   1.705
21692W        W90055   4.762  24.153   1.831
21693W        W90056  21.240  18.168   3.254
21694W        W90057  32.971  26.559   1.788
21695W        W90058   3.745  12.707  10.946
21696W        W90059  28.499  32.042   0.325
21697W        W90060  27.513  23.220  13.962
21698W        W90061  14.657  31.025   4.629
21699W        W90062  20.189  26.606   5.179
21700W        W90063  19.086  26.680   1.303
21701W        W90064   6.284  21.103   4.340
21702W        W90065  10.295   0.351  12.942
21703W        W90066  32.048  20.673   1.805
21704W        W90067  19.672  32.914  11.987
21705W        W90068  34.587  24.207  14.898
21706W        W90069  15.179   4.702  13.539
21707W        W90070  42.891  25.038   1.788
21708W        W90071  14.257  40.947   0.763
21709W        W90072  12.193  36.996  12.041
21710W        W90073   7.882   7.875  14.938
21711W        W90074  36.849  25.041  13.978
21712W        W90075   8.750  15.806   1.736
21713W        W90076  13.710  41.936   1.307
21714W        W90077   9.806   3.301  13.345
21715W        W90078  29.655  34.083  14.914
21716W        W90079   0.293   1.386  14.862
21717W        W90080  17.136  22.509  13.041
21718W        W90081  38.505  32.435  11.866
21719W        W90082  44.290  31.510   1.439
21720W        W90083  28.103  13.107   9.989
21721W        W90084  37.567  26.500   4.116
21722W        W90085   3.243   5.902   2.283
21723W        W90086  18.237   9.653   2.696
21724W        W90087   9.860  21.725   3.773
21725W        W90088   0.978  21.629   2.183
21726W        W90089  34.973  23.645   4.823
21727W        W90090  24.089   8.713  13.991
21728W        W90091  43.938  14.780  10.935
21729W        W90092  23.237  14.762  10.554
21730W        W90093   7.810   8.835   5.257
21731W        W90094  31.569  30.564   5.298
21732W        W90095   7.265  32.437   2.884
21733W        W90096  38.516  38.390  12.483
21734W        W90097  12.182  41.839   4.637
21735W        W90098  42.029  36.974  13.813
21736W        W90099   5.437  35.475  12.032
21737W        W90100   1.907  20.760  11.418
21738W        W90101  10.193  11.239   2.231
21739W        W90102  22.162  41.925   0.834
21740W        W90103   1.896  16.292   2.678
21741W        W90104  44.406   8.675  13.393
21742W        W90105  17.680  15.087  13.931
21743W        W90106  31.898  20.087   1.760
21744W        W90107  29.483  15.323   3.788
21745W        W90108   8.787   6.390   3.299
21746W        W90109  20.138  10.169  10.102
21747W        W90110   9.171  37.908  11.375
21748W        W90111   7.315   9.303   3.258
21749W        W90112  33.054  26.145  10.980
21750W        W90113  21.553  27.962  13.001
21751W        W90114   1.309  36.527  13.503
21752W        W90115  24.987   3.811  12.521
21753W        W90116  22.510  27.964   2.301
21754W        W90117   2.755  23.605   1.875
21755W        W90118  36.912   8.204   2.391
21756W        W90119  13.818  36.066   2.319
21757W        W90120  11.171   7.676   1.833
21758W        W90121  20.644   4.774   1.880
21759W        W90122  27.950  31.127   2.179
21760W        W90123   7.274  26.501   3.717
21761W        W90124   8.311  13.283   4.686
21762W        W90125  38.488  22.550  12.837
21763W        W90126  32.489   1.263   2.357
21764W        W90127  24.721   5.907   0.779
21765W        W90128  22.526  28.160   1.306
21766W        W90129  12.675  22.660  13.524
21767W        W90130  29.486  16.585  12.891
21768W        W90131  24.993  14.267  12.904
21769W        W90132  32.576  22.044  10.508
21770W        W90133  36.491  43.857  12.405
21771W        W90134   3.310  11.841   3.258
21772W        W90135  27.642  35.892  11.537
21773W        W90136  11.150   3.787   1.846
21774W        W90137  24.015  19.727   1.898
21775W        W90138   3.311  30.657   0.426
21776W        W90139  35.942   9.758   0.819
21777W        W90140  36.863  40.522   4.183
21778W        W90141  44.500  34.047   3.358
21779W        W90142  27.572  43.878   4.277
21780W        W90143  23.674  20.576   0.842
21781W        W90144  14.313   4.356   4.186
21782W        W90145  25.634   1.393   2.785
21783W        W90146  18.683  32.994   3.822
21784W        W90147   0.866   1.884  12.519
21785W        W90148  19.714  42.818  13.871
21786W        W90149   3.918   3.950   0.892
21787W        W90150  12.338  38.874  14.467
21788W        W90151  25.051  36.453   4.703
21789W        W90152   5.277  25.523   2.726
21790W        W90153  13.606   9.334   2.183
21791W        W90154  10.739  42.383   1.787
21792W        W90155   7.231  33.510   2.750
21793W        W90156  17.145  24.988   4.603
21794W        W90157   2.425  17.167   1.883
21795W        W90158  13.839  24.532   2.354
21796W        W90159  22.190  27.603   2.397
21797W        W90160  42.940  13.758  12.010
21798W        W90161  12.631  32.533  13.458
21799W        W90162  30.051  30.578   2.772
21800W        W90163  20.621  18.783   2.384
21801W        W90164  14.624  24.645  14.997
21802W        W90165   4.898   7.711   3.318
21803W        W90166  37.395   4.731   4.220
21804W        W90167  43.470  14.830  11.005
21805W        W90168  24.535  21.109   2.332
21806W        W90169  15.164  36.360   0.438
21807W        W90170  21.070   2.447  12.561
21808W        W90171  15.101  16.717   4.837
21809W        W90172  12.159   2.892   4.807
21810W        W90173   1.373  22.618   0.778
21811W        W90174   2.848  25.536  10.128
21812W        W90175  34.379  20.163  13.522
21813W        W90176  23.995  21.645  11.438
21814W        W90177  32.981  14.257   4.622
21815W        W90178  17.567  35.592  14.883
21816W        W90179  33.961   2.874  13.915
21817W        W90180  38.503   7.198  13.845
21818W        W90181  21.250  11.761  12.861
21819W        W90182  44.311  13.351  11.067
21820W        W90183   8.364  26.123  10.519
21821W        W90184  22.654  33.500  10.624
21822W        W90185   8.277  26.160  11.865
21823W        W90186  19.647  28.152   3.281
21824W        W90187   0.301  43.775  13.816
21825W        W90188  24.569  24.114   0.384
21826W        W90189  41.450  12.682  12.453
21827W        W90190  25.482  10.162   0.929
21828W        W90191   1.443  41.536   3.285
21829W        W90192   9.698  11.649   4.158
21830W        W90193  38.464  18.055  14.295
21831W        W90194  37.468  19.192   2.862
21832W        W90195  25.680  39.818   0.922
21833W        W90196  38.021  17.654  11.906
21834W        W90197  29.424  20.699  14.893
21835W        W90198  38.868  30.064   3.223
21836W        W90199   8.244   6.725  12.975
21837W        W90200   6.267  29.952  14.015
21838W        W90201   9.828  39.863  12.501
21839W        W90202  40.460  18.066   0.437
21840W        W90203  25.974  36.055  11.935
21841W        W90204  17.083  10.146   0.922
21842W        W90205  42.965  15.733  12.442
21843W        W90206  39.043   1.285   4.245
21844W        W90207  43.388  15.625  13.403
21845W        W90208  39.542  28.134   3.651
21846W        W90209   7.191  32.421   3.264
21847W        W90210  16.154  18.163   5.210
21848W        W90211  23.609  12.299   0.903
21849W        W90212  31.536  32.498   1.786
21850W        W90213   6.911  24.102   3.227
21851W        W90214  37.047  42.858  12.356
21852W        W90215  37.411   2.365  12.924
21853W        W90216  20.578  26.567   9.936
21854W        W90217  15.286  36.446  11.875
21855W        W90218  44.418  34.576  12.850
21856W        W90219  29.940  14.807  13.031
21857W        W90220  15.690  16.253   5.740
21858W        W90221  36.512  41.988  13.425
21859W        W90222  12.613  37.076   4.340
21860W        W90223   3.327  31.417   3.149
21861W        W90224  36.534  16.219   4.668
21862W        W90225  15.291  33.065   0.887
21863W        W90226  39.977   1.845   0.812
21864W        W90227   8.822  16.110   0.284
21865W        W90228  16.783  31.987   1.213
21866W        W90229  11.686   6.757   1.255
21867W        W90230  24.180  23.128   1.716
21868W        W90231   7.718  32.101  10.409
21869W        W90232  41.321  28.465   4.639
21870W        W90233   3.734  33.508  10.489
21871W        W90234  36.531  28.624  14.441
21872W        W90235   5.372  44.406   1.877
21873W        W90236   3.893  40.037   2.898
21874W        W90237  38.424  40.027  12.825
21875W        W90238  43.389  20.211   4.155
21876W        W90239  16.230  44.295  14.420
21877W        W90240  17.253  21.117   2.740
21878W        W90241   2.315  12.753  10.475
21879W        W90242  36.904   0.803   2.194
21880W        W90243  25.100  34.106   4.830
21881W        W90244  40.455  28.632   0.915
21882W        W90245  26.670  10.314  12.548
21883W        W90246  21.133   5.845  12.412
21884W        W90247  29.153   1.249   4.636
21885W        W90248   3.264  33.532   0.357
21886W        W90249  28.001  36.392   3.827
21887W        W90250   3.372  18.136  11.886
21888W        W90251  32.623  26.576   3.810
21889W        W90252   9.884  13.263  13.377
21890W        W90253  11.778  43.302   3.279
21891W        W90254   4.918   9.234  12.367
21892W        W90255  37.336  23.592  12.429
21893W        W90256   5.846  33.539  12.039
21894W        W90257  30.930   1.268  14.485
21895W        W90258  36.349  18.088  12.968
21896W        W90259  26.984  36.559   4.808
21897W        W90260   7.343  44.935  10.551
21898W        W90261   5.314   2.231   1.796
21899W        W90262  38.925  13.151   5.233
21900W        W90263   2.952   0.965   3.809
21901W        W90264  41.297   7.213  14.448
21902W        W90265  18.050  41.978  14.897
21903W        W90266  25.068   1.930   0.284
21904W        W90267   8.713  27.568  12.830
21905W        W90268   6.301  24.530  10.551
21906W        W90269  40.947  25.069   0.341
21907W        W90270  20.664   0.410  10.921
21908W        W90271  44.376   1.751  13.806
21909W        W90272  36.357  41.375  14.011
21910W        W90273  19.121  40.016   0.244
21911W        W90274   6.243  24.200   1.285
21912W        W90275  40.864  29.165   4.183
21913W        W90276  44.980  32.505   2.266
21914W        W90277   9.742  25.053   4.318
21915W        W90278  19.114  25.136   4.182
21916W        W90279  24.103   4.943  14.283
21917W        W90280  21.178   0.908  11.929
21918W        W90281  23.579  40.905  11.042
21919W        W90282  38.369  41.941  12.578
21920W        W90283  13.302  15.756   4.818
21921W        W90284   3.361  18.707   3.295
21922W        W90285  19.145  15.734  11.419
21923W        W90286  24.015  15.327   1.390
21924W        W90287  44.366  42.392   4.185
21925W        W90288   6.919   2.856   1.397
21926W        W90289  44.801  15.096   3.649
21927W        W90290  25.056  29.520   0.858
21928W        W90291  36.509  34.089   2.744
21929W        W90292  41.527  28.931  14.388
21930W        W90293   7.802  18.666  11.992
21931W        W90294   0.794   4.803  14.796
21932W        W90295  24.485  13.217  14.423
21933W        W90296  17.148  24.022  12.368
21934W        W90297  30.957   8.271   2.866
21935W        W90298   6.919  18.618   3.220
21936W        W90299  38.862   0.795   2.722
21937W        W90300  26.703  13.823   4.623
21938W        W90301  38.876   5.229  10.529
21939W        W90302  24.039   7.903   4.720
21940W        W90303  30.487   9.340   1.395
21941W        W90304  40.467  22.236  14.016
21942W        W90305  20.205  35.994  11.602
21943W        W90306  16.603  20.146   1.752
21944W        W90307   9.325  29.551  11.383
21945W        W90308  30.092   1.398   4.761
21946W        W90309  34.453   5.740   1.237
21947W        W90310  21.513   8.802  11.925
21948W        W90311  25.176  32.058   1.211
21949W        W90312  39.810  16.106   2.182
21950W        W90313   6.742   9.312   2.878
21951W        W90314  34.534  25.114   4.760
21952W        W90315  30.043   0.491   1.931
21953W        W90316  43.865   7.361   3.377
21954W        W90317  12.280   6.369   4.245
21955W        W90318  31.134  28.542  11.972
21956W        W90319  43.922  43.344   3.159
21957W        W90320  23.105   9.772   2.686
21958W        W90321   6.237  14.716  10.629
21959W        W90322  16.658  23.097   3.714
21960W        W90323   0.803   3.738  11.093
21961W        W90324  22.710  30.478  13.356
21962W        W90325  34.913  20.561   1.244
21963W        W90326  12.226   5.730  11.555
21964W        W90327  35.365  24.615   2.265
21965W        W90328   5.699  42.300  11.997
21966W        W90329   2.399  36.084  13.547
21967W        W90330  44.450  16.084  14.338
21968W        W90331   0.847  29.475  11.976
21969W        W90332  37.905  41.321  13.869
21970W        W90333  21.668   1.977   1.767
21971W        W90334  35.902  13.177  10.444
21972W        W90335  43.387  41.535   4.798
21973W        W90336  26.675  43.848  10.645
21974W        W90337  27.021  14.245   3.312
21975W        W90338  30.447  13.306  10.540
21976W        W90339  19.180  17.596  12.049
21977W        W90340  33.044  18.054   0.254
21978W        W90341   1.348  14.122  10.595
21979W        W90342  40.888  35.994   0.310
21980W        W90343  15.703  17.105  11.966
21981W        W90344  30.584  12.751  10.593
21982W        W90345  16.624  22.675   2.803
21983W        W90346  19.771  41.916  14.977
21984W        W90347  29.938  44.760   4.785
21985W        W90348  33.382  21.630   4.330
21986W        W90349  20.171   1.278   0.843
21987W        W90350  30.471  10.769  14.509
21988W        W90351  30.606   4.283   4.227
21989W        W90352  22.709  38.447   4.764
21990W        W90353  23.095  15.317   1.318
21991W        W90354  10.767  36.913   0.948
21992W        W90355  13.283   0.479  14.388
21993W        W90356  13.682  34.945   0.871
21994W        W90357   0.858  29.082   0.356
21995W        W90358   6.805  19.253   0.853
21996W        W90359  32.022  20.212   4.301
21997W        W90360   3.823  17.178   0.919
21998W        W90361  14.688   4.850   0.476
21999W        W90362  33.575  10.790   0.425
22000W        W90363  19.596  15.310  12.344
22001W        W90364  12.781  11.864   1.792
22002W        W90365  11.678  16.265  10.434
22003W        W90366   9.738  26.956   0.873
22004W        W90367  26.015   4.718   2.381
22005W        W90368  11.185   3.779   1.220
22006W        W90369  30.450  38.421  14.768
22007W        W90370   7.219  31.581   1.752
22008W        W90371  18.720  11.705   2.419
22009W        W90372   2.855   2.382   3.684
22010W        W90373  28.019  34.453  12.948
22011W        W90374  38.826  35.496   3.288
22012W        W90375  40.531  27.007   1.423
22013W        W90376   7.816   9.248   3.352
22014W        W90377  24.106   4.431   3.809
22015W        W90378  18.197   1.415   1.295
22016W        W90379  33.453  43.396  12.836
22017W        W90380  38.386  39.480  12.967
22018W        W90381  23.675  18.696   4.228
22019W        W90382   9.829  33.504  13.436
22020W        W90383   1.466   2.783   4.783
22021W        W90384  13.739   1.757  12.421
22022W        W90385   3.802  13.640  14.883
22023W        W90386  17.123  35.992   5.254
22024W        W90387  22.531  35.914  14.903
22025W        W90388  28.655  24.601   0.265
22026W        W90389  13.141  29.557   4.722
22027W        W90390  10.782  12.851   4.723
22028W        W90391   9.681  20.647   3.639
22029W        W90392   8.186  41.010  12.044
22030W        W90393  22.095  43.977   2.679
22031W        W90394  33.522  33.566   4.694
22032W        W90395  37.366  21.566  11.971
22033W        W90396  24.190  32.626   4.745
22034W        W90397  37.047  28.165   1.748
22035W        W90398   7.869  14.215   0.763
22036W        W90399  10.718  20.537  10.515
22037W        W90400  22.107  36.909   4.122
22038W        W90401  26.966  31.123  14.503
22039W        W90402  37.064  38.850  14.806
22040W        W90403  42.974  18.172   0.927
22041W        W90404   8.241  40.444   4.727
22042W        W90405  24.016  29.995  14.953
22043W        W90406   7.758  34.585   0.306
22044W        W90407  26.985  19.679  14.277
22045W        W90408  15.318   0.821  10.644
22046W        W90409   7.276  25.034   0.740
22047W        W90410  42.924  44.386  10.551
22048W        W90411  38.986  19.646  10.930
22049W        W90412  19.657  18.661  11.903
22050W        W90413  32.065   9.306   0.774
22051W        W90414  31.417  10.876  11.863
22052W        W90415   2.883  17.248  10.598
22053W        W90416  28.644   5.720   4.323
22054W        W90417  16.157   3.716   4.335
22055W        W90418  43.306  20.665  13.828
22056W        W90419  42.501  32.920   2.395
22057W        W90420  43.429   7.780  10.977
22058W        W90421  13.622  44.001  14.974
22059W        W90422  36.409  42.949  13.359
22060W        W90423  35.384  34.901   2.367
22061W        W90424  12.253  14.681  11.985
22062W        W90425  27.500   7.366   0.313
22063W        W90426  19.647  29.533  11.439
22064W        W90427  10.654  10.372  10.138
22065W        W90428   3.369  42.527  12.376
22066W        W90429   4.885  38.897  11.066
22067W        W90430   4.242  11.844   2.370
22068W        W90431  13.756  41.807   0.479
22069W        W90432   4.350  24.677  11.421
22070W        W90433  38.864  28.485  13.397
22071W        W90434   2.761  39.970  13.029
22072W        W90435  14.621  14.219  14.804
22073W        W90436  36.391  42.996   4.799
22074W        W90437  30.164   9.393  13.364
22075W        W90438  18.690  20.765  13.353
22076W        W90439  25.473  19.760   4.747
22077W        W90440  15.816  31.504  10.914
22078W        W90441  32.593  25.151  12.890
22079W        W90442  37.435  11.275  12.920
22080W        W90443  18.725  25.518   1.793
22081W        W90444   3.728  34.011   2.861
22082W        W90445   3.875   3.220  14.953
22083W        W90446  27.156   4.291  12.364
22084W        W90447  32.135  33.985   1.352
22085W        W90448   4.940   6.204   9.935
22086W        W90449  31.627  13.196  12.466
22087W        W90450  18.079  25.612  11.912
22088W        W90451   7.763  20.165   1.903
22089W        W90452  40.892  37.064   2.731
22090W        W90453  42.505  33.385   9.953
22091W        W90454  22.225  12.796  11.496
22092W        W90455   7.877   4.816   0.261
22093W        W90456  10.874  18.195  14.419
22094W        W90457  15.231  11.162  12.382
22095W        W90458  22.070  16.684   2.791
22096W        W90459  42.283  21.114   0.879
22097W        W90460   2.759  43.876  14.294
22098W        W90461   9.286  28.560  10.492
22099W        W90462   8.290  19.603   1.315
22100W        W90463  12.769  23.065   4.152
22101W        W90464  25.544  31.003  14.495
22102W        W90465  17.262  22.032   2.772
22103W        W90466  23.150  32.622   1.337
22104W        W90467  31.981  40.879  12.875
22105W        W90468  30.112   4.379   1.338
22106W        W90469  42.872  11.216  10.601
22107W        W90470  26.171  15.670  14.490
22108W        W90471  33.906  15.234  11.935
22109W        W90472  23.621  42.320   2.271
22110W        W90473   9.305   4.266  11.447
22111W        W90474   1.239   1.753   1.437
22112W        W90475  29.430  36.896  10.601
22113W        W90476   0.376  39.014  13.020
22114W        W90477  29.495  39.402  12.410
22115W        W90478  23.518  29.540  12.934
22116W        W90479  29.993  30.461   3.366
22117W        W90480  36.006  36.422   2.805
22118W        W90481  16.753  10.311   1.427
22119W        W90482   6.330  19.658   2.283
22120W        W90483   7.867  17.589   1.252
22121W        W90484  33.445  30.538   0.867
22122W        W90485   5.872  13.280  13.990
22123W        W90486  22.653  34.966  10.458
22124W        W90487  29.511  14.149  14.311
22125W        W90488  16.261   9.331  10.628
22126W        W90489   1.353  26.636   2.835
22127W        W90490  14.118   5.434   0.330
22128W        W90491  11.803  21.757   3.309
22129W        W90492  41.513  40.421  14.447
22130W        W90493  23.138  40.833   2.883
22131W        W90494   2.835  15.278  12.993
22132W        W90495   4.450  38.409  11.521
22133W        W90496  23.665  18.080   1.767
22134W        W90497  25.558  42.966   1.779
22135W        W90498  25.592  11.222   4.655
22136W        W90499  20.159  20.091  12.895
22137W        W90500  35.073  26.617  14.500
22138W        W90501  38.436  21.615   4.160
22139W        W90502  16.633   5.334   2.229
22140W        W90503  37.072  16.621  13.003
22141W        W90504  37.889   1.794  13.875
22142W        W90505  42.469  11.184   0.874
22143W        W90506  38.557  11.201  13.337
22144W        W90507  35.015  25.053  14.356
22145W        W90508  26.625  20.608   2.333
22146W        W90509  22.248  40.482   4.653
22147W        W90510  25.707  28.569  14.371
22148W        W90511  35.106  30.112   2.719
22149W        W90512  32.492   1.413  14.029
22150W        W90513   9.190  35.987  12.343
22151W        W90514  39.434  28.677  10.436
22152W        W90515  44.769  36.015  10.564
22153W        W90516  12.308  33.041   2.719
22154W        W90517   6.395   6.691   0.930
22155W        W90518  10.367   6.294  11.934
22156W        W90519  34.911   0.902   1.745
22157W        W90520  22.623   4.422  12.364
22158W        W90521  37.922  42.408   1.747
22159W        W90522   4.254   8.388   0.421
22160W        W90523  38.346   9.710   2.853
22161W        W90524   2.819  13.113   0.282
22162W        W90525  25.711  39.543  14.418
22163W        W90526  35.531  38.365  13.976
22164W        W90527   5.246  36.389   3.811
22165W        W90528  31.406  12.166  14.345
22166W        W90529   4.711  31.058  13.442
22167W        W90530   6.716  26.057  13.986
22168W        W90531  28.981  12.141   0.765
22169W        W90532  10.774  33.401  11.393
22170W        W90533  26.462  33.390  14.371
22171W        W90534   4.278   5.731   1.905
22172W        W90535  20.696  43.504  12.555
22173W        W90536  38.912  25.122  13.419
22174W        W90537  27.662  32.132   2.389
22175W        W90538   6.286  44.827  11.051
22176W        W90539  28.495  19.062  14.794
22177W        W90540  22.190  42.437  14.380
22178W        W90541  26.142  34.460   2.331
22179W        W90542  37.448  28.464   3.642
22180W        W90543   9.230   2.349   0.874
22181W        W90544   2.841  21.624   1.400
22182W        W90545  41.944  16.731   3.287
22183W        W90546  26.630   6.813  10.642
22184W        W90547  42.454  21.192   2.892
22185W        W90548  18.586  13.633   2.755
22186W        W90549  23.163  21.638   2.863
22187W        W90550  38.410  28.003  11.396
22188W        W90551  34.450   2.898  14.888
22189W        W90552   2.341   3.428   3.156
22190W        W90553  44.267  40.825   1.912
22191W        W90554  41.797  21.615   1.408
22192W        W90555  26.117  27.014   0.284
22193W        W90556  38.550  10.207  11.922
22194W        W90557  20.211  19.713   1.915
22195W        W90558  35.485   9.269   3.697
22196W        W90559  43.399  35.043   0.375
22197W        W90560  44.352  40.405  12.408
22198W        W90561  30.034  43.392  13.517
22199W        W90562  34.911  22.724  12.067
22200W        W90563   4.310  38.891   4.734
22201W        W90564  23.492  21.045   4.153
22202W        W90565   7.184  35.582   4.203
22203W        W90566   5.791  17.612   1.874
22204W        W90567   6.867  41.363  11.556
22205W        W90568  33.957  26.187  13.948
22206W        W90569  35.467  18.061   1.447
22207W        W90570  24.667  12.804  11.486
22208W        W90571   5.257  34.374  11.566
22209W        W90572  30.941   2.253  14.288
22210W        W90573  38.019  11.834  11.860
22211W        W90574  43.944   3.282  13.921
22212W        W90575  15.812   3.756  12.406
22213W        W90576  33.429  37.389  11.031
22214W        W90577  43.966  42.841   4.709
22215W        W90578   8.699  36.949   3.386
22216W        W90579  37.565  39.471   4.140
22217W        W90580  35.520   4.884  11.960
22218W        W90581  11.281  40.002  14.424
22219W        W90582  29.150  41.825   0.924
22220W        W90583  16.133   0.845  12.052
22221W        W90584  16.100  16.663  11.572
22222W        W90585  35.948  26.017  11.509
22223W        W90586   8.744  14.176  11.030
22224W        W90587   5.335  39.861   3.830
22225W        W90588   9.374  43.816   1.249
22226W        W90589  44.498  26.013   4.653
22227W        W90590  19.719  25.701  12.887
22228W        W90591  27.526  36.910   0.951
22229W        W90592  36.932   0.790   3.683
22230W        W90593  20.083  27.121   1.237
22231W        W90594  23.552   4.870   2.361
22232W        W90595  29.670   7.895   0.256
22233W        W90596   4.699  28.482   2.847
22234W        W90597  40.530   8.699   1.241
22235W        W90598   6.753  10.804  11.858
22236W        W90599  11.236   6.880   3.196
22237W        W90600  11.330  10.670  13.952
22238W        W90601   0.902  23.191  12.394
22239W        W90602  42.960   7.805   3.793
22240W        W90603  40.348  17.726   1.734
22241W        W90604  14.598  31.432  14.849
22242W        W90605  24.685  40.514   1.439
22243W        W90606  18.566  39.012  13.866
22244W        W90607  16.747  40.807  13.400
22245W        W90608   6.918  24.197   4.640
22246W        W90609  17.749  35.060  10.567
22247W        W90610  26.158  19.047   0.775
22248W        W90611  44.839  35.477   9.552
22249W        W90612  41.471  12.667   4.208
22250W        W90613  11.339   8.335  11.478
22251W        W90614  21.727  44.296   2.869
22252W        W90615  27.162  13.755   3.179
22253W        W90616  22.585  36.955  14.408
22254W        W90617  43.343  34.096  14.773
22255W        W90618  36.087  17.592  12.417
22256W        W90619  27.092  26.603  13.452
22257W        W90620  27.656  43.820  11.435
22258W        W90621  44.953  13.619   1.757
22259W        W90622   8.253   0.299   3.825
22260W        W90623   3.767   8.246   1.243
22261W        W90624   0.342  22.530   0.474
22262W        W90625  34.460  26.499  10.514
22263W        W90626  11.305   0.271   1.796
22264W        W90627  22.655  38.865  10.888
22265W        W90628  43.277   6.687   0.770
22266W        W90629  15.089  38.021  12.553
22267W        W90630  23.084  14.126   0.727
22268W        W90631  18.653   3.816   4.627
22269W        W90632  29.456  16.600   0.928
22270W        W90633  20.763  23.703  12.415
22271W        W90634  24.524   3.422  14.337
22272W        W90635  14.740  41.948   3.819
22273W        W90636  16.278  44.329  13.347
22274W        W90637  43.884  44.446   2.700
22275W        W90638   0.439  12.297   2.267
22276W        W90639  19.581   9.210  10.449
22277W        W90640  37.020  23.719   3.231
22278W        W90641   8.231  40.398  13.478
22279W        W90642  31.047  22.022   3.743
22280W        W90643  15.200  28.100  14.431
22281W        W90644  41.509  12.694   4.733
22282W        W90645  13.342   2.740   1.393
22283W        W90646   3.434  13.692   0.805
22284W        W90647  26.953   3.291  13.027
22285W        W90648   3.225  26.538   0.853
22286W        W90649   8.722  22.018   1.448
22287W        W90650   0.954   0.438  12.037
22288W        W90651  12.235  38.509   2.355
22289W        W90652   0.366  44.824   2.701
22290W        W90653  27.096  33.881   1.853
22291W        W90654  12.627  43.302   1.435
22292W        W90655  10.743   9.360  11.035
22293W        W90656  42.918   5.711   4.710
22294W        W90657  44.864  35.053   0.929
22295W        W90658  16.630   0.294   2.793
22296W        W90659  15.813  17.181  11.443
22297W        W90660  41.807   0.865  10.012
22298W        W90661  14.174   8.294   4.151
22299W        W90662  35.988  22.623   0.932
22300W        W90663   4.322  44.293   3.348
22301W        W90664   2.299   7.367   4.646
22302W        W90665  20.673  16.766  14.918
22303W        W90666  19.779  40.916  14.914
22304W        W90667   3.866  19.074   0.876
22305W        W90668  30.563  13.793  10.543
22306W        W90669   9.808  10.810  13.865
22307W        W90670  33.099  34.415  10.454
22308W        W90671  11.716  28.577   3.275
22309W        W90672  15.231  37.001  14.387
22310W        W90673  29.522  37.047  11.926
22311W        W90674  16.274  40.396  14.975
22312W        W90675  13.608  25.487   1.892
22313W        W90676  25.213  10.753   3.304
22314W        W90677  19.547  12.724  10.985
22315W        W90678   1.882  15.103  12.421
22316W        W90679  12.613   5.299   4.171
22317W        W90680  34.032  21.523   1.293
22318W        W90681  36.384  37.424  14.858
22319W        W90682  33.502   1.246  14.802
22320W        W90683  35.960   5.904   0.932
22321W        W90684  37.497   0.813   3.349
22322W        W90685  36.553  13.341  11.576
22323W        W90686   2.735  30.643   1.737
22324W        W90687  17.790  29.665  12.404
22325W        W90688  20.083  12.849  12.552
22326W        W90689  11.330  22.650  10.560
22327W        W90690  30.561  27.134   0.309
22328W        W90691  17.709  24.556  14.280
22329W        W90692  11.140  22.579   0.345
22330W        W90693  43.018  11.826  12.570
22331W        W90694   7.295  28.555   3.232
22332W        W90695  10.240  29.644   2.201
22333W        W90696  32.452  14.831   0.784
22334W        W90697  16.216   8.761   1.754
22335W        W90698   1.745  10.138  12.976
22336W        W90699  34.419  11.331  10.430
22337W        W90700   5.404   0.952  11.576
22338W        W90701  34.882  17.623   3.249
22339W        W90702  31.490   0.252   5.295
22340W        W90703  14.636  24.226  14.351
22341W        W90704   3.776  43.495   4.710
22342W        W90705  40.309  19.594  14.776
22343W        W90706   9.674  29.099  14.511
22344W        W90707  14.795  19.228  13.334
22345W        W90708  14.253   1.483  10.945
22346W        W90709   2.362  28.560  13.443
22347W        W90710  39.058  17.666  12.526
22348W        W90711   2.280   0.358  12.988
22349W        W90712   7.671  28.110   4.635
22350W        W90713  43.469  28.554   4.153
22351W        W90714  21.722   8.802  11.023
22352W        W90715   6.768   4.876   1.426
22353W        W90716   3.955  26.200  10.420
22354W        W90717  26.543  26.677   0.945
22355W        W90718  35.560  21.115   1.826
22356W        W90719  16.809  16.203  12.067
22357W        W90720  25.691   8.190  14.465
22358W        W90721  12.274   4.406   1.746
22359W        W90722   8.776  23.157  12.339
22360W        W90723   4.744  30.924   1.403
22361W        W90724  44.009  14.710   1.435
22362W        W90725  33.599  22.701  12.096
22363W        W90726   9.215  12.778   4.801
22364W        W90727  27.001  36.842   4.308
22365W        W90728  17.801  25.213  11.457
22366W        W90729  28.120  44.439  13.437
22367W        W90730   2.825  42.918   5.288
22368W        W90731  12.708  23.154  14.419
22369W        W90732  22.187   6.899  13.865
22370W        W90733  10.166  23.106  12.354
22371W        W90734   8.892  37.860   4.192
22372W        W90735  32.112   9.352   2.310
22373W        W90736  41.850  33.586   1.882
22374W        W90737  18.762  20.217  10.467
22375W        W90738  43.922   7.689   4.292
22376W        W90739  27.509  35.856   2.873
22377W        W90740  38.933   7.772  13.472
22378W        W90741  19.682  29.428  13.531
22379W        W90742  36.930  19.661   0.756
22380W        W90743   5.361  41.485   2.279
22381W        W90744  24.671  37.525  11.606
22382W        W90745   2.266  40.434  13.919
22383W        W90746  29.425  21.665  11.123
22384W        W90747  29.425   8.179   2.780
22385W        W90748  26.555   3.370  13.406
22386W        W90749   6.404  41.396  12.478
22387W        W90750  33.439  21.541  11.112
22388W        W90751  38.563  31.587  13.442
22389W        W90752   2.313  11.643   3.372
22390W        W90753  19.274  19.255   4.113
22391W        W90754  14.739   6.846  10.632
22392W        W90755  43.827   2.229   4.262
22393W        W90756   5.815  32.505  14.907
22394W        W90757  34.896  12.278   4.786
22395W        W90758  42.923  14.224   4.338
22396W        W90759  10.148  17.125  13.512
22397W        W90760   7.865  32.469   2.290
22398W        W90761  28.069   7.207   5.117
22399W        W90762  43.799  19.640  13.044
22400W        W90763  22.613   1.439   0.933
22401W        W90764  44.336  41.935   1.420
22402W        W90765  21.141  31.412  13.050
22403W        W90766  36.015  35.562  11.446
22404W        W90767  11.634  23.234   1.843
22405W        W90768  37.518   7.686   3.317
22406W        W90769  33.913  19.185  12.977
22407W        W90770  15.250  15.759   9.485
22408W        W90771  44.772  29.428  10.893
22409W        W90772  30.622  21.023   4.665
22410W        W90773   2.436  14.596  11.955
22411W        W90774  11.235  41.318   3.346
22412W        W90775  44.435  21.606   4.305
22413W        W90776  20.093  20.230  14.785
22414W        W90777  16.649   5.217   1.780
22415W        W90778  29.023  27.529   4.713
22416W        W90779   9.159  13.728  11.958
22417W        W90780   8.808  24.568  13.908
22418W        W90781   1.386  12.852   2.333
22419W        W90782  10.340  26.632   9.991
22420W        W90783  34.454   0.300   0.467
22421W        W90784  30.957  14.641  12.067
22422W        W90785  12.720   3.325  10.637
22423W        W90786  21.256  12.796  10.054
22424W        W90787   8.394  34.937   1.755
22425W        W90788  22.663   2.883  14.031
22426W        W90789  10.384  41.505   4.827
22427W        W90790  28.497  26.641  14.508
22428W        W90791   4.295  11.750  12.967
22429W        W90792  40.907  27.995  13.332
22430W        W90793  21.568  23.073   3.282
22431W        W90794  35.942  33.026  12.912
22432W        W90795  30.525  42.289   1.390
22433W        W90796  44.355  38.357  11.602
22434W        W90797   3.740  27.636   3.640
22435W        W90798   9.259  40.823  13.062
22436W        W90799  16.649   0.871   2.669
22437W        W90800   1.891   2.443  12.404
22438W        W90801  34.606   1.432  13.334
22439W        W90802  39.941  25.623  13.051
22440W        W90803  26.967  31.550   0.917
22441W        W90804  31.150  10.381   4.343
22442W        W90805  40.489  20.736   2.184
22443W        W90806  26.663  17.610  12.449
22444W        W90807  20.124   2.433  12.433
22445W        W90808  30.556  15.316   3.308
22446W        W90809  12.155  11.207   3.703
22447W        W90810  20.740  13.272  12.012
22448W        W90811  22.050  19.062  11.529
22449W        W90812   7.198  13.674  10.531
22450W        W90813  14.728  34.603   0.421
22451W        W90814   0.783  12.217  13.469
22452W        W90815  42.842  30.074  13.491
22453W        W90816  15.320   1.272  13.867
22454W        W90817  38.494  28.471   4.774
22455W        W90818  30.623  14.125  13.996
22456W        W90819  30.132  25.980   4.212
22457W        W90820  23.540  44.844  13.939
22458W        W90821   1.848  32.536  12.017
22459W        W90822   1.359  36.021  12.352
22460W        W90823  43.975  15.715   4.171
22461W        W90824  16.262  43.007   2.723
22462W        W90825  44.421  38.449  10.478
22463W        W90826  16.118   0.438   4.598
22464W        W90827  26.998  38.033  14.379
22465W        W90828  10.857  19.258   4.807
22466W        W90829  21.525   5.265  14.339
22467W        W90830  11.644  15.616  13.059
22468W        W90831  31.003   0.248   2.711
22469W        W90832  26.132   2.883  14.949
22470W        W90833  32.020  32.510  11.471
22471W        W90834   2.929  37.072  14.365
22472W        W90835   0.447  31.958  10.010
22473W        W90836  39.949  28.559  12.074
22474W        W90837   0.872  25.088   0.305
22475W        W90838  26.952  44.799   1.894
22476W        W90839  30.927  14.198   0.291
22477W        W90840  39.536  10.381   0.253
22478W        W90841  20.247  23.208   1.323
22479W        W90842  18.756  12.617   2.259
22480W        W90843   6.895  21.680   2.795
22481W        W90844  43.323   7.267   5.208
22482W        W90845  12.686   2.952   1.793
22483W        W90846  14.178  39.414  11.883
22484W        W90847   1.747  22.089   2.662
22485W        W90848  20.602   7.326   3.794
22486W        W90849   9.682  36.022   1.249
22487W        W90850   4.942  25.687   3.243
22488W        W90851  35.039   9.353   4.116
22489W        W90852   8.873  44.904   3.253
22490W        W90853  42.361  13.800  12.507
22491W        W90854   2.834  33.090  12.555
22492W        W90855  40.894  29.523   0.349
22493W        W90856  17.740  39.527   0.479
22494W        W90857   4.355  23.059   1.298
22495W        W90858   2.848  31.507   2.750
22496W        W90859   6.830  21.626  10.484
22497W        W90860  19.762  30.454   1.424
22498W        W90861  39.443  40.951  10.615
22499W        W90862   6.746  37.559  11.077
22500W        W90863  25.151  44.442   1.421
22501W        W90864  34.523  13.255   2.669
22502W        W90865   9.648  10.287   3.211
22503W        W90866  12.357   4.422  10.051
22504W        W90867   6.219  28.948  12.558
22505W        W90868  15.308  25.664  11.126
22506W        W90869  16.274  39.482  14.455
22507W        W90870  31.525  44.272  12.407
22508W        W90871   8.678  19.182   4.831
22509W        W90872  11.764   1.969  12.976
22510W        W90873  20.196  26.470   0.431
22511W        W90874  26.168  10.368  11.005
22512W        W90875  26.687  15.626  11.514
22513W        W90876  17.239  18.695   2.374
22514W        W90877  27.967   3.736   1.868
22515W        W90878   7.696  28.594   0.316
22516W        W90879  26.156  14.265   3.217
22517W        W90880  10.327  16.309  11.372
22518W        W90881  30.003  29.132  12.460
22519W        W90882  27.495   5.314  11.566
22520W        W90883   4.266  15.718  14.800
22521W        W90884  18.251  12.728   1.814
22522W        W90885   7.747   5.882  13.973
22523W        W90886  19.231  44.329  12.964
22524W        W90887  33.587  43.392   3.304
22525W        W90888  39.916  40.490   4.151
22526W        W90889  39.953  24.486   2.264
22527W        W90890   9.735  24.099  13.057
22528W        W90891  32.565   9.781   1.921
22529W        W90892  19.766  36.089  11.049
22530W        W90893  40.547  12.726  11.948
22531W        W90894  32.433  39.323  14.789
22532W        W90895  39.355  14.611   1.254
22533W        W90896  13.260  23.493   0.438
22534W        W90897  10.747  23.015  13.429
22535W        W90898  33.092  44.410   3.707
22536W        W90899  19.629  41.028   4.609
22537W        W90900  30.625   1.440  14.319
22538W        W90901  17.215  17.088   4.820
22539W        W90902  31.983  30.453   3.295
22540W        W90903  36.505  17.130  13.497
22541W        W90904  19.600   5.255  13.012
22542W        W90905  15.202  15.268  14.319
22543W        W90906   1.859   2.786   4.267
22544W        W90907  32.467  32.624   0.288
22545W        W90908  18.106   1.327   0.793
22546W        W90909  43.839  37.363   3.351
22547W        W90910  17.785  17.789   4.281
22548W        W90911  40.896  44.772  11.023
22549W        W90912   7.787  36.086  13.956
22550W        W90913  17.633  30.525   4.683
22551W        W90914  30.509   6.904   0.363
22552W        W90915  40.418  34.894  12.883
22553W        W90916  36.565  21.589   2.234
22554W        W90917   0.460  22.218   2.371
22555W        W90918  28.576  36.990   1.314
22556W        W90919  14.595  11.233   0.254
22557W        W90920  42.526   3.358  10.621
22558W        W90921  38.959  37.977   2.289
22559W        W90922  23.240  39.316  11.577
22560W        W90923  14.706  22.653  13.479
22561W        W90924   3.319  24.542   0.441
22562W        W90925  27.497  22.605   2.285
22563W        W90926  11.152  24.481   1.409
22564W        W90927   6.791  14.823   0.863
22565W        W90928  27.502  29.106  14.782
22566W        W90929  10.753  34.393  11.534
22567W        W90930  20.680  37.349  11.019
22568W        W90931  29.546   3.432   3.697
22569W        W90932  18.216  31.612  13.501
22570W        W90933  41.833  16.210   4.325
22571W        W90934   0.774  30.576   3.796
22572W        W90935  37.931  14.759   4.311
22573W        W90936  32.941  32.107  13.019
22574W        W90937  10.766  32.942  12.933
22575W        W90938   1.255  15.613  12.002
22576W        W90939  39.828  40.324   2.307
22577W        W90940  17.758  37.906  14.767
22578W        W90941  15.130   0.286  12.345
22579W        W90942  41.402  20.700  13.345
22580W        W90943  20.213  28.079  10.424
22581W        W90944  21.249  19.265   3.733
22582W        W90945  31.909  26.530  11.909
22583W        W90946  41.462  25.582  14.435
22584W        W90947  15.311   5.197   4.194
22585W        W90948  18.749   6.856   3.697
22586W        W90949   4.367   6.213  10.491
22587W        W90950  17.085   8.218   2.733
22588W        W90951   3.238  34.935  13.059
22589W        W90952  43.502   8.189   1.398
22590W        W90953  11.196  32.085  13.846
22591W        W90954  16.734  42.455   4.320
22592W        W90955  29.435  14.215   4.351
22593W        W90956   0.961  39.948  10.022
22594W        W90957  27.042  28.111   3.843
22595W        W90958   2.353  31.961  12.830
22596W        W90959  21.530  14.242  12.069
22597W        W90960  22.036  29.620   2.298
22598W        W90961  39.439   4.865  14.838
22599W        W90962  14.608  11.825  12.439
22600W        W90963   6.351  33.904  14.804
22601W        W90964  44.419  19.690  14.840
22602W        W90965  20.686  40.363   3.301
22603W        W90966   4.933  32.994  14.416
22604W        W90967  35.587  27.620  14.954
22605W        W90968  27.595  33.992  12.957
22606W        W90969  32.890  13.210   1.382
22607W        W90970  33.975  13.250  11.450
22608W        W90971  31.407  14.215   0.890
22609W        W90972  36.468   4.393  14.783
22610W        W90973  36.444   8.270   3.190
22611W        W90974  38.406  22.525  11.964
22612W        W90975  19.046  32.125   3.635
22613W        W90976  12.230  36.425   4.124
22614W        W90977  21.529  33.382   2.721
22615W        W90978  42.388  29.100   4.153
22616W        W90979  35.525  35.972   2.823
22617W        W90980  17.721   2.766   0.369
22618W        W90981   0.774   0.880   0.924
22619W        W90982   8.204  20.076   0.819
22620W        W90983   3.760  26.538  14.332
22621W        W90984  14.674  36.075   2.892
22622W        W90985  13.744  35.089  13.963
22623W        W90986   0.408   5.809  14.844
22624W        W90987  13.777   9.837   3.266
22625W        W90988  19.147  10.709   3.153
22626W        W90989   8.680  18.209  12.457
22627W        W90990   7.198   1.387  10.470
22628W        W90991  44.002  16.145  14.444
22629W        W90992  39.457  35.928   0.752
22630W        W90993  22.154  29.544  12.455
22631W        W90994  37.534   5.688   0.332
22632W        W90995  43.899   0.281   1.219
22633W        W90996   3.268  28.547  11.036
22634W        W90997   0.422   3.952  12.977
22635W        W90998  11.222   5.338  12.858
22636W        W90999  27.181  44.919   4.753
22637W        W91000  10.351  40.500  10.436
22638W        W91001  36.073  10.291   4.779
22639W        W91002   7.359  29.474  12.852
22640W        W91003  38.888  28.143   9.998
22641W        W91004  11.245  22.604  14.296
22642W        W91005  32.499  40.452   3.812
22643W        W91006  13.166  16.718  12.414
22644W        W91007  41.439  40.431  11.002
22645W        W91008   9.380  10.220   2.745
22646W        W91009   6.276  26.503   5.282
22647W        W91010   6.842   8.357  10.644
22648W        W91011  14.678  28.124   4.644
22649W        W91012  40.510   7.695  11.539
22650W        W91013  10.731   1.802   3.812
22651W        W91014  42.869  31.966   3.237
22652W        W91015  25.670  27.547  13.408
22653W        W91016  25.564   3.822  12.351
22654W        W91017  11.664   8.699  10.038
22655W        W91018  43.484  15.243   4.309
22656W        W91019  21.069   8.282   2.415
22657W        W91020  36.448  36.949  13.435
22658W        W91021  22.038  37.580   3.654
22659W        W91022  37.085  16.283   3.806
22660W        W91023   7.731  19.116  14.431
22661W        W91024   6.196  39.065  14.305
22662W        W91025   1.731   4.273   4.164
22663W        W91026  12.742   2.722   2.728
22664W        W91027  16.624  19.605   2.389
22665W        W91028   7.308  43.836  12.406
22666W        W91029  26.568   8.749   3.150
22667W        W91030   8.386  26.997   4.135
22668W        W91031  21.618   7.214   0.967
22669W        W91032  20.672  40.345  13.379
22670W        W91033  32.509  31.053  11.105
22671W        W91034  19.618  11.226   4.658
22672W        W91035  42.952  14.155  10.412
22673W        W91036   2.882  19.067   0.404
22674W        W91037   5.374  42.971   3.220
22675W        W91038  17.631  37.366   3.681
22676W        W91039  16.794  41.838   2.661
22677W        W91040  42.826  13.261  10.904
22678W        W91041  12.684   8.850  14.921
22679W        W91042   1.801  23.197   4.613
22680W        W91043  23.129  24.014  14.499
22681W        W91044  41.371  28.058   2.267
22682W        W91045  41.973   9.814  13.315
22683W        W91046  27.537   4.393  13.804
22684W        W91047  12.637  30.550   4.164
22685W        W91048   4.208   3.348   2.760
22686W        W91049  37.450   1.733  13.902
22687W        W91050  38.339  34.011   0.934
22688W        W91051  30.102   9.232  14.335
22689W        W91052   0.848  43.858  14.304
22690W        W91053  26.624  28.102   4.805
22691W        W91054  39.876  43.996   2.902
22692W        W91055  22.693  16.570   4.662
22693W        W91056  18.153  13.669   2.288
22694W        W91057   4.233   7.256   0.328
22695W        W91058  12.641  12.273   1.380
22696W        W91059  17.139  21.089   5.151
22697W        W91060  23.166   8.870  14.410
22698W        W91061  19.159   6.793   3.167
22699W        W91062   4.229   1.403   3.713
22700W        W91063  42.475  42.943  13.905
22701W        W91064   8.801   3.219   4.834
22702W        W91065  28.549  26.123  13.925
22703W        W91066   7.796  32.529   3.319
22704W        W91067  33.431  39.850   4.799
22705W        W91068  11.762  21.664   2.294
22706W        W91069  40.053  32.608  14.462
22707W        W91070  26.564   5.850  13.897
22708W        W91071  14.181  20.565  13.311
22709W        W91072   4.335  19.128   0.742
22710W        W91073  17.285  34.561  12.976
22711W        W91074  37.365  23.711  13.478
22712W        W91075  12.252  16.697   0.248
22713W        W91076  12.785  37.962   0.934
22714W        W91077   0.440  21.606   2.676
22715W        W91078  38.048  14.156  12.075
22716W        W91079  23.647  22.019  12.011
22717W        W91080  32.610  13.814  11.090
22718W        W91081  29.981   3.752   2.182
22719W        W91082  17.634  42.495   3.809
22720W        W91083  28.122  19.598   9.996
22721W        W91084  35.539  19.773   1.346
22722W        W91085  14.715  11.835  12.953
22723W        W91086  23.094   1.733  13.541
22724W        W91087   5.199  20.239  11.594
22725W        W91088  32.116  13.345  11.928
22726W        W91089  41.016  29.972   2.784
22727W        W91090  27.634  26.956   1.220
22728W        W91091  32.521   4.767  11.038
22729W        W91092   7.824   4.282   4.768
22730W        W91093  40.535   5.306  11.425
22731W        W91094  30.539  12.796  14.452
22732W        W91095  36.022  17.187  10.409
22733W        W91096  17.674   6.326   0.442
22734W        W91097  27.155  30.084   1.771
22735W        W91098  25.697   9.240   4.314
22736W        W91099   1.344  11.653  11.387
22737W        W91100  33.101  17.689  13.467
22738W        W91101  12.783   5.735   3.312
22739W        W91102   6.207   1.313  13.897
22740W        W91103  42.320  13.671  10.538
22741W        W91104  18.684  19.235   2.287
22742W        W91105  35.437  43.296  10.595
22743W        W91106  13.611  33.551   2.394
22744W        W91107   2.288   8.316  12.442
22745W        W91108  17.163  11.801   0.300
22746W        W91109  24.515  13.646  14.356
22747W        W91110  43.372  32.107   3.153
22748W        W91111  10.735  29.032   4.190
22749W        W91112   5.267  11.766   2.766
22750W        W91113  10.718  15.191   4.211
22751W        W91114  35.468  38.390   3.246
22752W        W91115  34.865  44.292   1.442
22753W        W91116   9.309  43.356  10.488
22754W        W91117  38.018  20.605  14.938
22755W        W91118  24.210  34.966  10.944
22756W        W91119  39.833  34.069   4.609
22757W        W91120  19.257  34.976   2.710
22758W        W91121  39.546  26.640   0.915
22759W        W91122   5.349  35.543  12.951
22760W        W91123  18.556   0.852   4.742
22761W        W91124  38.498  19.152   0.907
22762W        W91125   2.364  38.432  11.870
22763W        W91126  16.630  16.761  10.010
22764W        W91127  24.018  35.885  14.475
22765W        W91128   8.168  13.191   0.837
22766W        W91129  34.578  44.862  14.836
22767W        W91130  39.973  40.492  12.967
22768W        W91131  44.846  39.433   0.349
22769W        W91132  22.524  40.837  11.869
22770W        W91133  42.905   1.351  14.809
22771W        W91134  41.324  19.113  13.339
22772W        W91135  44.342  18.195   1.315
22773W        W91136  37.396  42.987   4.230
22774W        W91137  26.668  29.488  11.006
22775W        W91138  39.880  39.911  13.892
22776W        W91139  19.741  25.073   2.197
22777W        W91140  38.390  17.629   3.230
22778W        W91141  33.057  41.920  12.046
22779W        W91142  19.196  43.830   9.436
22780W        W91143  31.407  24.171   4.631
22781W        W91144   7.232   9.834   4.803
22782W        W91145  35.498  29.953  10.546
22783W        W91146  44.296  17.071   1.270
22784W        W91147   5.898  24.636  12.986
22785W        W91148   2.853  33.932   2.738
22786W        W91149  26.560   9.699   3.295
22787W        W91150  32.632   9.747   4.354
22788W        W91151  35.047  29.626  13.802
22789W        W91152  16.072   9.796  13.481
22790W        W91153  10.828  42.870   4.835
22791W        W91154  25.002  21.111  11.869
22792W        W91155   6.333  32.499  12.429
22793W        W91156  40.347  30.634   1.907
22794W        W91157  40.805  30.643  11.447
22795W        W91158  36.952   3.858   3.170
22796W        W91159  29.474  39.463   4.262
22797W        W91160   1.472   0.407   0.384
22798W        W91161   3.939   0.327   2.726
22799W        W91162  12.841  37.511  14.346
22800W        W91163  17.283  30.916  14.784
22801W        W91164   0.873   6.915  11.558
22802W        W91165  29.435  26.058  13.971
22803W        W91166  42.464   1.749  14.370
22804W        W91167  34.067  15.168   1.797
22805W        W91168  25.066  27.133  11.394
22806W        W91169  35.029  27.006   4.794
22807W        W91170  30.106  12.288  13.480
22808W        W91171  11.306  40.354   0.266
22809W        W91172   2.892  11.148   2.392
22810W        W91173  12.215  38.471   0.781
22811W        W91174  42.947   0.837   2.869
22812W        W91175  24.598  26.136  14.341
22813W        W91176  28.115  12.307   3.200
22814W        W91177  12.687  21.654   2.728
22815W        W91178  32.620  15.269  14.840
22816W        W91179  32.612   8.393  12.881
22817W        W91180  21.548  20.579   2.782
22818W        W91181  10.380   6.257  10.595
22819W        W91182  17.597  14.631  10.592
22820W        W91183  13.645  44.446  12.926
22821W        W91184  34.611   7.834   0.466
22822W        W91185  37.056   1.972   3.743
22823W        W91186  16.296   6.837   2.763
22824W        W91187  21.619  15.766   4.322
22825W        W91188  28.497  25.559  14.516
22826W        W91189  18.645  42.854  14.922
22827W        W91190  41.823  30.049   1.367
22828W        W91191   9.673  18.197   3.235
22829W        W91192  37.515   6.773  12.463
22830W        W91193  39.428  23.501  10.607
22831W        W91194   8.744   6.315  14.456
22832W        W91195  20.663  44.988   1.274
22833W        W91196   4.914  41.450  10.043
22834W        W91197  11.362   7.365   4.237
22835W        W91198  36.866  24.529   2.670
22836W        W91199  25.527   8.176   4.351
22837W        W91200   2.766  30.921   4.609
22838W        W91201  19.769  23.697  10.488
22839W        W91202  43.326  41.386  14.400
22840W        W91203  21.568  11.131   0.784
22841W        W91204   7.910  30.626   3.351
22842W        W91205  30.072  44.414  14.898
22843W        W91206  34.892  28.601   1.372
22844W        W91207  17.278   7.795  13.396
22845W        W91208  41.382  24.178  11.027
22846W        W91209  38.835  10.259  14.281
22847W        W91210   3.300  33.496  11.588
22848W        W91211  15.154   5.761   3.783
22849W        W91212  29.943  31.986   2.738
22850W        W91213  26.106  44.845   3.825
22851W        W91214  37.040  41.006   1.283
22852W        W91215  26.630  40.033   0.782
22853W        W91216  22.693   9.833   1.297
22854W        W91217   5.923   1.839   2.823
22855W        W91218  27.533   9.256  12.092
22856W        W91219  25.684   6.359   1.264
22857W        W91220  37.970  14.112   2.226
22858W        W91221   6.880  33.416   3.642
22859W        W91222   1.385  13.643  11.471
22860W        W91223  12.355  19.638   3.333
22861W        W91224  22.735   3.950   2.777
22862W        W91225  42.402   4.923  13.999
22863W        W91226  16.626  32.411   2.305
22864W        W91227  30.991  31.065  10.453
22865W        W91228  10.251  42.342  10.890
22866W        W91229   3.794  26.956  11.941
22867W        W91230  19.742  34.443   3.693
22868W        W91231  32.512  13.674  12.522
22869W        W91232  41.330  28.126  13.349
22870W        W91233  30.157  44.321   0.259
22871W        W91234   4.761  36.979   3.739
22872W        W91235  17.570  20.632   4.307
22873W        W91236  38.999  29.653  13.934
22874W        W91237  44.813  38.829   3.679
22875W        W91238   8.874  15.592   2.874
22876W        W91239  30.656  13.837  12.404
22877W        W91240  43.473  24.210   4.712
22878W        W91241  42.923  37.418  14.461
22879W        W91242  17.195  26.581  14.397
22880W        W91243  17.564  30.994  11.082
22881W        W91244  21.571   4.743  13.851
22882W        W91245  19.617  39.459   2.813
22883W        W91246  25.975  36.359  12.888
22884W        W91247   7.882  23.092  12.939
22885W        W91248  33.477   1.265  11.108
22886W        W91249  12.625  17.699  14.947
22887W        W91250  42.911  16.285  13.945
22888W        W91251  37.831  40.826   0.794
22889W        W91252   9.322   6.288  12.086
22890W        W91253  20.150  41.924  12.973
22891W        W91254  23.138   1.902  12.358
22892W        W91255   4.281  38.552   3.802
22893W        W91256   1.746  36.399  12.918
22894W        W91257  31.915  14.282  12.360
22895W        W91258  37.000   6.250  13.520
22896W        W91259   3.397  32.596  13.360
22897W        W91260  25.144  39.462  12.539
22898W        W91261   3.366  34.901  13.871
22899W        W91262  22.033   8.351   0.358
22900W        W91263  10.782  44.456   0.420
22901W        W91264   2.830  19.063  10.924
22902W        W91265   2.898   2.448   2.314
22903W        W91266  22.567  25.019   4.282
22904W        W91267  40.954  24.126  12.091
22905W        W91268   5.241  41.030  13.945
22906W        W91269  29.539  33.129  13.337
22907W        W91270  17.242  31.910  11.025
22908W        W91271   7.668  36.491  10.967
22909W        W91272  17.608  32.589   2.346
22910W        W91273  35.534   1.780  13.060
22911W        W91274  29.018  10.816  12.029
22912W        W91275  44.412   8.778  10.460
22913W        W91276   0.887  17.629  12.912
22914W        W91277   6.871  44.353  11.044
22915W        W91278  30.915  13.631  13.531
22916W        W91279   4.258  13.702   4.153
22917W        W91280  19.244  32.495  11.020
22918W        W91281  39.012  19.099  14.354
22919W        W91282  21.135  41.405  11.926
22920W        W91283  34.519  22.123  13.439
22921W        W91284   3.846  11.281   2.789
22922W        W91285  27.582  31.994   4.789
22923W        W91286  34.954   3.240   1.297
22924W        W91287  34.094   3.907   4.659
22925W        W91288  14.727   1.386   2.216
22926W        W91289  23.036  39.518  14.965
22927W        W91290  21.143  15.126   4.202
22928W        W91291  26.629  20.218  14.829
22929W        W91292  40.922   4.701  14.902
22930W        W91293   8.822  25.488  10.434
22931W        W91294   6.183   2.946   2.361
22932W        W91295  30.644   3.868   0.854
22933W        W91296  23.629  18.696  13.937
22934W        W91297  10.663  26.205  12.978
22935W        W91298  30.114  34.494  13.310
22936W        W91299  18.079   0.342  13.891
22937W        W91300  34.968  27.952  12.485
22938W        W91301  29.654  39.358  12.909
22939W        W91302  44.323  19.777   2.365
22940W        W91303  20.611  15.092   3.864
22941W        W91304  30.634  32.578   3.736
22942W        W91305  11.856  32.096   2.788
22943W        W91306  15.277  14.302   3.184
22944W        W91307  13.842  12.614   2.347
22945W        W91308   5.422  17.599  12.525
22946W        W91309  44.800  15.727   9.957
22947W        W91310  16.724  38.366  11.420
22948W        W91311  28.108  13.764   2.896
22949W        W91312  35.382   2.919  14.871
22950W        W91313   9.866  33.126   3.224
22951W        W91314  31.058  18.660  10.405
22952W        W91315  44.931  17.671   2.724
22953W        W91316  15.602  24.522  11.610
22954W        W91317  14.590  31.907   4.736
22955W        W91318  16.101   5.356  11.952
22956W        W91319  42.524  39.004  13.860
22957W        W91320   5.295  44.441   0.471
22958W        W91321  35.091  19.573  11.098
22959W        W91322  38.361  42.809  11.374
22960W        W91323  31.063  11.628   5.111
22961W        W91324  28.042  20.737  10.082
22962W        W91325  40.985   8.387   0.343
22963W        W91326  21.593  30.438   0.484
22964W        W91327  26.979  13.196   4.829
22965W        W91328   3.816  14.700   1.831
22966W        W91329  18.654  15.311  10.618
22967W        W91330  32.078  13.155   3.635
22968W        W91331   7.363   5.231   4.126
22969W        W91332  36.532  39.916  14.798
22970W        W91333  31.998  32.437   0.467
22971W        W91334  19.149  30.623  11.082
22972W        W91335  25.598  36.590  13.368
22973W        W91336  14.259  41.991   2.338
22974W        W91337  18.254  13.610  13.932
22975W        W91338  44.909  12.731   2.696
22976W        W91339  43.869  12.708   0.459
22977W        W91340  18.284  19.654  10.494
22978W        W91341  20.054   0.799   0.316
22979W        W91342  32.409  43.375   1.336
22980W        W91343  37.497   6.916  13.520
22981W        W91344  33.064  43.412   3.656
22982W        W91345  10.726  12.248  14.969
22983W        W91346  15.648  21.671  13.380
22984W        W91347  21.670  33.086   2.410
22985W        W91348  16.137   5.336  14.513
22986W        W91349  40.491  27.190   0.243
22987W        W91350  26.649  17.648   4.208
22988W        W91351  24.078  24.672   3.261
22989W        W91352   8.244  10.226  10.524
22990W        W91353   9.667  31.519  10.609
22991W        W91354  26.502  26.109   2.299
22992W        W91355  21.123  44.278   2.370
22993W        W91356  38.029   5.289  14.299
22994W        W91357  28.021  19.148  10.969
22995W        W91358  19.712  41.489  11.039
22996W        W91359  42.392  37.357   2.413
22997W        W91360  26.199  32.920   2.341
22998W        W91361  29.059  20.122  13.060
22999W        W91362  14.281  27.447   4.323
23000W        W91363   0.450  27.188  13.813
23001W        W91364  34.512  29.613   1.421
23002W        W91365  24.709  29.014  14.026
23003W        W91366   8.394   2.415   1.308
23004W        W91367   9.300  35.941   0.334
23005W        W91368  25.026  31.075  14.282
23006W        W91369   0.250  18.644   2.392
23007W        W91370  24.118  28.498  11.859
23008W        W91371  32.549  25.995   1.228
23009W        W91372  42.429   8.884  13.022
23010W        W91373  29.518  24.643   2.745
23011W        W91374  26.979  19.148  10.441
23012W        W91375  13.616  33.439   1.224
23013W        W91376  27.189   4.399  14.933
23014W        W91377  32.501  35.601  12.375
23015W        W91378  30.055  23.668   0.402
23016W        W91379  11.312  29.111   3.741
23017W        W91380   6.809  12.323  12.380
23018W        W91381  25.145  21.557   3.215
23019W        W91382  10.860   7.711   0.812
23020W        W91383  42.919  17.145   3.365
23021W        W91384   3.732  17.296  14.805
23022W        W91385  42.853  18.684   5.200
23023W        W91386   9.181  21.170  13.407
23024W        W91387  44.432  14.774  13.379
23025W        W91388  31.061   7.313  14.288
23026W        W91389  24.038  37.846  12.895
23027W        W91390  41.016  33.387   4.759
23028W        W91391   9.213  16.677   2.704
23029W        W91392  35.559  12.215  14.373
23030W        W91393  22.072  44.909  12.388
23031W        W91394  21.663  33.492   3.176
23032W        W91395   4.748  20.242  14.304
23033W        W91396  22.562  23.089   3.666
23034W        W91397  22.520  19.725  10.403
23035W        W91398  39.414  12.832   1.269
23036W        W91399  34.036  20.542   2.757
23037W        W91400   8.404  41.536  14.013
23038W        W91401  10.298  11.295  13.478
23039W        W91402  29.626  29.639  12.429
23040W        W91403  20.102  23.100  10.542
23041W        W91404  44.490  32.397   0.271
23042W        W91405   1.382  21.070  13.948
23043W        W91406   5.819  27.451  12.442
23044W        W91407  38.431  25.654  12.490
23045W        W91408  14.243   9.386  14.806
23046W        W91409  14.588  16.782  11.458
23047W        W91410  41.011  12.290  13.376
23048W        W91411   0.295  20.165   4.837
23049W        W91412  31.134  31.409  12.447
23050W        W91413  36.510   9.190  13.313
23051W        W91414  20.138  37.344  14.351
23052W        W91415  12.625   4.840  12.991
23053W        W91416  44.975  26.581  14.296
23054W        W91417   9.675  12.743  11.979
23055W        W91418  28.046   8.825  11.525
23056W        W91419  25.521   8.169  11.936
23057W        W91420  27.102  12.310   4.821
23058W        W91421  39.894  23.222  11.082
23059W        W91422   4.887  32.979  10.087
23060W        W91423  17.746  42.887   0.309
23061W        W91424  41.869  41.316  14.975
23062W        W91425  20.748  43.905   4.241
23063W        W91426  43.510  10.327   0.343
23064W        W91427  17.241   0.319   0.302
23065W        W91428  29.596   3.944   3.809
23066W        W91429  39.557  25.086  11.055
23067W        W91430  20.114  42.807   2.795
23068W        W91431  17.282  10.284   4.629
23069W        W91432  24.133  26.695   1.423
23070W        W91433  11.666  41.484  12.880
23071W        W91434  22.687  20.647   4.643
23072W        W91435  41.822  31.470   0.818
23073W        W91436  36.985  40.432  13.501
23074W        W91437  40.510  31.445  10.997
23075W        W91438  18.156  19.078   3.304
23076W        W91439  30.647  44.945   5.188
23077W        W91440   1.439  20.209   3.774
23078W        W91441  24.690   8.295   4.733
23079W        W91442  44.806   8.729   0.866
23080W        W91443  37.949  43.999   1.916
23081W        W91444  44.306  10.858   1.449
23082W        W91445  10.820  13.697   1.359
23083W        W91446   6.235  30.551   3.236
23084W        W91447  36.025  33.518  10.934
23085W        W91448  39.993   9.785   4.187
23086W        W91449  44.416   3.257  12.487
23087W        W91450  36.979  20.200  13.897
23088W        W91451  26.613  32.124   3.758
23089W        W91452  39.028  27.614   4.158
23090W        W91453   4.788  19.544   1.907
23091W        W91454  39.917  41.454  13.389
23092W        W91455  41.839   2.857  13.504
23093W        W91456  28.098   4.855  14.837
23094W        W91457  13.131  35.398   0.875
23095W        W91458  18.080   6.751   2.801
23096W        W91459  39.018  20.714  14.857
23097W        W91460  24.595  26.480  11.966
23098W        W91461   7.735  17.258  12.828
23099W        W91462  37.437  42.834  13.897
23100W        W91463   6.902  11.236   4.147
23101W        W91464  21.248  32.526  14.028
23102W        W91465   6.345  22.027  12.851
23103W        W91466  29.976  20.716  14.500
23104W        W91467  43.293  41.338   0.730
23105W        W91468  31.935   2.888  11.376
23106W        W91469   9.332  26.998  11.584
23107W        W91470  22.594  40.029  12.381
23108W        W91471  32.597   8.874   4.759
23109W        W91472  30.147   9.715  11.404
23110W        W91473  35.890   5.792   4.149
23111W        W91474  16.103  43.486   3.231
23112W        W91475   4.854  43.409  11.979
23113W        W91476  10.325  19.111   4.169
23114W        W91477  21.216   9.246   1.710
23115W        W91478  44.292  35.514   9.556
23116W        W91479  14.227  31.537   4.668
23117W        W91480  26.520  40.477   4.729
23118W        W91481  17.720  12.752  10.597
23119W        W91482  15.306  14.646  12.349
23120W        W91483  33.944  39.520  11.870
23121W        W91484  18.652  19.774   4.296
23122W        W91485  40.934  31.538  13.842
23123W        W91486   9.238  41.380  13.909
23124W        W91487  38.827  17.304  10.513
23125W        W91488   6.250  27.600   4.345
23126W        W91489  27.125  25.630  12.081
23127W        W91490  36.471  28.185   2.877
23128W        W91491  31.074  44.495   2.880
23129W        W91492   9.214  16.702  10.966
23130W        W91493   5.251  11.358   0.896
23131W        W91494  34.431  24.616   0.364
23132W        W91495  26.196  31.100  11.575
23133W        W91496   2.801   9.883   2.692
23134W        W91497  26.654  40.309  14.990
23135W        W91498  16.248  24.659   3.229
23136W        W91499   0.408  35.054   4.744
23137W        W91500   3.350  10.222   0.794
23138W        W91501   0.483  23.010  10.563
23139W        W91502  33.515  23.654  13.985
23140W        W91503  13.317  18.123  12.073
23141W        W91504  16.743  13.222   2.825
23142W        W91505  38.066   8.250  10.558
23143W        W91506  11.827  31.086   4.657
23144W        W91507  13.125  43.284   4.728
23145W        W91508  24.017  40.528  10.437
23146W        W91509  32.455  41.809   3.153
23147W        W91510  22.575   0.251   3.671
23148W        W91511  38.928   6.777  12.344
23149W        W91512  23.631  28.172  14.808
23150W        W91513   9.849  14.306   2.192
23151W        W91514  14.099  17.172  13.380
23152W        W91515  37.577  35.397  14.422
23153W        W91516  30.492  16.688   4.285
23154W        W91517  23.205  10.235  12.024
23155W        W91518   3.222  24.134   3.843
23156W        W91519  19.099  13.674  10.978
23157W        W91520  43.829   4.712  14.792
23158W        W91521  30.057   3.767   4.214
23159W        W91522  25.705  21.225   1.713
23160W        W91523  31.581  43.454  11.509
23161W        W91524  25.667  30.056  14.436
23162W        W91525  38.030  39.865   3.369
23163W        W91526  44.946  25.654   2.223
23164W        W91527  11.774  43.878  13.515
23165W        W91528  21.034   5.324   3.281
23166W        W91529  32.512  37.580  10.612
23167W        W91530  30.528  44.992   0.832
23168W        W91531  33.411  25.617  14.936
23169W        W91532  18.548  34.931   0.770
23170W        W91533   3.278  41.295  13.818
23171W        W91534   8.695  18.101   3.220
23172W        W91535  38.467  16.758  14.453
23173W        W91536  40.405   8.277  14.007
23174W        W91537  27.010  15.131  11.929
23175W        W91538  27.058   0.311   1.381
23176W        W91539  33.450   5.204  11.049
23177W        W91540  23.194  24.660   1.414
23178W        W91541  22.066  36.439  11.060
23179W        W91542  39.908  42.284   3.672
23180W        W91543   0.273  38.021   3.186
23181W        W91544   6.794   9.207   1.729
23182W        W91545  38.570  29.003  11.894
23183W        W91546  34.535  17.192  11.090
23184W        W91547  34.381  28.458   1.879
23185W        W91548  19.577  34.425   4.765
23186W        W91549  38.894  44.839   3.344
23187W        W91550   1.405   9.822  11.403
23188W        W91551  30.581  35.537   2.361
23189W        W91552   1.970  35.885  13.372
23190W        W91553   4.238  34.540   0.269
23191W        W91554  20.570  14.678  14.891
23192W        W91555  34.912  20.527  13.993
23193W        W91556  31.068  43.970  14.807
23194W        W91557  30.951   3.217   2.759
23195W        W91558  37.578  25.604  13.547
23196W        W91559   7.314   0.251  12.530
23197W        W91560  32.118  44.839   2.394
23198W        W91561   9.750  21.747   1.290
23199W        W91562  12.677   2.291  11.576
23200W        W91563  23.115   8.310   2.319
23201W        W91564  41.925  38.914  13.930
23202W        W91565  33.130  32.913   4.189
23203W        W91566  27.174   4.854  14.299
23204W        W91567  10.186  41.416  10.915
23205W        W91568  35.577  16.605   0.796
23206W        W91569  10.807   6.274   3.796
23207W        W91570   3.386  38.529   4.606
23208W        W91571  44.280  14.279  12.395
23209W        W91572  39.999  35.598   1.698
23210W        W91573  39.900  12.610  12.464
23211W        W91574  21.202   2.424  14.985
23212W        W91575  30.057  13.670   0.348
23213W        W91576  35.505  11.298   0.916
23214W        W91577  43.770   1.242  12.392
23215W        W91578  15.141  39.436  13.917
23216W        W91579  26.059  19.772   2.246
23217W        W91580  20.177  34.420   0.727
23218W        W91581   8.834  42.897  10.905
23219W        W91582  25.180   2.953   1.771
23220W        W91583  12.262  32.120   0.248
23221W        W91584  34.899   6.330  13.367
23222W        W91585  33.495  16.787   1.335
23223W        W91586  34.528  18.640  14.306
23224W        W91587  37.949  19.049   4.789
23225W        W91588  31.636  19.197  14.969
23226W        W91589  30.947  21.587   1.810
23227W        W91590  14.334  13.764   4.608
23228W        W91591  33.583  22.600  14.306
23229W        W91592  27.030   2.275  12.910
23230W        W91593  31.474  34.916   3.359
23231W        W91594  20.598   1.939  14.900
23232W        W91595  35.864  15.307   2.403
23233W        W91596  25.075  33.620  14.843
23234W        W91597  13.776  19.723   1.277
23235W        W91598   7.250  40.036  13.340
23236W        W91599   5.262  22.683  11.406
23237W        W91600  44.462  27.477   1.268
23238W        W91601  12.835  27.129   0.381
23239W        W91602  34.547  16.194  11.598
23240W        W91603  30.585  16.604  13.903
23241W        W91604   8.684  37.050   2.866
23242W        W91605  28.053  33.421  12.477
23243W        W91606   1.806  29.448   4.172
23244W        W91607   6.823  36.085  11.032
23245W        W91608   3.456  26.458  12.045
23246W        W91609  41.362   3.275   0.813
23247W        W91610   0.369  41.295   2.321
23248W        W91611  41.455   9.659  13.423
23249W        W91612  32.041   4.902  10.088
23250W        W91613  28.091   8.334   0.833
23251W        W91614  17.296   2.305   0.280
23252W        W91615  12.644  21.239   3.350
23253W        W91616  32.439  43.364   0.831
23254W        W91617  23.224  41.912   2.868
23255W        W91618  44.371  41.430  14.957
23256W        W91619  29.658   3.459   2.863
23257W        W91620   0.753  17.161  11.867
23258W        W91621  43.928  26.560   3.745
23259W        W91622   0.962  20.607   1.238
23260W        W91623  41.830   8.702   0.776
23261W        W91624  30.492  39.531   0.936
23262W        W91625   3.266   7.858  10.541
23263W        W91626  35.443  29.145   0.911
23264W        W91627  24.615  24.511   4.694
23265W        W91628  42.426   0.382  10.438
23266W        W91629  26.175   6.682   3.170
23267W        W91630   1.347  38.325  12.875
23268W        W91631   4.737   6.860   1.341
23269W        W91632  25.149  27.966  12.923
23270W        W91633  22.229  11.294   0.359
23271W        W91634  35.413  37.469   4.185
23272W        W91635  23.026  15.599  10.530
23273W        W91636  43.953  13.698  12.517
23274W        W91637  19.145  15.137  10.906
23275W        W91638  37.472   8.267   1.856
23276W        W91639  26.703  36.026   4.162
23277W        W91640  40.533  37.927  10.435
23278W        W91641  36.544   6.338  13.532
23279W        W91642  39.441  36.450  14.295
23280W        W91643  17.678  40.400  13.933
23281W        W91644  23.726  12.796  14.275
23282W        W91645  40.427  36.943   2.776
23283W        W91646  24.175   3.320   2.694
23284W        W91647   3.820  13.684   1.447
23285W        W91648   9.326   6.245   2.795
23286W        W91649   9.285  35.388  14.277
23287W        W91650  43.954  38.404   9.573
23288W        W91651  42.783  32.082   4.776
23289W        W91652  11.280  11.675   3.191
23290W        W91653  17.688  34.061  11.553
23291W        W91654  38.332  19.110  11.533
23292W        W91655  41.022  15.085   1.348
23293W        W91656  24.600  19.576   2.789
23294W        W91657  24.176  15.675  14.888
23295W        W91658  25.617  19.234   0.936
23296W        W91659   5.307  17.710   0.471
23297W        W91660  31.109  25.551   4.825
23298W        W91661  30.429   0.744   2.702
23299W        W91662   5.759   9.196   3.826
23300W        W91663  27.656   9.336  11.032
23301W        W91664  13.124  31.140  14.809
23302W        W91665  26.664  32.909  11.603
23303W        W91666  15.681  28.612   2.265
23304W        W91667  41.810  35.994  12.863
23305W        W91668  42.452  41.851   1.802
23306W        W91669  25.653  40.473  12.005
23307W        W91670  25.658  12.182   4.295
23308W        W91671  19.185  29.447   3.797
23309W        W91672  30.555  40.961  10.990
23310W        W91673  37.086   5.823   0.947
23311W        W91674  25.646  39.388   0.850
23312W        W91675  36.571  41.035   3.772
23313W        W91676  23.719   8.307  12.383
23314W        W91677  29.085  22.631   1.371
23315W        W91678   0.895  31.579   1.251
23316W        W91679  42.308  37.949  13.508
23317W        W91680  20.109  11.784   3.869
23318W        W91681   7.178  44.773   1.783
23319W        W91682  42.804  18.566   3.709
23320W        W91683  15.622  44.947   0.897
23321W        W91684  21.683  10.334  14.916
23322W        W91685  23.091  30.076  10.643
23323W        W91686   7.318  22.026   4.603
23324W        W91687   7.895  37.025   0.791
23325W        W91688  13.276  40.500   1.888
23326W        W91689   6.203   9.305  14.829
23327W        W91690  17.787  28.601   4.352
23328W        W91691  39.860  16.260   4.730
23329W        W91692  13.650  36.941  11.440
23330W        W91693  15.617  10.271  13.840
23331W        W91694  44.370  40.942   0.478
23332W        W91695  22.239   5.785  14.000
23333W        W91696  12.666  10.723   0.343
23334W        W91697  30.965  32.004   3.333
23335W        W91698  21.717  21.088  12.834
23336W        W91699  11.314  17.559   4.199
23337W        W91700  31.646  16.787  11.373
23338W        W91701  41.935  10.156   3.846
23339W        W91702  14.810  13.213   0.482
23340W        W91703  34.088  20.571  10.418
23341W        W91704  39.902  16.310   0.775
23342W        W91705  44.848  34.402  14.992
23343W        W91706  11.325   5.268   2.264
23344W        W91707  41.997  26.481   1.701
23345W        W91708  24.197   9.339   4.692
23346W        W91709  11.289   7.713   0.934
23347W        W91710  31.962  26.512  10.414
23348W        W91711  32.077  30.009  13.316
23349W        W91712  21.167  41.490   1.353
23350W        W91713   9.802  35.999   4.755
23351W        W91714  18.273  27.037   3.668
23352W        W91715  10.645  38.912   4.806
23353W        W91716  33.400  13.758   1.843
23354W        W91717  44.418  35.390  14.348
23355W        W91718  13.225  24.507  13.937
23356W        W91719  15.163  41.982  12.027
23357W        W91720  18.634  25.554  13.054
23358W        W91721  17.652  32.893   0.376
23359W        W91722  11.358   0.772  10.949
23360W        W91723  25.177  42.030  14.302
23361W        W91724  34.075  38.473  11.391
23362W        W91725  36.358  12.674  11.380
23363W        W91726  34.972  42.378  11.400
23364W        W91727  15.317  35.573   4.703
23365W        W91728  11.681  31.545  13.804
23366W        W91729  32.490  12.202   1.283
23367W        W91730  17.171  22.207   3.254
23368W        W91731  23.175  19.687  13.891
23369W        W91732   2.424   5.771  14.924
23370W        W91733  37.415  36.385   4.325
23371W        W91734  32.021   5.830  13.872
23372W        W91735  24.490   4.797   3.659
23373W        W91736   6.741  14.169  11.601
23374W        W91737   3.740  27.489   0.441
23375W        W91738  35.428  39.837  11.398
23376W        W91739  19.100  44.928   3.780
23377W        W91740  26.001  41.386   1.872
23378W        W91741  15.101  36.915  11.468
23379W        W91742  12.729  28.512  14.316
23380W        W91743  22.535  42.971  10.541
23381W        W91744  36.452  22.687  14.013
23382W        W91745  32.895   5.879  11.891
23383W        W91746  32.513  41.429  11.863
23384W        W91747  22.118  33.944   0.749
23385W        W91748  24.701  26.637   4.730
23386W        W91749  39.494  33.604  10.483
23387W        W91750  32.087   9.225   1.731
23388W        W91751  29.137  30.477   3.319
23389W        W91752  21.167  13.195   1.917
23390W        W91753  23.515  30.607   4.287
23391W        W91754  16.706   7.763   1.905
23392W        W91755  11.640  41.435   0.806
23393W        W91756  18.155  33.414   4.242
23394W        W91757  28.528   9.277   0.341
23395W        W91758  41.347  24.029  13.825
23396W        W91759   7.720   3.414  10.102
23397W        W91760  23.514  19.628   3.649
23398W        W91761  13.800  16.715   4.125
23399W        W91762  38.952  20.224  14.873
23400W        W91763  31.601  20.567  14.464
23401W        W91764  20.592  28.008  10.562
23402W        W91765  26.636  20.731  11.420
23403W        W91766   9.832  37.542  14.457
23404W        W91767  27.161   6.400   3.303
23405W        W91768  30.591  43.930  12.546
23406W        W91769  39.919  21.061   1.841
23407W        W91770  10.232  35.980  14.906
23408W        W91771  41.437   9.655   2.287
23409W        W91772  40.944   8.883  10.629
23410W        W91773  12.341   5.819   4.772
23411W        W91774  20.245  37.362  12.564
23412W        W91775  11.816  41.332  13.471
23413W        W91776   3.363  40.007  12.060
23414W        W91777  24.667   0.813   2.268
23415W        W91778  20.762   2.779   4.223
23416W        W91779   4.825  24.486  12.485
23417W        W91780  25.115  41.799   4.660
23418W        W91781   4.277  35.968  13.808
23419W        W91782  38.426  36.986  12.041
23420W        W91783  34.064  23.647   1.835
23421W        W91784  39.993  34.372   3.803
23422W        W91785  25.150   2.427   1.750
23423W        W91786  22.517  31.554   3.205
23424W        W91787  40.930  17.286   0.341
23425W        W91788  30.963  19.572  14.961
23426W        W91789   9.748   1.436  11.882
23427W        W91790  42.986  38.823  14.002
23428W        W91791  13.273   5.221   0.789
23429W        W91792   1.269  42.385   0.328
23430W        W91793  26.573  15.177   1.911
23431W        W91794  28.104  23.082  14.845
23432W        W91795  18.689  44.436  14.980
23433W        W91796   8.272   7.741  11.125
23434W        W91797  43.981  40.346  12.857
23435W        W91798  25.150  44.880  13.996
23436W        W91799  29.063  44.767  13.927
23437W        W91800  19.662  15.217   2.902
23438W        W91801   0.440  16.202   3.764
23439W        W91802   6.424  13.115  13.451
23440W        W91803  11.304  44.473  11.556
23441W        W91804   5.210  24.083  12.063
23442W        W91805  31.069  27.112  12.515
23443W        W91806  11.749  39.048   1.450
23444W        W91807  41.924  39.424  13.382
23445W        W91808  21.247  12.139   2.407
23446W        W91809  41.814   5.845   0.478
23447W        W91810  16.631  28.053  11.015
23448W        W91811  12.644   4.943   1.705
23449W        W91812  34.513   1.452   5.674
23450W        W91813  19.233  23.611   3.761
23451W        W91814  37.865   6.426   1.704
23452W        W91815  14.123  16.223  14.791
23453W        W91816  27.532  32.514   3.254
23454W        W91817   9.689  40.972  13.950
23455W        W91818  26.100   6.340   0.413
23456W        W91819  31.490   0.911  11.556
23457W        W91820   2.277  25.559   5.631
23458W        W91821  21.689  14.751   2.337
23459W        W91822  23.026  13.728  14.501
23460W        W91823   8.396   4.301  13.374
23461W        W91824   3.882  12.691  10.558
23462W        W91825   1.357  12.296  12.469
23463W        W91826  34.567  20.728   1.922
23464W        W91827  10.670   3.216   2.811
23465W        W91828   1.399   9.889   2.783
23466W        W91829   8.187  12.120  10.890
23467W        W91830  44.795  38.069  14.301
23468W        W91831  21.200  10.380   2.786
23469W        W91832  23.655  34.458  12.892
23470W        W91833  14.271  27.659  13.941
23471W        W91834  39.898  26.010  11.440
23472W        W91835  22.139  12.161   3.352
23473W        W91836   2.927  37.893  13.450
23474W        W91837   8.210  22.726   3.204
23475W        W91838  30.977  35.444   4.714
23476W        W91839  42.992   5.757   0.410
23477W        W91840   6.399  37.479   3.740
23478W        W91841  44.991   4.446   0.310
23479W        W91842  32.565  26.658   4.250
23480W        W91843  39.412  13.118  14.803
23481W        W91844   6.281   2.242  11.484
23482W        W91845   0.980  34.906  10.524
23483W        W91846  29.428  29.136  10.408
23484W        W91847   9.761  24.055   4.619
23485W        W91848  24.041   7.402   0.928
23486W        W91849  20.716  10.668  11.410
23487W        W91850   0.819  26.579   3.380
23488W        W91851   8.225  18.232   0.901
23489W        W91852  44.388  28.579  13.815
23490W        W91853   1.431  25.178  11.410
23491W        W91854   9.215  27.980   0.963
23492W        W91855  41.413   1.432   0.432
23493W        W91856  40.324  39.329   2.800
23494W        W91857  14.655  28.540  13.347
23495W        W91858  31.558  28.520  13.957
23496W        W91859  15.276   6.237  13.541
23497W        W91860  32.427  19.623   2.339
23498W        W91861  28.046  21.130   4.237
23499W        W91862  28.938  35.060   4.213
23500W        W91863   9.847  19.704  13.488
23501W        W91864  27.944  17.797   0.839
23502W        W91865  10.160  44.939   0.749
23503W        W91866  36.573  22.568  11.004
23504W        W91867  20.237   4.732  10.030
23505W        W91868  12.781  13.611   2.738
23506W        W91869  29.502  32.928   0.252
23507W        W91870  23.148  41.807   4.648
23508W        W91871  26.109  19.214  14.884
23509W        W91872   7.304   6.718  14.985
23510W        W91873   4.712  33.911   2.211
23511W        W91874  24.033  29.613  10.954
23512W        W91875  37.015  32.612   1.392
23513W        W91876   0.488  23.088  13.056
23514W        W91877  43.325  27.942   2.848
23515W        W91878   7.237  34.918  14.786
23516W        W91879  31.618  37.028  14.503
23517W        W91880   5.295  13.159  13.542
23518W        W91881  28.116   3.872  14.326
23519W        W91882  21.115  38.888  11.878
23520W        W91883  18.228  17.699  10.566
23521W        W91884  15.293   2.740   2.414
23522W        W91885   8.843  17.627  12.876
23523W        W91886   9.368  25.053   1.842
23524W        W91887  13.349  41.387  10.435
23525W        W91888  26.112  36.368  13.901
23526W        W91889  14.232  26.161  13.371
23527W        W91890  25.104  35.005   5.261
23528W        W91891  13.643  34.396  11.028
23529W        W91892  41.487  23.554  13.447
23530W        W91893  42.858  14.251  11.530
23531W        W91894   8.899  43.776  10.550
23532W        W91895   3.951  30.486   1.224
23533W        W91896  19.762  16.185  13.820
23534W        W91897  18.062  22.020  13.395
23535W        W91898  39.025  19.654  14.942
23536W        W91899  20.547  12.612  10.544
23537W        W91900  12.270  34.024   0.395
23538W        W91901  17.746  42.423  12.457
23539W        W91902  22.075   2.726   3.304
23540W        W91903  16.617  29.171   0.863
23541W        W91904  20.536  35.059  11.989
23542W        W91905   0.471  20.267  14.785
23543W        W91906  44.006  23.554   1.786
23544W        W91907  43.875   9.715   0.327
23545W        W91908  29.971  12.208   2.337
23546W        W91909  19.050  38.434  14.794
23547W        W91910  25.515   4.221   1.895
23548W        W91911  23.622  36.431   3.693
23549W        W91912  29.149   8.330  10.477
23550W        W91913  37.010  14.333  11.894
23551W        W91914  39.942  17.711  11.936
23552W        W91915  34.079  14.199  12.512
23553W        W91916  15.318  25.124  13.824
23554W        W91917  31.432  33.532   1.810
23555W        W91918  29.467   4.207  13.440
23556W        W91919  22.118  24.720   0.253
23557W        W91920  30.439  43.911   2.343
23558W        W91921  28.615  37.457  10.548
23559W        W91922  41.390  17.212   4.648
23560W        W91923   5.232  40.530  12.429
23561W        W91924  14.290  39.474   3.303
23562W        W91925  18.280  42.382   3.168
23563W        W91926  29.017  12.680   1.403
23564W        W91927  19.616   1.963  13.980
23565W        W91928  26.143  10.810  10.493
23566W        W91929  28.480  17.120   2.761
23567W        W91930  13.210  20.141  14.482
23568W        W91931  29.121  37.414   2.353
23569W        W91932  18.753   7.411   3.818
23570W        W91933   6.287  42.399  14.401
23571W        W91934  43.515  44.933   2.399
23572W        W91935  19.584  30.523   4.134
23573W        W91936   4.775  23.632  12.494
23574W        W91937   4.828   3.234  10.432
23575W        W91938  28.516  30.609  12.575
23576W        W91939  10.836  35.472   4.131
23577W        W91940   3.374  33.039  11.556
23578W        W91941  39.355  24.035   3.709
23579W        W91942  12.654  31.906   2.328
23580W        W91943   3.415  21.533  11.489
23581W        W91944  39.884  27.127   3.725
23582W        W91945  18.624   5.430   1.801
23583W        W91946   5.298  41.991  10.923
23584W        W91947  29.550  32.103  11.424
23585W        W91948   7.367  18.569   0.354
23586W        W91949  18.288  19.780  10.984
23587W        W91950  12.704   0.905   3.769
23588W        W91951  14.243  22.066  10.497
23589W        W91952  35.093  38.370   3.843
23590W        W91953  18.208  26.502   0.837
23591W        W91954  29.536  19.535   0.962
23592W        W91955  30.972   2.777   3.860
23593W        W91956  28.983  37.528   3.816
23594W        W91957  23.213   4.899  11.911
23595W        W91958  44.895  34.598  12.538
23596W        W91959  12.277  10.226  11.027
23597W        W91960  20.170  27.575   1.370
23598W        W91961  44.888  13.232  10.579
23599W        W91962  13.704  23.080  13.313
23600W        W91963  38.457  34.550  13.809
23601W        W91964  44.468  22.622  10.978
23602W        W91965   8.227  12.299  14.353
23603W        W91966  20.670  20.100   0.823
23604W        W91967  10.733  26.463  13.454
23605W        W91968  23.105  16.101   0.923
23606W        W91969  12.125   7.824  11.409
23607W        W91970  28.115  41.941   0.811
23608W        W91971  15.632  23.000   4.662
23609W        W91972  39.895  19.157  12.989
23610W        W91973  35.451  21.233   5.159
23611W        W91974  33.016  25.126  10.408
23612W        W91975  17.096   8.823  11.470
23613W        W91976  35.380  42.527   3.335
23614W        W91977   4.218  35.053   3.348
23615W        W91978  15.626  15.258  13.984
23616W        W91979   5.340   6.699   0.411
23617W        W91980  21.528   9.345   0.956
23618W        W91981   8.884   8.305  12.881
23619W        W91982   6.837  16.187   0.967
23620W        W91983  25.167   4.719  14.984
23621W        W91984  23.630  36.375  11.898
23622W        W91985  31.586  31.645  11.111
23623W        W91986  19.621  21.226   3.821
23624W        W91987   9.271   7.356   2.696
23625W        W91988  41.398  11.316  14.758
23626W        W91989   1.327   2.284   1.775
23627W        W91990  12.732   1.922  12.544
23628W        W91991   0.840  21.042   2.726
23629W        W91992  38.544  37.482   3.636
23630W        W91993  29.029   2.823   1.356
23631W        W91994  39.381  21.142   0.257
23632W        W91995  27.050  21.046   4.722
23633W        W91996  36.435  41.524   5.117
23634W        W91997  19.727  35.431   3.256
23635W        W91998  42.835  41.972   4.619
23636W        W91999  16.684  21.729  14.940
23637W        W92000   8.169  38.891   3.815
23638W        W92001  28.940   2.273  13.447
23639W        W92002  11.655  43.790  10.893
23640W        W92003  25.473   2.347   1.389
23641W        W92004   8.306  36.583  13.965
23642W        W92005  40.932  18.100  14.449
23643W        W92006   6.798  20.668  12.394
23644W        W92007   0.924   0.949   2.179
23645W        W92008  44.845   0.451   3.169
23646W        W92009  31.929  22.014  13.400
23647W        W92010  34.099  21.229  11.426
23648W        W92011   3.806   6.794  11.393
23649W        W92012  14.150   3.944   0.840
23650W        W92013  31.410   5.786  11.456
23651W        W92014  33.003  36.841   2.415
23652W        W92015  40.883   2.324   1.928
23653W        W92016  16.732  32.433   4.206
23654W        W92017  16.180  35.011  13.822
23655W        W92018   3.232  19.626  11.861
23656W        W92019  29.089   5.199  13.488
23657W        W92020  13.703  12.612   1.843
23658W        W92021  35.381  32.576  14.021
23659W        W92022   9.812  23.697   2.892
23660W        W92023  42.511  10.716  14.977
23661W        W92024  37.960  24.214   2.272
23662W        W92025  35.030  15.278   3.303
23663W        W92026   6.715   0.298   2.182
23664W        W92027  18.702  22.557   2.302
23665W        W92028   0.467  31.118   0.822
23666W        W92029  19.662  33.430   2.762
23667W        W92030  35.892  24.976  11.539
23668W        W92031   6.725  17.170   3.352
23669W        W92032  16.088  34.493   2.383
23670W        W92033  18.224  43.337  14.843
23671W        W92034   8.720  30.045   1.337
23672W        W92035  34.868  27.141   2.383
23673W        W92036  30.128  11.164   2.283
23674W        W92037   1.830   2.741   0.814
23675W        W92038  39.967   4.864   1.220
23676W        W92039   7.274  33.083   4.257
23677W        W92040  35.064  35.086  11.894
23678W        W92041  21.179  30.051  12.532
23679W        W92042  19.188  44.427  11.376
23680W        W92043  12.696  41.454  11.916
23681W        W92044   4.229   0.285  14.382
23682W        W92045  37.073   1.462  12.867
23683W        W92046  13.113  38.563   3.253
23684W        W92047  10.813  39.955   3.211
23685W        W92048   1.367  19.595  10.964
23686W        W92049  25.018  24.522   0.926
23687W        W92050  17.174  37.375   2.185
23688W        W92051  11.367  13.702  13.485
23689W        W92052  29.656   3.944  10.903
23690W        W92053  24.648  15.703  11.471
23691W        W92054  35.590  35.885  13.328
23692W        W92055  10.676  28.135  10.938
23693W        W92056   1.933  13.248  12.536
23694W        W92057  36.962   1.280  10.418
23695W        W92058   9.834  21.161   0.766
23696W        W92059  13.128  26.535  14.379
23697W        W92060  23.999  10.706  10.513
23698W        W92061  41.898  35.463   4.723
23699W        W92062  21.567  35.480  13.468
23700W        W92063  38.071  31.928   1.909
23701W        W92064   7.903  14.273   3.700
23702W        W92065  15.701   6.331   9.627
23703W        W92066   5.278  16.761  12.068
23704W        W92067  41.434  17.159  10.578
23705W        W92068   6.419   1.389   2.823
23706W        W92069  32.408  30.462   0.391
23707W        W92070  28.496  40.016  14.314
23708W        W92071  26.479  36.529  12.504
23709W        W92072  17.268   2.937  14.424
23710W        W92073  43.991  15.721   2.326
23711W        W92074  19.184  39.902  11.545
23712W        W92075  38.430  43.277  13.338
23713W        W92076  32.982  43.344  11.906
23714W        W92077  14.667  10.331   3.817
23715W        W92078   4.441  19.081  11.373
23716W        W92079  16.578  39.917  13.523
23717W        W92080   3.444   2.324  14.928
23718W        W92081   3.247  33.075   1.323
23719W        W92082  40.403   9.821  13.978
23720W        W92083  33.955  21.094  13.399
23721W        W92084  33.123  38.065  11.968
23722W        W92085  30.032  29.595   4.746
23723W        W92086  31.955  27.513   4.615
23724W        W92087  20.653  28.584  13.480
23725W        W92088  18.234  33.933   0.288
23726W        W92089  42.978   5.858   2.704
23727W        W92090  24.661  19.640  12.458
23728W        W92091  43.423   0.870   3.661
23729W        W92092   6.245  37.471   5.091
23730W        W92093   9.168   6.722  14.282
23731W        W92094  18.119  27.965  10.562
23732W        W92095  41.430  13.810   4.751
23733W        W92096  41.936  31.492  11.449
23734W        W92097  31.917   8.888  14.976
23735W        W92098  17.656  16.110   0.800
23736W        W92099  39.042  38.524   4.607
23737W        W92100   7.799   0.742   4.272
23738W        W92101  35.397  30.076   2.324
23739W        W92102  13.715  14.737  12.553
23740W        W92103  15.756  40.039  11.489
23741W        W92104  14.163  35.009  10.425
23742W        W92105  24.677   0.343   0.366
23743W        W92106  23.168  41.534   1.350
23744W        W92107  16.087  31.535  13.474
23745W        W92108  14.757  19.277  11.460
23746W        W92109   3.758  22.627  14.374
23747W        W92110  17.724  26.595   0.320
23748W        W92111  33.968   0.931  14.494
23749W        W92112  14.308  25.633  11.079
23750W        W92113  38.025  24.095  10.996
23751W        W92114  22.588  42.325   0.800
23752W        W92115  21.117  18.590   4.600
23753W        W92116   3.843  42.483  14.510
23754W        W92117  38.046  26.130  12.574
23755W        W92118  44.339   1.236  11.007
23756W        W92119  24.166   1.349  13.840
23757W        W92120  43.359  24.686   2.745
23758W        W92121  29.430  22.116   2.409
23759W        W92122   7.355  25.015  12.025
23760W        W92123   3.416  25.519  12.353
23761W        W92124   0.450  44.336   2.287
23762W        W92125   6.260  27.941   1.869
23763W        W92126  35.448  23.171   3.656
23764W        W92127  26.546  43.863   1.911
23765W        W92128  38.517   7.748  12.061
23766W        W92129  30.073  34.590  11.963
23767W        W92130  42.496  14.712  10.560
23768W        W92131   2.795  27.449   0.925
23769W        W92132  32.590   4.228   2.879
23770W        W92133  29.552  26.634   4.201
23771W        W92134  35.453  37.958   3.296
23772W        W92135  14.266  23.680  13.382
23773W        W92136  15.118  44.359  12.425
23774W        W92137  10.645   9.717  11.385
23775W        W92138  30.993   8.861   5.109
23776W        W92139  24.093  40.322   1.341
23777W        W92140   9.659   7.858  13.508
23778W        W92141  18.200   8.210  14.400
23779W        W92142  37.386  31.128  13.878
23780W        W92143   4.283  21.566  12.929
23781W        W92144  19.089  39.453  12.015
23782W        W92145  15.788   1.442   4.656
23783W        W92146  18.705  30.551  11.885
23784W        W92147  19.040  32.929   1.230
23785W        W92148  40.480  21.539  12.449
23786W        W92149  44.375  30.569  11.565
23787W        W92150   7.810  11.319   3.172
23788W        W92151  39.008  25.517  12.545
23789W        W92152   4.919  10.220   0.435
23790W        W92153  20.082  31.486  10.518
23791W        W92154  36.844  37.954   2.713
23792W        W92155   6.821  12.123  14.831
23793W        W92156  37.382  36.571   3.197
23794W        W92157  24.571  39.019  13.017
23795W        W92158   1.949  35.366  14.940
23796W        W92159  39.530  35.002  10.615
23797W        W92160  29.049  32.988   4.802
23798W        W92161  14.115  22.157   4.264
23799W        W92162  32.042  30.056   2.728
23800W        W92163  16.759  33.524   3.653
23801W        W92164   2.733  18.145  14.788
23802W        W92165  20.190  27.466   3.160
23803W        W92166  33.067   7.174   4.824
23804W        W92167  44.879  11.824   0.429
23805W        W92168  12.175  36.581  13.488
23806W        W92169  26.017  31.495  12.407
23807W        W92170   1.913  13.228   2.767
23808W        W92171  27.613  35.994  11.976
23809W        W92172  26.106  21.633  11.941
23810W        W92173  31.519   7.678  11.989
23811W        W92174  36.056   9.325   2.673
23812W        W92175  12.798  27.625   4.289
23813W        W92176  29.535  21.098  14.776
23814W        W92177   5.851  43.348   2.690
23815W        W92178  33.443  26.491  13.849
23816W        W92179  30.414  11.728   0.965
23817W        W92180  12.748   1.350  14.515
23818W        W92181  35.870  27.538   4.179
23819W        W92182  30.962  39.902   1.785
23820W        W92183   8.295  34.461  11.009
23821W        W92184  43.465  24.570   1.335
23822W        W92185  39.027  20.528   1.275
23823W        W92186  35.945  44.988   0.356
23824W        W92187  37.029  17.716  11.960
23825W        W92188  17.688  10.655   3.719
23826W        W92189   8.862  39.998   2.766
23827W        W92190   4.359  23.698  12.506
23828W        W92191  10.639  22.110  12.063
23829W        W92192  42.011  33.555  14.814
23830W        W92193  28.982  23.140   0.425
23831W        W92194  38.890  14.823  12.504
23832W        W92195   0.390   5.250  12.042
23833W        W92196  25.178   7.753  11.612
23834W        W92197   3.398  29.974   3.780
23835W        W92198  34.537  28.532   0.395
23836W        W92199   5.284  22.694  10.138
23837W        W92200  21.551  19.240  14.004
23838W        W92201  24.167  10.764   1.269
23839W        W92202   4.447   4.846   3.275
23840W        W92203  15.610  32.106   3.839
23841W        W92204  43.327   4.259   2.374
23842W        W92205  26.660  29.607   4.290
23843W        W92206  25.576  29.034   4.805
23844W        W92207  18.133   5.793   2.779
23845W        W92208  20.044  17.578   2.197
23846W        W92209   7.326  41.870  11.968
23847W        W92210   7.399  23.109   4.638
23848W        W92211   3.714   0.950   2.770
23849W        W92212   7.682  18.135   3.751
23850W        W92213  22.224  19.725   2.766
23851W        W92214  34.382  40.454  10.563
23852W        W92215  20.091   0.978  11.441
23853W        W92216  23.561  20.149   2.772
23854W        W92217   4.819  21.719  14.992
23855W        W92218  36.070  14.300   4.827
23856W        W92219  31.939  13.733   0.871
23857W        W92220  16.077  12.308   4.332
23858W        W92221  37.906   9.807   2.296
23859W        W92222  43.850  43.010   2.331
23860W        W92223   2.301   7.845  13.410
23861W        W92224  27.666   3.367   2.877
23862W        W92225   2.829  16.653   1.699
23863W        W92226  10.719   2.391  10.506
23864W        W92227  19.538   9.262  13.520
23865W        W92228  30.493  17.081  12.410
23866W        W92229  16.705  44.400  13.993
23867W        W92230  44.914  11.754   4.328
23868W        W92231  12.286  16.717  12.439
23869W        W92232  44.366  36.094   2.307
23870W        W92233  12.266  24.020  12.893
23871W        W92234   0.895  15.800   0.754
23872W        W92235   0.414  23.497   3.818
23873W        W92236   3.946  17.683  11.038
23874W        W92237   6.192  37.068  14.824
23875W        W92238  10.225  21.569  13.969
23876W        W92239  15.251  10.825  12.435
23877W        W92240  37.456  42.865   4.776
23878W        W92241  15.176  44.450   4.143
23879W        W92242  15.750  33.487   0.466
23880W        W92243  14.122   0.983   3.148
23881W        W92244  24.187  37.499  12.396
23882W        W92245  23.237   3.225   4.705
23883W        W92246  40.924  29.153  11.887
23884W        W92247  37.393  29.955  14.498
23885W        W92248  20.031  44.395  14.315
23886W        W92249  25.145   2.329  12.540
23887W        W92250   2.865  39.496   2.702
23888W        W92251  38.058   4.246   0.443
23889W        W92252  42.830  19.598   0.298
23890W        W92253  15.596  35.088  13.494
23891W        W92254  14.103  19.191  13.535
23892W        W92255  21.147   8.690   3.735
23893W        W92256  25.547  44.372   1.709
23894W        W92257  27.047   6.240  14.449
23895W        W92258  15.734   1.277   2.280
23896W        W92259   2.792   7.396   2.852
23897W        W92260  12.763  33.399   3.311
23898W        W92261  24.075  30.468   1.289
23899W        W92262  28.000  36.072  10.067
23900W        W92263  32.452   7.821   4.769
23901W        W92264   6.787  39.495  11.060
23902W        W92265  19.152  39.368  14.991
23903W        W92266  40.474  43.834   1.398
23904W        W92267   5.806  19.279  11.599
23905W        W92268  22.644  10.761  12.389
23906W        W92269  12.187  15.238   2.233
23907W        W92270  21.670  34.924   0.398
23908W        W92271  32.122  11.858  13.925
23909W        W92272  34.589  22.730   1.749
23910W        W92273  10.353  25.602  10.518
23911W        W92274  32.921  23.535  12.446
23912W        W92275  40.863   1.245   4.702
23913W        W92276  24.037  25.997  10.987
23914W        W92277  27.989  26.955  11.499
23915W        W92278  35.918   5.336  13.482
23916W        W92279  12.293  26.132  14.418
23917W        W92280   6.258  21.191   3.180
23918W        W92281  25.573  43.323   3.148
23919W        W92282   3.904  15.771   0.332
23920W        W92283  42.448  15.166   3.340
23921W        W92284  17.136  42.904   0.853
23922W        W92285  12.317  25.128  11.566
23923W        W92286  36.002  32.975   0.300
23924W        W92287  23.009   4.781   2.370
23925W        W92288  17.614  21.171  11.599
23926W        W92289  41.325  32.136   3.357
23927W        W92290  31.061  37.874   4.350
23928W        W92291  16.279  12.247   0.795
23929W        W92292  33.481  38.923   1.286
23930W        W92293  42.474  10.266  10.982
23931W        W92294   2.940   0.762   0.383
23932W        W92295  40.949  43.414  13.367
23933W        W92296  14.217  38.423  14.480
23934W        W92297  24.043  17.222   4.230
23935W        W92298  43.491  38.457  13.821
23936W        W92299  42.882  28.020  11.919
23937W        W92300   3.396  40.307  13.415
23938W        W92301  16.289  14.732  14.487
23939W        W92302  21.722  33.509   1.390
23940W        W92303  21.691  44.000   2.901
23941W        W92304  28.979  11.813  11.589
23942W        W92305  41.534  25.570   4.174
23943W        W92306  12.669  44.445  13.018
23944W        W92307   4.727  18.683   4.248
23945W        W92308   3.216   3.898   1.708
23946W        W92309   8.661  25.164   3.744
23947W        W92310  36.007  12.687  12.951
23948W        W92311   0.964  39.332   2.789
23949W        W92312   4.881  14.297   2.237
23950W        W92313  21.249  36.868  11.900
23951W        W92314  33.995  31.612  13.369
23952W        W92315   2.962   4.839  14.444
23953W        W92316  33.512  14.767   2.391
23954W        W92317   0.258   2.798  14.005
23955W        W92318   7.203  35.500   4.816
23956W        W92319  21.593   4.268   0.326
23957W        W92320   9.223  36.067  10.061
23958W        W92321  13.131  34.096  12.576
23959W        W92322  21.237  11.649  11.104
23960W        W92323  41.435   8.854  14.841
23961W        W92324   0.973   8.665   2.746
23962W        W92325  31.100  19.674  12.888
23963W        W92326  23.137  33.546   4.291
23964W        W92327   4.840  29.059  14.275
23965W        W92328  15.710  36.430   4.839
23966W        W92329  42.824  32.576   2.864
23967W        W92330  17.262  25.660   3.824
23968W        W92331  30.534  36.925  11.005
23969W        W92332  18.068  28.473   2.718
23970W        W92333   1.254   3.789  10.417
23971W        W92334  34.480  32.951  12.096
23972W        W92335  31.014  36.360   0.261
23973W        W92336   8.245  13.786   2.397
23974W        W92337  29.430   8.298  10.986
23975W        W92338  32.595  12.319   4.764
23976W        W92339   7.198  18.197  14.022
23977W        W92340  10.878   9.646   0.894
23978W        W92341  37.556  13.843  14.501
23979W        W92342  41.018   8.276  10.996
23980W        W92343  15.617  34.573   3.790
23981W        W92344  27.964  31.524   2.253
23982W        W92345  16.665  40.892   4.126
23983W        W92346  25.546  19.668  13.880
23984W        W92347  18.702  22.744  10.009
23985W        W92348  32.949   6.359  14.936
23986W        W92349  22.011  23.087   0.426
23987W        W92350  29.645   9.826   3.758
23988W        W92351   2.824   4.237   3.221
23989W        W92352  43.278  38.940  10.900
23990W        W92353  22.512  21.732  14.348
23991W        W92354   2.846  14.137  14.978
23992W        W92355  17.083  29.599  14.969
23993W        W92356  42.448  22.152  12.435
23994W        W92357  19.167   9.702   0.281
23995W        W92358  12.610  25.481  11.995
23996W        W92359  40.917   9.848  14.922
23997W        W92360  22.228  28.149  11.007
23998W        W92361  34.881   2.912  11.075
23999W        W92362  25.021  14.817   5.213
24000W        W92363  29.117  15.777   3.165
24001W        W92364  13.333  23.550  13.819
24002W        W92365   0.876  12.749   2.229
24003W        W92366   9.839  22.011   1.237
24004W        W92367  24.122  23.150   0.360
24005W        W92368   3.762  32.903   1.277
24006W        W92369   9.190  11.751  11.611
24007W        W92370   0.421   3.941  12.571
24008W        W92371  23.668  44.460   0.287
24009W        W92372   8.187  10.332   0.963
24010W        W92373  22.589  38.543   0.792
24011W        W92374  42.928  26.657  12.911
24012W        W92375  42.513  10.852  11.910
24013W        W92376  42.972  31.570  14.858
24014W        W92377  20.618  33.970   2.298
24015W        W92378  15.100  41.426   2.192
24016W        W92379  11.633   4.903  12.925
24017W        W92380  28.141  11.355  12.076
24018W        W92381  26.101  44.406  10.482
24019W        W92382  33.886  27.176   2.381
24020W        W92383  42.984  36.014   3.278
24021W        W92384  15.092  16.275   5.290
24022W        W92385  35.484   6.357   3.690
24023W        W92386  37.847  11.658  14.424
24024W        W92387  42.512   0.828  10.981
24025W        W92388  16.176  26.156   2.834
24026W        W92389   4.839  27.481   3.184
24027W        W92390  16.593  32.065  14.995
24028W        W92391  14.617  17.617  13.388
24029W        W92392  10.662  32.028   0.344
24030W        W92393  24.559  20.193   0.902
24031W        W92394  40.888   2.358  14.860
24032W        W92395  41.939  16.723  11.457
24033W        W92396  38.076   1.745   3.756
24034W        W92397  26.953  15.622  12.514
24035W        W92398  23.190   2.818  13.042
24036W        W92399  32.527  29.559   9.675
24037W        W92400  16.305   1.928   3.310
24038W        W92401  38.394  15.154   0.949
24039W        W92402   0.326   2.942   3.263
24040W        W92403  13.336  29.074   4.652
24041W        W92404  10.686  37.518   0.331
24042W        W92405  25.992  24.187   1.777
24043W        W92406   4.293  37.898  10.583
24044W        W92407  22.724  13.146  12.049
24045W        W92408  38.039  35.411   3.176
24046W        W92409  14.693   3.736   4.282
24047W        W92410  27.537  13.824   5.676
24048W        W92411   3.293   0.794  12.956
24049W        W92412   2.348   7.854   3.330
24050W        W92413  34.390   3.777  14.821
24051W        W92414  20.100   4.445  12.906
24052W        W92415   0.379  10.685   4.704
24053W        W92416   5.789  25.532  10.507
24054W        W92417  28.140  37.087   4.746
24055W        W92418   7.887  27.508  11.942
24056W        W92419  11.730   8.780  14.437
24057W        W92420  27.096  13.674   5.092
24058W        W92421  14.833  28.958   0.850
24059W        W92422  42.346   9.748   1.891
24060W        W92423  21.646  13.286   4.825
24061W        W92424   9.297  40.046   0.855
24062W        W92425   8.204  41.444  14.434
24063W        W92426  16.252   5.922   2.841
24064W        W92427  36.000  34.411  11.458
24065W        W92428   0.412   7.377   4.139
24066W        W92429   6.902   2.282   3.734
24067W        W92430  21.017   0.851   2.835
24068W        W92431  44.457  40.012  10.157
24069W        W92432  25.528  14.776  12.048
24070W        W92433   0.952  32.996  12.512
24071W        W92434   0.363  43.775  12.423
24072W        W92435  11.269   8.669   0.818
24073W        W92436  22.631   0.975  12.458
24074W        W92437   9.653  19.663   2.774
24075W        W92438   4.836  39.322  13.366
24076W        W92439   3.815  37.372   3.745
24077W        W92440  15.112   0.393  14.277
24078W        W92441  35.392  34.540   2.411
24079W        W92442  25.100  22.058  14.399
24080W        W92443  20.725  13.764   4.647
24081W        W92444  42.829   8.175  13.542
24082W        W92445  13.820  25.083   4.145
24083W        W92446  22.185  15.269  13.872
24084W        W92447   5.210  13.347  10.419
24085W        W92448   0.383  21.251   4.257
24086W        W92449  44.279   7.717  12.888
24087W        W92450   7.690   4.870   1.868
24088W        W92451  22.666  42.975  10.148
24089W        W92452  12.250  27.172   2.258
24090W        W92453   2.900  30.500  11.878
24091W        W92454  42.411  20.256  12.498
24092W        W92455  16.237  32.425   2.290
24093W        W92456  19.692  24.103   3.273
24094W        W92457  40.472  16.760  10.526
24095W        W92458   3.382  26.483  13.893
24096W        W92459   4.726   3.937  14.275
24097W        W92460  27.585  28.497   4.127
24098W        W92461  17.101  12.125  15.000
24099W        W92462  14.669   5.409  14.493
24100W        W92463  28.044  31.537   0.932
24101W        W92464   9.329   0.808   0.345
24102W        W92465  42.988  13.341  12.882
24103W        W92466  40.305  41.458  13.369
24104W        W92467   9.174  32.072   1.872
24105W        W92468  24.568   9.334  10.460
24106W        W92469  36.560  10.344  10.493
24107W        W92470  22.574  19.577  12.894
24108W        W92471  25.159   4.791  14.471
24109W        W92472   5.769  37.057   3.269
24110W        W92473  37.417   5.378  10.429
24111W        W92474  22.089  36.364   1.806
24112W        W92475   2.909  29.618   2.780
24113W        W92476   2.748   4.241   0.315
24114W        W92477  18.748  27.587   0.475
24115W        W92478  11.362  22.086  11.554
24116W        W92479  33.380  35.385   1.360
24117W        W92480  40.855  21.718  11.919
24118W        W92481   7.251  12.234  12.836
24119W        W92482  11.664  43.818  12.421
24120W        W92483  40.500   7.191  14.366
24121W        W92484  28.178  44.451   3.180
24122W        W92485  38.358   7.333  12.030
24123W        W92486  37.492  26.060  10.500
24124W        W92487  26.047  12.835   4.215
24125W        W92488   5.749   5.749  11.423
24126W        W92489  28.029  27.026  14.320
24127W        W92490  38.455  41.345   3.727
24128W        W92491   7.678  29.461   5.175
24129W        W92492  37.882  37.014  12.884
24130W        W92493  26.514  10.766   4.114
24131W        W92494  28.611  34.942  10.548
24132W        W92495   3.897  15.102  14.798
24133W        W92496  37.466  17.603  14.353
24134W        W92497   1.329  13.773  12.347
24135W        W92498  37.537  30.647  10.503
24136W        W92499  18.631  32.438   4.771
24137W        W92500   6.885   5.808  14.029
24138W        W92501  15.313   1.464  14.777
24139W        W92502  10.378  10.272   4.299
24140W        W92503  41.294   0.446   1.915
24141W        W92504  28.946   3.325   1.438
24142W        W92505  29.470  24.113   3.710
24143W        W92506  16.695  20.057  14.971
24144W        W92507   5.716  33.476   0.748
24145W        W92508  30.137  35.497  10.538
24146W        W92509  32.114  38.937   0.908
24147W        W92510  31.443   0.765  12.889
24148W        W92511  33.499   9.393   0.953
24149W        W92512  28.620  22.726   1.263
24150W        W92513  11.161   3.738   4.170
24151W        W92514  38.834  44.503  11.593
24152W        W92515  28.482  22.215   4.598
24153W        W92516  20.098  40.964   3.167
24154W        W92517   4.265  13.258   3.656
24155W        W92518   6.306  40.339   1.885
24156W        W92519  10.737   8.725  10.412
24157W        W92520   8.318  33.912  14.892
24158W        W92521  30.964  34.883  13.048
24159W        W92522  13.151  19.738  12.380
24160W        W92523  11.675  42.307   0.252
24161W        W92524  38.974  38.554  14.338
24162W        W92525  20.094   1.419  13.438
24163W        W92526  14.300  23.076   3.655
24164W        W92527  25.026  36.969  11.953
24165W        W92528  40.930  42.353  10.916
24166W        W92529   1.818  37.379  14.463
24167W        W92530  10.800  13.617   4.145
24168W        W92531  25.527  41.877   4.761
24169W        W92532  41.945  17.663   1.839
24170W        W92533  31.543  19.252   4.278
24171W        W92534   5.384  42.346  11.489
24172W        W92535  41.868   2.956  12.453
24173W        W92536   5.359  20.062  11.936
24174W        W92537  43.971  26.130   3.751
24175W        W92538  36.912   9.766   4.146
24176W        W92539  34.501  37.037   2.389
24177W        W92540  18.237   7.263   1.823
24178W        W92541  23.200  41.982  12.093
24179W        W92542   6.874  41.314   3.231
24180W        W92543  18.174  21.627  13.886
24181W        W92544  31.648   7.842  12.462
24182W        W92545   1.250  39.834   3.188
24183W        W92546   9.369  26.461  13.022
24184W        W92547   9.359   9.738  11.513
24185W        W92548  10.667  38.345  14.370
24186W        W92549  25.974  29.128  11.870
24187W        W92550   3.363   5.395  10.933
24188W        W92551   9.259  12.228   4.648
24189W        W92552  21.532  31.560  11.939
24190W        W92553   5.318  32.011   1.296
24191W        W92554  29.650  22.164   0.879
24192W        W92555  35.096  11.747  12.499
24193W        W92556   9.762  30.450  14.512
24194W        W92557  44.975  20.080   2.722
24195W        W92558  32.623  24.144   1.925
24196W        W92559  14.308  17.181   5.298
24197W        W92560  17.637  18.171  11.398
24198W        W92561  12.718  23.634  11.081
24199W        W92562  13.274   8.738  10.936
24200W        W92563  37.380  11.830   0.894
24201W        W92564  11.782  36.842   2.806
24202W        W92565  36.938   5.272   3.324
24203W        W92566  33.926  28.963  12.531
24204W        W92567  38.942  11.288   4.255
24205W        W92568   8.162   4.804   3.252
24206W        W92569   1.977  20.623  10.445
24207W        W92570   7.745  41.983  11.126
24208W        W92571  39.943  31.457  10.427
24209W        W92572  43.934  35.586   4.709
24210W        W92573   7.228   4.712   1.430
24211W        W92574   0.791  31.491   4.139
24212W        W92575  25.964  33.067  14.843
24213W        W92576  13.262   4.354  10.907
24214W        W92577  26.609  21.020   2.750
24215W        W92578   0.471  10.778   2.374
24216W        W92579  17.212  11.641   5.237
24217W        W92580  31.479   6.701  12.951
24218W        W92581  33.523  39.949   3.321
24219W        W92582  41.487  19.165  12.980
24220W        W92583   3.795  30.079  14.512
24221W        W92584  32.544   2.766   2.273
24222W        W92585   3.819   8.888  13.399
24223W        W92586  19.135  20.215  13.488
24224W        W92587   0.433  34.496   0.267
24225W        W92588   7.179  42.460  10.982
24226W        W92589  13.148  44.000   4.617
24227W        W92590  43.804  26.118  11.393
24228W        W92591  38.340  24.485   2.290
24229W        W92592   3.907  30.154  12.075
24230W        W92593  27.089  12.825   2.779
24231W        W92594  35.900  15.749  11.540
24232W        W92595  15.281  42.798   0.838
24233W        W92596  14.598  20.118  11.961
24234W        W92597  25.164  35.404  13.493
24235W        W92598  32.124  17.085  11.423
24236W        W92599   8.226   8.811  12.368
24237W        W92600  43.860  28.095   4.695
24238W        W92601  43.504  27.490  11.041
24239W        W92602  14.592  31.968   4.169
24240W        W92603  34.928  43.879   2.354
24241W        W92604   9.170  39.514   1.773
24242W        W92605   2.722  14.160  13.339
24243W        W92606  44.443  25.530  13.535
24244W        W92607   5.696  35.063  14.998
24245W        W92608  44.283   0.869   2.402
24246W        W92609   5.716  13.326  13.023
24247W        W92610   8.266   3.796  12.344
24248W        W92611  26.048  10.372  11.896
24249W        W92612  28.160  27.155  10.984
24250W        W92613  26.520  16.772  11.037
24251W        W92614  38.431  17.767  11.960
24252W        W92615  39.060  17.771  10.562
24253W        W92616  27.598   7.348  11.974
24254W        W92617  43.945  38.037  11.558
24255W        W92618  30.040  21.201  13.440
24256W        W92619   2.268  28.081  13.947
24257W        W92620  19.604  41.805   5.102
24258W        W92621  41.456  30.464   1.449
24259W        W92622  40.545  10.312  11.049
24260W        W92623   8.317  22.085  12.386
24261W        W92624  26.672   8.809  14.854
24262W        W92625  23.226  32.054   4.617
24263W        W92626  14.271  32.072   1.324
24264W        W92627   9.394  41.398   2.251
24265W        W92628  34.112  27.519  11.574
24266W        W92629  17.608  28.972   1.718
24267W        W92630  13.194  25.589  14.296
24268W        W92631  28.484  22.512   3.350
24269W        W92632  12.126  28.177   0.427
24270W        W92633  41.394   4.389   2.709
24271W        W92634  13.181  40.856  14.487
24272W        W92635   6.341  19.612   0.419
24273W        W92636  42.360  34.936  14.765
24274W        W92637  10.856  43.838  11.492
24275W        W92638  44.967  20.145   0.415
24276W        W92639  36.943  33.592   1.298
24277W        W92640  39.822  14.273  10.953
24278W        W92641  12.338  30.493  12.543
24279W        W92642   6.191   2.941  10.458
24280W        W92643   5.338  44.765  12.932
24281W        W92644   8.717  41.914   1.695
24282W        W92645  10.147  28.675   1.366
24283W        W92646  41.432   6.809   1.211
24284W        W92647  21.230  20.655  11.409
24285W        W92648  43.470  22.649   3.226
24286W        W92649   0.309  11.793   3.632
24287W        W92650   0.287  42.006   4.720
24288W        W92651  42.506  34.891   4.212
24289W        W92652  19.046  26.027   4.276
24290W        W92653  11.345  17.778  12.404
24291W        W92654  10.346  35.463  12.446
24292W        W92655   5.710  19.564   2.241
24293W        W92656  31.447  12.786   2.689
24294W        W92657  26.067  31.481  10.990
24295W        W92658  33.997  31.418   4.609
24296W        W92659   0.899  12.830   1.910
24297W        W92660  29.150  20.538   4.679
24298W        W92661  11.643  22.179   1.433
24299W        W92662  30.950  23.124  10.974
24300W        W92663  13.247  12.791  11.404
24301W        W92664   4.723  23.113  14.332
24302W        W92665  20.539  40.979  10.473
24303W        W92666  10.339   5.322  14.925
24304W        W92667  44.831  41.962  12.423
24305W        W92668  24.121  26.470   2.378
24306W        W92669  29.040  16.747   0.837
24307W        W92670  33.576  14.745  12.913
24308W        W92671  15.200  33.925  12.941
24309W        W92672  22.715  29.629   0.776
24310W        W92673  23.241   6.787  13.405
24311W        W92674   1.842  32.113  12.991
24312W        W92675  25.497  13.279  12.829
24313W        W92676  24.173   3.397   4.725
24314W        W92677  25.079   9.776   3.381
24315W        W92678  29.586  32.126  12.080
24316W        W92679  24.722  21.176   0.835
24317W        W92680  22.111  32.583   3.643
24318W        W92681  41.990  20.618  12.370
24319W        W92682  37.924  28.640   2.785
24320W        W92683  19.569  13.236  13.342
24321W        W92684  43.467  34.117   3.727
24322W        W92685  36.406   1.782  13.932
24323W        W92686  13.755  30.518   0.857
24324W        W92687  38.388  20.068   3.863
24325W        W92688  21.616   5.921   1.375
24326W        W92689  18.663  36.590  12.924
24327W        W92690  29.625   5.389   3.814
24328W        W92691  41.802  17.718   1.427
24329W        W92692  34.419  12.321   2.690
24330W        W92693  14.097  14.187   4.194
24331W        W92694  21.549  28.158  12.417
24332W        W92695  12.669  12.804  10.553
24333W        W92696  32.580  18.720   4.312
24334W        W92697  11.641  17.796  11.417
24335W        W92698  34.864   0.790  10.085
24336W        W92699   7.687   3.250  13.353
24337W        W92700  27.596   5.253   1.864
24338W        W92701  11.317  25.139   2.364
24339W        W92702  43.931  39.518  13.006
24340W        W92703  19.050   2.431   2.679
24341W        W92704  30.163  11.180  14.375
24342W        W92705  17.646  13.203   2.716
24343W        W92706   8.877  28.446  14.856
24344W        W92707  16.688   7.209  13.526
24345W        W92708  21.221  25.115  13.844
24346W        W92709  41.370   3.922   0.460
24347W        W92710  20.055   5.331  13.946
24348W        W92711   0.265  39.421   0.735
24349W        W92712   1.899   3.248  10.926
24350W        W92713   7.886  23.534  11.451
24351W        W92714  32.424  42.991  11.107
24352W        W92715  17.291  29.541   1.239
24353W        W92716   5.229   6.296  13.863
24354W        W92717  26.684  33.948  11.038
24355W        W92718  30.146   1.365  14.507
24356W        W92719   0.801  38.036   2.317
24357W        W92720  20.751   5.235  12.030
24358W        W92721  10.364   1.237   4.637
24359W        W92722  25.164   2.856  13.516
24360W        W92723  28.657  42.424  14.889
24361W        W92724  39.387  15.774   1.410
24362W        W92725  14.731  10.643  13.972
24363W        W92726  43.433   3.322   4.764
24364W        W92727   6.914  36.960   3.240
24365W        W92728  31.585  12.683  12.003
24366W        W92729   4.807  39.037  12.037
24367W        W92730  35.054   9.301   3.741
24368W        W92731  19.128  18.700   4.771
24369W        W92732   9.360  31.058   0.280
24370W        W92733  37.051  34.932   3.868
24371W        W92734  29.653  39.855   3.316
24372W        W92735   6.306   9.208  11.458
24373W        W92736  24.574  21.152   3.843
24374W        W92737  19.603  29.650   2.770
24375W        W92738  29.630  29.665   5.725
24376W        W92739  36.427  12.253   3.663
24377W        W92740  35.993  23.545   4.834
24378W        W92741  19.158   7.392  11.597
24379W        W92742  12.691  44.372   4.811
24380W        W92743  39.375  42.393  11.394
24381W        W92744  27.521  38.874   3.703
24382W        W92745  17.155  42.809   4.273
24383W        W92746   5.916  10.834   1.333
24384W        W92747  19.575  28.628   3.328
24385W        W92748  25.066   7.177  10.640
24386W        W92749  31.466  26.120  13.877
24387W        W92750   7.775  29.462   1.378
24388W        W92751  17.654  28.103   1.702
24389W        W92752  15.291  27.007   3.309
24390W        W92753   5.315  12.117  10.581
24391W        W92754  28.161  18.737  12.951
24392W        W92755   6.414   0.351  13.909
24393W        W92756  42.987  37.350  10.429
24394W        W92757  14.661  40.003  11.110
24395W        W92758  35.477  44.763   0.396
24396W        W92759  16.619  44.329   3.632
24397W        W92760  22.248  14.184   0.920
24398W        W92761  35.603  43.799  11.593
24399W        W92762  36.060  18.768   4.660
24400W        W92763  30.629  38.493   1.809
24401W        W92764  33.978  29.112   2.719
24402W        W92765  29.964  42.365   0.253
24403W        W92766  22.123  12.153   4.215
24404W        W92767  39.949  23.058  11.576
24405W        W92768  44.445  26.546  13.336
24406W        W92769  24.175  43.906   0.291
24407W        W92770  42.517  23.719  12.972
24408W        W92771  16.713  39.034   1.831
24409W        W92772  31.611  12.181   0.847
24410W        W92773   5.371  14.332  10.514
24411W        W92774   6.318   1.879   1.934
24412W        W92775  17.595  31.582  12.448
24413W        W92776  43.821  26.657   1.770
24414W        W92777  24.113  13.701   3.152
24415W        W92778   0.914   5.887   4.153
24416W        W92779  34.529  15.804   3.719
24417W        W92780  27.099  31.562  14.312
24418W        W92781  26.550  32.497   3.631
24419W        W92782  21.539  26.561  10.897
24420W        W92783  25.076   9.343  11.460
24421W        W92784   7.683  21.104  13.887
24422W        W92785  42.481  17.169  12.091
24423W        W92786   8.230  16.189   4.710
24424W        W92787  25.651  25.103   2.242
24425W        W92788  15.227  10.252   3.730
24426W        W92789  37.888  12.717  11.969
24427W        W92790  20.583  16.219  12.503
24428W        W92791  26.673   1.343   0.420
24429W        W92792  23.042  25.558  11.602
24430W        W92793   5.771  30.530  13.516
24431W        W92794   7.897  10.281   1.408
24432W        W92795  26.605  14.605   0.762
24433W        W92796  37.485  28.977   1.392
24434W        W92797  36.446   9.213   1.745
24435W        W92798  13.212  21.591   0.261
24436W        W92799  17.628  40.398  11.870
24437W        W92800  32.084  26.138  13.379
24438W        W92801  25.702  37.417   0.822
24439W        W92802  42.311  13.693  13.401
24440W        W92803   1.255  43.511  11.390
24441W        W92804  21.606  15.170   1.320
24442W        W92805   1.767  28.995  12.076
24443W        W92806  35.525  33.605  14.007
24444W        W92807  21.565  22.157   0.840
24445W        W92808  40.866  28.567   1.237
24446W        W92809  23.171  10.170  10.043
24447W        W92810  23.227  15.655   2.847
24448W        W92811  20.123  38.383  14.289
24449W        W92812  10.783  15.227   0.298
24450W        W92813  25.058  37.555  13.808
24451W        W92814  39.892  33.913  11.957
24452W        W92815  25.992  17.590  11.003
24453W        W92816   9.364  42.295   1.350
24454W        W92817  18.226  44.368   0.730
24455W        W92818  30.607  12.818   2.276
24456W        W92819  41.472   1.775   4.320
24457W        W92820   4.840  20.674  13.448
24458W        W92821  24.020  43.442   0.891
24459W        W92822  36.386  28.997   0.835
24460W        W92823  13.685  26.958  11.450
24461W        W92824  35.481   0.908   0.281
24462W        W92825  30.074   0.463   2.244
24463W        W92826  35.980  24.481   1.784
24464W        W92827  41.377  25.210  14.940
24465W        W92828   0.347   4.857   3.358
24466W        W92829  28.179  40.942  13.876
24467W        W92830   6.312  34.539   4.243
24468W        W92831  23.080  29.607  13.544
24469W        W92832  43.395   4.347   1.833
24470W        W92833  39.998  39.986   2.188
24471W        W92834  26.600  29.541   0.254
24472W        W92835  15.812  40.050   2.864
24473W        W92836   9.338  27.594  14.830
24474W        W92837  19.738  32.456  11.013
24475W        W92838  12.765  22.597  11.879
24476W        W92839   6.773  23.491  10.958
24477W        W92840   7.177  22.646   1.268
24478W        W92841   0.456  36.013   2.373
24479W        W92842  16.744  30.977  12.989
24480W        W92843  26.542  33.011   3.709
24481W        W92844  23.602  31.899   1.869
24482W        W92845  11.350  12.612  14.767
24483W        W92846   0.449  23.581   4.785
24484W        W92847  24.008   1.255   1.712
24485W        W92848  17.139  40.802   4.157
24486W        W92849  20.186  38.438  13.539
24487W        W92850  13.187  35.513  11.959
24488W        W92851  27.175  14.235   4.829
24489W        W92852  10.711  24.652  11.514
24490W        W92853  15.250   4.828  13.045
24491W        W92854  20.662  15.773  10.929
24492W        W92855  37.548  12.358   3.744
24493W        W92856  27.079  36.466  11.966
24494W        W92857  37.475  28.952  12.916
24495W        W92858  25.995  16.273  10.480
24496W        W92859  12.162  42.355  11.094
24497W        W92860   7.705  25.027   2.861
24498W        W92861   6.762  26.558   3.380
24499W        W92862   9.669  26.057   0.880
24500W        W92863  26.611   5.782   0.275
24501W        W92864  24.000  17.120  14.991
24502W        W92865  35.553  39.038   2.292
24503W        W92866  43.920  18.722  14.319
24504W        W92867  28.571   6.279  11.910
24505W        W92868  14.728  14.191   3.800
24506W        W92869   4.933  43.965  11.592
24507W        W92870   3.415  13.222   4.717
24508W        W92871  33.428  35.432   3.735
24509W        W92872  32.635   6.891  14.992
24510W        W92873  16.776   7.775   1.443
24511W        W92874  14.121   5.811   3.675
24512W        W92875   7.854  38.843   1.271
24513W        W92876   4.737  18.259  12.938
24514W        W92877   4.236  19.210   0.320
24515W        W92878  39.419   9.822  10.557
24516W        W92879  22.571  13.280  12.464
24517W        W92880  36.988  44.391  10.520
24518W        W92881   3.448  21.633  12.374
24519W        W92882   0.271  14.333  13.033
24520W        W92883  43.340  11.255  13.811
24521W        W92884  36.358  36.485   2.237
24522W        W92885  17.738  14.790  12.350
24523W        W92886  13.220  15.807   2.777
24524W        W92887  33.401   9.785   1.802
24525W        W92888   0.791  12.648  12.384
24526W        W92889  18.787  23.217  13.803
24527W        W92890  25.187  41.919  11.443
24528W        W92891  26.184  40.473  14.332
24529W        W92892  41.871   2.399  14.398
24530W        W92893  40.962  37.929  10.511
24531W        W92894  31.604  18.753   1.330
24532W        W92895   5.747  19.183   3.639
24533W        W92896  15.619  10.283   3.346
24534W        W92897  43.367  22.548  14.473
24535W        W92898  17.185  25.652   1.218
24536W        W92899  26.623  16.605   5.246
24537W        W92900  33.588   9.193  11.466
24538W        W92901  26.171   0.484   3.267
24539W        W92902  28.931  13.144  10.967
24540W        W92903  39.880  12.784   0.399
24541W        W92904  40.874  31.504   4.786
24542W        W92905  25.645  17.096  14.847
24543W        W92906  18.661   1.303  13.367
24544W        W92907  16.275  32.548  11.899
24545W        W92908  25.080  18.592  14.331
24546W        W92909  33.408  44.301  14.933
24547W        W92910  23.145  38.384  14.508
24548W        W92911  25.047  36.048   0.304
24549W        W92912  13.223  11.253   0.454
24550W        W92913   1.854  40.845   0.376
24551W        W92914   6.242  38.026  11.868
24552W        W92915   9.149  32.901  12.402
24553W        W92916  12.831  12.660  11.912
24554W        W92917   7.889  24.074   3.634
24555W        W92918  38.402  18.285  13.906
24556W        W92919  26.587  37.498   2.302
24557W        W92920  33.886  27.127   0.384
24558W        W92921  13.295  32.129  11.090
24559W        W92922  24.184  10.243   0.827
24560W        W92923   3.352  38.558   0.862
24561W        W92924  11.234  18.600   2.759
24562W        W92925   3.321  37.937   3.747
24563W        W92926  28.652  31.447  14.893
24564W        W92927  20.107   5.252   4.168
24565W        W92928  23.231  30.001   2.384
24566W        W92929  37.439  38.971   1.771
24567W        W92930  22.583  38.894   3.727
24568W        W92931   8.382  34.005   3.313
24569W        W92932   9.193  25.589  14.983
24570W        W92933  29.488  34.390  12.039
24571W        W92934  22.695  31.559  12.058
24572W        W92935  10.184  12.617  10.047
24573W        W92936  40.928  24.544   4.302
24574W        W92937   1.737   7.265   4.254
24575W        W92938  24.993   6.761  12.085
24576W        W92939  15.713   5.913  11.979
24577W        W92940  30.007  31.599   3.723
24578W        W92941   2.740  42.289  12.524
24579W        W92942  29.092  15.657   1.360
24580W        W92943   8.873  11.222   3.212
24581W        W92944  29.424  41.793  12.870
24582W        W92945  13.765   9.199   2.807
24583W        W92946  29.017  27.106  12.832
24584W        W92947  39.416  20.234  10.437
24585W        W92948  13.205  27.575   4.618
24586W        W92949  11.767  36.553  14.903
24587W        W92950   8.313   1.770   2.302
24588W        W92951  36.461  17.718   0.272
24589W        W92952   8.213  43.474   4.291
24590W        W92953  44.265  24.694  12.390
24591W        W92954  12.737   6.197  10.142
24592W        W92955  23.170  44.800  13.868
24593W        W92956  14.766  36.949   2.758
24594W        W92957  24.201  28.180   4.250
24595W        W92958  16.588   9.384  14.492
24596W        W92959  44.404   9.867  12.853
24597W        W92960   0.836   8.243  13.340
24598W        W92961  15.767  34.990   0.408
24599W        W92962   9.713  40.311  12.949
24600W        W92963  27.152  34.491  11.516
24601W        W92964   4.904  35.375  14.836
24602W        W92965  42.999  12.145   0.380
24603W        W92966  22.507   5.421  14.430
24604W        W92967  16.636  11.259   1.747
24605W        W92968  19.242  25.987   2.858
24606W        W92969  10.693  30.990   1.829
24607W        W92970  20.256  44.937  14.302
24608W        W92971  24.979  43.421   0.264
24609W        W92972  33.914  44.870  13.968
24610W        W92973  17.646  16.740  11.016
24611W        W92974  35.391  11.835   3.296
24612W        W92975   9.828  21.705  12.074
24613W        W92976   6.799  42.455   0.891
24614W        W92977   3.862  38.551   0.254
24615W        W92978  23.211   5.750   1.806
24616W        W92979  43.859   6.205   0.847
24617W        W92980  28.138  14.097  11.974
24618W        W92981  20.701  18.607  10.936
24619W        W92982  41.935  42.914   3.788
24620W        W92983  40.528  32.053   2.260
24621W        W92984  13.704  25.048  12.058
24622W        W92985  39.862  29.174   2.178
24623W        W92986  17.196  38.557  10.975
24624W        W92987  29.485  39.360   2.274
24625W        W92988  26.665  29.144  11.531
24626W        W92989  37.877   6.737   3.375
24627W        W92990  29.147  37.894   0.428
24628W        W92991  44.958   2.752  14.884
24629W        W92992  25.142  18.160   4.752
24630W        W92993  10.759   6.923  11.979
24631W        W92994  39.508  37.431  12.089
24632W        W92995  41.359  37.544   3.746
24633W        W92996  13.744  22.068  12.376
24634W        W92997  26.594  18.092  10.641
24635W        W92998  37.019  35.976   2.336
24636W        W92999   1.834  16.152  10.621
24637W        W93000  36.028   7.300   3.213
24638W        W93001  12.200  18.578  10.933
24639W        W93002  36.427  20.764   4.822
24640W        W93003  24.567  43.488   4.219
24641W        W93004   5.724   8.737   4.163
24642W        W93005  31.630   0.892  11.856
24643W        W93006   6.279  23.556  11.489
24644W        W93007  44.282   5.840   3.727
24645W        W93008  37.883   1.441  11.419
24646W        W93009  35.421   0.431   1.321
24647W        W93010  20.538  26.036   0.375
24648W        W93011  17.207   8.679   3.371
24649W        W93012  33.926  10.278  13.495
24650W        W93013  22.619   1.882  13.451
24651W        W93014   7.252  17.071   4.781
24652W        W93015   1.286  35.020  14.461
24653W        W93016  10.222  37.861  11.528
24654W        W93017  18.747  33.491  10.573
24655W        W93018   3.292   5.267  13.002
24656W        W93019  23.172   1.355  13.400
24657W        W93020  44.426  16.110  11.437
24658W        W93021  18.194  15.713   3.311
24659W        W93022  40.496  15.228  10.904
24660W        W93023   4.786   3.270   1.356
24661W        W93024  11.295   6.748  14.278
24662W        W93025   1.978  29.106  12.358
24663W        W93026   1.242  37.462   4.677
24664W        W93027  14.249  37.086  13.500
24665W        W93028  21.674  40.951  14.370
24666W        W93029  43.501  30.952  12.832
24667W        W93030   1.807  17.675   4.658
24668W        W93031  41.992  28.434  12.351
24669W        W93032  15.319  26.673  14.328
24670W        W93033  24.647  39.375   2.288
24671W        W93034  36.593  41.305   2.891
24672W        W93035  38.933  35.020   2.195
24673W        W93036  36.425  24.100  14.368
24674W        W93037  34.559  24.200  11.509
24675W        W93038  19.224  27.014   0.301
24676W        W93039  14.327  12.336   2.795
24677W        W93040  43.278  34.399  11.473
24678W        W93041  14.754   9.755  12.477
24679W        W93042  24.198  29.571  12.565
24680W        W93043  33.566  31.521   3.703
24681W        W93044  40.527  11.662  11.861
24682W        W93045  26.688  18.212  12.894
24683W        W93046   1.479  41.946  14.969
24684W        W93047   8.757  34.874  11.926
24685W        W93048  37.524  34.004   2.303
24686W        W93049  22.032  39.506  13.544
24687W        W93050  35.962  16.604   1.355
24688W        W93051  12.673  16.767   3.670
24689W        W93052  29.074   1.352  13.979
24690W        W93053  24.112  25.578   2.666
24691W        W93054  26.607  44.388  14.370
24692W        W93055  10.644  15.695   2.707
24693W        W93056  26.967  15.231  11.385
24694W        W93057  19.747  28.516   1.906
24695W        W93058  25.499  25.699  11.487
24696W        W93059   3.327  41.351   3.204
24697W        W93060  24.175   8.255   1.445
24698W        W93061  19.259  41.532   1.291
24699W        W93062   9.823   7.177  12.898
24700W        W93063  30.917   6.829  10.609
24701W        W93064   8.802   5.241   3.866
24702W        W93065  43.365  12.742   2.262
24703W        W93066   0.822   8.330   2.706
24704W        W93067  12.146  30.593   1.928
24705W        W93068  43.782  41.415   4.604
24706W        W93069  12.274  31.931  12.487
24707W        W93070  32.513   0.460   4.185
24708W        W93071  41.345  40.015  12.998
24709W        W93072  40.485  17.238  10.077
24710W        W93073   7.271  14.592  13.922
24711W        W93074  32.401  24.987   2.277
24712W        W93075  41.497  23.515   2.761
24713W        W93076  33.932   1.970   5.284
24714W        W93077  22.087   9.328  10.620
24715W        W93078  26.964  43.448   2.242
24716W        W93079  34.477   5.398  14.885
24717W        W93080  27.446  18.622   2.878
24718W        W93081  31.412  28.166  13.910
24719W        W93082  12.791  13.802   3.150
24720W        W93083  44.320  43.435  14.938
24721W        W93084  12.754  21.706   0.788
24722W        W93085  11.200  11.193   2.211
24723W        W93086  30.535  31.920  13.537
24724W        W93087  19.741  18.733   3.710
24725W        W93088   0.979   2.793  13.993
24726W        W93089  30.417  19.648  13.834
24727W        W93090  14.801   6.404  11.993
24728W        W93091  18.172  24.613   1.810
24729W        W93092   2.863  23.726   0.945
24730W        W93093  41.900  36.386  14.445
24731W        W93094  16.217  26.634  11.986
24732W        W93095  43.440  22.663  10.938
24733W        W93096   2.259  38.458   2.856
24734W        W93097  20.096   5.733   2.265
24735W        W93098  44.308  18.157   1.750
24736W        W93099  27.180   7.708  10.520
24737W        W93100  16.242  13.167  10.525
24738W        W93101  42.911  43.488  10.906
24739W        W93102  20.137  29.116   3.250
24740W        W93103   1.765   0.901  13.976
24741W        W93104  40.441  30.113   0.345
24742W        W93105  28.681  21.600  14.871
24743W        W93106  32.944  18.681   1.215
24744W        W93107   7.877  35.853  13.440
24745W        W93108  24.517   1.913   1.887
24746W        W93109  14.684  42.489  11.051
24747W        W93110  17.630  23.003  13.390
24748W        W93111  17.210  32.452  12.539
24749W        W93112  28.587  11.187  11.461
24750W        W93113  28.675  13.683  14.791
24751W        W93114  27.080  11.680  10.935
24752W        W93115  17.178   7.732  11.448
24753W        W93116  34.083  27.575   1.283
24754W        W93117  26.184  12.359   4.770
24755W        W93118   3.399  22.243   9.969
24756W        W93119  13.300  31.971  10.034
24757W        W93120  11.676  13.299  11.876
24758W        W93121   4.293  25.177   1.865
24759W        W93122  24.049   2.949   1.764
24760W        W93123  13.843  29.627  13.996
24761W        W93124  43.488  11.309   2.239
24762W        W93125  31.001   2.431   0.843
24763W        W93126  16.216  31.620   4.774
24764W        W93127  42.480  33.954   2.841
24765W        W93128  13.249   5.328  11.891
24766W        W93129  36.968  34.111   0.905
24767W        W93130  24.572   8.848   0.857
24768W        W93131  15.240   3.337   0.478
24769W        W93132  39.969  32.977  11.127
24770W        W93133  29.626  29.612   1.911
24771W        W93134  10.705  25.661  14.831
24772W        W93135  13.636  21.643  12.905
24773W        W93136  39.862  34.899  11.382
24774W        W93137   9.833  17.248  12.354
24775W        W93138  31.621  19.724   4.621
24776W        W93139  14.266  18.673   0.435
24777W        W93140   1.303  27.579   0.837
24778W        W93141   6.734  32.472  13.820
24779W        W93142   9.866  44.871  12.477
24780W        W93143  44.943  34.477   3.666
24781W        W93144  14.234  38.543   1.255
24782W        W93145  29.440  19.724  10.006
24783W        W93146  16.131  39.515   4.633
24784W        W93147  40.890   3.337  12.015
24785W        W93148  35.520  24.660  11.003
24786W        W93149   9.377  25.137  10.558
24787W        W93150  27.139  17.240   9.999
24788W        W93151  38.470  35.530   3.847
24789W        W93152  41.349  40.985  12.935
24790W        W93153   4.236  43.410  10.636
24791W        W93154   7.301  17.606   3.288
24792W        W93155  33.460  38.045  10.977
24793W        W93156  38.467   4.343  13.805
24794W        W93157  44.323  19.719   3.202
24795W        W93158   4.328  13.216  13.360
24796W        W93159  30.074  12.772  14.409
24797W        W93160  19.668  34.518  14.766
24798W        W93161  20.764  22.184  14.938
24799W        W93162  27.668  14.768   0.795
24800W        W93163  15.098  42.797   1.853
24801W        W93164  30.466  14.164   0.865
24802W        W93165   4.256  34.974  10.463
24803W        W93166  16.793  18.788  11.077
24804W        W93167  21.049  17.797   3.819
24805W        W93168  17.159  14.602  11.952
24806W        W93169  37.036  43.354   0.280
24807W        W93170  26.457   9.847   9.941
24808W        W93171  19.108  40.454  12.977
24809W        W93172   2.799  16.290  11.602
24810W        W93173   5.807  28.670  11.438
24811W        W93174  15.747  21.218   4.765
24812W        W93175  27.165  22.611  10.992
24813W        W93176  14.177   7.756   2.192
24814W        W93177  24.562   8.215   4.236
24815W        W93178   8.703  35.582   0.932
24816W        W93179  16.232   8.296   4.185
24817W        W93180  17.212  31.022  12.887
24818W        W93181  19.277  19.622   4.226
24819W        W93182  20.146   6.294  13.381
24820W        W93183  27.035   6.685  13.403
24821W        W93184  27.674   4.930   3.845
24822W        W93185   9.663   0.249  11.548
24823W        W93186  14.219  42.951   0.382
24824W        W93187  34.871  19.129  13.430
24825W        W93188   6.830  41.915  13.952
24826W        W93189  44.998   3.777  12.576
24827W        W93190   6.260  44.857  11.438
24828W        W93191  29.533  44.874   1.401
24829W        W93192   7.810   9.707  14.793
24830W        W93193  13.275  39.441  11.093
24831W        W93194   1.932   6.825   1.391
24832W        W93195   5.282   0.963   3.181
24833W        W93196   4.897  44.847  12.072
24834W        W93197   0.316   6.902  12.575
24835W        W93198  35.024  16.627   3.191
24836W        W93199   1.919  33.029  12.865
24837W        W93200  36.384  15.722   3.304
24838W        W93201  33.076  25.211   2.870
24839W        W93202  40.817  41.433  10.945
24840W        W93203  37.465  15.119   1.345
24841W        W93204  18.073  12.842   2.831
24842W        W93205  33.131  28.471  14.936
24843W        W93206  42.011  43.310  11.936
24844W        W93207  26.974  13.273   5.274
24845W        W93208  33.470  11.839   0.371
24846W        W93209  22.534  37.940  10.988
24847W        W93210  27.072  26.599  12.579
24848W        W93211  16.117  34.537   4.800
24849W        W93212  31.072   8.166   1.849
24850W        W93213  19.702  41.957  12.447
24851W        W93214  14.319  31.092  11.008
24852W        W93215   2.341  16.582   2.874
24853W        W93216  23.618  44.927  11.900
24854W        W93217  27.038  30.461  12.943
24855W        W93218  44.839  17.222  11.588
24856W        W93219   4.829  25.487  10.564
24857W        W93220   0.329  34.945  12.410
24858W        W93221  12.166  26.458  12.824
24859W        W93222   9.871   7.204   0.944
24860W        W93223  36.488  22.071  13.383
24861W        W93224  17.561  25.976  11.128
24862W        W93225  24.167  37.986   2.786
24863W        W93226   0.745  29.570   1.397
24864W        W93227  28.931  40.817  14.007
24865W        W93228   0.952  34.949  13.506
24866W        W93229  10.674  36.844  14.370
24867W        W93230  38.515   8.243   0.960
24868W        W93231   6.767  39.336   4.756
24869W        W93232  10.819  26.497   4.721
24870W        W93233  42.835  25.609   4.838
24871W        W93234   7.294  30.907   2.777
24872W        W93235  36.578  25.552  14.334
24873W        W93236  33.416   2.471  12.500
24874W        W93237  16.659  33.949  12.090
24875W        W93238  10.265  31.059   0.875
24876W        W93239  43.461  39.951   0.833
24877W        W93240  17.140  26.966   3.842
24878W        W93241  20.054  31.918   3.793
24879W        W93242  43.974  22.054  11.530
24880W        W93243  23.713  22.588   4.288
24881W        W93244  15.164   0.817  11.454
24882W        W93245   3.405   0.879   1.229
24883W        W93246   9.754  43.300  13.545
24884W        W93247  32.531  28.974   3.325
24885W        W93248  14.142  24.699   0.410
24886W        W93249  27.518  40.943   0.249
24887W        W93250   3.841  43.878  14.947
24888W        W93251  37.951   7.398  11.011
24889W        W93252  41.344  31.535   3.367
24890W        W93253  40.512  42.854  13.484
24891W        W93254  41.469  37.487   4.615
24892W        W93255  21.139   5.425   2.351
24893W        W93256  29.959  10.740   2.315
24894W        W93257  21.617   2.961   4.163
24895W        W93258   5.360  10.695   3.847
24896W        W93259  31.642  10.274  14.482
24897W        W93260  31.040   4.899   1.397
24898W        W93261  26.512  30.613   9.921
24899W        W93262   6.320  34.870  12.030
24900W        W93263  23.521   2.382   2.269
24901W        W93264  18.109  25.573   3.642
24902W        W93265  10.660   5.202  11.993
24903W        W93266   7.397  32.533   4.702
24904W        W93267  10.316  14.105   2.791
24905W        W93268  15.182  44.969  14.356
24906W        W93269  11.765  23.619   0.772
24907W        W93270  37.519  37.001   4.621
24908W        W93271  38.006  25.640   4.694
24909W        W93272  19.657   1.479   1.853
24910W        W93273  15.765  20.273   4.645
24911W        W93274  22.042  35.437   0.344
24912W        W93275  10.323   4.850  14.974
24913W        W93276  24.719  23.709  10.948
24914W        W93277  38.425  42.891   0.898
24915W        W93278  11.852   8.234   2.766
24916W        W93279  43.771  10.327  13.981
24917W        W93280  44.347  41.941   4.817
24918W        W93281   1.261  15.777  11.038
24919W        W93282  27.098   3.274   4.160
24920W        W93283   4.427  14.814   1.889
24921W        W93284  19.671  28.987   3.294
24922W        W93285  27.644  17.243   5.115
24923W        W93286   7.715  37.547   3.146
24924W        W93287  40.393  18.665  13.537
24925W        W93288   8.710  10.794   2.376
24926W        W93289   4.933  16.208   1.734
24927W        W93290  32.474   3.438  12.023
24928W        W93291  14.140  27.067  10.501
24929W        W93292  18.146  40.427   0.362
24930W        W93293   2.756   0.394  10.556
24931W        W93294  31.906  19.240  10.524
24932W        W93295  32.016  35.897   1.843
24933W        W93296  36.053  36.921   4.700
24934W        W93297  21.069  33.483  11.393
24935W        W93298  19.209   0.823   0.272
24936W        W93299   2.952  42.330   2.795
24937W        W93300  15.285  35.916  10.552
24938W        W93301   6.254   0.273   3.854
24939W        W93302  25.075  21.649  13.901
24940W        W93303  41.319  29.485  14.361
24941W        W93304   1.321  35.863  10.495
24942W        W93305  41.024  12.353  10.534
24943W        W93306  29.515  40.802  12.989
24944W        W93307   8.671  17.597  12.389
24945W        W93308  10.750  42.840  11.992
24946W        W93309   5.687  20.270  14.314
24947W        W93310  12.646  10.220  13.049
24948W        W93311  41.041  43.462   1.351
24949W        W93312   4.839  19.585  14.450
24950W        W93313   4.742  25.692  11.453
24951W        W93314  35.871  12.840   1.438
24952W        W93315  14.780  19.219   0.401
24953W        W93316   2.938  13.292  13.391
24954W        W93317  20.192  29.556  14.966
24955W        W93318  17.769  21.246   2.294
24956W        W93319   7.222   5.266   0.439
24957W        W93320   8.304  11.145   2.355
24958W        W93321  32.531   4.430   1.223
24959W        W93322  19.267  44.968   0.439
24960W        W93323  39.508  28.001   2.740
24961W        W93324  29.644  40.473  10.419
24962W        W93325  15.719  14.826   2.254
24963W        W93326   9.859  21.620  11.552
24964W        W93327  26.985   3.719   2.777
24965W        W93328  40.933  41.337  11.586
24966W        W93329  26.686  35.500   3.653
24967W        W93330  20.724  16.792   2.691
24968W        W93331  32.898  24.606   1.742
24969W        W93332  20.145  17.289  11.473
24970W        W93333  10.176  43.507  12.029
24971W        W93334  29.630   5.744  13.515
24972W        W93335  37.517   3.937   4.211
24973W        W93336   5.752  17.081   1.797
24974W        W93337  39.330   1.957   2.189
24975W        W93338   5.379   5.270  12.884
24976W        W93339  33.405  10.870   1.419
24977W        W93340   0.467  20.550   1.450
24978W        W93341  39.520  18.789   0.357
24979W        W93342  38.885  17.122  11.489
24980W        W93343  15.605   7.285  10.480
24981W        W93344  20.102  34.013  14.001
24982W        W93345  12.253  37.338  12.365
24983W        W93346  29.454  17.763  14.855
24984W        W93347   4.906  12.644   1.386
24985W        W93348   3.376  32.084  10.060
24986W        W93349  23.516  36.094   1.855
24987W        W93350   1.318   4.353   4.665
24988W        W93351  17.609   8.394   4.683
24989W        W93352  19.737   5.773   2.887
24990W        W93353  12.299  36.396  12.509
24991W        W93354  33.995   8.733   1.760
24992W        W93355  40.812  10.658   4.775
24993W        W93356  22.686   4.227  13.905
24994W        W93357  40.932  24.152  12.468
24995W        W93358  15.220   5.248  14.930
24996W        W93359   5.239  41.809  13.371
24997W        W93360  11.179  30.158   0.345
24998W        W93361  19.195  38.820  14.933
24999W        W93362  24.100   2.843  10.542
25000W        W93363  15.808  28.148   5.300
25001W        W93364  13.610  14.301  12.955
25002W        W93365  13.829   1.900   2.379
25003W        W93366  14.650  36.558   3.651
25004W        W93367  16.585   7.175  12.957
25005W        W93368  32.043  44.283  10.507
25006W        W93369   6.889  34.048   0.420
25007W        W93370  32.581  40.936   1.700
25008W        W93371   4.232  43.342  12.959
25009W        W93372   5.754  43.343  11.927
25010W        W93373  42.001   1.938   2.237
25011W        W93374  27.569  19.757  13.313
25012W        W93375  18.567  43.386   3.283
25013W        W93376  26.641  22.999   0.350
25014W        W93377  42.428  20.667  11.037
25015W        W93378  24.979  33.446  12.483
25016W        W93379  37.352  44.785   0.334
25017W        W93380  25.615  43.960  13.042
25018W        W93381  36.941  19.094   2.367
25019W        W93382  34.561  37.368  11.062
25020W        W93383  32.042  37.902   0.791
25021W        W93384  44.432  29.426  11.435
25022W        W93385  24.637  35.965   4.834
25023W        W93386   0.289  23.620   1.856
25024W        W93387  39.903  37.485  10.950
25025W        W93388  32.562  28.673   4.290
25026W        W93389  25.092  26.125  14.786
25027W        W93390  15.799  27.481  11.051
25028W        W93391  17.275  40.332  11.046
25029W        W93392  27.977  22.006   0.396
25030W        W93393  34.987  21.117  14.445
25031W        W93394  31.051  27.487   1.737
25032W        W93395  21.650  34.867   1.811
25033W        W93396   9.236  44.929   1.830
25034W        W93397  21.186   7.198  13.037
25035W        W93398  19.197   3.737  11.437
25036W        W93399   0.249  36.041   0.274
25037W        W93400  15.651  20.576  14.496
25038W        W93401  15.098   3.890   1.884
25039W        W93402  12.270  22.567  11.385
25040W        W93403   4.414   9.325   3.848
25041W        W93404  10.821   2.966  14.409
25042W        W93405  18.199   0.285   4.674
25043W        W93406  34.538  22.087  12.527
25044W        W93407  42.875   6.892  13.905
25045W        W93408  34.494   9.189  14.781
25046W        W93409  41.880   3.433  14.350
25047W        W93410  38.025   3.411   4.685
25048W        W93411  11.754   4.439  14.290
25049W        W93412  33.379  27.942   2.368
25050W        W93413  18.126  34.912  13.365
25051W        W93414   1.250   3.270  11.418
25052W        W93415  18.703  44.407  10.471
25053W        W93416  14.678  42.779  14.836
25054W        W93417  29.469  18.170  12.986
25055W        W93418   0.819  11.666   4.145
25056W        W93419   3.381  14.220   3.203
25057W        W93420  26.620  19.636  10.915
25058W        W93421   5.307  21.243   0.889
25059W        W93422   5.406  41.799  11.921
25060W        W93423  27.551  23.731   4.283
25061W        W93424  26.016   7.351   3.371
25062W        W93425  35.025  33.471   3.298
25063W        W93426  26.094  11.787  10.998
25064W        W93427  34.951   1.443  10.601
25065W        W93428  27.133  10.860  13.970
25066W        W93429   8.757   4.288  13.370
25067W        W93430  23.015  30.033  14.958
25068W        W93431  43.307   2.885  11.383
25069W        W93432  13.755  11.363  10.431
25070W        W93433  42.013  23.695   2.875
25071W        W93434   9.344  23.048  14.969
25072W        W93435  25.024  43.457  10.434
25073W        W93436   3.295  44.416  13.811
25074W        W93437   1.465   0.770   2.899
25075W        W93438   4.838  11.358  11.893
25076W        W93439  12.750   5.307   1.746
25077W        W93440  25.983  14.123   2.883
25078W        W93441   8.374   2.840   2.712
25079W        W93442   5.747  32.034   9.977
25080W        W93443  12.161  42.865  10.155
25081W        W93444  32.049  11.341  14.406
25082W        W93445  39.060   8.800  14.426
25083W        W93446  30.552  35.073   1.258
25084W        W93447  31.554  43.768   9.940
25085W        W93448  26.088  19.695  11.120
25086W        W93449  10.678  29.618   0.411
25087W        W93450  40.320  33.516  14.383
25088W        W93451  18.140   9.805   1.242
25089W        W93452  25.027  17.563  12.933
25090W        W93453  43.906  37.027  12.059
25091W        W93454  30.123   2.880   2.778
25092W        W93455  44.772  10.862  14.511
25093W        W93456   3.414  29.601   3.799
25094W        W93457  12.729  34.430  13.499
25095W        W93458  19.721  33.470  12.365
25096W        W93459  27.969  35.995  14.334
25097W        W93460  41.036   7.838  14.472
25098W        W93461  38.820  41.459   0.851
25099W        W93462   5.808  23.164   4.118
25100W        W93463  20.569  34.393  13.406
25101W        W93464  32.602  13.634  12.054
25102W        W93465  41.486  28.460  12.827
25103W        W93466   7.826  14.748  14.322
25104W        W93467  16.654  14.212   0.434
25105W        W93468   7.237   5.318  12.410
25106W        W93469  33.421  23.085   0.820
25107W        W93470  41.351  17.167   3.680
25108W        W93471  28.469  28.166  13.024
25109W        W93472  25.023  10.170   1.262
25110W        W93473  33.468  33.532   5.176
25111W        W93474  43.495  29.035  12.546
25112W        W93475   0.252  17.570   0.839
25113W        W93476   7.217  27.128  11.567
25114W        W93477   4.907   7.387   2.807
25115W        W93478   6.841  19.240   4.172
25116W        W93479  43.473  10.699  11.872
25117W        W93480  21.211  19.726   1.788
25118W        W93481  14.589  39.383  14.477
25119W        W93482  16.135  12.825  14.873
25120W        W93483  40.810  21.144   4.699
25121W        W93484   9.318   3.288   0.867
25122W        W93485  30.581  18.124   3.835
25123W        W93486  25.659  14.611   3.220
25124W        W93487  32.457  33.568   3.801
25125W        W93488  23.671   5.420  13.024
25126W        W93489  40.886  30.098   0.366
25127W        W93490   2.428  42.886  13.040
25128W        W93491  31.558  27.464   3.313
25129W        W93492   0.276  31.984  10.626
25130W        W93493  24.153  42.968   3.173
25131W        W93494  25.089  33.050  11.089
25132W        W93495  37.548   8.876   4.120
25133W        W93496  19.210  37.502  14.413
25134W        W93497   2.916  30.589  13.791
25135W        W93498  33.073   3.838  14.334
25136W        W93499  30.934  28.574  13.791
25137W        W93500   0.475  28.038  13.908
25138W        W93501  35.476   3.272  13.979
25139W        W93502  35.597  27.136   4.347
25140W        W93503  18.268  29.582  11.373
25141W        W93504  14.208   3.274  13.453
25142W        W93505  10.632  39.327   4.783
25143W        W93506   9.258  11.803  14.443
25144W        W93507   6.307  14.708   0.822
25145W        W93508  13.287  13.162  10.419
25146W        W93509   1.280  13.219  13.503
25147W        W93510   3.290  38.027   1.777
25148W        W93511  21.124   3.382   1.781
25149W        W93512  31.416  31.941  14.419
25150W        W93513  42.492   0.288   4.176
25151W        W93514  14.684  33.069  13.961
25152W        W93515   4.406  16.128   4.257
25153W        W93516  28.612  24.116   2.814
25154W        W93517  41.813  16.747  11.956
25155W        W93518  15.212  22.604  11.584
25156W        W93519   4.216  18.788  14.357
25157W        W93520  31.644  36.843  12.886
25158W        W93521   5.704  10.159  12.970
25159W        W93522  31.424  40.027  13.894
25160W        W93523  33.100   9.736   3.685
25161W        W93524  29.952   3.310  11.575
25162W        W93525   2.442  37.899  14.968
25163W        W93526  22.692  30.153   0.885
25164W        W93527  28.048  37.461  12.074
25165W        W93528   9.807   4.822  12.856
25166W        W93529  31.040  21.199  12.019
25167W        W93530  26.529  23.997  13.981
25168W        W93531  21.693  29.089   0.252
25169W        W93532  23.188  35.037  12.969
25170W        W93533  38.021  29.552   3.777
25171W        W93534   0.297  42.309  13.899
25172W        W93535  36.853   1.834  11.975
25173W        W93536   9.154  31.576  14.973
25174W        W93537  13.745  38.490  12.557
25175W        W93538  11.804  10.832   1.269
25176W        W93539  16.136  32.547   3.653
25177W        W93540  38.951  20.070  13.515
25178W        W93541  41.805   7.317   3.657
25179W        W93542  15.311  30.991  14.426
25180W        W93543  15.151  36.076   4.300
25181W        W93544  11.623  41.450  10.900
25182W        W93545  37.359   5.931  11.509
25183W        W93546  14.200   3.432   5.590
25184W        W93547   8.225   9.844  13.041
25185W        W93548   7.840  40.504   0.449
25186W        W93549  15.160  33.947  13.491
25187W        W93550  25.521  34.483   3.696
25188W        W93551  11.733  36.920  13.942
25189W        W93552   2.410  43.382  11.075
25190W        W93553  35.438  34.605   1.723
25191W        W93554  37.456   0.967  14.297
25192W        W93555  33.047  10.747  11.390
25193W        W93556  35.400   1.475  11.512
25194W        W93557  42.403  31.909   4.248
25195W        W93558  19.535  38.451   4.186
25196W        W93559  29.955  11.299   4.770
25197W        W93560  28.973  25.558  13.867
25198W        W93561  18.235   6.707   0.279
25199W        W93562  32.917  43.393  13.049
25200W        W93563  31.002  24.626   1.381
25201W        W93564  44.271  34.559  10.095
25202W        W93565  39.492   2.901  13.397
25203W        W93566  27.119  24.135  10.559
25204W        W93567  19.154  35.039   1.274
25205W        W93568  37.040  32.070   0.822
25206W        W93569  20.075  38.345  12.355
25207W        W93570  10.344  31.030   3.829
25208W        W93571  40.305   4.924   4.217
25209W        W93572  44.491   4.766   2.307
25210W        W93573   1.474  10.776   4.673
25211W        W93574  37.015   6.296   2.878
25212W        W93575   9.707   9.750   4.789
25213W        W93576  15.821  26.991   1.338
25214W        W93577  16.075  19.283  12.369
25215W        W93578   8.841  11.723  14.344
25216W        W93579  18.086   8.748   0.963
25217W        W93580   7.874  12.745  13.346
25218W        W93581  33.498   9.791  14.451
25219W        W93582  33.980  12.726   0.385
25220W        W93583  33.503  44.403   5.305
25221W        W93584  19.084  23.574  14.447
25222W        W93585  12.830  31.981   2.669
25223W        W93586  21.197   9.806   2.858
25224W        W93587   1.848  10.213  10.509
25225W        W93588  21.677  27.106   2.818
25226W        W93589  10.741   4.928   4.166
25227W        W93590  23.579  27.186  13.947
25228W        W93591  42.799  30.636   0.417
25229W        W93592  31.644  23.027  12.921
25230W        W93593  24.212  28.004  10.526
25231W        W93594  27.007  29.521   1.830
25232W        W93595  29.634  10.847  14.302
25233W        W93596   0.960  11.296   0.457
25234W        W93597  27.015  18.120  11.063
25235W        W93598  37.027  23.598   1.915
25236W        W93599  21.528  25.081   0.345
25237W        W93600  26.622   7.365  11.061
25238W        W93601  44.436   4.364  14.488
25239W        W93602  16.791  39.392   4.835
25240W        W93603  30.543  42.906  10.608
25241W        W93604  42.816  33.062   2.299
25242W        W93605   1.388  10.373  10.944
25243W        W93606  32.955  35.539  12.010
25244W        W93607  43.277  17.691   2.328
25245W        W93608  42.516  14.818   1.875
25246W        W93609  17.724  17.713  12.438
25247W        W93610  44.801  36.416  11.584
25248W        W93611  35.006  15.655  11.379
25249W        W93612  22.135  30.524   4.712
25250W        W93613   3.308  22.029   5.290
25251W        W93614  36.495  29.484   0.481
25252W        W93615  35.503  38.385  14.824
25253W        W93616  11.675  12.140  14.486
25254W        W93617   4.734   7.692  10.616
25255W        W93618   9.190   0.775  12.083
25256W        W93619  30.053   1.334  11.876
25257W        W93620  19.603  12.704   4.741
25258W        W93621   7.327   7.886   3.682
25259W        W93622  13.152  33.892  13.810
25260W        W93623  10.702  27.069   2.247
25261W        W93624  44.766  19.747  12.569
25262W        W93625  30.153  38.360   1.363
25263W        W93626  21.636  39.828   4.293
25264W        W93627   2.833  40.521   0.896
25265W        W93628  18.295  28.981   1.344
25266W        W93629  36.585  39.808   2.227
25267W        W93630  33.486  31.468   0.275
25268W        W93631  44.889   4.898  11.458
25269W        W93632  16.081  38.469   1.397
25270W        W93633  29.048  32.628   4.728
25271W        W93634  36.083   3.903  10.462
25272W        W93635  43.933  25.119   1.820
25273W        W93636  23.985  18.653   5.144
25274W        W93637  16.724  25.972   1.328
25275W        W93638  18.571  38.413  11.561
25276W        W93639   8.866  17.594   1.880
25277W        W93640  33.957  27.689  13.503
25278W        W93641  26.144  24.973   2.863
25279W        W93642  27.474   6.379   4.354
25280W        W93643  22.512  36.900   1.796
25281W        W93644  41.365   6.248   3.787
25282W        W93645  18.205  13.321   4.827
25283W        W93646  13.719  40.431   0.479
25284W        W93647  13.304  33.505   2.853
25285W        W93648  33.040  17.558   4.199
25286W        W93649  42.789  27.517   3.728
25287W        W93650  13.627  10.155  14.327
25288W        W93651  10.384  16.255   2.900
25289W        W93652   4.361  31.135  14.982
25290W        W93653  25.099   7.698   0.865
25291W        W93654  44.979  40.011   2.903
25292W        W93655  13.769  10.294  14.870
25293W        W93656  17.092  20.560  14.012
25294W        W93657   9.738  17.712   0.931
25295W        W93658   0.490  39.545   2.361
25296W        W93659  23.048   9.279  12.451
25297W        W93660  35.086   8.655   5.260
25298W        W93661  31.635  22.538  13.394
25299W        W93662  40.471  35.558  11.548
25300W        W93663  17.659   4.260  14.384
25301W        W93664  14.280  16.173  11.562
25302W        W93665  28.545  33.420   1.354
25303W        W93666  40.808  11.339  11.599
25304W        W93667   1.254  21.097  12.076
25305W        W93668  12.780  21.645  12.385
25306W        W93669   5.731   3.369  11.375
25307W        W93670  11.168   1.823   2.786
25308W        W93671  36.374  15.214  14.333
25309W        W93672   8.845  20.132  12.043
25310W        W93673   3.713  34.524   2.799
25311W        W93674   0.426   6.289  13.310
25312W        W93675  33.559  19.705  11.856
25313W        W93676  38.896  25.470  11.533
25314W        W93677  43.406  21.753   4.120
25315W        W93678  29.932  37.909   3.734
25316W        W93679  27.646  11.235   4.730
25317W        W93680  28.469   7.785  13.529
25318W        W93681  34.113  23.706   0.309
25319W        W93682  18.566   3.736  11.903
25320W        W93683  15.289  34.002   0.376
25321W        W93684  44.476  10.148   4.644
25322W        W93685   0.935  10.258  12.014
25323W        W93686  43.508  18.294   2.778
25324W        W93687  20.211  19.268   4.221
25325W        W93688  43.443  36.920   0.420
25326W        W93689  36.939  13.668  13.931
25327W        W93690   7.172  25.079   1.374
25328W        W93691   9.324  18.549  12.029
25329W        W93692  31.031  14.693  10.517
25330W        W93693  15.164  20.165   4.599
25331W        W93694  30.567  42.872   2.870
25332W        W93695  43.919  38.403   2.236
25333W        W93696   8.739  20.666   2.395
25334W        W93697   8.724   1.362   0.476
25335W        W93698  24.547  29.610  12.885
25336W        W93699   6.378   0.973   1.427
25337W        W93700  26.155  27.555   3.731
25338W        W93701  19.729  34.615  10.047
25339W        W93702  30.948  29.938  14.378
25340W        W93703  14.696   2.225  10.938
25341W        W93704  16.756  22.619  10.528
25342W        W93705  10.635  31.087   3.255
25343W        W93706  30.033  44.444   4.234
25344W        W93707  13.842  16.721   1.908
25345W        W93708   9.698  20.748   4.791
25346W        W93709  16.724  29.011  11.914
25347W        W93710  23.224   4.401  11.379
25348W        W93711  25.215  36.350  14.463
25349W        W93712   2.770  39.887   3.199
25350W        W93713   9.309  19.774   0.421
25351W        W93714   0.452  22.142  13.925
25352W        W93715  12.326   1.948  11.045
25353W        W93716  16.605  23.059  11.444
25354W        W93717  12.282  12.154   3.298
25355W        W93718  44.967  25.676  14.407
25356W        W93719  25.135   1.450  12.410
25357W        W93720  24.985  11.725   0.247
25358W        W93721  37.948   6.797   2.707
25359W        W93722   5.759  25.710  10.940
25360W        W93723  34.519  43.847  12.021
25361W        W93724  13.618   1.828  13.368
25362W        W93725  23.186  19.735  13.483
25363W        W93726  29.659  22.160  13.308
25364W        W93727  40.013  13.741  14.387
25365W        W93728   2.848  17.177  13.005
25366W        W93729   2.852  19.689  11.950
25367W        W93730  32.038  20.185   5.171
25368W        W93731   6.373  20.160  12.919
25369W        W93732   9.698  34.109  14.017
25370W        W93733   5.760  14.814  10.428
25371W        W93734  32.073  21.519   1.830
25372W        W93735   0.345  23.603   5.691
25373W        W93736  13.219  22.243  14.363
25374W        W93737  27.963  13.228   2.359
25375W        W93738   8.846  40.905  12.505
25376W        W93739  35.947  27.491   4.674
25377W        W93740   5.724  25.194   4.611
25378W        W93741  40.999  43.889   1.265
25379W        W93742  30.104   6.377   3.206
25380W        W93743  39.512  40.408   2.711
25381W        W93744   9.316  38.915  14.890
25382W        W93745  33.595   8.853   2.288
25383W        W93746  27.651   7.390   1.845
25384W        W93747  42.985   8.402  12.366
25385W        W93748  37.874  13.302  14.395
25386W        W93749  33.077   6.283  12.004
25387W        W93750  25.592  27.529   2.691
25388W        W93751   3.248  13.846  14.442
25389W        W93752  32.518  18.114   5.242
25390W        W93753  22.669   6.704   2.206
25391W        W93754  26.166  36.980   4.831
25392W        W93755  25.647  36.497  14.423
25393W        W93756  16.635  43.370  11.383
25394W        W93757  12.802   1.922   4.784
25395W        W93758   5.234   2.311  11.857
25396W        W93759   9.740   8.246  11.466
25397W        W93760   5.268  31.130  11.995
25398W        W93761  16.180  19.126   0.480
25399W        W93762   5.872  44.854  14.839
25400W        W93763  39.388  23.164   0.898
25401W        W93764  35.011   4.221  13.371
25402W        W93765  12.250  30.917  11.566
25403W        W93766  42.017   5.230   3.864
25404W        W93767   8.278   6.294   3.791
25405W        W93768  11.141  12.180  12.062
25406W        W93769  26.526  18.184  10.037
25407W        W93770   3.441  28.601  10.574
25408W        W93771  39.455  10.653  12.499
25409W        W93772   6.283   4.442  12.489
25410W        W93773  30.158  17.636   4.786
25411W        W93774  38.446   0.393   4.638
25412W        W93775  21.116  26.573   5.279
25413W        W93776  20.137  39.392   0.394
25414W        W93777   0.952  35.915   3.200
25415W        W93778  36.918  16.123  12.509
25416W        W93779  43.003  30.490  10.639
25417W        W93780  25.556   1.865  12.859
25418W        W93781  36.962  24.586  10.416
25419W        W93782  43.290   2.466  11.118
25420W        W93783  31.416   5.275  11.017
25421W        W93784  42.989  34.121   1.917
25422W        W93785  34.413  28.987  13.035
25423W        W93786   6.216  35.462  12.938
25424W        W93787  30.094  13.801   1.295
25425W        W93788   9.737  26.632  11.374
25426W        W93789   2.732   3.402   0.766
25427W        W93790  23.212  11.674  14.497
25428W        W93791  17.208  33.499   2.331
25429W        W93792  38.361  34.014  11.539
25430W        W93793   4.268  16.613   4.645
25431W        W93794  19.596  36.891  14.488
25432W        W93795  19.723  33.466   3.150
25433W        W93796  20.641  11.760  12.454
25434W        W93797   0.444  34.548  11.571
25435W        W93798   8.239  17.602   2.303
25436W        W93799   1.274  16.168   0.385
25437W        W93800  16.695  42.800   1.378
25438W        W93801   8.818  29.502  11.519
25439W        W93802  12.630   2.899  11.383
25440W        W93803   8.360   3.722   1.326
25441W        W93804   5.835   6.779  13.430
25442W        W93805  12.206  24.106  12.450
25443W        W93806  29.633  23.051  10.409
25444W        W93807  15.659  27.091  12.870
25445W        W93808   6.695  32.423   1.855
25446W        W93809  20.699  29.150  12.939
25447W        W93810  29.085   2.763  13.978
25448W        W93811  21.208  29.123   4.298
25449W        W93812  24.585  41.029  11.981
25450W        W93813  11.687  21.134   0.739
25451W        W93814  24.992  15.132   4.135
25452W        W93815   3.458   6.686  13.415
25453W        W93816   8.825  15.764  12.879
25454W        W93817  24.166  21.196  13.424
25455W        W93818  34.409  25.101  11.890
25456W        W93819  26.998  31.497   3.262
25457W        W93820  36.843  28.967  11.449
25458W        W93821   9.743   9.302   4.834
25459W        W93822  39.056  11.846   4.618
25460W        W93823  20.650  41.836   0.438
25461W        W93824  26.990  28.559  12.433
25462W        W93825   8.194  12.254   4.136
25463W        W93826  10.304  17.062  10.969
25464W        W93827  36.427  18.559  13.406
25465W        W93828   1.853  41.944  10.982
25466W        W93829  19.160   6.223   1.811
25467W        W93830  25.114  34.487   0.930
25468W        W93831   5.337  20.092   2.697
25469W        W93832  23.617  18.714  14.931
25470W        W93833  23.110   4.270  14.794
25471W        W93834  31.562  26.478  11.955
25472W        W93835  32.442  43.989   2.738
25473W        W93836   3.373  35.527   0.297
25474W        W93837  10.148  16.259   4.734
25475W        W93838  36.087   2.897   2.681
25476W        W93839  34.889  13.295   1.369
25477W        W93840  41.875   7.226  13.920
25478W        W93841  29.429   1.334  13.414
25479W        W93842  28.099  42.946   4.781
25480W        W93843  20.257  16.156  13.949
25481W        W93844  14.826  38.546  14.769
25482W        W93845  18.252  33.604  10.944
25483W        W93846   9.267  24.091   2.868
25484W        W93847  27.629  35.969   0.814
25485W        W93848  41.472   2.742  14.030
25486W        W93849   1.768   0.321  10.420
25487W        W93850  37.944  23.579   4.691
25488W        W93851  26.089  19.243   4.628
25489W        W93852  12.164  21.026  13.822
25490W        W93853  17.294  34.054   3.697
25491W        W93854  27.991   4.398   2.285
25492W        W93855  20.745  20.203   0.446
25493W        W93856  12.613  26.207  14.003
25494W        W93857  41.919  29.655  11.428
25495W        W93858  23.608  44.914   3.817
25496W        W93859  10.834  43.809  13.976
25497W        W93860  15.254  39.528   0.462
25498W        W93861  33.404  38.025   4.342
25499W        W93862  32.403  22.593   0.841
25500W        W93863  34.454  35.590  12.928
25501W        W93864  32.573  19.278   4.764
25502W        W93865   3.857  34.094  13.999
25503W        W93866  18.759  29.494   2.785
25504W        W93867  44.957  26.667   5.098
25505W        W93868  26.483  19.151  12.969
25506W        W93869  41.023  27.590  11.077
25507W        W93870  13.180  12.168  13.990
25508W        W93871   7.217  39.924  13.064
25509W        W93872  12.218  37.519   1.291
25510W        W93873   8.389  15.216  12.563
25511W        W93874  28.615  42.976  14.473
25512W        W93875   1.961   9.868  13.849
25513W        W93876   6.820  18.220  13.512
25514W        W93877  24.520  10.288  12.440
25515W        W93878  39.327  39.041  11.898
25516W        W93879  40.450  43.908  14.421
25517W        W93880  22.700  11.167  11.958
25518W        W93881  26.523  22.700   1.816
25519W        W93882  15.669   4.348  12.532
25520W        W93883  23.680  32.585  12.051
25521W        W93884  33.934  22.153  12.091
25522W        W93885   8.721  12.228   4.190
25523W        W93886  34.927  39.430  14.477
25524W        W93887  41.038  41.374   2.840
25525W        W93888  22.692   7.398   2.864
25526W        W93889  10.138  33.441  13.425
25527W        W93890  14.142  43.809   0.337
25528W        W93891  10.829  20.191   1.761
25529W        W93892   2.957   0.750   1.771
25530W        W93893   4.835  23.061   3.749
25531W        W93894   5.878   3.810  14.851
25532W        W93895  33.619  40.471  14.428
25533W        W93896  21.153  43.283  11.048
25534W        W93897   1.285   2.746   2.382
25535W        W93898  15.776  22.651   3.766
25536W        W93899  44.289  28.951  11.023
25537W        W93900  28.050  39.406  12.064
25538W        W93901  28.500  39.836   2.669
25539W        W93902  22.126  28.655  14.467
25540W        W93903   3.815  44.326  12.041
25541W        W93904   1.766  44.268  13.444
25542W        W93905   1.741  17.587  10.515
25543W        W93906  13.279  30.944  14.003
25544W        W93907  12.291  36.062  12.490
25545W        W93908  34.098  31.615  11.004
25546W        W93909  44.833  23.568   0.253
25547W        W93910  33.514  18.085   3.157
25548W        W93911  13.233   4.291   4.160
25549W        W93912  37.029  23.088   2.339
25550W        W93913  22.057   1.302   2.844
25551W        W93914  26.076  17.782  11.872
25552W        W93915  19.625  13.138  10.516
25553W        W93916  44.874  37.454  13.541
25554W        W93917  44.488  19.604  10.594
25555W        W93918  12.826   8.684   2.760
25556W        W93919  12.759  37.472   2.255
25557W        W93920   7.779   8.327   0.951
25558W        W93921  32.391   0.388  11.453
25559W        W93922  13.214  14.162   1.355
25560W        W93923  15.736   2.740  10.414
25561W        W93924   6.196  12.627  11.062
25562W        W93925  25.628  21.214  14.341
25563W        W93926   4.891  14.320  13.997
25564W        W93927  17.246  15.192  12.928
25565W        W93928  39.535  30.515  13.368
25566W        W93929  44.275   8.787  14.905
25567W        W93930  43.492  10.232   3.684
25568W        W93931  26.625  27.524  11.374
25569W        W93932  44.505  38.019   3.692
25570W        W93933   5.840  43.967   4.831
25571W        W93934  20.126   0.494  13.412
25572W        W93935   0.409  23.079  10.975
25573W        W93936  18.227  16.736  12.532
25574W        W93937   1.830  27.573   0.730
25575W        W93938  16.173  18.262   2.202
25576W        W93939   9.666  26.145  13.931
25577W        W93940  33.431  14.237  10.563
25578W        W93941  30.079   8.722  12.407
25579W        W93942   5.859  11.648  14.962
25580W        W93943   9.820  37.000   3.683
25581W        W93944  27.984   7.302   2.419
25582W        W93945  32.946  38.563   2.733
25583W        W93946  28.051   5.917   3.694
25584W        W93947  21.099  42.807  12.841
25585W        W93948  19.749  22.149  13.385
25586W        W93949  28.028   7.267  14.320
25587W        W93950   2.809  15.713   4.158
25588W        W93951  35.534  30.021  12.868
25589W        W93952  29.560  26.007   3.649
25590W        W93953  39.057  22.234   0.255
25591W        W93954  24.075  34.488  13.367
25592W        W93955  34.607  27.088   2.896
25593W        W93956  20.267  30.487  13.058
25594W        W93957  32.923  11.285   1.877
25595W        W93958  29.623  40.907   3.207
25596W        W93959   6.686  29.430  13.058
25597W        W93960  23.232  37.903  12.090
25598W        W93961  37.437  21.232  10.590
25599W        W93962  19.713  44.009   2.207
25600W        W93963  19.534  12.300   2.793
25601W        W93964   9.346  38.984   0.936
25602W        W93965  14.773  30.580   1.362
25603W        W93966  26.062  26.505  13.478
25604W        W93967   7.819   7.397   1.734
25605W        W93968   3.447  43.478   0.393
25606W        W93969   4.897  21.252  12.999
25607W        W93970   4.215  27.466   0.961
25608W        W93971  30.418  28.103   2.380
25609W        W93972   2.940  28.518  14.847
25610W        W93973  10.186  23.580   1.719
25611W        W93974  41.440   1.350   4.220
25612W        W93975  28.659  36.923  14.845
25613W        W93976  40.900   8.701   0.904
25614W        W93977   7.354  15.097  12.418
25615W        W93978  16.079  41.412  14.031
25616W        W93979   9.279  23.574  13.029
25617W        W93980  36.380  33.506  11.536
25618W        W93981  32.125   8.378  14.460
25619W        W93982  22.242  37.965   3.204
25620W        W93983  28.148  16.290   5.191
25621W        W93984  13.306  20.249   1.916
25622W        W93985  40.353  11.371   4.113
25623W        W93986   6.318   6.856   9.967
25624W        W93987  44.409  29.143  14.867
25625W        W93988  12.712  40.984  11.537
25626W        W93989  20.758   9.673   1.732
25627W        W93990  26.058   3.291  11.973
25628W        W93991  34.881  24.655  11.045
25629W        W93992  32.142  25.165   0.897
25630W        W93993  39.026  24.544   4.801
25631W        W93994  21.594  15.655   3.858
25632W        W93995  42.986  26.643   0.798
25633W        W93996   9.200  26.520   2.267
25634W        W93997  25.184  42.845  13.530
25635W        W93998  42.323  14.177   0.314
25636W        W93999  43.805  18.683   0.731
25637W        W94000  23.048  22.686   4.170
25638W        W94001  20.195  43.442  13.496
25639W        W94002  32.027  38.354  10.423
25640W        W94003  12.170  36.425   2.248
25641W        W94004  13.197   8.660  12.907
25642W        W94005   0.389   0.846  13.518
25643W        W94006  10.857  10.860  10.527
25644W        W94007  24.495  21.630   4.283
25645W        W94008   7.758  21.523   0.478
25646W        W94009  29.095  11.135   2.785
25647W        W94010  18.216   4.704  13.938
25648W        W94011  34.992  35.414   3.147
25649W        W94012  21.022   1.445   0.407
25650W        W94013  37.448  16.735   4.655
25651W        W94014  28.121  39.342  10.910
25652W        W94015   3.415  28.172  14.869
25653W        W94016  40.400  16.140   2.809
25654W        W94017   2.772  35.572   1.212
25655W        W94018  38.828   7.786   0.953
25656W        W94019   5.338  29.921   2.717
25657W        W94020  12.641   9.849   1.333
25658W        W94021  11.236  23.566  12.067
25659W        W94022  16.693  24.075   0.917
25660W        W94023  19.112  27.673  11.405
25661W        W94024  34.553   1.760  11.059
25662W        W94025  18.221  25.556  12.844
25663W        W94026  19.214   0.973   3.799
25664W        W94027   4.400  10.329   2.708
25665W        W94028  14.739   6.892  13.952
25666W        W94029  33.976   1.884   2.233
25667W        W94030  33.877  20.108  10.483
25668W        W94031   8.729  11.787  11.433
25669W        W94032  31.635  28.066   1.904
25670W        W94033   1.334  16.098  13.036
25671W        W94034  23.634  14.213  12.021
25672W        W94035   8.745   0.294  11.932
25673W        W94036  29.552  28.562  14.297
25674W        W94037  22.653   7.202   1.892
25675W        W94038  21.653   3.429  10.536
25676W        W94039   6.333  10.820  12.892
25677W        W94040  37.087   0.417  12.486
25678W        W94041  19.256   7.694   1.383
25679W        W94042  35.108  22.641   4.158
25680W        W94043  15.755   2.236   2.757
25681W        W94044  23.710  32.895  12.919
25682W        W94045  23.686  21.199   3.762
25683W        W94046  20.150  37.516   2.679
25684W        W94047  43.443  30.498  11.469
25685W        W94048  36.372  41.859   1.450
25686W        W94049  16.220   7.173   4.116
25687W        W94050   0.426  17.791   1.762
25688W        W94051  21.665  37.937  13.449
25689W        W94052   7.753   3.767   0.251
25690W        W94053  25.003  30.440  12.075
25691W        W94054  34.505  21.544  12.455
25692W        W94055  13.656  37.377   1.920
25693W        W94056  26.582  36.925   0.382
25694W        W94057  22.643  31.007   3.280
25695W        W94058   8.888  20.738   4.129
25696W        W94059  13.182  10.787   4.737
25697W        W94060  15.815  15.745  13.910
25698W        W94061  41.021   1.878  13.458
25699W        W94062  30.915  25.175   2.205
25700W        W94063   3.785  13.601   4.251
25701W        W94064  36.888  33.893  11.050
25702W        W94065   8.164  40.821  12.499
25703W        W94066  28.080  34.037   0.439
25704W        W94067  38.958  16.627  13.352
25705W        W94068  25.688   2.769  14.835
25706W        W94069  11.299   6.321   2.732
25707W        W94070  30.474  16.635  14.443
25708W        W94071   3.812  11.776  12.415
25709W        W94072  16.124  35.102   0.835
25710W        W94073  15.754   7.803  13.519
25711W        W94074   4.784  35.033  11.887
25712W        W94075   2.242  11.233  12.464
25713W        W94076   4.834   6.255   3.743
25714W        W94077   8.282  27.458   0.957
25715W        W94078  37.043  38.454  14.023
25716W        W94079  15.324  37.938  13.465
25717W        W94080  12.298   9.667  11.901
25718W        W94081  21.717  22.663   4.131
25719W        W94082   4.417  17.085  13.934
25720W        W94083  10.645  12.758  14.904
25721W        W94084  42.974  31.990   2.796
25722W        W94085  14.184  44.922   3.673
25723W        W94086  34.439  37.888  13.887
25724W        W94087  35.567  37.350  12.983
25725W        W94088  30.621  17.593  13.362
25726W        W94089  35.991  31.471  14.333
25727W        W94090   7.800  31.580  12.904
25728W        W94091   6.812  35.400   4.683
25729W        W94092  18.576  15.639   4.645
25730W        W94093  24.566  20.248   0.428
25731W        W94094  42.943  21.199  12.014
25732W        W94095  36.411  29.527   9.923
25733W        W94096  10.241  23.072  12.027
25734W        W94097  30.624  34.491   2.683
25735W        W94098  40.880  34.443   3.852
25736W        W94099  22.505   5.290   0.798
25737W        W94100  15.715   6.412  10.896
25738W        W94101  29.587   6.725  13.877
25739W        W94102  16.791  28.652   3.719
25740W        W94103  39.911  36.930  11.456
25741W        W94104  19.183  27.584   1.767
25742W        W94105  20.122  35.475   3.718
25743W        W94106   5.228  20.184   0.962
25744W        W94107  37.521  31.896   3.649
25745W        W94108   0.425  34.382  13.013
25746W        W94109   3.806  41.378   4.184
25747W        W94110  40.050  33.892   4.348
25748W        W94111  25.650  25.678  13.337
25749W        W94112  42.343  21.629   3.679
25750W        W94113  18.698  24.127  13.393
25751W        W94114  16.739  42.868  11.405
25752W        W94115  11.865  17.599   0.286
25753W        W94116  36.455   0.448   2.831
25754W        W94117  26.094  19.757  14.332
25755W        W94118   1.899  33.417   1.825
25756W        W94119  43.272  12.797   2.755
25757W        W94120   7.695  13.181  12.460
25758W        W94121   4.939  10.208   4.755
25759W        W94122  34.938   2.862   3.681
25760W        W94123  33.046  27.092  13.444
25761W        W94124  31.092   1.363   1.707
25762W        W94125  24.984  23.521   2.767
25763W        W94126  22.654  20.076  12.395
25764W        W94127  27.112  33.395  14.450
25765W        W94128  36.557  33.884  14.987
25766W        W94129  39.314  29.975   3.271
25767W        W94130  20.132  34.964  14.841
25768W        W94131  21.580  18.234  12.493
25769W        W94132  43.771  33.539   0.459
25770W        W94133  12.632  36.025   1.928
25771W        W94134  33.107   1.320   0.859
25772W        W94135  31.975  25.601  10.611
25773W        W94136   3.910  11.280   4.747
25774W        W94137  23.149  35.516   0.327
25775W        W94138  19.637  36.408  13.977
25776W        W94139  31.103   9.693  11.072
25777W        W94140  26.139  31.071   2.305
25778W        W94141  13.184  39.388   1.857
25779W        W94142  31.016   7.238   0.911
25780W        W94143   1.845   7.320  11.108
25781W        W94144  29.581  29.100  11.977
25782W        W94145   1.850  42.797   2.246
25783W        W94146   5.915  22.585  13.835
25784W        W94147  17.253  24.044   0.433
25785W        W94148   4.367  44.758   0.780
25786W        W94149  43.269  10.734   2.799
25787W        W94150  11.857  24.097   1.287
25788W        W94151  38.408  12.267   0.365
25789W        W94152  19.218   3.795   2.699
25790W        W94153  43.782  31.574  13.838
25791W        W94154  40.360  16.591   3.806
25792W        W94155  18.111  18.555  12.438
25793W        W94156  16.237   3.413   3.348
25794W        W94157  38.947  23.161  12.439
25795W        W94158  41.496  34.121  13.416
25796W        W94159   4.843  14.268   1.731
25797W        W94160   8.238  38.851  13.814
25798W        W94161  43.414   0.254  11.400
25799W        W94162  37.047  18.116   4.615
25800W        W94163  29.062  30.513  12.996
25801W        W94164   5.821   0.933  12.371
25802W        W94165  42.333  40.844  14.868
25803W        W94166  44.433  21.029   3.662
25804W        W94167  22.697  39.471  12.462
25805W        W94168  17.164  42.919  14.802
25806W        W94169  21.667  36.474   1.890
25807W        W94170  24.079  24.654   1.322
25808W        W94171  34.509   0.800   9.534
25809W        W94172  36.872  26.608   2.408
25810W        W94173  29.498  33.972  14.362
25811W        W94174  15.788  33.971   4.258
25812W        W94175   5.319  39.368   0.464
25813W        W94176  11.683  37.888  14.413
25814W        W94177   8.233  23.501   3.670
25815W        W94178  19.688  27.636   1.306
25816W        W94179  43.795  23.072   3.718
25817W        W94180  32.453   3.269  14.407
25818W        W94181   6.387  37.061   3.370
25819W        W94182   3.292  31.983  13.516
25820W        W94183  30.604  34.397  14.789
25821W        W94184  38.343   1.822   2.311
25822W        W94185   2.831  24.674   5.803
25823W        W94186  22.196  18.631   3.232
25824W        W94187  14.255  14.640   5.101
25825W        W94188  41.394  19.135   2.265
25826W        W94189   2.313   4.854   0.763
25827W        W94190  36.047  21.224  12.414
25828W        W94191  11.181  14.111   4.172
25829W        W94192  21.742   1.974  10.965
25830W        W94193  34.042  43.382  13.820
25831W        W94194  19.197  35.481   0.433
25832W        W94195  22.085  27.657  13.498
25833W        W94196  19.064  31.552  11.959
25834W        W94197  16.796  12.703  14.800
25835W        W94198  27.072  42.803  11.929
25836W        W94199  33.002  10.264  12.402
25837W        W94200  32.928  41.294   4.323
25838W        W94201  24.612  23.017  11.497
25839W        W94202  12.664  32.594   4.762
25840W        W94203  26.093  37.345   1.853
25841W        W94204  20.617   6.861   4.792
25842W        W94205  30.922  42.856  13.417
25843W        W94206  29.478  19.231   2.762
25844W        W94207  16.759  34.077  14.414
25845W        W94208  10.771  12.185   1.701
25846W        W94209  24.520  33.584  12.903
25847W        W94210   1.446   5.741  11.459
25848W        W94211  27.480  15.229   0.402
25849W        W94212   9.354  30.449   1.240
25850W        W94213  17.757  21.528   1.386
25851W        W94214   8.795  17.242   3.278
25852W        W94215  10.265  19.764   0.280
25853W        W94216  37.433   1.930   4.279
25854W        W94217  36.054  18.625   2.847
25855W        W94218  25.155  17.063  11.056
25856W        W94219   2.460   4.811   9.969
25857W        W94220  31.900  15.322   2.332
25858W        W94221  29.174   8.731   4.727
25859W        W94222   5.299   6.854   0.764
25860W        W94223  27.621  21.599  10.961
25861W        W94224  34.944  31.584  11.003
25862W        W94225  24.632  23.082   2.409
25863W        W94226  12.793   5.858   1.836
25864W        W94227  41.300   8.676  10.528
25865W        W94228  25.103  43.919  13.473
25866W        W94229  34.876  38.933  14.993
25867W        W94230  40.518  17.638  13.380
25868W        W94231  18.164  26.056   2.712
25869W        W94232  20.172  29.993  11.947
25870W        W94233  42.426  28.178  10.979
25871W        W94234  28.054  41.479   4.789
25872W        W94235  12.741   2.422  11.126
25873W        W94236  22.649   7.314   9.928
25874W        W94237   6.311   5.354  14.987
25875W        W94238  16.125  15.297  14.353
25876W        W94239   2.385   8.871  14.008
25877W        W94240  11.632  38.344  10.932
25878W        W94241  17.716   8.336  12.904
25879W        W94242  10.139  12.187   0.329
25880W        W94243  31.071  25.218   0.273
25881W        W94244   7.229  18.578   2.367
25882W        W94245  24.084  33.100  12.885
25883W        W94246  26.073  40.456  11.578
25884W        W94247   9.812  37.901   1.744
25885W        W94248  24.167  28.594  11.078
25886W        W94249  12.625   2.267  14.778
25887W        W94250  20.265  25.530  10.617
25888W        W94251  38.877  31.969  13.410
25889W        W94252  38.011  17.103   3.379
25890W        W94253  42.372   6.888  10.592
25891W        W94254   7.725  29.922  12.857
25892W        W94255  32.634  27.590  10.489
25893W        W94256  24.659   2.874   0.287
25894W        W94257   4.435  25.515   1.865
25895W        W94258   4.366   5.363  11.876
25896W        W94259  38.993  32.633  14.468
25897W        W94260  22.665  13.832  10.429
25898W        W94261   4.390  44.474  14.912
25899W        W94262   6.778  35.550  10.529
25900W        W94263  18.784  30.463  12.842
25901W        W94264  43.834  27.094  10.572
25902W        W94265  21.634  42.456  11.919
25903W        W94266  15.257   9.834  10.497
25904W        W94267  40.310   7.330  11.926
25905W        W94268   4.315   1.740   2.281
25906W        W94269  30.028  24.503   3.295
25907W        W94270  17.135  38.994  13.316
25908W        W94271  36.538  31.538   2.200
25909W        W94272  30.444  25.545  10.509
25910W        W94273  16.600   5.419   4.154
25911W        W94274  11.723   5.928   4.226
25912W        W94275  33.488  29.101  14.999
25913W        W94276  18.789  36.353   2.753
25914W        W94277  34.956  23.994  12.019
25915W        W94278  29.434   7.231  12.093
25916W        W94279  34.465  30.511  14.019
25917W        W94280  25.661  41.999   0.871
25918W        W94281  25.019  13.301   2.861
25919W        W94282  24.502  14.202   4.141
25920W        W94283  39.422  19.266   4.142
25921W        W94284  28.003   9.218  12.351
25922W        W94285  20.130  44.295   3.238
25923W        W94286  20.047  19.155   0.913
25924W        W94287  30.639   9.771   3.737
25925W        W94288   9.805  16.252  13.039
25926W        W94289  19.776  43.993   0.454
25927W        W94290  19.711  26.968  12.840
25928W        W94291  15.149   3.933   4.234
25929W        W94292  28.544  39.339   4.259
25930W        W94293  29.489  36.986   3.168
25931W        W94294  41.811  30.916   1.226
25932W        W94295  43.994  31.012   4.209
25933W        W94296  40.950  36.396  12.024
25934W        W94297   8.318  22.517   2.899
25935W        W94298  14.670  16.249   0.294
25936W        W94299  17.117   0.455   9.989
25937W        W94300   9.281  20.677  11.437
25938W        W94301  39.516  20.067  12.468
25939W        W94302  21.204  29.121  11.991
25940W        W94303   5.332  32.622   3.862
25941W        W94304  36.358  18.076  10.104
25942W        W94305  24.547  11.839  12.514
25943W        W94306  24.130  43.316   1.401
25944W        W94307   6.274  41.415  11.911
25945W        W94308  28.022  41.984  12.343
25946W        W94309  13.259  34.908  14.791
25947W        W94310   7.806  18.604  11.048
25948W        W94311  18.627  25.123   9.938
25949W        W94312  41.940  20.728   3.376
25950W        W94313   8.753  37.040  11.532
25951W        W94314  29.976  16.304  10.900
25952W        W94315  27.566   0.293  12.447
25953W        W94316  19.247  36.491   2.855
25954W        W94317  38.554   6.426  13.499
25955W        W94318  32.892  29.962   1.694
25956W        W94319  12.754   5.295   2.347
25957W        W94320  37.438  11.737   2.715
25958W        W94321  31.923  10.726   3.831
25959W        W94322   7.713  29.554   2.415
25960W        W94323  40.460  44.988   4.655
25961W        W94324  18.749   4.380   2.220
25962W        W94325  10.662  34.553   2.895
25963W        W94326  33.076  11.681  12.345
25964W        W94327  41.043  25.210  14.818
25965W        W94328  27.630  18.630  11.449
25966W        W94329  24.723  30.074  11.070
25967W        W94330  21.633  24.985  13.906
25968W        W94331  10.290  15.657  14.337
25969W        W94332   7.303  36.842   1.865
25970W        W94333   5.783  34.478   4.661
25971W        W94334  17.757  42.343   9.968
25972W        W94335   7.840  24.701  13.954
25973W        W94336  26.477  10.749   5.251
25974W        W94337  26.589  32.498  12.381
25975W        W94338  32.142  22.020  11.955
25976W        W94339  20.676   0.914  14.979
25977W        W94340  28.601   6.706  14.369
25978W        W94341  11.179  18.148  14.015
25979W        W94342   8.794  38.024   2.314
25980W        W94343  31.956  38.488   0.307
25981W        W94344  19.628  36.527   1.804
25982W        W94345   9.764  10.347  10.953
25983W        W94346  31.143  19.705  10.108
25984W        W94347  34.582  19.775  10.558
25985W        W94348  43.403  36.586  11.596
25986W        W94349  27.136   2.768  13.413
25987W        W94350   1.379  12.229   1.834
25988W        W94351   6.205  38.358  12.038
25989W        W94352  30.477   1.801  13.868
25990W        W94353  42.517  26.644   1.910
25991W        W94354  17.604  22.206   2.783
25992W        W94355  11.741  38.519  10.621
25993W        W94356   6.386  22.510   2.693
25994W        W94357  13.814   4.292  12.921
25995W        W94358  17.746  20.583  11.939
25996W        W94359  20.557  12.734   2.779
25997W        W94360   1.870  15.764  11.604
25998W        W94361  26.569   8.302   4.318
25999W        W94362   3.228  28.639   2.662
26000W        W94363  30.520  37.445  10.056
26001W        W94364  35.500  21.079   3.280
26002W        W94365   1.832  10.203  10.911
26003W        W94366   3.449   4.872   3.746
26004W        W94367  19.246  28.627  14.401
26005W        W94368  11.821  37.400   2.348
26006W        W94369  26.534  31.132  14.004
26007W        W94370  29.123  35.932   1.441
26008W        W94371  44.924  24.625   1.799
26009W        W94372  41.812  33.899   1.844
26010W        W94373  39.019  43.995  14.939
26011W        W94374  37.539   0.473   4.217
26012W        W94375  34.500  14.792   4.313
26013W        W94376  37.875   2.755  12.368
26014W        W94377  38.347  25.994  12.364
26015W        W94378  14.119  19.570   0.397
26016W        W94379  26.577  28.129  14.338
26017W        W94380   9.266  41.929  12.987
26018W        W94381  11.215   5.266   0.819
26019W        W94382  21.713  30.115  14.388
26020W        W94383  26.652   5.363   4.224
26021W        W94384   0.492  37.982  13.883
26022W        W94385  17.574  39.343  14.399
26023W        W94386  32.536  15.719   2.789
26024W        W94387   3.286  39.924   0.264
26025W        W94388  28.643  16.157   4.254
26026W        W94389  33.440  26.107  10.457
26027W        W94390  16.788  40.407  12.354
26028W        W94391   9.827  34.385   1.704
26029W        W94392  13.769  36.982   2.411
26030W        W94393  26.051  24.979  13.885
26031W        W94394  13.321   6.252  11.886
26032W        W94395  11.253  27.623  14.454
26033W        W94396  28.049   2.869   3.313
26034W        W94397  22.237  36.407  13.496
26035W        W94398  37.058  24.019  12.014
26036W        W94399  34.584  36.924   0.388
26037W        W94400  29.925  32.917  13.321
26038W        W94401  11.730  17.729   3.232
26039W        W94402  12.207  27.546  14.876
26040W        W94403  12.685  37.488   4.263
26041W        W94404   7.182   5.750   3.280
26042W        W94405  38.949  28.523   3.158
26043W        W94406  38.472   3.393  14.424
26044W        W94407  42.842  18.696   0.728
26045W        W94408  24.662  32.413  12.046
26046W        W94409  26.075   5.788  12.507
26047W        W94410   2.305   7.375   2.306
26048W        W94411  14.271   5.420  13.027
26049W        W94412  39.379  11.682  12.860
26050W        W94413  23.232   7.232   1.745
26051W        W94414   5.722  44.943  11.375
26052W        W94415   5.695  39.912  12.045
26053W        W94416  25.675  35.938  11.531
26054W        W94417  28.050  32.614  12.454
26055W        W94418  35.899  26.184   1.905
26056W        W94419  37.909  29.071   4.316
26057W        W94420  12.124  43.980  14.449
26058W        W94421  16.276  24.691   2.801
26059W        W94422  18.094  12.311   3.813
26060W        W94423   1.341  19.081   3.175
26061W        W94424  10.648   6.213   0.801
26062W        W94425  37.345  32.912  12.895
26063W        W94426  20.076  22.703   3.233
26064W        W94427   4.837  29.008   3.701
26065W        W94428  38.023  41.365  11.417
26066W        W94429  39.860  26.568   0.778
26067W        W94430  10.741   0.312   2.779
26068W        W94431  17.119  23.207   4.823
26069W        W94432  29.048  16.292   1.729
26070W        W94433   5.248   5.427  12.001
26071W        W94434  34.475  15.646  10.571
26072W        W94435  23.234   7.690   4.237
26073W        W94436  35.888  44.003   2.880
26074W        W94437  39.327   6.758   3.702
26075W        W94438  39.508  35.482   3.828
26076W        W94439  28.458  20.757   4.297
26077W        W94440  16.602  17.722  14.923
26078W        W94441   0.365  17.159  12.083
26079W        W94442  39.014  34.597   0.262
26080W        W94443  11.308  19.536   1.771
26081W        W94444  44.980  14.707   4.655
26082W        W94445   2.754  34.609   1.746
26083W        W94446  36.470  44.848  10.887
26084W        W94447  31.446  11.180  14.347
26085W        W94448  23.177  31.517  14.366
26086W        W94449  24.097  23.195  11.092
26087W        W94450  10.280  26.685  11.959
26088W        W94451  36.569  20.714   3.327
26089W        W94452  17.242  29.532  12.557
26090W        W94453  39.874   8.661  14.375
26091W        W94454  35.436  14.616  10.602
26092W        W94455   2.254   8.749  11.939
26093W        W94456  39.364   4.899  12.033
26094W        W94457  44.873  19.600  10.409
26095W        W94458  35.371  18.115   2.686
26096W        W94459   9.876  36.058  10.446
26097W        W94460   0.837  41.844   0.864
26098W        W94461  22.623   6.233   2.180
26099W        W94462   0.869  34.405  12.357
26100W        W94463  25.174   8.758  13.519
26101W        W94464  32.090  33.057   3.335
26102W        W94465   8.785  10.357   1.845
26103W        W94466   0.327  34.407  13.325
26104W        W94467  19.263  35.938   1.299
26105W        W94468  18.663  15.679   0.916
26106W        W94469  11.768  19.658   0.770
26107W        W94470  14.150  21.551   0.251
26108W        W94471  20.669  21.151   4.647
26109W        W94472   5.771  30.440   0.473
26110W        W94473  40.028  34.043   0.389
26111W        W94474   5.806  36.900  14.291
26112W        W94475   9.227  10.656  11.435
26113W        W94476   8.195  13.250  12.979
26114W        W94477  44.326  44.346   0.468
26115W        W94478  18.124  44.388  14.759
26116W        W94479  14.745   8.237   2.800
26117W        W94480  23.667  24.526   2.749
26118W        W94481  41.937  30.510   4.115
26119W        W94482  21.145   9.288  13.797
26120W        W94483   1.251  35.369  11.930
26121W        W94484  10.859  23.528   0.893
26122W        W94485  31.018   4.740  13.331
26123W        W94486  32.126  39.848  13.447
26124W        W94487  11.835  25.041   1.239
26125W        W94488  27.108  14.646  11.548
26126W        W94489   3.219  30.099   1.304
26127W        W94490  11.684  15.318   4.332
26128W        W94491  20.688  28.482  12.023
26129W        W94492  26.637   1.312   1.918
26130W        W94493   0.486  30.021  13.919
26131W        W94494  25.151   0.972  12.085
26132W        W94495  27.003  25.066  13.479
26133W        W94496  37.447  36.069   1.696
26134W        W94497  40.425  43.448   0.360
26135W        W94498  13.599   3.794   3.366
26136W        W94499  21.173   8.280   4.802
26137W        W94500  14.775  35.109   4.629
26138W        W94501   2.452  37.863  12.403
26139W        W94502   0.462  30.530  10.908
26140W        W94503   0.916  16.174   2.680
26141W        W94504   8.366  17.790  11.008
26142W        W94505  39.961   2.748   1.718
26143W        W94506  28.434  15.663   5.744
26144W        W94507  25.145  41.421  13.804
26145W        W94508  31.956   8.725   2.680
26146W        W94509   0.321   0.833  12.089
26147W        W94510   1.745  20.581  12.072
26148W        W94511  18.077  18.244   0.954
26149W        W94512  21.175  11.197  11.981
26150W        W94513   6.801   7.691  10.461
26151W        W94514  35.088   6.873   2.291
26152W        W94515  36.074  40.487   0.751
26153W        W94516  13.331   1.952  10.552
26154W        W94517  17.087  42.521   2.392
26155W        W94518  15.276  21.627   4.275
26156W        W94519  15.175   9.386   4.191
26157W        W94520  25.494  25.214   5.247
26158W        W94521  25.215   2.777  11.525
26159W        W94522   8.789  38.398   3.791
26160W        W94523  16.183  26.696  14.404
26161W        W94524   8.671   9.670  12.047
26162W        W94525  41.852  40.448   0.463
26163W        W94526  36.943  26.953  13.502
26164W        W94527  13.343  22.502  12.507
26165W        W94528  39.863  10.262  13.949
26166W        W94529   4.828   1.781  11.374
26167W        W94530   5.928  11.203   0.332
26168W        W94531   7.193  17.257   3.222
26169W        W94532  30.940  40.905   0.264
26170W        W94533  16.708  17.162  10.039
26171W        W94534  13.689  20.581   4.630
26172W        W94535   6.812   4.776   4.285
26173W        W94536  15.328  35.967   2.711
26174W        W94537  13.230  25.568   2.773
26175W        W94538   2.244  30.636  11.007
26176W        W94539   4.751  29.132  11.592
26177W        W94540  30.986  35.961  11.439
26178W        W94541  21.524   9.784  12.987
26179W        W94542   9.300  15.703   1.751
26180W        W94543  40.003  25.021  14.990
26181W        W94544  16.267   9.192  13.893
26182W        W94545  41.990  37.000   2.748
26183W        W94546  27.104   0.867   0.754
26184W        W94547  12.749  22.618  13.867
26185W        W94548  15.716   4.220  13.001
26186W        W94549  19.138   4.743   0.439
26187W        W94550  24.685  20.130   2.803
26188W        W94551  20.114  22.617   0.918
26189W        W94552   4.838   2.401   1.924
26190W        W94553  15.685   8.718  14.335
26191W        W94554  34.533  10.352   4.238
26192W        W94555  33.625  28.001  11.111
26193W        W94556  10.654  31.132  12.452
26194W        W94557  20.130  16.256  11.464
26195W        W94558  18.597  36.899  10.565
26196W        W94559  14.118   4.321  11.537
26197W        W94560   1.458  27.517  13.923
26198W        W94561  28.570  36.043  10.480
26199W        W94562  40.433   2.955   1.765
26200W        W94563   7.176  28.434  12.547
26201W        W94564   4.345  15.577   3.381
26202W        W94565  40.971   5.921   4.230
26203W        W94566  43.804  15.181  14.793
26204W        W94567  19.162  30.937  12.866
26205W        W94568   4.903  12.611  12.408
26206W        W94569   5.362  11.199   2.728
26207W        W94570   5.746  29.040   2.258
26208W        W94571  35.506   8.772  12.538
26209W        W94572  40.009  40.996   3.775
26210W        W94573  14.245   5.774   3.374
26211W        W94574  34.941   7.204  11.385
26212W        W94575  29.423  38.041   2.180
26213W        W94576   6.778  27.639   2.832
26214W        W94577  29.644   5.829   2.725
26215W        W94578  22.165   3.445   1.428
26216W        W94579  35.517  23.509   3.309
26217W        W94580   9.174  28.072  14.860
26218W        W94581  29.634   0.477   4.275
26219W        W94582  29.996  39.361   3.828
26220W        W94583   7.772  38.362   1.843
26221W        W94584  12.757  12.721   4.743
26222W        W94585   0.490  10.732  12.394
26223W        W94586  35.970  27.003   1.366
26224W        W94587  34.392   3.242   2.347
26225W        W94588  40.866  10.639   0.928
26226W        W94589  44.298  33.052  13.905
26227W        W94590   9.870  23.227  12.929
26228W        W94591  22.506  37.440  12.825
26229W        W94592   0.816  16.694   1.376
26230W        W94593  32.612  17.229   1.730
26231W        W94594  42.315  13.602  14.477
26232W        W94595   2.435  35.391   4.790
26233W        W94596  14.806  31.440  10.536
26234W        W94597  36.483   8.716  11.102
26235W        W94598  26.566  39.444   3.767
26236W        W94599  25.994  43.929   0.438
26237W        W94600  35.886   8.662  12.897
26238W        W94601  23.037  38.444  13.548
26239W        W94602  21.196   1.466  12.828
26240W        W94603  17.074   0.871  12.061
26241W        W94604   0.264  28.615  11.056
26242W        W94605   6.864   3.791  11.528
26243W        W94606  26.672  14.289   3.153
26244W        W94607  18.779   6.681   4.756
26245W        W94608  20.710  41.962  12.086
26246W        W94609  26.199  31.517   2.833
26247W        W94610  26.984  21.675   4.203
26248W        W94611  38.852  32.085   1.791
26249W        W94612   4.316  18.758   2.407
26250W        W94613  26.638  37.932   1.332
26251W        W94614  20.669  31.115   2.681
26252W        W94615  29.933   6.298   2.416
26253W        W94616   0.425  16.204   0.272
26254W        W94617  40.889  32.595  12.441
26255W        W94618   7.676  22.065  12.568
26256W        W94619  12.688  13.760  13.851
26257W        W94620  19.125  41.959  11.544
26258W        W94621  13.600   7.832  10.939
26259W        W94622  29.552  26.960  12.889
26260W        W94623  38.045  27.103  12.341
26261W        W94624  22.517  17.590   3.269
26262W        W94625  31.600   2.826   3.196
26263W        W94626  37.473  23.554  14.458
26264W        W94627  20.273  30.098   3.868
26265W        W94628  22.228  36.870   0.318
26266W        W94629  15.106  23.676   3.299
26267W        W94630  17.149  42.027   3.672
26268W        W94631  32.128   3.750   4.722
26269W        W94632  33.392  21.631   2.844
26270W        W94633  32.541  43.856   3.280
26271W        W94634  29.134  15.287   1.387
26272W        W94635  35.861   9.873   2.807
26273W        W94636   3.724   1.965  11.601
26274W        W94637   9.647  32.934   0.775
26275W        W94638  31.630  32.554   1.282
26276W        W94639  38.863   9.221  11.926
26277W        W94640  37.832  33.096   1.210
26278W        W94641   1.827  37.850   2.893
26279W        W94642   5.693  32.585  10.932
26280W        W94643  27.607  16.799  13.501
26281W        W94644   7.909  38.411  12.026
26282W        W94645  29.139  33.530   0.308
26283W        W94646  28.141  28.951  14.921
26284W        W94647  32.458   1.449  10.107
26285W        W94648  43.766  13.702   2.301
26286W        W94649   6.298  30.091  12.347
26287W        W94650   1.815  32.011  10.955
26288W        W94651  29.498  42.317   0.756
26289W        W94652  38.427  35.482   4.663
26290W        W94653  34.996  23.076   2.744
26291W        W94654  34.488  16.798   4.819
26292W        W94655  37.501  34.038   3.827
26293W        W94656  38.400  44.807   0.938
26294W        W94657  16.133  11.774  12.466
26295W        W94658   9.782  22.241   3.282
26296W        W94659  14.193   0.348   4.222
26297W        W94660  21.040  18.175   4.700
26298W        W94661  18.253  12.283  13.368
26299W        W94662  18.699  15.647   2.264
26300W        W94663  23.112  23.607   2.412
26301W        W94664   6.699  36.013   4.237
26302W        W94665  18.175  15.240   2.882
26303W        W94666  18.131  34.038  12.559
26304W        W94667  17.565  11.237  11.377
26305W        W94668   7.897  42.831   1.865
26306W        W94669  20.533  36.372  12.914
26307W        W94670  19.077  39.808   4.820
26308W        W94671   1.855  11.161  11.000
26309W        W94672  20.171  36.865   3.192
26310W        W94673  11.833  27.067   2.419
26311W        W94674  43.462  17.792   0.436
26312W        W94675  38.958   8.738  10.591
26313W        W94676  27.631   6.821   2.809
26314W        W94677  33.397  11.298  12.048
26315W        W94678  29.967  12.318   0.304
26316W        W94679  34.530  35.065   0.412
26317W        W94680  22.689  11.721   4.696
26318W        W94681  28.071   3.409  11.113
26319W        W94682  26.457  10.656  11.126
26320W        W94683  36.534   0.815  11.395
26321W        W94684  27.019  44.331   2.839
26322W        W94685  30.439  40.427   2.319
26323W        W94686  22.165   2.777  14.916
26324W        W94687   0.423  37.085  14.339
26325W        W94688   3.431  20.237   0.414
26326W        W94689  27.142  22.168   2.240
26327W        W94690  33.033  15.253  11.031
26328W        W94691  37.927   5.278  14.886
26329W        W94692   2.369   8.353  13.452
26330W        W94693  19.669  18.147   3.332
26331W        W94694  25.669  25.028   0.379
26332W        W94695   2.720  36.076  12.021
26333W        W94696  12.759   2.269   4.788
26334W        W94697  41.969   9.886   3.720
26335W        W94698  19.612  18.213   3.719
26336W        W94699  11.344  18.663   3.767
26337W        W94700  44.762  20.555  14.277
26338W        W94701  15.284  43.365   2.351
26339W        W94702  41.802  24.610   0.785
26340W        W94703  27.983  23.190  14.507
26341W        W94704  20.582  38.432  10.978
26342W        W94705  41.909  43.940   4.714
26343W        W94706  27.044  35.398  12.507
26344W        W94707  20.725  11.799   1.901
26345W        W94708   1.849  20.233   2.713
26346W        W94709  31.595  23.730  12.824
26347W        W94710  11.735  16.161  11.108
26348W        W94711  11.290  18.695   4.320
26349W        W94712   9.251  34.515  10.930
26350W        W94713   4.331  22.683  14.482
26351W        W94714  22.006   0.370   4.770
26352W        W94715   8.857   7.880  11.885
26353W        W94716  22.577  31.129  12.542
26354W        W94717  36.997   9.853   2.838
26355W        W94718  35.098   1.430  10.135
26356W        W94719  19.047  27.649   0.945
26357W        W94720  36.369  13.231  12.907
26358W        W94721  14.315   2.279   5.168
26359W        W94722  25.085   5.289  11.059
26360W        W94723  42.487   6.272   0.832
26361W        W94724  16.141  41.948  14.318
26362W        W94725  34.467  31.497  12.912
26363W        W94726  39.489  43.767   0.293
26364W        W94727   7.372   0.868   1.357
26365W        W94728  42.922  41.423  14.390
26366W        W94729  21.061   2.932   4.838
26367W        W94730  43.798  11.176  10.503
26368W        W94731   7.183  13.672  13.840
26369W        W94732  36.549  14.704   0.823
26370W        W94733  15.268  16.315   3.165
26371W        W94734   2.239  26.568  10.909
26372W        W94735  36.903  24.986   3.819
26373W        W94736  42.413  23.199  14.958
26374W        W94737  24.545  27.060   3.277
26375W        W94738  39.987  17.724   0.468
26376W        W94739  33.571  13.323   3.215
26377W        W94740   6.409  43.956   0.850
26378W        W94741   5.414   4.254   4.126
26379W        W94742  15.289   3.381  12.831
26380W        W94743   3.866  24.214  14.003
26381W        W94744  26.165  22.521  14.939
26382W        W94745   9.735  21.136   3.181
26383W        W94746   0.904   2.237   2.375
26384W        W94747  40.359   1.760  12.057
26385W        W94748  25.545  21.045   2.746
26386W        W94749  13.776  12.727  10.515
26387W        W94750  19.125   6.913   1.449
26388W        W94751  22.505  16.627   3.760
26389W        W94752  41.956  19.618  11.997
26390W        W94753   4.357  24.719   1.736
26391W        W94754  44.905  43.459  12.419
26392W        W94755  25.541  36.974   0.840
26393W        W94756  34.577   0.761  14.019
26394W        W94757  16.100  11.293  12.086
26395W        W94758   9.819  34.398  10.546
26396W        W94759  12.356  21.651  11.474
26397W        W94760   0.394  31.971   0.775
26398W        W94761  11.692   1.907   5.224
26399W        W94762  33.409  30.508   4.688
26400W        W94763  28.178  17.780   4.824
26401W        W94764   1.351   7.896   3.697
26402W        W94765  14.783  23.009   0.844
26403W        W94766  17.261  16.601   9.470
26404W        W94767  26.549  36.913  11.043
26405W        W94768  42.921   4.813  11.081
26406W        W94769  27.666  29.123   4.326
26407W        W94770  29.066  14.761   0.736
26408W        W94771   7.688  22.686   4.768
26409W        W94772  29.986  22.702  12.434
26410W        W94773  39.426  16.721   2.345
26411W        W94774  10.344  17.677  11.882
26412W        W94775  22.580   6.807  11.047
26413W        W94776  31.616  22.686   3.335
26414W        W94777  32.065  37.410   0.774
26415W        W94778  22.139  24.002   0.820
26416W        W94779   0.443  10.377  12.433
26417W        W94780  20.562  23.174   3.702
26418W        W94781  31.963  33.547   2.793
26419W        W94782  41.991  34.604   2.810
26420W        W94783  33.578   0.853  12.389
26421W        W94784  43.273  14.160   2.319
26422W        W94785  21.262  25.149  12.427
26423W        W94786  26.955  26.692  14.375
26424W        W94787  27.143  33.126   4.611
26425W        W94788  40.896  15.679   4.807
26426W        W94789  42.883  31.473  14.032
26427W        W94790  11.334   2.962   2.723
26428W        W94791  33.466  37.367  14.323
26429W        W94792  38.984   9.344   1.715
26430W        W94793  27.000  24.018   2.290
26431W        W94794   0.431   2.462  14.795
26432W        W94795   7.269   9.680  12.346
26433W        W94796   4.847  40.477   5.318
26434W        W94797   7.189   1.246   4.140
26435W        W94798   8.386  36.386  13.327
26436W        W94799  15.735  10.281  11.490
26437W        W94800  18.111  42.996  13.394
26438W        W94801  28.624  15.304   2.193
26439W        W94802   9.227  17.175  10.640
26440W        W94803  28.655  10.166  10.436
26441W        W94804  17.662  43.298  14.858
26442W        W94805   0.782   2.814   4.123
26443W        W94806  13.143  42.998   2.859
26444W        W94807  18.127   8.819  13.050
26445W        W94808   2.875  23.523   2.771
26446W        W94809  34.043  24.139   3.870
26447W        W94810  10.677  18.707   3.693
26448W        W94811  19.702  18.159  14.459
26449W        W94812  18.727   0.274   0.838
26450W        W94813  43.495  27.952  14.401
26451W        W94814   1.440   0.271   5.570
26452W        W94815  27.561  44.801   1.413
26453W        W94816   2.822  28.536   1.220
26454W        W94817  21.057  38.918   1.397
26455W        W94818  31.903  42.810   9.952
26456W        W94819  31.467  26.602   4.228
26457W        W94820  12.128  12.199  11.061
26458W        W94821   7.871  33.413   3.241
26459W        W94822  20.686  36.040  14.371
26460W        W94823   9.815  21.511   1.874
26461W        W94824  41.472  34.378   0.445
26462W        W94825   8.657  15.099   0.354
26463W        W94826  39.813  13.831   1.303
26464W        W94827  23.067   1.838   0.309
26465W        W94828  19.539  40.419  14.341
26466W        W94829  25.156  24.114   0.355
26467W        W94830   6.201  21.082  13.053
26468W        W94831  38.898  23.112  11.606
26469W        W94832   9.766  31.119   0.929
26470W        W94833   0.901  13.179   0.770
26471W        W94834  27.654  38.539   1.840
26472W        W94835  16.705   1.405  12.956
26473W        W94836  20.696  26.170  11.980
26474W        W94837  30.488  12.216  14.961
26475W        W94838   8.272  32.082  11.958
26476W        W94839  44.995   8.242   2.873
26477W        W94840  39.839   8.325  14.765
26478W        W94841   3.814  37.445   4.712
26479W        W94842  30.432  10.835  13.343
26480W        W94843   9.194  36.566  11.982
26481W        W94844  21.533  14.681   1.837
26482W        W94845  15.302   8.332  14.329
26483W        W94846  38.469  17.698   3.665
26484W        W94847  23.502  44.403   1.728
26485W        W94848  12.759  37.548  11.518
26486W        W94849  36.088  23.049  13.967
26487W        W94850  37.868   4.836  12.052
26488W        W94851   6.757  29.610   0.872
26489W        W94852  27.187  36.362  13.821
26490W        W94853  19.618  26.968  10.981
26491W        W94854  28.070  43.464  11.066
26492W        W94855   5.204  23.984  10.588
26493W        W94856  20.663   6.270   0.266
26494W        W94857  35.933   9.334  11.042
26495W        W94858   2.964  13.143  12.057
26496W        W94859  43.000   7.762   0.803
26497W        W94860  11.773  17.678  10.440
26498W        W94861  10.138  14.795   0.269
26499W        W94862  15.267  25.156   1.308
26500W        W94863  33.616   4.762   4.677
26501W        W94864  41.441  38.043   0.816
26502W        W94865   7.814  16.173  11.387
26503W        W94866  10.154  27.561  10.495
26504W        W94867   3.270  37.977   2.854
26505W        W94868  30.577  35.398   4.290
26506W        W94869  35.936  21.204   3.679
26507W        W94870  25.086  11.204  11.443
26508W        W94871  43.848  15.310  12.549
26509W        W94872  29.644  41.043  11.009
26510W        W94873  27.141  11.806   3.318
26511W        W94874  17.119   9.787   1.269
26512W        W94875  17.739  41.877   5.315
26513W        W94876  22.013  25.166  14.503
26514W        W94877  18.655   5.849   1.840
26515W        W94878  22.666  44.803   2.880
26516W        W94879  44.263  29.159   3.653
26517W        W94880  36.093  42.443   0.883
26518W        W94881  23.501   0.364   2.771
26519W        W94882   5.325  10.790  13.360
26520W        W94883  38.466  10.704   3.305
26521W        W94884  27.669  10.825  13.843
26522W        W94885  42.827  25.083  13.035
26523W        W94886  23.572  32.951   1.319
26524W        W94887  42.027  37.858   5.160
26525W        W94888  37.352  33.996  13.414
26526W        W94889   4.902  44.394  14.811
26527W        W94890   6.795  21.045  11.372
26528W        W94891  16.280  19.228   4.724
26529W        W94892  22.103   6.908   3.795
26530W        W94893   5.402  13.657   3.674
26531W        W94894   6.708  37.487   1.426
26532W        W94895  44.866  30.442  12.460
26533W        W94896  27.144  42.459  14.495
26534W        W94897  43.778   6.857  13.962
26535W        W94898  36.932   6.273   2.197
26536W        W94899  39.001  16.093   3.848
26537W        W94900  39.875   8.746   0.855
26538W        W94901   5.402   5.712  12.932
26539W        W94902  42.521   2.398   3.765
26540W        W94903  34.984  30.009   0.444
26541W        W94904  21.024  38.396   1.863
26542W        W94905  16.774  39.951   3.714
26543W        W94906  36.981  31.473   0.349
26544W        W94907  26.958  44.321  10.009
26545W        W94908   1.797   1.290  13.503
26546W        W94909  32.919  25.178  13.013
26547W        W94910  10.226   9.713   9.995
26548W        W94911  25.472  25.694  12.414
26549W        W94912   3.257  19.089  14.817
26550W        W94913  14.113  24.561   1.441
26551W        W94914  23.557  25.653   3.378
26552W        W94915  10.686  42.984   0.415
26553W        W94916  28.588  16.711  11.051
26554W        W94917   6.335  18.684   2.715
26555W        W94918   5.752  34.432   0.920
26556W        W94919  30.959  44.430   3.824
26557W        W94920  11.260   5.729   3.854
26558W        W94921   4.429  11.702   4.284
26559W        W94922  41.365  19.137  14.283
26560W        W94923   3.904  24.519   0.453
26561W        W94924  34.110  28.538   4.811
26562W        W94925  35.582  16.236  13.965
26563W        W94926  24.602   1.953   3.845
26564W        W94927  13.322  28.182  10.034
26565W        W94928  21.137  31.129   5.210
26566W        W94929  32.569  17.206  13.313
26567W        W94930  22.099  34.605  11.125
26568W        W94931  40.014  23.096   3.653
26569W        W94932  39.030  42.284  12.356
26570W        W94933   1.898  16.667  10.925
26571W        W94934  35.994  34.080  14.459
26572W        W94935  34.957   2.445  12.389
26573W        W94936  41.442  35.589   3.295
26574W        W94937  26.579  37.363   2.760
26575W        W94938  14.167   1.391   3.742
26576W        W94939  24.015  21.727  11.923
26577W        W94940  28.010  24.203  12.035
26578W        W94941  31.648  40.944  14.881
26579W        W94942  30.912  38.958  13.842
26580W        W94943  24.639  22.196   4.722
26581W        W94944  28.465  26.117   2.808
26582W        W94945  14.676  25.110   1.810
26583W        W94946  19.226  18.741  14.002
26584W        W94947  20.765  33.510  12.500
26585W        W94948  25.543   4.699   1.403
26586W        W94949  39.859  28.536   1.759
26587W        W94950  14.177  23.675  12.523
26588W        W94951  43.308  35.860   3.650
26589W        W94952  28.116  29.168   4.597
26590W        W94953   0.952  37.078  14.392
26591W        W94954  41.807  22.509  13.907
26592W        W94955   5.433  43.951  14.988
26593W        W94956   7.365  43.892   3.637
26594W        W94957  43.377   4.712  12.887
26595W        W94958  30.072  33.883  12.020
26596W        W94959  18.698  30.605  14.489
26597W        W94960  24.018  35.061   0.728
26598W        W94961  11.785  24.200   4.200
26599W        W94962  16.777  17.789   3.752
26600W        W94963  44.799  24.694  13.842
26601W        W94964   9.343   3.912  14.006
26602W        W94965  20.589  28.602   4.783
26603W        W94966   0.401  24.682   3.321
26604W        W94967  11.765  15.326   1.872
26605W        W94968  12.194  12.620   1.886
26606W        W94969   5.805  13.148   3.330
26607W        W94970  12.857  44.824   1.395
26608W        W94971   3.225   4.230  11.125
26609W        W94972  19.076  13.723   0.413
26610W        W94973  13.228  11.353  12.838
26611W        W94974   2.441   3.293   5.261
26612W        W94975  41.022  39.383  14.372
26613W        W94976  42.984  44.322   0.835
26614W        W94977   5.295  11.863  14.970
26615W        W94978  38.061  39.523   0.321
26616W        W94979  43.278  38.531  10.428
26617W        W94980  17.633  18.274  13.447
26618W        W94981  11.299  27.160  14.466
26619W        W94982  10.643  15.308  14.890
26620W        W94983  11.803  12.831  13.846
26621W        W94984  19.227  25.964  14.797
26622W        W94985  36.516  16.190   0.387
26623W        W94986  37.544  36.937  14.010
26624W        W94987  36.997   8.896   4.632
26625W        W94988  14.693   9.205   3.386
26626W        W94989   2.230   5.429   2.412
26627W        W94990   4.784   4.224   1.421
26628W        W94991  19.606  32.887   1.716
26629W        W94992   9.820   6.355  14.920
26630W        W94993  15.600  35.041  13.923
26631W        W94994  31.945  17.109   1.299
26632W        W94995   6.766  39.486  11.965
26633W        W94996  38.552  30.126  11.609
26634W        W94997  29.557  27.149  12.429
26635W        W94998   7.315  39.897   1.798
26636W        W94999   3.883  43.840   3.710
26637W        W95000  37.016  32.469  11.532
26638W        W95001  42.422  37.466  11.099
26639W        W95002   5.892   7.199   3.276
26640W        W95003  25.644  40.525   4.291
26641W        W95004  22.677  33.487   1.409
26642W        W95005  25.180  36.585  13.509
26643W        W95006  19.674  35.552  10.507
26644W        W95007  16.271  32.452   3.318
26645W        W95008   1.361  14.099  14.913
26646W        W95009  38.352  20.603  13.484
26647W        W95010  40.886  34.527   1.352
26648W        W95011   4.885  31.967  13.029
26649W        W95012  33.467  33.018  12.824
26650W        W95013  28.171   4.301  12.435
26651W        W95014  42.841   4.930  14.994
26652W        W95015  20.571  24.556   4.793
26653W        W95016  28.453   5.908   0.936
26654W        W95017  16.191   1.423   0.906
26655W        W95018  30.982  27.080   4.702
26656W        W95019   1.299  17.610   0.351
26657W        W95020  26.140  20.706   0.802
26658W        W95021  13.141   0.426   1.698
26659W        W95022   6.836  38.821  13.353
26660W        W95023  31.529  23.595  11.602
26661W        W95024  34.394  39.898   4.290
26662W        W95025  22.092  14.207   3.294
26663W        W95026   8.756  14.708   3.694
26664W        W95027  30.083   9.326   3.824
26665W        W95028  18.199  29.082   4.296
26666W        W95029   0.260  26.473  11.061
26667W        W95030  21.196  31.955   1.854
26668W        W95031   9.372  15.305   0.461
26669W        W95032  27.664   7.337  11.545
26670W        W95033  25.469   0.391   0.297
26671W        W95034  35.864   1.423  10.636
26672W        W95035  19.607  30.915   0.334
26673W        W95036  26.000  43.913  12.399
26674W        W95037  41.957  26.674   3.801
26675W        W95038   0.290  39.513   1.926
26676W        W95039   6.335  44.394   1.902
26677W        W95040  21.642  22.524  10.117
26678W        W95041  20.260   1.305   2.885
26679W        W95042  16.090  30.913   0.383
26680W        W95043  30.092  33.395  14.279
26681W        W95044  38.940  23.118  13.405
26682W        W95045  23.513  27.609  11.427
26683W        W95046  11.151  41.397  12.407
26684W        W95047  39.547  16.689   4.282
26685W        W95048  28.615   7.355   1.831
26686W        W95049  30.473  20.266   0.266
26687W        W95050  29.979   5.231  11.990
26688W        W95051  37.047  41.818  13.502
26689W        W95052   2.441  21.669  11.401
26690W        W95053  10.646   0.954   0.790
26691W        W95054  28.536  10.350   4.254
26692W        W95055  21.042   4.823  12.085
26693W        W95056   5.733  29.501  10.524
26694W        W95057   2.294  42.984  11.577
26695W        W95058  17.656   7.773   3.673
26696W        W95059  30.065  20.169   0.294
26697W        W95060  19.741  30.609   0.286
26698W        W95061  11.822  41.924   3.333
26699W        W95062  24.607  37.885   0.301
26700W        W95063  30.551  31.123  10.538
26701W        W95064  15.674  25.043   2.745
26702W        W95065  15.691  15.742  10.487
26703W        W95066   6.232  14.625  11.093
26704W        W95067  17.688  23.513   1.320
26705W        W95068   6.762   0.373   4.276
26706W        W95069  29.130  38.838  11.570
26707W        W95070  11.728   8.890  10.445
26708W        W95071   6.336  32.899   0.372
26709W        W95072  37.371  15.311   3.834
26710W        W95073  35.101  22.228   2.900
26711W        W95074  21.612   7.224   3.770
26712W        W95075  18.080  12.643   3.256
26713W        W95076   3.938  29.135   3.853
26714W        W95077  20.605  10.364   4.695
26715W        W95078  41.447  20.735   1.911
26716W        W95079  11.257  37.448   3.704
26717W        W95080  21.204  30.506  12.454
26718W        W95081  43.967  13.814  11.450
26719W        W95082  43.927  27.168   0.243
26720W        W95083  17.094  23.591   1.898
26721W        W95084  29.058   6.750  13.344
26722W        W95085  12.353  30.505   0.274
26723W        W95086  10.870  39.891  13.347
26724W        W95087  31.485   6.356  10.950
26725W        W95088  36.499  43.945   2.781
26726W        W95089  21.190  28.645   0.923
26727W        W95090   0.806   8.189  10.482
26728W        W95091  13.735   3.744   2.662
26729W        W95092  11.645  20.273  12.547
26730W        W95093  35.967  14.308   2.335
26731W        W95094  23.163   3.719  11.970
26732W        W95095  42.464  29.636  12.488
26733W        W95096   4.904  26.041   3.823
26734W        W95097   0.806   5.807  12.874
26735W        W95098  21.156  43.402   3.365
26736W        W95099  31.411  11.836   0.931
26737W        W95100  21.085  10.684   4.624
26738W        W95101   3.919  17.274   4.600
26739W        W95102  34.529   0.329  10.142
26740W        W95103  14.804  41.487  11.399
26741W        W95104  37.065   4.775  13.457
26742W        W95105  29.045  17.293  12.883
26743W        W95106  15.314   2.855   3.848
26744W        W95107  43.321  33.411   4.264
26745W        W95108  38.994  38.046   3.676
26746W        W95109  41.472  29.083  12.379
26747W        W95110   7.810  33.950   0.347
26748W        W95111  10.339  29.602  13.866
26749W        W95112  16.282  16.188   4.330
26750W        W95113  36.886  40.918  10.973
26751W        W95114  41.823  13.794  12.892
26752W        W95115   7.827  31.935   0.376
26753W        W95116  30.136  19.233  13.374
26754W        W95117  21.660  31.603  13.887
26755W        W95118  12.220  43.376   0.873
26756W        W95119   4.798   9.748  11.858
26757W        W95120  44.446  35.919   3.834
26758W        W95121  30.582  32.943  11.488
26759W        W95122  17.145  15.768   1.389
26760W        W95123  36.526   7.766   0.339
26761W        W95124  31.123  32.637  14.470
26762W        W95125   0.438  18.160   2.698
26763W        W95126  30.578  26.688  11.945
26764W        W95127  11.766   9.695   4.723
26765W        W95128  44.445   0.353   5.088
26766W        W95129  44.782  27.105  10.574
26767W        W95130   6.277  11.316   4.308
26768W        W95131  16.679  38.858   4.191
26769W        W95132  13.739  32.558   2.194
26770W        W95133   2.372  43.910  13.457
26771W        W95134  20.045  10.378  13.959
26772W        W95135  40.879  25.062  14.298
26773W        W95136   2.287  43.478   5.254
26774W        W95137  42.365  35.907   5.310
26775W        W95138  37.878  19.751  12.016
26776W        W95139  26.654  40.405   4.199
26777W        W95140   4.850  42.335   0.365
26778W        W95141  40.438  37.406  10.130
26779W        W95142  17.742  26.117  11.595
26780W        W95143  36.579   2.301   4.206
26781W        W95144  29.101  39.404   2.321
26782W        W95145  43.768  16.666  10.433
26783W        W95146  10.335   5.804   0.245
26784W        W95147  10.224  34.549  14.337
26785W        W95148  41.986   6.404  12.022
26786W        W95149  38.989  28.929   4.250
26787W        W95150   5.879  37.964   4.620
26788W        W95151  35.445  15.707   1.428
26789W        W95152   0.315  13.310   0.440
26790W        W95153  30.945   7.892  13.989
26791W        W95154  15.208  13.841   0.480
26792W        W95155  39.909  43.796   3.373
26793W        W95156  11.348  38.880   2.732
26794W        W95157   5.856  29.158   2.728
26795W        W95158  20.720  10.182   1.783
26796W        W95159   9.723   8.214   2.703
26797W        W95160  42.889   4.324  12.412
26798W        W95161  16.249  12.129   1.339
26799W        W95162  29.975  43.988   2.223
26800W        W95163  37.858  23.233   0.425
26801W        W95164  43.774  44.367  11.522
26802W        W95165  40.037  30.926  12.875
26803W        W95166  21.737  37.415  11.473
26804W        W95167  11.228  37.418   1.345
26805W        W95168  18.612  42.954   1.758
26806W        W95169  14.739  38.382  12.499
26807W        W95170  15.142  16.652   2.718
26808W        W95171   3.853   4.251  11.514
26809W        W95172  19.726  31.501   0.946
26810W        W95173  34.479  28.475   4.736
26811W        W95174  12.791  43.470  10.942
26812W        W95175  37.362   0.456  14.982
26813W        W95176  16.198  11.777   1.895
26814W        W95177  41.953  35.886   2.346
26815W        W95178  41.508  44.411  11.902
26816W        W95179  41.807   7.343  10.603
26817W        W95180  13.305  25.520  14.921
26818W        W95181  23.607  12.661  13.383
26819W        W95182   9.742  18.095   1.348
26820W        W95183   8.379  10.756  14.866
26821W        W95184  36.355  20.651   2.410
26822W        W95185  35.035  31.018   4.738
26823W        W95186   8.719  16.259  10.560
26824W        W95187  31.070   3.411  14.382
26825W        W95188  28.181  37.929  11.577
26826W        W95189  38.371  13.322   1.253
26827W        W95190  44.287  16.115   4.180
26828W        W95191  36.974  10.752  10.493
26829W        W95192  10.344  40.802  14.410
26830W        W95193  37.918  17.640  10.629
26831W        W95194  39.891  18.265  11.024
26832W        W95195  19.757  26.479   1.897
26833W        W95196   9.736   2.404   0.321
26834W        W95197  27.482  43.466  14.409
26835W        W95198  14.293   9.838  12.089
26836W        W95199  32.888  41.930   2.709
26837W        W95200  37.544  18.555   0.421
26838W        W95201  36.483  39.994  13.417
26839W        W95202  26.466  26.952   3.844
26840W        W95203  34.034  28.048   1.371
26841W        W95204  35.081  19.743  13.323
26842W        W95205  32.119   9.344  13.875
26843W        W95206  38.877  36.447   9.935
26844W        W95207  16.681  33.965   4.664
26845W        W95208   6.806   2.349  11.381
26846W        W95209  36.350  10.855   3.272
26847W        W95210   6.201  29.143   4.730
26848W        W95211  29.996  31.627  12.925
26849W        W95212  26.003  44.859   3.159
26850W        W95213   7.322  17.573  12.555
26851W        W95214   5.267  17.159  14.795
26852W        W95215   7.254   6.886  11.917
26853W        W95216   1.902  27.658  12.955
26854W        W95217  17.638  33.083   0.836
26855W        W95218   6.806  37.873   2.771
26856W        W95219   6.778   4.927  10.965
26857W        W95220  20.254  11.225  14.838
26858W        W95221  32.009  42.785  13.022
26859W        W95222   6.357   2.444   4.697
26860W        W95223  30.618   6.719  11.418
26861W        W95224  29.940  25.562  11.084
26862W        W95225   2.931  15.764   0.906
26863W        W95226  37.003   5.733  12.534
26864W        W95227   2.241  29.095  11.116
26865W        W95228  42.885   3.839   3.370
26866W        W95229  43.786  37.510   1.720
26867W        W95230   9.331  42.840   2.265
26868W        W95231   2.818  17.106  11.455
26869W        W95232  10.336  10.763   2.348
26870W        W95233  36.407  13.272  14.769
26871W        W95234   4.254   5.237  12.946
26872W        W95235  21.738   3.284   0.372
26873W        W95236  13.629  34.114   0.798
26874W        W95237  33.121  15.083   2.300
26875W        W95238  13.138   5.389   2.878
26876W        W95239   1.328   9.390  11.459
26877W        W95240  16.590  28.620  12.949
26878W        W95241  19.147  36.538  10.567
26879W        W95242  39.455   9.293  14.428
26880W        W95243  10.767   2.862   0.837
26881W        W95244   6.828   8.263  11.914
26882W        W95245  11.808  40.804  11.047
26883W        W95246  16.076  33.063   2.796
26884W        W95247  21.650  18.697   4.303
26885W        W95248  35.021  39.937   4.729
26886W        W95249   4.390  25.149  11.027
26887W        W95250   4.230  33.435  11.569
26888W        W95251  26.205  42.444  10.899
26889W        W95252  22.631  40.886   0.386
26890W        W95253  18.120   7.850  13.370
26891W        W95254  16.645  14.231  11.934
26892W        W95255   4.831  29.021   1.300
26893W        W95256  15.761  31.639  12.513
26894W        W95257  39.879  26.515  11.879
26895W        W95258   9.800  22.127   4.697
26896W        W95259  41.037  18.068   3.855
26897W        W95260   8.746  37.498   1.347
26898W        W95261   6.381   5.862  12.502
26899W        W95262  34.524  24.050   1.796
26900W        W95263   3.807  21.742  12.978
26901W        W95264   9.262  13.822   2.213
26902W        W95265   0.887   7.412   1.858
26903W        W95266  16.131   7.809  11.070
26904W        W95267  40.327  39.467   2.387
26905W        W95268  39.532  34.995   2.703
26906W        W95269  17.289  24.049  14.776
26907W        W95270  34.458  35.432   1.275
26908W        W95271  16.282  26.586  12.484
26909W        W95272  35.518  16.760   2.366
26910W        W95273  42.958  37.966   2.179
26911W        W95274  16.676   5.736  11.857
26912W        W95275  38.446  13.663  12.362
26913W        W95276  10.804  11.685  13.801
26914W        W95277  26.615  21.211   0.343
26915W        W95278  15.685  23.528  14.029
26916W        W95279   2.875   6.268   4.692
26917W        W95280  42.409  31.428   3.743
26918W        W95281   7.776  14.725   4.826
26919W        W95282  23.177  32.631  14.476
26920W        W95283  18.673   1.770   4.710
26921W        W95284  42.316  29.475   4.622
26922W        W95285  34.577  41.861  13.471
26923W        W95286  11.305  12.360   2.288
26924W        W95287  26.556  26.015   1.304
26925W        W95288   0.899  37.845   5.297
26926W        W95289  32.546  38.031   2.898
26927W        W95290  23.158  21.702   3.357
26928W        W95291  27.018   0.382  13.040
26929W        W95292  36.566  20.643   0.814
26930W        W95293  13.724  35.935   2.784
26931W        W95294  19.699  43.311  12.407
26932W        W95295  34.001   1.794  11.964
26933W        W95296  23.032  24.146   2.302
26934W        W95297  40.313  12.160  14.503
26935W        W95298   0.255  40.906  13.993
26936W        W95299  42.793  26.555  11.990
26937W        W95300  16.242  17.205   1.390
26938W        W95301  28.487  24.597  14.448
26939W        W95302  34.572  24.194   1.327
26940W        W95303   6.810  26.611  12.842
26941W        W95304  42.955  40.469  10.628
26942W        W95305  40.934  24.719   1.388
26943W        W95306  40.317  22.181  14.423
26944W        W95307  42.472  35.093   1.857
26945W        W95308   1.372  42.950  14.000
26946W        W95309  36.059   5.715  13.032
26947W        W95310  14.612  19.128   3.217
26948W        W95311   9.321  33.554   3.289
26949W        W95312  17.250  29.612   3.693
26950W        W95313  26.601  28.080   4.295
26951W        W95314  29.466  25.060   2.379
26952W        W95315  14.287  11.371   2.722
26953W        W95316   0.482  27.518   3.683
26954W        W95317  41.487  25.053   2.816
26955W        W95318  38.074  40.336   1.876
26956W        W95319  23.987  17.150  14.492
26957W        W95320  13.351   8.214   2.190
26958W        W95321  16.308  24.074  12.093
26959W        W95322   0.285  14.191  14.466
26960W        W95323   3.860  20.116   2.352
26961W        W95324   0.910   6.309  10.908
26962W        W95325  13.694  10.685   1.857
26963W        W95326  13.145   3.294  10.129
26964W        W95327  44.805   1.973   4.320
26965W        W95328  33.029  21.734   3.260
26966W        W95329  33.607  13.782   4.232
26967W        W95330  11.292  18.207   3.368
26968W        W95331  10.371  27.025  14.808
26969W        W95332  36.402   7.205  11.512
26970W        W95333  34.924  28.147   2.735
26971W        W95334   8.821   6.262  11.478
26972W        W95335   3.928  34.935   1.900
26973W        W95336   8.297  12.620  14.901
26974W        W95337  10.154  26.591   1.697
26975W        W95338  26.031   5.289   0.267
26976W        W95339   6.900  19.769   3.783
26977W        W95340   0.927  20.592   2.741
26978W        W95341  23.622  43.007   4.681
26979W        W95342   0.344  13.168  11.424
26980W        W95343  43.509  40.016   0.388
26981W        W95344  15.121  40.536   3.348
26982W        W95345  33.895  20.105  12.026
26983W        W95346  38.386  38.328  12.869
26984W        W95347  39.817  24.709  12.049
26985W        W95348  39.532  34.530  13.367
26986W        W95349   4.852  28.956  13.829
26987W        W95350  13.304  21.669  10.614
26988W        W95351  22.640  21.054   3.331
26989W        W95352  24.129  23.581   3.292
26990W        W95353  44.270   1.482   4.299
26991W        W95354   5.824  24.072   0.474
26992W        W95355  12.760  20.644  13.969
26993W        W95356  39.928   7.229  12.997
26994W        W95357  33.058   1.732  10.481
26995W        W95358  15.697  37.859   1.282
26996W        W95359  33.104  16.149   0.789
26997W        W95360  11.300   9.231  12.340
26998W        W95361   2.405  10.666  14.397
26999W        W95362  27.690   7.399  10.976
27000W        W95363   2.837  13.116   1.704
27001W        W95364  27.525  23.218  10.638
27002W        W95365  14.308  10.257   1.746
27003W        W95366  39.812  42.960  10.442
27004W        W95367  38.959   8.207   2.245
27005W        W95368   0.258  23.999   9.980
27006W        W95369  11.791  39.322  12.971
27007W        W95370  30.109  28.466  12.030
27008W        W95371  30.117   6.763   3.645
27009W        W95372  30.161   1.276   4.311
27010W        W95373  31.983  35.582   1.339
27011W        W95374  36.407  26.651  10.572
27012W        W95375  21.597   0.333  13.330
27013W        W95376   1.917  32.505  11.495
27014W        W95377  12.127  18.206   3.674
27015W        W95378  19.754  35.984  10.582
27016W        W95379  40.384   3.767   1.846
27017W        W95380  41.021  24.610  10.887
27018W        W95381  32.126  29.622  13.533
27019W        W95382   1.437  18.769  14.441
27020W        W95383  12.771  38.931  11.063
27021W        W95384  31.085  17.188  14.492
27022W        W95385  31.054  24.549   0.893
27023W        W95386  28.980  20.615   3.761
27024W        W95387  34.951  35.975   5.151
27025W        W95388  30.530   4.899   2.871
27026W        W95389   8.775  38.516  14.472
27027W        W95390  41.893  43.920   0.380
27028W        W95391   3.271  16.688   0.482
27029W        W95392  16.681  10.294   0.404
27030W        W95393   1.933  23.205   0.470
27031W        W95394   7.706  22.176  13.965
27032W        W95395  25.132  41.411  14.912
27033W        W95396  29.023   0.260   1.713
27034W        W95397   3.354  20.268  13.352
27035W        W95398   2.381  14.228  12.350
27036W        W95399  37.575  14.107   2.293
27037W        W95400   9.772  12.693   4.683
27038W        W95401  15.296  12.744  11.397
27039W        W95402   7.832  31.918  13.457
27040W        W95403  31.587   7.893   1.832
27041W        W95404  33.556  23.694   4.165
27042W        W95405  32.558  30.430  12.570
27043W        W95406  24.044  25.186   4.247
27044W        W95407  28.641  32.632  13.318
27045W        W95408  32.119  33.469   4.145
27046W        W95409  11.644  14.827   3.383
27047W        W95410   3.290  25.535   0.906
27048W        W95411  32.550   9.699  14.018
27049W        W95412  14.772  15.823   4.199
27050W        W95413  20.679  35.434   2.362
27051W        W95414  44.347  24.670   3.196
27052W        W95415  13.288  40.045   3.822
27053W        W95416  43.475  15.276  10.462
27054W        W95417  12.840  30.097   4.788
27055W        W95418   2.912  32.026   4.306
27056W        W95419  22.239  11.724  10.493
27057W        W95420   8.725  35.539  13.458
27058W        W95421  25.605  22.587  11.390
27059W        W95422  19.045  16.221  13.405
27060W        W95423  28.490  15.246   3.197
27061W        W95424   3.455  30.481  11.471
27062W        W95425   3.335   1.874   2.765
27063W        W95426  20.071  29.043   0.844
27064W        W95427  33.089  30.450  12.052
27065W        W95428  10.771  19.568  12.413
27066W        W95429   9.890   3.418  11.498
27067W        W95430   1.813  20.209   0.307
27068W        W95431  40.398  40.332   1.247
27069W        W95432  20.590  24.043   4.815
27070W        W95433  12.192  22.104   1.406
27071W        W95434  36.037  12.821   4.318
27072W        W95435   6.286  17.795  10.462
27073W        W95436  42.785   6.878  12.435
27074W        W95437  25.079  42.322  12.563
27075W        W95438  28.441  29.526  14.322
27076W        W95439   5.763  27.586  14.993
27077W        W95440  43.931  24.223   0.853
27078W        W95441   2.966  15.774   1.773
27079W        W95442   2.759  27.011   1.375
27080W        W95443  21.148  29.585  11.427
27081W        W95444  43.512  15.312  13.019
27082W        W95445  28.475  34.906   0.839
27083W        W95446  16.583  19.071   1.911
27084W        W95447   0.779  24.548   2.381
27085W        W95448  13.754  13.667   0.455
27086W        W95449  18.661   3.446  10.472
27087W        W95450  26.610  11.220  10.469
27088W        W95451   1.954  34.418  13.926
27089W        W95452  38.424  35.947  13.448
27090W        W95453  39.058  22.732   4.754
27091W        W95454  21.673  17.666  14.934
27092W        W95455  39.019  18.705   1.786
27093W        W95456  19.275  29.123  10.484
27094W        W95457   9.356  22.104   0.424
27095W        W95458   4.740   0.345  10.531
27096W        W95459  12.764  39.051   0.860
27097W        W95460  36.925   0.895  13.534
27098W        W95461  22.107  36.954   3.254
27099W        W95462  26.114  21.194   0.363
27100W        W95463   2.721  20.764   1.838
27101W        W95464   8.754  25.124   3.222
27102W        W95465  17.672  26.101   0.281
27103W        W95466  13.296  25.964   1.309
27104W        W95467  29.646  23.088   2.329
27105W        W95468  22.194  39.845  14.300
27106W        W95469  36.508  36.394  12.542
27107W        W95470  40.363  42.443  11.410
27108W        W95471  32.589   3.396  11.082
27109W        W95472  18.190  38.423  12.426
27110W        W95473  31.989  35.962   4.261
27111W        W95474   8.739  11.729   3.197
27112W        W95475  39.313  42.973  14.932
27113W        W95476  15.298  23.611  10.587
27114W        W95477  36.923  25.046   2.305
27115W        W95478  24.202  44.905  13.818
27116W        W95479  16.663  18.672   4.711
27117W        W95480   3.220  20.101   1.440
27118W        W95481  37.389  14.167  13.947
27119W        W95482  35.368  41.939  11.442
27120W        W95483  38.072  22.245  13.396
27121W        W95484  31.466  14.183  12.926
27122W        W95485   6.741  22.680   3.282
27123W        W95486   8.384  16.304   2.241
27124W        W95487  18.613  32.531  13.441
27125W        W95488  10.691  25.528  12.096
27126W        W95489  36.542   6.211  11.377
27127W        W95490  30.138  36.060  12.382
27128W        W95491  33.380  18.701  12.416
27129W        W95492  32.527  29.155  14.499
27130W        W95493  20.612  32.536   2.690
27131W        W95494  15.629   9.259   2.203
27132W        W95495   6.230  32.071   5.292
27133W        W95496  37.532  32.558  10.621
27134W        W95497   8.322  16.109  12.346
27135W        W95498   3.947   7.733   4.287
27136W        W95499  41.368  41.912  10.546
27137W        W95500  17.141  36.499  11.551
27138W        W95501   4.410  44.842  12.827
27139W        W95502  37.037   2.837  14.502
27140W        W95503  15.824  24.007  10.574
27141W        W95504   3.945  13.278   3.660
27142W        W95505   2.228  44.466  14.307
27143W        W95506  40.043  37.994  14.412
27144W        W95507  41.915  33.511  13.316
27145W        W95508  15.704   0.829  13.959
27146W        W95509  30.027  25.967  12.023
27147W        W95510   1.339  42.844   9.934
27148W        W95511  27.096  16.615   4.728
27149W        W95512  32.601  34.415  10.634
27150W        W95513  39.382  13.185   1.817
27151W        W95514  11.334   7.905   4.692
27152W        W95515  20.150  25.700   2.874
27153W        W95516   9.890  24.014  13.866
27154W        W95517  14.293  11.235   3.772
27155W        W95518  27.545  14.334   9.976
27156W        W95519  18.107  34.532   0.375
27157W        W95520  36.414  44.956   3.249
27158W        W95521   3.863  36.367  13.544
27159W        W95522  13.328   6.204  11.544
27160W        W95523   5.286  10.664   2.888
27161W        W95524  34.498   3.789   3.663
27162W        W95525  26.189  38.404   2.779
27163W        W95526  21.755  13.643   3.852
27164W        W95527  12.170  10.641   2.773
27165W        W95528  10.261  12.669  14.816
27166W        W95529  18.105  34.914  13.043
27167W        W95530  43.848  22.693   1.225
27168W        W95531  36.536  32.479  13.832
27169W        W95532  32.028  20.145  12.005
27170W        W95533   7.670   6.400   0.901
27171W        W95534  27.677  42.420  12.343
27172W        W95535   1.827  36.071   4.705
27173W        W95536  36.443   2.395  13.392
27174W        W95537  35.924  19.215   1.397
27175W        W95538   1.409   9.670  12.515
27176W        W95539  16.131  19.608   3.296
27177W        W95540   8.180  14.094   2.284
27178W        W95541  20.119  15.681  11.032
27179W        W95542  26.205   3.907   4.162
27180W        W95543   9.778  33.949   0.371
27181W        W95544   7.394  20.152   1.375
27182W        W95545  15.120  12.225  12.972
27183W        W95546  35.940  16.312  14.447
27184W        W95547  31.638  43.940  12.998
27185W        W95548  16.152  34.606  12.833
27186W        W95549  25.110   7.787  14.276
27187W        W95550  40.354   9.348  14.326
27188W        W95551  25.091  11.777   3.715
27189W        W95552  10.643  30.554   2.326
27190W        W95553   2.261  14.128  10.506
27191W        W95554  24.021  14.168  12.898
27192W        W95555  21.221  36.959   1.924
27193W        W95556  39.813  10.713  14.976
27194W        W95557  10.281   4.863   0.780
27195W        W95558  24.218  14.762   2.801
27196W        W95559  35.496   5.404   3.260
27197W        W95560  18.680  37.967   4.787
27198W        W95561  25.638  27.493  13.904
27199W        W95562  10.855   5.209  11.061
27200W        W95563   5.239  29.002   2.891
27201W        W95564  31.512  36.084  12.541
27202W        W95565  16.738  23.678   1.368
27203W        W95566  30.917   9.693  12.388
27204W        W95567  40.387  12.264   1.294
27205W        W95568  41.310   8.195  11.027
27206W        W95569  28.144  30.915   4.318
27207W        W95570   1.883   1.976  13.973
27208W        W95571  18.189  42.453  13.377
27209W        W95572  17.716  16.125  11.045
27210W        W95573  19.680  33.597   0.963
27211W        W95574  16.183   2.745   1.225
27212W        W95575  31.994  37.349   3.781
27213W        W95576  19.641  13.841   3.385
27214W        W95577  14.781   3.376   4.294
27215W        W95578  24.127   8.296  14.963
27216W        W95579  27.183  23.038   2.798
27217W        W95580  37.928  30.418  13.369
27218W        W95581  40.953  29.584  12.025
27219W        W95582  36.461   4.702  12.875
27220W        W95583  12.344  18.773  10.404
27221W        W95584  20.071  22.006   0.412
27222W        W95585  44.447  32.545  10.962
27223W        W95586  17.589  44.272   4.305
27224W        W95587   1.283   0.792  13.041
27225W        W95588   7.760  34.024   3.654
27226W        W95589  44.429  36.944  14.403
27227W        W95590  17.566  28.022  11.980
27228W        W95591  20.598  23.148   0.381
27229W        W95592  43.869  31.507   2.379
27230W        W95593  25.039  36.454  12.084
27231W        W95594  10.876  24.995  12.362
27232W        W95595  23.220  34.370   0.822
27233W        W95596  26.058   3.949   3.838
27234W        W95597  15.772  42.476  14.952
27235W        W95598  36.482   3.349  10.549
27236W        W95599   1.792   2.784   4.676
27237W        W95600  40.934  35.571  10.922
27238W        W95601  21.571  31.012   3.276
27239W        W95602  20.723  31.501  12.003
27240W        W95603  38.458  10.140   9.661
27241W        W95604  33.077  43.784  11.558
27242W        W95605  30.933  44.393   1.793
27243W        W95606   4.814  27.638   1.428
27244W        W95607  38.052  16.652  11.887
27245W        W95608  24.618  16.250  12.014
27246W        W95609  26.992  35.056  13.533
27247W        W95610   5.786  12.362  10.527
27248W        W95611  25.670  39.999  11.521
27249W        W95612  29.493  17.285   0.957
27250W        W95613  17.586  44.823   3.870
27251W        W95614  10.212   2.357   1.415
27252W        W95615  44.938  25.589   3.747
27253W        W95616   3.790   9.284  14.469
27254W        W95617  10.638  35.551  13.886
27255W        W95618  14.118  15.604  11.387
27256W        W95619  35.600  23.988  12.089
27257W        W95620  37.913  39.445  13.823
27258W        W95621  20.625   0.357   4.821
27259W        W95622  34.956  15.820  12.892
27260W        W95623  41.887  27.604   3.638
27261W        W95624  30.097  18.295  13.477
27262W        W95625   1.277  15.817   0.368
27263W        W95626  34.912  14.615  14.308
27264W        W95627  33.463  18.229   4.665
27265W        W95628  23.563  39.060   0.396
27266W        W95629  33.098  37.070   4.676
27267W        W95630  20.229  30.012   3.165
27268W        W95631   2.352  34.955  10.949
27269W        W95632  24.626   8.207  11.394
27270W        W95633   6.840   4.883  12.920
27271W        W95634  36.501  38.370  11.050
27272W        W95635  20.268  21.665  13.468
27273W        W95636  10.279  32.587   0.478
27274W        W95637  26.121  22.626  12.462
27275W        W95638  30.976  29.993  13.344
27276W        W95639  23.507   2.267   0.450
27277W        W95640  39.365   6.271  11.990
27278W        W95641  17.800  16.261   0.429
27279W        W95642  43.457   0.868   4.346
27280W        W95643  37.478  27.123  13.465
27281W        W95644  37.526  10.665   9.591
27282W        W95645   0.359   2.858  12.981
27283W        W95646  35.583  18.629   0.954
27284W        W95647  27.004  20.524   2.290
27285W        W95648  28.507  11.777  13.405
27286W        W95649   5.809  44.298  12.970
27287W        W95650   1.238  18.686  13.914
27288W        W95651  28.501   0.780   2.710
27289W        W95652  27.525  22.196  11.571
27290W        W95653  32.105  11.346   4.200
27291W        W95654  32.946  22.243   0.801
27292W        W95655  34.569  14.820   3.803
27293W        W95656  21.568  20.705  11.124
27294W        W95657  32.580  28.567  13.468
27295W        W95658  25.098  13.789   2.415
27296W        W95659  33.441  37.998   0.901
27297W        W95660  16.286  43.806   4.222
27298W        W95661  22.999  27.127  11.989
27299W        W95662   3.821  15.638  10.640
27300W        W95663  24.194  13.799   2.683
27301W        W95664  11.345  19.569   0.340
27302W        W95665   4.271  28.181  11.522
27303W        W95666  36.052  14.614  11.896
27304W        W95667   8.838  23.093  10.921
27305W        W95668  36.041  24.095   2.763
27306W        W95669   1.470   7.221   2.332
27307W        W95670  23.727  15.752  11.952
27308W        W95671  42.450  41.477   0.911
27309W        W95672  32.898  42.996   2.877
27310W        W95673  29.624  44.272   5.178
27311W        W95674  40.466   7.278   3.334
27312W        W95675  35.895  28.056  11.895
27313W        W95676   0.782   9.753   2.221
27314W        W95677  41.958  32.130   0.951
27315W        W95678  26.696  23.615  13.917
27316W        W95679  14.335  25.694   0.903
27317W        W95680  42.470  40.533   0.417
27318W        W95681  16.644  27.197   1.337
27319W        W95682  21.610  12.750   2.304
27320W        W95683  33.553  28.649   3.693
27321W        W95684  29.476  12.189   0.966
27322W        W95685   3.351   9.328  11.499
27323W        W95686  34.473  33.443   2.418
27324W        W95687   1.406  10.281   0.452
27325W        W95688   5.890   8.176   3.354
27326W        W95689  16.732  30.121  14.371
27327W        W95690  26.598  42.888  11.865
27328W        W95691   3.761  41.466  14.010
27329W        W95692  32.474  22.668  10.623
27330W        W95693  25.202  26.201  13.863
27331W        W95694   5.390  10.687   3.339
27332W        W95695   0.962  33.123   1.908
27333W        W95696   2.373   4.364   4.605
27334W        W95697  38.949  38.479  10.572
27335W        W95698  20.580  17.077  11.477
27336W        W95699   5.198  29.544  10.910
27337W        W95700  24.075   6.899  11.396
27338W        W95701  31.487  24.017  14.820
27339W        W95702   3.889   3.761   2.188
27340W        W95703  11.279  25.120  13.496
27341W        W95704   6.262  26.141  14.884
27342W        W95705  41.432  34.394  12.964
27343W        W95706  33.577  27.191   3.202
27344W        W95707  41.398  26.624  10.461
27345W        W95708   3.709  22.158   9.954
27346W        W95709   8.747  17.104  13.049
27347W        W95710  37.451   7.773  12.533
27348W        W95711   7.338  38.895  12.061
27349W        W95712  26.963  15.325  14.312
27350W        W95713  27.525  27.119  14.994
27351W        W95714  13.271  26.080   3.708
27352W        W95715   3.902  35.422   1.413
27353W        W95716  32.554  34.463  11.947
27354W        W95717  16.601  39.467   0.329
27355W        W95718  15.141  35.011   1.257
27356W        W95719  14.300  38.367   1.734
27357W        W95720   3.739  32.117   2.349
27358W        W95721  20.611  38.913  13.795
27359W        W95722   3.786   5.203   0.964
27360W        W95723  10.372  42.028   5.102
27361W        W95724  16.152  43.989  13.821
27362W        W95725  42.932  13.227   2.752
27363W        W95726  26.125  33.577  12.008
27364W        W95727  44.377  29.931  13.993
27365W        W95728  41.483  10.380  13.358
27366W        W95729  36.943   6.845   0.844
27367W        W95730   8.237  34.902  13.456
27368W        W95731  24.080  16.236  12.095
27369W        W95732  15.631  24.070   3.653
27370W        W95733   9.658  35.478  14.921
27371W        W95734  28.473  28.504  14.909
27372W        W95735  28.065  27.487  12.998
27373W        W95736  16.257  34.107  14.473
27374W        W95737   3.372  27.576  14.889
27375W        W95738   2.902  40.443   0.244
27376W        W95739  17.080  29.566   0.936
27377W        W95740  44.762  19.104  11.053
27378W        W95741  31.946  10.342   0.901
27379W        W95742  10.829   0.953   2.759
27380W        W95743   4.920  20.101  11.064
27381W        W95744  32.978  13.323   2.216
27382W        W95745  29.934   9.798   1.930
27383W        W95746  27.660   5.906   3.803
27384W        W95747   7.848  41.442  12.579
27385W        W95748  15.624  21.736  13.957
27386W        W95749  29.532  32.601   1.909
27387W        W95750  13.156  25.596  11.403
27388W        W95751   1.480  23.688   2.881
27389W        W95752  18.560   1.838   1.769
27390W        W95753  22.128  39.364   2.347
27391W        W95754   1.917  23.129   2.247
27392W        W95755  11.146  11.188   0.328
27393W        W95756  18.199  23.548  11.403
27394W        W95757  15.613   6.296   3.214
27395W        W95758   3.714  22.116  14.379
27396W        W95759   8.747   0.433   3.701
27397W        W95760  29.973  12.217   1.313
27398W        W95761   0.956  17.260  11.436
27399W        W95762  10.869  38.962   0.278
27400W        W95763  34.062  37.467   1.885
27401W        W95764  20.095  32.032  13.980
27402W        W95765  32.544   7.251   3.839
27403W        W95766  37.370  32.094   1.414
27404W        W95767  17.259  16.595  12.830
27405W        W95768  25.084   1.457   1.432
27406W        W95769  32.549  33.597   1.238
27407W        W95770   4.915  16.135   4.341
27408W        W95771   1.289  42.864  13.324
27409W        W95772  30.079  24.207  14.029
27410W        W95773  32.572  13.794   0.732
27411W        W95774  16.098  27.464  12.555
27412W        W95775  29.643  27.446  13.050
27413W        W95776  12.658  42.031  11.415
27414W        W95777  34.092   2.852  14.925
27415W        W95778  19.060   1.792   3.861
27416W        W95779  22.124  44.443  10.569
27417W        W95780  12.808  39.319   3.642
27418W        W95781   5.713  28.184  14.295
27419W        W95782  14.631  38.885   1.763
27420W        W95783  25.219   6.911  11.612
27421W        W95784   3.914  13.831   3.777
27422W        W95785  40.477  23.669  12.844
27423W        W95786  12.674  39.825  14.797
27424W        W95787  18.700  15.681   3.655
27425W        W95788  38.938  23.679  10.123
27426W        W95789  40.874  36.013   4.759
27427W        W95790  21.725   1.260  14.885
27428W        W95791  28.018  44.416  13.800
27429W        W95792  27.157  44.972  12.554
27430W        W95793   6.873  40.817   2.298
27431W        W95794  13.781  20.177   2.668
27432W        W95795   0.853  13.213   3.823
27433W        W95796  21.632   5.924   4.273
27434W        W95797  14.265  27.579   2.381
27435W        W95798  26.193   6.839   0.781
27436W        W95799  30.441  35.576   4.832
27437W        W95800  28.548  33.483  14.504
27438W        W95801  19.154  20.179   1.888
27439W        W95802  25.173   6.182  13.000
27440W        W95803   6.715  16.631  14.835
27441W        W95804  30.083   1.305   1.870
27442W        W95805  30.049  25.538   1.920
27443W        W95806  20.165   4.269  10.966
27444W        W95807  18.587  15.097   0.331
27445W        W95808  44.276   8.842  10.019
27446W        W95809  43.448  32.608   3.869
27447W        W95810   0.970  26.038   3.314
27448W        W95811   5.291  28.999   0.440
27449W        W95812  34.457   1.251  14.333
27450W        W95813  12.818  35.894   4.646
27451W        W95814  26.511  24.131  12.547
27452W        W95815   3.912  10.753   2.226
27453W        W95816  31.440  11.304  14.825
27454W        W95817  19.285   9.357  13.844
27455W        W95818  30.144  16.622  10.975
27456W        W95819  11.221   7.292  10.926
27457W        W95820  39.478  17.737   4.147
27458W        W95821  30.552  42.918   4.644
27459W        W95822  27.131  18.198  10.481
27460W        W95823  17.612  37.507  14.313
27461W        W95824  26.194  38.336   3.203
27462W        W95825  43.289  23.543   5.221
27463W        W95826  31.492  16.269  10.429
27464W        W95827  11.198  26.963   4.166
27465W        W95828  28.585  29.070  11.980
27466W        W95829  10.280  30.108   2.303
27467W        W95830  19.076  30.938   4.138
27468W        W95831  20.526  37.968  10.464
27469W        W95832   3.340   0.746   9.539
27470W        W95833  37.519  39.342   1.410
27471W        W95834  41.423  35.591   3.696
27472W        W95835  14.267  27.135   1.428
27473W        W95836  42.868  17.157  10.596
27474W        W95837  44.983   3.229   4.626
27475W        W95838  42.013   6.906  14.294
27476W        W95839   7.681   2.281   1.750
27477W        W95840  27.621  14.128   1.372
27478W        W95841   9.689  41.523  12.402
27479W        W95842   9.369   4.725  12.856
27480W        W95843  43.996   0.253   0.807
27481W        W95844   3.216  16.260  14.495
27482W        W95845   9.267  16.587  13.008
27483W        W95846  31.041  33.464  12.580
27484W        W95847  35.976  41.481   2.865
27485W        W95848  11.698  29.666  13.810
27486W        W95849  15.603  32.980   1.776
27487W        W95850  25.481  22.235  11.010
27488W        W95851  21.686  42.804   1.335
27489W        W95852  21.537   4.761   4.164
27490W        W95853  27.150  16.103  12.424
27491W        W95854   0.819  24.635  12.580
27492W        W95855  40.467  17.071   4.315
27493W        W95856   8.172  21.190  11.389
27494W        W95857  34.558  17.151   1.799
27495W        W95858  17.726  32.118  11.595
27496W        W95859  37.060  24.587  13.422
27497W        W95860  17.092  37.419  12.015
27498W        W95861  36.436  26.506  14.424
27499W        W95862   5.930   4.783   1.343
27500W        W95863  37.528  25.650  13.824
27501W        W95864  28.621  21.124  13.420
27502W        W95865  32.555  43.934   5.308
27503W        W95866  12.233   9.780   1.314
27504W        W95867  34.867   1.481  12.404
27505W        W95868  17.671  39.388  11.569
27506W        W95869  11.756  30.962  12.564
27507W        W95870  31.496   0.367  14.845
27508W        W95871  15.297  28.543  12.882
27509W        W95872  41.297  37.560  12.485
27510W        W95873  28.627  36.376   2.293
27511W        W95874  33.948  19.056  11.457
27512W        W95875   5.435  17.291   2.321
27513W        W95876  10.359  16.723   2.207
27514W        W95877  30.616  14.792   2.267
27515W        W95878  29.102   4.931   4.650
27516W        W95879  20.152  12.176  12.575
27517W        W95880   1.467  38.476   3.293
27518W        W95881   7.341  31.141  12.992
27519W        W95882  42.935  40.857  11.457
27520W        W95883  36.077  26.999  12.562
27521W        W95884  13.644   3.278  10.012
27522W        W95885  14.245  17.151   1.358
27523W        W95886   9.153  13.291  12.933
27524W        W95887  28.948  33.534   1.222
27525W        W95888  34.371  11.866   0.461
27526W        W95889  33.047  10.659  12.345
27527W        W95890  40.507  15.261   2.345
27528W        W95891   9.266  35.488   4.234
27529W        W95892  10.292   3.875   3.703
27530W        W95893  11.353  40.379   4.237
27531W        W95894  15.289  16.145  10.029
27532W        W95895   7.827  16.567  14.469
27533W        W95896  19.583   9.716  14.774
27534W        W95897  14.237  19.629   4.771
27535W        W95898  18.146  44.464   1.383
27536W        W95899  36.998  41.862   2.789
27537W        W95900  13.797  28.444  12.346
27538W        W95901  12.736  43.814  10.452
27539W        W95902   0.492  17.779  14.425
27540W        W95903   4.327   7.748   1.368
27541W        W95904  41.426  33.130   2.228
27542W        W95905   3.385  43.007   0.960
27543W        W95906  31.465  34.970  14.306
27544W        W95907   0.492   5.771  11.035
27545W        W95908  30.122  40.525   4.670
27546W        W95909   9.335  40.533   2.214
27547W        W95910   7.243  41.792   1.831
27548W        W95911  33.057  10.254   4.156
27549W        W95912   8.888  20.137   2.712
27550W        W95913   2.382   4.742  12.468
27551W        W95914  29.078  23.036   4.665
27552W        W95915  33.577  25.171  12.881
27553W        W95916  12.701  37.457  12.005
27554W        W95917  40.848  17.681   4.658
27555W        W95918  44.268  27.028   4.114
27556W        W95919  41.792   1.968   0.827
27557W        W95920  26.971  42.432  13.402
27558W        W95921  30.596   5.748   1.922
27559W        W95922  37.433   7.201   1.310
27560W        W95923  41.916  28.108   4.159
27561W        W95924  42.914   9.825   3.672
27562W        W95925  11.792  36.913  12.911
27563W        W95926  32.584  11.815  12.542
27564W        W95927   7.170  22.655   3.325
27565W        W95928  17.279  37.381  13.466
27566W        W95929  19.122  19.675  11.127
27567W        W95930  41.316  30.417  11.898
27568W        W95931  31.442  27.486  12.862
27569W        W95932  38.347  23.503   1.433
27570W        W95933  29.139  13.113  13.466
27571W        W95934  24.640  30.032  12.516
27572W        W95935  16.168  37.973  11.371
27573W        W95936  31.409  35.978  11.495
27574W        W95937   1.781  17.242  11.859
27575W        W95938  19.614   6.410  12.455
27576W        W95939  35.384  36.585   3.165
27577W        W95940  12.765  35.381   0.302
27578W        W95941   0.366  43.929  14.420
27579W        W95942  12.230  11.287  14.407
27580W        W95943  44.824  17.692   3.673
27581W        W95944   0.985  39.045  13.516
27582W        W95945  39.057  37.465   2.416
27583W        W95946  10.771  35.593  13.326
27584W        W95947   3.288  21.724   2.880
27585W        W95948  29.605  39.943   0.345
27586W        W95949  31.469  21.532  11.564
27587W        W95950  34.467  29.089  11.522
27588W        W95951   8.805  30.101  13.921
27589W        W95952  24.650  15.717   3.239
27590W        W95953  34.992  32.047  14.390
27591W        W95954  18.562  39.337  13.060
27592W        W95955  43.859  37.383  10.087
27593W        W95956  17.735  23.131   3.336
27594W        W95957  22.075  29.544  13.320
27595W        W95958   5.371  27.486  10.471
27596W        W95959  29.104   3.227   4.241
27597W        W95960   1.366   7.249  14.853
27598W        W95961  15.613  39.485  10.970
27599W        W95962  13.805   6.321  10.555
27600W        W95963  39.530  13.747   5.565
27601W        W95964  18.153  32.017  13.906
27602W        W95965  10.337  28.182   4.174
27603W        W95966  15.806   3.762  11.912
27604W        W95967  36.903  33.911   3.860
27605W        W95968  35.393  33.100   1.840
27606W        W95969  26.647  11.213   3.207
27607W        W95970  25.589   9.269  10.495
27608W        W95971  23.682  22.557  11.921
27609W        W95972  20.191  13.725   2.217
27610W        W95973   6.728  18.125  11.118
27611W        W95974  36.490   0.372   1.336
27612W        W95975  24.599  25.476  10.603
27613W        W95976  34.448  42.875  14.441
27614W        W95977  40.496  44.403  11.041
27615W        W95978  19.204  14.732  10.410
27616W        W95979  27.673  20.046  10.416
27617W        W95980  30.151  14.769  13.926
27618W        W95981   2.943  39.467  10.602
27619W        W95982  32.581  10.674  12.567
27620W        W95983  19.637   8.347  10.968
27621W        W95984  30.974  39.898   2.711
27622W        W95985  28.185  43.864  10.614
27623W        W95986  39.892  24.167   4.155
27624W        W95987   2.269  24.532   4.838
27625W        W95988  27.622  38.428  12.883
27626W        W95989   7.390  14.297  13.542
27627W        W95990   2.947   0.256   1.440
27628W        W95991   0.281  23.986   2.761
27629W        W95992   0.788   2.341   4.247
27630W        W95993  38.067   9.750  14.342
27631W        W95994  21.025   0.875   5.213
27632W        W95995  13.674   3.423  11.390
27633W        W95996  40.354  31.634   1.855
27634W        W95997  33.463   2.400   1.752
27635W        W95998   8.380  30.148   2.803
27636W        W95999  18.114   5.249   0.443
27637W        W96000  28.128  21.563   4.260
27638W        W96001  21.683  25.015   3.370
27639W        W96002  17.261   5.859  11.019
27640W        W96003   4.765  41.932  11.906
27641W        W96004  35.031  24.175  13.504
27642W        W96005  14.313  42.900  13.963
27643W        W96006  20.131   4.886  14.392
27644W        W96007  11.346  35.896  12.540
27645W        W96008  12.120  42.852  11.410
27646W        W96009  11.744  24.636  14.455
27647W        W96010   1.436   8.800  10.893
27648W        W96011  15.778   1.245   0.454
27649W        W96012  28.987  31.503   1.800
27650W        W96013  43.788  15.607  14.423
27651W        W96014  35.402  15.276  14.809
27652W        W96015  21.224  18.126   0.881
27653W        W96016  14.284  11.665  14.011
27654W        W96017  40.037   1.371   0.373
27655W        W96018  37.945  40.354  14.850
27656W        W96019  15.266   7.341   1.740
27657W        W96020  43.928   7.909  13.439
27658W        W96021  27.140  28.001  13.922
27659W        W96022  28.444  40.865  13.929
27660W        W96023  17.565  25.639  12.538
27661W        W96024  35.452  14.336   4.218
27662W        W96025  18.566  20.707  12.081
27663W        W96026  20.177  37.868   2.412
27664W        W96027  15.160  31.615  12.550
27665W        W96028  31.913  42.404   0.343
27666W        W96029  25.130  13.119   4.218
27667W        W96030  41.806  30.042   4.136
27668W        W96031  39.992  28.472  14.336
27669W        W96032  42.025  33.405  10.994
27670W        W96033  37.528   7.393  13.026
27671W        W96034  12.137  23.194   2.795
27672W        W96035   3.429  30.644  12.003
27673W        W96036  44.442   2.822  14.962
27674W        W96037  38.344  21.086  14.351
27675W        W96038  12.802  11.833  12.342
27676W        W96039  23.648  27.533   3.309
27677W        W96040  42.892  15.771   3.371
27678W        W96041  16.690  12.640  12.436
27679W        W96042  11.344  19.642  13.316
27680W        W96043  33.380  41.922  12.043
27681W        W96044  27.959   4.867  11.053
27682W        W96045  24.494   4.275  13.353
27683W        W96046  17.184  18.235   4.145
27684W        W96047  38.496   6.381  12.992
27685W        W96048  34.595  23.543   4.686
27686W        W96049  41.856  20.590  12.067
27687W        W96050  13.807  28.607   4.263
27688W        W96051  23.212  44.412   4.705
27689W        W96052  36.067  36.373   0.445
27690W        W96053  42.030   6.889   4.820
27691W        W96054  13.183  28.483  12.347
27692W        W96055  28.453  34.449  12.526
27693W        W96056  16.728   9.799  12.094
27694W        W96057   1.429  23.128   3.335
27695W        W96058  44.838  10.239  14.946
27696W        W96059  25.047  21.716  11.072
27697W        W96060  37.840   4.404  14.400
27698W        W96061  12.157   8.757  14.898
27699W        W96062  36.088  14.709  12.550
27700W        W96063  26.197  35.376  10.590
27701W        W96064  14.627  42.950  10.576
27702W        W96065  36.426  40.986   0.458
27703W        W96066  28.012  32.475  14.397
27704W        W96067  19.154   6.305   1.394
27705W        W96068  42.466  23.992   3.277
27706W        W96069  41.021  44.756  12.010
27707W        W96070  10.181  28.526  13.047
27708W        W96071  24.060   7.838  12.837
27709W        W96072  20.679   5.718  10.980
27710W        W96073  21.115  25.695   5.233
27711W        W96074  35.593  10.834   2.878
27712W        W96075  10.673  22.586   1.929
27713W        W96076  20.114  35.433  14.301
27714W        W96077  16.690   8.749   2.788
27715W        W96078   0.750  33.127   1.363
27716W        W96079   9.167  28.079   4.320
27717W        W96080   8.854  27.069   0.912
27718W        W96081  26.610  21.754  11.092
27719W        W96082  23.579  17.275  11.105
27720W        W96083  14.272  20.698   4.834
27721W        W96084  37.064   3.361   4.600
27722W        W96085  37.512  33.911   2.852
27723W        W96086  41.015  22.191   1.766
27724W        W96087  34.513  20.656   3.748
27725W        W96088  42.444  21.515   4.692
27726W        W96089  28.619  40.857  14.289
27727W        W96090  22.173  28.648  12.876
27728W        W96091   8.701  22.221   0.902
27729W        W96092   4.349  29.609  11.417
27730W        W96093  42.835  38.508  11.537
27731W        W96094  13.736   1.888  13.064
27732W        W96095   9.368  28.983   1.340
27733W        W96096   6.222  38.029   2.902
27734W        W96097  22.009   4.806   1.750
27735W        W96098  17.589  10.686   2.680
27736W        W96099   2.880  13.838  12.891
27737W        W96100  19.225   1.787  12.877
27738W        W96101  24.108  39.449   4.734
27739W        W96102  30.110   3.459  13.470
27740W        W96103  13.813   1.383  11.988
27741W        W96104   1.816  10.272   3.244
27742W        W96105  23.518  14.138   2.207
27743W        W96106  16.285  14.112  14.819
27744W        W96107   4.914   0.888   5.710
27745W        W96108   0.853  12.186   2.223
27746W        W96109  21.179  34.532  10.473
27747W        W96110   7.401   6.719   1.774
27748W        W96111  43.473  34.404  10.518
27749W        W96112  17.734  19.223  13.000
27750W        W96113  12.784  13.674  12.073
27751W        W96114  11.835  38.418  12.482
27752W        W96115  28.070   6.894   3.693
27753W        W96116  24.684   2.466   1.908
27754W        W96117  20.237  15.329   2.881
27755W        W96118   7.818  30.159  12.522
27756W        W96119  41.348  43.481  13.340
27757W        W96120  40.857  27.547   3.777
27758W        W96121  14.190  38.452   0.265
27759W        W96122  20.632   4.774   3.788
27760W        W96123  25.027  14.161   4.768
27761W        W96124  38.511  24.496   3.834
27762W        W96125  27.474   4.406  11.502
27763W        W96126   7.735  17.279  13.910
27764W        W96127  31.000   7.718  12.841
27765W        W96128  19.147  33.420   4.287
27766W        W96129  22.514  36.580  11.422
27767W        W96130  35.395   4.218  13.432
27768W        W96131  18.224  37.888   4.626
27769W        W96132  32.067  30.930  13.443
27770W        W96133  27.586  16.680   2.372
27771W        W96134   4.711   7.787  11.438
27772W        W96135  31.450  32.036   2.184
27773W        W96136  11.675  44.990  14.854
27774W        W96137  10.205  13.805   0.286
27775W        W96138  31.919   0.465  13.370
27776W        W96139   7.758   7.753   1.858
27777W        W96140   8.737  20.634  14.838
27778W        W96141  40.996  28.993  11.584
27779W        W96142  41.946  37.997  14.845
27780W        W96143  36.543  18.293   3.640
27781W        W96144  33.960   7.386  14.358
27782W        W96145  38.421  36.950   3.722
27783W        W96146  38.916   9.662   1.694
27784W        W96147  22.051  40.922   1.775
27785W        W96148  27.054  34.565   3.666
27786W        W96149  11.664  43.416  11.577
27787W        W96150  40.394   6.347   4.611
27788W        W96151   8.382  13.822  13.854
27789W        W96152  21.093  44.943  13.458
27790W        W96153  40.966   7.704  13.829
27791W        W96154  25.604   8.722  11.466
27792W        W96155  42.898  27.114  13.793
27793W        W96156  31.546  26.611  12.421
27794W        W96157  13.794  15.157  11.507
27795W        W96158   1.313   6.256   1.744
27796W        W96159  35.396  22.575   1.852
27797W        W96160  22.242   8.705  11.487
27798W        W96161  19.766  18.770   0.856
27799W        W96162  43.295   0.494  12.478
27800W        W96163  30.046  14.247  14.411
27801W        W96164  38.441  38.330  13.520
27802W        W96165  42.306  27.002   2.355
27803W        W96166   8.380   3.302  10.947
27804W        W96167  11.728   1.464   4.698
27805W        W96168  39.323  29.070   3.332
27806W        W96169   5.394  11.193  11.467
27807W        W96170  42.520   9.701  11.388
27808W        W96171  31.923  22.054  10.107
27809W        W96172  17.763  13.292  13.030
27810W        W96173  22.593  25.485  10.907
27811W        W96174  29.509  22.185   3.281
27812W        W96175  35.364  37.457   2.348
27813W        W96176  24.081  41.453   3.295
27814W        W96177   3.800  21.154  10.494
27815W        W96178  14.110   3.840  10.974
27816W        W96179  12.680  26.692   1.702
27817W        W96180  26.098   3.365  11.059
27818W        W96181  30.128  38.486  13.438
27819W        W96182  18.700  23.600  12.440
27820W        W96183   3.893  28.137   1.718
27821W        W96184  31.455  39.460   0.957
27822W        W96185  44.489  18.206   2.354
27823W        W96186  37.458  29.149  10.519
27824W        W96187  35.960  10.739  14.469
27825W        W96188  12.197  27.112   0.420
27826W        W96189  27.661  22.546   1.818
27827W        W96190  22.610  24.490   4.171
27828W        W96191  44.918  26.953  14.009
27829W        W96192  39.382  43.813   1.720
27830W        W96193  13.692  40.928   3.707
27831W        W96194  25.580  30.100   3.201
27832W        W96195  35.494  29.119  12.543
27833W        W96196   4.706   3.285   0.870
27834W        W96197   3.887  19.105  14.363
27835W        W96198  27.515   8.347  14.982
27836W        W96199   0.340  12.795  11.440
27837W        W96200  32.065   0.836  12.865
27838W        W96201  32.905  35.579   1.416
27839W        W96202  35.471  17.697   4.702
27840W        W96203  10.335  38.006  14.993
27841W        W96204   2.355   0.879  13.852
27842W        W96205   2.392   0.832  13.359
27843W        W96206  20.049  31.056   4.802
27844W        W96207  33.084  38.820   4.210
27845W        W96208  29.044   5.736   2.724
27846W        W96209  39.420  22.704  10.429
27847W        W96210  44.843   6.678   3.221
27848W        W96211  42.032  28.185  13.861
27849W        W96212   0.922   3.419   0.266
27850W        W96213  30.123   8.170  13.339
27851W        W96214  34.506  24.100  13.962
27852W        W96215  12.168   3.395   0.880
27853W        W96216   0.373  37.017   4.121
27854W        W96217  15.760  41.981   4.185
27855W        W96218  16.810  23.641   3.770
27856W        W96219  33.489  29.011   0.911
27857W        W96220  11.328   8.761   2.189
27858W        W96221  38.570  29.589   2.381
27859W        W96222  15.593  30.648  10.159
27860W        W96223  15.100  39.013   2.879
27861W        W96224  23.539   2.379  12.479
27862W        W96225  37.049  24.047  12.495
27863W        W96226  44.457  44.869  11.601
27864W        W96227  10.189  38.026   2.413
27865W        W96228   7.292  38.929  14.895
27866W        W96229   4.309  19.076  13.823
27867W        W96230  35.877   5.301   1.704
27868W        W96231  28.455  13.213   3.648
27869W        W96232  33.125   8.263   2.368
27870W        W96233  34.870  25.983   4.814
27871W        W96234  28.975  43.862   0.362
27872W        W96235  21.046  40.541   4.610
27873W        W96236   3.799  39.880  11.008
27874W        W96237  30.052  30.933  10.572
27875W        W96238   0.460   0.394   1.413
27876W        W96239   4.441   7.369  12.070
27877W        W96240  12.796  11.804   4.246
27878W        W96241  23.686  41.396  14.414
27879W        W96242  34.079  34.556  13.016
27880W        W96243  17.717   6.785   1.853
27881W        W96244  27.500   6.682   4.345
27882W        W96245  20.049  19.088   1.731
27883W        W96246  35.886   5.229  11.921
27884W        W96247  18.549   6.188   0.457
27885W        W96248  13.139   2.795  14.502
27886W        W96249  27.182  17.128  14.413
27887W        W96250   0.962  30.146  10.891
27888W        W96251  32.529  26.965   1.366
27889W        W96252   2.317   4.893   1.263
27890W        W96253  28.441  43.390  10.456
27891W        W96254  42.422  34.488  11.990
27892W        W96255  31.126   5.852   1.896
27893W        W96256  40.465  38.381   3.678
27894W        W96257  17.194  17.708  14.866
27895W        W96258  24.068  43.500  13.443
27896W        W96259   2.390  13.814   3.252
27897W        W96260  34.874  33.546  13.883
27898W        W96261  31.087  21.223   0.304
27899W        W96262  12.785  26.166  11.420
27900W        W96263  33.587   6.388  12.442
27901W        W96264  16.170   7.362   4.666
27902W        W96265   4.245   4.296   1.425
27903W        W96266  24.492  20.036  14.375
27904W        W96267   1.266  12.638  10.571
27905W        W96268  38.940  20.681   0.810
27906W        W96269   7.689  10.766  12.842
27907W        W96270   7.713  28.635   1.308
27908W        W96271  15.714  40.468   2.271
27909W        W96272  44.858   2.455  14.285
27910W        W96273   7.317   4.844  13.825
27911W        W96274  39.855   5.732   4.746
27912W        W96275   7.415  30.013   1.212
27913W        W96276   5.895   8.329  13.512
27914W        W96277  42.524  28.041  12.533
27915W        W96278  26.498  39.985   4.320
27916W        W96279   0.920  14.171   4.670
27917W        W96280  41.489   3.285   9.930
27918W        W96281  43.386  30.123  12.483
27919W        W96282  25.138  14.741   1.786
27920W        W96283  18.272  12.731  13.403
27921W        W96284  16.084  36.546  10.598
27922W        W96285  39.875   3.944   1.357
27923W        W96286  17.095  33.494   0.738
27924W        W96287  33.977   3.273  13.477
27925W        W96288  10.632   1.305  14.942
27926W        W96289  19.576  26.524  11.560
27927W        W96290  14.801  22.214   3.254
27928W        W96291  37.901  15.282   2.282
27929W        W96292  39.554  14.264  13.451
27930W        W96293  15.602  10.208  12.828
27931W        W96294  38.861   0.258  12.486
27932W        W96295   8.293   2.326   2.319
27933W        W96296  42.295  41.341   2.233
27934W        W96297  33.911  41.838  11.437
27935W        W96298  30.968  35.079   1.415
27936W        W96299  33.534  21.557   3.794
27937W        W96300  31.410  35.920   0.420
27938W        W96301  40.020  17.090   1.848
27939W        W96302   3.764  42.949  14.343
27940W        W96303  40.497  36.493   3.223
27941W        W96304   9.890   1.961   3.713
27942W        W96305  12.678  44.953  11.504
27943W        W96306   8.869  44.440   2.744
27944W        W96307   6.294  44.385   3.358
27945W        W96308  14.266   3.285   3.844
27946W        W96309  30.426  28.639   4.796
27947W        W96310   0.440   9.716   2.390
27948W        W96311  29.471  34.407  10.954
27949W        W96312  14.801  37.445   4.785
27950W        W96313  19.134   9.658  12.004
27951W        W96314  10.367  13.834  12.085
27952W        W96315   6.305   1.769   0.380
27953W        W96316   5.820   5.429   4.651
27954W        W96317  41.319  21.130  13.357
27955W        W96318  41.035  33.409   3.709
27956W        W96319   9.855  40.479   1.379
27957W        W96320   1.275  29.039  12.424
27958W        W96321  24.033  13.119  12.916
27959W        W96322  35.429  27.117   0.938
27960W        W96323  43.769   1.418   4.661
27961W        W96324  25.095  41.364   4.800
27962W        W96325   8.728  35.551   0.357
27963W        W96326  30.551  44.309   2.285
27964W        W96327  42.482  28.582  12.531
27965W        W96328   8.831   5.923  12.904
27966W        W96329  34.546  24.199  14.493
27967W        W96330  42.871  22.196  12.054
27968W        W96331  20.117  29.612   2.412
27969W        W96332  44.312  16.275  12.347
27970W        W96333  30.502  26.065   3.857
27971W        W96334   4.877  18.740   4.785
27972W        W96335  26.055  30.591  13.829
27973W        W96336  35.064   7.260  13.419
27974W        W96337  11.129  21.668  12.978
27975W        W96338  42.986  38.838  14.780
27976W        W96339  32.929   8.390  10.967
27977W        W96340  20.684   9.255   3.719
27978W        W96341  21.686  18.741  11.607
27979W        W96342  11.197  41.418   4.605
27980W        W96343  14.644  42.968  11.564
27981W        W96344  31.464  16.693   2.321
27982W        W96345  38.886   4.424  11.554
27983W        W96346  41.511   7.720  12.442
27984W        W96347  44.837  24.533  10.418
27985W        W96348  24.055  25.509   3.376
27986W        W96349  12.664   5.796   0.389
27987W        W96350  17.219  14.161   4.311
27988W        W96351  36.368  41.820   4.666
27989W        W96352  17.291  22.148   1.906
27990W        W96353  44.289   8.795   3.336
27991W        W96354  39.913  41.509  10.525
27992W        W96355  19.550  24.542   1.865
27993W        W96356  42.809  42.896   3.828
27994W        W96357  13.121  34.115   4.759
27995W        W96358  26.485  30.496  11.483
27996W        W96359  31.962  41.383  14.499
27997W        W96360  20.637   1.369  12.039
27998W        W96361  25.627  33.492  12.022
27999W        W96362  29.045  27.686  12.480
28000W        W96363  23.619  43.869  11.056
28001W        W96364  44.433  12.622   0.813
28002W        W96365  27.607  35.098   4.223
28003W        W96366  29.533  20.073   1.847
28004W        W96367  33.465  22.563   0.770
28005W        W96368  10.632  32.894  14.987
28006W        W96369  37.454  36.549  14.898
28007W        W96370  12.808  29.514  12.078
28008W        W96371  22.588  26.457  10.123
28009W        W96372  25.127  26.506   2.183
28010W        W96373  43.891  36.576   1.774
28011W        W96374  36.986  22.699   0.375
28012W        W96375  29.124  23.645   4.115
28013W        W96376  15.096  18.241   3.803
28014W        W96377  20.749  42.841   2.707
28015W        W96378   8.860   1.323  10.918
28016W        W96379  34.530  16.662   3.293
28017W        W96380   5.283  20.162  10.424
28018W        W96381  32.504  29.447  13.901
28019W        W96382   6.306   8.689  11.860
28020W        W96383  39.915  19.658   1.719
28021W        W96384  29.662   0.429  11.010
28022W        W96385  39.010  14.710   0.458
28023W        W96386  33.052   6.227   4.122
28024W        W96387  12.619  17.693  10.628
28025W        W96388  28.630  16.268   5.179
28026W        W96389  35.528  41.903   2.354
28027W        W96390  13.616  31.579  12.064
28028W        W96391   2.796  31.063   1.434
28029W        W96392  22.644  24.186   2.408
28030W        W96393  30.949   7.319   9.994
28031W        W96394  44.482  36.427  11.443
28032W        W96395  20.635  13.625   1.727
28033W        W96396   2.289   4.256  14.832
28034W        W96397   1.348  33.064   2.850
28035W        W96398  21.719  23.236  10.559
28036W        W96399  20.618  38.563   2.399
28037W        W96400  14.718  39.894   0.400
28038W        W96401  33.116  15.674   0.951
28039W        W96402  38.921   4.209  11.927
28040W        W96403  40.922  35.441   2.404
28041W        W96404  20.083  21.043   2.764
28042W        W96405  20.590  22.713  13.403
28043W        W96406  24.591  26.657  14.979
28044W        W96407  31.069  13.645   4.209
28045W        W96408  15.672  10.299  10.032
28046W        W96409  35.416  42.354   3.796
28047W        W96410  22.610  35.086   0.823
28048W        W96411   5.419  27.083  11.082
28049W        W96412  34.950  33.969   1.233
28050W        W96413  44.925   6.407   4.757
28051W        W96414  19.704  40.331  13.908
28052W        W96415  21.751  26.092   2.380
28053W        W96416  42.315  23.108  13.514
28054W        W96417  24.150  24.661   0.787
28055W        W96418  44.884  33.051   2.824
28056W        W96419  16.280  44.386  11.873
28057W        W96420   8.243  26.461   4.743
28058W        W96421  32.131  20.683  12.889
28059W        W96422  22.669   8.808   9.963
28060W        W96423  22.679  40.386  11.106
28061W        W96424  42.366  35.030   4.825
28062W        W96425  42.861  36.070  12.469
28063W        W96426  32.055  24.619   5.181
28064W        W96427  24.188  10.305  11.577
28065W        W96428  26.192  34.567  14.996
28066W        W96429  29.454   4.863  12.491
28067W        W96430  10.323   4.907  12.579
28068W        W96431  44.851  38.464  14.846
28069W        W96432  30.481  34.086  13.828
28070W        W96433  25.706  12.198  11.380
28071W        W96434  24.996  26.584  13.878
28072W        W96435  29.470   2.759  14.307
28073W        W96436  18.730  13.300   2.299
28074W        W96437  19.590  24.155  12.053
28075W        W96438  25.709  31.127   1.804
28076W        W96439  40.986   1.447  10.438
28077W        W96440  33.081  10.328  12.974
28078W        W96441  38.953  33.912  12.823
28079W        W96442  28.126  44.312   2.297
28080W        W96443  31.096  14.214  13.891
28081W        W96444  12.319  29.458   3.357
28082W        W96445   4.258  15.712   2.808
28083W        W96446  12.705  29.489   3.632
28084W        W96447  25.486  23.721   2.766
28085W        W96448   5.427  10.280  11.523
28086W        W96449  42.301  16.309  14.760
28087W        W96450  12.328  33.529   1.901
28088W        W96451   4.929   3.287   2.816
28089W        W96452  37.886   0.744  13.335
28090W        W96453  15.812  42.956  11.905
28091W        W96454  17.690  10.773   0.832
28092W        W96455  12.691  13.292   2.247
28093W        W96456  24.666  40.869   3.851
28094W        W96457   8.766  28.938  13.398
28095W        W96458  12.641  25.580  12.974
28096W        W96459  37.457  36.896  12.536
28097W        W96460  35.013  33.116   1.332
28098W        W96461  29.640   9.196  14.391
28099W        W96462  24.681  34.024   1.881
28100W        W96463   0.979  19.601   3.377
28101W        W96464  27.549  14.209   4.800
28102W        W96465  19.282   6.701   2.394
28103W        W96466  16.159  14.159  14.472
28104W        W96467  29.101  29.939  12.895
28105W        W96468  12.156  43.397   4.627
28106W        W96469   4.273  16.230   4.790
28107W        W96470  23.109   6.396   3.242
28108W        W96471  26.084  13.649  13.817
28109W        W96472  31.973   9.278  14.360
28110W        W96473  15.749  30.970  10.464
28111W        W96474  21.602  39.375  13.467
28112W        W96475  42.403  17.702   3.300
28113W        W96476   7.822  17.698  10.984
28114W        W96477  35.029  43.509   1.271
28115W        W96478  15.321  25.607  14.829
28116W        W96479  23.017  24.149   1.296
28117W        W96480  19.583  27.629  10.888
28118W        W96481  23.677  41.450  10.479
28119W        W96482  40.050   0.421   2.807
28120W        W96483  24.142  29.975  13.433
28121W        W96484  28.186  12.122  11.976
28122W        W96485  30.070  40.839  12.507
28123W        W96486  31.092  16.095  13.944
28124W        W96487  14.828  42.009  11.963
28125W        W96488  35.425   4.929  13.843
28126W        W96489  26.983  15.091  12.873
28127W        W96490  30.023  22.694   3.285
28128W        W96491  10.294  35.010  14.001
28129W        W96492   7.364   3.354   0.463
28130W        W96493  16.315  29.042  13.427
28131W        W96494   7.798  36.871   4.813
28132W        W96495  19.670  28.546  14.346
28133W        W96496  11.217   5.715  12.437
28134W        W96497  11.352  32.563   0.930
28135W        W96498  18.161  39.874   2.272
28136W        W96499  42.893   6.314   3.240
28137W        W96500   3.860  27.100   3.693
28138W        W96501  27.180  44.935  12.875
28139W        W96502   2.939  38.523  11.411
28140W        W96503  43.779  10.682   3.314
28141W        W96504   9.320   3.315  12.826
28142W        W96505  17.582  36.375  14.767
28143W        W96506  28.042  10.722  14.419
28144W        W96507  10.642  29.957   2.890
28145W        W96508   9.279  27.163  13.459
28146W        W96509   5.207  10.712   2.282
28147W        W96510   9.342  28.030   0.311
28148W        W96511  23.986   9.720  10.548
28149W        W96512  40.934  32.131   4.657
28150W        W96513   5.833  13.132  11.048
28151W        W96514  17.255  39.813  13.850
28152W        W96515  23.125  27.157  13.871
28153W        W96516  21.532  30.656  10.520
28154W        W96517   0.429  13.807   2.223
28155W        W96518  11.159   2.793   0.346
28156W        W96519  29.937  23.552  14.420
28157W        W96520  38.499  40.306   4.174
28158W        W96521  33.399  14.766   4.157
28159W        W96522  16.206  30.912   3.739
28160W        W96523  15.614  43.404   1.906
28161W        W96524  20.127  44.941   1.734
28162W        W96525   2.855  37.032  13.798
28163W        W96526   1.833  37.977   0.398
28164W        W96527  36.448  34.453   0.268
28165W        W96528   1.811  35.052   2.265
28166W        W96529  39.481   3.379   2.257
28167W        W96530   1.920  14.160  12.976
28168W        W96531   5.706  22.551  11.070
28169W        W96532   9.823   5.874  12.413
28170W        W96533  27.553  12.691  13.998
28171W        W96534  28.632   6.713  11.571
28172W        W96535  35.931  42.386  11.901
28173W        W96536  33.457  17.739   2.383
28174W        W96537  16.684  39.959  11.933
28175W        W96538  33.008  11.186   3.725
28176W        W96539  26.467  10.309  13.417
28177W        W96540  39.860  20.683   3.278
28178W        W96541  41.860   8.161   2.338
28179W        W96542  40.925  19.161  14.866
28180W        W96543   3.832   1.438  10.981
28181W        W96544  38.859  25.665  13.514
28182W        W96545  41.391  13.694  14.452
28183W        W96546  20.590   7.673  14.884
28184W        W96547  18.100  21.633   4.716
28185W        W96548  24.706  19.224  11.590
28186W        W96549  25.711  39.058  14.488
28187W        W96550  20.253  22.699   4.160
28188W        W96551  32.576  11.306   4.779
28189W        W96552  15.232   4.220   9.998
28190W        W96553  33.385   0.893   4.709
28191W        W96554  27.992  35.965   1.360
28192W        W96555  15.695  37.926   3.703
28193W        W96556   5.331  28.487   4.170
28194W        W96557  40.892  16.713   0.255
28195W        W96558  30.938  41.368   3.162
28196W        W96559   1.343  29.487   0.805
28197W        W96560  12.267  43.997   0.381
28198W        W96561  12.181  33.575   3.372
28199W        W96562  20.112  28.173  13.383
28200W        W96563  36.024  26.072  14.308
28201W        W96564  16.750   9.366  12.885
28202W        W96565  27.447  35.522   1.747
28203W        W96566  42.348   8.677   2.819
28204W        W96567  12.179  42.967   3.258
28205W        W96568  34.524  29.537  13.055
28206W        W96569   8.668   8.673  14.501
28207W        W96570  26.470  34.415   1.241
28208W        W96571  29.098  25.493  10.963
28209W        W96572  31.072   8.721   4.310
28210W        W96573  29.923  42.450   2.340
28211W        W96574  43.782   8.665  10.937
28212W        W96575  12.146  21.620  12.092
28213W        W96576  14.146  15.805   4.710
28214W        W96577  28.678   1.747   4.344
28215W        W96578  16.244  44.377  13.796
28216W        W96579  40.470  23.697  12.383
28217W        W96580   6.840  41.958   1.339
28218W        W96581  20.671  32.512   1.865
28219W        W96582  34.472  39.902  10.422
28220W        W96583  23.232  39.046   3.630
28221W        W96584   8.215  29.514   0.954
28222W        W96585  21.054  12.830  12.869
28223W        W96586  14.706  44.376   2.763
28224W        W96587  29.005  29.542  13.991
28225W        W96588  27.015   6.725  10.556
28226W        W96589   6.258  44.258   0.296
28227W        W96590  31.028  13.271   0.812
28228W        W96591   2.846  42.847  10.031
28229W        W96592  11.197  44.993   4.780
28230W        W96593  15.211  24.016   3.859
28231W        W96594  37.555  16.154  13.546
28232W        W96595  35.014  38.524  10.952
28233W        W96596   6.789  44.473   3.743
28234W        W96597   2.448  37.450   1.925
28235W        W96598  22.162  24.681  11.389
28236W        W96599  21.715  34.528   4.116
28237W        W96600  15.766  33.397   3.755
28238W        W96601  23.075  38.874  13.908
28239W        W96602   8.755   7.781   5.124
28240W        W96603  15.143  18.289  14.963
28241W        W96604  40.453   5.902   3.712
28242W        W96605  42.949   9.200  13.995
28243W        W96606  15.270   9.373  12.927
28244W        W96607  14.272  26.081  11.124
28245W        W96608  21.175  38.978  14.339
28246W        W96609  23.166  42.978   5.118
28247W        W96610  21.513  23.736   3.303
28248W        W96611  36.080  16.786   1.929
28249W        W96612   2.765  31.621  14.356
28250W        W96613  21.698  21.062  10.975
28251W        W96614  14.664  30.142  11.111
28252W        W96615  43.983  35.503   5.106
28253W        W96616  18.115  30.027   3.638
28254W        W96617  43.473  34.067   1.816
28255W        W96618  38.007  10.219   4.127
28256W        W96619  33.540  42.963   1.891
28257W        W96620  13.659  18.569   2.674
28258W        W96621  18.608  32.070   1.264
28259W        W96622  36.489  32.393  11.069
28260W        W96623  11.754   5.806  13.914
28261W        W96624   5.222  39.997   2.416
28262W        W96625  17.663  35.387   4.310
28263W        W96626  21.592  10.199   4.336
28264W        W96627   4.886  19.716   1.240
28265W        W96628  39.995   3.905  11.086
28266W        W96629   2.444  38.326   4.741
28267W        W96630  10.818  36.572   3.869
28268W        W96631  36.978  15.200  11.993
28269W        W96632  11.318  31.070  13.307
28270W        W96633  25.018  11.347  14.868
28271W        W96634  15.306   1.261  12.434
28272W        W96635  29.088  40.319  13.432
28273W        W96636  27.021   4.740   0.243
28274W        W96637  21.161  36.867   2.885
28275W        W96638  29.445  31.900   5.247
28276W        W96639  33.412  19.233   2.257
28277W        W96640  32.135  40.403  13.865
28278W        W96641  40.954  31.436  13.317
28279W        W96642  21.689  41.792   0.245
28280W        W96643  28.608  29.459  10.531
28281W        W96644  28.006  32.517  14.768
28282W        W96645  31.529   3.218  12.074
28283W        W96646  17.154  30.151  13.835
28284W        W96647  41.378  17.571  11.401
28285W        W96648  13.243   3.798   4.647
28286W        W96649   3.713   6.211   2.291
28287W        W96650  21.745   0.904   0.879
28288W        W96651   6.279  26.667   3.240
28289W        W96652   7.783  26.653   3.750
28290W        W96653  35.451  19.666   3.781
28291W        W96654  32.442  16.737   2.885
28292W        W96655   6.749   7.233   1.307
28293W        W96656  26.565   0.828  13.896
28294W        W96657  26.149  34.441   3.308
28295W        W96658   0.783  15.089  10.133
28296W        W96659  18.770  44.338  13.811
28297W        W96660  23.675  27.544   2.781
28298W        W96661  10.235   2.942   3.712
28299W        W96662   2.939  28.161   3.831
28300W        W96663   9.726   8.717   2.737
28301W        W96664  26.035  21.586  14.474
28302W        W96665   4.237  16.610   3.787
28303W        W96666  12.840   0.282  13.993
28304W        W96667  41.396  14.719  13.006
28305W        W96668   3.875   4.784  14.021
28306W        W96669   5.897  34.987   4.199
28307W        W96670  39.027   9.764  11.594
28308W        W96671  12.623   8.757  13.518
28309W        W96672  31.403  12.252  12.433
28310W        W96673  27.190   9.366   1.315
28311W        W96674  33.407  16.281  10.938
28312W        W96675   6.229  10.711   0.944
28313W        W96676  38.472  15.288   1.710
28314W        W96677  44.867  19.167  12.038
28315W        W96678  13.184  42.841   1.319
28316W        W96679  40.017  20.709   3.839
28317W        W96680  39.884  28.183   1.930
28318W        W96681  34.008   3.849   2.233
28319W        W96682  44.889  13.350  11.388
28320W        W96683   6.827  18.139   4.117
28321W        W96684  30.120  43.507   2.738
28322W        W96685  34.933  17.113  12.494
28323W        W96686   1.402  43.971  10.028
28324W        W96687  20.063  31.523   0.733
28325W        W96688   1.803   4.309  13.833
28326W        W96689  25.185  12.790  13.897
28327W        W96690  13.606  21.758   1.881
28328W        W96691  30.152  43.314   1.241
28329W        W96692   2.920  13.711   1.263
28330W        W96693  14.336   9.888   0.831
28331W        W96694  29.990   8.368  14.479
28332W        W96695  33.990  19.144   1.752
28333W        W96696  20.588   0.250  12.923
28334W        W96697   6.767  21.671  13.907
28335W        W96698  37.570  32.090  11.596
28336W        W96699  10.777   4.363  13.398
28337W        W96700   8.715  37.888  10.983
28338W        W96701   0.876  10.682   2.395
28339W        W96702  16.299  40.491   4.338
28340W        W96703  17.584  17.226   1.228
28341W        W96704  38.401  40.858  12.439
28342W        W96705   4.326   2.240   4.302
28343W        W96706  38.918  39.884  11.594
28344W        W96707  18.165  23.069  13.834
28345W        W96708  15.697   8.895  10.594
28346W        W96709   8.878  12.312  13.325
28347W        W96710  44.419   1.244   1.836
28348W        W96711  16.610   5.267   3.217
28349W        W96712  35.385  19.132   0.303
28350W        W96713  44.896  15.187   1.856
28351W        W96714  29.581  36.448  11.963
28352W        W96715  36.425  13.331  11.939
28353W        W96716  25.637  34.610   2.355
28354W        W96717  39.863  22.648  13.478
28355W        W96718  33.391  41.498  13.427
28356W        W96719  22.104   2.747  12.556
28357W        W96720   7.198  41.816   3.799
28358W        W96721  19.609   7.192   4.692
28359W        W96722  19.164  17.574   1.351
28360W        W96723  10.706  40.527  13.353
28361W        W96724  21.225  37.457  10.070
28362W        W96725  22.671  21.227  14.947
28363W        W96726  43.272  37.960   5.684
28364W        W96727  39.823  12.719  11.470
28365W        W96728  42.823  44.908   0.845
28366W        W96729  40.052  26.194   1.765
28367W        W96730   2.756   5.236   0.279
28368W        W96731  44.874  33.059   0.347
28369W        W96732   9.721   5.355   1.723
28370W        W96733  25.195  39.856   1.766
28371W        W96734   6.798  22.648  14.758
28372W        W96735  30.546  29.089  14.000
28373W        W96736  25.664  44.440   2.366
28374W        W96737  21.225  31.501  10.965
28375W        W96738  35.972  13.809   0.892
28376W        W96739   4.380  41.822  11.999
28377W        W96740  11.371  28.581  12.036
28378W        W96741   8.787  21.148   2.790
28379W        W96742   2.273  19.650  12.409
28380W        W96743  12.145  33.621  14.319
28381W        W96744  33.884  11.217   4.132
28382W        W96745  42.966   9.155   3.250
28383W        W96746  30.095   4.864  13.491
28384W        W96747   3.819  43.843  10.414
28385W        W96748   0.378  38.029   4.610
28386W        W96749  22.545  14.145   3.816
28387W        W96750  41.482  38.858   1.898
28388W        W96751   5.830   6.309  12.889
28389W        W96752  37.967  14.662  12.014
28390W        W96753  17.729  31.896  12.929
28391W        W96754   6.698   4.331   2.856
28392W        W96755  33.916  17.656   1.280
28393W        W96756  44.005  26.469  10.618
28394W        W96757  12.698  24.641  12.429
28395W        W96758  38.993   6.248   3.236
28396W        W96759  10.243  36.566   4.145
28397W        W96760  19.153   7.764  12.445
28398W        W96761  13.340  13.177  12.355
28399W        W96762  33.028   8.780   1.796
28400W        W96763   5.889  29.067  14.368
28401W        W96764  12.250  33.973  11.524
28402W        W96765  25.197  35.100   3.747
28403W        W96766  29.615  18.558   5.273
28404W        W96767   6.740  19.776   4.156
28405W        W96768  24.676  42.905   1.291
28406W        W96769   4.841   2.304   5.115
28407W        W96770   0.917  44.791  10.484
28408W        W96771  28.967  26.531   3.320
28409W        W96772  36.094  38.046   2.419
28410W        W96773  28.101   1.284  14.300
28411W        W96774  12.765  42.009   0.810
28412W        W96775   0.392  36.428  11.417
28413W        W96776   7.216  20.686   0.437
28414W        W96777  31.477  12.128  11.856
28415W        W96778   2.468  23.571   1.375
28416W        W96779  38.929  11.142   3.735
28417W        W96780  36.563  43.386   4.685
28418W        W96781  15.713  22.006  13.836
28419W        W96782  38.487  19.760  13.057
28420W        W96783  22.625   7.176   3.654
28421W        W96784  10.147   0.355  11.523
28422W        W96785  23.123  30.070   1.272
28423W        W96786   2.903  15.579  12.425
28424W        W96787  19.541  44.931  13.402
28425W        W96788  18.724  22.249   1.243
28426W        W96789   0.916  36.572   4.707
28427W        W96790   0.965  23.189  13.920
28428W        W96791  10.723  40.977   1.752
28429W        W96792  16.318  41.345   4.636
28430W        W96793  37.966  10.250  10.034
28431W        W96794   3.238  17.137   2.734
28432W        W96795  26.180  26.177   3.240
28433W        W96796  22.171  42.313   1.718
28434W        W96797  31.435  44.906   3.315
28435W        W96798  13.167   2.264  14.932
28436W        W96799   5.901  29.666   3.803
28437W        W96800  19.716  21.644   1.905
28438W        W96801   3.380  35.966   3.160
28439W        W96802  43.377  26.203  11.903
28440W        W96803  44.490  43.020   0.834
28441W        W96804  40.339  27.514   1.753
28442W        W96805   4.237  19.081  12.064
28443W        W96806  13.151  42.945   2.211
28444W        W96807  29.173  28.968   5.801
28445W        W96808  15.085   4.785  10.406
28446W        W96809  16.189  29.170  14.512
28447W        W96810  31.038  34.005  12.567
28448W        W96811  21.519   4.938  11.519
28449W        W96812  33.058  32.609   2.685
28450W        W96813  21.646  23.182  14.954
28451W        W96814  34.549  12.706  10.570
28452W        W96815  44.500   7.407  14.032
28453W        W96816  44.806  33.418   0.382
28454W        W96817  20.672  29.534  11.535
28455W        W96818   1.275  23.564   4.602
28456W        W96819   4.932  17.084   1.809
28457W        W96820  18.162  22.502  14.512
28458W        W96821  10.253  38.397   9.999
28459W        W96822   3.216   1.818  13.541
28460W        W96823   5.428  11.694  13.965
28461W        W96824   9.702   0.270   3.354
28462W        W96825  17.077   8.742  14.346
28463W        W96826  25.479  36.979  12.904
28464W        W96827  21.223   5.913  10.536
28465W        W96828  44.313  23.559   0.857
28466W        W96829  19.127   3.755   1.777
28467W        W96830  18.694  44.883   9.473
28468W        W96831  10.716  27.692  10.404
28469W        W96832  13.794   4.820   3.198
28470W        W96833   1.831   4.909   1.808
28471W        W96834  26.688   1.478   4.267
28472W        W96835  15.708  14.339  12.575
28473W        W96836  31.623  27.144  12.517
28474W        W96837  27.155  40.016  14.858
28475W        W96838  28.025  14.799   1.328
28476W        W96839  43.371   8.779   1.369
28477W        W96840  25.099  23.081  11.452
28478W        W96841   5.835  31.108  11.991
28479W        W96842  28.123  33.568  13.852
28480W        W96843  21.644  33.097   4.797
28481W        W96844  22.167   3.771  11.495
28482W        W96845  21.229  38.386   0.365
28483W        W96846  44.888  21.125   2.237
28484W        W96847   8.276  26.674  12.532
28485W        W96848  15.753  37.997  10.501
28486W        W96849  17.240  31.565  12.831
28487W        W96850   6.351  11.867   5.288
28488W        W96851  29.097  38.845   2.756
28489W        W96852  10.318  13.779  14.808
28490W        W96853  29.158   4.788   1.413
28491W        W96854  24.690  38.869   4.804
28492W        W96855   3.422  10.737   3.629
28493W        W96856  17.300  20.067   2.215
28494W        W96857  33.899  27.480  14.458
28495W        W96858  35.359   9.721   3.255
28496W        W96859  15.735  11.719  11.100
28497W        W96860  17.739  42.977  14.302
28498W        W96861  35.012  39.336   0.250
28499W        W96862   7.414  16.220  11.577
28500W        W96863  34.551   3.313   1.745
28501W        W96864   9.725  14.750   3.667
28502W        W96865  17.592  22.554   0.799
28503W        W96866  11.140   9.693   0.781
28504W        W96867  16.315  16.782   3.665
28505W        W96868   7.873   2.312   3.779
28506W        W96869  21.513  39.431   1.343
28507W        W96870   0.780  15.704  10.904
28508W        W96871  18.727  13.787  13.889
28509W        W96872  21.260   3.326  14.795
28510W        W96873  21.251  13.705   2.324
28511W        W96874  21.083  26.186  14.801
28512W        W96875  27.112  42.339  14.977
28513W        W96876  10.362   7.183  10.605
28514W        W96877  14.335  34.548   3.790
28515W        W96878  29.127  29.937   4.802
28516W        W96879  43.990  28.586  14.465
28517W        W96880  32.132  11.366  10.049
28518W        W96881  37.350   9.338  13.832
28519W        W96882  12.804  19.709   3.274
28520W        W96883  21.235   0.274  10.133
28521W        W96884  13.240  27.107  13.863
28522W        W96885  35.481   3.785   3.641
28523W        W96886   2.428  31.519   1.753
28524W        W96887  31.503  44.503   5.301
28525W        W96888  24.655  22.502   4.616
28526W        W96889   9.238  38.412  10.480
28527W        W96890   2.447  42.484   2.761
28528W        W96891  36.047  21.080  11.485
28529W        W96892  29.087  14.316   0.255
28530W        W96893  39.029  16.710   2.771
28531W        W96894  24.528   9.269  14.315
28532W        W96895   3.814   2.281   0.966
28533W        W96896  29.923  24.215   2.200
28534W        W96897  31.050  41.791   4.164
28535W        W96898  21.745  16.717  10.969
28536W        W96899  40.020  19.129  10.441
28537W        W96900  14.601   9.864  11.864
28538W        W96901   2.237  44.868  14.433
28539W        W96902  11.335   8.232   3.245
28540W        W96903  40.362   6.720  12.902
28541W        W96904  43.862  22.151   1.708
28542W        W96905  15.606  30.476   0.886
28543W        W96906  38.389  29.495   3.386
28544W        W96907  20.686  30.627  13.317
28545W        W96908  30.913  13.250   2.317
28546W        W96909   3.438  37.019   4.647
28547W        W96910   7.320  20.612   1.799
28548W        W96911   0.364   0.857  14.516
28549W        W96912   4.207  23.501  13.892
28550W        W96913  36.469  35.514  14.000
28551W        W96914  11.358  38.539  12.366
28552W        W96915  23.636  36.450   2.226
28553W        W96916   8.174  36.447   1.888
28554W        W96917   6.824  27.640   2.302
28555W        W96918  16.722  34.542  14.460
28556W        W96919   6.694   9.884   1.214
28557W        W96920  12.131  33.923  14.942
28558W        W96921   3.363   4.755   1.220
28559W        W96922  39.052  24.199   5.236
28560W        W96923   1.902  43.875   1.853
28561W        W96924  43.875  16.588  13.018
28562W        W96925  36.918  22.146   1.318
28563W        W96926   6.755  30.427   4.308
28564W        W96927  29.981  14.808   0.831
28565W        W96928  29.068  40.943   3.760
28566W        W96929  36.056  13.729  14.861
28567W        W96930   7.863  38.424  12.366
28568W        W96931  28.025  23.723  12.536
28569W        W96932   0.286  11.741  14.376
28570W        W96933  15.764  27.683   1.294
28571W        W96934  39.494  28.174  10.510
28572W        W96935  17.284  40.895  14.307
28573W        W96936  18.727  12.331  11.590
28574W        W96937  37.582   8.778   2.866
28575W        W96938  39.949  33.602  14.021
28576W        W96939  43.402   6.401   1.905
28577W        W96940  27.586  12.676   3.278
28578W        W96941  34.067  43.968  10.506
28579W        W96942  37.079  20.113   1.804
28580W        W96943  20.550  34.583   1.797
28581W        W96944  14.163  14.765   2.780
28582W        W96945  35.860   4.404  13.505
28583W        W96946  26.972  43.908  12.035
28584W        W96947  26.016  42.327  11.514
28585W        W96948  44.882  30.113   3.637
28586W        W96949   5.844  12.851  13.398
28587W        W96950  21.080  24.674   2.741
28588W        W96951  29.011  10.299  10.943
28589W        W96952  36.495  11.309   9.958
28590W        W96953  15.818  35.518  11.378
28591W        W96954  39.331  11.289   3.630
28592W        W96955  31.589  38.555   0.854
28593W        W96956   6.678   5.263   0.449
28594W        W96957  40.839   4.835  12.496
28595W        W96958   9.662   0.304   3.741
28596W        W96959  24.050  17.296  12.022
28597W        W96960  29.986  10.675  14.371
28598W        W96961  38.348   7.876   4.199
28599W        W96962   0.461  25.114   4.699
28600W        W96963   8.185   0.958  13.975
28601W        W96964  25.665   7.366  12.463
28602W        W96965  37.983  36.866  11.024
28603W        W96966  26.044  32.034   0.293
28604W        W96967  15.286  24.624   3.327
28605W        W96968   8.401   2.917  11.971
28606W        W96969  12.727  30.126  10.964
28607W        W96970  41.486  41.461  12.464
28608W        W96971   3.758  40.446   2.367
28609W        W96972  10.269  12.220   9.922
28610W        W96973  24.696  12.748   2.670
28611W        W96974  19.689  26.180   2.284
28612W        W96975  40.547  30.524  12.001
28613W        W96976   2.266  32.980  12.888
28614W        W96977  31.623   2.256   3.315
28615W        W96978  18.226  14.335   0.920
28616W        W96979  19.605  27.560  14.429
28617W        W96980  13.273  28.108   4.811
28618W        W96981  25.091  14.765   2.183
28619W        W96982  21.027   5.854   2.884
28620W        W96983  40.960  44.412   3.308
28621W        W96984  16.105  11.660   4.598
28622W        W96985   1.942  18.295   3.284
28623W        W96986   6.389  14.245   2.838
28624W        W96987   8.207  13.259  14.968
28625W        W96988  44.296  23.546   2.788
28626W        W96989  43.971  37.421   3.702
28627W        W96990  21.719   0.318  12.964
28628W        W96991   3.410   4.905   0.383
28629W        W96992  19.224  23.734  13.352
28630W        W96993  15.143   0.449   1.803
28631W        W96994  25.990   9.303   3.257
28632W        W96995  24.164  30.036  10.475
28633W        W96996   7.391  22.672   4.799
28634W        W96997  23.629  21.556  12.507
28635W        W96998  17.668  44.321  10.938
28636W        W96999  13.787  35.469  10.549
28637W        W97000  27.105  37.387   0.926
28638W        W97001  25.563  34.493  11.092
28639W        W97002  20.608  37.410   1.217
28640W        W97003  18.103  44.449  13.366
28641W        W97004  12.800  11.862  13.529
28642W        W97005  41.856  36.910   4.733
28643W        W97006  16.751  22.705   2.310
28644W        W97007  30.128  31.578  11.547
28645W        W97008  27.471  14.136   1.840
28646W        W97009  25.087   9.228   2.388
28647W        W97010   8.778  17.585  13.348
28648W        W97011   5.853  38.392   0.934
28649W        W97012  32.584  34.496  11.032
28650W        W97013  17.307  10.802  11.595
28651W        W97014  37.985   0.897   1.694
28652W        W97015  34.543  36.450   1.312
28653W        W97016  30.908  14.168   0.885
28654W        W97017   5.749  18.585  10.434
28655W        W97018  37.403   6.802  10.410
28656W        W97019  11.714   5.248   2.869
28657W        W97020  22.684  23.049   3.280
28658W        W97021  20.710   7.675  12.930
28659W        W97022  12.340  35.917   1.297
28660W        W97023  42.457  36.973   0.267
28661W        W97024   2.907  18.165  12.022
28662W        W97025  29.572  43.367   1.405
28663W        W97026  34.927  10.245  12.979
28664W        W97027  40.488   7.751  14.310
28665W        W97028  34.004  19.063   4.332
28666W        W97029  29.433  24.184  13.447
28667W        W97030  41.817  22.052   3.226
28668W        W97031  16.262  37.053  11.858
28669W        W97032  25.523   2.293   3.148
28670W        W97033  11.625  39.957  10.429
28671W        W97034  23.145  42.512  11.519
28672W        W97035   1.429  14.791  11.498
28673W        W97036  13.839  10.235   4.779
28674W        W97037   2.913  20.756   0.442
28675W        W97038  11.777  40.538   4.145
28676W        W97039   2.272  41.868   2.876
28677W        W97040  31.538  35.507   0.274
28678W        W97041  31.570  27.635   0.469
28679W        W97042  13.750  16.282  12.029
28680W        W97043  24.153  25.680  11.913
28681W        W97044  22.648  16.796   3.183
28682W        W97045  37.935   4.750   4.263
28683W        W97046  32.072   1.483  12.061
28684W        W97047  10.699  17.556   3.269
28685W        W97048  35.921  13.334  12.890
28686W        W97049  43.949  36.389   5.107
28687W        W97050   4.289  19.695   4.763
28688W        W97051  39.462  36.936   2.856
28689W        W97052  40.351  43.778   4.631
28690W        W97053   5.436  26.547  10.640
28691W        W97054  16.267  44.278  11.452
28692W        W97055   6.716  33.560   4.791
28693W        W97056  13.844   9.237   1.342
28694W        W97057  18.168  29.582  14.810
28695W        W97058  24.606  19.634  12.888
28696W        W97059  27.989  13.648   3.793
28697W        W97060   8.273  41.915  14.862
28698W        W97061  39.323  39.008   3.265
28699W        W97062   9.702  38.379   4.211
28700W        W97063   5.292  24.707  14.001
28701W        W97064  44.773  33.994   2.716
28702W        W97065   8.226  10.844   0.261
28703W        W97066   3.863  11.622  11.999
28704W        W97067  19.662  43.923  12.366
28705W        W97068  22.241  26.079  11.860
28706W        W97069  11.190  35.533  13.922
28707W        W97070   9.653   8.735   3.676
28708W        W97071   4.782  39.341   3.843
28709W        W97072   5.394  31.021   1.240
28710W        W97073  26.617  19.676  12.930
28711W        W97074  20.725  39.483  11.445
28712W        W97075  40.897  34.503  14.323
28713W        W97076   6.817  28.453  12.442
28714W        W97077   4.814  37.914   2.251
28715W        W97078  30.970  24.643   3.762
28716W        W97079  23.548  38.836  12.839
28717W        W97080   2.890  29.103   0.383
28718W        W97081  10.289   8.405  10.532
28719W        W97082   1.474  29.006   3.769
28720W        W97083  32.558  37.518   1.873
28721W        W97084  29.979   7.358  10.564
28722W        W97085  23.190  21.105  12.912
28723W        W97086  31.579   4.304  10.459
28724W        W97087  39.416  17.186  11.858
28725W        W97088  22.626  18.647   3.221
28726W        W97089  19.109  12.311   0.745
28727W        W97090   6.407  36.401   4.192
28728W        W97091  27.077  28.948  11.437
28729W        W97092  23.504  28.629  14.455
28730W        W97093  35.883  26.984   2.391
28731W        W97094  33.908  20.201   4.602
28732W        W97095  44.428   9.802   1.730
28733W        W97096  28.552   2.929   3.312
28734W        W97097  17.076  23.523  13.467
28735W        W97098  42.427  41.891   3.841
28736W        W97099  27.547  31.961  10.587
28737W        W97100  21.543  27.569   3.363
28738W        W97101   2.730  24.515   0.956
28739W        W97102  36.546  14.327   4.607
28740W        W97103  13.607   4.426   3.726
28741W        W97104  35.977  24.161  11.111
28742W        W97105  15.239  27.950  12.555
28743W        W97106   4.743   9.770  11.568
28744W        W97107  41.950   2.356  10.534
28745W        W97108  19.078  37.915   0.825
28746W        W97109  42.512  36.491   2.211
28747W        W97110   2.265  10.782   3.165
28748W        W97111  36.977  27.579   1.287
28749W        W97112  35.402  19.711  10.975
28750W        W97113  29.143   8.260   0.772
28751W        W97114  25.492  30.473   2.394
28752W        W97115  23.566  21.231   1.212
28753W        W97116  35.097   5.719   3.764
28754W        W97117  34.064  31.092  10.449
28755W        W97118  18.290  44.949   4.322
28756W        W97119  30.515  36.434  13.471
28757W        W97120  15.155   6.742   0.388
28758W        W97121  43.775  43.773  13.903
28759W        W97122   5.229  27.043  12.357
28760W        W97123  19.172   3.358  14.314
28761W        W97124  28.511   6.210   1.359
28762W        W97125  36.963  41.484   4.709
28763W        W97126  35.535   6.197   4.799
28764W        W97127   5.912  33.984  11.947
28765W        W97128  23.228  22.722   4.785
28766W        W97129   7.383  29.497   2.797
28767W        W97130  13.777  32.522  13.495
28768W        W97131  17.610  12.195   2.247
28769W        W97132  14.154  35.563  14.374
28770W        W97133  22.719  32.505   1.774
28771W        W97134  31.903   2.444  10.064
28772W        W97135  14.770  21.666   3.370
28773W        W97136  32.476   5.898   0.881
28774W        W97137  18.671  10.815   3.793
28775W        W97138   7.288   0.322   2.706
28776W        W97139   7.289  10.726  14.798
28777W        W97140  44.992  29.611  14.315
28778W        W97141   3.382  17.230  11.579
28779W        W97142  23.709  18.773   2.243
28780W        W97143  35.093  34.994  14.363
28781W        W97144  17.163  33.922   4.730
28782W        W97145  35.875  10.183   1.911
28783W        W97146  33.478  24.510  13.043
28784W        W97147   3.776  39.485   3.687
28785W        W97148  36.908   4.289  13.403
28786W        W97149  26.983   6.838   4.353
28787W        W97150   4.853  32.951   1.448
28788W        W97151  33.460  43.779   3.865
28789W        W97152   4.379  29.424  12.964
28790W        W97153  27.531  32.941  11.573
28791W        W97154  42.032  31.045   4.614
28792W        W97155  33.481  28.042   2.788
28793W        W97156  31.943  38.361  14.508
28794W        W97157  21.736   0.348   4.241
28795W        W97158  44.277   6.768   1.311
28796W        W97159  22.220  16.587  13.473
28797W        W97160  16.796  18.203   2.884
28798W        W97161  14.150  32.419  14.924
28799W        W97162  22.580  36.482   3.662
28800W        W97163  23.986  20.536   0.743
28801W        W97164  42.805  24.146   2.887
28802W        W97165  27.121   0.470   2.897
28803W        W97166  39.884  32.938   0.904
28804W        W97167  38.347  39.424   1.874
28805W        W97168  25.469  37.082  10.490
28806W        W97169  41.329  37.952   0.373
28807W        W97170   0.911   2.257   1.701
28808W        W97171  31.480  14.300  14.929
28809W        W97172  41.851  35.533  11.006
28810W        W97173  36.542  19.773   2.222
28811W        W97174  31.977  36.931  13.334
28812W        W97175  42.927  26.135   0.858
28813W        W97176   2.909  18.715  14.426
28814W        W97177   5.244  16.284   2.894
28815W        W97178  33.557  30.423   4.155
28816W        W97179   1.965  31.481   0.966
28817W        W97180  38.969   0.977  14.879
28818W        W97181  33.028   1.269   9.997
28819W        W97182  14.607  41.976  11.417
28820W        W97183   3.815  18.706   1.741
28821W        W97184   8.398  11.325  11.058
28822W        W97185  39.503  19.587  13.857
28823W        W97186  30.529  36.352  12.028
28824W        W97187  33.937  15.102   1.309
28825W        W97188  16.668  13.295   0.913
28826W        W97189  40.387  17.171  13.546
28827W        W97190  39.445  33.033   2.859
28828W        W97191  23.718  25.011   0.431
28829W        W97192  31.442  17.620   4.123
28830W        W97193  25.219  16.665  11.567
28831W        W97194   1.381   0.823  14.322
28832W        W97195  42.947  27.465   4.169
28833W        W97196  40.812  18.288  11.408
28834W        W97197   5.888  36.523  11.025
28835W        W97198  10.265  37.373   1.412
28836W        W97199   0.812   6.189  10.576
28837W        W97200   1.347  34.052   3.377
28838W        W97201  20.150   8.258  12.870
28839W        W97202  36.589  28.592  12.064
28840W        W97203  18.648  35.993  12.847
28841W        W97204  43.771  15.305   1.796
28842W        W97205  13.277  19.077  12.832
28843W        W97206  23.726  12.128  13.828
28844W        W97207  18.142  43.486  10.077
28845W        W97208   1.737   6.216  12.541
28846W        W97209  25.522  34.051  12.449
28847W        W97210   6.326  41.995   1.710
28848W        W97211  31.605  14.258  13.504
28849W        W97212  35.912  43.950   3.707
28850W        W97213  29.937  19.642   2.377
28851W        W97214  39.384  39.034  13.986
28852W        W97215   0.389  37.345  12.928
28853W        W97216  37.356  10.332  12.374
28854W        W97217   9.752  35.887   3.838
28855W        W97218  12.341  37.953  12.498
28856W        W97219  28.495   9.321   0.822
28857W        W97220  17.257  13.618  14.343
28858W        W97221  35.375  12.222  13.392
28859W        W97222  35.064  32.899   4.352
28860W        W97223  36.448  43.964  12.075
28861W        W97224   7.678   2.745  11.404
28862W        W97225  12.740  18.199  11.609
28863W        W97226  41.431  42.423   4.194
28864W        W97227  25.124  31.585  13.532
28865W        W97228  27.026  37.565   3.210
28866W        W97229  30.562   3.419   1.833
28867W        W97230  35.539  24.492  10.557
28868W        W97231  29.426  36.025   3.161
28869W        W97232  17.656  15.255  11.081
28870W        W97233  44.412  31.641  11.601
28871W        W97234  39.515  30.916   3.368
28872W        W97235  42.504  27.590  11.106
28873W        W97236  33.033  24.062   4.716
28874W        W97237   1.257  24.627   4.192
28875W        W97238  32.444   7.713   3.263
28876W        W97239  36.550  44.001  12.934
28877W        W97240  42.440  39.523  11.587
28878W        W97241  18.141  43.865  12.449
28879W        W97242   3.831  20.524  14.993
28880W        W97243  12.650  32.398  12.459
28881W        W97244  38.891   5.757  12.461
28882W        W97245  20.693  22.700   0.952
28883W        W97246   8.867  15.780   5.135
28884W        W97247  25.002  32.917  10.109
28885W        W97248  42.802  43.854   0.935
28886W        W97249  30.072   1.748  11.436
28887W        W97250   4.357  31.132   4.820
28888W        W97251  31.593   6.725  10.503
28889W        W97252  16.767  39.416  10.467
28890W        W97253   1.895  16.129  13.913
28891W        W97254  24.974  29.140  11.411
28892W        W97255  15.642  42.971   1.246
28893W        W97256   3.439   7.696   0.389
28894W        W97257  42.915  23.985   4.662
28895W        W97258  27.564  28.644  10.497
28896W        W97259  34.548   6.201   0.921
28897W        W97260  25.626  28.633  12.924
28898W        W97261  32.004  44.877  14.445
28899W        W97262  32.498   0.479   0.814
28900W        W97263  31.033  39.417  14.998
28901W        W97264   5.753  29.464   1.219
28902W        W97265  15.722  12.798   0.333
28903W        W97266  18.069  15.090   3.174
28904W        W97267  19.719  32.440   0.335
28905W        W97268  39.472  22.712   1.820
28906W        W97269  40.385  25.978  11.990
28907W        W97270   9.820   0.788  14.964
28908W        W97271   3.455  32.950  13.874
28909W        W97272  28.076  14.321  11.555
28910W        W97273  27.477  43.018   3.146
28911W        W97274   9.795   0.811  10.505
28912W        W97275  39.907  41.952   1.769
28913W        W97276  30.147  12.204   3.773
28914W        W97277  39.927  16.806   1.731
28915W        W97278  30.649  21.087   0.354
28916W        W97279  24.712  12.634  11.069
28917W        W97280  35.589  25.079  14.848
28918W        W97281   8.253  14.193   0.871
28919W        W97282  30.596  13.303   2.396
28920W        W97283  11.790  15.213  14.463
28921W        W97284  41.481  11.717   0.750
28922W        W97285  43.782  20.740  13.018
28923W        W97286  22.586   1.481  11.907
28924W        W97287   2.344  39.857   2.867
28925W        W97288  29.165   4.239  12.341
28926W        W97289  25.063  15.147  12.828
28927W        W97290   1.254  18.226  11.897
28928W        W97291  20.234  14.294   2.730
28929W        W97292  14.178  22.051   1.716
28930W        W97293   4.366  13.274  14.342
28931W        W97294  40.307  18.288  14.846
28932W        W97295  19.064  40.911   3.196
28933W        W97296   9.237  14.779   1.803
28934W        W97297  19.611   7.178  13.023
28935W        W97298  40.834  16.279  13.518
28936W        W97299  14.160  27.678   3.372
28937W        W97300  43.805  31.063  11.907
28938W        W97301   5.374  24.028   2.228
28939W        W97302  16.597  25.709   4.146
28940W        W97303  34.891  17.109   1.272
28941W        W97304   8.718  39.351  13.048
28942W        W97305  16.124   2.965   1.783
28943W        W97306  27.598  39.375   2.364
28944W        W97307  41.832  10.378   1.394
28945W        W97308  33.879  26.458   9.933
28946W        W97309   9.292  17.307   1.400
28947W        W97310  30.486  34.878   3.325
28948W        W97311   5.334   2.775   3.748
28949W        W97312  25.014   7.733  12.372
28950W        W97313   6.693  31.121   3.693
28951W        W97314  26.110  44.312   3.352
28952W        W97315   1.436  13.679   0.294
28953W        W97316   4.937  16.807  14.395
28954W        W97317  17.246  28.641   3.716
28955W        W97318  14.165  12.813  12.462
28956W        W97319  21.147  31.542   1.891
28957W        W97320   4.762   7.202  11.902
28958W        W97321  22.562  14.275  14.030
28959W        W97322  20.132  32.005   4.219
28960W        W97323  26.028   4.933  13.820
28961W        W97324   6.182  23.207   1.746
28962W        W97325  28.642  15.141   0.732
28963W        W97326  33.572  38.993   5.105
28964W        W97327  22.735  25.511   1.779
28965W        W97328   1.417  39.344  13.436
28966W        W97329  33.884  23.203  14.502
28967W        W97330  42.970  36.496   4.317
28968W        W97331   8.200  25.550  12.028
28969W        W97332  41.947  33.080  10.480
28970W        W97333  17.556  19.754   4.776
28971W        W97334  42.394  18.051  14.445
28972W        W97335  37.342  21.140   5.104
28973W        W97336  23.181  37.574  14.012
28974W        W97337  11.648  35.922   3.168
28975W        W97338  29.507   5.781  14.990
28976W        W97339  29.134  34.576  12.022
28977W        W97340  26.080  29.666  14.310
28978W        W97341  13.806  26.533  13.997
28979W        W97342   5.814  18.092  14.802
28980W        W97343  10.790  41.389  14.471
28981W        W97344  20.575  43.875  12.971
28982W        W97345   6.426   2.796  14.971
28983W        W97346  15.783   8.163  10.960
28984W        W97347  24.690  26.154  13.830
28985W        W97348  32.437  33.877  11.862
28986W        W97349  26.626  32.548   0.842
28987W        W97350   5.739  31.432   2.309
28988W        W97351   0.868  42.883  14.865
28989W        W97352  39.424  10.746   2.714
28990W        W97353   6.827  42.398   2.371
28991W        W97354  29.941  18.101   4.268
28992W        W97355  24.096  44.484   4.115
28993W        W97356  37.488   9.701   4.673
28994W        W97357   2.797  31.980  13.890
28995W        W97358   9.359  39.928   4.186
28996W        W97359  10.215   3.941   5.082
28997W        W97360  24.504  43.379  12.895
28998W        W97361  33.082  39.955  10.963
28999W        W97362  18.095  32.523  14.769
29000W        W97363  11.249  40.488  13.925
29001W        W97364   5.712   1.756   0.243
29002W        W97365  36.506   6.408  14.401
29003W        W97366  24.519  30.559  13.351
29004W        W97367  36.476   7.240   2.316
29005W        W97368  42.340   5.414   2.851
29006W        W97369  23.552   8.897   4.668
29007W        W97370   2.235  27.460  13.383
29008W        W97371   2.240  16.186   2.745
29009W        W97372  33.974  15.611  11.946
29010W        W97373   6.711  29.571  11.972
29011W        W97374  34.546   8.701  14.973
29012W        W97375  38.862  38.399  12.836
29013W        W97376  36.473  39.428   0.421
29014W        W97377  31.476  11.674  13.887
29015W        W97378  33.975   7.409   4.339
29016W        W97379   9.801  27.515   1.386
29017W        W97380   3.221  43.473   0.950
29018W        W97381  35.038   4.424  11.499
29019W        W97382  11.685   3.370   1.894
29020W        W97383  32.009  28.024  10.111
29021W        W97384  28.673  37.868  14.961
29022W        W97385  15.819  42.965   3.185
29023W        W97386  31.112  41.379   4.322
29024W        W97387  24.124  21.656   2.690
29025W        W97388  33.399  23.572  12.574
29026W        W97389   5.878  34.082   3.172
29027W        W97390  38.872  13.823  10.050
29028W        W97391  42.293  22.596   2.726
29029W        W97392   1.398   7.315  13.996
29030W        W97393  36.965  31.023   4.742
29031W        W97394   1.272  11.831   3.313
29032W        W97395  44.883  32.063  10.981
29033W        W97396   0.900  30.031   1.922
29034W        W97397  15.760  31.931   1.383
29035W        W97398  41.512  40.438   4.838
29036W        W97399  30.067  40.822  10.420
29037W        W97400  21.695  19.573   2.203
29038W        W97401   9.865  26.528   3.837
29039W        W97402  29.664  10.738   3.686
29040W        W97403  29.481   5.787   3.802
29041W        W97404  17.221  20.574  12.365
29042W        W97405   8.253  33.929  13.815
29043W        W97406  12.837  37.387   0.948
29044W        W97407  15.805  35.540   3.699
29045W        W97408  22.210  33.555   2.712
29046W        W97409   5.431  29.555   0.779
29047W        W97410   9.667  20.255   4.721
29048W        W97411  44.803  12.661   3.259
29049W        W97412   3.283   6.357  11.398
29050W        W97413  11.774  37.844   4.816
29051W        W97414   2.908  24.559   3.213
29052W        W97415   5.710   7.890   2.311
29053W        W97416   0.886  18.258   1.250
29054W        W97417  26.474  38.382   1.869
29055W        W97418  29.489  28.620  14.844
29056W        W97419  42.480  12.729   0.278
29057W        W97420  17.750  31.529   3.275
29058W        W97421   7.727  13.639  13.468
29059W        W97422  36.496  30.532   0.296
29060W        W97423  25.009  35.386  11.528
29061W        W97424  10.802   3.361  13.813
29062W        W97425  18.283  41.488  14.872
29063W        W97426  27.648   1.903   2.408
29064W        W97427  32.023  39.860  10.642
29065W        W97428  16.703  10.684   1.852
29066W        W97429  27.071  37.029  13.994
29067W        W97430   8.866  16.738  14.360
29068W        W97431   3.266  36.967   0.479
29069W        W97432  31.960   6.864   3.303
29070W        W97433   3.731  17.067   9.984
29071W        W97434  18.647   7.399   2.662
29072W        W97435  26.539  40.839  10.982
29073W        W97436  32.129  27.059  13.335
29074W        W97437  25.128  14.725  13.915
29075W        W97438  16.292  24.612  10.559
29076W        W97439  13.624  18.549  13.006
29077W        W97440  40.843   7.688   1.394
29078W        W97441  13.289  31.979   1.389
29079W        W97442   2.744  35.385  12.438
29080W        W97443  38.947  44.406   2.205
29081W        W97444   9.694  39.879   1.445
29082W        W97445   6.397   1.269  10.891
29083W        W97446  26.197  21.632  13.533
29084W        W97447  32.570  26.109   3.766
29085W        W97448  40.041   3.271  12.398
29086W        W97449  37.855   8.229  13.547
29087W        W97450   3.366   8.360   2.267
29088W        W97451  16.583  43.481  12.426
29089W        W97452  12.161  15.298  11.934
29090W        W97453  29.569  32.581  14.349
29091W        W97454  19.624  15.723   4.725
29092W        W97455  10.228   4.728   4.630
29093W        W97456  31.553   0.285  10.432
29094W        W97457   2.863  24.561   1.780
29095W        W97458  29.568   8.864   3.778
29096W        W97459   4.216  33.933  13.508
29097W        W97460   7.752  37.500  12.940
29098W        W97461  16.755  39.885   0.794
29099W        W97462  25.706  41.410  14.277
29100W        W97463  30.016  10.845  14.937
29101W        W97464  10.233  17.265  10.546
29102W        W97465  14.283  41.904  11.982
29103W        W97466  41.536  15.772   1.332
29104W        W97467  18.123  42.017   0.470
29105W        W97468  15.761  15.703   5.624
29106W        W97469  44.833  44.801  13.312
29107W        W97470  18.151  27.964   2.192
29108W        W97471  34.595  41.865   1.373
29109W        W97472   4.918  30.970   4.694
29110W        W97473  18.127  34.487   3.263
29111W        W97474  17.632  40.527  13.371
29112W        W97475  23.630  35.954  14.460
29113W        W97476  38.956  23.524  11.531
29114W        W97477  19.632  15.157   4.334
29115W        W97478  39.477  32.932   0.373
29116W        W97479  19.743  25.709   2.855
29117W        W97480  12.165   8.828   2.862
29118W        W97481   4.438   5.745   1.281
29119W        W97482  22.658   0.883   4.305
29120W        W97483  39.453  16.245  13.983
29121W        W97484   3.349   7.771   2.248
29122W        W97485  31.967  26.060  10.518
29123W        W97486  35.562   3.859  10.934
29124W        W97487  35.945   6.890   3.235
29125W        W97488  14.702  10.732   4.689
29126W        W97489  27.085  34.016   0.472
29127W        W97490   9.313  42.339  11.477
29128W        W97491  11.829  24.053   5.229
29129W        W97492  19.740  22.565   4.310
29130W        W97493  14.335  31.963  12.913
29131W        W97494  42.452  40.548   0.728
29132W        W97495  17.069   2.249  14.953
29133W        W97496   4.379   4.331   1.834
29134W        W97497  14.143  29.957  14.291
29135W        W97498   6.283  24.051   2.370
29136W        W97499  27.550  37.903  13.928
29137W        W97500   9.212  10.383   0.394
29138W        W97501  26.603  44.464  10.493
29139W        W97502  31.949   1.734   1.882
29140W        W97503   6.388   0.925   5.099
29141W        W97504  32.066  20.556  11.068
29142W        W97505  14.217  25.616  11.893
29143W        W97506  13.202   8.382  10.919
29144W        W97507  32.479  35.500  14.999
29145W        W97508  35.104  36.861  11.024
29146W        W97509  37.558  35.944   2.375
29147W        W97510  22.161  19.660  14.413
29148W        W97511  13.218   1.955  12.548
29149W        W97512  12.809  23.094  12.964
29150W        W97513  35.992  41.333  13.419
29151W        W97514  18.262  14.208   4.828
29152W        W97515   5.818  19.562  14.318
29153W        W97516  25.477  13.180  14.512
29154W        W97517  23.057  34.980  10.954
29155W        W97518  22.110  32.969   4.749
29156W        W97519  31.967  17.735  11.885
29157W        W97520  13.247   0.445  12.459
29158W        W97521  41.350  32.493  11.860
29159W        W97522  33.528  28.625  10.639
29160W        W97523  43.817  14.309  12.916
29161W        W97524  24.194  35.885   3.860
29162W        W97525  25.577   8.740  13.378
29163W        W97526  16.717  40.861   1.897
29164W        W97527  42.323  38.523  13.424
29165W        W97528   6.840  44.811  14.325
29166W        W97529  22.112  37.413   1.234
29167W        W97530  27.667  13.792   5.199
29168W        W97531  17.703  17.570   2.847
29169W        W97532   2.960  36.565   3.747
29170W        W97533  34.384  27.687  10.972
29171W        W97534  32.090  21.069  11.879
29172W        W97535  43.002  12.612   2.804
29173W        W97536  12.716  32.439  11.502
29174W        W97537  30.950  25.079   3.703
29175W        W97538  43.851  44.500   1.452
29176W        W97539  41.305   0.935   2.318
29177W        W97540  16.286  31.505   2.419
29178W        W97541   3.287  23.058   1.232
29179W        W97542  11.282  26.155   1.343
29180W        W97543  25.967  42.332   0.824
29181W        W97544  41.317  29.133   2.185
29182W        W97545  13.766   5.857   5.289
29183W        W97546  16.806  34.114  13.979
29184W        W97547  42.913  38.447   4.319
29185W        W97548  34.932   7.874   2.744
29186W        W97549  22.087  39.376   2.878
29187W        W97550  23.512  28.098  12.992
29188W        W97551  19.679  16.570   4.624
29189W        W97552   8.855  27.503  13.426
29190W        W97553  14.630  27.488  11.055
29191W        W97554  34.060  22.679   4.657
29192W        W97555  33.395  14.311  13.442
29193W        W97556   1.923  16.797  12.038
29194W        W97557  37.017  27.145   4.734
29195W        W97558  25.481  40.473   1.779
29196W        W97559  15.291   8.774   2.756
29197W        W97560   5.859  18.613   3.849
29198W        W97561   2.367   8.717   4.609
29199W        W97562  38.934  21.092   5.313
29200W        W97563  44.893  44.973  11.378
29201W        W97564  17.218  21.264   4.287
29202W        W97565  26.048  18.597  13.009
29203W        W97566  15.658   9.366  12.970
29204W        W97567   5.266  37.976   4.792
29205W        W97568  34.478  20.756   3.297
29206W        W97569  37.433  37.540   1.334
29207W        W97570  42.889  42.861  14.384
29208W        W97571   2.368  25.541  11.007
29209W        W97572  19.114  42.872   4.252
29210W        W97573  31.149  21.750   2.666
29211W        W97574  27.454  35.372  12.355
29212W        W97575   4.865  42.811  13.888
29213W        W97576   5.397  37.498   1.785
29214W        W97577  11.177   8.304  13.493
29215W        W97578  19.552  31.911   4.630
29216W        W97579  14.233  36.362   0.962
29217W        W97580  26.052   5.228   3.368
29218W        W97581  18.565  14.592   2.408
29219W        W97582  29.089  17.642  11.478
29220W        W97583  13.279  33.526   4.187
29221W        W97584   0.250  39.380  12.051
29222W        W97585  42.474  21.735   3.296
29223W        W97586   3.271  13.628   1.404
29224W        W97587  32.022  30.962   4.633
29225W        W97588   6.417  42.522   0.390
29226W        W97589  24.073   6.416  14.899
29227W        W97590  34.446  19.133  12.849
29228W        W97591   2.819  21.248   0.249
29229W        W97592  27.508  13.124  11.978
29230W        W97593  23.061  14.171   3.199
29231W        W97594  21.755  43.932   1.231
29232W        W97595  35.558  44.768   4.155
29233W        W97596  21.727  10.802   2.778
29234W        W97597  20.075  35.025   0.921
29235W        W97598  32.916   6.189   1.786
29236W        W97599  41.367   6.297   2.241
29237W        W97600  41.825  43.831   1.721
29238W        W97601  37.406  13.670  13.428
29239W        W97602  26.035  12.205  14.981
29240W        W97603  19.236   8.717  13.320
29241W        W97604  26.149  23.129   3.157
29242W        W97605  30.417  22.594  14.367
29243W        W97606  21.601   6.841   4.125
29244W        W97607  14.323  21.526   3.347
29245W        W97608  44.858  40.896   4.343
29246W        W97609  23.698  41.428  13.802
29247W        W97610  37.532   1.902  11.055
29248W        W97611   6.902   5.779  12.000
29249W        W97612   2.234  28.605  10.428
29250W        W97613  38.550  14.611  11.873
29251W        W97614  20.136  14.597   4.205
29252W        W97615  22.734  23.026  12.006
29253W        W97616   1.873  38.555   4.307
29254W        W97617  34.589  23.156  11.547
29255W        W97618  20.734  25.969   3.767
29256W        W97619  21.666  34.086   1.350
29257W        W97620  24.049  11.365   4.661
29258W        W97621   2.850  18.625  12.489
29259W        W97622  11.247  26.467   1.265
29260W        W97623  22.534  34.514  11.541
29261W        W97624  17.571  27.068  10.568
29262W        W97625   4.817  16.673  11.082
29263W        W97626   7.351  43.771  12.836
29264W        W97627  14.833  38.474  11.589
29265W        W97628   3.353  15.327   4.335
29266W        W97629  18.621  43.376  11.511
29267W        W97630  28.125  12.743   4.189
29268W        W97631  31.438  35.863  10.565
29269W        W97632   5.725   8.219   4.693
29270W        W97633  34.119  29.442  12.880
29271W        W97634  25.549   4.852   5.244
29272W        W97635  19.629  32.915  14.994
29273W        W97636  11.642   2.734   0.965
29274W        W97637   7.395  23.023  10.447
29275W        W97638  42.520  13.255   1.780
29276W        W97639  41.981  22.514   0.341
29277W        W97640  27.063  14.127   2.736
29278W        W97641   4.333   7.870  12.040
29279W        W97642  43.355   4.406  12.565
29280W        W97643   0.282   5.775  12.483
29281W        W97644  41.294   3.776   3.797
29282W        W97645   1.817  22.061  13.319
29283W        W97646  24.185  37.910   3.284
29284W        W97647  35.918  20.243   4.129
29285W        W97648  19.618   6.209   1.802
29286W        W97649  43.357  25.079   4.784
29287W        W97650  28.652  16.735   4.717
29288W        W97651  17.788  43.965   3.639
29289W        W97652  26.623   7.736   4.347
29290W        W97653  42.028   4.722   3.354
29291W        W97654  17.131  41.480   3.287
29292W        W97655  41.807  14.292   2.896
29293W        W97656  42.981  32.549   1.717
29294W        W97657  43.967  41.944  12.529
29295W        W97658  19.735  40.012  12.385
29296W        W97659  29.561  35.047   2.886
29297W        W97660   6.183  16.270  13.956
29298W        W97661  22.581  31.526  10.512
29299W        W97662  18.236  12.307  11.983
29300W        W97663  34.874  14.156  12.838
29301W        W97664  23.639  38.054   3.783
29302W        W97665  18.698  25.987  11.011
29303W        W97666  35.492  24.023   2.735
29304W        W97667  20.198  17.207  11.914
29305W        W97668  16.767  18.748  10.042
29306W        W97669   5.355  27.619   3.643
29307W        W97670  14.737  20.591  11.569
29308W        W97671  31.558  43.857  13.900
29309W        W97672  22.103  24.586   2.846
29310W        W97673  11.760   4.418   1.352
29311W        W97674  14.631  37.877   2.315
29312W        W97675  31.967  24.495  11.995
29313W        W97676  22.688  43.850  11.873
29314W        W97677   3.336  19.742   0.352
29315W        W97678  21.585  31.533   0.434
29316W        W97679  42.843  14.132   2.889
29317W        W97680  43.832  44.261  14.992
29318W        W97681  34.613  18.564  14.936
29319W        W97682  25.016  12.724   1.722
29320W        W97683  29.507  41.329   0.734
29321W        W97684  26.076  24.632   0.458
29322W        W97685  16.144  44.938  13.511
29323W        W97686  13.194  31.437   3.218
29324W        W97687  32.456   3.313  10.408
29325W        W97688  34.938  37.026  13.338
29326W        W97689   7.805  38.402   2.406
29327W        W97690   9.382  36.358   3.826
29328W        W97691  16.783  28.120   4.138
29329W        W97692  18.166  18.098  12.905
29330W        W97693  29.985  41.987   3.341
29331W        W97694  22.698   0.935  13.332
29332W        W97695  21.607  29.477   4.279
29333W        W97696  17.062  25.477   3.246
29334W        W97697   1.764  28.987   2.373
29335W        W97698  29.041  18.109  11.089
29336W        W97699   5.841  23.098  13.794
29337W        W97700  11.305   7.856  11.972
29338W        W97701  36.511   1.963   5.320
29339W        W97702   2.836  39.545   3.267
29340W        W97703   3.756  10.193   3.226
29341W        W97704  11.655  41.537   4.634
29342W        W97705   4.788  27.981   0.300
29343W        W97706  39.867  13.313  14.354
29344W        W97707  17.220  10.332   3.199
29345W        W97708   0.403  15.612  13.951
29346W        W97709  34.864  11.716  14.278
29347W        W97710  19.216  18.710   1.878
29348W        W97711  20.053  22.676   3.748
29349W        W97712   5.900  17.230   0.727
29350W        W97713   2.372   6.833  10.514
29351W        W97714  36.897  38.490  13.055
29352W        W97715  18.651  29.074   4.251
29353W        W97716  18.689  31.921   4.144
29354W        W97717  34.011   0.815   4.638
29355W        W97718  21.530  15.231  10.905
29356W        W97719  16.125  43.501  12.458
29357W        W97720   5.801  25.619  12.038
29358W        W97721   6.400  42.510   3.770
29359W        W97722  44.464  25.699   3.802
29360W        W97723  10.360  33.486  13.894
29361W        W97724  37.427  26.503  11.007
29362W        W97725  39.826   4.365  14.393
29363W        W97726  17.137  37.937  13.887
29364W        W97727  34.548  27.540  10.522
29365W        W97728  13.807   1.912   1.316
29366W        W97729  10.837  33.457   2.280
29367W        W97730   3.749  22.528  11.035
29368W        W97731  44.855  34.997  13.481
29369W        W97732  35.889   2.893  14.485
29370W        W97733  42.031  21.041  11.478
29371W        W97734  28.072  18.237  14.873
29372W        W97735   9.887  12.256  11.371
29373W        W97736  42.475  15.291  14.781
29374W        W97737  23.994  28.998  11.483
29375W        W97738  33.403  11.815   1.235
29376W        W97739  40.879   3.349   4.336
29377W        W97740  14.227  31.570  14.882
29378W        W97741  13.327  41.296   2.307
29379W        W97742   0.784  32.961   0.727
29380W        W97743  33.460   7.798   0.378
29381W        W97744  42.980  10.653   1.858
29382W        W97745  35.106  37.343   2.835
29383W        W97746   3.386  27.584   4.324
29384W        W97747  40.020  43.398   4.669
29385W        W97748  34.534   4.714   1.354
29386W        W97749   3.440  30.148   4.230
29387W        W97750  33.957  26.156  14.859
29388W        W97751  37.469  30.494  12.837
29389W        W97752  20.206  12.757   4.603
29390W        W97753   7.785  20.728  14.359
29391W        W97754  37.999  35.964   3.243
29392W        W97755  38.862   0.360  11.874
29393W        W97756  33.506  32.472   1.796
29394W        W97757  14.790   3.768   5.088
29395W        W97758  29.040  41.848  12.896
29396W        W97759  38.559   3.341   5.283
29397W        W97760  32.597   3.902  14.016
29398W        W97761  36.481   5.723   4.657
29399W        W97762  22.028  43.488   4.333
29400W        W97763  30.021  14.186   3.820
29401W        W97764   4.922  21.663  13.330
29402W        W97765  25.127  10.328   4.135
29403W        W97766  26.979  13.633   2.222
29404W        W97767   9.260  14.831  13.851
29405W        W97768   4.446  21.600   2.845
29406W        W97769  21.184  18.060  14.968
29407W        W97770  37.446  34.052   4.738
29408W        W97771  24.023  21.607   3.679
29409W        W97772  25.677  41.009   0.865
29410W        W97773  18.231  15.181  13.913
29411W        W97774   5.858   3.893   3.192
29412W        W97775  12.816  37.050  12.573
29413W        W97776  41.941  27.521   0.344
29414W        W97777   3.948   5.388  11.466
29415W        W97778   4.703   4.777  11.520
29416W        W97779   4.215  34.914   2.694
29417W        W97780  36.049  12.354   3.745
29418W        W97781  16.150  19.173  11.451
29419W        W97782  27.105   2.377   4.230
29420W        W97783  25.619   8.288   2.246
29421W        W97784  19.533  40.941  14.406
29422W        W97785  25.988   3.804  13.933
29423W        W97786  10.828  38.556   2.382
29424W        W97787   0.357   5.779   1.708
29425W        W97788  40.896  24.208  11.002
29426W        W97789   5.257   0.822   3.739
29427W        W97790  32.967  22.059   2.197
29428W        W97791  16.171  13.206  11.505
29429W        W97792  11.829   9.342  11.125
29430W        W97793  40.834  19.193   4.724
29431W        W97794  13.631  24.219   0.425
29432W        W97795  28.523  18.202   4.147
29433W        W97796  22.204  32.028   2.378
29434W        W97797   1.370  28.659  11.884
29435W        W97798  19.746  34.988  14.792
29436W        W97799  41.347   2.327  13.053
29437W        W97800  15.809  36.088   1.301
29438W        W97801   4.775  19.102  12.058
29439W        W97802  12.205  34.877   1.235
29440W        W97803  11.833  42.322   3.170
29441W        W97804  15.630  29.041   0.824
29442W        W97805  38.067  41.423  13.449
29443W        W97806  41.367  35.956  10.576
29444W        W97807  16.592  44.991   1.846
29445W        W97808  43.799   3.842  11.091
29446W        W97809   0.898  13.762   3.364
29447W        W97810  17.558  39.374  13.840
29448W        W97811   2.296  18.646   3.301
29449W        W97812  27.961   3.218   3.216
29450W        W97813   6.288  43.318  10.468
29451W        W97814  26.978  10.762  11.466
29452W        W97815  29.940  42.886   2.760
29453W        W97816  28.599  35.487   1.828
29454W        W97817  20.040   4.317  11.378
29455W        W97818   2.801   0.786   0.960
29456W        W97819  20.101  28.146   3.170
29457W        W97820  34.052  14.114   3.689
29458W        W97821  34.884  20.219  14.980
29459W        W97822  40.018  16.133   1.225
29460W        W97823   8.211  41.498   2.669
29461W        W97824  35.110   1.769   3.659
29462W        W97825  27.089  44.301  12.480
29463W        W97826  35.447  26.091   0.291
29464W        W97827  23.548  28.108  10.583
29465W        W97828   5.379  18.281  13.488
29466W        W97829  26.207  33.540  12.423
29467W        W97830  12.691  28.164  11.484
29468W        W97831  41.931  44.481   4.731
29469W        W97832  17.286   9.173  13.309
29470W        W97833  42.952  13.145   2.378
29471W        W97834  11.176  25.110  14.355
29472W        W97835  23.702  32.101   3.717
29473W        W97836  44.330  16.204   2.674
29474W        W97837  27.468  15.656  10.973
29475W        W97838  28.590  24.641  11.906
29476W        W97839  25.033   7.817  12.042
29477W        W97840  33.411  20.126   4.722
29478W        W97841  33.492  33.491   2.810
29479W        W97842   6.211  40.363   1.239
29480W        W97843  14.121  40.979  12.016
29481W        W97844   8.404  16.258   2.804
29482W        W97845   3.787   9.313   0.741
29483W        W97846   4.340  39.934   2.787
29484W        W97847  32.461  23.047  10.507
29485W        W97848  34.499  43.983  12.844
29486W        W97849  38.467  30.425   0.360
29487W        W97850  37.459   3.230  11.550
29488W        W97851   8.399  28.042  13.865
29489W        W97852  39.436   8.367   2.286
29490W        W97853  10.780   3.879  10.554
29491W        W97854  39.559  13.775  13.864
29492W        W97855  14.650   2.361   0.772
29493W        W97856  44.359  30.596   2.356
29494W        W97857  40.363   6.853  14.481
29495W        W97858   8.776   8.185   2.335
29496W        W97859  16.616  10.223  14.275
29497W        W97860  15.783  27.584   5.130
29498W        W97861   2.436  33.503   1.303
29499W        W97862  43.370  20.707   0.247
29500W        W97863   9.835  33.931   1.839
29501W        W97864   7.805  29.947   1.720
29502W        W97865   6.195  16.112  11.459
29503W        W97866  12.298  17.622   3.660
29504W        W97867  20.146  30.602  13.435
29505W        W97868  32.012  34.405   2.876
29506W        W97869  19.767  18.716  10.482
29507W        W97870  23.087  29.940   3.312
29508W        W97871  38.546  28.666   0.294
29509W        W97872   8.344  43.371   1.367
29510W        W97873  13.809  36.348  13.017
29511W        W97874  27.088  43.385   0.907
29512W        W97875  16.692  14.306  14.860
29513W        W97876  43.328   8.281   3.754
29514W        W97877  31.547  12.795   1.720
29515W        W97878  42.887  33.008   2.688
29516W        W97879  43.942  26.199  13.964
29517W        W97880  43.393  22.525   0.950
29518W        W97881  19.104  26.608  13.412
29519W        W97882   0.816  37.408  11.118
29520W        W97883   8.695  11.294   0.444
29521W        W97884  34.025  40.464   0.955
29522W        W97885   9.380   9.321  11.026
29523W        W97886  37.380   2.739   4.597
29524W        W97887  25.142  14.340   1.303
29525W        W97888   3.461   2.762  11.390
29526W        W97889   8.192  21.261   4.607
29527W        W97890  35.508   5.262  10.946
29528W        W97891  16.139  18.779   1.748
29529W        W97892  18.256  40.404   4.199
29530W        W97893  38.570  37.980  11.492
29531W        W97894  16.661   4.435  13.398
29532W        W97895  44.980  15.143   1.346
29533W        W97896  38.443  43.279   4.341
29534W        W97897  37.926   8.679  13.342
29535W        W97898  44.909  22.077   0.307
29536W        W97899  28.496  30.451  13.340
29537W        W97900  42.350  11.824   0.294
29538W        W97901  11.310  26.574   0.772
29539W        W97902  16.198  23.632  13.499
29540W        W97903  13.111  24.028   0.455
29541W        W97904   4.285  31.106  10.425
29542W        W97905  15.253  18.684   3.318
29543W        W97906  31.075   6.904   3.826
29544W        W97907  11.862  11.130  14.893
29545W        W97908  14.711  37.395   2.394
29546W        W97909  18.054  22.205   3.630
29547W        W97910  24.082   6.824  13.039
29548W        W97911  23.547  32.091  12.340
29549W        W97912  11.729  42.872   3.364
29550W        W97913  39.409   8.379   1.217
29551W        W97914   1.737  40.532   1.815
29552W        W97915  25.003  33.508   5.128
29553W        W97916   1.293  33.975  11.550
29554W        W97917  43.324  21.064  12.897
29555W        W97918  40.043  29.554  12.039
29556W        W97919  12.824   4.431   2.211
29557W        W97920  27.102  10.755   1.233
29558W        W97921  36.493  31.981   1.442
29559W        W97922  17.561  25.658   3.353
29560W        W97923  35.530  40.034  10.983
29561W        W97924  18.628  43.488   2.319
29562W        W97925  13.611  39.044  12.462
29563W        W97926  42.877  43.513  12.052
29564W        W97927  31.591  19.264   0.732
29565W        W97928  29.152  44.350  11.024
29566W        W97929   9.697  35.462   1.322
29567W        W97930  21.708  40.948   4.699
29568W        W97931  21.553  37.373   2.771
29569W        W97932  11.748   6.679  11.456
29570W        W97933   7.304  15.707  14.279
29571W        W97934  37.922  13.348   1.271
29572W        W97935  20.760  28.487   3.242
29573W        W97936   0.752  30.610  11.091
29574W        W97937   2.322  43.800  12.382
29575W        W97938  12.857  34.956  10.640
29576W        W97939   4.791  11.818   3.197
29577W        W97940   0.908   1.977  12.945
29578W        W97941  27.032  36.472  14.979
29579W        W97942   3.749  29.041  12.481
29580W        W97943  14.767  19.040   3.707
29581W        W97944  30.423  16.193   3.244
29582W        W97945  27.182  36.855   0.286
29583W        W97946  28.676  16.233   3.356
29584W        W97947  13.204  18.058   4.196
29585W        W97948  34.952  14.151   1.863
29586W        W97949  14.664  39.414  14.764
29587W        W97950  31.594  26.691  14.427
29588W        W97951  15.303   0.439   4.247
29589W        W97952  18.201  38.981   0.762
29590W        W97953   2.854  44.482   4.612
29591W        W97954  30.428  43.384   0.274
29592W        W97955  32.921  29.156  12.395
29593W        W97956  17.610  23.584  13.055
29594W        W97957  41.470  16.177  12.905
29595W        W97958  41.428  20.752   2.728
29596W        W97959  14.740  23.080  13.007
29597W        W97960  25.126  26.173   1.916
29598W        W97961  39.531  12.291   4.118
29599W        W97962  19.589  37.412   2.356
29600W        W97963   7.894  31.076   3.653
29601W        W97964  34.090   7.402   1.903
29602W        W97965   6.717  31.974  12.529
29603W        W97966  24.541   8.680  13.018
29604W        W97967  35.517   9.663  11.546
29605W        W97968  32.136   5.920  13.450
29606W        W97969  29.639   0.381   0.332
29607W        W97970  30.159   7.322   2.841
29608W        W97971  16.120   2.748  11.072
29609W        W97972  21.666  15.610   2.844
29610W        W97973  13.123  19.109   4.732
29611W        W97974  29.428  40.540  14.380
29612W        W97975  30.454  27.037   5.281
29613W        W97976  11.738   0.971   1.921
29614W        W97977  41.895   5.860  13.973
29615W        W97978  44.870  10.269   2.692
29616W        W97979   1.866  20.220   3.829
29617W        W97980   6.913  39.321   4.212
29618W        W97981   1.331   3.405   4.220
29619W        W97982  10.280  32.536  13.064
29620W        W97983   8.734  25.189  12.869
29621W        W97984   0.456   3.438   1.764
29622W        W97985   4.916  41.813  10.563
29623W        W97986   6.693   8.845  13.426
29624W        W97987  37.378  39.334  12.404
29625W        W97988  26.953   5.874   3.759
29626W        W97989  19.636  20.216  13.940
29627W        W97990  32.572  34.406   5.252
29628W        W97991   4.301  34.969   0.737
29629W        W97992  11.677  40.937  10.539
29630W        W97993  27.600  11.642   2.787
29631W        W97994  20.702  32.113   0.846
29632W        W97995  28.571  32.108   4.239
29633W        W97996  33.551  43.021  11.114
29634W        W97997  14.278  16.594   4.724
29635W        W97998   7.897  14.777   0.947
29636W        W97999  11.142  36.062  12.081
29637W        W98000  12.120   9.694  14.366
29638W        W98001  32.060  26.556   5.171
29639W        W98002  17.708   4.903   3.254
29640W        W98003   4.299   1.754  11.503
29641W        W98004  10.369  13.825   2.831
29642W        W98005  29.056   2.816   1.778
29643W        W98006  29.107   6.921   4.315
29644W        W98007   7.368  23.033  11.857
29645W        W98008  21.041  18.084  12.413
29646W        W98009  10.159   6.396  14.957
29647W        W98010  30.415  27.183  11.579
29648W        W98011  37.937  22.028  13.887
29649W        W98012   8.402  29.157   4.627
29650W        W98013  13.140  41.923   2.781
29651W        W98014  27.949  35.572  13.310
29652W        W98015  15.150  21.711   3.267
29653W        W98016   2.837  25.629   3.754
29654W        W98017  11.800   1.390   4.280
29655W        W98018  24.001  32.526  13.937
29656W        W98019  13.813   8.655  12.825
29657W        W98020  28.009  18.645  14.359
29658W        W98021  30.590  22.211  13.823
29659W        W98022  36.460  27.566   1.895
29660W        W98023  17.226  11.353   1.433
29661W        W98024   0.299  11.199   0.840
29662W        W98025  24.555  35.555   4.611
29663W        W98026  34.008   6.767   2.213
29664W        W98027  29.665  10.637   4.152
29665W        W98028  19.102   3.748  14.850
29666W        W98029  42.281  35.425  14.441
29667W        W98030  32.583  18.202   2.677
29668W        W98031  15.224  11.627  14.445
29669W        W98032  30.095  29.996  14.827
29670W        W98033  42.430   2.245  13.011
29671W        W98034  43.831  16.182  11.008
29672W        W98035  38.003  19.713  12.872
29673W        W98036  35.992  40.519   4.149
29674W        W98037  23.164  11.357   2.799
29675W        W98038  19.220  20.146   1.224
29676W        W98039  24.026  24.177  14.826
29677W        W98040  29.971  11.362  12.408
29678W        W98041  16.733  16.311   5.195
29679W        W98042  39.457  39.869   1.225
29680W        W98043   6.887   1.420   3.186
29681W        W98044  12.330  43.440  13.012
29682W        W98045  36.054  15.087  14.794
29683W        W98046  40.901  18.227   2.367
29684W        W98047  16.791  18.609  10.535
29685W        W98048  40.870  17.685  13.514
29686W        W98049   3.429   2.344  11.407
29687W        W98050  18.563  24.067   4.683
29688W        W98051  25.695   6.771   4.709
29689W        W98052  38.447  23.187   0.805
29690W        W98053  11.622  17.620  13.918
29691W        W98054  25.665  37.052  14.805
29692W        W98055  14.785   2.456   3.319
29693W        W98056  32.126  39.913  14.794
29694W        W98057   5.868  18.614  12.463
29695W        W98058  34.907  17.205   1.698
29696W        W98059  18.087   4.213   2.692
29697W        W98060  19.752   7.836   2.740
29698W        W98061  40.369  17.068   3.369
29699W        W98062  12.169   5.415   2.735
29700W        W98063  19.669   6.248   2.791
29701W        W98064  20.544  38.325   3.631
29702W        W98065  21.028  12.161   1.820
29703W        W98066  20.036   1.249   4.757
29704W        W98067  39.956   8.687  13.817
29705W        W98068  39.051  30.536  10.509
29706W        W98069  26.098   8.389  10.936
29707W        W98070   3.794  40.402   3.386
29708W        W98071   1.821  43.795  11.519
29709W        W98072  35.051  28.535  10.892
29710W        W98073   6.185   1.316  12.558
29711W        W98074   0.763  30.977   1.809
29712W        W98075  10.353  35.433  13.534
29713W        W98076   5.756  27.461  11.405
29714W        W98077  37.855  20.032  10.436
29715W        W98078  37.415  29.484   3.196
29716W        W98079  12.342  16.740   4.186
29717W        W98080  31.897  17.709   0.257
29718W        W98081  12.622  15.649  12.490
29719W        W98082  18.250  44.001   2.178
29720W        W98083  30.157   8.705  11.563
29721W        W98084  36.885  13.713   1.387
29722W        W98085   1.361   8.311  10.412
29723W        W98086  19.111   9.291   1.330
29724W        W98087  43.958   8.849   2.702
29725W        W98088  13.160  12.237   3.653
29726W        W98089  28.591  24.717   4.629
29727W        W98090  11.724   0.976  14.505
29728W        W98091  31.487  37.466   3.365
29729W        W98092  29.510  16.075   5.296
29730W        W98093  35.540  12.753   2.412
29731W        W98094  16.206  27.008   2.348
29732W        W98095  18.627  34.074  14.802
29733W        W98096  21.031  39.991  12.974
29734W        W98097  28.020  36.364  10.429
29735W        W98098  21.751  22.584   0.255
29736W        W98099   9.803  16.570   2.894
29737W        W98100  33.013  22.525  12.512
29738W        W98101  25.566   8.710   4.681
29739W        W98102  40.421  42.379  12.094
29740W        W98103   3.298  17.699  13.064
29741W        W98104  29.652  36.049   4.117
29742W        W98105   2.469  32.627   4.830
29743W        W98106  39.541  39.851  11.053
29744W        W98107  18.638  35.488   3.789
29745W        W98108   1.238   8.385   1.223
29746W        W98109  14.183  39.560   4.154
29747W        W98110  40.445  14.610  14.304
29748W        W98111  34.114   7.310  12.524
29749W        W98112  17.802  11.672  10.942
29750W        W98113   5.368  41.433  10.484
29751W        W98114   2.433  37.578   3.325
29752W        W98115  14.613  28.504   1.363
29753W        W98116   3.443  36.428   2.714
29754W        W98117  17.214  15.100  12.384
29755W        W98118  44.788   0.313   4.702
29756W        W98119  32.942  14.283  13.047
29757W        W98120   2.751  22.014   0.837
29758W        W98121  31.642   2.268   3.798
29759W        W98122  15.812   1.964   0.426
29760W        W98123  16.753   1.458   1.430
29761W        W98124  37.023  28.581   4.726
29762W        W98125  33.573  30.045  13.500
29763W        W98126   0.895  14.668  10.908
29764W        W98127  20.641  36.480   2.241
29765W        W98128  33.974  33.020  13.525
29766W        W98129  32.918  33.417  11.587
29767W        W98130  38.539  40.986  11.424
29768W        W98131  28.494  33.953  11.128
29769W        W98132   2.298  37.508  14.970
29770W        W98133   2.364  24.579  10.513
29771W        W98134  21.218  11.230   9.977
29772W        W98135  33.919   4.774   3.772
29773W        W98136  34.911   6.756   0.343
29774W        W98137  41.022  28.531  13.889
29775W        W98138  35.037   6.833  13.063
29776W        W98139   1.252  44.284  12.374
29777W        W98140  13.279  43.354  13.346
29778W        W98141  41.519   6.781  13.061
29779W        W98142  19.645  35.454  12.442
29780W        W98143   5.839  42.514   1.714
29781W        W98144  27.566  40.881  10.612
29782W        W98145  31.114  35.577  13.372
29783W        W98146   3.920  42.992   1.348
29784W        W98147  37.048  39.008   1.888
29785W        W98148   1.850   2.418   2.807
29786W        W98149  34.458  38.373   2.663
29787W        W98150  42.397  11.690  13.494
29788W        W98151   4.850  22.173   1.873
29789W        W98152   5.226  16.785   4.631
29790W        W98153   2.841   8.896  11.415
29791W        W98154  44.455  37.499  13.512
29792W        W98155  13.288  19.650   4.754
29793W        W98156  30.534   2.943  12.459
29794W        W98157   1.797  11.198   2.255
29795W        W98158  33.459  30.935  10.595
29796W        W98159  15.714  32.137   3.311
29797W        W98160   7.817   1.952   1.923
29798W        W98161  18.639  24.998  10.631
29799W        W98162  36.488  31.955   3.316
29800W        W98163   1.326  32.489   4.676
29801W        W98164   3.305   3.454  11.906
29802W        W98165  29.632  19.625   2.357
29803W        W98166  25.638   7.299   1.743
29804W        W98167  20.547  37.432  12.525
29805W        W98168  38.475  33.619   0.303
29806W        W98169  41.454   0.416   2.192
29807W        W98170  18.757  22.248  14.459
29808W        W98171  30.911  25.100  11.610
29809W        W98172  37.480  37.414   5.160
29810W        W98173  20.133  36.924  13.823
29811W        W98174  24.724   2.893   4.707
29812W        W98175  35.856  16.231   4.679
29813W        W98176   7.291   6.779  13.981
29814W        W98177  42.409  11.200  13.928
29815W        W98178   4.860  11.693   2.716
29816W        W98179  19.696  36.464  12.347
29817W        W98180   7.286  43.431  13.384
29818W        W98181  14.269  28.980  12.072
29819W        W98182  38.375  36.855   4.632
29820W        W98183   8.302  10.675   1.918
29821W        W98184  20.650  30.137   0.825
29822W        W98185   1.947  12.830   2.698
29823W        W98186  18.739  24.983  13.026
29824W        W98187  37.046  35.558  10.599
29825W        W98188   9.228  32.119  11.119
29826W        W98189  41.984  33.407   3.658
29827W        W98190   9.244  17.291   9.945
29828W        W98191   3.244  18.223  13.403
29829W        W98192  38.432  36.440  10.426
29830W        W98193   5.277  32.582  11.959
29831W        W98194  16.151  24.554  14.809
29832W        W98195  35.565  29.015  13.309
29833W        W98196  34.000  41.446  13.042
29834W        W98197  22.685   6.708  12.900
29835W        W98198  21.122  37.561   0.899
29836W        W98199  13.753  21.609  12.454
29837W        W98200   1.414  43.289  13.502
29838W        W98201  27.614   2.870   4.331
29839W        W98202  40.399  25.201   4.160
29840W        W98203   7.344  26.994  12.500
29841W        W98204   2.405   2.238   4.280
29842W        W98205  32.930  33.481   2.395
29843W        W98206  13.834  42.803   4.273
29844W        W98207  40.510  21.202   1.803
29845W        W98208  20.131  27.619  14.884
29846W        W98209  31.446  24.983  14.395
29847W        W98210  43.000   2.311   0.447
29848W        W98211   5.736   0.975   1.870
29849W        W98212  43.802  10.730  14.861
29850W        W98213  11.222  39.510  14.951
29851W        W98214  24.565  42.932   0.962
29852W        W98215  35.539  30.011   4.808
29853W        W98216   8.753  43.994   3.296
29854W        W98217  22.170  30.449  12.073
29855W        W98218  17.780  33.539   0.473
29856W        W98219  36.915  21.754  11.887
29857W        W98220  32.459  38.564  13.328
29858W        W98221  14.150  40.021  12.838
29859W        W98222  18.587   0.341   0.307
29860W        W98223  34.025  32.083  13.842
29861W        W98224  12.639   8.795   1.286
29862W        W98225  37.019  11.149  14.928
29863W        W98226  15.598  14.121   3.641
29864W        W98227  38.434  14.664   2.403
29865W        W98228  17.743  39.868  13.814
29866W        W98229  44.773  12.794   2.248
29867W        W98230  28.632  18.780  11.889
29868W        W98231  23.509  35.078  12.546
29869W        W98232  38.373  34.496  11.017
29870W        W98233  25.962  24.486  11.083
29871W        W98234   7.865  34.396   3.353
29872W        W98235  15.749   0.805  14.953
29873W        W98236  33.570   8.706   0.382
29874W        W98237  38.997  20.164   4.152
29875W        W98238  44.798  13.842   4.236
29876W        W98239   2.787  18.698  14.966
29877W        W98240  43.364  18.706  13.529
29878W        W98241   2.745  34.950  12.838
29879W        W98242  13.197  33.507   5.253
29880W        W98243  40.838   5.823  12.415
29881W        W98244   6.806  38.462   4.170
29882W        W98245  23.645  30.983   3.195
29883W        W98246  27.515   5.376   2.298
29884W        W98247  21.030  23.637   1.297
29885W        W98248  11.761  24.225  10.626
29886W        W98249   5.705  39.410   3.206
29887W        W98250  31.557  14.659  14.397
29888W        W98251  27.987   4.849  10.547
29889W        W98252  20.649   4.374  13.396
29890W        W98253   1.341  36.473   4.774
29891W        W98254  41.418  13.760   1.353
29892W        W98255  37.077   6.821   2.267
29893W        W98256  20.689  10.857   3.213
29894W        W98257  37.905  34.597  11.111
29895W        W98258  37.970  22.031  12.941
29896W        W98259  30.954   7.834   2.827
29897W        W98260  22.520   2.321  12.469
29898W        W98261  11.325  24.221   3.224
29899W        W98262  14.189   6.694   3.180
29900W        W98263  17.780  12.306   3.346
29901W        W98264  22.192  26.597  11.034
29902W        W98265   9.339   3.810   2.382
29903W        W98266  29.961  20.591  12.957
29904W        W98267  18.648  11.834  11.612
29905W        W98268   4.740  21.174  11.459
29906W        W98269  29.135  28.458  12.059
29907W        W98270  20.200   2.458  14.332
29908W        W98271   4.274  40.889  13.412
29909W        W98272   1.462   8.207   3.807
29910W        W98273  24.156  36.411   2.778
29911W        W98274   6.866   0.962  11.561
29912W        W98275   8.897  38.503   2.890
29913W        W98276  35.488   8.767   5.113
29914W        W98277  20.131  32.035  12.562
29915W        W98278  11.305  19.053   2.866
29916W        W98279  34.904  37.357   4.713
29917W        W98280  24.670  32.085  11.054
29918W        W98281  34.440  36.094  11.510
29919W        W98282  18.136  16.264   4.628
29920W        W98283  11.805  11.794  10.151
29921W        W98284  41.352   2.781   3.181
29922W        W98285  12.720  35.916  12.400
29923W        W98286   3.366  31.149   4.617
29924W        W98287  38.842  28.649   2.750
29925W        W98288  40.055  33.933   0.797
29926W        W98289  29.023  44.367  13.995
29927W        W98290  24.639  19.566  14.776
29928W        W98291  30.537  18.116   2.293
29929W        W98292  22.998  23.723   1.280
29930W        W98293   4.384  36.546  14.871
29931W        W98294  14.681  38.406  11.076
29932W        W98295  21.222   4.270  12.511
29933W        W98296  38.491  29.483  14.416
29934W        W98297  13.783  32.634   4.166
29935W        W98298  40.517  15.644   4.718
29936W        W98299  24.532  26.981  11.869
29937W        W98300  10.279   5.218   0.321
29938W        W98301  24.523  22.655  13.876
29939W        W98302  12.275  10.730  10.616
29940W        W98303  33.446   0.465   0.279
29941W        W98304  38.863  25.189   3.665
29942W        W98305   3.219   2.923   1.390
29943W        W98306  24.507   9.325  12.367
29944W        W98307  13.610   5.847  14.398
29945W        W98308  34.383  30.513   1.748
29946W        W98309  33.502   4.389  13.537
29947W        W98310   2.376   0.450   5.266
29948W        W98311   4.723  34.955  14.947
29949W        W98312  36.907  29.518   3.272
29950W        W98313  22.017   3.752  12.410
29951W        W98314  39.474  40.042  12.418
29952W        W98315  34.527  25.505   1.910
29953W        W98316  36.584  25.668   2.191
29954W        W98317  17.217  26.174   0.389
29955W        W98318   9.368   5.726  12.973
29956W        W98319  36.382   4.209  13.489
29957W        W98320  30.036  33.986   4.303
29958W        W98321  12.295  31.607   0.823
29959W        W98322  35.015  23.202  12.952
29960W        W98323  40.862  16.665  11.488
29961W        W98324  35.497   8.867  13.528
29962W        W98325   3.268  36.082  14.995
29963W        W98326   4.854  14.745  12.538
29964W        W98327  39.062  24.981  14.438
29965W        W98328  43.306  17.195  11.074
29966W        W98329   8.367  26.043  11.096
29967W        W98330  25.691  26.551  14.433
29968W        W98331   8.890  28.538   1.221
29969W        W98332  15.210   5.932  11.112
29970W        W98333  33.013  22.065   1.771
29971W        W98334  43.284   7.836   2.850
29972W        W98335  26.661  12.239  11.499
29973W        W98336  11.857  41.388  14.364
29974W        W98337  13.136  12.650   1.757
29975W        W98338  27.545  15.119  12.471
29976W        W98339  17.584  10.668  13.837
29977W        W98340  36.932   5.264   2.367
29978W        W98341  31.916  11.742   5.304
29979W        W98342   6.301  38.459   4.738
29980W        W98343   8.310  23.567  14.963
29981W        W98344  42.396  33.876  13.879
29982W        W98345  11.288  30.073   1.896
29983W        W98346   1.938   2.900  12.429
29984W        W98347  11.676  43.390   0.791
29985W        W98348  40.967  24.511   0.396
29986W        W98349  11.206  39.817   1.264
29987W        W98350   8.695   0.809  11.505
29988W        W98351  26.173  22.214  13.360
29989W        W98352  40.031  39.021   3.349
29990W        W98353  30.539   0.281  13.799
29991W        W98354  38.929  39.424  11.082
29992W        W98355   2.452  18.249  13.791
29993W        W98356  24.037   7.281  14.982
29994W        W98357  12.266  34.412   3.725
29995W        W98358  17.593   3.760  13.028
29996W        W98359  31.969  31.410  14.425
29997W        W98360  43.013  25.051   0.888
29998W        W98361  38.451  17.186  13.409
29999W        W98362  38.952  19.538   0.376
30000W        W98363   8.767   1.479  11.963
30001W        W98364  25.072  33.495  14.295
30002W        W98365  35.011  38.458  11.592
30003W        W98366  16.130  13.318   0.783
30004W        W98367  33.117  28.561  12.057
30005W        W98368  39.478  26.076  11.037
30006W        W98369  30.098  33.957  10.425
30007W        W98370  23.094  21.089  10.568
30008W        W98371  12.726  16.108  10.959
30009W        W98372  23.140   2.735   4.191
30010W        W98373  43.936  23.634   3.661
30011W        W98374  44.791  41.310   4.712
30012W        W98375   4.251  29.544   3.849
30013W        W98376   4.304  26.191  12.560
30014W        W98377  10.373  32.099   0.316
30015W        W98378  35.888   3.723  11.966
30016W        W98379  22.052  44.428  14.493
30017W        W98380  14.286  38.489  14.954
30018W        W98381  20.220  17.294   3.653
30019W        W98382  32.447  38.349  10.443
30020W        W98383  17.301  34.388  11.887
30021W        W98384  43.798  10.201   3.752
30022W        W98385  17.168  32.482   1.806
30023W        W98386  19.587  39.869  11.427
30024W        W98387  15.700  14.659  12.507
30025W        W98388  23.545   0.285   2.393
30026W        W98389   4.377  26.472   3.331
30027W        W98390  23.499  21.123  11.548
30028W        W98391   5.198  32.024   4.670
30029W        W98392   9.240  20.767   0.828
30030W        W98393  36.522  38.835   2.863
30031W        W98394  11.680  43.286   0.276
30032W        W98395  26.194   2.298  12.361
30033W        W98396  13.811  35.931   4.632
30034W        W98397  40.477  35.461  14.004
30035W        W98398  10.745  23.562   3.778
30036W        W98399  24.707  44.328   0.362
30037W        W98400  41.523   5.405  10.550
30038W        W98401  41.964  37.032  13.045
30039W        W98402  17.773  25.072   4.218
30040W        W98403  37.914   9.288  10.479
30041W        W98404  23.568  35.387  14.027
30042W        W98405   8.718   7.778  14.298
30043W        W98406  34.375  37.949   1.772
30044W        W98407   8.747  29.436   2.716
30045W        W98408  29.153   9.673  13.928
30046W        W98409   4.930  35.072   4.615
30047W        W98410   3.295  44.774   0.255
30048W        W98411  22.628  14.159  11.865
30049W        W98412  40.515  16.809   1.387
30050W        W98413  18.675  23.164   2.738
30051W        W98414  10.638  35.950   0.443
30052W        W98415  35.867  24.631  10.904
30053W        W98416  41.876  18.144  11.433
30054W        W98417   0.869   0.279   2.675
30055W        W98418  26.102   2.349   0.269
30056W        W98419   6.713   2.826   4.159
30057W        W98420   8.346  26.129   2.873
30058W        W98421  38.372   3.882  14.882
30059W        W98422   7.868   1.426  13.533
30060W        W98423  35.933  42.900  12.003
30061W        W98424  39.816  29.658  11.422
30062W        W98425  28.458  25.205  10.500
30063W        W98426  33.077  10.197  14.438
30064W        W98427  27.155  28.557   2.797
30065W        W98428  38.486  21.742   0.929
30066W        W98429   8.674  21.083   5.121
30067W        W98430  15.677   4.726   3.734
30068W        W98431  12.739  25.493  12.471
30069W        W98432  26.108   0.383  12.948
30070W        W98433  30.445  33.095   2.367
30071W        W98434   0.453   1.905   0.405
30072W        W98435   8.179  43.865   3.851
30073W        W98436  39.517  23.676   1.292
30074W        W98437   9.686   2.376   4.250
30075W        W98438  32.610  25.539   0.856
30076W        W98439  15.096  29.530   2.414
30077W        W98440  31.133  41.894  14.838
30078W        W98441  30.414  39.931   3.372
30079W        W98442  18.752  23.602  14.444
30080W        W98443  15.605   1.246   4.167
30081W        W98444  24.987  42.945  14.319
30082W        W98445  27.607  22.228   4.338
30083W        W98446  33.970  13.717   1.808
30084W        W98447  10.226  35.364   1.415
30085W        W98448   8.661   1.822  12.500
30086W        W98449   2.293  25.125  11.467
30087W        W98450  33.530  30.091  10.508
30088W        W98451  40.501   0.274  13.442
30089W        W98452  27.990  24.527  11.543
30090W        W98453  31.079  39.852   0.741
30091W        W98454  31.023  14.136   3.676
30092W        W98455  20.632  24.112   1.397
30093W        W98456  42.496  43.774   0.936
30094W        W98457   6.342  29.067  11.867
30095W        W98458  15.648  12.834   0.727
30096W        W98459  23.191   3.887   3.830
30097W        W98460   7.286  38.978   3.373
30098W        W98461  30.613   2.807  14.304
30099W        W98462  18.185  28.490  10.439
30100W        W98463   6.303  30.653   2.831
30101W        W98464  13.804  24.587   0.464
30102W        W98465  26.144  22.671   2.324
30103W        W98466  31.433  39.944  11.122
30104W        W98467  36.924  41.482  11.429
30105W        W98468  36.096  30.082  13.329
30106W        W98469   3.265  17.183  11.894
30107W        W98470  14.235  19.588  12.409
30108W        W98471  28.047  40.357   1.800
30109W        W98472  22.082  25.035  12.988
30110W        W98473   3.787  36.422  14.478
30111W        W98474  24.528  24.702  14.489
30112W        W98475  12.122  32.581  13.480
30113W        W98476  43.320   4.364  14.292
30114W        W98477  17.288   2.353  12.481
30115W        W98478  23.515  16.150   2.877
30116W        W98479  38.547  18.168   3.353
30117W        W98480  20.073  42.350  14.933
30118W        W98481  41.397  30.106   1.717
30119W        W98482  34.526  11.171   3.265
30120W        W98483  34.090  21.521   2.825
30121W        W98484   0.807  30.946   4.809
30122W        W98485  38.432  12.617   2.763
30123W        W98486   7.750  21.044   2.342
30124W        W98487  36.023  23.569  13.935
30125W        W98488   3.264   9.175  12.074
30126W        W98489  20.064  39.981  14.420
30127W        W98490   5.217  35.062   4.800
30128W        W98491  32.631  14.738  14.440
30129W        W98492   3.233  28.084  12.086
30130W        W98493  42.327  23.610   1.748
30131W        W98494  12.665  43.452   3.825
30132W        W98495  10.698  11.807   1.798
30133W        W98496  44.284  42.282  13.402
30134W        W98497  12.802  24.692   4.665
30135W        W98498  18.285  37.835  13.463
30136W        W98499  17.103  27.969   1.879
30137W        W98500  17.295  32.025  14.926
30138W        W98501   5.872  44.781   2.194
30139W        W98502  42.381  17.213  14.922
30140W        W98503  41.397  16.693  12.432
30141W        W98504  28.940  22.657   4.196
30142W        W98505  16.165  21.084   3.838
30143W        W98506  17.222   2.415  12.938
30144W        W98507  35.013  15.257  13.361
30145W        W98508  28.016  22.629  14.341
30146W        W98509   8.365  19.272  10.623
30147W        W98510  17.190  36.864   9.987
30148W        W98511  35.063  27.087  13.332
30149W        W98512  40.320  39.829   0.473
30150W        W98513  30.621  35.923  14.934
30151W        W98514  16.098  28.035  14.995
30152W        W98515  31.495  28.473   0.815
30153W        W98516  27.540  18.287   1.916
30154W        W98517  29.484  26.104   0.864
30155W        W98518  39.381  23.673  11.037
30156W        W98519  23.043  18.782  14.022
30157W        W98520  22.083  35.881   0.728
30158W        W98521   0.347   8.315   0.804
30159W        W98522  33.893  12.272  14.404
30160W        W98523   4.744  43.920   1.381
30161W        W98524  16.216   9.199  10.964
30162W        W98525  39.476  20.740   1.373
30163W        W98526  15.703  29.983  13.382
30164W        W98527  15.750  36.369  13.819
30165W        W98528  14.111  42.485  11.450
30166W        W98529  17.675  10.280   4.289
30167W        W98530  19.653  31.541   1.863
30168W        W98531   3.256   2.823  12.048
30169W        W98532   1.377  29.629  11.036
30170W        W98533  24.542  39.329  13.921
30171W        W98534  11.290  15.131  14.469
30172W        W98535   6.799  30.100   2.402
30173W        W98536   6.738   6.736  13.006
30174W        W98537  28.665   6.817   3.308
30175W        W98538  34.915   5.708  10.028
30176W        W98539   6.687  16.229  12.947
30177W        W98540  35.369  41.310  14.495
30178W        W98541  41.482  38.564  12.953
30179W        W98542  28.587  31.498  10.462
30180W        W98543  24.522  37.580  13.021
30181W        W98544   4.390  39.927   0.964
30182W        W98545  18.775  18.239   0.932
30183W        W98546   7.288  27.190   2.222
30184W        W98547  29.538  30.515   2.238
30185W        W98548  37.426   5.403  13.850
30186W        W98549  32.051  40.340  10.478
30187W        W98550  27.994   3.825   1.226
30188W        W98551  37.039  12.749  10.625
30189W        W98552  34.876   7.353  10.477
30190W        W98553   3.444  23.600   0.787
30191W        W98554  30.539  35.987   4.711
30192W        W98555   7.280  15.266   4.778
30193W        W98556  41.028  42.971   1.926
30194W        W98557  24.608  18.643   0.766
30195W        W98558  41.818  35.941   2.899
30196W        W98559  31.010  26.684   2.784
30197W        W98560  34.097   4.419   3.355
30198W        W98561   4.740  18.165   3.261
30199W        W98562  29.131  23.102  13.327
30200W        W98563  35.554   4.917  10.908
30201W        W98564  32.971   6.869  13.385
30202W        W98565  39.320  33.495   3.778
30203W        W98566  17.617  18.657   2.289
30204W        W98567  39.475  23.629   3.287
30205W        W98568   6.824   0.273  11.906
30206W        W98569   7.682  10.148  14.793
30207W        W98570  15.291  22.659  14.941
30208W        W98571  23.543  25.989  12.876
30209W        W98572  29.643  24.003  11.965
30210W        W98573  15.265  10.827  11.504
30211W        W98574  44.465   2.401  13.793
30212W        W98575   3.775  43.868  11.099
30213W        W98576  44.984  22.171  11.044
30214W        W98577  13.711   2.270   4.222
30215W        W98578  31.409  42.816   0.376
30216W        W98579  31.436  33.452  14.316
30217W        W98580  18.684  29.037   2.295
30218W        W98581  39.911   4.925   4.162
30219W        W98582  13.761  36.395   1.386
30220W        W98583  21.039  31.537   2.809
30221W        W98584  31.969  28.956  10.484
30222W        W98585  30.650  13.139  12.988
30223W        W98586  43.991  11.768   3.739
30224W        W98587  36.849   0.924   1.332
30225W        W98588   7.842  40.498   2.192
30226W        W98589   5.712  12.660  13.995
30227W        W98590  32.597   7.886  13.033
30228W        W98591  10.239  15.720   2.320
30229W        W98592  25.206  16.127   2.825
30230W        W98593  15.595  18.671  12.982
30231W        W98594  11.627  24.566  12.961
30232W        W98595  26.193  25.531   3.195
30233W        W98596  43.313  35.907   0.741
30234W        W98597  40.940  17.798   0.447
30235W        W98598   9.390  41.040  14.344
30236W        W98599  38.456   1.943  14.510
30237W        W98600  16.155   0.355   1.870
30238W        W98601  18.545  25.631   2.885
30239W        W98602   1.763  33.456   0.446
30240W        W98603  16.108  35.417   2.845
30241W        W98604  44.277  36.588  11.074
30242W        W98605  41.870  32.060  14.338
30243W        W98606  17.708   5.742   2.298
30244W        W98607  31.982  24.124  11.565
30245W        W98608  13.156  33.483   0.855
30246W        W98609  42.388  10.290   1.261
30247W        W98610  15.734   7.281  14.310
30248W        W98611  10.214   4.433  12.887
30249W        W98612  44.000   4.343   3.696
30250W        W98613  35.902  14.168  14.963
30251W        W98614  23.115  19.610   4.161
30252W        W98615  43.359  34.085   3.309
30253W        W98616   2.801   7.749   1.895
30254W        W98617  19.576  14.704   5.156
30255W        W98618   7.844  34.974   4.212
30256W        W98619   7.345  13.628  13.046
30257W        W98620  20.190  28.954  11.607
30258W        W98621  37.375  40.304   3.267
30259W        W98622  28.439   8.303  11.933
30260W        W98623  25.122  13.803   0.382
30261W        W98624  16.231  18.696   2.684
30262W        W98625  37.908  30.520   5.310
30263W        W98626  17.760  26.118  14.003
30264W        W98627   9.662  30.162  10.509
30265W        W98628  40.992  34.446   4.305
30266W        W98629  22.722   2.451  14.336
30267W        W98630  19.196   1.732   1.402
30268W        W98631  33.607  43.910   1.285
30269W        W98632  40.909  37.878  11.900
30270W        W98633  25.581  37.837   3.809
30271W        W98634  42.424  22.167  10.409
30272W        W98635  24.048  33.547   0.843
30273W        W98636  28.990  38.496  14.481
30274W        W98637  41.876  26.069   4.209
30275W        W98638  43.347  11.251  10.605
30276W        W98639  36.543  33.456   3.189
30277W        W98640  20.763  27.038   0.835
30278W        W98641   6.263  16.613   2.376
30279W        W98642  15.719  42.520  10.947
30280W        W98643  26.010  41.029  13.492
30281W        W98644  37.894   1.768   1.764
30282W        W98645  25.482  31.559   3.160
30283W        W98646  20.758  41.828   3.161
30284W        W98647  36.383  37.966  14.986
30285W        W98648  11.350  15.644  12.879
30286W        W98649  43.277  36.892  14.914
30287W        W98650  33.978  38.508   4.627
30288W        W98651   0.484  38.927  14.804
30289W        W98652  31.028  42.943   0.803
30290W        W98653   3.809   5.748   0.912
30291W        W98654  38.373   7.817   1.879
30292W        W98655  36.349   9.779   1.891
30293W        W98656   8.300   8.355   4.671
30294W        W98657  39.839  33.028  10.585
30295W        W98658  41.880  30.579   3.858
30296W        W98659  22.574  28.978   0.381
30297W        W98660  26.653  41.952  12.951
30298W        W98661  37.559  19.576  10.074
30299W        W98662   9.854  32.094  12.867
30300W        W98663  16.283   9.653   4.194
30301W        W98664  16.112  44.265  10.448
30302W        W98665  19.640   0.373  13.051
30303W        W98666  26.661  36.949   1.408
30304W        W98667  12.718  26.670   3.218
30305W        W98668  10.825   3.394   3.381
30306W        W98669  18.218  14.249   1.258
30307W        W98670  16.186   5.421  13.543
30308W        W98671   8.286  42.318  11.978
30309W        W98672  36.980  35.406   3.768
30310W        W98673  44.774  30.949  12.512
30311W        W98674   8.386   0.743  11.386
30312W        W98675  24.646  13.618  11.895
30313W        W98676  18.067  41.978  11.056
30314W        W98677  10.879  17.775  12.460
30315W        W98678  44.818  10.664   2.331
30316W        W98679  36.056   0.319   2.195
30317W        W98680   6.773  14.134   2.724
30318W        W98681  15.642  19.067   1.851
30319W        W98682  37.380   6.245   3.700
30320W        W98683  40.929   0.944   2.293
30321W        W98684  35.428  40.406  10.897
30322W        W98685  40.884  13.302  11.004
30323W        W98686  22.141  30.990  11.581
30324W        W98687  43.504   5.322   2.404
30325W        W98688   3.884   8.798   2.380
30326W        W98689  10.714  10.652  11.412
30327W        W98690  23.192  18.182  11.440
30328W        W98691  14.809   6.720   2.263
30329W        W98692  33.099  24.678   4.736
30330W        W98693  18.544  40.948   2.738
30331W        W98694  15.252  18.569   2.777
30332W        W98695  24.109  35.902  10.955
30333W        W98696  23.150   3.436   3.165
30334W        W98697  21.224  11.692   2.320
30335W        W98698  34.455  43.498  12.491
30336W        W98699   1.409  41.462  12.912
30337W        W98700  27.098  26.093   2.190
30338W        W98701   5.745  18.626  13.825
30339W        W98702   1.832  31.128   2.830
30340W        W98703   0.810  34.077   1.353
30341W        W98704  19.042  27.971  13.439
30342W        W98705  22.505  37.496   3.154
30343W        W98706   4.740  19.753   2.187
30344W        W98707   3.445  30.083   4.797
30345W        W98708   0.399  31.538  12.347
30346W        W98709  42.318  13.136  13.799
30347W        W98710  43.018   5.224  11.910
30348W        W98711  20.546  44.313  10.925
30349W        W98712   7.827  32.394  12.007
30350W        W98713  22.107  43.503  14.303
30351W        W98714  43.310   7.792   0.362
30352W        W98715  18.645   3.412   5.273
30353W        W98716  31.568  41.459  13.351
30354W        W98717   4.250  30.936  11.591
30355W        W98718   1.885  16.646   0.377
30356W        W98719  11.774  10.158   4.143
30357W        W98720  39.345   4.260  11.030
30358W        W98721  30.144   8.871   0.967
30359W        W98722  36.360  28.153   1.390
30360W        W98723  27.173  26.603   4.701
30361W        W98724   7.696   9.805   4.218
30362W        W98725  29.945   6.389   0.826
30363W        W98726  11.830  32.021   5.273
30364W        W98727   1.389  34.426   2.870
30365W        W98728   5.809  16.607   1.877
30366W        W98729  26.613  29.959  10.892
30367W        W98730  34.566  32.128  11.936
30368W        W98731   2.864   9.162   0.473
30369W        W98732  18.588  34.964  13.021
30370W        W98733   2.254  21.248   4.226
30371W        W98734  34.973  38.058   0.954
30372W        W98735  35.537  42.830  12.049
30373W        W98736  43.466   2.829  14.323
30374W        W98737  11.372  34.599  14.829
30375W        W98738   1.944  25.062   3.661
30376W        W98739  27.534  38.966   4.300
30377W        W98740  14.790  41.453   1.836
30378W        W98741  40.038  32.586   0.332
30379W        W98742   5.893  27.179  14.798
30380W        W98743  43.783  20.668  10.908
30381W        W98744  30.638   1.740  11.465
30382W        W98745  40.985  36.955   4.687
30383W        W98746   3.318  17.160   1.401
30384W        W98747  19.575   8.761  14.787
30385W        W98748  35.084  37.403   0.390
30386W        W98749   1.819  36.405  13.401
30387W        W98750   9.225  15.190   1.269
30388W        W98751  27.537  37.980   0.833
30389W        W98752  39.549   8.804   1.430
30390W        W98753  30.578  25.995   1.380
30391W        W98754  10.143  38.551   2.247
30392W        W98755  42.822  25.698   3.196
30393W        W98756  16.184   9.784   1.390
30394W        W98757  36.974  25.060   3.319
30395W        W98758  22.690  14.691   4.636
30396W        W98759   6.407  30.930  13.849
30397W        W98760   5.698   8.264  11.052
30398W        W98761  29.135  40.414  14.483
30399W        W98762  33.060   3.400   3.778
30400W        W98763  12.788   9.653  12.944
30401W        W98764  36.414  27.601   4.352
30402W        W98765   9.198  43.806  11.873
30403W        W98766  32.130  21.627  10.638
30404W        W98767  26.632  43.494   2.775
30405W        W98768  16.126  19.664  14.306
30406W        W98769  13.824  23.101  12.364
30407W        W98770  15.587  39.816   0.792
30408W        W98771   7.807  19.057   0.396
30409W        W98772  27.501  26.014   0.775
30410W        W98773  21.058  23.600   0.393
30411W        W98774  20.110  37.041   0.338
30412W        W98775  24.484  32.032  13.487
30413W        W98776  16.248  22.696   1.875
30414W        W98777  42.994  16.649  12.903
30415W        W98778  28.031  28.032  14.771
30416W        W98779  33.104   2.394  14.379
30417W        W98780  13.256   5.853  10.949
30418W        W98781  34.490  28.674  11.474
30419W        W98782  11.828  33.986   3.669
30420W        W98783  35.878   9.151  13.466
30421W        W98784  15.184  10.192   4.256
30422W        W98785   6.400   0.479   0.431
30423W        W98786  13.253  18.177   1.750
30424W        W98787  42.011  17.275  13.431
30425W        W98788  42.944   1.761   2.674
30426W        W98789  41.979  42.315   1.245
30427W        W98790  32.924  26.148   2.693
30428W        W98791  35.880  40.334  13.867
30429W        W98792  12.612  33.100   1.284
30430W        W98793   1.952   2.875  14.859
30431W        W98794  41.451  17.614  10.978
30432W        W98795  25.054  44.930  12.516
30433W        W98796  34.001  32.122   4.188
30434W        W98797  19.055  34.421  10.425
30435W        W98798  13.676  20.734  14.300
30436W        W98799  42.308  25.121   3.199
30437W        W98800  28.126  22.653   2.791
30438W        W98801   4.294   2.931  12.442
30439W        W98802   7.782   9.310   1.406
30440W        W98803   9.736  24.534  11.372
30441W        W98804  42.466  14.271  12.995
30442W        W98805  44.505  43.327   0.821
30443W        W98806  43.415   8.880  11.576
30444W        W98807  14.777  14.714  13.987
30445W        W98808  27.620  33.385  10.991
30446W        W98809  28.662  13.706  12.904
30447W        W98810  11.281  34.895  11.375
30448W        W98811  10.690   8.218  14.890
30449W        W98812  30.479   5.295  12.903
30450W        W98813   6.915  37.980   3.629
30451W        W98814  11.374   4.781  13.442
30452W        W98815  32.521  34.090   0.814
30453W        W98816   1.957  38.073   4.729
30454W        W98817   8.392  38.008   1.342
30455W        W98818   5.316   5.688  10.929
30456W        W98819  19.628   9.815   2.314
30457W        W98820  36.998   6.805  12.847
30458W        W98821  23.036  44.411   2.212
30459W        W98822  41.795   2.424  12.003
30460W        W98823  41.308  19.250   1.747
30461W        W98824   6.784  17.136   4.210
30462W        W98825  19.632  38.394  12.377
30463W        W98826  37.392  14.628  10.562
30464W        W98827  37.366  21.255   3.630
30465W        W98828  15.113  15.620   9.989
30466W        W98829   2.886  27.103   2.337
30467W        W98830  10.366  12.634  10.931
30468W        W98831  36.382  12.266   0.421
30469W        W98832   3.292   3.223   1.754
30470W        W98833  34.473   5.295  14.420
30471W        W98834   1.758  35.543   0.300
30472W        W98835  11.215  19.097  13.849
30473W        W98836  14.819  25.494   3.169
30474W        W98837  24.066  42.500   4.278
30475W        W98838  35.413  42.340   2.341
30476W        W98839   6.412  40.527   3.788
30477W        W98840  12.173   4.230   3.792
30478W        W98841  37.870  36.471  13.325
30479W        W98842  21.624  19.761  14.308
30480W        W98843  16.191  29.087  12.520
30481W        W98844  31.410  21.066   4.117
30482W        W98845  36.075  39.386  11.065
30483W        W98846  42.992  13.126  13.327
30484W        W98847   4.390  15.121  14.432
30485W        W98848  29.155  38.976  13.905
30486W        W98849  24.523  26.613  11.081
30487W        W98850  42.786  38.907   0.438
30488W        W98851  40.871  42.425   0.465
30489W        W98852   1.248  32.056   0.369
30490W        W98853  44.867  20.537  10.620
30491W        W98854   8.793  32.450   2.869
30492W        W98855  26.020  27.531  12.372
30493W        W98856  38.962  33.091  14.515
30494W        W98857   9.837  25.708  13.522
30495W        W98858   9.197  28.995  14.926
30496W        W98859  34.911  24.133   1.859
30497W        W98860  24.976  43.862  13.961
30498W        W98861  44.392   1.788   4.790
30499W        W98862  24.587  26.139  10.481
30500W        W98863  31.955  39.060   1.391
30501W        W98864   7.287  32.525  10.411
30502W        W98865  25.653   2.880   0.785
30503W        W98866  17.231  44.999   0.758
30504W        W98867  19.259  38.548  11.381
30505W        W98868  29.459  13.642  12.543
30506W        W98869  24.635   8.194  10.911
30507W        W98870  27.007   6.244   0.891
30508W        W98871  41.869  14.213  11.542
30509W        W98872  11.278  44.758   4.302
30510W        W98873   9.292  19.568   4.631
30511W        W98874   7.854   0.746   4.650
30512W        W98875  38.892  18.267  14.860
30513W        W98876  40.927  27.954   0.861
30514W        W98877   8.222  44.303   0.928
30515W        W98878  27.942  33.514   4.780
30516W        W98879  26.990  23.498   5.115
30517W        W98880  30.542  38.970   1.761
30518W        W98881  14.661  25.150   5.257
30519W        W98882  14.125  25.061   0.290
30520W        W98883  37.541   9.233  12.390
30521W        W98884  26.180   3.353  13.009
30522W        W98885  34.462  39.337  10.478
30523W        W98886   1.273   4.400  12.041
30524W        W98887  14.149  25.968   3.212
30525W        W98888   4.428  23.560   0.751
30526W        W98889  11.832  18.648  13.534
30527W        W98890  44.904  32.484   1.904
30528W        W98891  23.536  31.971  10.481
30529W        W98892   4.361  31.626  12.848
30530W        W98893  18.053   4.442  12.915
30531W        W98894   0.984  11.243   3.868
30532W        W98895  28.544  43.899   1.262
30533W        W98896  39.052  10.769   3.709
30534W        W98897  25.700  11.253   1.281
30535W        W98898  14.827   6.791   3.365
30536W        W98899  38.830  39.019   5.291
30537W        W98900   3.419  27.577  10.947
30538W        W98901  10.730  27.107  13.500
30539W        W98902  19.231  42.797  14.298
30540W        W98903   8.323  23.685  11.946
30541W        W98904  32.479  14.779  12.941
30542W        W98905  21.728  27.461  12.422
30543W        W98906  11.298  24.543  12.406
30544W        W98907  15.739   3.237  11.456
30545W        W98908  20.583  21.148  11.513
30546W        W98909  17.580  43.821  14.021
30547W        W98910  40.802   6.376  11.570
30548W        W98911  19.194  26.014   3.236
30549W        W98912   6.385   9.371  12.906
30550W        W98913  30.973  29.516  10.048
30551W        W98914  23.559  20.698  10.957
30552W        W98915  18.253  20.129   1.376
30553W        W98916  30.659  12.251  11.053
30554W        W98917  15.110  26.687  12.871
30555W        W98918  12.193  23.232  14.277
30556W        W98919  30.540  20.577  10.103
30557W        W98920   0.418  21.682   1.886
30558W        W98921  19.715  29.613   0.789
30559W        W98922   1.451  29.022   4.667
30560W        W98923  25.603  26.161   4.803
30561W        W98924  26.673  43.950   9.985
30562W        W98925  13.194  32.983   1.803
30563W        W98926  20.071   0.943   2.214
30564W        W98927  38.984  38.565  13.476
30565W        W98928  15.598  26.500  14.416
30566W        W98929   7.689  33.421   1.713
30567W        W98930   7.300  42.018  14.430
30568W        W98931  28.574  35.515  11.475
30569W        W98932   1.317  14.228   4.204
30570W        W98933  14.831  18.191   0.966
30571W        W98934  37.432  27.999   2.828
30572W        W98935   9.178   4.432   1.224
30573W        W98936  33.558  32.458  14.437
30574W        W98937  36.872   5.917  11.892
30575W        W98938  24.660   6.422  12.949
30576W        W98939  18.670  31.148  14.853
30577W        W98940  10.373  30.643   4.818
30578W        W98941  22.645  21.185  14.029
30579W        W98942  16.166  38.434  14.474
30580W        W98943  40.394  41.342   1.217
30581W        W98944  32.476  34.952   3.267
30582W        W98945  16.290  43.993   9.521
30583W        W98946   1.874  44.262  10.645
30584W        W98947  18.056  21.074   0.754
30585W        W98948  31.989   1.482   2.230
30586W        W98949  30.655  42.862   5.209
30587W        W98950   4.268  40.500  14.860
30588W        W98951  39.849  20.593  12.823
30589W        W98952  15.799  15.665  11.509
30590W        W98953  35.077  17.093   2.767
30591W        W98954  23.022   4.927   1.355
30592W        W98955  30.625   0.476   2.285
30593W        W98956  19.118  32.563  13.024
30594W        W98957  13.652   6.348   1.887
30595W        W98958  12.172  24.134  10.538
30596W        W98959  25.546   3.911   4.214
30597W        W98960   4.264   7.391   2.366
30598W        W98961  29.469  19.635   1.798
30599W        W98962   0.845   9.643   4.794
30600W        W98963   2.903  22.522  12.074
30601W        W98964  17.667  14.280   1.229
30602W        W98965  41.851  14.657   3.773
30603W        W98966   3.420   4.418   4.265
30604W        W98967  30.433   7.386   3.760
30605W        W98968  23.499  42.446  14.481
30606W        W98969  18.780  11.856   1.921
30607W        W98970  31.095  21.230   2.769
30608W        W98971  39.412  12.832   3.850
30609W        W98972   2.883  19.580   3.333
30610W        W98973  26.014  33.100   3.712
30611W        W98974   4.313  44.888   2.846
30612W        W98975   9.666  43.302   3.669
30613W        W98976  16.110  35.475   0.303
30614W        W98977  32.921  40.508   0.268
30615W        W98978  13.215  18.637   0.439
30616W        W98979  16.108  44.304  10.066
30617W        W98980  14.725  35.046   0.774
30618W        W98981   4.867   0.470  12.903
30619W        W98982  11.348  22.703  11.405
30620W        W98983  42.833   2.941  14.970
30621W        W98984  41.339  28.515   1.369
30622W        W98985  35.908  24.639  14.317
30623W        W98986  33.536  36.943   2.185
30624W        W98987  32.032  13.186   4.158
30625W        W98988  18.643  41.311   9.929
30626W        W98989  25.113  28.510  13.542
30627W        W98990  12.196   7.742   4.195
30628W        W98991  18.757  24.591   0.816
30629W        W98992  26.135  30.429   2.848
30630W        W98993  32.495   9.705   2.247
30631W        W98994  10.289   9.335  13.927
30632W        W98995   4.776  19.583  13.345
30633W        W98996   6.796  20.146  14.425
30634W        W98997  26.208  18.750   3.701
30635W        W98998  32.464  28.943  10.915
30636W        W98999  33.003  44.287  10.994
30637W        W99000   1.874  38.561   2.377
30638W        W99001  12.819  32.572   0.399
30639W        W99002  32.589  27.142   4.141
30640W        W99003  11.333  14.749  14.803
30641W        W99004  19.671   2.293  14.853
30642W        W99005  16.630  28.949  11.598
30643W        W99006  40.442  44.469  12.502
30644W        W99007   3.885  34.508  12.854
30645W        W99008   4.904  32.137   0.453
30646W        W99009  27.047  24.721  14.340
30647W        W99010  12.649  18.102   1.221
30648W        W99011   8.685  37.445   3.218
30649W        W99012  40.475  24.169  12.344
30650W        W99013  17.562  43.460   4.632
30651W        W99014  32.052   0.353  10.994
30652W        W99015  28.464  23.630   3.827
30653W        W99016  39.832  25.688   3.718
30654W        W99017   9.388  28.448  14.904
30655W        W99018  31.152  10.701  11.016
30656W        W99019  20.199  11.222  13.365
30657W        W99020  42.837   8.404  14.877
30658W        W99021  16.206   8.819  12.080
30659W        W99022  32.543  20.545   0.469
30660W        W99023  15.696  38.950   2.717
30661W        W99024  31.906   2.784   2.864
30662W        W99025  23.191  10.638   2.358
30663W        W99026  12.735  38.972   2.317
30664W        W99027  13.198  43.899  12.930
30665W        W99028  17.259  35.951  12.085
30666W        W99029  23.124  32.601  13.943
30667W        W99030  22.738   9.192   4.681
30668W        W99031  30.591  41.434   0.815
30669W        W99032  28.435  12.343   1.741
30670W        W99033  22.594  29.937   1.343
30671W        W99034   0.355  13.816  12.850
30672W        W99035   0.398   2.450  10.581
30673W        W99036   4.257   0.818  11.406
30674W        W99037   3.220  42.845  12.509
30675W        W99038  39.910  19.748  13.438
30676W        W99039  22.241  22.562  10.443
30677W        W99040  10.251  27.477  11.025
30678W        W99041  33.890  25.698  14.478
30679W        W99042  38.346   7.183  12.463
30680W        W99043  22.699  10.649   0.896
30681W        W99044  19.762   7.762  11.535
30682W        W99045  29.143   0.493  14.809
30683W        W99046  32.922   6.349  13.943
30684W        W99047  11.354  36.346   0.339
30685W        W99048  25.022  43.881   2.398
30686W        W99049   6.710  22.241   0.381
30687W        W99050  22.580   1.348  14.402
30688W        W99051  23.711   6.868  12.538
30689W        W99052  16.153  40.434  13.504
30690W        W99053   2.789  32.913  11.523
30691W        W99054  27.603  16.211   2.355
30692W        W99055   3.953  29.549  11.947
30693W        W99056  16.667  11.822   3.366
30694W        W99057  11.319   5.389  13.426
30695W        W99058   4.937   8.793   1.307
30696W        W99059  16.782  39.809  11.490
30697W        W99060   2.330  38.517  10.504
30698W        W99061  41.996  30.456  11.519
30699W        W99062  12.187   1.971   1.752
30700W        W99063  21.536  11.809  14.814
30701W        W99064  17.696  25.216  10.888
30702W        W99065   0.427  37.917  11.415
30703W        W99066  14.611   5.302   0.465
30704W        W99067   9.305   6.304   4.645
30705W        W99068   0.426  29.091  10.413
30706W        W99069  20.195  11.190   4.633
30707W        W99070  32.062  18.103   4.782
30708W        W99071   6.389  43.440  10.935
30709W        W99072  21.635  30.962  13.965
30710W        W99073  25.056  22.036   2.699
30711W        W99074  12.339  13.217  10.489
30712W        W99075  21.696  25.586   1.396
30713W        W99076  32.414  32.605   3.668
30714W        W99077  37.502  16.701   3.636
30715W        W99078  23.188  37.529   2.197
30716W        W99079   4.423  21.517   3.153
30717W        W99080  24.139  29.139   0.435
30718W        W99081  30.496  29.940  13.408
30719W        W99082   4.825  40.007   1.310
30720W        W99083   1.340  29.522   1.245
30721W        W99084  20.693  11.251  13.006
30722W        W99085  35.884  40.538   3.691
30723W        W99086   3.230   1.401  10.407
30724W        W99087  21.645  14.336   1.324
30725W        W99088  25.611  27.970  10.542
30726W        W99089  37.874  39.939   0.839
30727W        W99090  39.056  33.957   0.407
30728W        W99091  18.097  17.234   3.685
30729W        W99092   1.397  22.504  10.987
30730W        W99093  34.553  36.495   4.726
30731W        W99094  32.636  44.416  12.468
30732W        W99095  30.095   3.819  13.887
30733W        W99096  39.512  14.283  13.837
30734W        W99097  11.693   1.412  10.937
30735W        W99098   9.186  43.018  13.940
30736W        W99099   8.182  26.468   0.424
30737W        W99100   3.888  38.989   2.898
30738W        W99101  19.123  42.437   4.727
30739W        W99102  13.332  16.657  11.438
30740W        W99103  34.040  29.079   3.303
30741W        W99104  14.323  11.196   4.228
30742W        W99105   1.737  27.496  13.447
30743W        W99106  13.307  36.447   0.908
30744W        W99107  38.463  25.012  11.888
30745W        W99108   0.758  29.118  13.348
30746W        W99109  41.458  18.206   1.854
30747W        W99110   2.269   1.955  10.554
30748W        W99111  13.232  16.125  14.481
30749W        W99112  42.376  43.272  13.538
30750W        W99113  38.473  25.207   0.266
30751W        W99114  26.625   6.761  11.540
30752W        W99115  32.138   3.420  11.877
30753W        W99116   0.789   9.229   4.693
30754W        W99117  12.743  37.958   1.230
30755W        W99118  13.763  23.606  11.870
30756W        W99119  38.560  32.045   4.647
30757W        W99120  12.285  36.408  13.927
30758W        W99121   2.877  44.842   0.732
30759W        W99122  44.286   6.211   2.776
30760W        W99123  24.597   9.201  11.591
30761W        W99124  32.478  29.127   4.229
30762W        W99125  21.572  30.503  11.527
30763W        W99126   0.388  17.582  12.960
30764W        W99127   3.765  36.358   4.181
30765W        W99128  28.656   6.768  10.923
30766W        W99129  15.213   6.295  13.923
30767W        W99130   6.868  43.298   4.677
30768W        W99131   6.287  18.200   2.283
30769W        W99132  14.700  35.365   2.842
30770W        W99133  11.812  26.119  11.951
30771W        W99134  40.328  19.753   9.954
30772W        W99135  25.132  12.186  13.506
30773W        W99136  30.577  25.671   0.365
30774W        W99137  10.178   1.742  11.438
30775W        W99138  31.625  27.955  14.929
30776W        W99139  10.366  24.164  14.006
30777W        W99140  33.626   9.268   1.392
30778W        W99141  13.827   9.762  10.458
30779W        W99142  17.621   1.306  13.986
30780W        W99143   8.819  19.733  13.059
30781W        W99144  18.106  31.424   1.923
30782W        W99145  35.468  11.294   1.389
30783W        W99146  38.351   1.329  14.400
30784W        W99147  37.007  39.998   4.667
30785W        W99148   6.290  42.294   4.797
30786W        W99149   0.929  16.616  14.879
30787W        W99150  29.055  31.404   3.752
30788W        W99151  12.764  15.106   4.186
30789W        W99152  37.579  17.301   0.472
30790W        W99153  19.060  43.011   4.621
30791W        W99154  29.428  24.540  14.416
30792W        W99155  15.678  29.514   4.322
30793W        W99156  41.321  21.162   2.264
30794W        W99157  12.709  40.465  14.021
30795W        W99158  13.243  27.605  11.998
30796W        W99159  32.472   6.721  12.882
30797W        W99160  31.985  19.105   1.393
30798W        W99161  12.130  19.053  10.464
30799W        W99162  23.063  17.252   3.782
30800W        W99163  34.952  36.056  12.894
30801W        W99164  25.509  11.262  10.618
30802W        W99165   2.340   5.202   4.258
30803W        W99166  17.751  20.097  11.541
30804W        W99167  13.255  20.274  11.414
30805W        W99168   6.330  20.657   0.951
30806W        W99169  28.977  22.049  14.795
30807W        W99170  36.943  17.618  12.514
30808W        W99171  34.981  16.731  10.580
30809W        W99172  30.570  42.507   4.703
30810W        W99173  34.494   7.779   2.720
30811W        W99174  39.329  40.467  13.870
30812W        W99175  39.345  44.942   4.234
30813W        W99176  35.419  11.649   4.344
30814W        W99177   2.321  21.676   1.703
30815W        W99178  36.018  11.270  13.473
30816W        W99179  40.052  21.541   0.356
30817W        W99180  34.032  14.292   4.755
30818W        W99181  42.955  42.008  10.943
30819W        W99182  30.002  28.568  10.614
30820W        W99183  44.899  22.577  14.789
30821W        W99184  22.067  15.655   2.205
30822W        W99185   3.723  14.749  11.610
30823W        W99186  20.168  10.257  10.949
30824W        W99187   2.259  21.149   0.942
30825W        W99188  20.660   9.851   1.263
30826W        W99189  11.310  24.111  12.383
30827W        W99190  34.886  15.603   2.750
30828W        W99191  33.899  27.500   2.788
30829W        W99192  26.501  25.092  14.862
30830W        W99193  38.478  28.047  14.335
30831W        W99194  41.966  23.576  10.006
30832W        W99195  36.444   0.880  11.896
30833W        W99196  39.922  12.725  10.630
30834W        W99197  17.797  31.627  11.449
30835W        W99198  24.595  40.878  11.372
30836W        W99199  12.248   2.379  14.301
30837W        W99200  12.640  43.802   1.343
30838W        W99201   1.463  31.417  11.508
30839W        W99202  30.589  16.613   0.908
30840W        W99203   5.919  36.843  13.482
30841W        W99204  18.688  38.906   2.201
30842W        W99205  29.050  27.136   4.203
30843W        W99206  27.627   7.344   1.364
30844W        W99207   5.437  27.175  11.878
30845W        W99208  25.708   1.911   4.245
30846W        W99209  22.066  16.296  12.441
30847W        W99210   6.337  13.105   3.329
30848W        W99211  11.625  37.919  13.380
30849W        W99212  41.863   0.833   4.130
30850W        W99213   0.765  18.615  13.497
30851W        W99214  39.835  35.595  10.603
30852W        W99215  16.719   4.401   2.858
30853W        W99216  23.114  23.518  13.907
30854W        W99217   7.371   1.259   2.698
30855W        W99218   5.878  31.945  13.891
30856W        W99219  30.568  39.826  13.050
30857W        W99220   1.976  14.236   3.697
30858W        W99221  30.971  43.470  12.853
30859W        W99222   2.726  19.680  13.859
30860W        W99223  35.372  36.870  10.897
30861W        W99224  42.329  10.342  12.473
30862W        W99225  39.848  21.217  12.571
30863W        W99226  20.574  29.047   3.262
30864W        W99227   4.818   5.436  12.998
30865W        W99228  17.074  35.953   0.739
30866W        W99229   6.726  18.744   4.346
30867W        W99230  33.535   9.394   3.671
30868W        W99231  42.945  20.220   4.831
30869W        W99232  22.650   1.410  12.509
30870W        W99233  23.623  26.558   1.284
30871W        W99234   9.369  33.468   0.924
30872W        W99235  13.298   0.851   0.732
30873W        W99236  24.658   2.332  12.503
30874W        W99237  33.454  13.297  12.349
30875W        W99238  23.084  44.325   2.684
30876W        W99239   2.437  27.598   0.805
30877W        W99240  43.975   5.438  14.277
30878W        W99241  17.605  10.813   3.149
30879W        W99242  17.302  35.410   0.820
30880W        W99243  29.995   2.383  11.089
30881W        W99244  24.490  18.650   3.164
30882W        W99245  43.397  20.583  11.373
30883W        W99246  29.991  29.053   3.242
30884W        W99247  28.549  22.646   4.140
30885W        W99248  27.007  19.550   5.227
30886W        W99249   7.399  38.980  11.022
30887W        W99250  20.701  30.656  14.392
30888W        W99251  22.046  21.650  11.521
30889W        W99252  24.481   9.345  12.055
30890W        W99253  18.592  34.101  11.900
30891W        W99254  18.097  43.792  14.456
30892W        W99255  32.637  44.474   0.251
30893W        W99256  21.157   6.362   1.301
30894W        W99257  36.505  19.673  12.075
30895W        W99258   0.267  28.666  12.462
30896W        W99259  17.669   9.264   3.780
30897W        W99260   5.788  26.638  14.930
30898W        W99261  26.138   9.293  14.761
30899W        W99262  39.973  38.395  12.939
30900W        W99263  12.207  25.486  13.981
30901W        W99264   7.327   1.826   2.872
30902W        W99265  44.293  29.500  12.481
30903W        W99266  21.719   1.483   4.800
30904W        W99267  43.823  44.958   0.913
30905W        W99268  15.325  34.950   0.259
30906W        W99269  12.815   4.752   5.286
30907W        W99270  13.108  12.248  10.920
30908W        W99271  25.022  38.513  12.535
30909W        W99272  43.788  39.821  14.019
30910W        W99273  44.465  10.828  13.537
30911W        W99274  41.001  39.935  13.481
30912W        W99275   8.280  13.687   3.831
30913W        W99276  14.296  15.289  13.522
30914W        W99277  10.140  23.224   3.848
30915W        W99278  10.792  30.570  13.345
30916W        W99279  37.832  27.637   2.775
30917W        W99280  36.442  35.951  14.883
30918W        W99281   0.813  32.491   0.792
30919W        W99282  40.947  42.929  13.412
30920W        W99283  41.850   9.303   0.875
30921W        W99284   9.812  37.364  11.411
30922W        W99285  19.600   2.903   3.662
30923W        W99286   7.407   8.810  13.013
30924W        W99287   1.386  34.460  11.890
30925W        W99288  11.356  14.212  13.798
30926W        W99289  20.137   1.959   0.747
30927W        W99290  21.534  16.216   3.740
30928W        W99291  31.040  24.016  11.529
30929W        W99292  40.495   5.714  13.032
30930W        W99293  39.927  43.964   2.392
30931W        W99294  11.728  25.019  11.122
30932W        W99295  23.554   4.431  11.520
30933W        W99296  38.980  26.658   1.929
30934W        W99297  17.616  16.156   1.289
30935W        W99298   3.935   4.900  13.007
30936W        W99299   8.848   0.811   2.813
30937W        W99300  18.765  34.962  13.824
30938W        W99301   3.406  26.609   3.693
30939W        W99302  36.913  24.565   1.427
30940W        W99303  23.183  40.481   1.300
30941W        W99304  18.222  33.519   1.444
30942W        W99305  30.944   9.319  13.949
30943W        W99306  27.473  15.716  13.442
30944W        W99307  36.974  32.397  13.405
30945W        W99308   3.215  43.481  13.008
30946W        W99309   8.334  19.652  11.128
30947W        W99310  22.031  22.690   2.370
30948W        W99311  42.324   8.753   5.245
30949W        W99312   1.399  41.804  13.537
30950W        W99313   1.474  43.343  10.926
30951W        W99314  17.742  31.523   2.730
30952W        W99315  16.730  26.150  14.381
30953W        W99316  11.349  32.579  14.963
30954W        W99317  29.598  18.559  11.858
30955W        W99318  44.468  27.516   3.654
30956W        W99319  14.270  26.615   0.417
30957W        W99320  33.091  24.149   3.695
30958W        W99321  21.541  16.164  10.994
30959W        W99322   4.337  30.960  13.020
30960W        W99323  10.643  28.567  14.912
30961W        W99324  27.509   0.334  12.895
30962W        W99325   8.270   3.953   4.225
30963W        W99326  42.870  13.759  10.926
30964W        W99327  43.446  30.921   3.727
30965W        W99328  30.025  17.713   0.458
30966W        W99329  39.384  43.327  11.986
30967W        W99330  39.000   1.973  11.432
30968W        W99331   1.381  15.313   2.835
30969W        W99332   8.267  14.609   1.392
30970W        W99333  31.899  36.479   2.821
30971W        W99334  22.126  42.961   4.691
30972W        W99335  34.955  37.051   2.395
30973W        W99336   1.932  29.938   0.783
30974W        W99337  29.924  44.303  13.923
30975W        W99338  36.017   6.324   3.227
30976W        W99339  39.370   0.431  11.926
30977W        W99340   9.266  37.986   0.829
30978W        W99341  32.995  44.360   0.940
30979W        W99342  18.193  17.108  14.855
30980W        W99343  17.684  28.967  11.471
30981W        W99344  29.563  11.127   4.750
30982W        W99345  20.176  13.279   2.380
30983W        W99346  13.105  28.577   1.325
30984W        W99347   2.284  40.849  11.047
30985W        W99348  29.022  15.178   4.757
30986W        W99349   0.794  15.232  13.935
30987W        W99350  25.032  10.770   4.829
30988W        W99351  27.968  12.261  12.440
30989W        W99352  12.743  28.528   2.819
30990W        W99353   4.793  19.745   2.717
30991W        W99354  21.739  33.957  13.341
30992W        W99355  44.357  19.543   3.711
30993W        W99356   9.241  14.591   3.775
30994W        W99357  24.112  24.156   2.411
30995W        W99358  18.576  27.124  14.904
30996W        W99359  21.129   6.679  13.366
30997W        W99360  23.088   0.785  14.995
30998W        W99361  41.850  41.977   0.905
30999W        W99362  26.985  37.874   4.641
31000W        W99363  10.299  26.064  11.529
31001W        W99364  43.499   9.698   2.848
31002W        W99365  36.370  37.024   1.867
31003W        W99366  24.041  27.196  13.332
31004W        W99367   7.417  43.846   1.895
31005W        W99368  36.424  41.491   3.297
31006W        W99369  12.342  17.085  11.941
31007W        W99370  42.991   1.869  12.094
31008W        W99371  39.055   0.260   3.809
31009W        W99372  26.046  15.294   5.234
31010W        W99373  21.124   1.345  11.031
31011W        W99374  44.411  22.043   1.747
31012W        W99375   6.422  10.316   2.818
31013W        W99376  41.482   7.786  14.936
31014W        W99377   0.818   6.351   1.873
31015W        W99378   8.386   2.775   3.701
31016W        W99379  34.400  27.678   0.425
31017W        W99380   9.813  35.544  14.011
31018W        W99381   3.941  21.656  11.981
31019W        W99382  41.956  39.969   2.408
31020W        W99383  31.973  18.790   0.387
31021W        W99384  34.602  37.895  13.320
31022W        W99385   8.373  21.057   0.420
31023W        W99386  14.649  16.178   0.832
31024W        W99387  14.296  31.929   0.915
31025W        W99388  25.668  38.938  12.394
31026W        W99389   3.400  20.244  12.535
31027W        W99390  27.960  10.642   2.213
31028W        W99391   8.376  12.710   2.255
31029W        W99392  41.962  31.600   1.711
31030W        W99393  10.332  15.677  11.006
31031W        W99394  20.648  39.825  11.943
31032W        W99395  42.029  34.576  13.522
31033W        W99396   6.712  14.748   2.194
31034W        W99397  37.004  16.303   2.377
31035W        W99398  41.331  28.045   0.964
31036W        W99399  35.954  31.534   4.642
31037W        W99400  30.465  37.039   3.227
31038W        W99401  30.103  26.110  13.837
31039W        W99402  16.622  18.247   9.486
31040W        W99403  14.265  38.415   2.874
31041W        W99404  10.702  19.216   1.244
31042W        W99405  28.029   5.217  11.122
31043W        W99406  24.578  19.082   2.691
31044W        W99407  40.500   2.846   0.868
31045W        W99408  15.583  41.521  11.434
31046W        W99409   1.889   7.257   3.765
31047W        W99410   0.930  23.719  14.955
31048W        W99411  14.301  10.849  11.428
31049W        W99412  32.063  19.283  14.031
31050W        W99413   9.670  38.954   3.277
31051W        W99414  38.500  15.188   4.607
31052W        W99415   8.356  34.555  12.916
31053W        W99416   7.821  44.936  14.828
31054W        W99417  43.852  43.320  12.954
31055W        W99418  21.128  20.113   4.179
31056W        W99419   4.435  38.038   1.219
31057W        W99420  31.902  21.676  13.526
31058W        W99421  27.507  35.883   4.770
31059W        W99422  13.197  41.838   2.244
31060W        W99423  33.597  33.500  13.873
31061W        W99424  16.111  43.999   0.866
31062W        W99425  28.453  29.434   4.307
31063W        W99426   2.796  32.396   1.697
31064W        W99427  29.106  42.972   1.244
31065W        W99428  25.008  40.418  14.992
31066W        W99429  13.828  14.314  13.892
31067W        W99430  34.921  36.534   0.786
31068W        W99431  33.120  32.591  13.346
31069W        W99432  14.728  29.596  14.777
31070W        W99433  11.349  25.087  11.429
31071W        W99434   1.939  44.947  13.807
31072W        W99435  30.551  41.894   0.838
31073W        W99436  37.487  35.597   2.414
31074W        W99437  30.977  31.097  11.421
31075W        W99438  31.974  27.504  10.527
31076W        W99439  27.960   4.714   5.142
31077W        W99440  21.059   9.182   4.698
31078W        W99441  25.541  22.545   3.866
31079W        W99442  37.984  29.076   3.204
31080W        W99443  36.067   3.731  14.836
31081W        W99444  38.361  33.488  14.850
31082W        W99445  44.442  23.158   3.301
31083W        W99446  20.067   5.248  11.114
31084W        W99447  38.404  13.812  11.987
31085W        W99448  22.648  14.206  10.002
31086W        W99449  11.261  30.630   3.276
31087W        W99450  30.942   6.841   0.391
31088W        W99451  16.677  44.846   3.781
31089W        W99452  11.155  32.125  12.074
31090W        W99453   6.895  17.632   0.805
31091W        W99454  36.841   0.388  11.529
31092W        W99455  40.866  28.013  12.348
31093W        W99456  13.670  21.234   2.335
31094W        W99457   1.853  37.073  14.468
31095W        W99458  17.620  15.617   4.333
31096W        W99459   1.413  43.378   1.780
31097W        W99460  20.254  18.137   4.276
31098W        W99461  30.447  43.898   4.811
31099W        W99462  21.753  16.083   2.191
31100W        W99463  26.080   5.409   3.633
31101W        W99464  32.519  27.629  13.393
31102W        W99465  41.909   8.664  11.066
31103W        W99466  33.518   9.161  11.919
31104W        W99467  12.725   3.421  11.598
31105W        W99468  21.240  38.482  13.544
31106W        W99469  34.060  17.631   0.374
31107W        W99470   1.867  36.414  11.079
31108W        W99471  16.100   8.888  14.374
31109W        W99472  24.583  32.922  10.940
31110W        W99473  16.710  42.461  12.420
31111W        W99474   7.810   0.340   4.344
31112W        W99475   1.930  39.319  10.903
31113W        W99476  25.165  44.416  12.055
31114W        W99477  35.400  23.733  14.385
31115W        W99478  34.590  13.838  10.994
31116W        W99479  19.204  44.402   9.444
31117W        W99480  34.465   8.180  14.300
31118W        W99481  22.221   0.299   0.826
31119W        W99482  17.664  41.878   3.368
31120W        W99483  18.608  21.165   0.419
31121W        W99484  29.978  41.405  13.794
31122W        W99485   5.277  42.393   3.384
31123W        W99486  24.226  13.830  12.340
31124W        W99487  30.066  34.563   4.826
31125W        W99488  34.381   7.827  11.532
31126W        W99489  32.965  16.700  14.016
31127W        W99490  41.339   4.854  12.045
31128W        W99491  44.971  14.603  14.908
31129W        W99492  33.597  12.774  13.373
31130W        W99493  13.823  35.481  11.872
31131W        W99494   4.303   4.736  13.920
31132W        W99495  44.957   4.781  13.806
31133W        W99496  14.761  18.262   3.739
31134W        W99497   2.264  14.664  13.819
31135W        W99498  22.510  18.775  13.976
31136W        W99499  22.080  14.627   4.274
31137W        W99500  26.486   9.353  14.782
31138W        W99501  32.421  18.560   3.696
31139W        W99502  35.419  14.700  14.943
31140W        W99503  35.396  28.451  11.010
31141W        W99504  30.920  32.417   0.893
31142W        W99505  39.956  38.560   1.911
31143W        W99506  44.412   0.332  11.992
31144W        W99507  29.098  16.091   0.923
31145W        W99508  17.566  32.501   0.761
31146W        W99509  28.952   2.325  14.935
31147W        W99510  25.073  20.613  11.108
31148W        W99511   1.858  14.617  14.399
31149W        W99512  23.124  23.625  14.893
31150W        W99513  23.129  33.561  12.038
31151W        W99514   8.257  30.964   1.251
31152W        W99515  25.584  34.613  11.947
31153W        W99516   7.800  22.188   4.682
31154W        W99517  17.108  42.999   4.788
31155W        W99518  36.935  25.087  14.420
31156W        W99519  11.752  21.694   0.965
31157W        W99520   5.255  13.221  12.978
31158W        W99521  43.411  41.435   3.808
31159W        W99522   5.279   6.769  12.580
31160W        W99523  24.027  13.761   3.679
31161W        W99524   0.375   6.186   2.278
31162W        W99525  37.438  11.290  11.446
31163W        W99526   2.926  17.623  10.516
31164W        W99527  39.526   2.791   4.253
31165W        W99528   2.771  32.142  10.916
31166W        W99529  33.882  31.139   0.466
31167W        W99530  36.061   9.329  11.520
31168W        W99531  24.154  36.397   0.347
31169W        W99532   2.349   4.943  11.520
31170W        W99533  32.433   3.458   0.922
31171W        W99534  36.888  39.387  10.570
31172W        W99535  36.461  15.161   3.777
31173W        W99536  34.959  26.701  13.364
31174W        W99537  26.486  44.880  14.991
31175W        W99538  24.056   5.254   0.381
31176W        W99539  11.271  40.033   2.699
31177W        W99540  12.260  15.676   4.746
31178W        W99541  12.615  11.854  10.993
31179W        W99542  33.973  13.801  12.032
31180W        W99543  37.418  34.970   3.646
31181W        W99544  35.896  12.855   3.258
31182W        W99545  32.591   9.763   1.216
31183W        W99546  25.216  43.995   2.888
31184W        W99547  35.961  43.296  12.477
31185W        W99548  34.533  35.894   2.202
31186W        W99549  25.636   3.226  13.940
31187W        W99550  25.642   9.816   1.432
31188W        W99551   3.296   7.801   3.811
31189W        W99552   1.876  30.436  11.875
31190W        W99553  21.134  14.807  14.910
31191W        W99554  11.784   8.392  12.081
31192W        W99555   8.208  27.040   3.178
31193W        W99556  14.812  25.666  10.433
31194W        W99557   2.342  15.656  12.953
31195W        W99558  23.502  26.982   0.859
31196W        W99559   8.343  41.329  11.375
31197W        W99560  10.288  34.398   2.699
31198W        W99561  42.802  43.286  14.385
31199W        W99562   8.201  11.714   0.423
31200W        W99563  39.816   6.742   0.292
31201W        W99564  34.876   9.708   4.180
31202W        W99565   9.814  29.969  11.906
31203W        W99566  18.547  15.274  14.785
31204W        W99567  27.464  22.608  12.067
31205W        W99568   5.360  27.612  12.562
31206W        W99569  21.220   7.695   0.751
31207W        W99570  41.829   8.405   3.667
31208W        W99571  44.952  39.500  13.059
31209W        W99572  40.931   1.350   4.345
31210W        W99573  20.669  17.640   2.205
31211W        W99574  38.529  16.597   0.966
31212W        W99575  10.210  10.679   0.925
31213W        W99576   2.756  41.847  14.939
31214W        W99577  17.739  31.140  13.028
31215W        W99578  36.549  41.427  14.979
31216W        W99579  21.553  35.039  11.602
31217W        W99580   8.313  44.434   1.726
31218W        W99581  21.254  35.370   1.772
31219W        W99582  37.433  36.961  14.787
31220W        W99583  20.162  13.688  10.943
31221W        W99584  39.459  17.724   4.630
31222W        W99585   5.865  17.705   4.645
31223W        W99586  10.270  14.182  11.467
31224W        W99587   3.861  25.157   3.166
31225W        W99588  31.151   8.839   0.779
31226W        W99589  42.881  26.952  11.899
31227W        W99590  15.140  31.054  11.041
31228W        W99591  33.968  39.943  14.996
31229W        W99592  30.094   5.401   3.165
31230W        W99593  10.248  22.699   3.772
31231W        W99594  32.984  22.056   4.223
31232W        W99595  42.780  44.350   4.328
31233W        W99596  17.307  28.999   3.870
31234W        W99597  15.641  27.522  11.974
31235W        W99598  25.681  37.373   2.723
31236W        W99599  31.512   2.347   0.735
31237W        W99600  24.590   4.810  13.321
31238W        W99601  11.771  20.605  14.379
31239W        W99602  32.086  23.542   3.732
31240W        W99603  42.006  28.185  14.376
31241W        W99604  34.459   1.280   0.869
31242W        W99605  23.495  22.684  13.412
31243W        W99606  32.938  29.577   0.252
31244W        W99607  38.429   3.915  13.507
31245W        W99608  13.662   2.960   4.293
31246W        W99609  31.645  10.818   3.658
31247W        W99610   4.899   5.269  14.279
31248W        W99611   7.735   3.878  11.937
31249W        W99612   1.304  13.698  10.630
31250W        W99613  41.817  33.105   1.267
31251W        W99614  37.520   1.809   2.206
31252W        W99615  27.108  27.679   3.238
31253W        W99616   2.782  11.646  10.973
31254W        W99617  30.107  33.560   2.752
31255W        W99618  10.224  19.656   3.326
31256W        W99619   5.404  30.545  11.901
31257W        W99620   1.758  33.890   2.873
31258W        W99621   0.936  13.712  14.307
31259W        W99622   1.369  23.697  10.560
31260W        W99623  30.530  44.442  12.076
31261W        W99624  13.266  15.192   1.337
31262W        W99625   4.903  28.027  14.921
31263W        W99626  29.987   0.780   2.328
31264W        W99627  27.036   8.185   1.782
31265W        W99628  42.781  20.250   5.313
31266W        W99629   3.810  23.690   3.145
31267W        W99630  15.776  21.698   3.342
31268W        W99631  22.728  41.492  14.296
31269W        W99632  23.690  18.610  10.443
31270W        W99633   2.322  27.147  11.075
31271W        W99634   5.307   2.856  13.834
31272W        W99635  38.539  13.201   0.439
31273W        W99636   9.869  10.232  12.925
31274W        W99637  12.748  14.637   1.371
31275W        W99638  29.088  41.972  14.011
31276W        W99639  24.005  25.182  10.471
31277W        W99640   3.745  24.200   4.706
31278W        W99641  10.871  20.179  11.524
31279W        W99642  11.366  39.813  12.029
31280W        W99643  25.497  40.910   1.898
31281W        W99644  42.383   9.184   3.380
31282W        W99645  20.615  31.072   3.217
31283W        W99646  41.800   2.813   4.831
31284W        W99647   7.347  38.965   1.377
31285W        W99648  21.591  17.262  12.342
31286W        W99649   4.403  31.502  10.449
31287W        W99650   5.884  38.499   2.364
31288W        W99651  34.509  14.727  14.856
31289W        W99652  25.975  34.528  14.340
31290W        W99653  43.286   9.174   1.718
31291W        W99654  41.924  35.949  14.953
31292W        W99655  40.503  30.106  10.404
31293W        W99656  38.903   3.821   0.793
31294W        W99657  27.130  34.072  11.002
31295W        W99658  31.984  15.241  13.029
31296W        W99659  22.653  19.070  13.448
31297W        W99660  32.455  43.977   2.316
31298W        W99661   2.284  11.192  11.947
31299W        W99662  29.557  42.371  13.962
31300W        W99663   2.264  27.182   2.382
31301W        W99664  40.005  32.624  13.922
31302W        W99665  23.056  44.899  14.884
31303W        W99666  41.838   4.794   0.824
31304W        W99667  21.184  22.167  13.384
31305W        W99668   2.248  21.043  11.591
31306W        W99669  44.794   3.228   0.879
31307W        W99670  20.071  28.542  13.915
31308W        W99671  35.990  11.285   0.288
31309W        W99672  24.061  19.549  14.289
31310W        W99673  17.169  27.664  11.381
31311W        W99674  13.168  22.090  13.967
31312W        W99675  20.124   9.819  11.574
31313W        W99676  20.045   7.191   1.437
31314W        W99677  26.087   6.314   4.230
31315W        W99678  17.143  35.919   9.944
31316W        W99679  14.624  13.667  11.969
31317W        W99680  30.066   4.292   0.890
31318W        W99681  30.545  10.229   4.172
31319W        W99682  13.284  23.161  10.512
31320W        W99683  37.863  24.149  14.817
31321W        W99684  20.181  18.791  13.519
31322W        W99685  12.649  40.962   0.842
31323W        W99686  19.742  18.064  11.053
31324W        W99687  19.138  15.128   0.881
31325W        W99688  21.641  35.898   0.811
31326W        W99689  40.361  32.458  14.829
31327W        W99690  22.077  35.922  13.829
31328W        W99691  34.094  12.172   4.791
31329W        W99692  16.580  32.530  12.435
31330W        W99693  19.575  12.764   3.344
31331W        W99694  32.086  24.513  14.861
31332W        W99695  23.132  19.284  14.277
31333W        W99696  13.179  26.554  12.982
31334W        W99697  37.904  44.275   0.418
31335W        W99698  33.586  28.026  10.613
31336W        W99699   0.955  27.480  10.072
31337W        W99700  35.377  14.146   3.208
31338W        W99701   9.778  37.503   4.799
31339W        W99702   6.342  21.094  10.974
31340W        W99703  24.102  21.126  12.995
31341W        W99704  27.460  28.164  13.822
31342W        W99705  33.910   2.908  14.319
31343W        W99706  20.581   0.269   1.445
31344W        W99707  10.300  27.974  12.549
31345W        W99708  42.346   8.713   3.739
31346W        W99709  37.575  10.376   2.238
31347W        W99710  32.024  40.800  10.956
31348W        W99711   5.263  24.007   1.923
31349W        W99712  18.105   0.335  11.475
31350W        W99713  42.881  19.681  13.392
31351W        W99714  16.291  38.373   4.653
31352W        W99715  23.708   9.279   3.736
31353W        W99716  33.614  42.283  12.946
31354W        W99717  33.080   0.483  11.075
31355W        W99718  25.596  16.166  10.994
31356W        W99719   5.371   7.255   2.330
31357W        W99720  38.385  12.818  12.016
31358W        W99721   4.392  31.030  12.535
31359W        W99722  22.545  11.337  12.880
31360W        W99723  42.987  38.992  10.457
31361W        W99724  17.159  27.602   4.773
31362W        W99725  12.297  22.117   3.182
31363W        W99726   9.225  21.693   4.299
31364W        W99727  16.574  10.370  11.466
31365W        W99728  13.753  35.003   0.252
31366W        W99729  44.417  27.013  14.326
31367W        W99730  33.443  37.067  11.061
31368W        W99731  41.826  37.909  13.004
31369W        W99732  29.548   4.302   1.870
31370W        W99733   9.318  33.912  12.580
31371W        W99734   4.817  20.587   4.834
31372W        W99735  29.641  21.198   0.965
31373W        W99736  15.670  12.204  14.987
31374W        W99737  27.116  34.008   3.298
31375W        W99738   5.834  38.961  12.405
31376W        W99739  43.765  30.935  14.997
31377W        W99740   3.233   3.231  11.395
31378W        W99741  31.586  31.922   2.776
31379W        W99742  10.275  24.202  14.351
31380W        W99743  20.094  32.958  12.031
31381W        W99744  38.426  30.115   1.812
31382W        W99745  24.499  28.148   0.456
31383W        W99746   9.855  32.066   1.823
31384W        W99747  38.368  16.689  12.830
31385W        W99748  33.114  34.374  13.918
31386W        W99749  16.620  25.193   2.791
31387W        W99750  11.161  28.462   3.310
31388W        W99751  30.122   6.347  13.033
31389W        W99752  38.401  42.400   1.879
31390W        W99753  21.652  44.264  13.403
31391W        W99754  29.972  17.263   3.832
31392W        W99755  15.166  28.604  13.431
31393W        W99756  13.215  32.518  10.413
31394W        W99757  23.566  27.450  11.982
31395W        W99758  35.102   1.735   1.366
31396W        W99759  37.534  11.647  12.960
31397W        W99760  22.086   1.911  11.397
31398W        W99761  17.149  15.584   3.359
31399W        W99762  41.403  22.099   2.207
31400W        W99763   1.411  43.990  13.901
31401W        W99764  41.889  18.090   2.887
31402W        W99765  42.429  26.137  12.840
31403W        W99766  22.237  32.520   1.823
31404W        W99767  13.698  18.573   2.248
31405W        W99768   9.325  43.302   0.779
31406W        W99769  41.354  39.001  13.878
31407W        W99770  15.302  17.634  13.833
31408W        W99771  25.666   5.313   4.821
31409W        W99772   6.322   7.826  14.918
31410W        W99773  35.461  15.773  14.293
31411W        W99774  14.234  11.275   4.779
31412W        W99775  15.134   0.449  11.525
31413W        W99776  40.344  36.498   2.776
31414W        W99777  43.767  22.747   3.231
31415W        W99778  15.132   4.418   0.303
31416W        W99779  36.939  43.332  11.506
31417W        W99780   9.351  25.576   3.868
31418W        W99781  27.511  24.103  10.955
31419W        W99782  10.741   5.846   0.947
31420W        W99783  44.909   8.382  14.977
31421W        W99784  16.292  12.280  14.997
31422W        W99785  14.698  28.580   2.191
31423W        W99786  43.377  34.996  12.074
31424W        W99787  35.571   5.206  13.966
31425W        W99788   4.868  30.065  11.897
31426W        W99789  22.173  42.782  14.452
31427W        W99790   1.432   2.293   1.308
31428W        W99791  36.423   0.878   4.708
31429W        W99792   1.459  18.576  12.922
31430W        W99793   7.894  39.391   1.883
31431W        W99794  17.584   5.930  14.357
31432W        W99795  15.586  11.169   5.272
31433W        W99796  39.547  23.165  14.790
31434W        W99797  40.500   7.885  14.874
31435W        W99798  29.035   0.441  12.033
31436W        W99799  35.929   8.794   2.777
31437W        W99800  23.726   2.788   1.885
31438W        W99801   1.863  44.780   0.877
31439W        W99802  36.483   2.450  14.998
31440W        W99803  16.290   1.836  13.838
31441W        W99804   6.812  18.666   1.914
31442W        W99805   6.752  25.175   0.424
31443W        W99806   6.217   5.407  11.930
31444W        W99807  25.182  43.444   3.312
31445W        W99808  42.402  41.319  11.058
31446W        W99809   3.834   1.359   4.129
31447W        W99810  32.135  37.416   4.152
31448W        W99811  38.350   4.851   3.292
31449W        W99812  43.280  20.150  10.905
31450W        W99813  34.986  16.307  12.552
31451W        W99814  33.015   7.712   4.801
31452W        W99815  30.632  27.004   2.893
31453W        W99816  39.891  12.348  11.111
31454W        W99817  38.997  21.129  14.798
31455W        W99818  16.736  28.973  13.020
31456W        W99819  34.075  17.253   4.792
31457W        W99820  10.350  38.865   2.735
31458W        W99821  36.501  22.153  11.927
31459W        W99822  43.910  23.113   0.364
31460W        W99823  43.967  39.902  12.833
31461W        W99824  29.083  18.561  10.989
31462W        W99825   8.219  14.704   0.319
31463W        W99826  13.218  28.446   2.309
31464W        W99827  18.733   2.750  11.551
31465W        W99828  27.135  35.970  11.471
31466W        W99829  23.708  39.002   2.789
31467W        W99830  36.030  14.688   0.863
31468W        W99831  32.448  26.508  14.924
31469W        W99832  22.632   5.726  13.471
31470W        W99833   5.337  36.590   4.649
31471W        W99834   6.428  38.863  12.407
31472W        W99835   5.831   3.445   2.367
31473W        W99836  22.194  41.508  11.860
31474W        W99837  42.385  36.406  12.850
31475W        W99838  15.701  14.696  13.818
31476W        W99839  23.103   3.937  11.500
31477W        W99840   8.274  10.704  10.941
31478W        W99841  39.321  10.815  13.008
31479W        W99842  21.172   0.897   3.697
31480W        W99843  16.658  31.554  13.446
31481W        W99844  24.701  39.880   4.348
31482W        W99845  43.766  24.059   1.835
31483W        W99846  42.021   3.754  11.963
31484W        W99847  24.072  31.560  13.459
31485W        W99848  43.352  16.669  10.492
31486W        W99849  35.536   8.874   1.818
31487W        W99850  17.303  18.191   0.777
31488W        W99851   5.200   3.817  12.038
31489W        W99852  30.510  42.457   0.866
31490W        W99853  25.612  41.368   2.879
31491W        W99854  25.144  17.564   2.403
31492W        W99855  22.049   0.430  12.964
31493W        W99856  30.061  36.944   1.270
31494W        W99857  12.168  39.398  11.533
31495W        W99858  20.036  40.509  12.864
31496W        W99859  39.380  23.066  11.000
31497W        W99860  13.154  14.776   0.863
31498W        W99861  24.599  17.257  10.593
31499W        W99862  44.265  18.182   4.687
31500W        W99863  25.592  34.550   1.821
31501W        W99864  35.549   2.939   1.395
31502W        W99865  34.613  32.538  14.513
31503W        W99866  27.602  34.591   4.786
31504W        W99867   1.327  31.475   1.226
31505W        W99868  20.041  35.859  11.936
31506W        W99869  25.560  17.231  10.628
31507W        W99870  30.633   3.951   4.305
31508W        W99871  22.112  36.556  11.402
31509W        W99872   1.877  41.043  13.325
31510W        W99873   3.321   4.867  12.855
31511W        W99874  25.192  35.063   0.435
31512W        W99875  33.463  20.128  13.819
31513W        W99876  10.225  38.443  14.513
31514W        W99877  42.950  27.482  14.318
31515W        W99878  26.022  23.037   2.703
31516W        W99879  10.190  15.295   0.880
31517W        W99880   8.787   7.799  12.925
31518W        W99881  27.093  27.134  10.892
31519W        W99882  10.634  29.153   2.755
31520W        W99883  26.099   7.195   4.823
31521W        W99884  12.264  38.392   3.336
31522W        W99885  13.768  38.920  13.916
31523W        W99886  12.307   6.847   4.650
31524W        W99887  10.259  41.884   4.226
31525W        W99888  32.894   1.463  11.884
31526W        W99889  31.085  26.958  10.538
31527W        W99890  29.052  29.624   3.739
31528W        W99891  42.958  40.990  10.925
31529W        W99892   9.835  17.674  10.996
31530W        W99893  40.545   9.857   4.612
31531W        W99894  11.282   3.741   3.668
31532W        W99895  42.889  16.650   1.763
31533W        W99896  31.054  33.421   3.803
31534W        W99897  14.731  15.578   9.952
31535W        W99898   1.944  30.934  13.009
31536W        W99899  37.895  21.146  13.360
31537W        W99900  34.891  28.578   2.384
31538W        W99901   5.354   9.162   3.333
31539W        W99902  10.811  12.647  13.949
31540W        W99903  33.562  20.563   3.378
31541W        W99904  13.821  16.131   5.751
31542W        W99905   5.422  40.429  11.586
31543W        W99906   2.899  25.020   2.195
31544W        W99907  18.730  13.150  10.893
31545W        W99908   5.343  15.115   3.191
31546W        W99909  36.012  44.943  13.478
31547W        W99910  41.296  19.624  12.852
31548W        W99911   1.370   9.878  10.504
31549W        W99912  43.322  10.198  12.007
31550W        W99913  24.497   9.337  14.906
31551W        W99914  19.761  38.334   2.185
31552W        W99915  34.568  34.422  13.315
31553W        W99916  44.805  22.557  12.092
31554W        W99917  42.812  13.200  13.824
31555W        W99918   3.938  24.616   5.668
31556W        W99919   2.817  26.972   1.763
31557W        W99920   6.365   3.398   0.772
31558W        W99921   4.291   0.282  11.543
31559W        W99922  24.691  41.797   4.247
31560W        W99923  30.557  25.192   0.741
31561W        W99924  36.405  29.666  12.898
31562W        W99925   3.745  19.774   3.831
31563W        W99926   6.323  10.810   2.785
31564W        W99927  40.530  28.465  14.855
31565W        W99928  28.069  16.172   4.787
31566W        W99929   6.196  38.970   3.637
31567W        W99930  18.155  20.250  11.874
31568W        W99931   9.225  37.840  14.899
31569W        W99932   9.158   1.928  10.018
31570W        W99933  42.434  27.122  13.470
31571W        W99934  12.129  25.127   2.353
31572W        W99935  20.081  35.475  11.034
31573W        W99936  18.656  40.381   3.378
31574W        W99937  31.598  13.638  11.602
31575W        W99938  22.677  36.562  14.764
31576W        W99939  25.600  34.931  13.996
31577W        W99940  21.233  20.231   0.437
31578W        W99941  32.515  41.425   3.178
31579W        W99942  35.975  31.566   2.308
31580W        W99943  31.020  19.701   4.823
31581W        W99944  42.350  43.432   0.729
31582W        W99945  22.643  21.690   1.327
31583W        W99946  39.431  43.885  10.633
31584W        W99947  29.101  41.383  11.872
31585W        W99948  17.225  40.491   1.832
31586W        W99949  23.535  25.963  12.478
31587W        W99950   4.213  16.699  10.537
31588W        W99951  39.856  11.294   4.223
31589W        W99952  33.464  27.126   1.844
31590W        W99953  42.329  20.680   4.174
31591W        W99954  26.999  22.710  12.546
31592W        W99955  34.608  16.729  11.397
31593W        W99956   2.737  42.913   2.902
31594W        W99957  26.689  19.773  10.599
31595W        W99958  25.168  19.168   4.655
31596W        W99959  36.466   4.374   2.687
31597W        W99960  36.045  30.027  14.843
31598W        W99961  25.478  40.320  12.578
31599W        W99962   2.926   5.737  10.632
31600W        W99963   8.401   6.837  12.397
31601W        W99964  32.584   5.328   4.348
31602W        W99965   1.386   8.391   0.757
31603W        W99966  25.033  40.837   2.856
31604W        W99967  15.604   2.883   1.282
31605W        W99968  18.261  36.925   1.775
31606W        W99969  30.134   1.795  11.928
31607W        W99970  42.025   5.378  12.068
31608W        W99971  15.124   0.962  10.960
31609W        W99972  12.774  27.484   3.630
31610W        W99973  10.300   8.687  13.444
31611W        W99974  21.048  30.434  10.420
31612W        W99975   1.766  16.797   1.822
31613W        W99976   8.194  18.066  10.476
31614W        W99977   3.876  22.696   9.622
31615W        W99978   6.311  44.907   1.427
31616W        W99979  43.852   2.744  12.095
31617W        W99980  12.750  13.621  11.448
31618W        W99981  11.623   3.457   3.357
31619W        W99982  20.161  32.621   1.927
31620W        W99983  14.228  23.051   0.945
31621W        W99984  10.180  14.218   4.741
31622W        W99985  10.762   5.275  10.487
31623W        W99986   8.655   6.917  13.352
31624W        W99987  12.625   6.843  11.582
31625W        W99988  34.035  33.585   0.941
31626W        W99989  17.641   0.476   0.729
31627W        W99990  27.945  37.472   0.868
31628W        W99991  18.674   8.668  13.355
31629W        W99992  35.502  39.945   2.721
31630W        W99993   5.253   6.806   3.815
31631W        W99994  28.571  30.610   3.706
31632W        W99995  17.576   3.722   0.933
31633W        W99996  32.440  16.656  11.997
31634W        W99997  44.946  24.675   4.653
31635W        W99998   2.725   1.446   0.392
31636W        W99999  41.933  41.997  11.376
31637W        W    0   8.687  27.953   2.868
31638W        W    1  18.653   0.362   4.177
31639W        W    2  24.981  30.643  12.826
31640W        W    3   6.286  31.612  10.405
31641W        W    4  44.364   9.746   3.704
31642W        W    5  15.784  18.247  11.020
31643W        W    6   6.327   7.673  10.407
31644W        W    7  15.659   0.342   0.829
31645W        W    8   2.231  10.763  11.098
31646W        W    9  35.957  27.639  12.983
31647W        W   10   1.481  32.140  10.897
31648W        W   11  37.013  10.865   0.474
31649W        W   12   1.468  36.498  14.920
31650W        W   13  17.240  33.997   1.410
31651W        W   14  31.568  19.535   3.264
31652W        W   15  20.606   1.264  13.365
31653W        W   16  14.809  44.775  11.044
31654W        W   17  39.911  19.107  14.930
31655W        W   18  14.271   3.274  11.917
31656W        W   19   7.386   0.784   4.748
31657W        W   20  28.059  28.441   3.179
31658W        W   21  21.642  16.798   3.803
31659W        W   22   5.421   5.438   0.841
31660W        W   23  24.132  38.835   4.655
31661W        W   24  28.680  15.728  10.087
31662W        W   25  37.940  38.061   0.729
31663W        W   26  34.945   6.391  14.365
31664W        W   27  19.737  19.684  13.997
31665W        W   28  33.994   9.725   0.481
31666W        W   29   3.240   1.966  10.903
31667W        W   30  34.405   4.351  12.534
31668W        W   31  34.447   7.334  12.440
31669W        W   32   3.774   9.254   2.895
31670W        W   33  36.078   0.422  14.882
31671W        W   34  18.661  43.797  11.898
31672W        W   35  39.051   7.887   2.356
31673W        W   36   1.776  17.142   2.346
31674W        W   37  14.687  28.095   4.192
31675W        W   38  23.136  19.733   2.309
31676W        W   39  43.939   2.783   1.275
31677W        W   40  35.540  34.107  10.616
31678W        W   41  38.054  17.140  10.115
31679W        W   42  41.936  26.666  14.375
31680W        W   43  26.469  44.341   1.220
31681W        W   44  41.336   1.478   3.284
31682W        W   45  24.203  24.035   3.195
31683W        W   46  27.040  30.607   4.792
31684W        W   47  30.050  21.065   2.374
31685W        W   48  17.611  21.599  11.535
31686W        W   49  42.420  32.514  10.640
31687W        W   50  19.589  30.415   0.911
31688W        W   51  41.390  33.895  13.030
31689W        W   52  21.607   1.264  10.438
31690W        W   53  18.234  41.528   1.438
31691W        W   54  40.961  37.432  13.895
31692W        W   55  21.162   0.925  10.508
31693W        W   56   7.855   0.878   0.398
31694W        W   57  24.119  14.107  10.109
31695W        W   58  30.148  43.411  12.015
31696W        W   59  37.072  20.610  13.853
31697W        W   60   6.297  30.923   2.353
31698W        W   61   1.281  12.239  14.462
31699W        W   62  21.680  28.963   3.205
31700W        W   63  15.577  13.214  14.361
31701W        W   64  36.399  25.055   1.237
31702W        W   65  28.089  34.991   0.932
31703W        W   66  18.240   3.738   4.201
31704W        W   67  18.215  22.215  14.304
31705W        W   68   1.817   1.454   5.201
31706W        W   69  41.879  43.287   2.360
31707W        W   70  31.017   4.909   5.089
31708W        W   71  16.256  42.517   5.202
31709W        W   72  14.667  24.090   3.697
31710W        W   73  21.026  40.894   3.674
31711W        W   74  16.745   4.885  12.075
31712W        W   75  41.344  18.115  12.363
31713W        W   76  18.665   3.324  13.419
31714W        W   77  37.426  38.365   2.661
31715W        W   78   6.396  44.798  12.942
31716W        W   79  19.128  24.725   2.749
31717W        W   80   1.835  25.087  10.448
31718W        W   81   9.292   3.738   4.814
31719W        W   82   9.829  26.663   1.215
31720W        W   83   7.818  40.527   4.167
31721W        W   84  12.154   9.310  10.440
31722W        W   85   2.774  10.165  12.044
31723W        W   86  19.655   3.897   0.361
31724W        W   87   4.771  12.208   2.674
31725W        W   88   4.923  41.327   1.215
31726W        W   89  27.999  40.871   4.751
31727W        W   90  10.799  11.689  10.933
31728W        W   91  15.639  21.188   0.392
31729W        W   92  14.184  13.837  14.343
31730W        W   93   7.691  19.264   3.701
31731W        W   94  34.467  40.484  13.838
31732W        W   95  30.060  19.564  14.924
31733W        W   96   2.436  20.087   0.340
31734W        W   97  32.629   8.887  13.056
31735W        W   98  10.840  27.030   0.355
31736W        W   99  21.581  40.998   2.289
31737W        W  100  29.659   5.881  13.993
31738W        W  101  22.057  40.491   3.870
31739W        W  102  24.709  16.222   0.334
31740W        W  103  42.922  11.826  14.279
31741W        W  104  41.014  28.586   0.396
31742W        W  105  20.585  16.692   3.863
31743W        W  106  29.080   2.326   3.837
31744W        W  107  22.537  37.461  13.971
31745W        W  108  17.157  28.658   4.177
31746W        W  109  17.088  13.245   4.141
31747W        W  110  42.404  44.290   0.355
31748W        W  111   7.415  42.934  12.005
31749W        W  112   1.326  40.513  10.554
31750W        W  113  38.970   8.272   5.224
31751W        W  114  27.578  38.378   0.729
31752W        W  115  21.120  34.081  11.476
31753W        W  116  24.692  27.550  13.544
31754W        W  117   1.966  43.859   2.686
31755W        W  118  34.440  15.318  12.856
31756W        W  119  31.624  17.280  13.024
31757W        W  120  33.511  12.660   0.828
31758W        W  121  41.004  34.024  11.510
31759W        W  122  19.162  35.998   2.299
31760W        W  123  33.983  25.554   0.457
31761W        W  124  41.896  34.583   1.738
31762W        W  125  43.963  27.045  13.321
31763W        W  126  36.451  39.332   2.899
31764W        W  127  17.691  17.187  10.482
31765W        W  128   9.707  14.710  14.882
31766W        W  129  40.839  34.066  11.025
31767W        W  130  29.573  12.183  13.454
31768W        W  131  35.018  21.551  14.792
31769W        W  132  15.104  16.708  12.366
31770W        W  133  29.005  44.759  10.576
31771W        W  134  12.642  42.857   1.760
31772W        W  135  28.671  27.030  10.517
31773W        W  136   6.227  29.615  11.380
31774W        W  137  36.524  34.554   1.767
31775W        W  138  41.910  20.682  13.796
31776W        W  139  12.122  28.534  14.913
31777W        W  140  31.564  20.698  12.409
31778W        W  141  34.036  12.295  12.894
31779W        W  142   7.335  27.128  13.905
31780W        W  143   6.278   3.818   2.735
31781W        W  144   1.269   2.920  11.893
31782W        W  145  42.784   2.390  10.906
31783W        W  146  36.506  36.562  13.447
31784W        W  147  11.623  30.007  10.941
31785W        W  148  44.844  18.254  10.566
31786W        W  149  33.002  39.022  14.415
31787W        W  150  13.744   8.327  14.292
31788W        W  151  14.288  35.060  14.929
31789W        W  152  30.971  19.774  12.008
31790W        W  153  38.545  17.097   4.200
31791W        W  154  11.820  29.124   4.118
31792W        W  155  29.057  11.288  11.091
31793W        W  156   6.830  18.211   0.827
31794W        W  157  40.810  40.830   3.695
31795W        W  158   5.306  29.476  10.461
31796W        W  159  35.105  39.505  12.961
31797W        W  160  38.448   2.858   1.892
31798W        W  161   2.884  44.289  11.054
31799W        W  162  38.352  35.523   0.968
31800W        W  163  29.021  10.658   3.217
31801W        W  164  12.795  24.604   2.227
31802W        W  165   8.326  44.802  14.896
31803W        W  166   5.225   5.439  11.377
31804W        W  167  13.784  32.614  12.361
31805W        W  168  10.164  25.197   0.836
31806W        W  169  43.407  31.986  13.905
31807W        W  170  39.479  28.018  12.524
31808W        W  171  16.804  35.066   0.389
31809W        W  172  13.659  32.996   2.183
31810W        W  173  27.079   8.845   0.336
31811W        W  174  41.796   4.438  14.341
31812W        W  175  10.801  11.837  13.057
31813W        W  176  42.932   7.756   2.252
31814W        W  177   7.669   8.191  12.880
31815W        W  178  41.305  32.488   1.869
31816W        W  179  44.458   5.199   3.819
31817W        W  180  14.665   0.821   1.757
31818W        W  181  32.444   9.269   1.743
31819W        W  182  17.157   1.309   1.418
31820W        W  183  13.221  18.170   4.821
31821W        W  184  14.603  21.513  12.873
31822W        W  185  23.665  10.786  11.597
31823W        W  186   7.911  34.926   1.301
31824W        W  187  14.215  28.547  11.018
31825W        W  188  33.941  36.850  10.404
31826W        W  189  33.945  30.104   0.906
31827W        W  190  32.626  22.202  12.402
31828W        W  191   0.320  26.116  10.894
31829W        W  192  40.847  17.078  12.961
31830W        W  193  35.019  36.032   0.246
31831W        W  194  18.714  42.965  10.478
31832W        W  195  39.893  22.058  12.539
31833W        W  196   6.822  33.894  13.418
31834W        W  197  33.609  24.123  13.489
31835W        W  198  43.925  30.074   3.320
31836W        W  199  33.425  20.574  12.993
31837W        W  200  26.129  29.534   1.292
31838W        W  201   3.935  31.900  11.561
31839W        W  202  24.227  39.337  13.401
31840W        W  203   6.864   3.456  14.438
31841W        W  204  11.232  27.111   4.797
31842W        W  205  24.086  20.035  13.465
31843W        W  206  28.146  19.045  12.392
31844W        W  207  19.687  19.594   4.630
31845W        W  208  36.573  22.247  12.971
31846W        W  209   5.899  41.939   3.744
31847W        W  210  12.351  28.642  12.466
31848W        W  211  14.182  19.278   2.377
31849W        W  212  11.296  20.156   2.795
31850W        W  213  16.690  15.303  13.797
31851W        W  214  38.067  24.580   0.885
31852W        W  215  23.226   3.742   4.250
31853W        W  216  38.383  41.939   2.858
31854W        W  217  28.494  36.414  13.329
31855W        W  218   8.804  17.745  10.439
31856W        W  219   3.322  36.516   4.134
31857W        W  220   7.744  13.230   2.404
31858W        W  221   8.742  23.733  13.805
31859W        W  222  12.849  12.798   1.292
31860W        W  223  24.626  41.469  12.523
31861W        W  224  37.471  31.465   4.336
31862W        W  225  42.503  10.383  10.418
31863W        W  226  23.522  26.078   1.324
31864W        W  227   2.370   6.889  14.481
31865W        W  228  22.672   8.172  12.061
31866W        W  229   0.880  10.754   1.913
31867W        W  230   0.255  36.545  14.811
31868W        W  231  27.489   1.890  14.011
31869W        W  232  20.198  11.362   1.361
31870W        W  233  41.345   0.438  14.430
31871W        W  234  24.073   5.394   0.816
31872W        W  235  40.417  35.578  10.988
31873W        W  236  37.412  12.118   4.163
31874W        W  237  43.977  15.600   1.329
31875W        W  238  23.532  40.450   0.460
31876W        W  239  34.039   0.434  13.473
31877W        W  240  30.476  11.366  11.600
31878W        W  241   9.278  29.163  12.406
31879W        W  242   7.870  28.503  14.388
31880W        W  243  40.376  31.936   1.280
31881W        W  244  42.463  30.578   2.407
31882W        W  245  15.249  13.707   3.683
31883W        W  246   5.708  36.428  14.489
31884W        W  247  18.070  31.419   2.299
31885W        W  248  24.996  43.509  10.942
31886W        W  249  40.962  42.420   3.685
31887W        W  250  11.720   8.201   1.281
31888W        W  251  20.596  17.600  14.479
31889W        W  252  15.665  38.354  14.889
31890W        W  253  22.657  22.066   0.749
31891W        W  254  16.199  43.980  12.435
31892W        W  255  42.995  20.641   1.400
31893W        W  256  34.032   7.264   0.768
31894W        W  257   5.787   3.390   3.637
31895W        W  258  27.972   5.871  10.487
31896W        W  259  31.915  32.500   2.674
31897W        W  260  43.497  36.881  13.871
31898W        W  261  34.484  43.509   1.377
31899W        W  262   5.780  31.036   1.232
31900W        W  263  32.047   9.756  13.535
31901W        W  264  15.188   9.305   1.442
31902W        W  265  42.315  14.717   0.286
31903W        W  266  41.397  32.588   2.312
31904W        W  267  34.391  26.996   3.691
31905W        W  268   1.298  23.560   5.150
31906W        W  269  31.465  19.156   0.274
31907W        W  270   9.344  36.361  13.371
31908W        W  271  33.547  10.188   1.728
31909W        W  272  33.101   0.426  13.028
31910W        W  273  26.570  40.964   4.790
31911W        W  274   3.296  31.148  11.107
31912W        W  275  17.232  21.136   0.310
31913W        W  276  17.160   2.900   3.689
31914W        W  277  19.157   4.347  13.817
31915W        W  278  42.950  22.612   1.776
31916W        W  279  17.649  22.235   3.731
31917W        W  280  38.380  12.240  14.490
31918W        W  281  21.049   5.852   2.318
31919W        W  282  43.989   1.346   2.356
31920W        W  283  32.047  32.897   3.646
31921W        W  284  36.524   8.373  11.533
31922W        W  285  27.973   9.680   2.271
31923W        W  286  15.708  44.838   1.430
31924W        W  287  43.772  13.690   0.280
31925W        W  288  17.590  39.878  11.109
31926W        W  289  12.217  18.624   1.845
31927W        W  290  25.161  37.933   3.819
31928W        W  291  25.648  40.453   2.893
31929W        W  292  27.552   3.816  13.327
31930W        W  293   3.883  23.040   1.367
31931W        W  294  22.675  23.736  11.118
31932W        W  295  32.580  38.836   2.783
31933W        W  296  43.767  17.776   0.831
31934W        W  297  33.514  34.108  13.483
31935W        W  298   1.879  31.006  11.897
31936W        W  299  37.447  32.015  10.445
31937W        W  300  29.489  43.397   4.176
31938W        W  301   9.715  15.659  10.463
31939W        W  302  40.048  42.409   2.190
31940W        W  303   5.384   7.871   2.289
31941W        W  304  15.786  40.804   0.405
31942W        W  305  38.855   0.470   2.284
31943W        W  306  21.089  42.503   4.805
31944W        W  307  38.385  41.925  12.000
31945W        W  308  25.126  19.743  13.393
31946W        W  309  15.604  13.113  14.818
31947W        W  310  41.409   3.394  13.021
31948W        W  311  19.654  10.183   0.755
31949W        W  312   7.670  14.776  14.944
31950W        W  313  37.426  41.449  13.370
31951W        W  314  34.876   3.294   5.273
31952W        W  315  38.993  35.398  13.429
31953W        W  316  40.316   1.265  14.353
31954W        W  317  17.636  10.378   2.222
31955W        W  318  17.731  21.184  14.415
31956W        W  319  25.552  39.827   0.406
31957W        W  320   6.223  26.488  12.951
31958W        W  321  29.949  21.588  10.513
31959W        W  322  41.384  19.654   0.755
31960W        W  323  30.450  44.436  11.092
31961W        W  324  26.158  12.806  11.540
31962W        W  325  27.497   5.226  10.893
31963W        W  326  38.880  28.078   0.483
31964W        W  327  37.900  14.717   3.770
31965W        W  328   2.924  10.298   2.756
31966W        W  329  14.746   6.723  12.868
31967W        W  330   9.229  23.062   4.218
31968W        W  331   8.286  19.726  14.960
31969W        W  332  13.214  10.317   2.344
31970W        W  333  22.220  37.434   0.799
31971W        W  334  24.638  28.623   4.238
31972W        W  335   4.215  18.711   1.719
31973W        W  336  18.661  14.721  14.498
31974W        W  337  32.424  25.536   4.798
31975W        W  338   0.816  38.332   3.183
31976W        W  339  15.212  39.025  11.429
31977W        W  340  43.272  23.219   2.413
31978W        W  341  14.677  28.647  12.082
31979W        W  342   5.690  23.107  12.920
31980W        W  343  24.600  31.472  14.400
31981W        W  344   2.263  13.639  13.351
31982W        W  345  25.198  18.737  11.508
31983W        W  346  16.238  30.639  13.943
31984W        W  347   3.948  40.040  12.972
31985W        W  348  14.128  37.908  13.470
31986W        W  349   9.295  27.031  14.276
31987W        W  350  25.622  16.105   2.707
31988W        W  351  37.867  20.164  14.759
31989W        W  352  43.374  22.501  13.375
31990W        W  353  20.705   0.984   1.256
31991W        W  354  25.022   6.379   2.356
31992W        W  355   6.188   0.875  12.340
31993W        W  356  40.945  23.081   2.715
31994W        W  357  25.193  27.136   4.618
31995W        W  358  33.061  12.179  10.571
31996W        W  359  22.159  13.312   1.333
31997W        W  360  42.884  43.469   4.308
31998W        W  361  12.125  15.813  12.537
31999W        W  362  44.896  26.483   0.264
32000W        W  363   8.386  24.558   3.285
32001W        W  364  44.487  32.930  13.016
32002W        W  365  13.292  32.988  13.923
32003W        W  366  32.531  30.111   1.916
32004W        W  367   3.351  16.689  14.510
32005W        W  368  29.174  28.548   3.266
32006W        W  369   3.425  10.310   2.286
32007W        W  370  34.566  41.034   2.271
32008W        W  371   5.758   1.271   4.743
32009W        W  372  22.093  33.555   3.871
32010W        W  373  22.554  39.042  12.378
32011W        W  374  11.663  28.497   1.417
32012W        W  375   3.346  38.886   4.248
32013W        W  376  33.484  33.549   0.354
32014W        W  377  25.968  10.283  14.775
32015W        W  378  36.958  14.831   0.415
32016W        W  379  24.990   1.431  11.074
32017W        W  380  34.070  38.837   1.879
32018W        W  381  26.631   2.838   1.245
32019W        W  382  29.962  22.203  13.004
32020W        W  383   8.239  13.282   2.240
32021W        W  384   9.805  31.518   1.227
32022W        W  385  15.732  19.139   1.436
32023W        W  386  11.648  21.716  11.028
32024W        W  387  21.158  42.421   2.357
32025W        W  388  35.892  33.389  11.600
32026W        W  389  22.187  40.034   4.297
32027W        W  390  38.552  39.420   4.710
32028W        W  391   4.737  16.244  10.979
32029W        W  392  15.790   8.364  14.787
32030W        W  393  37.013  22.747  13.312
32031W        W  394  32.520  40.830   3.377
32032W        W  395  16.191  18.715   2.278
32033W        W  396   6.316  27.486   3.214
32034W        W  397  39.470  29.667   3.704
32035W        W  398  19.656  14.816   1.299
32036W        W  399  22.247  24.103  13.447
32037W        W  400   7.199  14.682   3.152
32038W        W  401  42.424  32.958   4.819
32039W        W  402   6.251  23.016  11.581
32040W        W  403  38.520  32.507  13.518
32041W        W  404   9.368  38.328  12.868
32042W        W  405  11.227  35.584  11.517
32043W        W  406  44.483   9.655  14.760
32044W        W  407  43.997  34.953   4.283
32045W        W  408  25.143   8.264   0.350
32046W        W  409  34.423   4.832  13.883
32047W        W  410  25.106  44.906   0.343
32048W        W  411   8.797  33.600   4.268
32049W        W  412   6.852   6.422   1.852
32050W        W  413  25.616  15.689  14.310
32051W        W  414  37.373   9.689  14.413
32052W        W  415  21.052  23.183  14.826
32053W        W  416  43.480  16.752   1.870
32054W        W  417   6.889  39.470   0.356
32055W        W  418  13.253  16.590  10.086
32056W        W  419  42.336  25.550   2.720
32057W        W  420  38.483   5.852  13.383
32058W        W  421  30.012  10.832  13.054
32059W        W  422  32.131  22.544   3.285
32060W        W  423  31.560  27.563  11.443
32061W        W  424  35.900   2.448   2.315
32062W        W  425  36.889  38.861  12.039
32063W        W  426   8.672  27.137  11.980
32064W        W  427  37.526  13.175   4.667
32065W        W  428   4.779   7.854  14.949
32066W        W  429  33.077  17.767   1.763
32067W        W  430  12.181  22.253   2.348
32068W        W  431   9.363  14.811   0.749
32069W        W  432  41.357  28.090   1.734
32070W        W  433  32.939  17.782  11.549
32071W        W  434  28.527   6.885   1.889
32072W        W  435  13.654  11.688  12.501
32073W        W  436   3.895   3.314   4.770
32074W        W  437  28.578  13.251   4.329
32075W        W  438   0.809   4.320  14.303
32076W        W  439  36.050  29.926   1.290
32077W        W  440   3.711  21.088   2.382
32078W        W  441  35.104  15.655  11.017
32079W        W  442  37.400  38.495   2.393
32080W        W  443  13.739  17.263   5.257
32081W        W  444   9.213  11.832   1.762
32082W        W  445  15.702  28.599   1.816
32083W        W  446  14.136  18.791   2.291
32084W        W  447  27.642  17.593  13.949
32085W        W  448  42.938  36.426   1.868
32086W        W  449   0.426  31.590  10.587
32087W        W  450  26.084  20.750   3.657
32088W        W  451  37.062   7.371   2.779
32089W        W  452   3.454   7.714  14.439
32090W        W  453  35.953  42.919   2.283
32091W        W  454  14.297  39.028   1.928
32092W        W  455  11.134   2.466  12.472
32093W        W  456  27.049   7.376   0.280
32094W        W  457  20.164  23.674   0.456
32095W        W  458  44.929  18.242   4.258
32096W        W  459  35.106  16.278  14.767
32097W        W  460   3.811  10.234  12.536
32098W        W  461  19.588  22.117  12.394
32099W        W  462  41.476   7.735   4.142
32100W        W  463   2.226  43.977   4.261
32101W        W  464  24.057  29.139  13.857
32102W        W  465   1.910   2.260  14.324
32103W        W  466  35.917  16.264   1.729
32104W        W  467   6.721  20.559  11.565
32105W        W  468   1.319  26.487   1.351
32106W        W  469  34.578  34.866  13.322
32107W        W  470  19.278  38.958   1.741
32108W        W  471  37.075   4.289  11.081
32109W        W  472   0.958   2.418   5.152
32110W        W  473  24.035   8.332   3.293
32111W        W  474  11.273   2.227  12.054
32112W        W  475  31.628  31.000   5.804
32113W        W  476  33.392  18.578   2.218
32114W        W  477  35.598  34.556   3.745
32115W        W  478  11.265  20.635  10.508
32116W        W  479  43.976  42.347  13.395
32117W        W  480   8.311  16.754   4.263
32118W        W  481  13.809  35.398   0.958
32119W        W  482  23.069  39.435  11.027
32120W        W  483   5.819  43.983  11.886
32121W        W  484  43.271   1.797  13.056
32122W        W  485   4.900   5.788  10.464
32123W        W  486  41.021  35.984  13.536
32124W        W  487  10.352   7.710  14.999
32125W        W  488  13.802   1.413   2.747
32126W        W  489  42.347  22.115   2.748
32127W        W  490   2.735   4.851   0.320
32128W        W  491  35.550  21.142   0.344
32129W        W  492  25.025  36.005  11.911
32130W        W  493  44.818  20.045  10.620
32131W        W  494  13.327  21.608   0.816
32132W        W  495  15.300  31.015  12.900
32133W        W  496   2.907  14.645   4.350
32134W        W  497  40.800  26.645   2.277
32135W        W  498  21.592  16.609  12.892
32136W        W  499   8.732  34.907  13.445
32137W        W  500  14.724  33.442  14.432
32138W        W  501  36.566  33.546   2.881
32139W        W  502  20.089  16.092   0.344
32140W        W  503  16.590  32.046   4.270
32141W        W  504  29.957  20.656  13.500
32142W        W  505   3.345   7.331   1.243
32143W        W  506  37.835  18.282   1.307
32144W        W  507  41.400  41.419   4.699
32145W        W  508  11.166  43.837  13.538
32146W        W  509  42.936  24.126   2.390
32147W        W  510  41.312   5.902   2.296
32148W        W  511  10.728   2.388  11.994
32149W        W  512  38.567  33.462   1.376
32150W        W  513  19.775  40.943  11.481
32151W        W  514   7.194  32.398  14.016
32152W        W  515  23.577  31.525   4.203
32153W        W  516  17.086  31.015   0.789
32154W        W  517  11.214   2.822  11.007
32155W        W  518  29.052  19.084  14.447
32156W        W  519  17.750  22.532   1.338
32157W        W  520  37.387  21.671  10.617
32158W        W  521  38.021  41.413   4.221
32159W        W  522  29.449  24.137  10.141
32160W        W  523   5.210  13.217  14.473
32161W        W  524  43.452  41.911  11.983
32162W        W  525  10.828  37.083  11.552
32163W        W  526  37.531   0.252  13.379
32164W        W  527   8.189  30.480   4.226
32165W        W  528   9.745   1.390   2.187
32166W        W  529  24.036  43.278   4.641
32167W        W  530   4.884  21.693   4.671
32168W        W  531  17.618  35.884  14.412
32169W        W  532  36.484  24.677  10.957
32170W        W  533  13.813  39.360   1.447
32171W        W  534  36.033  26.593   4.202
32172W        W  535  19.160  32.624   2.216
32173W        W  536  22.127  12.649  12.000
32174W        W  537  25.560  40.897  11.391
32175W        W  538   0.357  13.250   3.791
32176W        W  539  41.944  30.612   0.742
32177W        W  540  24.486  29.449  11.013
32178W        W  541  40.819  41.829  14.818
32179W        W  542  31.124  16.165   3.302
32180W        W  543  25.035  31.443  11.385
32181W        W  544   8.238  31.897   3.784
32182W        W  545  39.525  10.701   0.763
32183W        W  546  40.852  16.216   4.687
32184W        W  547   2.378  40.033  14.904
32185W        W  548   8.327  29.956  14.761
32186W        W  549  22.716   9.238  12.920
32187W        W  550  15.210  13.273  10.424
32188W        W  551   8.882  38.382  13.931
32189W        W  552  32.002   7.897   1.396
32190W        W  553  32.059  10.869   0.929
32191W        W  554  14.228  44.385  10.120
32192W        W  555   3.723  11.345   3.219
32193W        W  556  24.006  16.727  13.859
32194W        W  557  33.463  31.072   2.316
32195W        W  558  34.403  41.481  13.926
32196W        W  559  24.084  33.601  10.529
32197W        W  560  22.557  36.934  11.562
32198W        W  561   7.756  37.027  13.872
32199W        W  562  11.736  25.979  12.960
32200W        W  563  15.671  30.104   3.353
32201W        W  564  23.691   1.418   2.678
32202W        W  565  39.474  15.196  11.905
32203W        W  566  24.069  39.812  11.992
32204W        W  567  10.204   4.238   4.800
32205W        W  568  12.713  32.923   4.123
32206W        W  569  16.121  43.821   2.356
32207W        W  570  21.145  33.911   4.117
32208W        W  571   6.852  42.317   4.736
32209W        W  572  33.425  20.534  14.824
32210W        W  573   0.920  27.165  12.486
32211W        W  574   3.459  33.526  12.090
32212W        W  575  29.028  10.647   4.191
32213W        W  576   3.391  34.099  14.460
32214W        W  577  27.505   9.888  12.976
32215W        W  578   4.920   6.773   1.935
32216W        W  579   7.686  25.687   0.484
32217W        W  580   2.790  40.876   3.253
32218W        W  581   7.409   7.409   4.788
32219W        W  582  24.501  31.914  14.351
32220W        W  583  18.280  39.973  12.832
32221W        W  584  12.246  16.231  14.473
32222W        W  585   2.230  26.699   4.834
32223W        W  586  43.497   6.772  11.528
32224W        W  587   5.859  39.059  12.857
32225W        W  588  17.262   8.304  14.942
32226W        W  589  40.500  15.129   3.813
32227W        W  590  22.070  19.236  11.915
32228W        W  591  15.227   1.777   4.342
32229W        W  592  27.575  20.079   2.212
32230W        W  593  41.482  26.659  13.441
32231W        W  594   8.898   6.350   1.785
32232W        W  595  14.784  19.664   1.212
32233W        W  596  42.504   3.245   0.372
32234W        W  597   1.778  22.553  10.147
32235W        W  598  11.855   1.876   2.740
32236W        W  599  18.671  21.543   2.698
32237W        W  600  11.275  27.508   2.842
32238W        W  601  15.292  14.307   2.860
32239W        W  602  27.183  25.984  13.019
32240W        W  603  31.520   5.296  12.088
32241W        W  604  40.909  28.951   1.357
32242W        W  605  16.654  24.160  10.516
32243W        W  606  20.696  35.965  12.887
32244W        W  607   2.450  17.138   3.285
32245W        W  608  25.218   5.356  14.504
32246W        W  609  22.089   9.887   3.283
32247W        W  610  41.023  16.654   2.718
32248W        W  611   5.419  41.493  11.541
32249W        W  612   4.298  36.548   4.222
32250W        W  613  30.561  38.904  14.487
32251W        W  614  26.139  41.345  12.937
32252W        W  615   1.769  26.535   3.839
32253W        W  616  40.493  34.480   0.941
32254W        W  617   7.233  24.082   2.385
32255W        W  618  42.872  27.064   1.854
32256W        W  619  38.356   5.905   4.791
32257W        W  620   0.454  19.141  13.382
32258W        W  621  43.878   5.832   4.297
32259W        W  622  19.227  26.106  13.843
32260W        W  623  43.001   6.737  13.431
32261W        W  624  37.398  20.205   3.786
32262W        W  625  31.957  28.602  10.410
32263W        W  626  13.784  35.082   1.370
32264W        W  627  19.146  21.079  12.413
32265W        W  628  15.783   1.860  14.288
32266W        W  629   3.249  39.545  10.407
32267W        W  630  35.098   1.780  12.957
32268W        W  631   4.292  11.645   0.903
32269W        W  632  43.321   4.873   9.963
32270W        W  633  21.214  12.821  10.615
32271W        W  634  14.636  38.822   3.765
32272W        W  635   4.276   1.241   9.579
32273W        W  636  40.997  31.543  12.469
32274W        W  637  17.751  25.513  10.516
32275W        W  638  14.746  18.687   2.394
32276W        W  639   2.805  31.092   4.218
32277W        W  640  44.463   2.932   0.433
32278W        W  641  20.049  14.632   1.306
32279W        W  642  17.101   9.394  11.451
32280W        W  643  30.449   2.937   0.873
32281W        W  644  39.846   0.385   4.148
32282W        W  645  19.638  24.173   2.386
32283W        W  646  19.699  39.914   1.815
32284W        W  647  34.597  37.923   4.237
32285W        W  648  32.909   0.982   4.175
32286W        W  649  34.590  17.077  11.430
32287W        W  650  29.073  43.293   0.407
32288W        W  651   2.285  16.780  10.587
32289W        W  652  29.478  29.015   1.769
32290W        W  653  10.659   1.422  13.795
32291W        W  654  29.165  24.202   2.222
32292W        W  655  32.119   1.852   0.855
32293W        W  656   6.218  11.778   0.789
32294W        W  657   2.907   9.737   0.867
32295W        W  658   8.215  21.661  11.575
32296W        W  659  22.157  25.676  11.072
32297W        W  660  31.959   6.840  14.432
32298W        W  661   1.391  32.952  11.085
32299W        W  662  37.884   9.647  11.561
32300W        W  663  14.228   0.869  10.465
32301W        W  664   8.869  32.977   0.343
32302W        W  665  36.481  15.154   4.218
32303W        W  666  32.898  43.986  13.800
32304W        W  667  14.163   7.299   1.235
32305W        W  668  24.984  41.421  12.448
32306W        W  669  33.106  18.295  14.482
32307W        W  670  11.216   4.897   2.222
32308W        W  671   1.266  43.399   2.683
32309W        W  672  17.229  37.062  13.813
32310W        W  673  23.574  26.693  13.843
32311W        W  674  33.382   5.357   0.832
32312W        W  675   4.878  35.108   4.164
32313W        W  676  11.151  37.998  11.601
32314W        W  677  11.864  21.652  13.013
32315W        W  678   1.270  36.374   0.440
32316W        W  679  26.557  20.732   0.291
32317W        W  680  27.117  28.673   2.210
32318W        W  681  44.346  14.209   2.902
32319W        W  682  17.079   6.350  10.407
32320W        W  683  28.464  38.406  10.430
32321W        W  684  14.685   3.813  13.316
32322W        W  685  40.979  28.544  12.974
32323W        W  686   1.467  28.988   2.852
32324W        W  687  31.644  15.726  10.938
32325W        W  688  34.610  34.033   2.824
32326W        W  689  33.018  16.248  11.405
32327W        W  690  11.790   6.231   2.357
32328W        W  691  17.075  40.813   3.850
32329W        W  692  19.126   4.838   2.229
32330W        W  693  12.751  22.641  10.511
32331W        W  694  35.908  16.108   1.280
32332W        W  695  30.659  23.225   2.789
32333W        W  696  35.432   9.203   2.378
32334W        W  697   4.264  16.079  10.985
32335W        W  698  43.001  33.986  10.557
32336W        W  699  37.980  26.667   9.987
32337W        W  700   4.411  23.151  11.991
32338W        W  701  17.278  32.404   4.161
32339W        W  702  32.569   5.688  11.408
32340W        W  703  13.613   8.208  14.020
32341W        W  704  16.679   2.429  11.375
32342W        W  705   4.416  15.747  11.573
32343W        W  706  40.992  15.651   2.384
32344W        W  707   9.835  44.497  11.107
32345W        W  708   1.481   3.712  12.418
32346W        W  709   7.357  41.961  13.944
32347W        W  710  38.502  21.596   1.306
32348W        W  711  17.560  30.534   1.851
32349W        W  712  24.047  19.273   1.431
32350W        W  713   2.834  42.989  12.915
32351W        W  714  42.882  43.007   1.928
32352W        W  715  13.321  29.658  13.513
32353W        W  716  27.990  35.435  10.497
32354W        W  717  39.348  12.288   2.757
32355W        W  718  36.903  19.264  10.435
32356W        W  719  34.507   3.744  12.934
32357W        W  720   6.694  29.962  13.793
32358W        W  721   3.926  21.655   1.904
32359W        W  722  38.393   5.699   2.381
32360W        W  723  35.416  25.214   3.730
32361W        W  724  38.970  21.591  12.893
32362W        W  725  28.969  40.393   0.823
32363W        W  726  11.802  44.928   4.249
32364W        W  727  35.523  39.900  12.984
32365W        W  728   2.234   9.666  11.074
32366W        W  729  13.161   2.938  11.971
32367W        W  730  21.219  30.590   2.233
32368W        W  731  14.769  37.417   0.396
32369W        W  732  41.915  18.212   3.327
32370W        W  733  41.415  36.368   1.876
32371W        W  734  22.544  44.834  10.910
32372W        W  735  27.161  39.494  13.457
32373W        W  736  36.983  43.893   3.243
32374W        W  737   3.870  10.165  11.496
32375W        W  738  34.421  27.053  11.564
32376W        W  739   3.813   2.304  14.481
32377W        W  740  38.499   5.199   2.713
32378W        W  741  25.199  40.416  14.508
32379W        W  742  29.931   4.400   3.830
32380W        W  743  15.220   2.795  12.966
32381W        W  744  20.164  11.239   2.753
32382W        W  745  31.004  29.061  11.433
32383W        W  746  31.067  42.840   3.686
32384W        W  747  11.653   6.217  12.069
32385W        W  748   9.333  34.079   3.337
32386W        W  749  34.929   6.832  10.904
32387W        W  750  20.695  10.380  10.951
32388W        W  751  40.471   3.341   1.445
32389W        W  752  30.632  23.074   1.793
32390W        W  753  17.061  13.306   3.761
32391W        W  754   7.842   9.692  13.461
32392W        W  755  16.254  27.959   3.757
32393W        W  756   1.397  17.185   1.275
32394W        W  757  19.622   8.745   2.795
32395W        W  758   2.966  16.647   2.671
32396W        W  759  15.702   4.375  10.962
32397W        W  760  34.409  38.866  10.494
32398W        W  761  22.220   8.822   2.213
32399W        W  762  44.488  20.607  12.522
32400W        W  763  37.006  18.112  11.458
32401W        W  764   9.329   1.299   0.933
32402W        W  765  42.368  30.114   2.288
32403W        W  766   3.289  10.809  11.066
32404W        W  767  11.802  35.545   1.381
32405W        W  768   3.226  39.531   0.966
32406W        W  769  30.590  18.227   0.441
32407W        W  770   6.864  26.975  13.903
32408W        W  771  29.539  44.960  10.554
32409W        W  772  34.371  10.236  13.818
32410W        W  773  12.778  40.898  12.579
32411W        W  774   7.246   0.742   2.814
32412W        W  775   0.432   7.281  10.528
32413W        W  776  41.341  19.277  14.837
32414W        W  777   2.438  38.948   0.368
32415W        W  778  21.571  30.505   0.744
32416W        W  779   6.813  36.905  11.875
32417W        W  780  43.955  18.620   2.783
32418W        W  781  33.945   5.897   0.955
32419W        W  782  28.647  20.243  11.896
32420W        W  783  40.963   3.302  12.837
32421W        W  784   4.406  23.591   9.592
32422W        W  785   6.914  38.955  14.890
32423W        W  786   3.807  13.770  11.976
32424W        W  787  14.759  29.086   0.327
32425W        W  788  21.157  37.492   0.398
32426W        W  789  24.645  43.455   1.809
32427W        W  790  30.032  30.917  11.917
32428W        W  791  22.071  39.472   4.709
32429W        W  792   3.911  13.325   0.918
32430W        W  793  10.353  15.737   3.249
32431W        W  794   5.757   1.787  11.951
32432W        W  795  29.542  44.361  10.044
32433W        W  796  34.372   7.770  13.022
32434W        W  797  23.197  29.918   3.755
32435W        W  798  22.173  32.023   3.790
32436W        W  799  39.552   4.842  13.797
32437W        W  800  31.581   5.398   1.375
32438W        W  801  32.925  29.624  10.158
32439W        W  802  38.070   7.667   3.717
32440W        W  803  36.007  41.469  12.577
32441W        W  804  14.654  37.379  13.922
32442W        W  805  17.076   5.276  11.010
32443W        W  806  12.852  13.698   2.362
32444W        W  807  25.629   2.928  12.450
32445W        W  808  13.223  42.887  14.977
32446W        W  809   4.733  24.482  11.872
32447W        W  810  14.142  14.303  11.867
32448W        W  811   5.867  27.518  14.342
32449W        W  812  35.943  18.218   2.188
32450W        W  813   3.440   0.935  12.491
32451W        W  814  12.756   7.800   0.800
32452W        W  815   9.778  36.023  12.458
32453W        W  816  41.532   3.342  11.069
32454W        W  817  26.593  33.998   0.779
32455W        W  818  34.500  10.721  12.404
32456W        W  819  41.432  27.007  12.509
32457W        W  820  25.165  12.232   2.228
32458W        W  821   8.705  13.183  11.381
32459W        W  822  35.586  44.807  12.560
32460W        W  823  33.540   5.248  14.398
32461W        W  824   3.222  35.982   2.845
32462W        W  825  35.596   9.295  11.999
32463W        W  826   2.834  21.204   2.236
32464W        W  827  26.638  20.047  11.446
32465W        W  828   8.380  25.987  12.968
32466W        W  829   3.257  13.297  13.443
32467W        W  830   6.721   8.402  14.385
32468W        W  831  30.560  30.161   0.941
32469W        W  832  27.039  39.861   1.934
32470W        W  833   0.400   1.847   3.177
32471W        W  834  42.483  11.296   3.867
32472W        W  835  35.998  16.792  11.570
32473W        W  836  38.473  39.316  10.516
32474W        W  837  18.767  13.615   4.782
32475W        W  838   0.449  35.357   5.801
32476W        W  839  28.087  43.905  12.439
32477W        W  840  21.756  32.586  13.377
32478W        W  841  32.958   5.813  14.442
32479W        W  842  31.957   9.762  10.432
32480W        W  843  17.131  26.674  12.565
32481W        W  844  31.039  37.956  11.441
32482W        W  845  24.514  36.885   1.369
32483W        W  846  23.132  31.424  14.951
32484W        W  847  31.436  35.467   3.648
32485W        W  848  11.285  44.448  11.997
32486W        W  849   5.801  38.834  13.432
32487W        W  850  26.629  11.718  14.490
32488W        W  851  44.875  17.668  13.847
32489W        W  852  27.128  30.915  12.558
32490W        W  853  19.205  15.172  13.951
32491W        W  854  39.860  17.567   0.784
32492W        W  855  24.615   9.825  11.610
32493W        W  856   1.746  14.724  11.485
32494W        W  857  17.718   7.688  14.962
32495W        W  858  16.566   2.383   3.197
32496W        W  859  13.790  10.243  13.503
32497W        W  860   1.879  11.363   0.817
32498W        W  861  32.568  33.115   1.325
32499W        W  862  20.244  28.019  14.832
32500W        W  863  44.860   5.742  14.802
32501W        W  864  39.345  17.653  12.439
32502W        W  865  35.941   3.381  10.888
32503W        W  866  26.961   1.910   0.403
32504W        W  867  33.957  12.303  11.002
32505W        W  868  30.018   3.410  14.929
32506W        W  869  37.954  33.943  12.008
32507W        W  870  25.184   1.971   2.373
32508W        W  871  16.129  30.143  13.365
32509W        W  872  18.764  31.044  12.346
32510W        W  873  10.834  16.112   0.243
32511W        W  874  10.833  16.211  12.496
32512W        W  875  16.305  33.595   2.902
32513W        W  876  13.808  24.133  11.379
32514W        W  877  17.760  14.094   2.696
32515W        W  878  41.895  37.973   3.761
32516W        W  879  19.222  14.125  13.923
32517W        W  880  37.903   5.901  11.569
32518W        W  881  31.153  27.469  11.501
32519W        W  882  25.963  40.375  13.456
32520W        W  883  21.619   8.360   4.698
32521W        W  884   4.894  14.600   3.151
32522W        W  885  24.585   3.402   4.787
32523W        W  886   0.414  17.145   3.334
32524W        W  887  42.987  25.159  11.043
32525W        W  888  44.771  16.783  11.892
32526W        W  889  30.596  13.638   3.185
32527W        W  890  38.976  28.165  12.880
32528W        W  891  23.605  40.027   0.765
32529W        W  892   5.925  34.382   1.846
32530W        W  893  25.185   9.817  13.537
32531W        W  894  18.081   9.770   1.828
32532W        W  895  41.972   4.361  14.913
32533W        W  896   9.329  16.673   1.363
32534W        W  897  35.575  13.314   4.116
32535W        W  898  43.333  38.454   2.383
32536W        W  899  19.136  22.734   2.233
32537W        W  900  33.598  15.236  11.602
32538W        W  901  26.671  43.935  11.870
32539W        W  902   0.449  28.073  12.041
32540W        W  903   8.370  38.005   2.284
32541W        W  904  36.091  10.247   2.855
32542W        W  905  28.519  12.800  12.571
32543W        W  906  14.607  38.842  11.511
32544W        W  907  37.947  27.542  13.022
32545W        W  908  35.409  23.633  10.569
32546W        W  909  14.126   5.317  10.444
32547W        W  910   5.871   2.880  11.022
32548W        W  911   3.269  42.518   0.795
32549W        W  912  34.556  14.733  12.973
32550W        W  913  12.820  27.532   4.677
32551W        W  914   5.771  24.551   2.711
32552W        W  915  28.618   9.667   1.797
32553W        W  916  27.685   6.900   0.326
32554W        W  917  37.900  33.492   1.855
32555W        W  918   2.244  39.044  14.507
32556W        W  919  35.431   7.781   0.901
32557W        W  920  26.460   7.738   4.640
32558W        W  921   3.387  14.184  14.779
32559W        W  922  19.762  43.822  12.839
32560W        W  923   9.345  21.243  12.082
32561W        W  924  25.972  31.112   1.211
32562W        W  925  34.118  11.792   2.829
32563W        W  926  23.538  43.926   0.879
32564W        W  927  26.013  13.777   3.761
32565W        W  928  42.987  15.709  12.022
32566W        W  929  32.900  41.334   0.450
32567W        W  930  14.124  20.260  13.398
32568W        W  931   9.365   7.835  10.439
32569W        W  932  34.887   9.843   2.752
32570W        W  933  34.961  27.522   4.649
32571W        W  934  43.877  11.365   0.923
32572W        W  935  44.343  37.406  11.944
32573W        W  936   0.967  25.567   0.864
32574W        W  937  41.991   9.771   1.294
32575W        W  938  40.960  19.259  12.454
32576W        W  939   4.708  10.733  14.843
32577W        W  940  28.030   4.928  10.047
32578W        W  941   5.397  35.590   4.294
32579W        W  942  33.913  37.948  14.287
32580W        W  943  12.664   9.163  12.992
32581W        W  944  18.594  21.733  10.627
32582W        W  945  36.958   9.871   1.220
32583W        W  946  15.625  44.917  10.958
32584W        W  947  29.038  12.219  12.485
32585W        W  948  20.067  42.818   3.633
32586W        W  949  18.756   9.786  11.438
32587W        W  950  36.850  32.011  10.037
32588W        W  951   6.837   3.851   4.121
32589W        W  952  27.602  32.915   1.304
32590W        W  953  16.592  27.567   4.268
32591W        W  954  24.531  43.999  14.512
32592W        W  955   6.334   4.362   0.855
32593W        W  956  41.986  21.751  12.410
32594W        W  957  21.567  42.836   3.729
32595W        W  958  44.954  35.579   3.648
32596W        W  959  36.934  10.789  12.016
32597W        W  960  19.213  19.598  13.844
32598W        W  961  27.117   8.352  13.471
32599W        W  962   5.701   8.327  13.810
32600W        W  963  40.871  43.471   3.295
32601W        W  964  13.755  41.883   4.742
32602W        W  965  15.233  22.171   4.818
32603W        W  966   2.904   2.300   0.745
32604W        W  967  17.212   6.186  13.811
32605W        W  968  39.910  21.174  14.783
32606W        W  969   1.862  15.231  14.503
32607W        W  970  28.075  24.105   3.708
32608W        W  971  25.031   7.195   4.121
32609W        W  972  42.904  15.781  12.858
32610W        W  973  20.243  21.664  12.880
32611W        W  974   1.381  40.836   2.818
32612W        W  975  36.445  19.684  10.567
32613W        W  976  11.837  39.987   2.245
32614W        W  977  31.416   8.833   2.203
32615W        W  978  31.910   2.735   3.197
32616W        W  979  30.496   6.332   1.798
32617W        W  980  21.655  20.646   3.719
32618W        W  981  14.288  13.328  10.904
32619W        W  982   9.385  17.726  13.021
32620W        W  983   1.322  12.132   1.281
32621W        W  984   1.974  14.320  14.921
32622W        W  985  43.357  39.997  14.473
32623W        W  986   9.271   2.910  11.534
32624W        W  987  23.583  18.205   0.890
32625W        W  988  13.208  12.615   4.708
32626W        W  989  14.268  40.475   4.708
32627W        W  990  19.187  26.663   4.169
32628W        W  991  14.801  44.468  14.384
32629W        W  992  15.127  13.272   0.825
32630W        W  993  10.213  24.094   1.358
32631W        W  994   1.899   7.276   2.280
32632W        W  995  33.511  36.996  10.539
32633W        W  996  28.466  29.657   4.777
32634W        W  997  13.270  18.095   5.175
32635W        W  998   1.353  29.051  13.924
32636W        W  999  44.283  25.011   9.966
32637W        W 1000  18.646   8.270  11.940
32638W        W 1001  42.460  38.526   2.412
32639W        W 1002  21.628  33.462  14.337
32640W        W 1003  36.500  34.945  14.283
32641W        W 1004  41.435  19.266  11.920
32642W        W 1005  27.672  26.018  14.337
32643W        W 1006  41.041   4.391   0.280
32644W        W 1007  20.538  34.077  11.384
32645W        W 1008  14.191  33.069   0.460
32646W        W 1009  30.076  22.676   0.453
32647W        W 1010  43.509  40.329   1.931
32648W        W 1011  13.278  23.712  12.934
32649W        W 1012   4.330  18.714  11.088
32650W        W 1013  37.057  23.082   1.222
32651W        W 1014  41.875  38.837   0.885
32652W        W 1015  29.530  33.406   1.779
32653W        W 1016   2.886   9.654  11.917
32654W        W 1017  44.366  38.555   2.304
32655W        W 1018   8.672   2.330  11.037
32656W        W 1019   6.690  23.128   0.360
32657W        W 1020   0.817  26.072  12.345
32658W        W 1021  34.920   0.923   4.661
32659W        W 1022   1.887  35.474  14.374
32660W        W 1023  14.787  27.598  12.910
32661W        W 1024  26.515  11.235  13.850
32662W        W 1025  14.758  14.096   1.274
32663W        W 1026  33.084  33.076   1.924
32664W        W 1027  30.944  27.461  10.991
32665W        W 1028  38.953  23.064   3.724
32666W        W 1029  33.973  44.895   0.918
32667W        W 1030  11.171  28.093  13.458
32668W        W 1031  36.528  34.406   1.378
32669W        W 1032  28.506  26.591  11.071
32670W        W 1033  31.129  44.976   4.215
32671W        W 1034  32.613   9.225  14.479
32672W        W 1035  23.130  35.087   1.777
32673W        W 1036  35.916   6.287  12.878
32674W        W 1037   4.294  27.067  14.410
32675W        W 1038  27.644   6.398  11.896
32676W        W 1039  34.370  30.101   1.816
32677W        W 1040  35.985  27.066   0.374
32678W        W 1041  43.386  42.326  12.958
32679W        W 1042  30.531  22.053  12.534
32680W        W 1043  22.522  11.286   0.909
32681W        W 1044  16.126  40.503   3.748
32682W        W 1045   6.825  40.002   3.307
32683W        W 1046  17.125  42.837   3.745
32684W        W 1047  25.533  34.508  12.542
32685W        W 1048   5.852   9.867   2.698
32686W        W 1049  38.359  28.652   1.293
32687W        W 1050  21.162  29.996  13.490
32688W        W 1051  13.817  18.580  13.393
32689W        W 1052   5.388  18.587   4.298
32690W        W 1053  22.229  29.490  13.966
32691W        W 1054  21.534  38.519   1.934
32692W        W 1055  37.039  44.434  11.602
32693W        W 1056  25.500  19.194  14.450
32694W        W 1057  37.870  24.987  12.421
32695W        W 1058  31.974   6.212   3.672
32696W        W 1059  26.136  11.149  12.067
32697W        W 1060   1.326  34.519   2.297
32698W        W 1061  43.807  30.035  11.610
32699W        W 1062   3.751  13.141  14.452
32700W        W 1063   1.396  33.988   4.312
32701W        W 1064  24.529  10.168   0.868
32702W        W 1065  35.000  11.729   4.116
32703W        W 1066   2.412  25.590  10.086
32704W        W 1067  42.990   9.300   1.703
32705W        W 1068  41.306  18.201   4.714
32706W        W 1069  21.180   7.191   2.731
32707W        W 1070  11.729  28.047  11.451
32708W        W 1071  44.492  30.005   4.830
32709W        W 1072   9.768  18.205  13.813
32710W        W 1073  15.628  26.691   2.807
32711W        W 1074  38.356  12.147   4.210
32712W        W 1075  36.010  37.536   2.707
32713W        W 1076  31.943   5.838   0.749
32714W        W 1077  41.446   2.812  14.306
32715W        W 1078  34.950  33.102   0.250
32716W        W 1079  43.982  36.928  13.521
32717W        W 1080  37.842   2.866   2.298
32718W        W 1081   9.281   2.747  12.001
32719W        W 1082   3.450  26.055   0.734
32720W        W 1083   3.949  25.675  11.943
32721W        W 1084   5.925  34.986   0.844
32722W        W 1085  20.201  39.357   1.278
32723W        W 1086   6.801  17.791  11.512
32724W        W 1087   4.291  35.990   0.434
32725W        W 1088  35.453  43.358  11.093
32726W        W 1089  40.445  13.609   1.928
32727W        W 1090  39.403  11.656   3.833
32728W        W 1091  10.299   2.893   0.378
32729W        W 1092  19.564  26.101  10.593
32730W        W 1093  35.407  20.047  11.374
32731W        W 1094  29.645  43.317  12.554
32732W        W 1095   2.463  37.959  11.050
32733W        W 1096  27.155  22.630  13.537
32734W        W 1097   8.877  30.965  12.442
32735W        W 1098  27.639  35.534   4.328
32736W        W 1099  32.059  18.245  10.024
32737W        W 1100   5.390  33.911   1.386
32738W        W 1101  25.493   5.368   1.734
32739W        W 1102  24.699  17.565  12.452
32740W        W 1103   8.802  10.869  13.023
32741W        W 1104   4.746   8.767   0.419
32742W        W 1105  25.201   0.831  10.562
32743W        W 1106  25.969  18.134   0.365
32744W        W 1107  10.742  36.395  14.352
32745W        W 1108  28.486  43.911  11.923
32746W        W 1109  28.048  43.831   2.767
32747W        W 1110   4.846  39.902  10.006
32748W        W 1111  25.684  33.507  13.448
32749W        W 1112  23.517  12.237  13.320
32750W        W 1113   2.360   9.704  13.948
32751W        W 1114   6.394   2.348   3.385
32752W        W 1115  24.570   9.876  10.928
32753W        W 1116  41.417  38.015  10.914
32754W        W 1117  20.052   5.748   4.783
32755W        W 1118  31.468  38.858   4.788
32756W        W 1119  25.026   0.825   3.317
32757W        W 1120  25.516   6.397   3.202
32758W        W 1121   4.303   1.382   0.932
32759W        W 1122  16.674  24.504   3.858
32760W        W 1123   1.742  12.192   0.434
32761W        W 1124  42.010  36.409  11.557
32762W        W 1125  23.679   5.892   1.801
32763W        W 1126  17.600   3.433   0.874
32764W        W 1127  43.899  44.403   0.335
32765W        W 1128  29.661  36.098   5.224
32766W        W 1129  13.704  42.371   0.413
32767W        W 1130  30.566  39.317   3.692
32768W        W 1131   1.886   3.788   4.622
32769W        W 1132  19.731   2.374  11.438
32770W        W 1133   6.403  20.641   2.750
32771W        W 1134  13.268  43.768   3.769
32772W        W 1135  10.688  35.031  13.829
32773W        W 1136  32.058   5.827   3.147
32774W        W 1137  19.145  13.341   0.443
32775W        W 1138  18.265  36.923   3.209
32776W        W 1139  41.449  29.493   0.462
32777W        W 1140  44.306  31.452  12.905
32778W        W 1141  36.991  43.790   1.770
32779W        W 1142  32.565  15.273  10.610
32780W        W 1143   3.430  19.229   3.680
32781W        W 1144  38.423  15.665   1.428
32782W        W 1145  23.660  14.215   1.447
32783W        W 1146  12.186  43.480  11.970
32784W        W 1147  20.678  39.361   4.313
32785W        W 1148  37.067   1.765  10.549
32786W        W 1149  16.600  25.578  11.090
32787W        W 1150  18.224  27.004   2.378
32788W        W 1151   7.239  34.550   4.165
32789W        W 1152  24.715  21.620   0.476
32790W        W 1153   8.793  33.472   0.395
32791W        W 1154   1.452  15.239   2.307
32792W        W 1155  39.031  18.169   2.741
32793W        W 1156  16.232  38.479  14.936
32794W        W 1157   4.753  26.499  13.501
32795W        W 1158  21.125  23.600  11.433
32796W        W 1159   8.339   8.886  12.838
32797W        W 1160   4.788  38.837  14.458
32798W        W 1161  17.070  27.606   4.267
32799W        W 1162  44.267  29.622  13.453
32800W        W 1163   7.854  41.519  12.015
32801W        W 1164  25.573   6.736  14.792
32802W        W 1165  29.032   7.267  10.632
32803W        W 1166  21.531  40.876   1.422
32804W        W 1167  13.265   1.315   0.467
32805W        W 1168  13.836  19.602  11.074
32806W        W 1169  41.409  43.511  12.839
32807W        W 1170  16.260  34.576   1.316
32808W        W 1171  15.668  34.392   0.834
32809W        W 1172  33.122   2.328  11.436
32810W        W 1173  34.889  14.309   1.428
32811W        W 1174   7.691  19.093  11.914
32812W        W 1175   3.761  36.397   1.276
32813W        W 1176  43.909  32.624  14.971
32814W        W 1177  15.785   9.818   1.791
32815W        W 1178  28.942  29.437  14.811
32816W        W 1179  20.173  32.967  14.505
32817W        W 1180  21.702  14.142  12.855
32818W        W 1181   9.773  30.580  10.421
32819W        W 1182  38.514  40.389   2.402
32820W        W 1183  22.523  39.984  14.804
32821W        W 1184  13.278  24.085  10.972
32822W        W 1185  19.156  32.926  10.518
32823W        W 1186  37.541  12.714  10.037
32824W        W 1187  22.132   5.281   4.599
32825W        W 1188  23.633  20.216  11.998
32826W        W 1189  27.587  36.931   2.722
32827W        W 1190   0.370   8.847  13.031
32828W        W 1191  39.361   5.200   3.171
32829W        W 1192  19.641  18.175  12.905
32830W        W 1193   1.787  43.020  14.014
32831W        W 1194  37.850  16.606  11.524
32832W        W 1195  11.353  32.504  11.985
32833W        W 1196  25.158   4.365   4.646
32834W        W 1197  37.943  24.124  11.907
32835W        W 1198  20.138  16.786   2.208
32836W        W 1199  20.584  11.742  14.017
32837W        W 1200  26.601   1.900  12.418
32838W        W 1201  21.661  41.319  12.345
32839W        W 1202  40.919  21.532  13.879
32840W        W 1203  34.075  41.791  14.918
32841W        W 1204   2.410  24.103   3.206
32842W        W 1205  17.642  43.408   2.235
32843W        W 1206  15.152  16.095   5.597
32844W        W 1207   3.806  13.107  11.611
32845W        W 1208   4.314  10.730   0.744
32846W        W 1209  25.515  18.155  10.616
32847W        W 1210  22.567  37.966  11.449
32848W        W 1211   9.277  22.519  13.418
32849W        W 1212  38.968  34.440   1.308
32850W        W 1213   9.825  37.949   4.761
32851W        W 1214  26.090   4.806  14.481
32852W        W 1215   2.885  30.114  11.086
32853W        W 1216  19.141   8.235   2.732
32854W        W 1217   7.395  18.764  12.833
32855W        W 1218   3.258  26.996  13.924
32856W        W 1219  33.490  30.958   0.901
32857W        W 1220  26.058  30.550   4.174
32858W        W 1221  16.684  35.971  12.876
32859W        W 1222   0.929  23.139   2.670
32860W        W 1223   2.805  33.382  11.105
32861W        W 1224  14.224  16.095   0.378
32862W        W 1225  43.970   0.793  12.354
32863W        W 1226  20.037  32.569  11.450
32864W        W 1227   9.192  29.579   1.265
32865W        W 1228   2.946  18.558   1.354
32866W        W 1229  41.963  17.171   3.239
32867W        W 1230  11.356  17.631  11.519
32868W        W 1231  20.093  25.165   1.389
32869W        W 1232  24.691   6.286  11.607
32870W        W 1233  10.801   8.738   3.766
32871W        W 1234   4.364  44.847  10.479
32872W        W 1235  40.500  19.164   2.769
32873W        W 1236  44.972  22.190  12.038
32874W        W 1237  17.273  29.444  11.501
32875W        W 1238   6.206  41.309   1.430
32876W        W 1239   1.738  23.523   4.833
32877W        W 1240  26.108   7.780  14.476
32878W        W 1241   2.855  26.168  14.853
32879W        W 1242   8.235  42.501   1.345
32880W        W 1243  11.714  18.682  12.913
32881W        W 1244  38.345  21.041   4.222
32882W        W 1245  40.375  37.379  14.413
32883W        W 1246  29.662  26.485   1.360
32884W        W 1247  12.722  38.383   0.367
32885W        W 1248  24.224  30.006  12.504
32886W        W 1249  22.024   0.386  14.462
32887W        W 1250  33.093  36.360  14.473
32888W        W 1251  35.911  42.838  10.478
32889W        W 1252  38.914  41.433  11.886
32890W        W 1253  33.949   0.292  10.910
32891W        W 1254  42.281   2.448   3.276
32892W        W 1255   0.750  40.053  10.509
32893W        W 1256   9.829  30.953  12.094
32894W        W 1257  30.908   5.770   9.990
32895W        W 1258  41.465   1.968  13.444
32896W        W 1259  10.714  31.418   2.727
32897W        W 1260  38.965  33.465   2.410
32898W        W 1261  29.146  39.007   1.316
32899W        W 1262  29.578  33.989  11.065
32900W        W 1263  27.627  42.999   4.832
32901W        W 1264  27.630   5.430  13.841
32902W        W 1265   7.177  30.413   4.212
32903W        W 1266  27.135   9.676   4.698
32904W        W 1267  25.967   0.865   0.843
32905W        W 1268  31.138  37.468   1.276
32906W        W 1269  18.104  39.468  11.948
32907W        W 1270  10.350   2.723   3.189
32908W        W 1271  10.670  16.597  10.424
32909W        W 1272  32.636  25.576   4.223
32910W        W 1273  10.652  14.668  14.853
32911W        W 1274  10.274  35.432   2.675
32912W        W 1275  22.600  16.298  14.760
32913W        W 1276  11.332   3.844  13.337
32914W        W 1277  15.297   0.486  10.994
32915W        W 1278  11.259  13.125   2.876
32916W        W 1279   1.809  13.703  13.517
32917W        W 1280   1.356  34.507   0.427
32918W        W 1281   1.803  33.584   4.765
32919W        W 1282  36.487  20.205   2.695
32920W        W 1283  14.684  33.980   2.747
32921W        W 1284  38.950   8.716   0.941
32922W        W 1285  15.753  26.542  14.786
32923W        W 1286  11.672  28.445  12.026
32924W        W 1287  38.898  12.701  10.957
32925W        W 1288  44.435   9.794   0.840
32926W        W 1289  44.484   8.311   1.317
32927W        W 1290  19.696  37.485   4.298
32928W        W 1291  44.977  38.958   2.871
32929W        W 1292  35.450   9.757  14.318
32930W        W 1293  19.139   9.381  11.441
32931W        W 1294   6.921  10.156   4.824
32932W        W 1295  32.574  41.511  12.874
32933W        W 1296  24.503  28.479  12.427
32934W        W 1297  20.089  34.038   1.383
32935W        W 1298  27.151  13.717  13.829
32936W        W 1299  25.002   5.890   3.225
32937W        W 1300   9.154  41.035  13.310
32938W        W 1301   7.328  11.835   2.248
32939W        W 1302   3.868   1.859   1.730
32940W        W 1303  37.884  25.182  11.989
32941W        W 1304   4.825  25.185   1.864
32942W        W 1305   8.732  32.554  12.961
32943W        W 1306  23.506  30.582  14.958
32944W        W 1307   1.339  21.228   5.264
32945W        W 1308  34.984  18.091  11.055
32946W        W 1309  31.636  24.696  11.906
32947W        W 1310  16.810  15.284   3.632
32948W        W 1311   6.375   4.832  14.885
32949W        W 1312  41.900  18.682   0.910
32950W        W 1313  14.257  34.583   4.686
32951W        W 1314  23.080  44.394   0.409
32952W        W 1315  41.417   5.387   4.786
32953W        W 1316  22.029  37.521   4.745
32954W        W 1317  41.470   7.350  11.048
32955W        W 1318  36.910  35.401   1.300
32956W        W 1319  28.079  42.374   3.168
32957W        W 1320  36.411  40.822  12.409
32958W        W 1321  19.209  29.093   3.698
32959W        W 1322  21.717   5.723  13.540
32960W        W 1323  15.145  21.608  10.970
32961W        W 1324  35.479  22.031  10.589
32962W        W 1325   8.882  22.102  14.993
32963W        W 1326  23.193  28.556  12.384
32964W        W 1327  19.039  21.200   0.258
32965W        W 1328  29.613  29.970   2.843
32966W        W 1329  26.179  43.457   3.308
32967W        W 1330  39.413  41.991  10.962
32968W        W 1331   0.767  16.259  12.429
32969W        W 1332  40.414  13.726  12.840
32970W        W 1333  40.027  44.408  11.910
32971W        W 1334  13.301  41.952  11.586
32972W        W 1335  39.886  37.436   4.763
32973W        W 1336  15.808   6.325   0.470
32974W        W 1337  30.054  37.361   3.672
32975W        W 1338  11.233  18.171  10.426
32976W        W 1339  25.034  21.034  10.412
32977W        W 1340  28.655  43.857   3.247
32978W        W 1341   9.689  38.924  14.026
32979W        W 1342  13.812  43.366   2.817
32980W        W 1343  33.455   5.274   3.855
32981W        W 1344  20.600  10.859  11.988
32982W        W 1345  35.011   7.213  14.947
32983W        W 1346  35.502  18.167   4.724
32984W        W 1347  35.056  30.482   0.450
32985W        W 1348  20.236  17.589  12.340
32986W        W 1349   1.856  40.969   2.380
32987W        W 1350  15.278   3.386   2.350
32988W        W 1351  14.237  34.420   0.827
32989W        W 1352  42.442  18.084  11.517
32990W        W 1353  36.435  42.018  11.516
32991W        W 1354   3.751  15.735  14.415
32992W        W 1355  26.168  34.460   3.683
32993W        W 1356  19.730  37.415   1.735
32994W        W 1357  43.935  40.503   1.343
32995W        W 1358   5.712  37.977  12.510
32996W        W 1359  31.984  32.424  14.972
32997W        W 1360   3.405  23.584   9.969
32998W        W 1361  16.586  37.036  10.976
32999W        W 1362   4.386  20.687   4.766
33000W        W 1363  21.695  15.210   0.834
33001W        W 1364  37.977  44.783  14.907
33002W        W 1365  25.024  32.067   0.750
33003W        W 1366  20.182   0.899  13.384
33004W        W 1367   9.707  18.195  12.833
33005W        W 1368  26.555   7.796   0.837
33006W        W 1369  22.160  38.928  12.846
33007W        W 1370  18.242  18.172  13.900
33008W        W 1371  20.715  10.221  14.786
33009W        W 1372   6.288  29.581   4.745
33010W        W 1373  37.051  15.105   1.393
33011W        W 1374  15.235  35.075   2.238
33012W        W 1375  29.039  32.396  10.607
33013W        W 1376  10.372  38.996  13.975
33014W        W 1377  20.150  25.010  11.401
33015W        W 1378   0.290  16.601  13.465
33016W        W 1379  21.202  38.407  14.412
33017W        W 1380   8.196  36.871   3.784
33018W        W 1381  42.938  29.148   3.344
33019W        W 1382  13.700  41.797   1.811
33020W        W 1383  25.987   1.425  13.429
33021W        W 1384   7.736  21.736  10.961
33022W        W 1385  16.725  18.222   1.815
33023W        W 1386  41.806   4.290   3.304
33024W        W 1387  23.126  19.597   5.086
33025W        W 1388  18.164  13.184   2.319
33026W        W 1389  22.725   4.731  13.795
33027W        W 1390  38.456  23.528   1.917
33028W        W 1391  21.165  12.810  11.881
33029W        W 1392  39.381   9.784  10.977
33030W        W 1393   5.920  43.900   2.692
33031W        W 1394   9.181  17.668   4.167
33032W        W 1395  34.109  34.391   2.829
33033W        W 1396  28.607  23.138   1.336
33034W        W 1397   3.853  30.099  13.958
33035W        W 1398  22.683   9.772   2.235
33036W        W 1399   2.370  27.976   0.730
33037W        W 1400   6.273  15.224  12.486
33038W        W 1401  39.401  29.116  13.839
33039W        W 1402  16.255  33.442  11.059
33040W        W 1403   4.810   4.837   1.738
33041W        W 1404  40.810  15.726  11.374
33042W        W 1405  35.493  35.502   2.293
33043W        W 1406  15.709  38.916   0.735
33044W        W 1407  22.181  16.103  13.948
33045W        W 1408  37.062  36.552  13.915
33046W        W 1409   6.426  42.884   0.771
33047W        W 1410   1.964  17.193  11.548
33048W        W 1411   9.195  32.057  12.848
33049W        W 1412  29.027  42.815   4.635
33050W        W 1413  30.158  17.627  14.480
33051W        W 1414  35.088  15.156  11.935
33052W        W 1415  43.910  32.970  11.950
33053W        W 1416  19.665  26.473   4.722
33054W        W 1417  39.834  43.352   3.662
33055W        W 1418  35.949  12.760  11.125
33056W        W 1419   6.693  36.915   2.879
33057W        W 1420  20.227  19.745   1.312
33058W        W 1421   7.339  25.643  11.885
33059W        W 1422  18.149  14.120  12.378
33060W        W 1423  15.138   1.828  14.843
33061W        W 1424  44.401  22.704   4.768
33062W        W 1425  22.592  21.567   0.805
33063W        W 1426  41.876   2.846   2.242
33064W        W 1427  32.513  34.460  14.397
33065W        W 1428  36.552   6.789  11.513
33066W        W 1429  35.918  10.668   2.748
33067W        W 1430  32.924  21.018  13.477
33068W        W 1431  40.544  24.609   2.743
33069W        W 1432  44.324  42.997  13.340
33070W        W 1433  27.952  40.000  11.067
33071W        W 1434  20.754  18.624   4.318
33072W        W 1435  40.968  30.413   0.277
33073W        W 1436  22.222  26.490  12.353
33074W        W 1437   6.378  29.526  13.536
33075W        W 1438  41.423   3.237   4.693
33076W        W 1439  44.986  36.038   9.482
33077W        W 1440  29.577  22.057  12.532
33078W        W 1441  30.043  10.297   0.854
33079W        W 1442  44.893  40.847   0.300
33080W        W 1443  15.154  15.141   4.740
33081W        W 1444  10.245  32.996   4.652
33082W        W 1445  15.227  14.742  13.535
33083W        W 1446  12.691  10.785  12.435
33084W        W 1447  22.711  19.051  14.810
33085W        W 1448  43.892  16.678  14.313
33086W        W 1449  11.861  38.939  11.098
33087W        W 1450   5.852  13.273   4.793
33088W        W 1451  34.423   8.326  11.861
33089W        W 1452   6.785  21.727   3.190
33090W        W 1453   5.339   2.263  14.818
33091W        W 1454   5.237  28.179   0.826
33092W        W 1455  20.698   5.196   3.639
33093W        W 1456  31.001  22.500  12.991
33094W        W 1457   6.217  38.979  11.946
33095W        W 1458  36.880  41.866  10.913
33096W        W 1459   2.375  26.541   2.720
33097W        W 1460  27.061  18.267   1.255
33098W        W 1461   8.842  29.919  12.559
33099W        W 1462  43.411  12.832  12.483
33100W        W 1463  22.131  17.217   1.358
33101W        W 1464  37.849  28.093   2.863
33102W        W 1465  12.703  42.857   0.352
33103W        W 1466  11.824   1.367   3.774
33104W        W 1467  32.564  39.450  13.892
33105W        W 1468   2.235  37.454  11.492
33106W        W 1469  16.169  38.978  10.070
33107W        W 1470  25.641  34.052  12.085
33108W        W 1471   9.766  11.797   2.289
33109W        W 1472  38.898  36.380   3.319
33110W        W 1473   3.455  24.076  12.886
33111W        W 1474   9.652   7.674   0.318
33112W        W 1475   5.221  11.867   3.867
33113W        W 1476  38.037  21.715   4.802
33114W        W 1477  20.155  28.115  12.007
33115W        W 1478  33.101  29.111   9.660
33116W        W 1479  41.881  42.481  12.014
33117W        W 1480  10.746  10.645   4.238
33118W        W 1481  30.570  31.004  14.454
33119W        W 1482  20.641  30.913  14.808
33120W        W 1483  25.505   6.758   3.745
33121W        W 1484   2.782   2.394  12.835
33122W        W 1485  35.457  11.332  10.916
33123W        W 1486  15.115  24.555   4.808
33124W        W 1487   6.275  41.884   2.345
33125W        W 1488  30.145  25.031  14.355
33126W        W 1489  33.024  22.072  13.424
33127W        W 1490   1.815  26.079   4.607
33128W        W 1491  40.916  26.650  11.117
33129W        W 1492  41.010  36.894   0.938
33130W        W 1493  32.527  26.616  12.930
33131W        W 1494   8.881  12.782  11.015
33132W        W 1495   7.312   5.273   4.728
33133W        W 1496  23.627   9.778   4.641
33134W        W 1497  15.612  35.496  11.086
33135W        W 1498  43.928  23.627   2.195
33136W        W 1499  36.444  35.456   0.875
33137W        W 1500  44.288  22.142  13.966
33138W        W 1501  43.802  12.712   2.677
33139W        W 1502  22.555  16.633   4.321
33140W        W 1503  15.277  18.056  13.508
33141W        W 1504  35.456  32.012   3.832
33142W        W 1505  17.095   3.401  14.838
33143W        W 1506  12.838  42.003  13.859
33144W        W 1507  18.610  12.255   3.763
33145W        W 1508   4.916  11.649  13.972
33146W        W 1509  13.145  20.687   0.418
33147W        W 1510   7.406   4.259   2.408
33148W        W 1511  27.447  43.865   0.799
33149W        W 1512  11.797   5.812   0.740
33150W        W 1513   4.345  29.636   4.198
33151W        W 1514  37.957  43.924   1.227
33152W        W 1515  15.615  33.553  13.376
33153W        W 1516  39.544   8.377   4.216
33154W        W 1517  42.913  40.422  12.080
33155W        W 1518  43.823  39.919   2.288
33156W        W 1519  43.814  35.439  13.335
33157W        W 1520  11.727  35.415  11.973
33158W        W 1521  24.542  41.415   0.887
33159W        W 1522   9.652  19.082  12.899
33160W        W 1523  10.667   8.770   1.311
33161W        W 1524   6.404  18.189  10.590
33162W        W 1525  32.976   6.344   4.774
33163W        W 1526  27.495  10.796  11.579
33164W        W 1527   2.292   7.308   1.410
33165W        W 1528  34.872  23.721  10.923
33166W        W 1529  39.970  28.461   4.232
33167W        W 1530   5.276  13.221  12.503
33168W        W 1531  20.763  33.432   1.259
33169W        W 1532  14.286  26.510   5.151
33170W        W 1533  36.593  33.086   4.343
33171W        W 1534  21.614  25.645  12.853
33172W        W 1535  20.210  40.015  12.892
33173W        W 1536   0.796  10.816  12.891
33174W        W 1537   0.292  41.413   0.924
33175W        W 1538   5.743   2.931   3.860
33176W        W 1539  38.957  36.912   3.829
33177W        W 1540  39.872  33.442  11.866
33178W        W 1541  17.778  21.205  13.451
33179W        W 1542  10.867  14.776  12.523
33180W        W 1543  24.611   5.234  10.976
33181W        W 1544  40.345  13.678   3.187
33182W        W 1545  40.548  22.604   0.466
33183W        W 1546   5.425  13.656  10.913
33184W        W 1547  16.648  18.706   2.878
33185W        W 1548  17.734  30.011   4.229
33186W        W 1549  31.638   6.223  10.419
33187W        W 1550  14.266  18.164   2.339
33188W        W 1551  31.625  21.714   3.304
33189W        W 1552   8.704  28.006   0.286
33190W        W 1553  37.508   8.832   0.787
33191W        W 1554  16.267   3.940   1.910
33192W        W 1555   8.349   9.235   1.333
33193W        W 1556   5.709  40.468   4.685
33194W        W 1557  19.087   2.429  12.959
33195W        W 1558   7.264  30.477  12.079
33196W        W 1559  14.816  28.520   0.758
33197W        W 1560   5.306  42.500  14.294
33198W        W 1561  36.922  10.869   9.477
33199W        W 1562  15.113  39.897  11.027
33200W        W 1563  13.200  16.737   1.804
33201W        W 1564   7.769  17.070  14.839
33202W        W 1565  38.892  33.876  14.299
33203W        W 1566  11.678  32.891  11.542
33204W        W 1567  22.203   4.377   2.896
33205W        W 1568  33.540  18.235  13.820
33206W        W 1569  21.606  29.520   1.718
33207W        W 1570  18.212  44.768   3.178
33208W        W 1571   9.336  28.520  11.928
33209W        W 1572  27.643  23.006  12.550
33210W        W 1573  12.726  20.234   4.607
33211W        W 1574   2.899   0.255   3.332
33212W        W 1575  36.944  31.547  14.459
33213W        W 1576  14.817  28.587  12.513
33214W        W 1577  39.483  31.421  11.531
33215W        W 1578  35.089  18.646  11.935
33216W        W 1579  31.046   0.885  11.120
33217W        W 1580  11.703  35.471  11.575
33218W        W 1581  29.556   8.812  13.393
33219W        W 1582   6.302  34.900  10.889
33220W        W 1583  39.381  41.534  12.522
33221W        W 1584  14.796  16.083  12.523
33222W        W 1585  36.534   7.197   0.866
33223W        W 1586  23.565  42.489   0.938
33224W        W 1587  37.976   0.313  12.368
33225W        W 1588  28.446  36.024   1.312
33226W        W 1589  26.646   2.320   4.743
33227W        W 1590  37.877   3.937  11.392
33228W        W 1591  32.427  29.583   5.620
33229W        W 1592  36.051   1.743  13.508
33230W        W 1593  44.824   1.280  12.395
33231W        W 1594  34.524  11.283   4.712
33232W        W 1595   1.436   0.494  10.631
33233W        W 1596  19.562  38.014   0.300
33234W        W 1597  38.887  42.513   3.632
33235W        W 1598  44.921   7.859   3.207
33236W        W 1599   5.805  13.261   3.740
33237W        W 1600  13.164  12.789  14.783
33238W        W 1601  40.890   3.789   3.748
33239W        W 1602  15.260  34.060  14.008
33240W        W 1603  12.170  28.067  12.972
33241W        W 1604   1.357  22.086   2.241
33242W        W 1605  35.554  16.705   1.340
33243W        W 1606  44.316   9.869   2.869
33244W        W 1607  29.104   6.806   2.361
33245W        W 1608  36.425  42.000   2.720
33246W        W 1609  34.120  19.764   3.843
33247W        W 1610  11.855  20.232  11.106
33248W        W 1611  13.218  24.487   3.794
33249W        W 1612  29.628  13.781   2.720
33250W        W 1613  22.726  28.009   3.311
33251W        W 1614  37.370  34.904   1.922
33252W        W 1615  40.414  10.239   3.286
33253W        W 1616  24.148  17.782   4.668
33254W        W 1617  25.099  44.290   3.850
33255W        W 1618  15.144  11.319   3.658
33256W        W 1619  11.174  37.889   3.719
33257W        W 1620  43.904  38.908  11.484
33258W        W 1621  18.701  42.781  13.349
33259W        W 1622  34.459  34.085  13.931
33260W        W 1623  25.700   1.744   3.204
33261W        W 1624  22.219   0.376  11.443
33262W        W 1625  34.562   6.317  14.774
33263W        W 1626  24.590  14.190  14.968
33264W        W 1627  11.847   7.754  13.548
33265W        W 1628   0.807  31.016   0.776
33266W        W 1629  29.979  21.613  11.469
33267W        W 1630  38.929  22.158  10.100
33268W        W 1631   6.766  35.107  12.077
33269W        W 1632  39.061  13.811  11.075
33270W        W 1633  22.710  34.055   3.713
33271W        W 1634   7.190  42.986  13.914
33272W        W 1635  38.975   1.747   1.434
33273W        W 1636  43.996   2.279   3.222
33274W        W 1637  44.385  17.149   2.711
33275W        W 1638  25.099  11.852   1.338
33276W        W 1639  39.868  17.591  10.983
33277W        W 1640  37.891  23.500   3.809
33278W        W 1641  29.585  24.132   0.337
33279W        W 1642  15.088  37.517  10.624
33280W        W 1643   9.235  32.896  11.889
33281W        W 1644  23.631   9.230   2.231
33282W        W 1645  42.501  25.553  11.076
33283W        W 1646  44.906  38.966  11.119
33284W        W 1647  14.650  32.483  13.488
33285W        W 1648  24.039  24.109  10.442
33286W        W 1649   7.310  21.209   1.405
33287W        W 1650  34.880  38.971   1.715
33288W        W 1651   9.288  22.627   1.215
33289W        W 1652  43.884  16.300  13.475
33290W        W 1653  26.698  35.935  11.922
33291W        W 1654  31.037  32.994   2.376
33292W        W 1655  28.449  37.018   4.183
33293W        W 1656  25.543  18.618  10.929
33294W        W 1657  32.048  14.755   5.239
33295W        W 1658  32.069  27.574   3.269
33296W        W 1659  13.619  20.040  10.408
33297W        W 1660  32.523  41.039  13.869
33298W        W 1661  29.607  10.319   4.301
33299W        W 1662  38.435  35.951  10.466
33300W        W 1663  15.795   7.858  10.573
33301W        W 1664  11.634  15.675   1.915
33302W        W 1665  13.647   3.351  14.432
33303W        W 1666  15.689  15.673   5.322
33304W        W 1667  20.165  25.495   3.634
33305W        W 1668   3.315   8.163   3.323
33306W        W 1669  34.456  24.564  13.824
33307W        W 1670   6.214  33.120  14.806
33308W        W 1671  17.597  28.613   2.882
33309W        W 1672  35.488  17.092  13.044
33310W        W 1673  19.076  37.050  11.521
33311W        W 1674  33.391   5.864  11.059
33312W        W 1675  32.983  33.391   0.449
33313W        W 1676   0.472  39.497  12.492
33314W        W 1677   3.861  26.053   1.305
33315W        W 1678  43.903  22.229   2.744
33316W        W 1679  31.969   0.306  12.061
33317W        W 1680  42.858  35.916   5.294
33318W        W 1681  38.418   9.743   5.271
33319W        W 1682  36.040  32.634   3.633
33320W        W 1683   1.900  13.822  13.880
33321W        W 1684  14.694  27.480  11.379
33322W        W 1685  43.352  29.118   1.700
33323W        W 1686   6.709   6.290   3.320
33324W        W 1687  13.812  44.386   4.269
33325W        W 1688   0.373   2.427   0.735
33326W        W 1689  29.974  30.976   1.335
33327W        W 1690  23.079  30.593  10.938
33328W        W 1691  33.066  16.246  11.952
33329W        W 1692  40.854   1.917  11.022
33330W        W 1693  31.082   5.335   4.668
33331W        W 1694  39.815  40.456   0.876
33332W        W 1695   3.346   9.303   4.683
33333W        W 1696  42.890  37.507   4.728
33334W        W 1697  29.957  34.595   0.825
33335W        W 1698  44.303  17.722   2.865
33336W        W 1699  11.707  33.998  10.085
33337W        W 1700  40.028  17.170   4.704
33338W        W 1701  14.183  14.589   4.831
33339W        W 1702  43.348   9.808   1.343
33340W        W 1703  26.196  32.951   3.218
33341W        W 1704  13.285   5.775  12.396
33342W        W 1705  28.568  24.993  14.331
33343W        W 1706  41.362  27.988   1.214
33344W        W 1707  11.634  10.336   5.098
33345W        W 1708  15.212  17.238  10.918
33346W        W 1709  30.457   3.872  13.029
33347W        W 1710  40.890  16.752   4.196
33348W        W 1711  32.116   3.309  13.328
33349W        W 1712   1.764   9.174   4.258
33350W        W 1713  10.322  24.539   3.148
33351W        W 1714   4.393  37.923  11.461
33352W        W 1715   6.296  17.679   3.349
33353W        W 1716  28.133   7.402  13.835
33354W        W 1717   3.932  38.900   9.942
33355W        W 1718  43.900  23.001   4.688
33356W        W 1719   2.351   6.802   2.853
33357W        W 1720  27.615  16.253  11.464
33358W        W 1721   4.432  28.479   1.911
33359W        W 1722  42.438  21.585   2.693
33360W        W 1723  13.666  15.105   0.948
33361W        W 1724  26.693   9.877  11.578
33362W        W 1725  40.472  36.013  14.834
33363W        W 1726  34.407  12.323  11.982
33364W        W 1727  38.982  19.576   4.241
33365W        W 1728  31.967  23.063  11.424
33366W        W 1729   9.803  15.626  14.857
33367W        W 1730  37.359  18.290  14.390
33368W        W 1731  30.547   0.347   4.169
33369W        W 1732  21.663  10.238   0.263
33370W        W 1733  41.969  26.665  11.884
33371W        W 1734  29.991  12.618  14.955
33372W        W 1735  13.212  37.082  10.508
33373W        W 1736   0.786   0.450   0.951
33374W        W 1737   4.449  30.613   2.728
33375W        W 1738  14.623   5.769   1.315
33376W        W 1739  30.934  21.729   4.727
33377W        W 1740  29.173  10.207  12.487
33378W        W 1741   8.675  37.003   4.282
33379W        W 1742  44.469  18.234  13.390
33380W        W 1743   9.852   0.841   1.920
33381W        W 1744  37.401   3.274  14.914
33382W        W 1745  38.012   8.804   0.303
33383W        W 1746  43.957  36.884   1.906
33384W        W 1747   1.970  42.852  14.992
33385W        W 1748  33.455   1.913   5.638
33386W        W 1749  27.955  13.630   9.971
33387W        W 1750  36.911   7.841  10.459
33388W        W 1751  10.366  26.490   4.836
33389W        W 1752  30.972  30.610  14.908
33390W        W 1753   3.821  44.986   0.876
33391W        W 1754  37.422  11.864   2.384
33392W        W 1755  24.092   0.981  11.396
33393W        W 1756  42.410  43.987  12.549
33394W        W 1757  43.957  28.153  10.529
33395W        W 1758  12.143   2.867   3.856
33396W        W 1759  33.480  43.786   2.331
33397W        W 1760  32.613  43.817  12.029
33398W        W 1761   4.815  40.810   1.216
33399W        W 1762   3.239  38.402   1.273
33400W        W 1763  39.521  28.556  12.940
33401W        W 1764  12.354  14.615  12.470
33402W        W 1765  10.317  40.020   3.847
33403W        W 1766   6.401  42.382  11.925
33404W        W 1767  18.581   6.750   1.282
33405W        W 1768  26.975  34.508  13.992
33406W        W 1769  12.244  27.016  12.472
33407W        W 1770   3.460   2.436   2.193
33408W        W 1771  16.313   7.899   1.259
33409W        W 1772  10.370  14.722   3.656
33410W        W 1773  33.460   9.388  12.403
33411W        W 1774  25.658  27.176   2.815
33412W        W 1775  34.479  14.607  11.510
33413W        W 1776  20.210   4.796  11.539
33414W        W 1777  12.643  13.739   4.688
33415W        W 1778  16.789  43.865  12.923
33416W        W 1779  25.013  41.034   0.828
33417W        W 1780   2.765  36.070   1.343
33418W        W 1781  32.972  24.091  14.289
33419W        W 1782  42.819  26.508  10.147
33420W        W 1783  26.485  18.602  13.049
33421W        W 1784   9.763  16.674   4.337
33422W        W 1785  40.443  36.499  14.326
33423W        W 1786   3.217   5.253   2.683
33424W        W 1787  19.608  33.009  11.599
33425W        W 1788  19.043   2.400  11.973
33426W        W 1789  26.198  42.940   0.744
33427W        W 1790   0.907  29.580  13.453
33428W        W 1791  30.432   1.422   0.828
33429W        W 1792  11.708  24.626   2.706
33430W        W 1793  32.625   0.386   1.703
33431W        W 1794  26.200  43.809  10.549
33432W        W 1795  34.556  14.656   2.769
33433W        W 1796   9.643   8.389  12.369
33434W        W 1797  36.937   6.803   0.292
33435W        W 1798   7.879  28.616  14.930
33436W        W 1799   6.386  42.489  13.848
33437W        W 1800  27.959  36.362  14.962
33438W        W 1801  38.562  19.680   3.203
33439W        W 1802  44.317  14.123   0.913
33440W        W 1803  21.197   2.737  10.899
33441W        W 1804   5.784  15.581   2.692
33442W        W 1805   8.857  43.958   3.740
33443W        W 1806  10.142  27.661   1.926
33444W        W 1807   3.224  17.102  12.546
33445W        W 1808  19.225  34.108  11.422
33446W        W 1809  44.852  38.535   4.750
33447W        W 1810  44.801  28.972   1.860
33448W        W 1811  12.169  16.245   2.725
33449W        W 1812  11.779  43.803  13.830
33450W        W 1813  31.002  38.433   0.941
33451W        W 1814  13.273  28.110   3.644
33452W        W 1815  29.155  30.505  13.791
33453W        W 1816  38.956  42.976   3.213
33454W        W 1817  16.159  24.198   1.272
33455W        W 1818  43.472  30.034  11.118
33456W        W 1819  22.728  43.893  10.006
33457W        W 1820  15.759  36.480   3.382
33458W        W 1821   8.265   3.418   2.786
33459W        W 1822  21.599  32.936   2.717
33460W        W 1823  16.806   1.291   0.835
33461W        W 1824  16.200  11.763   0.398
33462W        W 1825  34.997  20.666   3.156
33463W        W 1826  13.115  14.198   5.216
33464W        W 1827  18.104  14.324  14.843
33465W        W 1828  37.515   2.768   2.363
33466W        W 1829   4.253   8.783   3.247
33467W        W 1830  26.999  15.587   9.930
33468W        W 1831  43.935   1.278  13.032
33469W        W 1832   5.913  27.558  10.626
33470W        W 1833  21.045  27.052  12.533
33471W        W 1834   5.793  19.777   3.839
33472W        W 1835  35.939  20.087   2.835
33473W        W 1836  26.580   4.727  12.095
33474W        W 1837  42.782  23.516   3.704
33475W        W 1838   4.330   6.687  11.407
33476W        W 1839   7.845  40.439  14.770
33477W        W 1840   5.781  34.985  12.358
33478W        W 1841   2.453  31.095  10.555
33479W        W 1842   6.793  33.956  11.477
33480W        W 1843  21.603  44.945  11.008
33481W        W 1844   7.187  10.380  13.896
33482W        W 1845  16.310  18.722   9.601
33483W        W 1846  18.754  35.556   4.299
33484W        W 1847  14.810   9.273  11.866
33485W        W 1848  10.152   1.322   2.667
33486W        W 1849  35.076  40.542   0.772
33487W        W 1850  44.846  15.784  14.762
33488W        W 1851  25.680  31.641   1.923
33489W        W 1852  44.382  43.980   3.857
33490W        W 1853   1.328   7.672   2.860
33491W        W 1854  25.096  36.936  10.468
33492W        W 1855   0.384   1.237  13.930
33493W        W 1856  18.602  19.638   4.771
33494W        W 1857  39.448  29.951  14.762
33495W        W 1858  10.878  38.486  13.429
33496W        W 1859  24.668   6.885   0.307
33497W        W 1860  17.134  39.890  10.079
33498W        W 1861   8.719   5.840  10.434
33499W        W 1862  13.776  32.909   4.328
33500W        W 1863   1.374  21.106  12.885
33501W        W 1864  30.518  10.197  11.492
33502W        W 1865  41.980  40.471   4.139
33503W        W 1866  30.465  27.182  12.532
33504W        W 1867   2.752  10.857   4.253
33505W        W 1868  24.610  20.525  14.825
33506W        W 1869   5.734  43.401  12.861
33507W        W 1870  41.509  38.855   4.213
33508W        W 1871  11.809   0.941  13.910
33509W        W 1872  43.992  12.698   1.910
33510W        W 1873  10.748  32.550   0.286
33511W        W 1874  24.692  16.733   1.224
33512W        W 1875  27.007   7.736   0.253
33513W        W 1876   5.928  37.831  13.818
33514W        W 1877   4.764  44.828   1.755
33515W        W 1878  44.838  15.746   0.921
33516W        W 1879  19.726  39.394   1.840
33517W        W 1880  22.096   1.861  11.092
33518W        W 1881  43.766  31.497  10.925
33519W        W 1882  38.879  26.626  10.999
33520W        W 1883  26.131  14.112   5.172
33521W        W 1884  18.229  24.701  10.462
33522W        W 1885   5.723  20.137   3.845
33523W        W 1886   9.268  40.424   3.210
33524W        W 1887  10.838  44.966   1.283
33525W        W 1888  26.120  14.213  12.946
33526W        W 1889  39.447   1.285  10.443
33527W        W 1890  16.269  27.994   4.300
33528W        W 1891  11.829  14.615  13.814
33529W        W 1892  18.275  36.544  14.495
33530W        W 1893  35.531   3.235   3.703
33531W        W 1894  40.880  29.582  12.421
33532W        W 1895  13.340   8.329  12.958
33533W        W 1896  19.549  40.540   0.261
33534W        W 1897  37.080  14.111  13.012
33535W        W 1898  18.586  36.539   0.900
33536W        W 1899  37.383  43.872   9.930
33537W        W 1900  30.962   2.820  10.905
33538W        W 1901   7.684   5.273  10.499
33539W        W 1902  13.327  32.996  14.491
33540W        W 1903  23.138   6.736   3.262
33541W        W 1904   7.669   7.877  12.384
33542W        W 1905  36.403  20.146   4.708
33543W        W 1906  16.578  44.262   2.367
33544W        W 1907  44.971  31.072  14.416
33545W        W 1908  23.105  26.665  13.836
33546W        W 1909   0.963  35.434  14.510
33547W        W 1910  39.831   8.278  10.554
33548W        W 1911   3.933   7.183  11.027
33549W        W 1912  21.232  15.294   2.673
33550W        W 1913  10.831  23.237   0.886
33551W        W 1914  20.252  43.899  11.435
33552W        W 1915  31.409  36.095   1.307
33553W        W 1916  32.481  18.129  11.494
33554W        W 1917  19.244  24.053  14.912
33555W        W 1918   9.705  37.399  12.885
33556W        W 1919   5.332  32.978   1.699
33557W        W 1920   8.751  42.818   0.403
33558W        W 1921  21.611  26.038   4.696
33559W        W 1922  27.000  35.496   3.835
33560W        W 1923  35.948  33.415   4.725
33561W        W 1924   2.764  32.118   2.700
33562W        W 1925  10.267   0.759   3.799
33563W        W 1926  12.289  31.115   1.879
33564W        W 1927   8.896   1.972  11.983
33565W        W 1928  40.951  39.908   4.169
33566W        W 1929  24.133  34.000   2.859
33567W        W 1930  24.574  36.395  14.824
33568W        W 1931  15.240   2.472  13.911
33569W        W 1932   8.197  29.436   0.296
33570W        W 1933   4.396  37.516  13.529
33571W        W 1934  41.434  32.400   3.202
33572W        W 1935   4.889   1.382  10.436
33573W        W 1936  37.346  31.903  13.822
33574W        W 1937   6.869  22.129  12.547
33575W        W 1938  41.005  29.045  14.793
33576W        W 1939   3.890  27.038   4.644
33577W        W 1940   6.214  23.558   0.818
33578W        W 1941  32.061   8.838  12.416
33579W        W 1942  11.267  32.572  13.010
33580W        W 1943  12.672  44.860  13.813
33581W        W 1944  14.251  21.593   2.692
33582W        W 1945  32.905  36.401   4.213
33583W        W 1946  30.576  29.669   4.597
33584W        W 1947  38.382  22.504   0.879
33585W        W 1948  24.537  42.997   2.251
33586W        W 1949  35.399  36.585   4.714
33587W        W 1950  36.375  42.415  13.899
33588W        W 1951  17.710  33.579  11.987
33589W        W 1952  39.920   9.744  13.821
33590W        W 1953  44.005  17.133   4.303
33591W        W 1954   2.848  20.172  13.809
33592W        W 1955  44.434  33.406   4.335
33593W        W 1956  29.132   3.818  14.963
33594W        W 1957  23.498   0.861   1.451
33595W        W 1958  27.961  15.752  11.453
33596W        W 1959  16.727   2.230  10.451
33597W        W 1960  25.673  30.559   5.188
33598W        W 1961   2.875  30.040   4.677
33599W        W 1962  36.070  35.052   4.691
33600W        W 1963  27.603  32.031   1.407
33601W        W 1964  35.407  12.797  13.380
33602W        W 1965  13.107  13.290   4.648
33603W        W 1966  30.417   2.951   2.755
33604W        W 1967  17.153   9.373   0.292
33605W        W 1968  14.220  31.592  12.529
33606W        W 1969  14.223  12.672  10.947
33607W        W 1970  40.494  33.903  14.505
33608W        W 1971  18.164   6.855  12.878
33609W        W 1972  39.838  11.677  13.428
33610W        W 1973  42.910  44.429   3.851
33611W        W 1974  31.589  26.576  13.366
33612W        W 1975   6.307  41.436   3.647
33613W        W 1976  17.768  42.481   4.305
33614W        W 1977  39.402  36.967   0.302
33615W        W 1978  24.015   8.797   0.793
33616W        W 1979  18.055   4.402   1.310
33617W        W 1980   4.816  14.188  10.923
33618W        W 1981  30.429  25.137  13.518
33619W        W 1982  22.554  19.534   1.804
33620W        W 1983  26.155   0.931  14.350
33621W        W 1984  21.577   3.787  11.406
33622W        W 1985   9.768  34.105  14.980
33623W        W 1986  37.400  28.938  14.883
33624W        W 1987  22.667   6.826  12.036
33625W        W 1988  35.071  17.671   0.823
33626W        W 1989  27.618  17.121  12.044
33627W        W 1990   0.763  21.619  13.848
33628W        W 1991  23.710  18.293   0.455
33629W        W 1992  26.163  26.011  11.599
33630W        W 1993  12.337  24.002  11.498
33631W        W 1994   7.273   6.249   1.414
33632W        W 1995  14.129  37.366  10.640
33633W        W 1996   2.279  20.530   2.699
33634W        W 1997   5.222  26.624  11.887
33635W        W 1998  31.496   9.392   0.320
33636W        W 1999   1.736  22.658   0.868
33637W        W 2000   2.389  38.075   1.325
33638W        W 2001  33.001  38.542  12.580
33639W        W 2002  41.340   1.272  13.946
33640W        W 2003   3.827  40.488  11.499
33641W        W 2004  27.526  34.453   2.260
33642W        W 2005  31.550  17.292   0.434
33643W        W 2006  21.727  20.664  13.547
33644W        W 2007  14.818  43.367   3.158
33645W        W 2008  15.251  15.588   4.254
33646W        W 2009  30.081  36.939   4.138
33647W        W 2010  16.140   3.418   1.746
33648W        W 2011  13.336  34.530  12.839
33649W        W 2012   5.251   0.873  13.488
33650W        W 2013  41.441   6.291   4.794
33651W        W 2014  10.150  16.308  12.985
33652W        W 2015   4.332  30.555   4.178
33653W        W 2016  22.606   2.792  12.842
33654W        W 2017  17.139  19.596  13.455
33655W        W 2018  24.640   2.759  12.873
33656W        W 2019  35.977   3.947   2.416
33657W        W 2020  28.985  13.699   3.201
33658W        W 2021  39.027  10.858  14.025
33659W        W 2022  34.486  17.218  11.883
33660W        W 2023  22.997  27.943   1.796
33661W        W 2024  18.728   9.823   1.410
33662W        W 2025   2.383   4.271   4.190
33663W        W 2026  33.116  25.485   0.750
33664W        W 2027   4.372  12.614   4.140
33665W        W 2028  25.516  11.654  12.428
33666W        W 2029  19.201  30.946   1.450
33667W        W 2030  21.166  36.090   9.966
33668W        W 2031  29.516  37.002   1.338
33669W        W 2032  38.889   4.863  14.838
33670W        W 2033  27.947  27.018  12.927
33671W        W 2034   7.352  19.207  14.829
33672W        W 2035  15.204  43.819   3.304
33673W        W 2036   1.853  28.511  13.410
33674W        W 2037  44.386   7.225   5.287
33675W        W 2038  27.591  27.677  14.503
33676W        W 2039  10.672  34.054  13.936
33677W        W 2040   3.409  17.768   4.732
33678W        W 2041  23.708   1.340   2.352
33679W        W 2042   8.403  34.522  10.629
33680W        W 2043  11.154  44.441  13.937
33681W        W 2044   5.817   3.929  10.482
33682W        W 2045  31.070  25.552   3.223
33683W        W 2046   6.412  24.130  10.477
33684W        W 2047  37.522  42.787  13.048
33685W        W 2048  33.997  25.520  14.887
33686W        W 2049   8.183  37.905   0.391
33687W        W 2050  37.407  39.390  12.073
33688W        W 2051   2.378  33.049  10.978
33689W        W 2052   6.204  19.275  12.843
33690W        W 2053  17.307  25.565   2.308
33691W        W 2054  15.295  11.701  11.015
33692W        W 2055   0.389  44.879   3.691
33693W        W 2056  20.730  37.438  11.487
33694W        W 2057  34.460  18.777  11.559
33695W        W 2058   9.744   8.382  14.977
33696W        W 2059  22.093  41.413   2.867
33697W        W 2060  32.396  44.986   3.763
33698W        W 2061  22.679  11.301   4.832
33699W        W 2062  26.527  16.239  12.047
33700W        W 2063  15.610  30.071   0.856
33701W        W 2064  19.687  15.759   2.289
33702W        W 2065  12.162   3.850   4.649
33703W        W 2066  21.734  11.192   4.303
33704W        W 2067  25.666   4.740  10.584
33705W        W 2068   3.240  11.238  11.904
33706W        W 2069  21.580  25.538   1.786
33707W        W 2070  27.010  42.336   3.221
33708W        W 2071  18.111  17.294  11.868
33709W        W 2072  13.654  11.312   0.406
33710W        W 2073  30.419  24.604  14.436
33711W        W 2074  21.232  14.739  11.383
33712W        W 2075  42.511  36.468   0.891
33713W        W 2076  26.643  27.993  11.477
33714W        W 2077  16.312   4.870   2.892
33715W        W 2078  31.517   2.866  14.853
33716W        W 2079   2.960  40.449  13.904
33717W        W 2080  40.907  44.423  13.308
33718W        W 2081  43.292   8.403  12.074
33719W        W 2082  32.069  40.977   2.901
33720W        W 2083  11.861   5.338   3.227
33721W        W 2084   8.403   2.305  11.521
33722W        W 2085  29.009  12.848   2.235
33723W        W 2086  29.063  30.991  12.938
33724W        W 2087   3.424   3.887  14.421
33725W        W 2088  33.455  37.446  13.923
33726W        W 2089  16.305   6.877  13.540
33727W        W 2090  24.221  21.688  12.978
33728W        W 2091   8.324   6.922  13.829
33729W        W 2092  18.732  13.110  10.591
33730W        W 2093  12.815  44.499   2.249
33731W        W 2094  12.208  16.621   3.228
33732W        W 2095  20.558   3.816  10.548
33733W        W 2096  30.014   9.791  14.328
33734W        W 2097  29.106  40.838  14.307
33735W        W 2098  34.468  10.824   3.175
33736W        W 2099  36.849  38.398  14.443
33737W        W 2100  34.917  25.204   2.298
33738W        W 2101  22.560   0.988   0.784
33739W        W 2102   3.892  12.755  14.393
33740W        W 2103  12.232   4.223   4.764
33741W        W 2104  19.210  13.297   3.751
33742W        W 2105   1.354  22.060   3.714
33743W        W 2106  10.373   3.826   2.405
33744W        W 2107  33.887  22.108  11.116
33745W        W 2108  10.339  39.466  10.628
33746W        W 2109   6.831   1.902   4.829
33747W        W 2110   6.874  43.765   1.313
33748W        W 2111  36.593  24.522   0.330
33749W        W 2112  31.508  27.098   3.310
33750W        W 2113  19.204   6.741   3.722
33751W        W 2114   4.823  21.082   2.851
33752W        W 2115  11.748  44.925  11.380
33753W        W 2116  18.708  15.303  12.389
33754W        W 2117  43.876  37.441   1.262
33755W        W 2118  21.601  19.557  10.566
33756W        W 2119   3.284  39.315   3.231
33757W        W 2120  42.903  24.017   1.372
33758W        W 2121  27.170  18.616  10.498
33759W        W 2122  41.012  34.112  14.333
33760W        W 2123  32.587  13.326   3.844
33761W        W 2124   1.344  12.668   3.311
33762W        W 2125   4.825  39.830   0.947
33763W        W 2126   2.470  23.623  10.454
33764W        W 2127  23.494  40.522  14.347
33765W        W 2128   0.828  25.470  13.333
33766W        W 2129  42.348   0.751  11.488
33767W        W 2130  43.928  40.006  13.508
33768W        W 2131  13.774   1.438   3.835
33769W        W 2132  22.723   1.846  11.865
33770W        W 2133  36.558  39.403   1.796
33771W        W 2134  44.266  38.437  11.892
33772W        W 2135  34.938  29.924   3.862
33773W        W 2136   2.472   3.308  13.470
33774W        W 2137  42.784   9.777   0.369
33775W        W 2138  17.725  24.493   4.115
33776W        W 2139  15.141  11.742   0.914
33777W        W 2140   5.736  21.546  13.892
33778W        W 2141  25.184   0.363   0.763
33779W        W 2142   7.342  28.656  13.948
33780W        W 2143   5.327  40.921  13.409
33781W        W 2144  28.642  41.536   1.721
33782W        W 2145  15.807  25.565  11.103
33783W        W 2146  41.335  42.862   9.986
33784W        W 2147   5.293  27.132  11.434
33785W        W 2148  34.022  44.759   1.741
33786W        W 2149  32.125  40.390  13.389
33787W        W 2150   2.334   4.348  11.112
33788W        W 2151  39.056  43.431  13.959
33789W        W 2152   9.318   7.795   2.748
33790W        W 2153  28.624  30.960  10.623
33791W        W 2154  11.306  37.068  11.465
33792W        W 2155  32.101   2.401   2.796
33793W        W 2156  33.924   0.829  11.906
33794W        W 2157  16.715  40.352  11.995
33795W        W 2158  25.012  34.026   4.287
33796W        W 2159  10.779   3.277  14.505
33797W        W 2160  10.754   5.323  11.465
33798W        W 2161   0.421  37.895   4.119
33799W        W 2162  13.767  34.589   4.290
33800W        W 2163   0.450  41.965  10.498
33801W        W 2164  26.951  18.058   2.766
33802W        W 2165  20.670  26.194  11.532
33803W        W 2166  39.824   1.420   3.754
33804W        W 2167  39.957   6.214  10.990
33805W        W 2168  44.000   9.320   2.818
33806W        W 2169  44.788  41.809  14.921
33807W        W 2170   8.661  39.902  12.832
33808W        W 2171  14.667  11.351  10.575
33809W        W 2172   0.931  20.630  13.450
33810W        W 2173  10.186  25.149   3.242
33811W        W 2174  33.993   2.728   3.696
33812W        W 2175  13.271   7.734  11.939
33813W        W 2176  11.214  20.749   1.742
33814W        W 2177   0.819  26.197   0.295
33815W        W 2178  33.956  23.042  14.784
33816W        W 2179   7.722  40.365   3.719
33817W        W 2180  18.556  35.008  14.335
33818W        W 2181   4.774  10.819   4.151
33819W        W 2182   0.354  32.417  13.408
33820W        W 2183  27.171   9.799  12.507
33821W        W 2184  29.560  14.231   1.281
33822W        W 2185  16.251  34.927   1.935
33823W        W 2186  10.863  34.916  12.380
33824W        W 2187   0.457   6.389  10.562
33825W        W 2188  24.993   0.751  14.807
33826W        W 2189  35.539  19.121   2.267
33827W        W 2190  36.362  12.265  10.600
33828W        W 2191   0.937  36.463  13.887
33829W        W 2192  41.458  43.352   0.888
33830W        W 2193   2.922  23.568  11.531
33831W        W 2194  36.041   7.415   1.791
33832W        W 2195  40.004  43.003   3.200
33833W        W 2196   4.724  11.813  11.388
33834W        W 2197  11.835  40.954  14.352
33835W        W 2198  11.759  34.958   4.197
33836W        W 2199   0.843   0.977  13.995
33837W        W 2200  44.986  20.088   0.781
33838W        W 2201  34.502  27.982   3.172
33839W        W 2202  40.449   1.481   1.913
33840W        W 2203   9.209  30.437  10.584
33841W        W 2204   0.743  44.945   0.420
33842W        W 2205  15.617   2.961  14.909
33843W        W 2206  44.458   2.382  13.458
33844W        W 2207  36.510   2.819   2.730
33845W        W 2208   4.862  38.979  13.336
33846W        W 2209   3.377  17.596  12.033
33847W        W 2210   7.892  39.889  11.554
33848W        W 2211  35.550  11.819   0.349
33849W        W 2212  21.073  26.060  14.403
33850W        W 2213   7.738  29.538  14.445
33851W        W 2214   7.719  19.606  13.882
33852W        W 2215   3.854  28.991  14.860
33853W        W 2216   1.748   8.355  14.844
33854W        W 2217  13.620  17.218   2.796
33855W        W 2218  27.154   2.835  11.441
33856W        W 2219  27.543  16.756  14.390
33857W        W 2220  31.603  36.956  11.413
33858W        W 2221  40.875  27.687  13.034
33859W        W 2222  20.523  24.507  11.890
33860W        W 2223  28.107  19.658   4.201
33861W        W 2224  44.505   0.944  10.953
33862W        W 2225  28.964  44.988  12.013
33863W        W 2226   3.336  22.557  10.585
33864W        W 2227  24.681  43.800  12.986
33865W        W 2228   0.353  37.369   4.160
33866W        W 2229  12.218   8.207   1.394
33867W        W 2230   9.204  22.120   3.704
33868W        W 2231  32.949  12.347   3.695
33869W        W 2232  32.510  29.475   2.855
33870W        W 2233  11.657   0.381   3.301
33871W        W 2234  24.594   1.404   4.195
33872W        W 2235  16.224  20.135   3.306
33873W        W 2236  32.454  15.715   0.358
33874W        W 2237   9.881  32.020  12.390
33875W        W 2238   5.369  13.727  14.792
33876W        W 2239  16.151  28.092   3.270
33877W        W 2240  38.559   5.722   2.799
33878W        W 2241  11.827  14.175  12.912
33879W        W 2242  17.260  13.311   0.481
33880W        W 2243  38.542  23.513  14.814
33881W        W 2244  38.957  42.487  14.449
33882W        W 2245  20.683  44.865  14.002
33883W        W 2246  35.409  41.300  11.587
33884W        W 2247  23.668  18.126  11.583
33885W        W 2248  28.455  33.549   0.337
33886W        W 2249  10.368  20.142  14.758
33887W        W 2250  11.839  27.510   4.836
33888W        W 2251   4.260  20.599   3.157
33889W        W 2252   3.450   4.269  12.541
33890W        W 2253   3.733  35.898   5.188
33891W        W 2254  12.849  29.019   1.872
33892W        W 2255  30.518  23.629   0.909
33893W        W 2256  31.012  38.880  12.025
33894W        W 2257  11.822  14.745  14.405
33895W        W 2258  41.972  40.876  14.275
33896W        W 2259   7.385   8.829   3.313
33897W        W 2260  33.941  31.121  11.984
33898W        W 2261  37.475   7.687  12.923
33899W        W 2262  24.080   2.733  13.051
33900W        W 2263  38.486  13.115  12.380
33901W        W 2264  29.653  11.130   3.245
33902W        W 2265  35.023  30.028  14.994
33903W        W 2266   9.334  43.276   4.194
33904W        W 2267  42.527  21.152   3.363
33905W        W 2268  22.171  37.452   1.755
33906W        W 2269   1.958  13.239  11.587
33907W        W 2270  35.959  30.547  13.457
33908W        W 2271  16.243  20.104  14.026
33909W        W 2272  25.622  16.577   4.835
33910W        W 2273   7.799  17.653  13.433
33911W        W 2274  14.727  25.639   1.450
33912W        W 2275  21.259  26.066   1.932
33913W        W 2276  30.083   8.403   4.141
33914W        W 2277  17.653  24.151   3.638
33915W        W 2278  11.825  20.203   4.751
33916W        W 2279  24.619  13.238  13.906
33917W        W 2280  16.747   8.724   3.261
33918W        W 2281   8.682   6.385   3.780
33919W        W 2282  15.779  34.042  14.284
33920W        W 2283   1.408   1.950  12.907
33921W        W 2284  22.523  25.522  10.460
33922W        W 2285  24.135  29.100   4.780
33923W        W 2286  31.929  16.076   1.273
33924W        W 2287  25.066  20.543  14.771
33925W        W 2288  36.033  17.305   5.234
33926W        W 2289  18.079  16.295   3.857
33927W        W 2290  29.962  43.379  11.106
33928W        W 2291  41.495  23.688  14.339
33929W        W 2292   9.320  21.584  12.476
33930W        W 2293  28.458  36.062  11.584
33931W        W 2294  23.513  24.584   1.242
33932W        W 2295  41.814  29.461  13.476
33933W        W 2296  35.081  31.925   3.664
33934W        W 2297  42.834  21.660   2.680
33935W        W 2298  26.105  30.089  11.944
33936W        W 2299   0.380  39.066   0.966
33937W        W 2300   5.270   9.759  14.938
33938W        W 2301  24.087  25.706  11.124
33939W        W 2302  29.046  33.935   4.146
33940W        W 2303  43.826   1.742   1.873
33941W        W 2304  42.336  14.618   2.380
33942W        W 2305  42.857   9.262   2.792
33943W        W 2306   9.794  38.825  10.987
33944W        W 2307   7.190  19.198  12.917
33945W        W 2308  26.081  19.594   2.710
33946W        W 2309  20.756  13.304  14.332
33947W        W 2310  36.911  34.905   1.880
33948W        W 2311  40.495  21.594   2.873
33949W        W 2312   0.491   3.737  14.441
33950W        W 2313  21.068  32.944  14.028
33951W        W 2314  29.034  13.344  11.540
33952W        W 2315  35.524  44.472   1.928
33953W        W 2316  19.721  30.929  10.988
33954W        W 2317   4.420  18.224  11.983
33955W        W 2318   1.858  43.456  11.537
33956W        W 2319  10.255  38.389  10.582
33957W        W 2320  40.373   2.871  10.996
33958W        W 2321  18.741  36.060  14.962
33959W        W 2322  17.584   5.207   4.183
33960W        W 2323  25.658  11.628   4.720
33961W        W 2324  44.479  23.102  14.428
33962W        W 2325  32.989   4.423   4.703
33963W        W 2326  25.209  20.710   3.188
33964W        W 2327  25.556  35.465  12.070
33965W        W 2328  36.996  43.823   3.734
33966W        W 2329  40.843  22.670   1.416
33967W        W 2330  17.745   7.177   4.741
33968W        W 2331  38.025  18.066   2.389
33969W        W 2332   7.786  35.457  13.830
33970W        W 2333  20.750  16.618   3.237
33971W        W 2334  39.406  34.027  12.416
33972W        W 2335   8.368  37.470  11.504
33973W        W 2336  25.015  43.856  14.337
33974W        W 2337  33.080  36.393  10.941
33975W        W 2338  36.088   0.311   3.213
33976W        W 2339  15.668   7.856   2.829
33977W        W 2340   8.177  37.340  12.432
33978W        W 2341  29.948   4.829   0.274
33979W        W 2342  38.372  31.419   4.826
33980W        W 2343  16.641  18.171  13.817
33981W        W 2344  33.088  42.353   4.259
33982W        W 2345  37.539  28.165   4.713
33983W        W 2346   7.348  11.192  14.483
33984W        W 2347  12.747  19.667   2.673
33985W        W 2348  40.890   5.319  11.114
33986W        W 2349  31.436  30.029   5.699
33987W        W 2350  38.540  18.226   2.805
33988W        W 2351  43.412  16.276   3.762
33989W        W 2352  43.897  10.173  12.991
33990W        W 2353   6.752  42.792   2.220
33991W        W 2354  40.528  34.477   4.770
33992W        W 2355  42.334  34.896   1.302
33993W        W 2356  17.303   9.810  12.090
33994W        W 2357   3.814  13.623   2.375
33995W        W 2358   9.685  13.607  10.478
33996W        W 2359   0.904  30.096   2.754
33997W        W 2360  38.918  29.593   0.924
33998W        W 2361  27.094  32.075  12.377
33999W        W 2362  20.545   7.305  13.961
34000W        W 2363  21.519  32.474   4.337
34001W        W 2364   1.407  17.117  13.920
34002W        W 2365  37.573  36.559  11.450
34003W        W 2366  36.348  37.927   4.238
34004W        W 2367   6.679   9.828   0.799
34005W        W 2368   8.800   5.345  11.890
34006W        W 2369  11.360   1.838   2.321
34007W        W 2370   0.929  33.468   4.124
34008W        W 2371  40.349  29.075  10.502
34009W        W 2372   4.317  18.732   1.402
34010W        W 2373  17.595  37.868   2.850
34011W        W 2374  41.298  34.027   3.691
34012W        W 2375  39.356   1.929  10.441
34013W        W 2376  43.911  25.050   3.813
34014W        W 2377  15.234   9.654  14.965
34015W        W 2378   9.667  39.332  10.614
34016W        W 2379  28.154  20.205  12.833
34017W        W 2380   6.294  40.932  12.562
34018W        W 2381  40.540  44.893   0.918
34019W        W 2382  44.865  41.936  13.806
34020W        W 2383   0.762  43.404   1.300
34021W        W 2384   9.771  21.531  14.811
34022W        W 2385  32.975  14.716  13.991
34023W        W 2386   0.363  29.963  12.999
34024W        W 2387  13.178   3.328   4.225
34025W        W 2388  16.735  42.429   0.394
34026W        W 2389  36.998  40.048   4.269
34027W        W 2390  13.318   3.713   4.256
34028W        W 2391  20.721  29.575   4.648
34029W        W 2392  13.238  43.017   0.272
34030W        W 2393  33.971  30.627   2.404
34031W        W 2394  15.144   5.347  14.000
34032W        W 2395  40.453  44.970  14.920
34033W        W 2396   2.381  43.309   2.845
34034W        W 2397   2.416  33.110   2.298
34035W        W 2398  25.192  28.183  13.881
34036W        W 2399  26.148  14.781   3.830
34037W        W 2400  32.968  34.870  14.907
34038W        W 2401  34.057  44.858   3.154
34039W        W 2402  16.106  31.484  10.517
34040W        W 2403  39.005  43.777   0.800
34041W        W 2404   5.776  35.375  14.764
34042W        W 2405  28.470  27.643   3.847
34043W        W 2406  29.435  37.835  12.378
34044W        W 2407  13.750  13.802  11.036
34045W        W 2408   0.983   1.471  12.001
34046W        W 2409  15.326  33.500   1.815
34047W        W 2410  11.250  16.104   4.727
34048W        W 2411  27.089  33.003  13.817
34049W        W 2412  36.421   0.957  14.897
34050W        W 2413  16.777  13.245  11.393
34051W        W 2414  33.120  42.976  12.050
34052W        W 2415  22.657  35.578   0.854
34053W        W 2416  21.561  26.127   3.753
34054W        W 2417  29.989  43.498   4.327
34055W        W 2418  37.879  10.238  13.429
34056W        W 2419  34.458  18.265  13.514
34057W        W 2420   7.356  16.808   3.809
34058W        W 2421  26.111  32.947  12.061
34059W        W 2422  20.226  10.842  13.005
34060W        W 2423  31.941  22.737   3.742
34061W        W 2424  36.426  44.807  14.440
34062W        W 2425  27.657  36.853   4.264
34063W        W 2426   1.473  24.033  11.064
34064W        W 2427  25.532  14.653  13.345
34065W        W 2428  34.021  26.996   4.669
34066W        W 2429  18.108  17.094  12.481
34067W        W 2430   6.404  15.111  14.358
34068W        W 2431  33.524  21.040   2.688
34069W        W 2432  10.642  10.286  13.864
34070W        W 2433  41.304  32.935   3.869
34071W        W 2434  20.065  22.221  14.287
34072W        W 2435  12.825   8.299   2.302
34073W        W 2436  35.931  14.685  14.763
34074W        W 2437  26.040   9.312   0.364
34075W        W 2438   6.413  39.451   2.700
34076W        W 2439  38.554  23.618   0.731
34077W        W 2440  37.033   0.330   4.129
34078W        W 2441   5.761  22.580   1.335
34079W        W 2442  28.043   8.390  12.526
34080W        W 2443  30.585  36.422  14.010
34081W        W 2444  28.516  30.956   1.394
34082W        W 2445  22.092  27.945   2.735
34083W        W 2446  27.692   9.765  14.278
34084W        W 2447  11.704  35.080  12.355
34085W        W 2448  14.801  40.518  14.006
34086W        W 2449  27.167  27.085   3.822
34087W        W 2450  27.150  10.321   1.245
34088W        W 2451  11.227  17.764   0.916
34089W        W 2452  22.027  23.228  12.512
34090W        W 2453  24.085  38.060  13.920
34091W        W 2454   6.189  21.656  14.503
34092W        W 2455   8.216  36.006   0.311
34093W        W 2456  23.627  23.688  12.370
34094W        W 2457  20.243  44.836   1.298
34095W        W 2458  15.099  24.121  11.459
34096W        W 2459   7.390  14.175   3.830
34097W        W 2460  29.967  35.984  10.581
34098W        W 2461  35.953  26.532   3.654
34099W        W 2462  43.354  25.622   3.257
34100W        W 2463  39.023  28.610  11.541
34101W        W 2464  19.110  22.093  14.384
34102W        W 2465  42.401  36.436   1.214
34103W        W 2466  26.134  33.424  10.534
34104W        W 2467  35.930   4.762  14.339
34105W        W 2468   0.443   1.334  12.393
34106W        W 2469  12.786   6.419   4.693
34107W        W 2470  17.723   9.318  12.047
34108W        W 2471   6.195   2.904   0.937
34109W        W 2472  37.472   5.365  11.904
34110W        W 2473   8.235  23.235   1.391
34111W        W 2474  39.360  39.360   2.321
34112W        W 2475  11.170  43.003  12.996
34113W        W 2476   7.701  13.220  10.929
34114W        W 2477  16.101  38.325  10.483
34115W        W 2478  43.838  34.582   3.219
34116W        W 2479  36.850  40.914   3.365
34117W        W 2480  24.121  22.681   0.264
34118W        W 2481  12.661  35.477  14.948
34119W        W 2482  32.446  16.208   0.964
34120W        W 2483  44.272  20.758   2.839
34121W        W 2484  18.786  28.977   3.202
34122W        W 2485  30.424  36.046   2.296
34123W        W 2486   0.270  23.002   4.156
34124W        W 2487  37.068   7.221   2.243
34125W        W 2488  33.973  21.534  13.914
34126W        W 2489   9.786   5.873  13.952
34127W        W 2490   5.273   7.672  10.484
34128W        W 2491  40.826   2.470   4.214
34129W        W 2492  26.114  30.559   0.873
34130W        W 2493  24.682  23.146  10.943
34131W        W 2494  30.116  32.420   3.230
34132W        W 2495   9.222  34.374   0.807
34133W        W 2496  17.155  43.339  12.061
34134W        W 2497  30.571  15.679   2.418
34135W        W 2498  40.860   8.781   2.902
34136W        W 2499  15.633  12.136   0.386
34137W        W 2500   3.709  17.072   4.131
34138W        W 2501  27.612  41.495   0.961
34139W        W 2502   2.386  15.747   2.859
34140W        W 2503  34.581  39.320   2.768
34141W        W 2504  33.443  22.583  11.434
34142W        W 2505  30.048   6.696   3.370
34143W        W 2506  25.477  20.585  10.500
34144W        W 2507  18.609  18.219  11.483
34145W        W 2508   0.795   3.752   1.265
34146W        W 2509  23.695  28.490  11.858
34147W        W 2510  31.902  16.719   2.759
34148W        W 2511  43.863  15.271  11.934
34149W        W 2512  43.382  13.622  14.496
34150W        W 2513  12.129  30.553  13.512
34151W        W 2514   6.820  25.130   3.682
34152W        W 2515  33.513  23.109  11.970
34153W        W 2516  22.125   8.200   2.207
34154W        W 2517  31.490  29.146   2.899
34155W        W 2518  32.397  34.060  12.863
34156W        W 2519  25.539  27.079  13.956
34157W        W 2520  36.396  14.618   0.390
34158W        W 2521  11.321  39.547   2.360
34159W        W 2522  27.462   9.698  11.484
34160W        W 2523  15.814   6.191   5.128
34161W        W 2524   4.781  18.629   1.339
34162W        W 2525   9.348  29.631  10.906
34163W        W 2526  42.982  36.994   4.663
34164W        W 2527  40.425  12.686   1.245
34165W        W 2528  29.151  35.471   1.416
34166W        W 2529  41.850   2.838   4.147
34167W        W 2530   6.212  35.985  10.411
34168W        W 2531  34.471  35.894  10.995
34169W        W 2532  36.095   9.750   2.324
34170W        W 2533  42.959  25.191   9.978
34171W        W 2534   6.678  15.821  13.461
34172W        W 2535  44.984  14.151   2.415
34173W        W 2536  17.645   1.243  13.425
34174W        W 2537  44.869   8.316   4.150
34175W        W 2538  11.184  23.633  13.447
34176W        W 2539  32.618  34.475   4.713
34177W        W 2540  11.646   4.846  12.056
34178W        W 2541  28.010  15.127  10.537
34179W        W 2542  28.975  21.263  11.577
34180W        W 2543   0.458  23.164   2.807
34181W        W 2544  25.192  23.066  12.016
34182W        W 2545  27.974  42.867   0.889
34183W        W 2546  39.908  12.145  14.492
34184W        W 2547  33.568  15.174  12.962
34185W        W 2548  23.619  42.396  13.033
34186W        W 2549  30.158  38.843   0.435
34187W        W 2550  41.033  29.573  13.338
34188W        W 2551  36.529  41.032   0.810
34189W        W 2552   2.800  33.089   3.648
34190W        W 2553  18.264  23.501   2.402
34191W        W 2554  13.173  10.306  14.396
34192W        W 2555  10.654   0.798  13.996
34193W        W 2556   6.334   1.368  10.606
34194W        W 2557  26.617   5.218   3.817
34195W        W 2558  13.337  21.170  11.993
34196W        W 2559  19.575  15.265  11.865
34197W        W 2560  36.029   5.827   1.211
34198W        W 2561  10.346  10.768   4.230
34199W        W 2562  17.756   2.817   3.686
34200W        W 2563  13.340  11.835  14.027
34201W        W 2564  31.901  17.684   4.677
34202W        W 2565  17.213  27.015  12.340
34203W        W 2566   0.393  33.023   2.900
34204W        W 2567  32.019  36.857   3.261
34205W        W 2568  19.669  37.581   0.821
34206W        W 2569  34.117  11.656   3.815
34207W        W 2570  38.986  19.566  11.474
34208W        W 2571   3.272  24.495   2.819
34209W        W 2572   9.773  22.069  10.627
34210W        W 2573  37.005  32.981   0.277
34211W        W 2574  37.030  23.194   4.216
34212W        W 2575  30.038  15.101  10.887
34213W        W 2576  42.283  36.382  14.835
34214W        W 2577  32.033  43.835  10.573
34215W        W 2578  16.132  16.601  13.485
34216W        W 2579   0.831   5.260  11.541
34217W        W 2580  11.631  33.475   5.142
34218W        W 2581  39.925   4.342  10.949
34219W        W 2582  13.264  19.737   5.212
34220W        W 2583  26.532  34.542   0.261
34221W        W 2584  29.570  24.176  12.404
34222W        W 2585  24.220  31.012  14.289
34223W        W 2586   0.310  27.166  14.280
34224W        W 2587   2.897  21.549   4.314
34225W        W 2588  13.316  40.004  11.544
34226W        W 2589   6.263  36.863   0.250
34227W        W 2590  25.638  39.560   1.909
34228W        W 2591  34.990   8.829  11.517
34229W        W 2592  14.282  40.535   5.183
34230W        W 2593   4.754  17.648  11.979
34231W        W 2594  34.944  21.513   1.306
34232W        W 2595  33.450  26.492  11.395
34233W        W 2596  21.222  19.279  11.078
34234W        W 2597  13.798  38.471   0.332
34235W        W 2598  16.268   1.445   4.664
34236W        W 2599   0.462  11.679  13.029
34237W        W 2600  34.491  36.029  12.052
34238W        W 2601  38.819  19.586  14.515
34239W        W 2602  11.661  31.476   3.703
34240W        W 2603   3.763  11.759  14.389
34241W        W 2604  20.681  26.988  11.470
34242W        W 2605  22.671  27.633  12.492
34243W        W 2606   6.405   0.299  10.995
34244W        W 2607  20.628  23.117   0.857
34245W        W 2608  17.715  17.662  13.879
34246W        W 2609  43.435  12.774   4.814
34247W        W 2610  31.532  38.012   4.355
34248W        W 2611  37.874   8.263   1.448
34249W        W 2612  16.161  28.597  11.518
34250W        W 2613  44.451  44.932   4.641
34251W        W 2614  23.695   6.859  14.355
34252W        W 2615   2.883  17.069  13.997
34253W        W 2616  21.725  10.859   3.251
34254W        W 2617  31.994  10.832  10.887
34255W        W 2618  40.802  12.692  13.351
34256W        W 2619  41.975  39.375  10.941
34257W        W 2620  24.661  20.176  13.059
34258W        W 2621  17.670  41.443  14.939
34259W        W 2622  19.687   8.195   4.298
34260W        W 2623  39.505   6.730   1.297
34261W        W 2624  17.694   9.648  11.593
34262W        W 2625  42.406  17.301   0.349
34263W        W 2626  36.405  25.155  14.798
34264W        W 2627  26.645   1.740   0.772
34265W        W 2628   7.705  23.599  13.476
34266W        W 2629  23.494  36.400   0.841
34267W        W 2630  22.647  41.517   1.428
34268W        W 2631   5.269   6.249  12.855
34269W        W 2632   3.289  18.074   1.264
34270W        W 2633  35.889  29.617   4.599
34271W        W 2634  13.813  21.698   0.277
34272W        W 2635  35.961  18.109   0.945
34273W        W 2636  26.118   2.314   1.298
34274W        W 2637  29.983  37.964  11.114
34275W        W 2638  36.005  36.957   0.870
34276W        W 2639  44.292  13.839  10.512
34277W        W 2640   7.298  34.866   0.788
34278W        W 2641  12.843  14.681  14.826
34279W        W 2642  32.460  41.460   0.359
34280W        W 2643   1.259  10.257  12.389
34281W        W 2644  12.222   9.167  12.406
34282W        W 2645  31.084   1.348  13.853
34283W        W 2646   7.728  44.811   0.950
34284W        W 2647  21.612   1.952   0.459
34285W        W 2648   8.770   9.719  10.924
34286W        W 2649  37.925  21.159  10.460
34287W        W 2650  42.919  22.151  13.519
34288W        W 2651  14.676  16.119  14.763
34289W        W 2652   4.418  33.891  14.330
34290W        W 2653   5.826  38.954  10.610
34291W        W 2654  14.747  23.624   3.176
34292W        W 2655   3.329   9.670   0.830
34293W        W 2656  43.770  33.609  14.471
34294W        W 2657  31.588   8.196   3.298
34295W        W 2658  41.455  19.779  14.411
34296W        W 2659  35.093   0.815   2.790
34297W        W 2660   0.759  11.163   2.850
34298W        W 2661  25.116  24.697   1.818
34299W        W 2662  24.132   3.305   0.320
34300W        W 2663  16.593  16.175   2.260
34301W        W 2664  24.215  35.381  11.419
34302W        W 2665  30.948  21.678   2.344
34303W        W 2666  27.942   9.742   4.293
34304W        W 2667  24.723  18.239  10.930
34305W        W 2668  29.168  37.890  11.468
34306W        W 2669  18.788  16.090   3.358
34307W        W 2670   5.852  11.242   2.222
34308W        W 2671  16.239  30.473   2.743
34309W        W 2672  40.966  37.841   3.303
34310W        W 2673  29.092   9.357  12.975
34311W        W 2674  15.614   7.872  14.506
34312W        W 2675  31.036  13.752   0.336
34313W        W 2676   6.918  33.983  14.818
34314W        W 2677  22.509  31.949   4.172
34315W        W 2678  23.608  41.491   0.919
34316W        W 2679  12.121  16.748  11.980
34317W        W 2680  14.158  28.643  12.086
34318W        W 2681  17.754  19.274   1.694
34319W        W 2682  10.220  33.880  14.920
34320W        W 2683   5.915  32.111  13.489
34321W        W 2684   7.828   6.689  12.438
34322W        W 2685  28.596  44.260  10.437
34323W        W 2686   4.352  14.704  13.492
34324W        W 2687  33.042  23.223   2.770
34325W        W 2688  15.699   3.234  10.936
34326W        W 2689  20.561  12.829  11.033
34327W        W 2690   7.298  30.059   4.775
34328W        W 2691  12.269  12.856   2.696
34329W        W 2692  34.441  37.040   3.261
34330W        W 2693  30.038  29.920   3.751
34331W        W 2694   3.281  28.961  13.350
34332W        W 2695  27.505  32.476  13.921
34333W        W 2696  44.271   1.348  14.440
34334W        W 2697  39.997   4.801  12.549
34335W        W 2698  24.086  44.981  12.339
34336W        W 2699  24.515  32.409  14.892
34337W        W 2700  37.380  12.802   2.412
34338W        W 2701  34.487  39.001   0.255
34339W        W 2702  12.732  34.609  14.819
34340W        W 2703  32.465  39.981  10.527
34341W        W 2704   4.859  27.635  10.545
34342W        W 2705  39.975  43.846   4.215
34343W        W 2706  15.656  24.066   1.908
34344W        W 2707  18.137   2.429   3.751
34345W        W 2708  44.872  34.563   0.966
34346W        W 2709  31.525  26.509   2.212
34347W        W 2710  44.276  22.729  12.863
34348W        W 2711  25.127   1.479   0.419
34349W        W 2712  17.634   5.758   0.282
34350W        W 2713  44.761  13.316   2.835
34351W        W 2714  42.868  26.050   4.342
34352W        W 2715   8.884  22.602  13.457
34353W        W 2716  25.206  18.617  13.955
34354W        W 2717  31.974  21.754  12.503
34355W        W 2718  35.423  21.121   0.914
34356W        W 2719  40.397  20.600   2.725
34357W        W 2720  12.690  19.229  12.037
34358W        W 2721  27.585  16.260   1.935
34359W        W 2722  35.020  35.430  13.986
34360W        W 2723  20.080  32.960   0.376
34361W        W 2724  25.120  28.931  13.979
34362W        W 2725  30.959  18.637   3.643
34363W        W 2726  17.288  20.627   3.329
34364W        W 2727  35.988  36.380   2.348
34365W        W 2728  40.389  19.114  11.916
34366W        W 2729  18.567  32.624   2.249
34367W        W 2730  41.896  23.075   3.183
34368W        W 2731  33.513  14.163   4.666
34369W        W 2732  35.496  37.580   4.830
34370W        W 2733   0.976   0.856   1.418
34371W        W 2734  29.521  41.954  13.530
34372W        W 2735  31.972  21.143  10.016
34373W        W 2736  14.796  17.067  11.011
34374W        W 2737  18.671  27.559  12.880
34375W        W 2738  38.873  37.943   2.683
34376W        W 2739  13.214  23.630  10.451
34377W        W 2740  25.557   9.843   0.744
34378W        W 2741  23.710  44.290   2.878
34379W        W 2742  42.876  35.057   0.296
34380W        W 2743  31.975   1.737   3.799
34381W        W 2744   4.422  38.361   4.640
34382W        W 2745  44.997  17.114   1.443
34383W        W 2746  15.734  40.841  13.514
34384W        W 2747  32.964  42.962   3.809
34385W        W 2748  16.280  11.243   1.301
34386W        W 2749   3.944  32.925   1.744
34387W        W 2750  34.956   0.337  12.533
34388W        W 2751  43.489  11.308   3.706
34389W        W 2752  41.005  20.765  14.481
34390W        W 2753   0.474   4.893   3.659
34391W        W 2754  14.614  23.735   2.280
34392W        W 2755  14.683   2.432  13.440
34393W        W 2756  17.670  21.052   9.990
34394W        W 2757  40.380  34.430  13.390
34395W        W 2758  39.405   9.836   2.236
34396W        W 2759  20.741   7.202   4.317
34397W        W 2760   5.827  27.448  10.895
34398W        W 2761  23.205  32.463  12.987
34399W        W 2762   8.898  30.990   4.251
34400W        W 2763  11.754  19.690  13.439
34401W        W 2764  38.457  24.105   2.292
34402W        W 2765   4.399  44.343   2.314
34403W        W 2766  31.415   2.778  14.276
34404W        W 2767  41.365  38.070  10.439
34405W        W 2768   0.782  12.122  14.967
34406W        W 2769  18.179  30.437  11.030
34407W        W 2770  28.510   8.266   4.219
34408W        W 2771  30.929  24.076  14.404
34409W        W 2772  35.504  42.441  14.020
34410W        W 2773  10.152  16.758  11.920
34411W        W 2774  18.122   7.770   0.892
34412W        W 2775  43.996  41.922  10.511
34413W        W 2776  42.465  22.641   0.956
34414W        W 2777  31.519   5.781   3.761
34415W        W 2778  25.189  21.614  11.968
34416W        W 2779   0.851  33.973  14.434
34417W        W 2780  12.353   3.285   2.274
34418W        W 2781   1.787  23.619   2.814
34419W        W 2782  17.729  16.700  13.799
34420W        W 2783   8.283  25.145  11.957
34421W        W 2784  32.440  23.019   0.903
34422W        W 2785  33.045   3.225   2.298
34423W        W 2786  16.609   6.694   3.767
34424W        W 2787   6.426   8.786  13.823
34425W        W 2788   1.248   3.934   4.710
34426W        W 2789  35.389  37.865  13.057
34427W        W 2790  10.165  40.440   4.126
34428W        W 2791  36.386  12.846   4.717
34429W        W 2792  25.002  39.339   3.376
34430W        W 2793  26.087  11.180   0.333
34431W        W 2794  44.283  43.328  14.017
34432W        W 2795  38.395  15.718  11.997
34433W        W 2796   3.451  41.335   0.301
34434W        W 2797  24.630  28.079  12.994
34435W        W 2798  26.957  20.599   0.881
34436W        W 2799  24.682  29.142  12.862
34437W        W 2800  43.284  33.452   0.794
34438W        W 2801  19.571   9.256  11.980
34439W        W 2802  15.670  37.522   3.259
34440W        W 2803   8.773   5.244   0.287
34441W        W 2804  36.571  19.778   2.727
34442W        W 2805  42.881  26.533   5.274
34443W        W 2806  22.612  42.850  11.084
34444W        W 2807  14.207   2.793   2.368
34445W        W 2808  11.658  31.039   3.864
34446W        W 2809  12.225  18.271   1.405
34447W        W 2810   8.673  21.522   3.318
34448W        W 2811  15.181  44.499  12.850
34449W        W 2812  42.859  10.731  13.511
34450W        W 2813  12.318  19.747   0.919
34451W        W 2814   9.872  33.100  11.515
34452W        W 2815  32.021  27.108   4.815
34453W        W 2816  26.537   0.455   4.157
34454W        W 2817  27.990  20.695  14.877
34455W        W 2818  37.467  27.510  11.049
34456W        W 2819   2.280  39.912  13.898
34457W        W 2820  24.024  38.895   9.920
34458W        W 2821  24.221  10.149   3.817
34459W        W 2822  24.192  25.597  13.904
34460W        W 2823   6.909  30.015   0.938
34461W        W 2824  36.998  19.547   4.245
34462W        W 2825  20.759  31.907   3.811
34463W        W 2826  35.545   4.724   4.801
34464W        W 2827   0.322  31.568   0.912
34465W        W 2828  24.117  20.640  13.853
34466W        W 2829  36.852  30.520  13.895
34467W        W 2830  43.276   1.286  14.846
34468W        W 2831  10.663   3.385   0.951
34469W        W 2832   7.874  35.017  14.967
34470W        W 2833  27.034  17.735  13.395
34471W        W 2834   9.238  28.040   4.828
34472W        W 2835  41.899  20.174   0.762
34473W        W 2836  28.041  24.563   3.809
34474W        W 2837  21.131   6.752   4.234
34475W        W 2838  26.566   9.755   4.188
34476W        W 2839   1.930   4.347  14.354
34477W        W 2840  44.375  25.165   4.651
34478W        W 2841  42.291  27.123   3.871
34479W        W 2842  17.191  22.245   0.280
34480W        W 2843  44.917  33.034  14.806
34481W        W 2844  14.736  18.289  13.445
34482W        W 2845   4.292  39.809   1.870
34483W        W 2846  10.838  29.590  13.009
34484W        W 2847  15.277  13.133  14.023
34485W        W 2848  29.538  24.605   4.635
34486W        W 2849   6.677  28.969  11.494
34487W        W 2850  23.711   3.778  10.561
34488W        W 2851  18.599   5.923   0.811
34489W        W 2852  30.954  39.001   3.227
34490W        W 2853   0.748   8.827   1.221
34491W        W 2854  41.494  32.084  10.027
34492W        W 2855  35.525  13.167   4.773
34493W        W 2856  42.857   0.867   2.310
34494W        W 2857  33.884  28.472  12.566
34495W        W 2858  31.917  13.807  12.910
34496W        W 2859  37.384  13.734   0.453
34497W        W 2860  24.592   1.431   2.855
34498W        W 2861  29.540   4.910   2.889
34499W        W 2862   7.269   1.902   4.301
34500W        W 2863  25.690   5.726  11.943
34501W        W 2864  25.064  17.603   1.445
34502W        W 2865  27.674  18.246   2.224
34503W        W 2866  17.277  41.487  12.468
34504W        W 2867  32.530  15.789   1.323
34505W        W 2868  22.733  39.911   4.805
34506W        W 2869  29.518  44.366  13.371
34507W        W 2870  37.447  36.552   1.812
34508W        W 2871  10.808  24.157  13.378
34509W        W 2872  35.093  30.126   0.805
34510W        W 2873  28.969   7.274   1.901
34511W        W 2874   5.705  21.666   0.860
34512W        W 2875  25.623   7.363   3.169
34513W        W 2876  44.292  37.032   4.180
34514W        W 2877  21.145  22.614   2.795
34515W        W 2878  39.017   1.973   3.371
34516W        W 2879  29.460  30.631  13.064
34517W        W 2880  35.033  12.303  11.506
34518W        W 2881  41.408  28.455  13.943
34519W        W 2882  38.534  14.710  14.820
34520W        W 2883  17.150  36.009  10.956
34521W        W 2884   3.387  36.467   1.275
34522W        W 2885  44.956  36.392   5.191
34523W        W 2886  22.710  32.417   0.427
34524W        W 2887  36.579  34.397   0.842
34525W        W 2888  15.723  34.904   4.686
34526W        W 2889  40.382  17.784  12.386
34527W        W 2890  16.123  30.635   4.305
34528W        W 2891  31.148  11.280  11.933
34529W        W 2892  27.104  43.405   1.423
34530W        W 2893   1.868   6.241  13.421
34531W        W 2894   1.773  22.058  13.819
34532W        W 2895  36.413  31.054  12.074
34533W        W 2896  35.957   4.758   3.163
34534W        W 2897  18.243  43.798   4.779
34535W        W 2898   9.663  26.621   1.744
34536W        W 2899  36.560  19.095  12.026
34537W        W 2900  21.061  33.589   4.779
34538W        W 2901   3.454  30.938   2.317
34539W        W 2902  23.087  29.545   4.725
34540W        W 2903  27.008  44.351  14.840
34541W        W 2904  29.617  13.282   5.242
34542W        W 2905  40.806  22.581   4.712
34543W        W 2906  31.551  20.074  12.997
34544W        W 2907  11.718  23.186  12.876
34545W        W 2908   8.242  26.476  14.781
34546W        W 2909  19.701  30.547  10.615
34547W        W 2910  31.994   7.321   1.757
34548W        W 2911  23.683  35.430  14.325
34549W        W 2912   4.838   4.286   1.766
34550W        W 2913  23.984  42.790   2.353
34551W        W 2914  44.905  29.172   4.675
34552W        W 2915  37.060   1.800  12.470
34553W        W 2916  13.668  12.618  11.497
34554W        W 2917  26.035   0.400   1.928
34555W        W 2918   3.929  10.259   4.818
34556W        W 2919   1.447  19.597  10.625
34557W        W 2920  27.982  25.190   4.170
34558W        W 2921  29.665  32.891  12.404
34559W        W 2922   2.373  43.301  10.140
34560W        W 2923  12.682  36.047   3.721
34561W        W 2924  36.469  32.067  10.102
34562W        W 2925  33.551  43.292  14.992
34563W        W 2926   3.275  27.164  13.050
34564W        W 2927   3.440  34.064  13.322
34565W        W 2928  21.108  11.168  10.495
34566W        W 2929   7.833  35.493  10.991
34567W        W 2930  11.810  24.144   3.206
34568W        W 2931  36.425  38.523  14.896
34569W        W 2932  28.535  43.505   4.353
34570W        W 2933   1.459  36.557   2.738
34571W        W 2934   4.334  36.906  11.478
34572W        W 2935  44.848  22.694  11.524
34573W        W 2936  19.764  11.226   2.803
34574W        W 2937   4.314   6.426   3.315
34575W        W 2938  25.179   5.360   0.467
34576W        W 2939  28.551  17.202   1.317
34577W        W 2940  11.249   4.292   4.215
34578W        W 2941  20.221   9.170   1.752
34579W        W 2942  43.848  13.276   1.883
34580W        W 2943   6.884  11.319  12.903
34581W        W 2944  31.543   1.959   5.645
34582W        W 2945  25.219   2.411   1.357
34583W        W 2946  35.398  27.045  14.504
34584W        W 2947  27.982  15.259  13.429
34585W        W 2948   6.266  44.760   1.923
34586W        W 2949  12.687  31.423  14.415
34587W        W 2950  37.411  31.543   1.738
34588W        W 2951   4.862  21.199  11.074
34589W        W 2952  20.211  31.411   3.362
34590W        W 2953  32.889  11.171  10.985
34591W        W 2954  14.824  19.123  10.472
34592W        W 2955  24.012   1.272  13.406
34593W        W 2956  17.775  43.935   2.189
34594W        W 2957  27.572   6.241   2.700
34595W        W 2958  43.376  11.240   2.897
34596W        W 2959   8.263  34.029  13.022
34597W        W 2960   5.343  32.895   2.346
34598W        W 2961  42.823  11.276   3.827
34599W        W 2962  34.050   0.398   2.252
34600W        W 2963   2.306  19.709   4.751
34601W        W 2964   4.854  27.058  14.382
34602W        W 2965  37.570  32.887  14.335
34603W        W 2966  25.498  16.152  14.433
34604W        W 2967  38.419   9.296   0.859
34605W        W 2968  32.037   8.256  11.859
34606W        W 2969  11.808  32.524  11.544
34607W        W 2970  21.201  24.703  13.418
34608W        W 2971  11.698   6.239   1.342
34609W        W 2972  23.186  31.587  10.928
34610W        W 2973  35.464  37.031   4.307
34611W        W 2974  43.401  36.549   0.852
34612W        W 2975  44.457  24.555  14.317
34613W        W 2976  39.512  31.507  12.940
34614W        W 2977   7.681  38.971  12.474
34615W        W 2978  11.742  34.040  12.495
34616W        W 2979  18.240  23.032  14.934
34617W        W 2980  34.014  28.083  14.308
34618W        W 2981   1.435  16.292   1.729
34619W        W 2982  18.243  32.129   0.263
34620W        W 2983  29.453   4.327  13.937
34621W        W 2984  33.008  29.462   3.158
34622W        W 2985  14.251  34.395  12.096
34623W        W 2986  27.574  22.547   3.649
34624W        W 2987  31.990  13.269   1.851
34625W        W 2988  26.120  22.536  14.381
34626W        W 2989  37.504  32.009   4.331
34627W        W 2990  23.146  44.293  12.860
34628W        W 2991  10.377  29.170   1.811
34629W        W 2992   8.895  27.068   2.788
34630W        W 2993  24.562   3.928   2.793
34631W        W 2994   2.735  21.675  13.941
34632W        W 2995  36.591  10.827  11.014
34633W        W 2996  18.693  24.702   1.880
34634W        W 2997  37.511   8.677  13.797
34635W        W 2998  31.958  44.262  13.831
34636W        W 2999  26.182   0.421   0.258
34637W        W 3000  36.348  42.791   0.835
34638W        W 3001  11.351  27.974   2.199
34639W        W 3002  18.592  39.942  13.791
34640W        W 3003  13.829  30.457   2.897
34641W        W 3004  25.973  34.945   0.447
34642W        W 3005   2.271  28.054  13.364
34643W        W 3006   5.732  23.630  11.080
34644W        W 3007   4.417   8.782  14.386
34645W        W 3008   2.272  27.571   1.888
34646W        W 3009  43.480  38.556  10.982
34647W        W 3010  30.599   9.717   2.366
34648W        W 3011  17.639  15.091  12.477
34649W        W 3012   4.786  38.941   2.780
34650W        W 3013  44.471  40.995  14.367
34651W        W 3014   5.743  38.551   3.256
34652W        W 3015  29.976  19.664   1.435
34653W        W 3016  33.003  12.685   4.776
34654W        W 3017   4.788  17.122   3.786
34655W        W 3018   8.276   0.354  13.415
34656W        W 3019  25.060  16.716   0.337
34657W        W 3020  12.769  44.982   1.832
34658W        W 3021  31.024  19.232  12.412
34659W        W 3022  38.840  43.338   4.117
34660W        W 3023   3.749  12.212   2.866
34661W        W 3024  26.963  34.606   3.333
34662W        W 3025   2.352   8.179   2.892
34663W        W 3026   6.735  43.354   3.383
34664W        W 3027  14.227  43.338   0.962
34665W        W 3028  37.445  24.087   2.232
34666W        W 3029  44.493  31.450  14.005
34667W        W 3030  28.556  20.251   1.404
34668W        W 3031  38.378  24.685   0.302
34669W        W 3032   5.249  37.406   5.268
34670W        W 3033  30.983  21.027   4.216
34671W        W 3034  32.398   0.381   3.802
34672W        W 3035   2.387  21.714   1.230
34673W        W 3036  33.116   3.353  10.969
34674W        W 3037  31.113  21.535  12.495
34675W        W 3038   7.676  42.982  13.523
34676W        W 3039  22.556  12.710  14.804
34677W        W 3040  16.572  42.880   0.734
34678W        W 3041  27.136  10.651  12.488
34679W        W 3042  11.865  18.693  14.948
34680W        W 3043  38.951  42.789   2.751
34681W        W 3044   7.324  27.586  12.078
34682W        W 3045  33.908  39.051  10.511
34683W        W 3046  23.190  43.853   3.246
34684W        W 3047  35.570  13.786   4.159
34685W        W 3048  43.840  26.024  13.423
34686W        W 3049  25.964  28.609   0.464
34687W        W 3050  17.790  40.830   3.860
34688W        W 3051   6.385   0.843   4.239
34689W        W 3052  36.371   6.193   5.117
34690W        W 3053  24.226  35.068   4.657
34691W        W 3054  11.175  12.354  12.445
34692W        W 3055  34.597  32.926  10.411
34693W        W 3056   1.936   5.804   1.340
34694W        W 3057  28.157  14.630   4.129
34695W        W 3058  17.083  19.661   0.770
34696W        W 3059  24.580  42.448   4.648
34697W        W 3060  22.551  13.834   3.275
34698W        W 3061   0.786   4.775  13.485
34699W        W 3062  21.123  24.024  13.054
34700W        W 3063  13.143   2.385  11.455
34701W        W 3064  38.890  44.491   0.467
34702W        W 3065  38.821  40.923  11.992
34703W        W 3066  34.003  21.676  11.128
34704W        W 3067  13.817  16.664   1.235
34705W        W 3068   5.211  20.249   0.425
34706W        W 3069  32.001  12.159   4.653
34707W        W 3070  36.029   7.890  13.990
34708W        W 3071  41.372  18.628  11.033
34709W        W 3072  38.935  43.894   0.267
34710W        W 3073  12.300  16.107  13.814
34711W        W 3074  13.329  17.635   2.784
34712W        W 3075  12.809  31.635  11.961
34713W        W 3076  43.322  40.379  13.480
34714W        W 3077  19.097  12.614  11.051
34715W        W 3078  26.563  43.288  14.867
34716W        W 3079   2.750  31.622   4.771
34717W        W 3080  11.336  44.781  14.915
34718W        W 3081   9.202  30.560   3.181
34719W        W 3082   3.806  13.157  10.584
34720W        W 3083  35.466  15.155  11.499
34721W        W 3084   2.329   1.242   2.188
34722W        W 3085  44.756  41.882  12.968
34723W        W 3086   1.787  28.989   1.811
34724W        W 3087   8.840  18.675  14.956
34725W        W 3088   9.256  21.261   0.966
34726W        W 3089  38.979   6.784   0.744
34727W        W 3090  14.832  21.141   1.434
34728W        W 3091   3.802  10.164   3.710
34729W        W 3092  37.050  10.320   2.893
34730W        W 3093   9.205  32.455  12.044
34731W        W 3094  32.135  26.142   0.752
34732W        W 3095  27.953  22.563  13.370
34733W        W 3096   7.228  27.948  14.833
34734W        W 3097   8.199   4.329   4.640
34735W        W 3098   5.383   9.690   4.235
34736W        W 3099  23.522  12.190  11.963
34737W        W 3100  16.132  26.187   3.178
34738W        W 3101  15.129  37.916  12.986
34739W        W 3102   1.954  36.930   2.303
34740W        W 3103  14.233   3.246   2.340
34741W        W 3104  11.364  23.663   2.393
34742W        W 3105  25.474  44.450  11.031
34743W        W 3106   9.163  12.160  13.530
34744W        W 3107  32.584  32.135  13.416
34745W        W 3108  20.204  11.205  14.459
34746W        W 3109  20.637  13.204   2.247
34747W        W 3110   7.361  23.604   4.316
34748W        W 3111  35.604   7.194   3.217
34749W        W 3112  15.667  27.653   0.280
34750W        W 3113   1.288  13.324   3.201
34751W        W 3114   1.376  40.481   2.710
34752W        W 3115  16.128  13.782   2.663
34753W        W 3116  22.727  29.051  11.422
34754W        W 3117  35.460  20.629  12.864
34755W        W 3118  30.495   0.947   3.667
34756W        W 3119  29.074  16.173   1.309
34757W        W 3120  26.119  31.528   0.955
34758W        W 3121  23.134  16.311   3.179
34759W        W 3122  12.640  42.899   4.147
34760W        W 3123  41.499  10.845   2.206
34761W        W 3124  39.032   5.849  11.947
34762W        W 3125  36.518  13.182  13.873
34763W        W 3126  33.441  19.755   2.227
34764W        W 3127  40.928  29.522  14.323
34765W        W 3128  28.997   2.964  11.117
34766W        W 3129  19.091  26.509  14.328
34767W        W 3130   4.826  21.749   0.851
34768W        W 3131  23.699  24.077   1.391
34769W        W 3132  30.543  34.064  11.117
34770W        W 3133  44.997  24.501   0.434
34771W        W 3134  17.686   0.787   0.924
34772W        W 3135  35.374  22.592   2.714
34773W        W 3136  38.521  35.078   0.243
34774W        W 3137  40.833   4.396   3.233
34775W        W 3138  23.091  30.963  12.019
34776W        W 3139  43.899   2.805  10.505
34777W        W 3140   8.849  17.745   0.262
34778W        W 3141   1.417  32.637  11.398
34779W        W 3142  42.423  16.748   0.286
34780W        W 3143  14.810  14.771  12.045
34781W        W 3144  10.787   3.733   1.867
34782W        W 3145  10.847   4.217   0.310
34783W        W 3146  14.774  38.415   4.297
34784W        W 3147  34.012  10.209  14.920
34785W        W 3148  34.090  34.615  14.332
34786W        W 3149   3.343  12.268  12.026
34787W        W 3150  39.958  36.038   4.149
34788W        W 3151  30.114   3.837  11.858
34789W        W 3152  39.891  20.112   0.424
34790W        W 3153  36.009   8.674   4.234
34791W        W 3154  22.151  38.043   0.242
34792W        W 3155   7.854   3.319   3.387
34793W        W 3156   4.855   3.818  11.560
34794W        W 3157   3.386  28.160  12.569
34795W        W 3158   7.876  32.588   0.383
34796W        W 3159  38.840  10.735  14.373
34797W        W 3160  17.754  41.864   2.875
34798W        W 3161   9.278  24.722   0.901
34799W        W 3162  39.534   1.379  13.993
34800W        W 3163  31.637  11.315   1.452
34801W        W 3164  18.154   7.411   3.212
34802W        W 3165  40.480  44.345   0.318
34803W        W 3166  26.570  35.514   2.870
34804W        W 3167   1.868  34.944   0.836
34805W        W 3168   1.930  29.484   2.353
34806W        W 3169  17.092  12.220   1.740
34807W        W 3170  36.083  33.005   3.652
34808W        W 3171  33.022  23.159   3.279
34809W        W 3172  33.996  38.559  13.799
34810W        W 3173  16.217  16.081  11.581
34811W        W 3174   2.293  12.207   0.296
34812W        W 3175   7.762  26.149  11.582
34813W        W 3176  22.167  22.704  13.819
34814W        W 3177  36.573  11.712   1.766
34815W        W 3178  42.379  29.527  11.985
34816W        W 3179  41.878   4.884  13.052
34817W        W 3180  22.732  27.048   3.736
34818W        W 3181  21.098   9.345  14.862
34819W        W 3182  33.930  28.945   4.187
34820W        W 3183  40.465  14.723   2.837
34821W        W 3184  20.609  35.887   3.263
34822W        W 3185  44.955   7.173   0.372
34823W        W 3186  16.742   7.813   2.253
34824W        W 3187  38.016  37.966   4.685
34825W        W 3188   4.839  16.302  13.036
34826W        W 3189  34.516  18.267  13.843
34827W        W 3190   8.237  37.893  12.569
34828W        W 3191  23.144  25.123  13.447
34829W        W 3192   0.297  40.901   0.927
34830W        W 3193   5.763  18.238  14.494
34831W        W 3194  43.920   0.930  11.888
34832W        W 3195  20.126  38.022   3.281
34833W        W 3196  21.023  19.656   4.688
34834W        W 3197  24.632  11.862   2.269
34835W        W 3198  18.207  12.692   0.749
34836W        W 3199  24.017   7.285  13.809
34837W        W 3200  37.842  32.561   3.658
34838W        W 3201  30.159  31.494  13.423
34839W        W 3202  36.061  14.258   1.250
34840W        W 3203   9.260  25.026   2.848
34841W        W 3204  31.979  44.996   1.776
34842W        W 3205  35.999  44.495  12.420
34843W        W 3206  24.670  37.853  10.890
34844W        W 3207  38.994  27.953   4.115
34845W        W 3208  23.190  23.226  12.025
34846W        W 3209  23.128  40.432   0.935
34847W        W 3210  19.276  40.427   3.806
34848W        W 3211  20.235  28.463   3.667
34849W        W 3212  12.628  39.369   2.254
34850W        W 3213   0.938   3.772  11.372
34851W        W 3214  12.837   2.966   4.702
34852W        W 3215  30.532  17.201  12.869
34853W        W 3216   4.343  11.210  11.569
34854W        W 3217  20.193  44.825   0.791
34855W        W 3218  16.693  41.403   2.354
34856W        W 3219  26.055  15.740   9.646
34857W        W 3220   0.758   6.218   5.296
34858W        W 3221  35.987  15.733  12.909
34859W        W 3222  39.429  22.090  12.846
34860W        W 3223   8.248  36.923  11.982
34861W        W 3224   9.700  13.210   1.312
34862W        W 3225  37.043   7.189  12.370
34863W        W 3226  39.818  34.511  13.366
34864W        W 3227  14.648  30.981  14.005
34865W        W 3228  41.903  26.971  12.978
34866W        W 3229  15.285  19.257  14.786
34867W        W 3230  44.920  11.243  14.021
34868W        W 3231  20.608  10.348  10.441
34869W        W 3232  22.574  17.116  13.039
34870W        W 3233  44.758  38.988   1.750
34871W        W 3234  19.087   2.787   0.321
34872W        W 3235   7.188  12.790   0.257
34873W        W 3236  32.464  22.668  13.800
34874W        W 3237  21.039  14.096  11.530
34875W        W 3238  17.263  27.510  10.995
34876W        W 3239  24.590  17.164   0.466
34877W        W 3240  32.089  44.503   2.807
34878W        W 3241  13.674  25.521   3.222
34879W        W 3242   0.823  29.045   2.886
34880W        W 3243   5.712  17.089  12.501
34881W        W 3244  21.601  37.943  10.592
34882W        W 3245  42.885  37.359   3.307
34883W        W 3246  18.072  18.752   0.951
34884W        W 3247  35.926   6.214  13.947
34885W        W 3248   5.736  40.366   3.870
34886W        W 3249  12.752  42.980  14.931
34887W        W 3250  23.223   2.278   2.315
34888W        W 3251  40.040   7.207  10.475
34889W        W 3252  27.156  36.370   2.375
34890W        W 3253  21.741  23.193  12.510
34891W        W 3254  17.253  34.371   4.254
34892W        W 3255   8.257  19.241   3.324
34893W        W 3256   6.353   4.287  12.024
34894W        W 3257  34.908  31.966   4.624
34895W        W 3258  36.467  11.823  14.511
34896W        W 3259   4.349   2.471  11.383
34897W        W 3260  12.356  11.636  13.799
34898W        W 3261  14.815  19.647  11.422
34899W        W 3262   2.384  29.542  11.423
34900W        W 3263  16.120   9.735  10.581
34901W        W 3264  33.550  27.448   4.231
34902W        W 3265  12.695   3.843  11.505
34903W        W 3266  13.792  24.189   0.853
34904W        W 3267  40.493  38.563  10.477
34905W        W 3268  10.280  26.702   0.873
34906W        W 3269  32.935  35.924   0.827
34907W        W 3270  22.181  15.226   3.278
34908W        W 3271   8.701  23.725   4.193
34909W        W 3272  30.651   4.725   4.165
34910W        W 3273  35.027  16.770  11.044
34911W        W 3274   8.770  10.667   4.177
34912W        W 3275  34.028   7.221   4.648
34913W        W 3276  25.971  20.256  14.493
34914W        W 3277  13.708  21.138   2.855
34915W        W 3278  33.458  24.607  11.971
34916W        W 3279  29.066   9.159   1.283
34917W        W 3280   0.247  24.671  12.416
34918W        W 3281  19.692  30.422  11.417
34919W        W 3282  16.637  16.708   3.170
34920W        W 3283  29.117  10.711   4.692
34921W        W 3284  38.900  35.540   1.374
34922W        W 3285   3.865  31.069   3.339
34923W        W 3286   3.867   4.791   2.192
34924W        W 3287  16.649  36.068  14.015
34925W        W 3288  32.554  27.624  13.919
34926W        W 3289  13.251  28.977   2.896
34927W        W 3290  15.137  22.630  13.334
34928W        W 3291   0.927  38.009  14.489
34929W        W 3292  25.987  10.256   1.295
34930W        W 3293  42.366   5.196   3.293
34931W        W 3294  20.657   4.405  11.999
34932W        W 3295  27.621  25.109  12.024
34933W        W 3296  42.004  35.479  11.485
34934W        W 3297  29.628  21.174   2.692
34935W        W 3298  30.083  32.059   4.267
34936W        W 3299  22.217   3.362   2.283
34937W        W 3300  21.590   8.870   5.265
34938W        W 3301  42.930  30.945   4.200
34939W        W 3302   0.463  42.300   0.327
34940W        W 3303  44.433   7.390   4.652
34941W        W 3304  15.155  16.076  14.329
34942W        W 3305  31.522  36.044  13.351
34943W        W 3306  17.185  30.492   5.223
34944W        W 3307   4.317   4.830  11.527
34945W        W 3308  38.561  35.404  13.444
34946W        W 3309  40.830  19.147   1.805
34947W        W 3310  26.612  40.949  13.442
34948W        W 3311  29.128  43.336   2.892
34949W        W 3312  43.351  43.303  11.466
34950W        W 3313  17.603   4.252   0.311
34951W        W 3314  33.902  41.467   2.897
34952W        W 3315  12.856  13.768  14.781
34953W        W 3316   1.466   7.846   3.159
34954W        W 3317   5.843  43.858  13.447
34955W        W 3318  39.493  29.137  11.949
34956W        W 3319   5.206  18.273  13.851
34957W        W 3320  33.550  43.987  10.636
34958W        W 3321  17.595   2.750  13.479
34959W        W 3322  22.701  41.406  10.969
34960W        W 3323  18.677  25.647   1.443
34961W        W 3324  13.214  12.125   4.665
34962W        W 3325  11.301  29.105   4.138
34963W        W 3326  20.689   4.342  11.585
34964W        W 3327  33.566  29.461   3.865
34965W        W 3328   4.279  26.528   4.304
34966W        W 3329  12.308   7.336  13.932
34967W        W 3330  11.761  40.343  10.888
34968W        W 3331  24.221  26.007  14.411
34969W        W 3332  31.081  40.469  10.629
34970W        W 3333   9.822  23.588  13.457
34971W        W 3334  29.599  22.006   1.396
34972W        W 3335  32.598   4.733  10.604
34973W        W 3336   4.863  15.640   9.955
34974W        W 3337  19.066  36.870  12.978
34975W        W 3338  18.603   4.828  12.848
34976W        W 3339   6.760  41.442   1.359
34977W        W 3340  42.519   5.814  12.418
34978W        W 3341  19.174  18.054  10.911
34979W        W 3342  14.256  15.158  14.494
34980W        W 3343  44.855  39.375  10.576
34981W        W 3344  25.551  33.001  11.471
34982W        W 3345  32.411  34.517   0.315
34983W        W 3346  38.521  10.205  14.398
34984W        W 3347  18.553  38.034  10.505
34985W        W 3348  25.663  27.991  11.548
34986W        W 3349  20.192  11.774   2.854
34987W        W 3350  34.028  36.566  10.611
34988W        W 3351  37.489  24.118  11.561
34989W        W 3352   9.279   0.396   3.324
34990W        W 3353  12.676  18.082  10.560
34991W        W 3354   0.294  43.360   0.357
34992W        W 3355  17.088  30.459   1.822
34993W        W 3356  17.676  31.495  14.414
34994W        W 3357  41.322  18.574  14.289
34995W        W 3358   9.393  17.194  13.462
34996W        W 3359  11.261   9.658   3.236
34997W        W 3360   6.242  40.976   1.264
34998W        W 3361  14.732  39.906  10.607
34999W        W 3362   4.893   1.788   2.855
35000W        W 3363  13.680  39.463   4.298
35001W        W 3364  39.406  36.587  12.952
35002W        W 3365  16.791  23.687  12.367
35003W        W 3366  29.072   7.172  11.507
35004W        W 3367  21.651  42.860  13.475
35005W        W 3368  39.063  37.461   0.740
35006W        W 3369  35.446  20.137   3.195
35007W        W 3370   0.976  37.545  13.311
35008W        W 3371  18.733   3.217  11.548
35009W        W 3372  44.385   0.464   4.698
35010W        W 3373  36.859   8.863   3.656
35011W        W 3374  11.800  25.094  13.912
35012W        W 3375  26.094  27.045  10.974
35013W        W 3376  23.058  10.310   0.365
35014W        W 3377  38.374  38.976  11.508
35015W        W 3378  30.597  42.931  13.044
35016W        W 3379  42.792   7.321   2.718
35017W        W 3380  18.241  31.498  14.427
35018W        W 3381  13.609  12.166   2.307
35019W        W 3382  19.716   2.401   3.700
35020W        W 3383  13.747  14.642  11.924
35021W        W 3384  14.801  36.912   3.227
35022W        W 3385   3.855  28.121  11.550
35023W        W 3386  40.521  34.008  10.562
35024W        W 3387  35.512   9.370  11.129
35025W        W 3388  11.212  21.591   1.874
35026W        W 3389  32.541   0.952  14.311
35027W        W 3390  35.025  18.680   4.147
35028W        W 3391   4.209  14.664   3.312
35029W        W 3392  37.918   6.355   2.235
35030W        W 3393  21.742   1.445   3.814
35031W        W 3394  31.485  29.593  10.442
35032W        W 3395  39.954  22.584  12.832
35033W        W 3396  25.116  29.978   3.291
35034W        W 3397  42.905  26.559  13.946
35035W        W 3398  31.571  35.098   2.366
35036W        W 3399  32.482  35.503  10.440
35037W        W 3400  19.574  25.116  11.046
35038W        W 3401  37.418  29.057   4.807
35039W        W 3402  19.228  40.975   3.660
35040W        W 3403   0.848  33.532   2.857
35041W        W 3404  29.065   3.452  12.833
35042W        W 3405  12.705  15.683  11.111
35043W        W 3406  16.811  12.163  13.012
35044W        W 3407   8.389  33.442   2.663
35045W        W 3408  16.225  17.135  14.949
35046W        W 3409  36.577  10.292  12.370
35047W        W 3410  41.395  18.156  14.924
35048W        W 3411  34.370  11.214  12.395
35049W        W 3412   4.379  33.917  10.580
35050W        W 3413  28.134  17.558  11.870
35051W        W 3414  26.661  10.678   3.161
35052W        W 3415  26.050  38.070  12.984
35053W        W 3416   6.287  36.436   3.697
35054W        W 3417  12.831   5.819   5.089
35055W        W 3418  38.931  14.707   4.323
35056W        W 3419   0.303   5.262   0.331
35057W        W 3420  33.517  13.132  14.764
35058W        W 3421  13.653  22.637  13.952
35059W        W 3422  35.944  29.566   1.225
35060W        W 3423  24.177   4.918   1.370
35061W        W 3424   0.791  20.238  11.595
35062W        W 3425  11.711  33.969  11.863
35063W        W 3426  27.672  36.421  13.835
35064W        W 3427  11.363  42.527  14.472
35065W        W 3428  30.587  14.611   4.618
35066W        W 3429  29.657  30.458  12.052
35067W        W 3430  28.133  32.966  10.071
35068W        W 3431  33.025   9.737  11.389
35069W        W 3432  21.037  42.844  14.001
35070W        W 3433   2.446  39.504   0.848
35071W        W 3434  44.916   5.359  11.984
35072W        W 3435  15.322   9.259   2.691
35073W        W 3436   4.904   3.314   4.738
35074W        W 3437   9.302  16.802   0.359
35075W        W 3438  24.054  16.093  13.402
35076W        W 3439  38.025   6.813   0.277
35077W        W 3440  16.623   3.258   2.231
35078W        W 3441   9.386   8.654   0.806
35079W        W 3442  16.146  42.423   0.838
35080W        W 3443  34.059  12.119   3.747
35081W        W 3444  21.024   3.245   0.478
35082W        W 3445   8.688  42.969   2.260
35083W        W 3446  24.531  23.616  12.052
35084W        W 3447   8.667   0.357  14.367
35085W        W 3448  43.916  10.853   2.815
35086W        W 3449   2.441  33.551  12.512
35087W        W 3450  38.326  27.573  11.517
35088W        W 3451  37.411  29.153   1.827
35089W        W 3452  26.581  15.793  14.856
35090W        W 3453  36.039  31.902   1.922
35091W        W 3454   0.294  13.804   1.318
35092W        W 3455  29.567   1.298  11.443
35093W        W 3456  22.575  26.114   0.261
35094W        W 3457   4.891  14.784   3.648
35095W        W 3458   1.848  18.091   1.334
35096W        W 3459  10.746  44.876  12.488
35097W        W 3460  11.133   4.889   4.172
35098W        W 3461  25.539  44.347   2.826
35099W        W 3462  16.174   7.882   0.930
35100W        W 3463  10.639  34.457  10.977
35101W        W 3464  12.792   0.775  12.879
35102W        W 3465  23.493  11.354  10.546
35103W        W 3466  41.867  23.713  10.927
35104W        W 3467  24.626  20.237  10.564
35105W        W 3468  41.351  18.212  14.302
35106W        W 3469  23.038   8.292   3.272
35107W        W 3470  30.613  35.986   4.121
35108W        W 3471  40.869  42.798   2.839
35109W        W 3472   5.303   4.713  12.925
35110W        W 3473  15.709  40.328  10.897
35111W        W 3474  40.005  44.898  10.639
35112W        W 3475  19.722  42.506   5.195
35113W        W 3476   5.335  34.990  11.034
35114W        W 3477  30.141  14.122  12.411
35115W        W 3478   3.761  35.920  12.019
35116W        W 3479   1.362  16.616  13.880
35117W        W 3480  30.427  10.324  14.955
35118W        W 3481  42.342  24.610   3.323
35119W        W 3482  37.875  12.822  12.397
35120W        W 3483  32.119  32.467   3.158
35121W        W 3484  32.084  31.087   0.925
35122W        W 3485   8.339  21.566   2.820
35123W        W 3486  27.612  43.905  10.942
35124W        W 3487  35.439  20.595   3.678
35125W        W 3488  38.965  40.320   2.352
35126W        W 3489  10.779  28.533   2.366
35127W        W 3490   2.890   2.888  10.446
35128W        W 3491  44.492   5.806   1.327
35129W        W 3492   8.816  32.437   2.399
35130W        W 3493  27.584   1.325   1.383
35131W        W 3494   8.348  33.946   4.835
35132W        W 3495  20.680  15.187   0.829
35133W        W 3496   2.330  41.535   2.783
35134W        W 3497   2.232  24.101   5.189
35135W        W 3498  43.344  34.963   2.374
35136W        W 3499  10.858  31.124   0.481
35137W        W 3500  24.063  25.065   3.267
35138W        W 3501   6.305  14.161   4.748
35139W        W 3502   0.916  15.732  13.881
35140W        W 3503  42.359  14.118   1.259
35141W        W 3504  30.582  44.802   1.290
35142W        W 3505  14.778  19.161  13.858
35143W        W 3506  19.760   6.221  13.345
35144W        W 3507  25.966  24.501  11.424
35145W        W 3508  23.654   9.268  11.521
35146W        W 3509  35.066  28.159   1.300
35147W        W 3510   3.233   3.228   0.889
35148W        W 3511  15.296  37.421   2.682
35149W        W 3512  22.665  21.141   4.229
35150W        W 3513  31.537  11.289   3.155
35151W        W 3514  24.125  12.803   4.598
35152W        W 3515  20.203  17.573  12.824
35153W        W 3516  31.139   1.843  11.545
35154W        W 3517  29.043  20.191   0.795
35155W        W 3518  24.986   4.424   0.781
35156W        W 3519   0.870  16.118  13.423
35157W        W 3520  37.936  41.497   1.357
35158W        W 3521   0.898  27.660  13.058
35159W        W 3522  41.441  33.475  12.902
35160W        W 3523   0.756  28.637  14.830
35161W        W 3524  11.642   0.379   2.283
35162W        W 3525  39.538  34.969  14.501
35163W        W 3526  22.187  41.353   3.246
35164W        W 3527  32.574   7.676  14.320
35165W        W 3528  26.497  38.477  11.122
35166W        W 3529  23.538   0.388  14.955
35167W        W 3530  36.848  24.677  11.036
35168W        W 3531  29.460  15.183   4.192
35169W        W 3532  10.682  11.230  10.940
35170W        W 3533  30.508   5.880   4.803
35171W        W 3534   1.968  11.660  14.280
35172W        W 3535  33.110   2.949   4.687
35173W        W 3536   0.857   4.700   0.760
35174W        W 3537   5.740  35.543   4.730
35175W        W 3538  39.013   8.692   2.190
35176W        W 3539  23.679  20.255   4.748
35177W        W 3540   6.185   7.766  12.053
35178W        W 3541   6.699  37.438   4.244
35179W        W 3542  22.166  43.949  12.895
35180W        W 3543  32.093  13.795   2.214
35181W        W 3544  12.173  10.259  11.450
35182W        W 3545  36.982  11.136   3.199
35183W        W 3546   0.302   6.755  12.992
35184W        W 3547  25.053  39.423  10.979
35185W        W 3548  42.974  21.250   3.298
35186W        W 3549   1.899  44.262  12.499
35187W        W 3550  26.172  12.678  12.561
35188W        W 3551   6.718   5.696   1.316
35189W        W 3552  42.881  38.871   3.203
35190W        W 3553  24.160   4.886   3.831
35191W        W 3554  32.890  17.166   3.780
35192W        W 3555  31.452  23.093  13.988
35193W        W 3556  22.199  23.051   0.732
35194W        W 3557  24.558  13.647  13.899
35195W        W 3558  27.479   3.805  14.419
35196W        W 3559  35.934  33.003   0.887
35197W        W 3560  44.386  32.104   2.808
35198W        W 3561  42.994  17.251  14.299
35199W        W 3562   4.412  21.724  11.884
35200W        W 3563   4.734   9.295   0.784
35201W        W 3564  13.650  39.354   0.483
35202W        W 3565  32.583  15.736  14.991
35203W        W 3566   0.862  26.677   2.747
35204W        W 3567  35.991  30.012  11.473
35205W        W 3568  15.799   1.363  10.414
35206W        W 3569  24.690  17.601   0.768
35207W        W 3570   7.316   5.875  11.577
35208W        W 3571  26.115  30.085   4.158
35209W        W 3572   7.835  24.087   2.669
35210W        W 3573  16.177  27.005   1.848
35211W        W 3574  39.411  16.302   0.444
35212W        W 3575  29.032  12.784  14.280
35213W        W 3576  24.535   4.416   0.912
35214W        W 3577  23.606  29.135   3.204
35215W        W 3578  14.805   6.901   5.226
35216W        W 3579   3.723  42.892  12.372
35217W        W 3580  34.555  28.493  12.345
35218W        W 3581  13.254  14.300   0.797
35219W        W 3582  42.009  26.458  11.427
35220W        W 3583  40.476  27.559   1.294
35221W        W 3584  17.641  41.479  12.021
35222W        W 3585  29.082  29.453  10.926
35223W        W 3586  35.882  30.578   0.750
35224W        W 3587  34.871   7.237  12.019
35225W        W 3588  24.067  17.244  13.480
35226W        W 3589  32.511  25.538   2.698
35227W        W 3590  11.159  16.629   4.801
35228W        W 3591  31.430   0.450  11.868
35229W        W 3592  31.959  24.153   1.842
35230W        W 3593  38.336  33.458  10.439
35231W        W 3594  34.042  28.146   4.651
35232W        W 3595  44.947  42.976   4.125
35233W        W 3596  42.326  22.233   1.377
35234W        W 3597   6.230  34.472   0.803
35235W        W 3598  36.394  14.591   4.209
35236W        W 3599   1.969  37.525   0.361
35237W        W 3600  25.066  38.044  11.401
35238W        W 3601  41.314  37.437   0.463
35239W        W 3602   6.828  40.894  12.053
35240W        W 3603   5.863  39.363  13.489
35241W        W 3604  17.586  38.038  11.995
35242W        W 3605   4.366  16.178   3.305
35243W        W 3606  42.498  39.470   0.277
35244W        W 3607  43.018  30.052  14.900
35245W        W 3608  20.578  33.925  14.813
35246W        W 3609  41.884  43.276  12.433
35247W        W 3610   4.824  36.495   2.684
35248W        W 3611  35.042  39.402   3.326
35249W        W 3612  24.224  10.634   2.702
35250W        W 3613   9.278  41.459   2.771
35251W        W 3614  35.995  31.046   1.740
35252W        W 3615  26.048  40.810   1.380
35253W        W 3616   6.326  37.075  13.496
35254W        W 3617  38.498  13.333   0.940
35255W        W 3618   8.251   1.963  13.948
35256W        W 3619  28.047  26.122  11.910
35257W        W 3620  22.200   1.407  13.312
35258W        W 3621  20.640  20.544   0.254
35259W        W 3622  32.939  21.249  10.513
35260W        W 3623  36.582  14.804  12.967
35261W        W 3624  26.978  12.670  13.048
35262W        W 3625  25.568  40.540  10.079
35263W        W 3626  17.082  33.408  11.506
35264W        W 3627  18.737  38.940   1.798
35265W        W 3628  13.112  31.553   2.789
35266W        W 3629   2.378  16.283  10.502
35267W        W 3630  23.575  39.946   0.246
35268W        W 3631   3.460   2.281   1.433
35269W        W 3632  32.551  14.197  11.371
35270W        W 3633  13.144  12.672   2.266
35271W        W 3634  21.524  13.812   0.314
35272W        W 3635  43.460  26.981  14.788
35273W        W 3636  10.350  14.806   5.138
35274W        W 3637  30.541  44.286   4.706
35275W        W 3638  12.613  28.536   0.365
35276W        W 3639  30.942  22.722  10.453
35277W        W 3640  22.532  13.346  13.328
35278W        W 3641  37.420  11.226   2.218
35279W        W 3642  23.498  22.060   4.311
35280W        W 3643  13.136  21.518  11.475
35281W        W 3644  14.659  38.934   2.876
35282W        W 3645  31.035  34.989   2.256
35283W        W 3646   0.252  38.490  13.321
35284W        W 3647  30.075  13.228   1.709
35285W        W 3648  35.095  33.077  12.918
35286W        W 3649  17.689  17.741  10.571
35287W        W 3650   0.488  34.433  10.593
35288W        W 3651  17.574  32.434   1.884
35289W        W 3652  23.221  30.962  10.638
35290W        W 3653  28.656   2.748  14.409
35291W        W 3654  36.399  12.674  10.130
35292W        W 3655  17.557  34.380   2.754
35293W        W 3656  42.896   4.286   3.248
35294W        W 3657  17.716  13.120  12.466
35295W        W 3658  26.972  35.927  13.358
35296W        W 3659  11.210  30.573   0.743
35297W        W 3660  32.075   5.333  12.376
35298W        W 3661  21.191  12.197  12.892
35299W        W 3662  18.613  37.890  14.387
35300W        W 3663   5.716  40.981  14.389
35301W        W 3664  39.889  38.881   0.782
35302W        W 3665   9.673  21.175   4.160
35303W        W 3666   8.754  26.006  13.464
35304W        W 3667  25.647  27.043   0.858
35305W        W 3668  24.544  11.312   0.838
35306W        W 3669  21.205  43.401   1.282
35307W        W 3670  43.992  21.111   4.785
35308W        W 3671  38.986  34.099  10.452
35309W        W 3672  31.062  20.039  11.869
35310W        W 3673   1.855   7.272   2.819
35311W        W 3674  38.868  21.130   1.899
35312W        W 3675  39.447  24.652   4.209
35313W        W 3676  40.890  41.945  11.946
35314W        W 3677   2.860  12.851  13.899
35315W        W 3678  31.541   8.272  11.516
35316W        W 3679  22.189   2.346  11.534
35317W        W 3680  40.455  37.481   4.693
35318W        W 3681  28.534  28.068   4.684
35319W        W 3682  21.123  31.481   0.949
35320W        W 3683   2.835  15.643  14.765
35321W        W 3684  21.051  41.503  14.010
35322W        W 3685  35.070   5.427  12.522
35323W        W 3686  37.392   0.310   4.611
35324W        W 3687   3.822  26.202   3.674
35325W        W 3688   9.354  18.257  14.365
35326W        W 3689   0.914  44.944   3.274
35327W        W 3690   9.812  10.831  11.020
35328W        W 3691   9.848   6.715   3.752
35329W        W 3692  21.607  41.444  13.902
35330W        W 3693  34.095  12.283   4.211
35331W        W 3694  19.246  34.081   0.354
35332W        W 3695  17.590  17.709  12.943
35333W        W 3696  10.792  27.602   2.773
35334W        W 3697  39.533  18.253  10.431
35335W        W 3698   5.406  21.749   0.253
35336W        W 3699  34.995   1.261  13.529
35337W        W 3700   3.866  44.270  11.512
35338W        W 3701  20.728  21.058   0.343
35339W        W 3702  36.545  17.193  10.618
35340W        W 3703  22.068  25.604  13.922
35341W        W 3704  13.340  37.460   0.728
35342W        W 3705  21.033  31.600  12.022
35343W        W 3706  22.152  36.937   1.914
35344W        W 3707  44.977  32.636  12.564
35345W        W 3708  11.755  12.170   3.668
35346W        W 3709   1.780  37.888   0.761
35347W        W 3710   2.758  38.860   2.732
35348W        W 3711   1.449  11.659   0.738
35349W        W 3712  23.039  14.160   1.350
35350W        W 3713  20.256   5.276   1.216
35351W        W 3714  39.506  25.712   3.809
35352W        W 3715  17.078  10.726   3.183
35353W        W 3716  39.957  44.758  13.435
35354W        W 3717   0.891  14.628   0.435
35355W        W 3718  36.923  31.103   0.246
35356W        W 3719  20.261  16.281   4.710
35357W        W 3720   0.809  21.619  11.034
35358W        W 3721   6.350  27.066  13.467
35359W        W 3722  40.869  19.566   4.246
35360W        W 3723  30.998  40.800   2.788
35361W        W 3724  38.538  21.669   3.257
35362W        W 3725  24.106  28.168  14.393
35363W        W 3726  23.672   9.294  10.601
35364W        W 3727  27.471  16.131   1.351
35365W        W 3728  33.481  24.660   4.603
35366W        W 3729  19.760  37.552  10.575
35367W        W 3730  16.246  20.199  10.514
35368W        W 3731   0.973  17.783  14.493
35369W        W 3732  31.143  20.616  11.520
35370W        W 3733   2.378   6.271  12.853
35371W        W 3734  41.514  30.950   4.813
35372W        W 3735  23.060  23.069   4.667
35373W        W 3736   5.240  30.951   1.773
35374W        W 3737  19.550  18.225   1.402
35375W        W 3738  41.857   4.215   2.790
35376W        W 3739   4.307   1.362   1.419
35377W        W 3740  24.603  18.560   0.481
35378W        W 3741  27.609  11.791   0.805
35379W        W 3742   1.333  42.994   1.895
35380W        W 3743  43.358  38.069   3.857
35381W        W 3744  10.734  41.393   4.827
35382W        W 3745  13.650   9.195  11.872
35383W        W 3746  24.724  18.701  14.947
35384W        W 3747   0.273   6.192  14.843
35385W        W 3748  11.135   1.914   3.350
35386W        W 3749  26.699   2.832   3.866
35387W        W 3750  18.212  26.681  10.542
35388W        W 3751  34.603  44.769  10.971
35389W        W 3752   2.440   4.344  10.522
35390W        W 3753  26.198   2.946  10.467
35391W        W 3754  17.304  29.925   9.933
35392W        W 3755  24.048   0.456   2.847
35393W        W 3756  10.688  19.678  14.881
35394W        W 3757   6.769  39.533   2.191
35395W        W 3758  18.705  28.103   2.286
35396W        W 3759  38.970  13.771   4.224
35397W        W 3760  17.721  42.855  11.873
35398W        W 3761  33.533  12.235  14.340
35399W        W 3762   6.691  12.214  11.435
35400W        W 3763  23.720   2.840  13.015
35401W        W 3764  26.193  14.203   1.410
35402W        W 3765  40.971   2.922  14.385
35403W        W 3766  28.452  21.644   3.215
35404W        W 3767  38.426   5.888  10.901
35405W        W 3768   9.762  28.545   2.190
35406W        W 3769  33.874  33.457   1.394
35407W        W 3770  18.700  35.063  14.943
35408W        W 3771  22.212  33.621  12.387
35409W        W 3772  20.754  19.178  11.946
35410W        W 3773  18.550  41.501   0.821
35411W        W 3774  35.928  12.194   2.758
35412W        W 3775   4.778  38.364  12.400
35413W        W 3776  44.850  29.639  11.488
35414W        W 3777  19.212  43.009  13.868
35415W        W 3778  33.109  15.288  11.571
35416W        W 3779  10.714   8.719  13.529
35417W        W 3780   1.948  23.213  13.041
35418W        W 3781  16.740  33.556   0.334
35419W        W 3782  15.264  39.434  13.463
35420W        W 3783  14.191   5.310   2.678
35421W        W 3784   6.214  19.051  13.311
35422W        W 3785  30.460  37.504   0.483
35423W        W 3786  19.160  36.964   4.150
35424W        W 3787  43.940  22.519  12.351
35425W        W 3788  11.773  23.703  14.009
35426W        W 3789  25.045  37.399  11.986
35427W        W 3790  14.643  25.577  14.826
35428W        W 3791  29.625  32.026  13.486
35429W        W 3792  34.043   7.257  11.990
35430W        W 3793   8.367  25.971   2.311
35431W        W 3794   8.658  42.921  13.981
35432W        W 3795   5.354  30.470  14.817
35433W        W 3796   5.704  44.890   0.950
35434W        W 3797  35.538  27.024   2.882
35435W        W 3798  23.146   1.359  12.963
35436W        W 3799   5.747   4.255  11.889
35437W        W 3800  26.638  19.707   0.289
35438W        W 3801  38.352  30.091  10.438
35439W        W 3802   7.879  14.265  13.978
35440W        W 3803  21.658  38.018   1.707
35441W        W 3804  22.520  23.189  11.466
35442W        W 3805  10.851  32.118  11.409
35443W        W 3806  40.924  35.978  11.867
35444W        W 3807  19.634  26.100   1.748
35445W        W 3808   0.812  25.094  12.399
35446W        W 3809  33.123  26.666  11.022
35447W        W 3810  14.782   8.870   4.637
35448W        W 3811  43.020  28.519  11.387
35449W        W 3812  29.973   8.375   3.346
35450W        W 3813  23.619  22.593   2.723
35451W        W 3814  20.056  34.431   1.804
35452W        W 3815  19.071  38.536   0.742
35453W        W 3816  17.278  43.419  13.541
35454W        W 3817   8.333  31.571   4.711
35455W        W 3818  33.954  38.501   1.746
35456W        W 3819  14.820  43.317   2.229
35457W        W 3820  15.789  41.847   0.328
35458W        W 3821  44.433  17.182   0.823
35459W        W 3822  30.023  35.391  11.389
35460W        W 3823  11.736  17.081   3.836
35461W        W 3824  31.417  33.966  13.062
35462W        W 3825  31.971  20.601   4.827
35463W        W 3826   0.888  44.275   4.752
35464W        W 3827  29.081  22.643   0.943
35465W        W 3828   6.263  17.085  11.069
35466W        W 3829  12.621  26.110  14.981
35467W        W 3830   5.294  19.690  11.005
35468W        W 3831  21.560  15.799   0.268
35469W        W 3832  41.320  10.149   4.682
35470W        W 3833   2.904  18.781   3.255
35471W        W 3834  28.438  22.519   2.263
35472W        W 3835  39.487  13.790  13.321
35473W        W 3836  39.482   9.833  12.358
35474W        W 3837   6.880  11.289   3.250
35475W        W 3838   2.742  15.224   2.187
35476W        W 3839  11.286   2.313  10.907
35477W        W 3840   5.419  19.048   4.353
35478W        W 3841  21.597   5.716   3.362
35479W        W 3842  38.420  17.199   1.257
35480W        W 3843  24.595  35.490   3.316
35481W        W 3844  29.522   5.776  12.937
35482W        W 3845  43.830  11.164  10.926
35483W        W 3846  26.506   8.379  11.481
35484W        W 3847   7.384   7.180  14.459
35485W        W 3848   8.821  29.066   4.817
35486W        W 3849  40.527  22.233  12.037
35487W        W 3850   3.943  11.622  13.995
35488W        W 3851  10.274  24.014  10.462
35489W        W 3852   0.481  32.533  14.450
35490W        W 3853   7.735  12.838   0.349
35491W        W 3854  13.819  39.948   2.296
35492W        W 3855   1.391  16.608   4.220
35493W        W 3856  31.626  23.658   0.367
35494W        W 3857  16.733  41.807   4.766
35495W        W 3858  23.606  36.950  11.520
35496W        W 3859  41.425   2.367   4.751
35497W        W 3860  37.497  22.182  11.866
35498W        W 3861   0.783  21.072   5.272
35499W        W 3862   9.890  43.443  11.511
35500W        W 3863  32.607  31.478  13.426
35501W        W 3864  42.021  29.939  13.992
35502W        W 3865  38.000  10.382   1.315
35503W        W 3866   6.816  10.702   0.453
35504W        W 3867  26.978  15.746  11.583
35505W        W 3868   1.392  15.776   0.868
35506W        W 3869  24.219  12.250  11.897
35507W        W 3870  26.062   9.707   0.889
35508W        W 3871   0.296  32.024  12.863
35509W        W 3872  39.446  25.489  11.525
35510W        W 3873  27.133  18.081  11.401
35511W        W 3874  34.998  17.778  12.835
35512W        W 3875  29.058  29.433   3.358
35513W        W 3876  24.553  15.094  13.511
35514W        W 3877  27.453   9.767  11.883
35515W        W 3878  21.525   5.291   1.446
35516W        W 3879  31.459  27.533   2.272
35517W        W 3880  40.054  12.731  13.854
35518W        W 3881  14.757  40.947   4.128
35519W        W 3882  21.174  15.691  12.469
35520W        W 3883  20.608   3.455   0.931
35521W        W 3884  24.033   2.340   4.254
35522W        W 3885  27.678  40.442  12.087
35523W        W 3886   2.793  38.535  14.895
35524W        W 3887  32.588   2.318  13.896
35525W        W 3888  37.847  39.544  14.792
35526W        W 3889  42.503  22.573   0.378
35527W        W 3890  33.121   0.891  13.367
35528W        W 3891  21.539  11.845   1.824
35529W        W 3892  32.523  11.861  11.094
35530W        W 3893  27.157   8.199   3.790
35531W        W 3894  14.802  15.254  13.435
35532W        W 3895  39.056  38.435  11.097
35533W        W 3896  31.035   9.302   3.847
35534W        W 3897  33.428  37.935  10.539
35535W        W 3898  24.592  43.324  13.884
35536W        W 3899  16.127  12.691  10.924
35537W        W 3900  19.248  29.583   3.161
35538W        W 3901  27.989  31.534  12.918
35539W        W 3902  39.480   6.248  14.325
35540W        W 3903  14.676  36.558  10.441
35541W        W 3904   4.337   5.221   0.918
35542W        W 3905  32.587   4.426  10.989
35543W        W 3906  38.002  23.145  13.916
35544W        W 3907   1.858  26.002   0.458
35545W        W 3908  16.737   6.843  14.881
35546W        W 3909  38.026  24.973  10.472
35547W        W 3910  21.623   9.393  14.874
35548W        W 3911  30.098   5.779   4.830
35549W        W 3912  32.549  33.128  10.624
35550W        W 3913  29.954  31.022   3.677
35551W        W 3914  28.125  26.027   0.809
35552W        W 3915  22.018  44.913  14.294
35553W        W 3916  43.394  43.356  14.893
35554W        W 3917   0.798  35.541   1.294
35555W        W 3918   5.786  36.930   2.194
35556W        W 3919  15.802  10.865  12.931
35557W        W 3920  40.821   0.767   4.771
35558W        W 3921  43.798  14.220   0.330
35559W        W 3922  43.828   4.355   4.835
35560W        W 3923  38.422  15.797  12.949
35561W        W 3924   2.928  38.566  13.958
35562W        W 3925  16.804   8.371  13.966
35563W        W 3926  35.427  19.739   2.245
35564W        W 3927  37.036  23.091  14.933
35565W        W 3928  29.442   8.386  11.378
35566W        W 3929  17.283  12.207  13.375
35567W        W 3930   5.334   5.209   1.267
35568W        W 3931   6.417  10.249   2.186
35569W        W 3932   3.721  33.915  14.866
35570W        W 3933  30.448  38.025  13.824
35571W        W 3934  43.311  33.572  10.966
35572W        W 3935  30.083   0.458  14.309
35573W        W 3936  12.670  15.279  14.450
35574W        W 3937  35.373  42.825   0.300
35575W        W 3938  13.236  17.160  14.880
35576W        W 3939  36.558  29.135  12.560
35577W        W 3940  13.756  43.275  13.934
35578W        W 3941  34.888  42.001  11.029
35579W        W 3942  19.565  31.962   1.379
35580W        W 3943  27.087  30.964   1.887
35581W        W 3944  16.737   9.169   0.828
35582W        W 3945   5.898  27.538   0.758
35583W        W 3946  38.908  18.296   3.319
35584W        W 3947   7.772  34.044  10.576
35585W        W 3948   0.389   7.815  12.526
35586W        W 3949  19.114  34.442  14.501
35587W        W 3950  38.046  11.298   3.646
35588W        W 3951  15.798  32.056  14.487
35589W        W 3952  41.977  30.067  12.937
35590W        W 3953  34.594  22.019   2.206
35591W        W 3954  26.997  11.356  12.901
35592W        W 3955  30.937   1.824   5.234
35593W        W 3956  32.070  28.520  11.088
35594W        W 3957  10.768  38.974  11.054
35595W        W 3958   4.839  24.106  10.609
35596W        W 3959   4.253  33.904  11.992
35597W        W 3960  14.169  26.205  11.487
35598W        W 3961  26.084  32.588   3.667
35599W        W 3962  24.540  26.057  11.577
35600W        W 3963  12.150  42.877  13.348
35601W        W 3964  41.475  19.619   1.215
35602W        W 3965   5.729  30.995  12.495
35603W        W 3966  10.365  35.550  11.519
35604W        W 3967  35.858  15.162   3.353
35605W        W 3968  19.614  43.286  12.049
35606W        W 3969  15.718   9.383  14.287
35607W        W 3970   6.716  28.568   3.314
35608W        W 3971  44.356  21.638  11.047
35609W        W 3972   7.727  15.590   1.409
35610W        W 3973   1.859  24.618  10.091
35611W        W 3974   5.707  31.943  14.453
35612W        W 3975   1.940  17.712   0.855
35613W        W 3976  43.492  29.592  11.560
35614W        W 3977   4.770  33.489  12.549
35615W        W 3978  25.085  38.917   3.350
35616W        W 3979  42.783  31.020   3.699
35617W        W 3980  39.041  14.285  10.629
35618W        W 3981  17.653  39.990  12.519
35619W        W 3982  18.053  14.273  10.480
35620W        W 3983   7.850  19.073   3.345
35621W        W 3984   5.395  30.452   0.907
35622W        W 3985  26.688  16.123   1.422
35623W        W 3986  39.883  25.554   2.851
35624W        W 3987  31.477   2.399  14.824
35625W        W 3988   7.701  33.560  11.001
35626W        W 3989  13.632  17.126  11.961
35627W        W 3990  20.709  35.520  10.468
35628W        W 3991  18.107   2.236  13.528
35629W        W 3992   4.816  43.455  10.994
35630W        W 3993  40.420  27.092   4.151
35631W        W 3994   0.493  27.138   1.451
35632W        W 3995  14.199   4.937   0.407
35633W        W 3996  18.076  32.512   2.329
35634W        W 3997   7.909   9.830  14.352
35635W        W 3998   1.917  31.514   2.850
35636W        W 3999  27.565  11.312  12.919
35637W        W 4000   8.225  31.909   1.364
35638W        W 4001  14.238  37.007   3.326
35639W        W 4002  29.161  32.029   1.385
35640W        W 4003  40.412   4.319  14.316
35641W        W 4004   1.350  27.563   0.294
35642W        W 4005   8.377   1.351   4.344
35643W        W 4006   5.700  20.761  12.995
35644W        W 4007  43.371   5.399  14.003
35645W        W 4008  34.464  12.162   4.808
35646W        W 4009  16.668  11.787   1.708
35647W        W 4010  10.747  17.269   0.264
35648W        W 4011   0.896  10.861  14.815
35649W        W 4012  26.044  10.819   4.618
35650W        W 4013  30.425   4.717  14.484
35651W        W 4014  31.083   3.360  12.053
35652W        W 4015   2.406  21.535   2.398
35653W        W 4016  18.698  39.907   2.379
35654W        W 4017  25.713  24.605   1.833
35655W        W 4018  15.221  19.250  13.892
35656W        W 4019  38.488  13.170  11.985
35657W        W 4020  44.989  43.830  12.360
35658W        W 4021  42.808  39.425  14.307
35659W        W 4022   6.381  30.655   2.267
35660W        W 4023  15.105  22.544  13.894
35661W        W 4024  17.788  12.125  11.113
35662W        W 4025  33.914   7.228  14.929
35663W        W 4026  31.042  25.673   0.756
35664W        W 4027  26.079  26.993  10.610
35665W        W 4028  35.402  34.067   2.178
35666W        W 4029  41.026  41.836   4.724
35667W        W 4030   8.699   1.934   0.363
35668W        W 4031  27.039  38.974   2.338
35669W        W 4032  22.637  28.441  12.049
35670W        W 4033  20.034  43.328  12.861
35671W        W 4034  35.984   7.282  14.894
35672W        W 4035  36.036  26.593  10.495
35673W        W 4036  32.895   5.368   3.241
35674W        W 4037  25.652  19.589   1.303
35675W        W 4038  17.274  19.151  12.987
35676W        W 4039  28.678  21.624   1.722
35677W        W 4040  39.064   8.237  12.019
35678W        W 4041  20.624  38.014  14.799
35679W        W 4042  17.700   6.420  11.498
35680W        W 4043  18.767  32.449  12.489
35681W        W 4044   7.824  22.514   1.227
35682W        W 4045  10.325  23.721  12.414
35683W        W 4046  27.952  23.569  10.439
35684W        W 4047  39.405   0.370   0.313
35685W        W 4048  29.981   3.916  10.608
35686W        W 4049   8.728  42.012  10.616
35687W        W 4050  44.858  19.163  13.899
35688W        W 4051   4.340   3.753  13.868
35689W        W 4052  40.027  14.302  14.343
35690W        W 4053  30.095   1.443   3.691
35691W        W 4054  40.432   0.761   4.260
35692W        W 4055  16.167  33.951  10.893
35693W        W 4056  22.626  37.361  10.002
35694W        W 4057  32.481  40.470   1.839
35695W        W 4058  32.137  21.075  13.479
35696W        W 4059   0.876  17.673  14.977
35697W        W 4060   7.908  41.424  12.933
35698W        W 4061  31.540  34.999  10.959
35699W        W 4062  43.332  43.003   0.323
35700W        W 4063  21.703  20.222  13.854
35701W        W 4064  37.012   6.399   0.268
35702W        W 4065   7.902  23.143   0.835
35703W        W 4066  31.037  12.156   2.254
35704W        W 4067  21.260  38.971  11.603
35705W        W 4068  25.187  14.709   2.715
35706W        W 4069  12.252  10.366   0.402
35707W        W 4070  37.086  28.105   0.815
35708W        W 4071  12.741  18.164  13.795
35709W        W 4072  25.992  27.554   2.758
35710W        W 4073  36.448  15.680  13.831
35711W        W 4074  29.955  31.486  10.602
35712W        W 4075  43.425  36.516  13.881
35713W        W 4076  42.491  36.038   3.281
35714W        W 4077  23.179  16.575   1.285
35715W        W 4078  40.012  32.941   4.192
35716W        W 4079   0.932  20.250   1.880
35717W        W 4080  43.957  20.124   2.686
35718W        W 4081  44.834  43.275   0.755
35719W        W 4082   8.826   9.155   2.388
35720W        W 4083  33.610   1.380   2.225
35721W        W 4084  20.525  20.603   2.718
35722W        W 4085  20.692  37.031   2.711
35723W        W 4086  37.016  14.668  11.949
35724W        W 4087  23.989  37.557   0.377
35725W        W 4088  35.381  23.101   1.434
35726W        W 4089   1.850  17.193   1.773
35727W        W 4090  21.638  32.443  11.019
35728W        W 4091  27.614  36.965  11.044
35729W        W 4092  34.389   8.730  12.876
35730W        W 4093  39.923  18.251  14.305
35731W        W 4094  28.933  34.882  12.917
35732W        W 4095  29.638  44.440   0.844
35733W        W 4096  13.237  35.915   3.834
35734W        W 4097  44.926   3.295   1.802
35735W        W 4098   0.362  35.987  12.835
35736W        W 4099  39.033  31.484   2.829
35737W        W 4100  21.061  13.203  11.475
35738W        W 4101  38.981  18.204   4.323
35739W        W 4102  20.253   7.756  11.910
35740W        W 4103  20.212  36.998   2.801
35741W        W 4104   1.383  20.047  13.334
35742W        W 4105  10.174  13.748  10.982
35743W        W 4106  32.534  27.537   9.535
35744W        W 4107  11.694   6.294  14.346
35745W        W 4108  38.427  40.971   0.473
35746W        W 4109  31.092  15.101   0.739
35747W        W 4110  37.038   9.650   2.307
35748W        W 4111  24.990  32.967   2.329
35749W        W 4112  30.980  23.111   1.220
35750W        W 4113  40.995  39.897   3.184
35751W        W 4114  42.781   8.768   2.720
35752W        W 4115   7.280  11.732   3.252
35753W        W 4116  16.752   4.313   2.216
35754W        W 4117  22.572  42.939  14.309
35755W        W 4118  19.756  43.822  10.916
35756W        W 4119  12.648  38.937  14.287
35757W        W 4120  32.493  34.886  10.482
35758W        W 4121   6.807  31.497   3.203
35759W        W 4122  38.375  17.082  13.910
35760W        W 4123  20.053   8.679   2.236
35761W        W 4124  11.762   8.720   3.200
35762W        W 4125  15.740  36.905   2.682
35763W        W 4126  40.871  26.022   2.877
35764W        W 4127  24.701  28.023  10.552
35765W        W 4128   3.278  42.458  11.579
35766W        W 4129  22.235   1.246   4.229
35767W        W 4130  15.191  25.528   2.227
35768W        W 4131  43.305   3.366   3.816
35769W        W 4132  41.850  40.533  13.501
35770W        W 4133  23.092  34.433  13.040
35771W        W 4134  31.972   3.273  13.061
35772W        W 4135   2.423  34.999  14.512
35773W        W 4136  41.029  41.823   1.388
35774W        W 4137  22.703  44.367   0.292
35775W        W 4138  40.346   0.303   2.347
35776W        W 4139  27.446  27.943  12.913
35777W        W 4140  14.621  35.034   4.120
35778W        W 4141  43.420  41.335   2.778
35779W        W 4142  27.986  27.076   3.283
35780W        W 4143  15.621  34.598   2.289
35781W        W 4144  17.212  12.316  10.904
35782W        W 4145  11.355  32.904  10.626
35783W        W 4146  31.404  40.906  11.566
35784W        W 4147  13.170   6.370  13.439
35785W        W 4148  25.669  42.930   2.884
35786W        W 4149   4.339  41.908  14.368
35787W        W 4150  33.516  12.166   0.442
35788W        W 4151  24.156  39.500  11.102
35789W        W 4152  39.322  18.173   1.399
35790W        W 4153  35.461  42.842   3.329
35791W        W 4154   8.279  26.684   3.343
35792W        W 4155  41.810   9.184   2.829
35793W        W 4156   1.850  36.356   2.864
35794W        W 4157  37.838  16.219  13.323
35795W        W 4158  10.739  13.747  10.514
35796W        W 4159  28.040  24.080  12.850
35797W        W 4160  32.468  33.473   2.792
35798W        W 4161   3.770   1.932  13.064
35799W        W 4162   5.730  43.822   0.350
35800W        W 4163  35.973   3.458  11.379
35801W        W 4164  44.912  18.617  13.054
35802W        W 4165  13.224  13.122   1.283
35803W        W 4166  27.105  39.969  12.853
35804W        W 4167  23.568   4.339  10.491
35805W        W 4168  32.475  11.720   4.181
35806W        W 4169   7.740  10.798  10.441
35807W        W 4170  41.905  44.421  14.447
35808W        W 4171   1.978  22.718   2.416
35809W        W 4172  22.602  28.114   0.945
35810W        W 4173  41.354  23.707   4.206
35811W        W 4174  27.160  33.430   3.366
35812W        W 4175  24.074  29.086   4.270
35813W        W 4176  20.106  32.048  12.976
35814W        W 4177   4.235  27.554  13.526
35815W        W 4178  40.987  38.336  11.970
35816W        W 4179  17.207  11.174   4.257
35817W        W 4180  17.714  25.615  13.439
35818W        W 4181  13.178  40.364  11.025
35819W        W 4182  10.667  18.084   1.446
35820W        W 4183  12.271  24.562  13.307
35821W        W 4184   1.400   6.911  12.901
35822W        W 4185  28.648   6.720   4.312
35823W        W 4186  22.225   9.188  11.452
35824W        W 4187  20.759  35.394  12.088
35825W        W 4188  40.819  18.727   2.779
35826W        W 4189  42.810  29.612  13.053
35827W        W 4190  36.468  10.356   1.256
35828W        W 4191  34.510  39.834   4.782
35829W        W 4192   7.850  14.179   2.727
35830W        W 4193  32.947  27.134  12.470
35831W        W 4194   9.270  23.222   2.232
35832W        W 4195  32.582  18.654  12.548
35833W        W 4196  38.471   7.741   3.631
35834W        W 4197  23.689  25.077   2.274
35835W        W 4198   0.330  22.227  10.430
35836W        W 4199   3.891  17.189  10.554
35837W        W 4200  19.049  16.642  12.359
35838W        W 4201   6.751  33.423   0.410
35839W        W 4202  44.851  25.561   1.790
35840W        W 4203   1.304  37.883   4.626
35841W        W 4204  43.920  39.912   0.890
35842W        W 4205  31.605  43.483  13.315
35843W        W 4206  39.378   8.885   3.673
35844W        W 4207  22.584  23.177  10.437
35845W        W 4208  37.340  14.686   0.467
35846W        W 4209  26.115  26.499   0.481
35847W        W 4210  34.611  35.556  10.423
35848W        W 4211  17.099  31.070   3.283
35849W        W 4212   1.264  18.083  14.840
35850W        W 4213  28.657   1.275  13.876
35851W        W 4214  39.549  26.510   3.735
35852W        W 4215  16.626  17.700   1.925
35853W        W 4216  22.626  44.839  13.935
35854W        W 4217  19.666  38.001  14.846
35855W        W 4218  22.621  17.172   0.776
35856W        W 4219   3.364  12.316   3.213
35857W        W 4220   4.259  44.388  10.466
35858W        W 4221  35.096  28.475   1.796
35859W        W 4222  30.454   8.333   4.347
35860W        W 4223  39.349   4.450  10.437
35861W        W 4224   0.487  31.525  14.307
35862W        W 4225   8.399  35.948  13.927
35863W        W 4226  25.598   1.276  11.532
35864W        W 4227   4.307  40.974  11.943
35865W        W 4228  18.081  26.572   0.434
35866W        W 4229  22.505  41.863   1.376
35867W        W 4230  11.139  16.649   1.272
35868W        W 4231  28.641  42.002   4.639
35869W        W 4232  25.082  17.568  12.517
35870W        W 4233  18.663  12.666  13.960
35871W        W 4234  17.094   2.794  14.762
35872W        W 4235  15.217  44.411  13.370
35873W        W 4236  38.330  38.406   0.896
35874W        W 4237  28.518   9.342  12.829
35875W        W 4238  23.226   7.211  13.407
35876W        W 4239  37.489   1.302  11.888
35877W        W 4240  33.005   7.203  14.031
35878W        W 4241  13.744   6.227   1.357
35879W        W 4242  17.134   6.764   1.325
35880W        W 4243  29.154  20.200   3.673
35881W        W 4244  16.176  21.154  10.518
35882W        W 4245  25.152  19.610  12.533
35883W        W 4246   5.691   7.322   4.808
35884W        W 4247  17.070  33.561   3.759
35885W        W 4248  16.138  25.708  12.350
35886W        W 4249   9.800  23.998   1.860
35887W        W 4250  10.217  30.550  14.384
35888W        W 4251  12.636  12.778  11.484
35889W        W 4252  26.507   3.351  10.482
35890W        W 4253  43.328  34.865   5.206
35891W        W 4254   9.689  24.143  14.766
35892W        W 4255  34.988  11.794   3.208
35893W        W 4256  10.671   0.745   1.232
35894W        W 4257  27.067  23.085   0.833
35895W        W 4258   3.845  11.669   4.186
35896W        W 4259  22.024  23.999  12.520
35897W        W 4260  40.397  20.229   2.866
35898W        W 4261  43.928   0.317   4.819
35899W        W 4262  32.030  38.911   4.810
35900W        W 4263  39.378  26.030  13.872
35901W        W 4264   3.460  17.694   3.782
35902W        W 4265  26.468   1.441   4.654
35903W        W 4266   4.909  32.111  12.478
35904W        W 4267   0.294  44.826   1.766
35905W        W 4268  39.315  13.611  14.398
35906W        W 4269  10.164  22.053   5.207
35907W        W 4270  33.542  15.281  13.894
35908W        W 4271   1.366  26.488  14.994
35909W        W 4272  12.738   6.807  10.123
35910W        W 4273  28.957  21.559   0.253
35911W        W 4274  42.990  27.084   2.184
35912W        W 4275  36.527  23.020   0.896
35913W        W 4276  26.526   5.286  12.384
35914W        W 4277  14.689  40.806   2.774
35915W        W 4278  17.566  21.141  14.882
35916W        W 4279  11.301  12.358  13.310
35917W        W 4280  31.454   6.862   4.634
35918W        W 4281  15.280  20.603  11.862
35919W        W 4282   0.305   7.884  11.989
35920W        W 4283  29.467  41.983  10.420
35921W        W 4284   5.830   5.272  11.127
35922W        W 4285  40.800  22.040   0.842
35923W        W 4286  24.656  10.804   1.444
35924W        W 4287  21.053  33.507  13.032
35925W        W 4288  40.313  11.795  13.050
35926W        W 4289  24.486   6.412  11.930
35927W        W 4290   6.351   9.216   1.283
35928W        W 4291   2.811  29.090  14.373
35929W        W 4292  30.547  12.830   2.841
35930W        W 4293   3.736  25.211  10.965
35931W        W 4294  40.926  23.150   2.306
35932W        W 4295   4.353   3.738   3.849
35933W        W 4296   8.297  43.276   3.215
35934W        W 4297   8.700  11.752  13.861
35935W        W 4298  33.438  33.461  10.411
35936W        W 4299  35.924  25.469  12.501
35937W        W 4300  40.957  43.794  10.446
35938W        W 4301  31.613   2.809   2.331
35939W        W 4302   8.173  41.935   3.750
35940W        W 4303  27.476   3.938  11.077
35941W        W 4304  39.821  33.959   3.326
35942W        W 4305  40.465   0.364  13.890
35943W        W 4306  22.082  35.555  11.493
35944W        W 4307  11.290  17.096   0.396
35945W        W 4308   4.378  22.512   1.757
35946W        W 4309  18.115  33.061   2.782
35947W        W 4310  20.750  29.544  10.972
35948W        W 4311  25.711  10.768   0.818
35949W        W 4312  31.628   5.255  14.825
35950W        W 4313  25.220  14.783   4.154
35951W        W 4314  18.180  23.548   4.717
35952W        W 4315  18.709  13.174  11.409
35953W        W 4316  34.999  21.672   4.206
35954W        W 4317  19.780  20.142   1.380
35955W        W 4318  20.261   5.412  14.814
35956W        W 4319  38.040  18.646  12.362
35957W        W 4320  28.449  13.828  11.123
35958W        W 4321  23.665   0.834  10.950
35959W        W 4322  22.176  10.666  14.792
35960W        W 4323  17.757  19.734   3.739
35961W        W 4324  12.814  42.792  11.484
35962W        W 4325  23.002   3.786   4.711
35963W        W 4326  39.398  10.671   2.369
35964W        W 4327  32.065  13.280   2.256
35965W        W 4328   2.367  37.869   4.808
35966W        W 4329  27.075  33.900   2.347
35967W        W 4330   1.305  22.104  10.547
35968W        W 4331  33.050  33.418  14.492
35969W        W 4332  41.932  22.581   1.743
35970W        W 4333   4.910  34.515  13.790
35971W        W 4334  39.519  22.670  11.426
35972W        W 4335  25.160  39.015   0.736
35973W        W 4336  32.133  30.954   2.207
35974W        W 4337  18.240  42.874   1.269
35975W        W 4338  16.156  10.145   3.217
35976W        W 4339  22.605  12.178  12.931
35977W        W 4340  11.303   8.662  13.446
35978W        W 4341  25.540  20.619   1.813
35979W        W 4342  38.981  41.027   0.436
35980W        W 4343  42.998  11.231   0.774
35981W        W 4344   8.381  12.738   3.368
35982W        W 4345  11.699  20.222  12.041
35983W        W 4346  28.143  18.267   0.881
35984W        W 4347  33.947   9.813   2.790
35985W        W 4348  10.236  16.201   3.230
35986W        W 4349  20.687  17.064   1.433
35987W        W 4350  32.090  15.579   4.647
35988W        W 4351   1.340  42.857   0.929
35989W        W 4352   8.318   6.676  11.401
35990W        W 4353  21.155  21.585  10.888
35991W        W 4354  30.978   4.346  13.002
35992W        W 4355  40.336  39.967  12.838
35993W        W 4356  23.583  27.648  13.953
35994W        W 4357  18.561   0.864   2.189
35995W        W 4358   5.742   6.258  12.371
35996W        W 4359   8.823  42.971   3.195
35997W        W 4360  11.303  34.915   0.344
35998W        W 4361  15.716  33.612   1.440
35999W        W 4362  42.794  27.532  13.860
36000W        W 4363  10.272  34.863  12.971
36001W        W 4364  43.774  27.008  11.405
36002W        W 4365  11.273  25.619  11.099
36003W        W 4366  34.947  29.468   3.148
36004W        W 4367  27.155  14.147  12.502
36005W        W 4368  29.107  36.860  12.401
36006W        W 4369  24.670  10.775  11.989
36007W        W 4370  38.571  32.944  12.913
36008W        W 4371  43.466   1.460  10.599
36009W        W 4372  13.256  17.696  13.798
36010W        W 4373  33.040  40.803  13.058
36011W        W 4374  32.111  12.671  10.985
36012W        W 4375  25.517  18.791  13.455
36013W        W 4376   6.768  36.884  13.377
36014W        W 4377  33.888   1.306  10.570
36015W        W 4378  40.320  17.658  14.508
36016W        W 4379  26.973  43.952   0.805
36017W        W 4380  16.636  26.107   0.409
36018W        W 4381  37.950   4.353   3.241
36019W        W 4382  26.578   3.729   2.789
36020W        W 4383  31.035  10.702  11.518
36021W        W 4384  27.036  20.669   4.714
36022W        W 4385  31.473  32.949  11.525
36023W        W 4386  17.075  14.198   0.781
36024W        W 4387  23.683  13.213   2.258
36025W        W 4388  38.007  38.569   4.693
36026W        W 4389  40.998  31.068   2.783
36027W        W 4390  18.065  43.384  11.584
36028W        W 4391   2.452  36.083  10.504
36029W        W 4392   1.861  33.456   1.390
36030W        W 4393  30.077  29.426   2.846
36031W        W 4394  25.668  14.154  14.420
36032W        W 4395  20.062  30.558  12.056
36033W        W 4396   7.178  39.361  11.098
36034W        W 4397  32.621  15.242   2.350
36035W        W 4398   9.869  16.753  14.425
36036W        W 4399  38.566  14.624   1.921
36037W        W 4400  36.910  21.220  14.797
36038W        W 4401  30.555  15.319  10.503
36039W        W 4402  40.977  42.918  11.576
36040W        W 4403  16.167  10.665  13.027
36041W        W 4404  36.901  10.361  14.956
36042W        W 4405  31.909   1.279  13.340
36043W        W 4406  18.594  15.290   3.328
36044W        W 4407  34.991  37.367   2.219
36045W        W 4408  25.201  38.896   3.741
36046W        W 4409   3.732  24.210  11.537
36047W        W 4410  27.023  27.188  13.857
36048W        W 4411   3.356  41.940   2.662
36049W        W 4412  42.487  30.924  11.952
36050W        W 4413   5.367  40.045   3.185
36051W        W 4414  21.213  13.278  13.061
36052W        W 4415  21.685  37.855  11.950
36053W        W 4416  39.970  17.256  13.375
36054W        W 4417  39.493   7.258  13.859
36055W        W 4418  33.523  15.597   0.816
36056W        W 4419  28.138  32.061  10.977
36057W        W 4420   3.810  22.166  12.473
36058W        W 4421  43.409  10.633   4.310
36059W        W 4422  42.460   1.343  14.377
36060W        W 4423  27.607  33.885   3.279
36061W        W 4424  41.292   2.390  12.347
36062W        W 4425  27.185   3.879  11.009
36063W        W 4426  42.312   3.717   1.752
36064W        W 4427  26.661  21.519  12.501
36065W        W 4428  42.933  30.414  11.554
36066W        W 4429  20.244  42.016   0.805
36067W        W 4430   1.248  42.282  13.494
36068W        W 4431   2.837  31.962  13.386
36069W        W 4432  37.929  18.719  13.935
36070W        W 4433  24.670   5.293  14.308
36071W        W 4434  38.836  36.419   2.872
36072W        W 4435  22.015  30.017   2.697
36073W        W 4436  44.350  42.988  11.090
36074W        W 4437  20.029  29.972   1.888
36075W        W 4438  38.855  40.496   1.446
36076W        W 4439  22.577   4.822   4.695
36077W        W 4440  43.300  42.339  13.877
36078W        W 4441  20.756   8.333  14.983
36079W        W 4442   5.371  22.169   0.392
36080W        W 4443  17.200  24.996   1.405
36081W        W 4444   8.699  15.275   1.775
36082W        W 4445  17.136   1.398   1.719
36083W        W 4446  25.511  18.084   1.221
36084W        W 4447  18.594   9.714  12.431
36085W        W 4448  40.012   8.352   1.853
36086W        W 4449  21.718   1.467   1.261
36087W        W 4450  34.475   2.443  12.499
36088W        W 4451  22.591  12.165  11.007
36089W        W 4452  18.058   7.707   4.266
36090W        W 4453  32.042   4.915  13.938
36091W        W 4454  21.596   6.852  12.069
36092W        W 4455   5.706  32.005   3.786
36093W        W 4456  43.784   4.944  11.021
36094W        W 4457  14.158   0.437  10.995
36095W        W 4458   4.943  26.543  10.014
36096W        W 4459   2.888  43.314   3.277
36097W        W 4460  25.695  25.176   4.657
36098W        W 4461   2.821  37.847   0.903
36099W        W 4462  35.043  25.127  13.808
36100W        W 4463  43.808  44.967   4.354
36101W        W 4464  15.094  11.170  14.027
36102W        W 4465   7.364   0.489  14.346
36103W        W 4466  27.097  32.114   4.662
36104W        W 4467  31.465   0.771   5.798
36105W        W 4468  14.665  36.953   2.187
36106W        W 4469   5.289  37.542   3.647
36107W        W 4470  10.186  32.574   1.752
36108W        W 4471  26.637  21.573  14.297
36109W        W 4472   4.865  17.120  11.495
36110W        W 4473  30.062  18.078  12.349
36111W        W 4474  15.189  28.042  14.919
36112W        W 4475  32.980   8.266   4.245
36113W        W 4476  32.902  34.387   1.392
36114W        W 4477  24.140  26.150  11.905
36115W        W 4478   6.248  27.965  14.291
36116W        W 4479   1.876  14.696  11.104
36117W        W 4480  13.130   9.656   0.865
36118W        W 4481  11.696  26.696  13.975
36119W        W 4482  21.119  26.034  12.394
36120W        W 4483   0.953   4.898  11.535
36121W        W 4484   6.211   1.799  10.115
36122W        W 4485  16.082  10.281  13.357
36123W        W 4486  40.500  24.117   1.924
36124W        W 4487  32.627   9.886   0.942
36125W        W 4488  21.700  32.025   0.782
36126W        W 4489  32.402   1.376   3.178
36127W        W 4490  27.583  42.459   1.915
36128W        W 4491  24.149  31.628   3.639
36129W        W 4492  26.504  39.953  12.540
36130W        W 4493   5.732  22.125   2.896
36131W        W 4494  11.653  37.845  11.474
36132W        W 4495  27.659  25.045  14.477
36133W        W 4496  43.893  29.556   4.168
36134W        W 4497  16.242  34.481   0.263
36135W        W 4498   8.335  28.586  11.947
36136W        W 4499   1.430  27.489  13.436
36137W        W 4500  12.317  33.110   3.214
36138W        W 4501  13.817  38.494  10.645
36139W        W 4502  24.723  42.857  12.910
36140W        W 4503  30.623  23.082   2.185
36141W        W 4504  18.742  42.526   4.316
36142W        W 4505  28.623   0.964  14.451
36143W        W 4506  33.053  17.089   0.352
36144W        W 4507   7.881  10.265  10.142
36145W        W 4508  27.580   8.372   0.423
36146W        W 4509  35.557  26.202   3.860
36147W        W 4510  24.582   5.352   2.206
36148W        W 4511  22.739  19.640   1.246
36149W        W 4512  32.467  17.218  13.971
36150W        W 4513  27.562  28.471   2.304
36151W        W 4514   6.841  38.039   0.744
36152W        W 4515   7.731  40.892   4.745
36153W        W 4516  38.550   6.775  12.372
36154W        W 4517  40.510  11.731   0.760
36155W        W 4518   4.801  19.552   3.669
36156W        W 4519  11.651  22.218  14.011
36157W        W 4520   5.835   7.352   1.802
36158W        W 4521   9.384   8.838  11.478
36159W        W 4522  17.681  30.650  14.959
36160W        W 4523   7.789  31.604  14.957
36161W        W 4524  30.094  16.777  14.430
36162W        W 4525   1.824  41.343   2.676
36163W        W 4526  30.004  21.669   4.247
36164W        W 4527   3.834  34.437   2.384
36165W        W 4528  27.059  11.827  13.052
36166W        W 4529  17.140  37.070   1.800
36167W        W 4530   4.356  16.601  12.082
36168W        W 4531  38.548   3.461  14.955
36169W        W 4532  39.316  14.246  14.869
36170W        W 4533   6.713  42.837   3.859
36171W        W 4534  28.533   0.477   0.852
36172W        W 4535  14.262  43.356  12.923
36173W        W 4536  17.646   3.814  14.400
36174W        W 4537   3.416  21.165  13.445
36175W        W 4538  18.268  23.691   3.707
36176W        W 4539   9.753  17.664  12.944
36177W        W 4540  16.684  44.952  10.926
36178W        W 4541   3.826   5.744   1.216
36179W        W 4542  12.202  37.953   4.783
36180W        W 4543   2.863  29.110   3.250
36181W        W 4544  19.553  42.359   5.572
36182W        W 4545  19.771  40.362   4.831
36183W        W 4546  38.380  34.576   2.323
36184W        W 4547  31.435   8.384  14.335
36185W        W 4548  43.315  20.601  10.982
36186W        W 4549  22.608  40.492  14.299
36187W        W 4550  34.903  21.089   1.830
36188W        W 4551  31.643  16.190   0.434
36189W        W 4552  44.828   8.363  10.490
36190W        W 4553  26.203  27.012  14.307
36191W        W 4554   4.823   4.369  14.937
36192W        W 4555  40.913  40.956  14.339
36193W        W 4556  20.115  19.643  12.880
36194W        W 4557  38.568  39.002  13.367
36195W        W 4558  23.616  22.593  12.345
36196W        W 4559  23.182   5.754   3.226
36197W        W 4560  32.953  28.570   1.335
36198W        W 4561  41.972  17.682   3.801
36199W        W 4562  43.462   1.810  11.101
36200W        W 4563  24.650  18.580   2.310
36201W        W 4564   6.759  16.578   3.640
36202W        W 4565   9.204  23.544   9.987
36203W        W 4566  20.693  26.697   0.864
36204W        W 4567  22.103   5.714  10.566
36205W        W 4568   2.373  14.767   2.400
36206W        W 4569   6.328  42.397   1.294
36207W        W 4570   1.392  37.516   0.785
36208W        W 4571  21.137  40.932   0.909
36209W        W 4572  18.086  20.223   0.933
36210W        W 4573  20.177  16.651   2.728
36211W        W 4574  31.132  22.560   1.289
36212W        W 4575  24.108  43.896   2.254
36213W        W 4576  20.063   2.333   2.280
36214W        W 4577  11.793  43.290  12.570
36215W        W 4578   8.814  29.580  13.475
36216W        W 4579   6.866  13.632  14.354
36217W        W 4580  39.404  42.032   0.778
36218W        W 4581  24.568  38.842  11.078
36219W        W 4582  17.682  39.390   2.374
36220W        W 4583   3.329  25.061  11.929
36221W        W 4584  26.971  32.938  14.798
36222W        W 4585  21.074  36.937  12.512
36223W        W 4586  24.135  24.989  11.021
36224W        W 4587  29.000   8.674  14.784
36225W        W 4588  26.067  11.696   1.837
36226W        W 4589  38.975   0.249   2.840
36227W        W 4590  43.438  18.248   2.266
36228W        W 4591  39.999  32.594   0.891
36229W        W 4592  43.431   9.290  11.503
36230W        W 4593  20.101  15.811  10.469
36231W        W 4594  18.287  33.893  11.906
36232W        W 4595  39.995  36.369   3.702
36233W        W 4596  15.719  24.205  13.832
36234W        W 4597  34.956  33.480   4.645
36235W        W 4598  38.563  44.864  14.295
36236W        W 4599  14.746  33.966  10.998
36237W        W 4600  34.514  42.839  11.524
36238W        W 4601  44.337  41.857   4.162
36239W        W 4602  37.052  22.038   3.173
36240W        W 4603  38.351  37.900   3.741
36241W        W 4604  15.579   5.236  14.772
36242W        W 4605  16.641  12.718  11.480
36243W        W 4606  38.397  44.906   1.781
36244W        W 4607   3.266  22.166   5.722
36245W        W 4608   4.767  35.936   1.247
36246W        W 4609  20.212  36.928   0.739
36247W        W 4610  12.829  42.409  14.511
36248W        W 4611  41.397   9.153  11.455
36249W        W 4612   5.329  41.870  12.897
36250W        W 4613  31.009  43.984   2.277
36251W        W 4614   5.412   5.805   3.754
36252W        W 4615  28.644  36.874  12.007
36253W        W 4616  35.006  34.551   0.949
36254W        W 4617  29.166  16.793   4.180
36255W        W 4618   6.185  17.288  12.835
36256W        W 4619  40.022  34.076  14.837
36257W        W 4620  35.876  40.989   4.169
36258W        W 4621   3.257  18.171  14.916
36259W        W 4622  13.295  13.832   3.215
36260W        W 4623  32.587  18.114  11.917
36261W        W 4624  22.686  43.489   2.187
36262W        W 4625  17.183   9.309  11.025
36263W        W 4626  23.022  43.421  14.936
36264W        W 4627   9.657  16.102   1.423
36265W        W 4628  32.407   2.772  14.967
36266W        W 4629  41.442  14.123  13.524
36267W        W 4630   3.374   3.739   0.305
36268W        W 4631  30.158  39.044  11.029
36269W        W 4632   8.708  43.291   2.295
36270W        W 4633  16.568  22.064   1.400
36271W        W 4634  14.607  33.497  13.487
36272W        W 4635   0.494  32.921  11.111
36273W        W 4636   4.243  10.211  13.875
36274W        W 4637  38.530  19.561   1.426
36275W        W 4638  40.501  10.685  13.454
36276W        W 4639  10.383  21.023  14.473
36277W        W 4640  44.881  42.857   1.236
36278W        W 4641  28.023   5.910  14.316
36279W        W 4642  15.112  30.657  12.573
36280W        W 4643  43.938  10.805   2.253
36281W        W 4644  20.156  21.708  11.407
36282W        W 4645  24.692  44.392  14.280
36283W        W 4646   0.983   2.847  10.945
36284W        W 4647   5.283  39.524   1.756
36285W        W 4648  30.470  44.466  14.856
36286W        W 4649  40.886  41.908  11.098
36287W        W 4650   1.242  17.732   4.683
36288W        W 4651  13.710  33.091   1.924
36289W        W 4652  25.580  16.220   0.257
36290W        W 4653  41.885   2.246   0.402
36291W        W 4654  12.836  17.244   3.679
36292W        W 4655   2.333  31.901   0.838
36293W        W 4656   5.706  26.117   3.742
36294W        W 4657  34.443  14.104   2.897
36295W        W 4658   9.197  21.514  11.509
36296W        W 4659  23.497   5.288   1.737
36297W        W 4660   9.797  38.570   1.874
36298W        W 4661  44.469  42.777   2.836
36299W        W 4662  43.363  40.316   2.796
36300W        W 4663  37.071   1.237   4.349
36301W        W 4664  17.277  29.999  11.891
36302W        W 4665  41.484  15.288   1.416
36303W        W 4666  26.698  11.796  13.911
36304W        W 4667   2.849  13.108   3.271
36305W        W 4668  37.571  37.990  10.894
36306W        W 4669   1.847  44.439   3.708
36307W        W 4670  29.939  33.080   4.753
36308W        W 4671  26.004  14.719   2.186
36309W        W 4672   2.303  17.169   3.807
36310W        W 4673  35.477  41.964   2.850
36311W        W 4674  22.716  42.508   1.886
36312W        W 4675  32.993  37.078  12.014
36313W        W 4676  23.089   0.785  12.462
36314W        W 4677  23.553  12.723   0.270
36315W        W 4678  17.141   4.258  14.927
36316W        W 4679  31.909  29.055   3.151
36317W        W 4680  39.983  10.326  11.892
36318W        W 4681   8.893  26.969  12.951
36319W        W 4682  12.714  13.124   3.286
36320W        W 4683  23.717   9.757   2.777
36321W        W 4684   8.849  24.113   4.239
36322W        W 4685  39.490  21.637   2.898
36323W        W 4686   2.354  21.731  14.317
36324W        W 4687  36.541  15.167  12.571
36325W        W 4688  35.888  17.179   4.173
36326W        W 4689   2.359  30.979  12.461
36327W        W 4690   0.834  19.159  14.356
36328W        W 4691   5.859  25.707   1.396
36329W        W 4692  36.571  44.974   1.777
36330W        W 4693  41.024  20.738  13.987
36331W        W 4694   5.786  36.509  13.870
36332W        W 4695  10.860  25.654  11.606
36333W        W 4696  16.737  34.983   2.778
36334W        W 4697  31.916   5.330   0.928
36335W        W 4698   4.250   1.802   4.144
36336W        W 4699  39.462  33.469  10.073
36337W        W 4700  18.748  43.440  11.902
36338W        W 4701  40.390  13.154  10.931
36339W        W 4702   5.728   0.288   4.152
36340W        W 4703  19.753  20.632   2.784
36341W        W 4704  30.962  21.536   0.739
36342W        W 4705  18.653  40.438   4.115
36343W        W 4706   6.361  27.466   4.807
36344W        W 4707  41.508  26.139   1.850
36345W        W 4708  10.869  28.645   0.861
36346W        W 4709  34.875  42.840   5.182
36347W        W 4710   6.379  16.658  11.396
36348W        W 4711  30.148  32.135  14.919
36349W        W 4712  17.290  38.052   0.343
36350W        W 4713  17.775  37.564   2.858
36351W        W 4714  27.957  22.128   2.323
36352W        W 4715   8.180  39.398   0.863
36353W        W 4716  37.364   6.678   4.662
36354W        W 4717  36.016  42.811   3.226
36355W        W 4718  32.897   8.328  12.403
36356W        W 4719  10.705  41.415  11.407
36357W        W 4720  30.990  31.972   4.286
36358W        W 4721  24.601  14.707   0.249
36359W        W 4722   2.242   5.860  13.044
36360W        W 4723  34.520  35.940   3.322
36361W        W 4724   2.930  36.583   2.415
36362W        W 4725  15.807   9.747  14.386
36363W        W 4726  39.851  33.504   0.480
36364W        W 4727  18.667  43.764   1.409
36365W        W 4728   0.373  33.027  14.371
36366W        W 4729  41.525   4.922  11.540
36367W        W 4730  29.546   4.893   0.481
36368W        W 4731   1.384  33.476   0.882
36369W        W 4732  20.762  33.419  13.948
36370W        W 4733  38.005  40.942  11.469
36371W        W 4734  42.833  34.863  12.494
36372W        W 4735  42.348   1.461  11.412
36373W        W 4736  40.455   4.718   2.221
36374W        W 4737  43.329  11.748   1.378
36375W        W 4738  41.408   8.383  11.408
36376W        W 4739  13.133  37.456  13.952
36377W        W 4740  41.320  29.552   4.760
36378W        W 4741  32.104  37.368  12.003
36379W        W 4742  32.553  29.025   3.674
36380W        W 4743  15.297  15.326  12.475
36381W        W 4744   7.256  25.147  10.499
36382W        W 4745   6.253  10.641   3.315
36383W        W 4746  35.382  20.588  11.898
36384W        W 4747  37.080  10.201   1.404
36385W        W 4748  26.570  20.083  13.373
36386W        W 4749  31.608  14.095  10.545
36387W        W 4750   7.357  15.247  13.813
36388W        W 4751  39.437   1.403   3.717
36389W        W 4752  11.802   9.261   1.223
36390W        W 4753  11.804  25.008   1.743
36391W        W 4754  17.668  28.483  10.630
36392W        W 4755  18.283  31.545   3.164
36393W        W 4756  41.930  43.768   3.255
36394W        W 4757  26.036  28.031  12.893
36395W        W 4758   5.298   7.342  12.493
36396W        W 4759  20.118  26.509   4.129
36397W        W 4760  44.784   7.746  11.857
36398W        W 4761   4.393  27.494   4.757
36399W        W 4762  44.805  32.114   3.241
36400W        W 4763   5.701  13.642  12.557
36401W        W 4764   2.273  29.063  14.969
36402W        W 4765  27.047  14.736  10.111
36403W        W 4766  14.792  31.471   2.185
36404W        W 4767  34.926   6.857   1.364
36405W        W 4768  34.398  23.646  13.964
36406W        W 4769   8.213  42.327   2.340
36407W        W 4770   2.324  21.206  10.419
36408W        W 4771  22.589  16.272   1.431
36409W        W 4772   5.373  22.726  14.765
36410W        W 4773  35.093  32.532  12.532
36411W        W 4774  12.211   1.775  13.509
36412W        W 4775  30.630  23.734   4.645
36413W        W 4776  37.470  39.350   1.926
36414W        W 4777  21.180   0.917  13.958
36415W        W 4778  34.890   9.709   4.670
36416W        W 4779  39.451  28.443  14.801
36417W        W 4780  17.281  38.568   3.185
36418W        W 4781  11.749  35.103  12.085
36419W        W 4782  14.309   8.890   2.682
36420W        W 4783  15.606  15.266  12.045
36421W        W 4784   3.233   3.280   2.189
36422W        W 4785  43.294   4.856   1.899
36423W        W 4786  42.863  32.991  14.802
36424W        W 4787  23.106  37.833   1.740
36425W        W 4788  37.345  37.919   1.304
36426W        W 4789  12.151  34.894  10.576
36427W        W 4790  31.425   3.722   4.632
36428W        W 4791  12.744   0.744  14.020
36429W        W 4792  17.780   8.226   3.708
36430W        W 4793  41.964   1.455  13.957
36431W        W 4794  16.812  15.209  14.932
36432W        W 4795  16.650  24.133  11.485
36433W        W 4796  19.077  20.643   4.819
36434W        W 4797  15.195  38.057  13.826
36435W        W 4798  38.328  26.540  14.383
36436W        W 4799  26.652   0.460   0.917
36437W        W 4800   7.377   3.840   2.758
36438W        W 4801  32.983   0.790   4.721
36439W        W 4802  40.039  37.945   0.832
36440W        W 4803  33.993   5.716  12.460
36441W        W 4804  37.005   4.216  11.596
36442W        W 4805  32.923   4.345   0.354
36443W        W 4806  25.962  20.569   0.454
36444W        W 4807  34.980  20.143  10.414
36445W        W 4808   3.781  23.136   2.344
36446W        W 4809  23.076  14.717   3.328
36447W        W 4810  25.046  25.480  14.501
36448W        W 4811   9.215  27.103   3.680
36449W        W 4812  33.592  35.043  14.030
36450W        W 4813  30.555   2.960  11.553
36451W        W 4814  12.768  39.509   0.386
36452W        W 4815  38.827  30.645  11.066
36453W        W 4816  13.619  27.075   2.754
36454W        W 4817  20.649   0.487  12.395
36455W        W 4818  17.120  35.061  12.064
36456W        W 4819  32.457   7.263   2.380
36457W        W 4820  25.710   2.797  13.012
36458W        W 4821   5.804  26.478  14.385
36459W        W 4822  26.131  41.938  14.771
36460W        W 4823  22.536  35.068   3.762
36461W        W 4824  38.522  28.968  14.025
36462W        W 4825   5.726   7.899  14.887
36463W        W 4826  11.305  25.013   0.865
36464W        W 4827  12.716   7.284   3.851
36465W        W 4828  12.329  43.487  10.507
36466W        W 4829  37.500  37.369   2.221
36467W        W 4830  44.378  38.376  14.306
36468W        W 4831  25.059  24.596   2.849
36469W        W 4832  39.348   3.218   3.342
36470W        W 4833  28.589  20.259  14.466
36471W        W 4834  44.961  11.811   1.393
36472W        W 4835  22.664  23.587  12.934
36473W        W 4836  18.558  29.610  14.900
36474W        W 4837   4.424  15.256  10.996
36475W        W 4838   4.714  18.253   2.227
36476W        W 4839  35.873   3.293  10.633
36477W        W 4840  19.158   9.871   1.846
36478W        W 4841  33.925  30.122  12.830
36479W        W 4842  41.824  38.424  10.949
36480W        W 4843  12.281  23.704   3.688
36481W        W 4844  33.471  15.320  14.482
36482W        W 4845  30.998  30.105  14.803
36483W        W 4846  19.714   0.777  12.454
36484W        W 4847   7.795  10.358   2.415
36485W        W 4848   1.961  44.981   1.867
36486W        W 4849  22.745   0.760  11.054
36487W        W 4850  24.631  39.438   2.761
36488W        W 4851  31.481  31.076   3.769
36489W        W 4852  30.085  37.429   1.324
36490W        W 4853  40.845  40.307  12.891
36491W        W 4854  22.730   1.815   1.275
36492W        W 4855  18.076  40.914   2.189
36493W        W 4856  18.555  13.638  12.839
36494W        W 4857  26.168   9.649   2.402
36495W        W 4858   5.357  29.491  13.848
36496W        W 4859  10.183  22.108   1.431
36497W        W 4860  36.904   3.783  11.408
36498W        W 4861  33.993  30.496  12.994
36499W        W 4862  35.491   4.825   2.275
36500W        W 4863  36.515  20.683  11.542
36501W        W 4864  41.385  24.050   1.420
36502W        W 4865  14.173  24.546   2.330
36503W        W 4866  39.971   7.669   2.762
36504W        W 4867  19.154   7.894   3.843
36505W        W 4868   0.743  20.632  11.960
36506W        W 4869   9.774  24.611  12.363
36507W        W 4870   8.335  21.635   1.333
36508W        W 4871  11.704  12.299   4.619
36509W        W 4872  11.301  18.742   1.388
36510W        W 4873   9.854  34.526   2.314
36511W        W 4874   3.246  20.154   2.188
36512W        W 4875   5.758  24.587  12.426
36513W        W 4876  39.961  33.589  12.446
36514W        W 4877  39.964  26.615  12.442
36515W        W 4878  37.019  14.700   1.878
36516W        W 4879  38.557  26.657   1.379
36517W        W 4880  44.787  22.738  12.542
36518W        W 4881   4.236  39.325  13.811
36519W        W 4882  33.590   0.457   5.135
36520W        W 4883  39.517   8.900   2.832
36521W        W 4884  42.832  35.458   2.387
36522W        W 4885   6.269  39.979  14.470
36523W        W 4886  15.291  26.589  12.021
36524W        W 4887  26.147  15.579  10.486
36525W        W 4888   4.913  16.789   1.880
36526W        W 4889  38.961  24.121   1.741
36527W        W 4890  36.986  32.077   4.739
36528W        W 4891  43.860  22.080   4.336
36529W        W 4892   6.820  34.898  10.517
36530W        W 4893  20.671   3.452   2.249
36531W        W 4894  36.593  29.637  10.548
36532W        W 4895  18.223  35.504  12.874
36533W        W 4896  27.031  14.131   5.157
36534W        W 4897  31.447  29.111   4.113
36535W        W 4898   7.382   9.392  10.553
36536W        W 4899  16.672   7.234  10.566
36537W        W 4900  26.492   4.361  10.445
36538W        W 4901  18.616  25.998   3.343
36539W        W 4902  28.570  16.750  11.946
36540W        W 4903  15.317  18.763   5.122
36541W        W 4904  27.663  44.338  11.939
36542W        W 4905  35.586   2.812  10.645
36543W        W 4906   4.905  32.090  13.899
36544W        W 4907   1.476  29.099   1.712
36545W        W 4908  44.892  27.501   0.957
36546W        W 4909  36.471  17.659   4.310
36547W        W 4910   2.280   0.969   0.291
36548W        W 4911  16.784  14.672   3.187
36549W        W 4912  39.898  33.966   2.891
36550W        W 4913  35.874  40.396  13.034
36551W        W 4914  13.193   7.798  13.508
36552W        W 4915   0.280   4.715   9.974
36553W        W 4916  35.596  27.096   3.308
36554W        W 4917  13.228  43.367   3.810
36555W        W 4918   7.328   3.836   4.174
36556W        W 4919  13.195  34.997  12.025
36557W        W 4920  28.083  34.451  13.503
36558W        W 4921  18.642  20.680  14.410
36559W        W 4922  20.625   2.379  11.074
36560W        W 4923  22.196  29.504   0.810
36561W        W 4924  38.965  14.797  14.840
36562W        W 4925   6.698  43.904  13.996
36563W        W 4926  13.269   2.431   3.698
36564W        W 4927  22.718  44.492  11.892
36565W        W 4928  20.594   5.779   4.322
36566W        W 4929  44.980   7.804   4.332
36567W        W 4930  43.813  42.443  10.512
36568W        W 4931  10.817  33.514  11.902
36569W        W 4932  12.617  26.130  12.371
36570W        W 4933  37.495   3.283   1.899
36571W        W 4934  22.690   9.793  11.038
36572W        W 4935  33.941  22.554   1.780
36573W        W 4936  32.090  34.529   2.180
36574W        W 4937  14.659  42.471   4.208
36575W        W 4938  14.217  44.949  12.380
36576W        W 4939  43.403  17.671  13.515
36577W        W 4940  21.254  40.349   5.134
36578W        W 4941  22.576   2.722  12.423
36579W        W 4942  28.998  30.151  14.455
36580W        W 4943  27.971  33.066  14.825
36581W        W 4944  26.596   2.880  12.850
36582W        W 4945  31.506  21.193  12.846
36583W        W 4946  16.640  41.926  13.396
36584W        W 4947  43.992  11.662   3.371
36585W        W 4948  42.030  23.160   1.224
36586W        W 4949  32.442  17.616   4.283
36587W        W 4950  11.639  12.637   3.668
36588W        W 4951   1.930   7.264   3.180
36589W        W 4952   6.790  40.422   3.709
36590W        W 4953   7.729  23.560   4.835
36591W        W 4954  34.522   6.905   4.675
36592W        W 4955  35.491  34.079  13.367
36593W        W 4956   2.789  19.773  14.425
36594W        W 4957  19.613  24.189   0.935
36595W        W 4958  12.784  42.472  14.862
36596W        W 4959  18.596  11.728   4.813
36597W        W 4960  30.449   6.357   5.169
36598W        W 4961  18.583  14.300   3.777
36599W        W 4962  19.172  32.427   3.699
36600W        W 4963   5.770  14.166   1.874
36601W        W 4964   3.268  32.126   1.303
36602W        W 4965  15.290  15.757  10.966
36603W        W 4966  30.132  10.651  13.975
36604W        W 4967   0.423  17.674  10.952
36605W        W 4968   8.378   3.228  12.481
36606W        W 4969  43.352   6.405  13.541
36607W        W 4970  12.831  24.511   4.208
36608W        W 4971  13.265  35.062   4.140
36609W        W 4972  24.006   1.385  12.078
36610W        W 4973   4.777  17.077   0.871
36611W        W 4974  12.203  13.704  12.481
36612W        W 4975  10.284  19.611  11.111
36613W        W 4976  17.737  16.768  14.895
36614W        W 4977  30.956  27.197  13.850
36615W        W 4978  11.821   1.902  12.454
36616W        W 4979  15.104  39.373   3.852
36617W        W 4980  39.812   9.203   0.381
36618W        W 4981  24.491  18.062   2.871
36619W        W 4982  39.882  25.015   1.695
36620W        W 4983  15.588  19.198   4.255
36621W        W 4984  37.968  26.683   5.147
36622W        W 4985  18.720  16.733   3.681
36623W        W 4986  10.312  22.540   4.631
36624W        W 4987   8.322  26.099   3.865
36625W        W 4988  35.448  22.158   0.477
36626W        W 4989  43.339  16.688   0.727
36627W        W 4990  26.969   7.379  13.431
36628W        W 4991  19.226  26.677  12.910
36629W        W 4992  19.283   9.783  13.973
36630W        W 4993   5.421  13.686  13.536
36631W        W 4994  10.301   4.799   2.267
36632W        W 4995  21.047  20.068  11.114
36633W        W 4996  39.331  30.963  11.384
36634W        W 4997  27.193  19.767   0.284
36635W        W 4998  40.050  12.719   2.777
36636W        W 4999  27.074   4.887  11.431
36637W        W 5000  38.428  14.675  12.383
36638W        W 5001  28.086  26.111  12.363
36639W        W 5002   0.342  27.446   3.239
36640W        W 5003  36.897  24.221  13.454
36641W        W 5004  10.830   7.339   2.742
36642W        W 5005   9.800  37.365   1.823
36643W        W 5006  27.582  38.387  14.782
36644W        W 5007   0.321  13.842  11.401
36645W        W 5008  32.071  43.344   1.385
36646W        W 5009   2.432  21.754   4.234
36647W        W 5010   2.324   1.736   2.318
36648W        W 5011  22.549   3.277  13.514
36649W        W 5012  22.191   6.755  10.564
36650W        W 5013  35.899   7.736  11.593
36651W        W 5014  43.825  26.597  11.050
36652W        W 5015  43.440  31.507  14.921
36653W        W 5016  24.112  10.270   2.351
36654W        W 5017   8.163  21.220   5.320
36655W        W 5018  36.866  27.143   3.257
36656W        W 5019  39.056  22.517  11.018
36657W        W 5020  40.997   7.303   0.842
36658W        W 5021  39.899  27.145  12.858
36659W        W 5022  22.615  41.028   4.812
36660W        W 5023  38.881   9.171  11.055
36661W        W 5024  28.460  34.390   4.779
36662W        W 5025  43.886  18.772   0.433
36663W        W 5026  20.729  13.707   2.740
36664W        W 5027   6.426  34.568   3.228
36665W        W 5028  35.534  41.515  13.450
36666W        W 5029  43.366   2.881  10.642
36667W        W 5030  11.831  33.394  10.990
36668W        W 5031  11.149  36.072   4.238
36669W        W 5032   1.301  29.626  11.438
36670W        W 5033  13.767  43.447  12.468
36671W        W 5034  41.480  14.604  11.066
36672W        W 5035   5.416   3.771   2.320
36673W        W 5036  18.752  22.147   2.813
36674W        W 5037  44.838   1.739  13.017
36675W        W 5038  33.401  26.546   4.131
36676W        W 5039   7.797  32.608   3.651
36677W        W 5040  21.548   1.967  13.898
36678W        W 5041   6.891  23.662   1.830
36679W        W 5042   5.839  37.483  14.461
36680W        W 5043  34.868   3.744  14.992
36681W        W 5044  21.148  22.242   2.251
36682W        W 5045  20.097  42.025  11.128
36683W        W 5046  23.675   5.826   4.811
36684W        W 5047   3.944  27.088  12.532
36685W        W 5048  18.193  37.992   0.400
36686W        W 5049  14.253  12.157   0.820
36687W        W 5050  43.489  10.684  14.314
36688W        W 5051   0.919  18.641   4.631
36689W        W 5052  22.653   8.667   3.224
36690W        W 5053  41.334  44.494  14.512
36691W        W 5054  15.614  20.613   2.297
36692W        W 5055   3.222  21.589  10.595
36693W        W 5056  14.629   8.161   3.638
36694W        W 5057  17.659  35.903   2.232
36695W        W 5058  42.956  40.471   1.907
36696W        W 5059   7.393  10.671  14.408
36697W        W 5060  34.421  26.999  13.800
36698W        W 5061  43.323  36.527   3.700
36699W        W 5062  36.912  22.166   2.286
36700W        W 5063  21.729  39.909   2.894
36701W        W 5064   5.729  28.459   0.787
36702W        W 5065  35.101  11.245   0.478
36703W        W 5066  36.582  16.187  13.345
36704W        W 5067  26.552  19.129  10.421
36705W        W 5068  14.210  38.944   0.871
36706W        W 5069  10.662  40.830  11.859
36707W        W 5070  13.678  26.089  14.385
36708W        W 5071  42.381  42.437  10.456
36709W        W 5072  18.570   0.883  14.474
36710W        W 5073  17.712  27.152   2.187
36711W        W 5074   8.198   5.300  12.574
36712W        W 5075  16.625  38.422  13.804
36713W        W 5076  40.835  15.187   2.756
36714W        W 5077  35.957  13.253  10.140
36715W        W 5078  11.669  39.544   2.688
36716W        W 5079  36.499  15.712  13.027
36717W        W 5080  30.653  39.383  12.386
36718W        W 5081  39.476  33.510  14.420
36719W        W 5082  30.459  20.567  12.954
36720W        W 5083  29.518  27.607   5.782
36721W        W 5084  28.607  36.994   3.250
36722W        W 5085  13.653  37.916  13.388
36723W        W 5086  36.951   2.383  12.581
36724W        W 5087  42.409  11.849  12.477
36725W        W 5088  18.775  17.106   0.794
36726W        W 5089  27.059  15.225   2.249
36727W        W 5090  44.999  13.728   3.733
36728W        W 5091  34.519   6.199  10.620
36729W        W 5092  31.578  24.222   2.772
36730W        W 5093  23.630   2.730   2.349
36731W        W 5094  25.007  42.817   1.216
36732W        W 5095  15.173  11.277   4.751
36733W        W 5096   9.778  42.480  10.525
36734W        W 5097  35.372  25.978   1.747
36735W        W 5098  34.057  26.579   1.244
36736W        W 5099  37.963   4.772   4.628
36737W        W 5100   3.360  14.183   4.723
36738W        W 5101   0.893  41.865  11.550
36739W        W 5102  42.814  44.385   2.367
36740W        W 5103   4.268  36.090  12.837
36741W        W 5104  31.403  41.398  10.950
36742W        W 5105  44.484  26.118  13.799
36743W        W 5106   3.421  43.306   3.316
36744W        W 5107   7.809  15.651  14.869
36745W        W 5108  24.110  37.560   4.207
36746W        W 5109   5.778   9.796   1.744
36747W        W 5110  30.064  15.275  11.947
36748W        W 5111  44.315  27.057   2.399
36749W        W 5112  40.016  43.320  14.319
36750W        W 5113   3.933  16.567  10.430
36751W        W 5114  33.949  44.438  12.412
36752W        W 5115  16.652  44.284   0.399
36753W        W 5116  23.046   2.241   0.468
36754W        W 5117   1.871  13.636  14.339
36755W        W 5118  35.974  19.673   4.130
36756W        W 5119   3.953  14.231  10.892
36757W        W 5120   9.839   0.409   2.221
36758W        W 5121  38.066  11.687  13.019
36759W        W 5122  28.091  17.107   0.324
36760W        W 5123  22.566  12.620  11.895
36761W        W 5124  17.119  26.702  13.798
36762W        W 5125  34.102  18.567   0.954
36763W        W 5126   7.850  20.740  12.469
36764W        W 5127  12.224  11.241  11.454
36765W        W 5128  19.712   6.714   1.761
36766W        W 5129  42.788  22.562  14.908
36767W        W 5130  36.427  10.347   4.155
36768W        W 5131   1.868  41.433  10.620
36769W        W 5132  40.357  26.662   1.856
36770W        W 5133  13.295   8.747   3.183
36771W        W 5134   5.762   2.430  13.918
36772W        W 5135  19.694  40.420   1.847
36773W        W 5136  28.655  11.794   1.901
36774W        W 5137  41.351   3.451  11.905
36775W        W 5138  11.758  16.263   4.692
36776W        W 5139  27.517  15.270  11.481
36777W        W 5140  20.083   7.695  11.567
36778W        W 5141  20.161  41.510   1.439
36779W        W 5142  42.853  22.146   2.389
36780W        W 5143   3.866  16.572   1.452
36781W        W 5144  44.419   7.275   1.821
36782W        W 5145  36.987  28.987   1.925
36783W        W 5146  20.645   9.777   3.761
36784W        W 5147  11.797  30.023   2.371
36785W        W 5148  33.099  22.731   4.323
36786W        W 5149  42.474   3.400   3.181
36787W        W 5150   5.291   5.792   0.893
36788W        W 5151  17.205  15.719   0.901
36789W        W 5152  43.792  34.899   0.326
36790W        W 5153  43.969  19.674  14.426
36791W        W 5154  43.285  17.091  12.095
36792W        W 5155  14.633  34.508   4.290
36793W        W 5156  39.058   1.354  13.330
36794W        W 5157  41.434  11.138  14.456
36795W        W 5158   8.214  33.431   3.811
36796W        W 5159  17.142   3.841  12.084
36797W        W 5160  18.093  12.292   3.146
36798W        W 5161   9.878  39.901   0.363
36799W        W 5162  10.689   1.853  14.794
36800W        W 5163  32.905  37.067   2.891
36801W        W 5164  44.286  42.447  10.038
36802W        W 5165  12.135  12.671   3.299
36803W        W 5166  30.547  16.758  10.933
36804W        W 5167  16.654  30.607  12.048
36805W        W 5168  29.961  15.622   3.346
36806W        W 5169  24.503  34.438   3.275
36807W        W 5170   2.889  38.830   4.243
36808W        W 5171  40.493  42.408   3.814
36809W        W 5172  12.842  13.175  14.870
36810W        W 5173  38.365  25.671   4.131
36811W        W 5174  17.248   5.814   0.400
36812W        W 5175   9.835  27.496  14.899
36813W        W 5176   8.330  11.770  11.985
36814W        W 5177  16.193  14.739  14.939
36815W        W 5178  21.541  38.520   2.786
36816W        W 5179  16.252  31.605  13.046
36817W        W 5180  14.240  39.007  14.426
36818W        W 5181  25.194  36.371  11.544
36819W        W 5182  44.290  27.148   2.766
36820W        W 5183   5.708  18.600   4.762
36821W        W 5184  44.944  35.524  14.840
36822W        W 5185  12.675  19.069  14.317
36823W        W 5186   3.372   2.359   0.727
36824W        W 5187  24.610  44.941   2.299
36825W        W 5188  27.957  36.556   1.297
36826W        W 5189  31.015  36.403  12.994
36827W        W 5190  39.912   0.931   2.313
36828W        W 5191  36.907  15.218   0.756
36829W        W 5192  10.711  43.513   0.355
36830W        W 5193  40.919  19.575  14.966
36831W        W 5194  12.798  13.216   3.762
36832W        W 5195   7.714  23.528  14.314
36833W        W 5196  20.718  14.303  14.025
36834W        W 5197   2.448  35.379  12.424
36835W        W 5198  18.063  18.615   2.250
36836W        W 5199   0.927  11.334  13.937
36837W        W 5200  37.964  36.070   2.878
36838W        W 5201  31.967   2.741  10.540
36839W        W 5202   5.834  19.273  12.460
36840W        W 5203  13.726   5.697  12.973
36841W        W 5204  42.514  42.783  14.857
36842W        W 5205  20.661  24.190   3.335
36843W        W 5206   0.773   2.433  11.954
36844W        W 5207  43.348   3.311  14.849
36845W        W 5208  40.482   7.339  13.529
36846W        W 5209  30.006  42.798   4.795
36847W        W 5210   5.404  35.591   2.879
36848W        W 5211   0.313  43.832  13.336
36849W        W 5212  15.624  18.594   1.258
36850W        W 5213  33.012  12.186  12.412
36851W        W 5214  14.148  30.509   3.295
36852W        W 5215  22.533   6.713  11.524
36853W        W 5216  33.040  38.351  11.546
36854W        W 5217  21.123  33.131   0.950
36855W        W 5218  15.597  20.113  13.852
36856W        W 5219  24.710  18.767  10.966
36857W        W 5220   8.246  28.481   2.310
36858W        W 5221  15.760   0.360   1.717
36859W        W 5222  23.577  32.419   3.362
36860W        W 5223  20.549  31.495  12.576
36861W        W 5224  24.076  43.010   2.889
36862W        W 5225  14.786  40.431   4.219
36863W        W 5226  22.719  39.410   3.711
36864W        W 5227   9.848  10.715   0.956
36865W        W 5228  31.489  11.199   4.747
36866W        W 5229   4.220   2.928  10.954
36867W        W 5230  39.038   9.857   4.624
36868W        W 5231  29.077  14.669   4.129
36869W        W 5232  36.884  14.726   3.866
36870W        W 5233  41.405   1.929   3.801
36871W        W 5234  27.113  41.997  11.117
36872W        W 5235  42.303  21.018  13.869
36873W        W 5236  40.987  20.035   3.792
36874W        W 5237   9.835  14.145   1.409
36875W        W 5238  27.143   3.254  14.850
36876W        W 5239   7.393  20.746  14.324
36877W        W 5240  20.059  37.343  14.941
36878W        W 5241  19.063  29.563   4.138
36879W        W 5242  35.362  23.675  13.475
36880W        W 5243  23.060  18.105  14.770
36881W        W 5244  24.684  19.093   2.197
36882W        W 5245  25.551  31.956  14.981
36883W        W 5246  22.176   6.910   1.351
36884W        W 5247   3.904   0.436  12.430
36885W        W 5248   4.775   5.844  13.910
36886W        W 5249  35.864  24.174   4.244
36887W        W 5250  44.407   6.248   0.437
36888W        W 5251  29.664  12.725   2.820
36889W        W 5252  24.216  15.138   2.764
36890W        W 5253   8.724  18.291  13.347
36891W        W 5254  17.152  10.145   1.737
36892W        W 5255  19.637  28.938  10.517
36893W        W 5256  24.201   3.218  13.045
36894W        W 5257  18.658  38.463   1.359
36895W        W 5258  26.466   0.492   2.219
36896W        W 5259   6.183  42.942   1.920
36897W        W 5260  30.103   1.907   2.252
36898W        W 5261  40.038   4.357   3.282
36899W        W 5262  15.205  41.034   1.699
36900W        W 5263  38.515  11.802   4.633
36901W        W 5264  38.015  27.678   4.733
36902W        W 5265  19.093  34.120  14.332
36903W        W 5266  30.615   8.180  14.467
36904W        W 5267  33.091  36.565   4.668
36905W        W 5268  37.059   6.212  12.909
36906W        W 5269  20.225  32.465   3.380
36907W        W 5270   7.723   1.443   3.239
36908W        W 5271  23.667  22.058   1.421
36909W        W 5272  38.327  25.658  13.910
36910W        W 5273   5.924  10.359  13.472
36911W        W 5274  22.550  29.436   1.385
36912W        W 5275  32.115  27.143   2.294
36913W        W 5276  17.556  36.537  14.314
36914W        W 5277  19.771  17.658   0.355
36915W        W 5278   1.348  44.944   2.301
36916W        W 5279  24.168  22.707  14.859
36917W        W 5280  26.478   4.841   4.696
36918W        W 5281   1.878   4.405   0.279
36919W        W 5282   1.325  11.755  10.608
36920W        W 5283  29.928  33.584  13.369
36921W        W 5284   4.916  10.709   1.321
36922W        W 5285  41.918  10.646  12.523
36923W        W 5286  19.120  36.443   1.789
36924W        W 5287  16.771  22.718  12.900
36925W        W 5288  36.424  43.961   2.215
36926W        W 5289  16.782  26.657  13.494
36927W        W 5290  19.224   7.714  11.604
36928W        W 5291  12.837  31.922  13.394
36929W        W 5292  14.701  30.061  14.785
36930W        W 5293   9.652  31.059   2.215
36931W        W 5294  35.915  21.753  12.418
36932W        W 5295   0.359   9.377  12.941
36933W        W 5296  11.316   0.863   0.261
36934W        W 5297   2.295   4.941  14.305
36935W        W 5298  19.686   1.964   4.258
36936W        W 5299  20.270  23.703   3.734
36937W        W 5300  40.362  13.824  13.375
36938W        W 5301  30.121  29.491   0.427
36939W        W 5302  44.360  23.239  11.059
36940W        W 5303  40.997  27.489  14.370
36941W        W 5304  40.420   4.423  11.499
36942W        W 5305  29.485  13.195  14.288
36943W        W 5306  33.891  32.481   3.641
36944W        W 5307  41.532  26.574  12.967
36945W        W 5308  44.439  18.556   1.346
36946W        W 5309  27.042  41.013   2.724
36947W        W 5310  20.159  20.072   0.782
36948W        W 5311  40.344  14.755  11.010
36949W        W 5312  35.370  38.828  13.958
36950W        W 5313  33.886   9.845  13.926
36951W        W 5314   8.881  40.318   0.763
36952W        W 5315  41.024  43.784  13.990
36953W        W 5316  26.069  34.097   2.253
36954W        W 5317  31.593  43.278  12.369
36955W        W 5318  34.045  21.600   1.820
36956W        W 5319  29.164  26.035   2.816
36957W        W 5320  16.314  24.161   1.849
36958W        W 5321  34.546  33.069   0.457
36959W        W 5322   6.202  10.152   4.639
36960W        W 5323  41.965  34.005  10.953
36961W        W 5324  10.237  39.964   0.327
36962W        W 5325  32.575  27.035   2.748
36963W        W 5326  33.032  37.504  11.493
36964W        W 5327  32.893   9.700  14.495
36965W        W 5328  20.750  42.944  13.949
36966W        W 5329  29.111  34.031  13.967
36967W        W 5330  22.046  38.069  11.546
36968W        W 5331  35.086  23.092  12.524
36969W        W 5332  44.863  42.792  14.762
36970W        W 5333  12.853   1.379  13.349
36971W        W 5334  38.972  34.388   2.847
36972W        W 5335  30.424  39.929   0.937
36973W        W 5336  40.824   9.843   2.669
36974W        W 5337  22.076  31.921   4.154
36975W        W 5338  32.090   3.329   0.379
36976W        W 5339  39.484  43.984   3.705
36977W        W 5340  18.112  38.397  11.921
36978W        W 5341  11.645   3.336   2.388
36979W        W 5342  26.985  29.613  14.914
36980W        W 5343  39.371  21.166   3.827
36981W        W 5344   9.231   6.883   4.303
36982W        W 5345   4.355  16.288  13.823
36983W        W 5346  42.005  36.030   3.795
36984W        W 5347  23.985  30.988  14.980
36985W        W 5348  27.071  29.995   3.273
36986W        W 5349  42.877   9.182   0.345
36987W        W 5350  38.896  24.531   1.734
36988W        W 5351  10.830  15.746   9.958
36989W        W 5352  22.544  31.956   1.878
36990W        W 5353  31.452  26.070  11.435
36991W        W 5354  28.592   5.792  12.521
36992W        W 5355  43.345  24.146  12.344
36993W        W 5356  30.593   9.283  11.942
36994W        W 5357  15.626  13.116   1.427
36995W        W 5358   0.980  28.451  11.021
36996W        W 5359  36.952  23.625  12.893
36997W        W 5360  23.105  20.120   4.645
36998W        W 5361  10.855  12.836   0.422
36999W        W 5362  43.270   1.744  13.321
37000W        W 5363  11.855  36.388  11.442
37001W        W 5364  24.502  25.621  11.884
37002W        W 5365   8.167  29.615   4.798
37003W        W 5366  39.395  30.936  11.056
37004W        W 5367  37.856  25.478  12.894
37005W        W 5368   6.897  29.483   3.631
37006W        W 5369  15.167  26.535  11.469
37007W        W 5370  10.148   2.815  10.606
37008W        W 5371  14.704  16.579   2.842
37009W        W 5372  25.072  19.563  14.823
37010W        W 5373  12.820  28.987  12.922
37011W        W 5374   8.216   9.702   4.140
37012W        W 5375  38.493  26.130   3.297
37013W        W 5376   7.321  20.248  10.942
37014W        W 5377  32.398  37.378  10.089
37015W        W 5378  19.135   0.276  10.504
37016W        W 5379  15.307  29.120  11.105
37017W        W 5380   0.414  16.581  14.837
37018W        W 5381  32.020  15.095   1.890
37019W        W 5382  25.136   4.360   0.336
37020W        W 5383  38.889   4.396   3.368
37021W        W 5384  41.495  36.089  12.434
37022W        W 5385  17.629  36.493   1.797
37023W        W 5386  34.507  16.294   2.713
37024W        W 5387  32.075  10.157   3.287
37025W        W 5388   8.218  32.926  12.463
37026W        W 5389  39.491  20.119   4.805
37027W        W 5390  40.883   5.412  12.931
37028W        W 5391   3.930   8.748  14.478
37029W        W 5392  20.246   7.666   2.778
37030W        W 5393  43.322  31.100  14.797
37031W        W 5394  43.269  14.814  13.376
37032W        W 5395  20.571  36.563  11.388
37033W        W 5396  15.675   9.201   1.361
37034W        W 5397  22.726  24.004   4.215
37035W        W 5398  32.959  31.589   1.306
37036W        W 5399   2.234  20.051   1.893
37037W        W 5400  20.216  28.185   4.766
37038W        W 5401  39.004  18.105  11.916
37039W        W 5402  32.997  44.495  11.476
37040W        W 5403  35.873  33.568  14.877
37041W        W 5404  31.536   9.368   3.200
37042W        W 5405  24.981  32.962   3.746
37043W        W 5406   9.182  13.214   0.901
37044W        W 5407   4.759  24.198  13.979
37045W        W 5408  40.390  44.982  12.908
37046W        W 5409  25.037  17.693  14.955
37047W        W 5410  25.129  30.133  10.950
37048W        W 5411   5.411   7.246  12.057
37049W        W 5412  13.238  40.023  12.413
37050W        W 5413  15.275   6.295   1.280
37051W        W 5414   1.943   7.712   2.759
37052W        W 5415  24.664  22.162   2.249
37053W        W 5416   3.783  22.629   5.266
37054W        W 5417   9.259  27.596  12.068
37055W        W 5418  18.171   8.809   0.283
37056W        W 5419  21.083  42.443   0.874
37057W        W 5420  31.106  13.203   1.881
37058W        W 5421  37.084  39.935  14.931
37059W        W 5422  39.501  19.638   4.298
37060W        W 5423  23.121  10.200   2.671
37061W        W 5424   1.449  26.504  11.427
37062W        W 5425  18.174  22.169   0.878
37063W        W 5426  20.080   4.350   0.313
37064W        W 5427  41.385  29.659  10.639
37065W        W 5428  18.631   1.421  14.306
37066W        W 5429  15.627  28.971  12.906
37067W        W 5430  32.039  34.590  10.561
37068W        W 5431  28.505   1.896  13.444
37069W        W 5432  24.539  12.787  14.976
37070W        W 5433  20.057  32.026  11.905
37071W        W 5434   4.402  12.147   4.622
37072W        W 5435  17.245   2.807  11.382
37073W        W 5436  23.720  18.714   2.836
37074W        W 5437   2.334   6.402  12.569
37075W        W 5438  16.721  21.055  12.837
37076W        W 5439  34.020  11.188  12.960
37077W        W 5440  17.239  27.996  14.317
37078W        W 5441  15.087  13.631  11.455
37079W        W 5442   6.184   5.782  11.972
37080W        W 5443  32.433  35.417  11.082
37081W        W 5444  17.088   5.310   0.384
37082W        W 5445   6.207  42.473  10.567
37083W        W 5446  10.806  17.569   4.740
37084W        W 5447  19.665   9.254   3.234
37085W        W 5448  10.184  41.515  13.948
37086W        W 5449   5.925  32.494  10.613
37087W        W 5450  44.378  41.376   4.826
37088W        W 5451  20.647  34.603  11.595
37089W        W 5452  30.506  33.993   2.243
37090W        W 5453   2.807  22.656   3.726
37091W        W 5454  24.029  22.249   2.784
37092W        W 5455  21.043  22.604  10.602
37093W        W 5456  38.524  22.150  10.618
37094W        W 5457  24.226  29.520   2.730
37095W        W 5458  13.314   7.762  11.419
37096W        W 5459  14.156  22.539  12.506
37097W        W 5460  28.930  17.063  13.326
37098W        W 5461  10.772   8.807   2.180
37099W        W 5462  31.402  34.962  12.362
37100W        W 5463   5.719  24.153   1.822
37101W        W 5464  37.994  32.573  12.543
37102W        W 5465  33.033  21.152  12.084
37103W        W 5466  29.983  29.029  13.410
37104W        W 5467  32.473  37.529  13.914
37105W        W 5468  34.586  37.448   0.928
37106W        W 5469   3.350  14.259  13.362
37107W        W 5470  41.423   3.915   2.709
37108W        W 5471  38.833  20.566   2.414
37109W        W 5472  38.951  26.148  13.546
37110W        W 5473  42.362   5.801   1.714
37111W        W 5474  42.393  20.060  14.812
37112W        W 5475  24.623  44.378   2.391
37113W        W 5476  40.960  27.600  11.861
37114W        W 5477   2.275  36.860  14.319
37115W        W 5478  22.218  44.966   4.677
37116W        W 5479  24.634   5.924   4.635
37117W        W 5480  25.106  30.074   2.681
37118W        W 5481  25.532   7.182   4.688
37119W        W 5482  30.539  23.542  10.565
37120W        W 5483  25.114  39.875   4.218
37121W        W 5484   0.745  23.168  14.893
37122W        W 5485  26.053  40.926   3.632
37123W        W 5486  15.743  16.214   1.799
37124W        W 5487   2.438  36.561   4.169
37125W        W 5488  26.196  10.693   1.904
37126W        W 5489  43.433  37.361   0.305
37127W        W 5490  22.031  18.071   1.361
37128W        W 5491  23.013   8.312   1.768
37129W        W 5492  25.182  18.257   0.854
37130W        W 5493  42.851  22.718   4.833
37131W        W 5494   9.779  28.613   2.774
37132W        W 5495  36.368  22.998   2.285
37133W        W 5496  17.703   1.347  11.530
37134W        W 5497   3.711  18.637   1.273
37135W        W 5498  40.820   4.781  10.609
37136W        W 5499  39.834  23.072   2.312
37137W        W 5500  21.194  24.110  11.556
37138W        W 5501  32.426  40.892  12.873
37139W        W 5502  31.616  27.664  10.898
37140W        W 5503  13.350  15.811  12.096
37141W        W 5504   0.831   5.865  14.481
37142W        W 5505   4.337  20.675  12.521
37143W        W 5506  34.120   2.402   2.315
37144W        W 5507   5.688  31.415  14.923
37145W        W 5508  20.762  38.568   1.312
37146W        W 5509  14.161  26.042   4.201
37147W        W 5510   9.860  17.705   2.896
37148W        W 5511  29.946   7.284   1.213
37149W        W 5512  23.123  25.066   2.799
37150W        W 5513  24.479  21.054  10.620
37151W        W 5514   5.351  12.633  12.558
37152W        W 5515  19.603  12.157   1.798
37153W        W 5516   4.368   2.945  13.433
37154W        W 5517  36.080  11.209  12.053
37155W        W 5518  12.203  19.676  14.411
37156W        W 5519  27.179  25.124  11.515
37157W        W 5520  14.734  27.175   0.349
37158W        W 5521  11.670  26.638   2.829
37159W        W 5522  12.728  16.311   3.667
37160W        W 5523   8.813  43.292   1.352
37161W        W 5524  41.401  42.981   2.233
37162W        W 5525  17.626  44.282   3.721
37163W        W 5526   2.889   1.963  14.910
37164W        W 5527  44.912   9.729   3.696
37165W        W 5528  44.442  16.187   1.884
37166W        W 5529  21.634  28.633  12.057
37167W        W 5530  23.714  23.224  14.475
37168W        W 5531  38.969  18.588  10.984
37169W        W 5532  33.957  17.289  11.390
37170W        W 5533  38.849  23.059   0.748
37171W        W 5534   7.340  33.117   1.370
37172W        W 5535   3.348  37.840   1.279
37173W        W 5536  20.565  10.789   3.846
37174W        W 5537  10.140  40.002   3.275
37175W        W 5538  27.141  14.307  13.925
37176W        W 5539  21.258  12.262   3.211
37177W        W 5540  24.601   2.429   1.315
37178W        W 5541   2.452  18.710   1.772
37179W        W 5542  25.667  36.348  11.509
37180W        W 5543   9.161  16.288   3.785
37181W        W 5544   8.179  10.369  14.365
37182W        W 5545  26.661  15.291   4.694
37183W        W 5546  30.051   8.895  13.528
37184W        W 5547   5.867  13.675  13.450
37185W        W 5548  13.746  17.128  11.485
37186W        W 5549  32.981  18.089  11.011
37187W        W 5550  32.892  29.468  11.557
37188W        W 5551  27.092  18.704  13.419
37189W        W 5552  37.472   3.818  11.383
37190W        W 5553  44.302  25.215   0.322
37191W        W 5554  35.909  25.669   0.844
37192W        W 5555   3.374  35.480  13.962
37193W        W 5556  20.118  32.002   1.350
37194W        W 5557  40.012  25.086  11.048
37195W        W 5558  13.146  38.427  14.328
37196W        W 5559   4.840  34.376   5.295
37197W        W 5560  30.543  14.331   4.246
37198W        W 5561  28.131   5.232   2.407
37199W        W 5562   1.409  13.250   1.422
37200W        W 5563  33.578  18.257   1.837
37201W        W 5564  38.919  24.588  11.381
37202W        W 5565  18.672  21.092  13.893
37203W        W 5566   5.321  29.100   3.665
37204W        W 5567  32.053  31.903   9.948
37205W        W 5568  31.514  40.821   4.163
37206W        W 5569   9.174   8.169   2.785
37207W        W 5570  27.634  34.592  13.472
37208W        W 5571  34.963   8.724   2.731
37209W        W 5572   1.384   2.788   3.668
37210W        W 5573  11.636  25.668   3.224
37211W        W 5574  16.774  38.493   1.733
37212W        W 5575  34.432  29.980   1.244
37213W        W 5576   7.682  40.911   3.817
37214W        W 5577  24.127  38.055  10.631
37215W        W 5578   4.914  38.478   4.318
37216W        W 5579  19.265  39.540  12.946
37217W        W 5580  15.813  11.659  10.639
37218W        W 5581  19.747  30.054   4.260
37219W        W 5582  25.565  20.254   1.302
37220W        W 5583  40.532  26.592   3.738
37221W        W 5584   8.846  19.559   0.478
37222W        W 5585   8.391  16.264  10.572
37223W        W 5586  12.788  38.063  13.316
37224W        W 5587  15.640  23.575   4.157
37225W        W 5588  24.493  12.175   4.761
37226W        W 5589   7.182   3.411   4.277
37227W        W 5590  39.356   1.751   2.713
37228W        W 5591  20.761   5.240  12.927
37229W        W 5592  11.275  34.016   1.385
37230W        W 5593  12.153  23.699  11.941
37231W        W 5594  27.665  20.149   1.882
37232W        W 5595  34.562  38.874  11.594
37233W        W 5596   9.338  31.517   4.634
37234W        W 5597  43.811  40.975  11.933
37235W        W 5598  33.008  29.099   2.689
37236W        W 5599   8.699   0.881  11.085
37237W        W 5600  40.989  30.607   0.858
37238W        W 5601  14.202  36.969   0.831
37239W        W 5602  23.557   1.319  12.574
37240W        W 5603  31.507  12.362   3.849
37241W        W 5604  28.438  43.960   2.273
37242W        W 5605   5.211  10.292   2.326
37243W        W 5606  34.865  17.270   0.436
37244W        W 5607  23.152  39.031  14.420
37245W        W 5608  27.084  43.350   0.366
37246W        W 5609  23.124  36.078   2.710
37247W        W 5610  18.110   6.331  11.389
37248W        W 5611  27.534  23.177   3.289
37249W        W 5612   0.810  31.466  13.033
37250W        W 5613  34.945  38.002  13.822
37251W        W 5614  25.672  26.055  12.045
37252W        W 5615  14.662  39.533   3.346
37253W        W 5616  20.198  20.532  14.760
37254W        W 5617  24.218  13.341  10.441
37255W        W 5618  15.323   3.241  13.308
37256W        W 5619  42.802   0.834   0.862
37257W        W 5620   3.800  18.178   0.392
37258W        W 5621  28.938  11.226   0.316
37259W        W 5622  39.007  10.808  11.917
37260W        W 5623  28.992  42.398   1.848
37261W        W 5624  30.142  33.497  11.463
37262W        W 5625  24.672  16.775   4.267
37263W        W 5626  35.898   7.358  12.949
37264W        W 5627   4.422  30.935   1.360
37265W        W 5628  34.049  29.515  13.490
37266W        W 5629  39.551  43.287   3.153
37267W        W 5630  10.251  43.286  14.473
37268W        W 5631   3.343  14.238   0.734
37269W        W 5632  20.190  17.565   3.743
37270W        W 5633  16.808  19.775  11.045
37271W        W 5634   3.273  15.775  12.942
37272W        W 5635   9.356  22.142  10.942
37273W        W 5636  22.195  31.522  10.614
37274W        W 5637  44.447  17.229   3.161
37275W        W 5638  13.328  15.238  13.949
37276W        W 5639  42.442  35.584   4.768
37277W        W 5640  17.270   8.882   2.328
37278W        W 5641   1.882  12.611  12.907
37279W        W 5642  44.805  14.151   1.440
37280W        W 5643  42.903  38.426  12.550
37281W        W 5644  38.373  25.119  13.945
37282W        W 5645   1.429  39.844  14.974
37283W        W 5646  32.550  39.015  10.568
37284W        W 5647  24.525   1.432  12.047
37285W        W 5648  11.854  11.733   1.924
37286W        W 5649  34.077  21.755   2.406
37287W        W 5650  29.076  36.950  11.373
37288W        W 5651   3.817  31.444   2.775
37289W        W 5652  38.385  31.512  10.965
37290W        W 5653  27.998   4.769  11.380
37291W        W 5654  25.007   6.775   0.767
37292W        W 5655  17.669  25.104   1.232
37293W        W 5656  43.936  22.658   3.752
37294W        W 5657  32.513  13.718  11.573
37295W        W 5658   3.276  27.998   3.317
37296W        W 5659  26.515   9.805   1.843
37297W        W 5660  15.594  24.162  11.079
37298W        W 5661  37.876  43.019  14.006
37299W        W 5662   1.470  25.617  13.523
37300W        W 5663   7.344  28.438  10.485
37301W        W 5664   3.932   4.425   2.762
37302W        W 5665   7.279  13.630   0.734
37303W        W 5666  12.723  42.862   2.283
37304W        W 5667  38.499  21.683  12.976
37305W        W 5668   0.983   6.351   3.649
37306W        W 5669  20.725  31.101   1.387
37307W        W 5670  26.692   8.655  14.407
37308W        W 5671  36.397  42.031  13.892
37309W        W 5672  23.674  11.767  12.349
37310W        W 5673  36.054   3.452   0.911
37311W        W 5674  42.791  14.321  14.964
37312W        W 5675  14.178  23.621  12.875
37313W        W 5676  13.159   0.911   0.258
37314W        W 5677  27.002  27.956   2.195
37315W        W 5678  15.824  31.150   4.663
37316W        W 5679  44.942  18.625   4.735
37317W        W 5680  10.772  21.241   1.230
37318W        W 5681   1.878  16.788  11.569
37319W        W 5682  44.416  18.728  11.875
37320W        W 5683  25.105   4.875   4.230
37321W        W 5684  25.031  34.085   3.282
37322W        W 5685  32.108  16.792   4.266
37323W        W 5686   9.246  37.003  11.056
37324W        W 5687  35.518   5.756   3.702
37325W        W 5688  33.605  32.633  10.606
37326W        W 5689  28.494  21.192   3.173
37327W        W 5690   6.305  20.579  12.824
37328W        W 5691  23.042  13.779  13.869
37329W        W 5692  40.367   5.379   1.798
37330W        W 5693   5.921  29.559  12.914
37331W        W 5694   2.845   4.759   1.347
37332W        W 5695  44.763  15.588  10.524
37333W        W 5696  12.818  22.540  10.940
37334W        W 5697  16.697  36.447   4.834
37335W        W 5698  42.780   8.208   1.409
37336W        W 5699  36.050  40.400   0.274
37337W        W 5700  29.447   7.868  14.790
37338W        W 5701  22.594  14.334   0.807
37339W        W 5702   2.309  43.878  14.831
37340W        W 5703  18.638  28.087  10.921
37341W        W 5704  18.668  38.378   4.640
37342W        W 5705  34.059   2.317  11.875
37343W        W 5706   8.827   1.743  14.390
37344W        W 5707   5.359  19.537  11.988
37345W        W 5708   0.822   7.361  12.977
37346W        W 5709  31.149   5.221  12.455
37347W        W 5710   8.829  37.898  10.564
37348W        W 5711  24.699  42.355  12.003
37349W        W 5712  30.959  11.267   2.770
37350W        W 5713  29.010   4.276  10.517
37351W        W 5714  27.092  15.292  14.879
37352W        W 5715   9.647   7.784  11.919
37353W        W 5716  15.682   4.866  10.470
37354W        W 5717  10.221  40.845  14.800
37355W        W 5718  28.658  44.494  11.508
37356W        W 5719  44.384  11.799  14.783
37357W        W 5720  43.815  34.074   1.424
37358W        W 5721  12.139  29.588  12.572
37359W        W 5722  13.676  15.246  12.006
37360W        W 5723  10.683  21.201   3.664
37361W        W 5724   4.789  10.208   1.931
37362W        W 5725  36.482  19.601  12.848
37363W        W 5726   6.915   2.370  14.357
37364W        W 5727  19.190   9.389   2.830
37365W        W 5728  34.446   9.844  13.412
37366W        W 5729  19.615  42.478   9.645
37367W        W 5730  32.429  33.880   4.264
37368W        W 5731  17.302  37.564   4.771
37369W        W 5732  32.916  32.951  12.862
37370W        W 5733  31.142  32.092   4.705
37371W        W 5734  42.982   8.774  12.027
37372W        W 5735  41.809  20.148  10.513
37373W        W 5736  42.367  12.239  14.361
37374W        W 5737  16.647  26.590   4.226
37375W        W 5738  41.952   0.457   0.328
37376W        W 5739  35.088  13.203   3.230
37377W        W 5740  11.229   7.776  11.450
37378W        W 5741   9.722  31.074   0.390
37379W        W 5742   6.376  44.951   3.857
37380W        W 5743  16.083  43.427   2.835
37381W        W 5744   8.805  37.999  14.840
37382W        W 5745   3.943  26.176   0.942
37383W        W 5746  40.477  11.310   0.250
37384W        W 5747  43.848   2.392  12.466
37385W        W 5748  44.982  39.013  13.026
37386W        W 5749  23.490  43.944   4.235
37387W        W 5750  23.520   0.820   4.311
37388W        W 5751  33.035  28.123  14.428
37389W        W 5752  12.689  37.902  11.954
37390W        W 5753  24.138   5.698  12.844
37391W        W 5754  41.035  41.337  12.918
37392W        W 5755   3.306  11.336   1.903
37393W        W 5756  30.955  33.980   0.961
37394W        W 5757  23.194  10.654  12.038
37395W        W 5758  16.123  21.200  14.328
37396W        W 5759  21.253  23.213  11.867
37397W        W 5760  38.360  32.507  14.280
37398W        W 5761  17.232  13.256  13.532
37399W        W 5762  16.195  12.681  11.486
37400W        W 5763  35.529  42.991  13.947
37401W        W 5764  22.086   0.955  11.000
37402W        W 5765   0.427  11.836   0.858
37403W        W 5766  39.474   3.407  14.290
37404W        W 5767  17.756  38.550   1.831
37405W        W 5768  11.859  16.715  12.979
37406W        W 5769  17.200   4.935  14.501
37407W        W 5770  12.215  27.181  13.044
37408W        W 5771  14.819  30.552   2.818
37409W        W 5772   3.829   8.668  10.545
37410W        W 5773  38.011  16.656  14.484
37411W        W 5774  35.041  21.093   2.808
37412W        W 5775  37.874  36.848  14.032
37413W        W 5776  26.588   8.200   2.308
37414W        W 5777  43.833  23.170  12.389
37415W        W 5778  33.902   9.391  11.518
37416W        W 5779  16.710  43.969   0.868
37417W        W 5780  15.269  20.206  12.474
37418W        W 5781  19.766  41.426   2.228
37419W        W 5782   4.700  36.948  14.418
37420W        W 5783  17.691  40.902  13.830
37421W        W 5784  23.208   0.337  13.878
37422W        W 5785  20.153   0.382   1.414
37423W        W 5786   0.248  22.015   4.215
37424W        W 5787  37.534  28.578   0.761
37425W        W 5788  19.082  44.352   1.340
37426W        W 5789  31.426  34.091   2.816
37427W        W 5790  10.157   0.490   0.799
37428W        W 5791  25.528  27.150  14.788
37429W        W 5792  39.455  24.047  12.849
37430W        W 5793  27.943  33.004  11.478
37431W        W 5794  13.604  11.862   0.743
37432W        W 5795  29.599  34.419   4.718
37433W        W 5796  11.801  42.461  12.975
37434W        W 5797   2.361  44.000   5.312
37435W        W 5798  21.582  14.720  10.958
37436W        W 5799  21.152  13.815   3.371
37437W        W 5800  29.102  19.620  11.913
37438W        W 5801  36.398  42.321  13.059
37439W        W 5802  17.729  12.357  14.782
37440W        W 5803  40.901   8.742   3.351
37441W        W 5804   8.866  10.811  11.984
37442W        W 5805  26.509   9.299   3.378
37443W        W 5806  15.316  41.350  12.463
37444W        W 5807   8.203  39.040  12.869
37445W        W 5808   8.709  40.025   4.774
37446W        W 5809   2.427   5.333  11.580
37447W        W 5810  40.849   9.241   0.472
37448W        W 5811  35.099  19.274  11.453
37449W        W 5812  10.355  39.495  11.956
37450W        W 5813  40.802  40.911  12.089
37451W        W 5814   9.811  26.665   9.970
37452W        W 5815   6.263   5.852   1.716
37453W        W 5816  44.465  13.836  14.279
37454W        W 5817  24.574  18.628   4.629
37455W        W 5818  28.493   9.312  12.421
37456W        W 5819   2.877  34.996  14.391
37457W        W 5820  42.492  38.498  10.081
37458W        W 5821  18.740  17.069   5.250
37459W        W 5822   4.227  11.136   3.291
37460W        W 5823   9.852  40.405  10.904
37461W        W 5824   1.845  44.978  11.610
37462W        W 5825  18.260   3.814  13.011
37463W        W 5826   6.280  11.274  12.351
37464W        W 5827   5.858  15.753  14.485
37465W        W 5828  32.133  44.398   2.207
37466W        W 5829  26.166  18.568   2.253
37467W        W 5830  19.199  43.803  13.798
37468W        W 5831  44.839   8.384  14.420
37469W        W 5832  21.206   8.697   1.423
37470W        W 5833  33.937  42.474  14.914
37471W        W 5834  15.755  24.707   4.157
37472W        W 5835  41.026   0.455  11.090
37473W        W 5836  31.580  25.516  14.952
37474W        W 5837   2.406   2.235   1.934
37475W        W 5838  41.876  12.751   2.875
37476W        W 5839  31.963  12.350  13.516
37477W        W 5840  34.968  12.664  10.636
37478W        W 5841  19.761  17.675   4.744
37479W        W 5842  43.781   9.709  13.489
37480W        W 5843  42.436  29.489   2.780
37481W        W 5844  10.158  40.895  11.512
37482W        W 5845   8.852  41.417  10.458
37483W        W 5846   9.655  16.145   2.219
37484W        W 5847   6.915  38.396   4.608
37485W        W 5848  35.861   1.409  14.299
37486W        W 5849  23.520  21.161   2.721
37487W        W 5850  41.382  33.924   4.291
37488W        W 5851  11.312   5.284  12.426
37489W        W 5852  29.032  37.424   4.215
37490W        W 5853  30.658  38.390   4.637
37491W        W 5854  11.739  24.520   4.728
37492W        W 5855  33.555  33.579  13.445
37493W        W 5856   2.277  30.583  12.056
37494W        W 5857  17.784   8.250   1.410
37495W        W 5858   4.891  11.300  12.513
37496W        W 5859   5.306  22.744   0.803
37497W        W 5860  14.599   7.757  12.471
37498W        W 5861  11.778  38.037   1.280
37499W        W 5862  40.007  19.068   0.795
37500W        W 5863  41.848  27.492   3.292
37501W        W 5864  17.605  44.482   2.820
37502W        W 5865   5.392  35.067   0.383
37503W        W 5866  38.355  39.983   4.738
37504W        W 5867  29.030  15.584  14.813
37505W        W 5868  39.844  19.584  13.026
37506W        W 5869  34.063  14.659   0.259
37507W        W 5870  43.951   5.932  10.970
37508W        W 5871  24.167  28.079  10.104
37509W        W 5872  30.163   5.862  11.582
37510W        W 5873  15.177  24.074   3.301
37511W        W 5874  23.060  11.855   4.220
37512W        W 5875  28.475  35.939   3.812
37513W        W 5876  44.409  37.522   2.205
37514W        W 5877  43.431  28.526   2.335
37515W        W 5878   2.905  12.355   2.792
37516W        W 5879  27.072  20.529  10.601
37517W        W 5880  12.194  24.543   0.367
37518W        W 5881   3.446  20.616   4.753
37519W        W 5882  26.996  37.504  11.449
37520W        W 5883  10.304  24.718   3.844
37521W        W 5884  22.741   7.825  11.486
37522W        W 5885  18.661   3.260   2.847
37523W        W 5886  12.314   4.849   5.150
37524W        W 5887  37.997  40.497   4.606
37525W        W 5888   2.379  30.602  13.849
37526W        W 5889  14.784   4.318  13.538
37527W        W 5890  34.071  28.633  11.549
37528W        W 5891  10.326   0.343   5.221
37529W        W 5892  43.911  21.230   1.381
37530W        W 5893   4.734   4.420  13.414
37531W        W 5894  43.960  15.165   2.285
37532W        W 5895   2.725  34.040   4.197
37533W        W 5896  42.032  30.423  12.823
37534W        W 5897  18.056  10.159   0.278
37535W        W 5898  28.171  39.529   4.154
37536W        W 5899   8.311  31.956  13.985
37537W        W 5900  43.817  20.709  13.484
37538W        W 5901  43.312  41.991   2.863
37539W        W 5902   2.229  29.137   4.768
37540W        W 5903   3.874  24.504   3.158
37541W        W 5904   7.751  22.088   1.402
37542W        W 5905  30.521  27.565  10.562
37543W        W 5906  29.010  13.650  14.495
37544W        W 5907   9.689  25.152  12.038
37545W        W 5908  25.977  12.174   0.965
37546W        W 5909   7.262   4.229   2.806
37547W        W 5910   2.431   4.791   4.603
37548W        W 5911  25.521  29.062  10.626
37549W        W 5912  16.279  43.954  14.315
37550W        W 5913  31.564   5.740  13.516
37551W        W 5914  25.566  43.876  12.066
37552W        W 5915  44.841   7.876  14.994
37553W        W 5916   1.465   3.257   0.855
37554W        W 5917  33.942  10.829  11.609
37555W        W 5918  29.958  11.698   2.296
37556W        W 5919  16.185   5.227  12.873
37557W        W 5920  44.347  32.630  13.458
37558W        W 5921  12.834  25.589  13.843
37559W        W 5922  33.908  35.524   0.792
37560W        W 5923  30.941   2.351   0.344
37561W        W 5924   4.871   7.310  13.487
37562W        W 5925   4.723  11.305   1.771
37563W        W 5926  27.650  33.468   0.933
37564W        W 5927  18.595  40.356  12.061
37565W        W 5928   1.787  38.394   1.211
37566W        W 5929  33.973  33.026   1.799
37567W        W 5930  18.626  37.485  10.542
37568W        W 5931  37.537   6.227  10.496
37569W        W 5932  18.661  27.168  11.974
37570W        W 5933  42.972  22.567  12.472
37571W        W 5934  40.024  10.372   2.781
37572W        W 5935   5.327  32.595   2.309
37573W        W 5936   7.374  15.134   1.769
37574W        W 5937   9.278  21.576  14.373
37575W        W 5938  15.628   5.693  13.462
37576W        W 5939   2.330   6.284  14.844
37577W        W 5940  17.123   6.883   4.285
37578W        W 5941  15.739  27.614  14.007
37579W        W 5942  41.474  24.616   0.358
37580W        W 5943  17.558  13.626  10.633
37581W        W 5944   7.236  43.899   4.734
37582W        W 5945  25.470  35.921  12.909
37583W        W 5946  13.700  11.134   3.358
37584W        W 5947  26.096  40.528   1.898
37585W        W 5948   5.354   6.762  10.526
37586W        W 5949  39.483  37.426   2.198
37587W        W 5950  13.350   6.902  10.908
37588W        W 5951  15.169   3.345   1.731
37589W        W 5952  24.668  13.839   4.832
37590W        W 5953  44.425  14.215  10.133
37591W        W 5954  33.898  15.108  13.317
37592W        W 5955  11.262  36.082   4.632
37593W        W 5956   3.749  41.300  12.016
37594W        W 5957  38.002   3.422  14.430
37595W        W 5958  27.533   1.424  11.398
37596W        W 5959  39.473  16.637   0.726
37597W        W 5960  17.061  12.713  12.057
37598W        W 5961  29.610  26.676   1.826
37599W        W 5962   4.797  10.148   0.891
37600W        W 5963  20.596  14.831  10.566
37601W        W 5964  30.473  36.360   4.649
37602W        W 5965  26.518  10.184  10.943
37603W        W 5966  24.656   4.424  12.474
37604W        W 5967  43.942  32.517   2.186
37605W        W 5968  31.448  17.749  12.986
37606W        W 5969  40.365  25.696  12.414
37607W        W 5970   7.409  11.327   3.738
37608W        W 5971  31.042  23.086   2.346
37609W        W 5972  30.601  38.859   0.818
37610W        W 5973  26.696  26.657  10.955
37611W        W 5974  17.228  16.289   2.686
37612W        W 5975  44.972  21.029  12.341
37613W        W 5976  23.673  16.623  14.977
37614W        W 5977   1.794  43.401  13.927
37615W        W 5978   5.819  30.103  12.032
37616W        W 5979  26.121  43.883   4.823
37617W        W 5980  31.898   5.911   4.331
37618W        W 5981   3.381  26.693   2.339
37619W        W 5982  11.303   0.297  12.873
37620W        W 5983  14.246  27.546   2.890
37621W        W 5984  12.637  12.612  12.520
37622W        W 5985   7.289  23.163  11.114
37623W        W 5986  14.833   8.762  10.440
37624W        W 5987  30.043  22.148  13.411
37625W        W 5988  25.149  30.006   1.354
37626W        W 5989  25.695  10.322  14.883
37627W        W 5990  14.792  28.579  10.453
37628W        W 5991  29.003  16.628   3.783
37629W        W 5992  31.022   7.345  12.091
37630W        W 5993  16.785  10.863   2.219
37631W        W 5994  34.472  24.179   0.762
37632W        W 5995  35.001  12.848   2.687
37633W        W 5996  33.492   8.763  12.528
37634W        W 5997  35.084  25.474  13.819
37635W        W 5998  32.122  18.264   3.304
37636W        W 5999   7.710  21.143   4.685
37637W        W 6000  41.419  35.425   4.294
37638W        W 6001   4.839  22.541   5.100
37639W        W 6002  21.182  40.975  13.349
37640W        W 6003  13.707   3.929  12.869
37641W        W 6004  32.442  18.121  11.089
37642W        W 6005  20.223  17.631   1.329
37643W        W 6006  35.959  20.725  14.981
37644W        W 6007  17.655  28.452  14.797
37645W        W 6008  11.702  20.539  10.931
37646W        W 6009   6.739  22.173  14.279
37647W        W 6010  43.431  12.779   3.350
37648W        W 6011   7.172  15.817   0.285
37649W        W 6012  28.559  38.509  14.786
37650W        W 6013   3.833  29.087  14.023
37651W        W 6014  36.501  24.158   4.676
37652W        W 6015  26.556   8.834   2.260
37653W        W 6016  36.990  39.837  10.942
37654W        W 6017  13.628  36.088  13.538
37655W        W 6018   5.296  12.855  14.909
37656W        W 6019   7.258  43.500  10.479
37657W        W 6020  23.595   7.910  13.393
37658W        W 6021  13.830  22.511  11.016
37659W        W 6022  21.181  37.352  11.939
37660W        W 6023   2.429  42.348   0.375
37661W        W 6024  39.001  38.925  10.563
37662W        W 6025  43.984  34.929   9.967
37663W        W 6026  43.399  26.205  10.605
37664W        W 6027   9.153  40.963  10.463
37665W        W 6028  24.994   8.857  14.299
37666W        W 6029  23.199  38.835  10.633
37667W        W 6030  18.253  22.213  11.979
37668W        W 6031  12.636  35.577   1.924
37669W        W 6032  25.199  13.169  11.563
37670W        W 6033  17.567  32.898  11.544
37671W        W 6034   3.828  12.245   2.256
37672W        W 6035  16.107  27.582  10.902
37673W        W 6036  18.075   6.857   3.755
37674W        W 6037  29.645  30.461   4.353
37675W        W 6038  11.148  22.662  13.457
37676W        W 6039  34.524  33.949  13.467
37677W        W 6040  40.879   1.960   4.607
37678W        W 6041   6.749   0.794   2.786
37679W        W 6042   8.767   9.712   2.376
37680W        W 6043  38.541  15.646   0.450
37681W        W 6044   7.743  35.074   5.088
37682W        W 6045  37.942  39.851  12.861
37683W        W 6046   4.868  32.039  10.575
37684W        W 6047  44.912  34.424   0.446
37685W        W 6048  33.913  18.076   1.843
37686W        W 6049  28.590  21.663  10.891
37687W        W 6050  34.908  28.039  12.982
37688W        W 6051   8.734  36.520   2.347
37689W        W 6052  17.062  22.744  11.953
37690W        W 6053  42.423  43.313   4.749
37691W        W 6054  38.558   1.475   2.409
37692W        W 6055  42.427  17.761   1.355
37693W        W 6056  39.338  16.728  11.100
37694W        W 6057  26.082  44.494   4.266
37695W        W 6058  25.613  18.190   3.264
37696W        W 6059   0.265  10.155   4.208
37697W        W 6060  34.920   7.738  11.047
37698W        W 6061   6.774  12.145   2.833
37699W        W 6062  35.472  35.589   1.243
37700W        W 6063  42.953  28.499   4.269
37701W        W 6064  32.992  30.595  14.409
37702W        W 6065  28.651   3.931   4.612
37703W        W 6066  15.155  31.591   1.710
37704W        W 6067  10.345  38.039   4.698
37705W        W 6068  29.154  29.639   5.170
37706W        W 6069  24.634   0.432   1.709
37707W        W 6070  25.020  37.419   4.666
37708W        W 6071  32.521   4.821   2.788
37709W        W 6072  38.437  30.098  13.039
37710W        W 6073  40.521  22.625  10.479
37711W        W 6074  24.566   2.897  13.794
37712W        W 6075  34.979  31.539   0.369
37713W        W 6076  42.974  26.012  13.477
37714W        W 6077  32.919   5.438   4.184
37715W        W 6078  18.787  17.163  14.962
37716W        W 6079  16.643   6.911   4.165
37717W        W 6080  18.235   9.244  11.120
37718W        W 6081  18.176  40.909  14.324
37719W        W 6082  11.717   7.811   4.345
37720W        W 6083  40.393   2.374  13.052
37721W        W 6084  24.000  31.125  13.384
37722W        W 6085   6.354  24.062  11.990
37723W        W 6086  41.482  10.215  13.976
37724W        W 6087  39.336   6.893   0.952
37725W        W 6088  31.093   6.815  14.445
37726W        W 6089  25.563  30.949   2.179
37727W        W 6090   2.722  36.545  13.974
37728W        W 6091  31.014  20.759  13.332
37729W        W 6092  25.565  35.396   4.193
37730W        W 6093  34.488  31.062  14.291
37731W        W 6094  41.409  14.758   2.694
37732W        W 6095  23.109  25.004  10.979
37733W        W 6096   4.438  30.500   3.865
37734W        W 6097  34.896  37.440   5.269
37735W        W 6098  24.975   4.249  11.995
37736W        W 6099   1.394   9.225   4.627
37737W        W 6100   4.819  41.948  13.929
37738W        W 6101   0.348  30.550  14.807
37739W        W 6102  36.538  27.101  12.032
37740W        W 6103  13.127  21.522   4.697
37741W        W 6104  21.548  31.918   4.664
37742W        W 6105  29.663  11.743   1.811
37743W        W 6106  16.114  38.384   3.185
37744W        W 6107  24.589  19.724   1.220
37745W        W 6108  31.478   8.204  13.955
37746W        W 6109  44.915  44.357  13.925
37747W        W 6110   8.329  15.778  13.034
37748W        W 6111  24.093  14.757   0.927
37749W        W 6112  35.518   0.268  11.039
37750W        W 6113   7.725  12.724   1.717
37751W        W 6114  10.339  14.243   2.402
37752W        W 6115   4.730  16.318   3.837
37753W        W 6116  30.638  37.890  14.795
37754W        W 6117   1.741  25.037   5.189
37755W        W 6118  22.241  12.766   2.372
37756W        W 6119   3.361  30.506   0.797
37757W        W 6120  37.361  37.953  12.439
37758W        W 6121  35.029  26.119  11.910
37759W        W 6122  15.138  17.193   2.664
37760W        W 6123  41.881  26.968   0.868
37761W        W 6124  44.807   4.751  12.937
37762W        W 6125  28.159  28.127  13.366
37763W        W 6126  30.622   6.796   1.295
37764W        W 6127  15.683  25.593   2.216
37765W        W 6128   2.854  38.936   3.190
37766W        W 6129  13.789  29.049  11.546
37767W        W 6130   3.837  10.771  12.552
37768W        W 6131   8.174  39.950  13.525
37769W        W 6132   2.901  27.562  13.438
37770W        W 6133  24.069  44.424   0.753
37771W        W 6134  39.062  41.025   2.806
37772W        W 6135  25.491  13.309   0.788
37773W        W 6136  39.821  30.008  10.581
37774W        W 6137  32.891  35.565  11.450
37775W        W 6138  43.481  29.981   0.826
37776W        W 6139   1.933  17.263   1.335
37777W        W 6140  18.689   4.851   4.148
37778W        W 6141  26.174  30.922  12.863
37779W        W 6142   8.180  10.311   2.409
37780W        W 6143   8.394  15.112   0.933
37781W        W 6144   7.232  21.532   3.762
37782W        W 6145   9.346  39.046   3.768
37783W        W 6146   2.844   0.768   4.658
37784W        W 6147  42.814  23.156   3.184
37785W        W 6148  14.616  16.751   4.797
37786W        W 6149  23.197   1.399  12.347
37787W        W 6150  19.750   5.367  14.282
37788W        W 6151  34.497  18.067   4.713
37789W        W 6152  27.042  30.124   1.442
37790W        W 6153  40.523  28.997   0.245
37791W        W 6154  16.628  19.713  10.450
37792W        W 6155  40.352  13.604   0.901
37793W        W 6156   3.368  39.850   2.209
37794W        W 6157  37.472  12.356  12.882
37795W        W 6158  33.620  17.687   0.857
37796W        W 6159  37.504   2.264   0.481
37797W        W 6160  39.483  34.941   2.312
37798W        W 6161  31.960   3.732   3.818
37799W        W 6162   4.914  27.483   2.362
37800W        W 6163  39.375  30.037   3.739
37801W        W 6164  19.233   1.263  12.370
37802W        W 6165  27.661   0.442   0.266
37803W        W 6166  29.496  24.668  12.448
37804W        W 6167  33.003  43.782   1.261
37805W        W 6168  41.791  40.820   3.821
37806W        W 6169   8.718  38.480  10.963
37807W        W 6170  21.087  33.085   4.768
37808W        W 6171  26.043  34.879   0.837
37809W        W 6172  15.637  25.996  14.777
37810W        W 6173  22.227   3.403  10.620
37811W        W 6174  34.938   7.336   2.330
37812W        W 6175  31.918   7.904   0.867
37813W        W 6176  25.057  31.951  10.967
37814W        W 6177   2.920  40.458  12.935
37815W        W 6178  36.904  31.591  11.416
37816W        W 6179  42.343  33.476  11.482
37817W        W 6180   1.347   5.879  10.445
37818W        W 6181  15.120  14.340   4.751
37819W        W 6182  41.371  12.242   1.271
37820W        W 6183   2.296  35.959   4.154
37821W        W 6184  29.582  44.903  14.775
37822W        W 6185   4.926  16.744   0.737
37823W        W 6186  32.004  40.414   4.634
37824W        W 6187  13.315  16.745  13.878
37825W        W 6188  37.019   6.878   4.751
37826W        W 6189  38.350  17.572  14.445
37827W        W 6190   1.751  29.523  12.076
37828W        W 6191   6.703   1.819  10.624
37829W        W 6192   7.183  27.193   4.201
37830W        W 6193  38.914  19.215  13.372
37831W        W 6194  25.140  34.883  13.837
37832W        W 6195  26.996  28.077   4.722
37833W        W 6196  43.371  17.099   1.866
37834W        W 6197   2.863   9.333   1.853
37835W        W 6198  28.149  17.680  14.505
37836W        W 6199   1.460  39.001  12.062
37837W        W 6200  23.530  41.829   1.291
37838W        W 6201  12.185  35.886  14.451
37839W        W 6202   3.882  43.991   2.268
37840W        W 6203   3.385   1.460   0.827
37841W        W 6204  28.449  33.593   0.808
37842W        W 6205  37.077  15.672   1.443
37843W        W 6206  39.060   5.884   0.868
37844W        W 6207  33.972  12.201   2.702
37845W        W 6208  11.209  36.585  12.004
37846W        W 6209   9.799   2.812  12.935
37847W        W 6210  39.512  15.126  14.425
37848W        W 6211   5.922  26.493  12.024
37849W        W 6212  25.158  38.045   0.848
37850W        W 6213  43.416  21.126  10.151
37851W        W 6214   4.439  22.517  12.063
37852W        W 6215  31.478  36.087  14.345
37853W        W 6216  37.475  24.048  12.489
37854W        W 6217   2.912  24.566  10.624
37855W        W 6218  26.115   8.393  11.544
37856W        W 6219  27.084  13.287  11.486
37857W        W 6220  38.563  15.705  14.312
37858W        W 6221  29.439  31.056   3.147
37859W        W 6222  44.944  32.542  14.825
37860W        W 6223  25.087   5.920  14.836
37861W        W 6224   4.336  18.212  14.017
37862W        W 6225  24.027   6.408   2.218
37863W        W 6226  28.508  19.631  13.908
37864W        W 6227  33.888  13.643   2.184
37865W        W 6228   6.188  16.155   1.248
37866W        W 6229  15.108  33.095  13.961
37867W        W 6230  42.486  44.396  10.540
37868W        W 6231  32.886   4.742   1.243
37869W        W 6232  39.905  29.493   2.401
37870W        W 6233   1.827  13.731  12.899
37871W        W 6234  15.641  14.190  14.492
37872W        W 6235   0.327  21.634   4.733
37873W        W 6236  32.962  13.188   3.253
37874W        W 6237  18.618  14.104   1.905
37875W        W 6238  44.801  20.536   2.861
37876W        W 6239  19.217  25.123  10.983
37877W        W 6240  29.988   0.838   1.853
37878W        W 6241  38.494   1.854   3.381
37879W        W 6242  27.073  23.116   0.270
37880W        W 6243  21.637  22.007  10.466
37881W        W 6244   5.728  13.321  11.594
37882W        W 6245  32.493  29.482   1.746
37883W        W 6246  44.465  26.952  11.993
37884W        W 6247  26.538   1.355  13.384
37885W        W 6248   1.829  22.518   3.194
37886W        W 6249  35.061  33.402   1.857
37887W        W 6250   2.892  38.029   2.712
37888W        W 6251  24.081  33.124   1.797
37889W        W 6252  24.496   0.749   1.370
37890W        W 6253  25.585  44.484   4.192
37891W        W 6254  16.130  20.078   2.902
37892W        W 6255   4.208  21.118  14.026
37893W        W 6256  40.010   6.324   4.329
37894W        W 6257   1.307  15.299   4.804
37895W        W 6258   8.201  27.023   1.789
37896W        W 6259  27.027   1.283   4.832
37897W        W 6260  25.074  33.404  13.468
37898W        W 6261  37.015  36.448  10.608
37899W        W 6262  25.141  27.058  12.519
37900W        W 6263  38.550  19.557   0.282
37901W        W 6264  41.331  26.164  10.442
37902W        W 6265  31.527  40.799  10.465
37903W        W 6266  40.374  16.072   2.275
37904W        W 6267  38.045  29.990  12.475
37905W        W 6268  25.605  27.156   2.295
37906W        W 6269   3.366  33.044  11.879
37907W        W 6270  10.192   4.386   0.828
37908W        W 6271  19.693  19.124  10.427
37909W        W 6272  14.684  33.522   2.336
37910W        W 6273   7.670  31.076  10.519
37911W        W 6274  23.996   3.928  11.525
37912W        W 6275  44.996  38.498  13.466
37913W        W 6276   4.809  18.054   4.293
37914W        W 6277  22.504  19.089   9.983
37915W        W 6278  40.514  22.200  12.412
37916W        W 6279  44.894  14.710   1.446
37917W        W 6280  39.050   6.787   1.804
37918W        W 6281  32.947  25.180  12.556
37919W        W 6282  31.060   3.243   3.344
37920W        W 6283  17.204  21.678   0.795
37921W        W 6284  35.867  18.158   3.712
37922W        W 6285  34.436   9.678  10.615
37923W        W 6286   4.367   2.438   1.741
37924W        W 6287  20.263  33.497   3.795
37925W        W 6288  17.205  44.890  11.484
37926W        W 6289  18.155  28.107   3.755
37927W        W 6290  26.542  19.227   4.776
37928W        W 6291  27.090   0.408  14.394
37929W        W 6292   8.190  34.561  11.604
37930W        W 6293   8.383  43.862   1.835
37931W        W 6294   4.737   7.729  14.447
37932W        W 6295  20.138  33.912  11.861
37933W        W 6296  37.543  12.799  10.456
37934W        W 6297  28.118  18.088   3.259
37935W        W 6298  16.643  17.228  14.969
37936W        W 6299   0.458  33.400   4.235
37937W        W 6300   4.843   6.354  10.556
37938W        W 6301  38.891  30.651   4.331
37939W        W 6302  14.625  34.054  11.458
37940W        W 6303  27.948  25.539  11.998
37941W        W 6304  42.847  43.003  12.012
37942W        W 6305  20.235  32.501   4.833
37943W        W 6306  35.541   4.425   0.845
37944W        W 6307  24.597  20.220   3.273
37945W        W 6308  34.955  19.221  12.465
37946W        W 6309   8.698  39.529  10.434
37947W        W 6310  25.179  19.137  11.899
37948W        W 6311   4.770  33.065   4.650
37949W        W 6312   4.269  14.680   4.288
37950W        W 6313  20.078  26.658   0.839
37951W        W 6314  29.439  42.445  11.441
37952W        W 6315  31.493  15.172  14.007
37953W        W 6316  19.136  21.147  10.625
37954W        W 6317   7.829  29.071  14.478
37955W        W 6318   9.679  42.349  12.935
37956W        W 6319  21.565   1.910   4.802
37957W        W 6320  40.433  42.491   0.855
37958W        W 6321   6.736  17.213   0.450
37959W        W 6322  31.912  17.061  13.490
37960W        W 6323  12.825   3.828   4.286
37961W        W 6324  10.808  31.932   2.853
37962W        W 6325  35.367  12.826  12.967
37963W        W 6326  40.528  36.876  11.372
37964W        W 6327   0.979  43.019   4.799
37965W        W 6328  41.044   9.796   1.391
37966W        W 6329  32.433   9.190  12.380
37967W        W 6330   9.764   7.397  12.387
37968W        W 6331  23.061   1.779   3.838
37969W        W 6332  38.331  39.031   4.178
37970W        W 6333  11.344  19.701   4.719
37971W        W 6334  21.200  28.679  14.375
37972W        W 6335   0.390  17.666  12.416
37973W        W 6336  33.549   9.270  14.032
37974W        W 6337   0.799  24.112  12.431
37975W        W 6338  28.107  18.210   5.165
37976W        W 6339   4.892   8.830  11.126
37977W        W 6340   7.262  13.725   3.148
37978W        W 6341  13.186  36.886  13.347
37979W        W 6342   9.297  43.331   4.679
37980W        W 6343  42.982  23.226   3.713
37981W        W 6344  43.470  16.747  14.867
37982W        W 6345  32.094  44.469  10.936
37983W        W 6346  13.607  20.534  12.492
37984W        W 6347  26.686  44.499  12.928
37985W        W 6348  34.472   4.820   0.820
37986W        W 6349  26.076  29.128   2.846
37987W        W 6350  43.488  25.020   2.895
37988W        W 6351   4.399  30.481   1.350
37989W        W 6352  32.045  23.494   4.316
37990W        W 6353  42.462   9.739   4.689
37991W        W 6354  42.400  30.495  12.341
37992W        W 6355  36.408  26.971   2.776
37993W        W 6356  11.233  19.252   0.464
37994W        W 6357   0.410  44.896   0.327
37995W        W 6358  43.277   1.288   0.860
37996W        W 6359  36.874  35.999  14.423
37997W        W 6360   3.815  32.125   4.812
37998W        W 6361   3.348  35.058  14.858
37999W        W 6362  19.690  12.665  13.892
38000W        W 6363  16.813   5.272  14.922
38001W        W 6364   8.901  15.293  14.831
38002W        W 6365  41.463  16.157  10.638
38003W        W 6366  24.221  42.779   1.254
38004W        W 6367  16.793  19.722   3.704
38005W        W 6368  26.032   1.260   2.251
38006W        W 6369  31.410  39.054  14.901
38007W        W 6370  18.574  29.439   4.631
38008W        W 6371  27.092  13.765  10.158
38009W        W 6372  15.823   4.820   0.332
38010W        W 6373   4.370  11.273   0.324
38011W        W 6374  17.114  10.834  11.932
38012W        W 6375  32.973  16.717   1.776
38013W        W 6376   9.359  26.040   2.291
38014W        W 6377   5.918  21.594   4.155
38015W        W 6378  42.462  21.560  13.898
38016W        W 6379  20.128  38.883  11.411
38017W        W 6380  32.462   7.337   1.840
38018W        W 6381   8.304  18.546   3.828
38019W        W 6382  28.458  19.218   2.324
38020W        W 6383  28.036  38.067   4.233
38021W        W 6384  33.467  12.175  12.484
38022W        W 6385  15.277  27.447   2.823
38023W        W 6386  35.373  15.710  14.878
38024W        W 6387  30.079   0.778  13.904
38025W        W 6388  12.139  43.822  12.026
38026W        W 6389  42.289  43.885   3.177
38027W        W 6390  14.169  39.415  12.352
38028W        W 6391  27.456   4.861   2.268
38029W        W 6392  20.034   5.890  11.379
38030W        W 6393  40.496  27.156  12.559
38031W        W 6394  40.030  14.169  13.369
38032W        W 6395  25.103  40.429  11.606
38033W        W 6396  11.290  24.641  13.933
38034W        W 6397  27.634  25.072  10.614
38035W        W 6398   3.410  27.628   0.244
38036W        W 6399  21.139  41.829   3.159
38037W        W 6400   8.704  23.209   3.660
38038W        W 6401   2.429  20.535   4.236
38039W        W 6402  34.059  13.716   2.899
38040W        W 6403  43.009  24.167   4.172
38041W        W 6404  38.477  24.002  13.062
38042W        W 6405  37.522   8.797  13.389
38043W        W 6406  29.928  14.657   1.347
38044W        W 6407   5.701  34.564  11.958
38045W        W 6408  10.735  22.580  14.876
38046W        W 6409   4.795   1.930  13.352
38047W        W 6410  15.280   5.700  12.982
38048W        W 6411   6.769  34.958   3.294
38049W        W 6412   9.724  10.875  12.937
38050W        W 6413  34.960  34.012  10.560
38051W        W 6414   9.731  31.103  13.011
38052W        W 6415  32.057  43.957  11.901
38053W        W 6416  39.503   0.888   4.615
38054W        W 6417  23.624  17.713   0.281
38055W        W 6418  36.364  28.148   3.357
38056W        W 6419   4.867  42.827   1.447
38057W        W 6420  23.025   5.910   0.440
38058W        W 6421  15.170  21.223   4.185
38059W        W 6422  33.896  10.363  12.410
38060W        W 6423  25.546  33.977  13.345
38061W        W 6424  40.845  29.590   1.343
38062W        W 6425  26.569  11.323   1.443
38063W        W 6426  36.954  41.842  12.409
38064W        W 6427  30.993  29.071   2.823
38065W        W 6428   6.374  15.224  10.520
38066W        W 6429  41.836   2.411   1.342
38067W        W 6430  22.057   9.762  13.518
38068W        W 6431  11.646  34.102  12.835
38069W        W 6432  34.575  20.092   0.451
38070W        W 6433   0.788  25.594   2.231
38071W        W 6434   0.392  25.980  13.367
38072W        W 6435  11.675  21.125   0.334
38073W        W 6436  29.160   3.847   3.674
38074W        W 6437  21.756  11.153  11.105
38075W        W 6438  16.604  35.363  14.958
38076W        W 6439  42.466  15.246   4.323
38077W        W 6440  38.361   8.856   1.277
38078W        W 6441   4.717  16.803  10.148
38079W        W 6442  10.792  25.092   4.775
38080W        W 6443  14.331  28.479   3.804
38081W        W 6444  32.436  10.716   3.325
38082W        W 6445  17.733   0.420  13.999
38083W        W 6446  20.158  39.413   1.889
38084W        W 6447   4.699  13.106  10.408
38085W        W 6448   2.244  19.125   2.304
38086W        W 6449  38.512  31.106   3.195
38087W        W 6450  34.506  26.097   4.635
38088W        W 6451  42.322  27.157   2.854
38089W        W 6452  25.012   9.150  13.432
38090W        W 6453  23.109  13.148   3.194
38091W        W 6454   2.419  17.149  11.491
38092W        W 6455  11.342  41.995  14.288
38093W        W 6456   6.719  25.656  13.525
38094W        W 6457  35.027   1.394   5.162
38095W        W 6458  32.636  30.579   3.835
38096W        W 6459  40.411   5.199   1.369
38097W        W 6460  42.992  28.082  13.932
38098W        W 6461   2.406  33.475  11.488
38099W        W 6462  34.956  29.125   3.846
38100W        W 6463  41.990  15.112   3.851
38101W        W 6464  15.164  13.619  12.896
38102W        W 6465  29.167   7.388   2.854
38103W        W 6466   1.791  44.321  10.116
38104W        W 6467  36.086  38.511   1.218
38105W        W 6468  37.926  25.128   2.367
38106W        W 6469  41.028  11.162   1.316
38107W        W 6470   5.207  43.877   3.200
38108W        W 6471  16.072   0.946   0.783
38109W        W 6472  16.315   2.819  10.577
38110W        W 6473  36.566  23.659  14.894
38111W        W 6474  43.978  17.663  14.891
38112W        W 6475  32.915  30.140   2.721
38113W        W 6476  29.629   3.893  12.883
38114W        W 6477  11.163   5.758  10.422
38115W        W 6478   4.870  19.175  13.520
38116W        W 6479   2.420   9.380   0.272
38117W        W 6480   9.196  13.158  13.931
38118W        W 6481  26.144   6.360   2.680
38119W        W 6482  11.624  18.184   2.244
38120W        W 6483  12.342  20.571  10.493
38121W        W 6484   2.809   8.282  11.086
38122W        W 6485  41.496  15.299  10.527
38123W        W 6486  34.519  13.165  13.001
38124W        W 6487  27.469  30.141  12.559
38125W        W 6488   2.794  44.011  10.001
38126W        W 6489  25.209  38.877  10.442
38127W        W 6490  30.004   7.206  11.890
38128W        W 6491  11.739   8.870  13.947
38129W        W 6492  24.975  19.563  11.611
38130W        W 6493   7.744  27.016  13.504
38131W        W 6494  41.805  17.105  14.989
38132W        W 6495   0.274  20.617   4.226
38133W        W 6496  33.095  10.316   2.340
38134W        W 6497  26.072  31.447  10.633
38135W        W 6498  16.716  36.942  13.325
38136W        W 6499  40.538  34.605  12.998
38137W        W 6500  42.378  41.040  13.540
38138W        W 6501  39.474  28.057  13.401
38139W        W 6502   7.693  37.912   2.756
38140W        W 6503  28.487  32.471  11.093
38141W        W 6504  25.044  15.161  10.605
38142W        W 6505  23.528  10.218   0.425
38143W        W 6506   7.198  31.628  10.939
38144W        W 6507  12.337  26.109  13.321
38145W        W 6508   0.878  39.481   0.887
38146W        W 6509  13.277  11.716   3.326
38147W        W 6510  22.251  18.762  11.859
38148W        W 6511   9.840  17.774  12.020
38149W        W 6512  20.754  10.163  12.990
38150W        W 6513  17.706  44.765  12.375
38151W        W 6514   4.757  43.808   9.438
38152W        W 6515  22.105   0.394   1.916
38153W        W 6516  40.929   3.836   1.736
38154W        W 6517  16.573  10.240   1.851
38155W        W 6518   7.289  12.691  10.427
38156W        W 6519   7.392   1.245   0.326
38157W        W 6520  33.947  34.552   4.120
38158W        W 6521   9.252   5.826  14.336
38159W        W 6522  25.610  30.486  10.498
38160W        W 6523  38.377  28.540   2.690
38161W        W 6524  42.830  24.137  10.437
38162W        W 6525  25.478  37.069  12.399
38163W        W 6526   9.759  32.410  12.344
38164W        W 6527  13.642   7.285  10.976
38165W        W 6528   8.700  10.728  13.462
38166W        W 6529  29.109  30.099   3.809
38167W        W 6530  33.622   8.882  14.427
38168W        W 6531  32.419  17.067  10.094
38169W        W 6532  13.740  31.518   3.670
38170W        W 6533   3.250  22.613  13.910
38171W        W 6534   9.337  11.263  12.430
38172W        W 6535  27.057  41.294   3.216
38173W        W 6536   2.872  39.059  14.466
38174W        W 6537  26.553  38.571   3.291
38175W        W 6538   7.786  21.252   5.302
38176W        W 6539  20.655  11.363   3.206
38177W        W 6540  31.962  31.088  10.960
38178W        W 6541  32.448   7.823   3.762
38179W        W 6542  12.688   6.292   5.761
38180W        W 6543   2.247  34.530   0.764
38181W        W 6544   6.744  30.969  11.459
38182W        W 6545   7.363  38.880  13.510
38183W        W 6546   5.362  25.204   4.308
38184W        W 6547  18.760  20.642  13.048
38185W        W 6548  34.961  15.282   1.870
38186W        W 6549  24.080  24.206  13.386
38187W        W 6550  14.774  36.040  12.020
38188W        W 6551  12.651   3.792   4.828
38189W        W 6552   5.274  22.193   1.421
38190W        W 6553   8.258  29.599  13.798
38191W        W 6554   8.295   3.771  10.914
38192W        W 6555   4.420  21.599   4.247
38193W        W 6556  33.443   5.690  12.921
38194W        W 6557  42.450  15.679  12.547
38195W        W 6558  35.968  31.988  14.494
38196W        W 6559  44.264   5.832  10.934
38197W        W 6560  24.696   2.454  11.384
38198W        W 6561  31.412  11.232  12.367
38199W        W 6562   0.781  34.995   0.375
38200W        W 6563  43.441  17.793  11.062
38201W        W 6564  36.589  38.985  13.792
38202W        W 6565  27.522  18.144   4.825
38203W        W 6566  30.603   8.724   0.745
38204W        W 6567  42.505  44.307   1.694
38205W        W 6568   8.801  32.937   2.894
38206W        W 6569  25.111   6.715   4.786
38207W        W 6570  20.643  27.494   1.744
38208W        W 6571  36.515  22.526  10.568
38209W        W 6572  42.800  13.799   0.941
38210W        W 6573  31.561  36.398  12.459
38211W        W 6574   6.215  42.808  13.932
38212W        W 6575  35.545  20.699  13.472
38213W        W 6576  12.255   3.723  13.546
38214W        W 6577  26.154  24.215  12.825
38215W        W 6578   7.207   5.278  14.423
38216W        W 6579  30.444  20.585   4.671
38217W        W 6580  24.656  29.469  11.434
38218W        W 6581  29.055  25.649  11.593
38219W        W 6582   7.328  28.082   4.129
38220W        W 6583  36.588  16.790  10.622
38221W        W 6584  29.450  11.654  14.356
38222W        W 6585  11.293  32.937  14.284
38223W        W 6586   9.238  23.734  14.513
38224W        W 6587  36.464  30.053  12.886
38225W        W 6588  25.569  39.445   3.166
38226W        W 6589  38.410  10.654   4.176
38227W        W 6590  36.971  31.097   2.295
38228W        W 6591  40.349  10.870  11.597
38229W        W 6592  28.619  26.536  14.875
38230W        W 6593  38.071   6.905  14.807
38231W        W 6594   7.300  33.070  13.313
38232W        W 6595  28.970  11.760   2.864
38233W        W 6596  40.532  32.896   0.404
38234W        W 6597  16.250  27.964   4.732
38235W        W 6598  18.157  27.949  14.289
38236W        W 6599  13.644   6.316   9.593
38237W        W 6600  28.537  28.014   1.774
38238W        W 6601   4.285  16.097   1.718
38239W        W 6602  22.674  16.169   4.284
38240W        W 6603  27.079  44.961  14.515
38241W        W 6604  34.120  44.426   3.152
38242W        W 6605  12.845  26.468  10.496
38243W        W 6606  17.726  41.397   5.129
38244W        W 6607  42.466  25.079  13.826
38245W        W 6608  17.291  14.742   0.726
38246W        W 6609   0.941  23.561   9.602
38247W        W 6610  14.671   1.269  10.459
38248W        W 6611  27.581  24.037  12.012
38249W        W 6612   5.894  28.028  14.864
38250W        W 6613   9.313  10.841   1.778
38251W        W 6614  39.545  26.668  10.036
38252W        W 6615  41.918  44.911   2.395
38253W        W 6616  20.671   6.813  11.908
38254W        W 6617  43.832  39.365   2.266
38255W        W 6618  29.564   5.914   0.792
38256W        W 6619  29.059  34.088  12.980
38257W        W 6620  19.778  19.572   0.410
38258W        W 6621  31.148  12.618  14.363
38259W        W 6622  40.312  34.969   4.818
38260W        W 6623  41.375   7.884   2.389
38261W        W 6624  24.725  11.270   3.288
38262W        W 6625   7.872  10.751  13.802
38263W        W 6626   1.289  38.461   2.821
38264W        W 6627  29.636   5.410  11.008
38265W        W 6628  18.131  27.084  14.909
38266W        W 6629   1.444  31.144   1.293
38267W        W 6630  16.678   3.302  14.285
38268W        W 6631  40.547  24.493  10.604
38269W        W 6632   3.746  39.918  10.547
38270W        W 6633   5.885  18.547   2.357
38271W        W 6634  24.006  21.204  13.818
38272W        W 6635  14.607  39.434  11.890
38273W        W 6636  41.443  34.092   0.445
38274W        W 6637  31.006  24.012   4.328
38275W        W 6638  17.238  13.203  12.556
38276W        W 6639  41.029  44.305  13.814
38277W        W 6640   6.284  28.083  12.080
38278W        W 6641  26.958   1.255  12.066
38279W        W 6642  40.368  13.181  13.026
38280W        W 6643  17.094  24.570  10.426
38281W        W 6644  38.526  24.079   0.815
38282W        W 6645  10.789  20.115  12.579
38283W        W 6646  10.317  19.534   2.751
38284W        W 6647  11.733  40.855   4.301
38285W        W 6648  44.416   8.181   4.620
38286W        W 6649  25.477  39.065  13.949
38287W        W 6650  33.509  38.362  10.437
38288W        W 6651  16.764  22.025   4.313
38289W        W 6652  43.323  24.054  11.044
38290W        W 6653  43.776  22.136  10.987
38291W        W 6654  23.600  11.145   2.192
38292W        W 6655  26.534  12.257  10.560
38293W        W 6656  30.992  19.251  14.863
38294W        W 6657  31.593  19.715   0.811
38295W        W 6658  41.417  42.486   1.284
38296W        W 6659  36.912  12.316   4.287
38297W        W 6660   5.350  39.445  14.976
38298W        W 6661  35.062  40.017  10.489
38299W        W 6662  17.582  12.169  14.286
38300W        W 6663   7.750  18.626   4.619
38301W        W 6664  29.546  34.553   4.303
38302W        W 6665   8.240  18.099   2.298
38303W        W 6666  40.485   1.367  10.521
38304W        W 6667   2.410  31.112   1.450
38305W        W 6668  13.632   2.880   0.879
38306W        W 6669  34.477  41.407   1.309
38307W        W 6670  33.994  23.681  10.548
38308W        W 6671  21.043  16.302  14.847
38309W        W 6672  16.720  32.077  14.477
38310W        W 6673  11.680  18.236  13.836
38311W        W 6674  39.506   9.330  14.824
38312W        W 6675  16.227   4.930  10.943
38313W        W 6676  36.850  21.088  11.526
38314W        W 6677  39.030   4.894  10.140
38315W        W 6678   2.355  31.410   0.889
38316W        W 6679   8.322  20.687   4.271
38317W        W 6680  38.447  12.791  14.898
38318W        W 6681  34.432  18.670   1.860
38319W        W 6682  32.127  16.642  12.832
38320W        W 6683  42.471  19.072   2.805
38321W        W 6684  25.124  14.234  12.422
38322W        W 6685   9.739   4.224   4.280
38323W        W 6686   1.803  12.142   0.865
38324W        W 6687  29.461   2.924   1.323
38325W        W 6688  32.093  43.344  13.347
38326W        W 6689  14.613   0.964   4.301
38327W        W 6690   0.911  42.877   5.098
38328W        W 6691  22.679   7.263  12.464
38329W        W 6692  31.468  41.026  13.407
38330W        W 6693  41.986  15.654  11.049
38331W        W 6694   2.720  41.400   1.291
38332W        W 6695  32.915  25.970   4.114
38333W        W 6696  14.205   6.700  10.574
38334W        W 6697  15.608  17.295  10.159
38335W        W 6698  28.124  14.292  10.505
38336W        W 6699  14.764  27.057  14.950
38337W        W 6700  13.225  11.651  13.511
38338W        W 6701  31.514  23.623  11.898
38339W        W 6702   5.915   5.290   0.749
38340W        W 6703  18.703  11.698  13.362
38341W        W 6704   1.465  13.181   0.276
38342W        W 6705  27.534   3.227  12.048
38343W        W 6706  23.531  21.672   3.634
38344W        W 6707   0.771   1.256   3.365
38345W        W 6708  35.904  44.287  13.373
38346W        W 6709  40.458  44.369  14.401
38347W        W 6710   3.732  32.072   0.445
38348W        W 6711  17.186  13.156  10.537
38349W        W 6712   3.271  25.639   3.767
38350W        W 6713   4.888   7.810   4.774
38351W        W 6714  20.066   1.364   0.453
38352W        W 6715   4.226   4.876   4.216
38353W        W 6716  20.113  37.500  13.321
38354W        W 6717  16.288  33.942   2.821
38355W        W 6718  27.118  41.923  13.410
38356W        W 6719  33.904  18.066   3.212
38357W        W 6720   5.889  29.937   0.400
38358W        W 6721  27.950  26.640   0.886
38359W        W 6722  21.724  41.459   0.746
38360W        W 6723  15.283  27.081   3.856
38361W        W 6724   2.792  43.287   5.653
38362W        W 6725  35.103  31.902  12.557
38363W        W 6726  43.007  18.767  11.010
38364W        W 6727   8.394   4.868   1.372
38365W        W 6728   5.228  20.036  14.323
38366W        W 6729  32.100   2.876   5.299
38367W        W 6730  25.488  38.356  11.989
38368W        W 6731   3.941  30.083   0.392
38369W        W 6732  22.118  28.052  13.907
38370W        W 6733  35.585  17.727  14.905
38371W        W 6734   8.794  36.347  14.009
38372W        W 6735  41.013  40.546   1.305
38373W        W 6736  28.099  27.498  11.559
38374W        W 6737  43.798  38.999   2.850
38375W        W 6738   2.450  21.251   2.665
38376W        W 6739   4.373   5.727   3.775
38377W        W 6740  37.369  18.651  14.875
38378W        W 6741  20.036  15.301  14.952
38379W        W 6742  28.162  16.582   5.693
38380W        W 6743  31.146  26.138   0.901
38381W        W 6744   7.390   3.750  14.802
38382W        W 6745   9.351  25.013  13.810
38383W        W 6746  32.933  30.640  12.377
38384W        W 6747  24.066  28.129   2.777
38385W        W 6748  29.988  33.385  13.932
38386W        W 6749  18.576  36.996  13.320
38387W        W 6750   0.874  31.122   0.318
38388W        W 6751   2.875   1.327  14.439
38389W        W 6752  19.216  43.996  12.354
38390W        W 6753  12.758  44.309  13.312
38391W        W 6754  34.503  17.284   2.864
38392W        W 6755   2.403  26.627   3.849
38393W        W 6756  41.909  19.726   2.859
38394W        W 6757  37.029  37.370  10.899
38395W        W 6758  16.247   9.648   2.358
38396W        W 6759  19.193  28.057  12.936
38397W        W 6760   1.318  17.745  14.860
38398W        W 6761  33.578   7.866   1.861
38399W        W 6762  26.686  41.461   2.698
38400W        W 6763  27.509  25.061   4.150
38401W        W 6764   5.285   2.754  14.769
38402W        W 6765  22.086  29.599   3.258
38403W        W 6766  20.680  31.898   1.806
38404W        W 6767  22.546  25.128   2.710
38405W        W 6768  34.008  35.578   3.747
38406W        W 6769   9.362   5.741  11.985
38407W        W 6770  32.451   6.284  11.545
38408W        W 6771   3.787  31.091  14.296
38409W        W 6772  21.714  21.027   4.247
38410W        W 6773  10.797   7.211  14.792
38411W        W 6774  26.680  37.573   0.333
38412W        W 6775  17.768  29.131  12.963
38413W        W 6776  34.578  30.111   3.759
38414W        W 6777  38.987  10.287  11.952
38415W        W 6778  23.035   0.425  12.826
38416W        W 6779  40.928   4.355   2.209
38417W        W 6780  31.074  23.678  13.912
38418W        W 6781   2.370  22.584  11.605
38419W        W 6782  18.694  22.644  11.574
38420W        W 6783   7.826  28.092   1.447
38421W        W 6784   3.757  37.426   1.314
38422W        W 6785  30.441  30.975  13.950
38423W        W 6786  12.305  20.168  12.917
38424W        W 6787  43.277  27.989   3.219
38425W        W 6788   2.296  16.230   3.645
38426W        W 6789  30.107  28.144  13.807
38427W        W 6790  38.490   1.482  11.588
38428W        W 6791  23.201   3.332   4.174
38429W        W 6792  14.118   9.807  12.531
38430W        W 6793  26.976  24.142   2.704
38431W        W 6794  14.717  18.632  13.471
38432W        W 6795   2.380  41.863   0.757
38433W        W 6796  35.980  35.520  10.514
38434W        W 6797  34.589  30.933  12.993
38435W        W 6798  12.214  11.722  14.332
38436W        W 6799   5.225   9.217  11.077
38437W        W 6800  40.984  13.608  14.443
38438W        W 6801  27.673   1.739  11.457
38439W        W 6802   4.416  32.960   3.172
38440W        W 6803   1.861  40.836  11.494
38441W        W 6804  39.513  26.515   4.721
38442W        W 6805  22.673  34.399  12.027
38443W        W 6806   7.319  19.230  11.082
38444W        W 6807  30.650  10.336  14.331
38445W        W 6808  40.031  43.778   0.330
38446W        W 6809   2.458   4.742  10.455
38447W        W 6810  42.508  38.041   2.678
38448W        W 6811   8.671  32.544  13.926
38449W        W 6812   0.924   4.739   3.224
38450W        W 6813  35.515  37.948   3.717
38451W        W 6814   1.385  27.608  10.610
38452W        W 6815   9.818  44.802   4.219
38453W        W 6816  22.552  42.355  10.067
38454W        W 6817  37.556  28.068   3.680
38455W        W 6818  38.064  18.256   2.851
38456W        W 6819  35.603  10.851  14.852
38457W        W 6820   9.844   5.796   1.251
38458W        W 6821  31.537  28.440   2.311
38459W        W 6822   2.791  15.824   0.365
38460W        W 6823   5.708   4.269   1.726
38461W        W 6824  12.699   5.715   3.774
38462W        W 6825  11.851  11.740   2.187
38463W        W 6826   6.384  27.533  13.457
38464W        W 6827  18.176  40.423   2.352
38465W        W 6828  24.559  10.763  14.436
38466W        W 6829  44.925   1.944  10.917
38467W        W 6830  21.154   2.787  13.383
38468W        W 6831  24.561  42.792   1.831
38469W        W 6832  26.984   6.221   1.434
38470W        W 6833  43.919  10.674  14.301
38471W        W 6834  16.310  10.677  13.310
38472W        W 6835  20.768  39.978  10.999
38473W        W 6836  10.270  15.796  13.875
38474W        W 6837   5.253  32.432   1.275
38475W        W 6838  30.941  19.139  13.806
38476W        W 6839  43.387  17.167  13.917
38477W        W 6840   7.370  39.984   4.829
38478W        W 6841   1.964  24.541  11.091
38479W        W 6842  15.232  36.517  12.948
38480W        W 6843  39.387   2.412   2.303
38481W        W 6844  25.072  10.256   0.332
38482W        W 6845  28.941   8.403  11.937
38483W        W 6846  10.794   3.740  12.419
38484W        W 6847  10.254   3.945  11.391
38485W        W 6848   3.443  16.249   3.361
38486W        W 6849   3.746  35.568  10.506
38487W        W 6850  44.939  12.140   1.848
38488W        W 6851  43.907  29.133  11.407
38489W        W 6852  14.215  43.394  12.355
38490W        W 6853   0.304  12.315  11.500
38491W        W 6854  25.131  16.587   4.626
38492W        W 6855   9.304   9.882  11.934
38493W        W 6856  10.346   2.322  12.854
38494W        W 6857  29.558  12.631  12.081
38495W        W 6858  40.329  24.055   2.400
38496W        W 6859  44.934  36.388   4.124
38497W        W 6860  41.853   3.782   2.816
38498W        W 6861  15.244  31.579   4.208
38499W        W 6862  18.711   5.247  13.947
38500W        W 6863  40.850  12.733   3.641
38501W        W 6864  34.540  31.927  13.464
38502W        W 6865  11.771   8.833  14.958
38503W        W 6866   1.831  43.353  14.322
38504W        W 6867  23.187  23.216   2.257
38505W        W 6868  10.787  29.467  12.360
38506W        W 6869  21.187  31.903  12.095
38507W        W 6870  32.429   0.802   2.266
38508W        W 6871  12.215   2.440  14.926
38509W        W 6872  34.554  33.434  12.578
38510W        W 6873  41.532  18.289   0.887
38511W        W 6874  16.244  13.300   0.324
38512W        W 6875   6.827  17.146   0.945
38513W        W 6876  14.190  32.480   4.200
38514W        W 6877  29.095   0.925  10.612
38515W        W 6878   8.794  32.925  13.323
38516W        W 6879  37.480  19.113  14.015
38517W        W 6880   0.349  21.113  11.435
38518W        W 6881  23.566  11.719  10.624
38519W        W 6882  27.170  10.142   4.671
38520W        W 6883  16.142  38.956  14.429
38521W        W 6884  34.587  10.243  10.519
38522W        W 6885  26.181  15.097  11.049
38523W        W 6886  41.986  19.061  12.423
38524W        W 6887  13.291   6.811  11.383
38525W        W 6888  43.772  44.377   0.918
38526W        W 6889  39.492  35.910   1.721
38527W        W 6890  42.526  11.725   3.195
38528W        W 6891   3.947   5.200   4.212
38529W        W 6892  32.430  37.470   3.173
38530W        W 6893  10.380  24.093   1.805
38531W        W 6894  34.979  17.614  10.463
38532W        W 6895  19.156  44.287   2.713
38533W        W 6896  43.496  34.866   0.854
38534W        W 6897   5.708  11.159  13.511
38535W        W 6898  23.078  28.110  12.507
38536W        W 6899  22.158  12.266  11.993
38537W        W 6900  22.612   9.860   3.736
38538W        W 6901  13.696  42.833   2.326
38539W        W 6902  40.359  27.506   3.637
38540W        W 6903  36.359   0.935  13.864
38541W        W 6904  16.803  17.119  12.079
38542W        W 6905  26.626  13.802   0.966
38543W        W 6906  17.260  35.392  11.477
38544W        W 6907   8.290  40.366   2.248
38545W        W 6908   9.381   5.801  14.965
38546W        W 6909  10.669  41.832   3.342
38547W        W 6910  43.907   4.255  13.878
38548W        W 6911  44.969  21.711  12.949
38549W        W 6912   2.884   6.379  13.047
38550W        W 6913  24.710   3.778  11.941
38551W        W 6914   1.787  35.406   2.821
38552W        W 6915   8.318  10.797   2.406
38553W        W 6916  23.536  32.559  11.427
38554W        W 6917   9.356  12.850   3.783
38555W        W 6918  30.647  11.710  11.595
38556W        W 6919   3.789  17.674   3.328
38557W        W 6920  31.995  19.237   2.841
38558W        W 6921  26.193  18.166   3.706
38559W        W 6922  14.180  42.500  14.483
38560W        W 6923  34.961   7.907   3.211
38561W        W 6924  17.129  36.995  10.577
38562W        W 6925  10.138  13.173  11.938
38563W        W 6926  33.476   6.402   4.808
38564W        W 6927   9.245  20.039   3.372
38565W        W 6928  14.698  23.174   3.200
38566W        W 6929  36.424  27.498  11.933
38567W        W 6930  40.853  37.478   0.346
38568W        W 6931  36.585  31.068  13.006
38569W        W 6932   3.712  41.483  14.465
38570W        W 6933  40.402  44.458  11.423
38571W        W 6934  14.820  36.950  11.126
38572W        W 6935  34.531  41.833  14.760
38573W        W 6936   7.255  31.482  10.607
38574W        W 6937   5.743  38.870   2.773
38575W        W 6938  25.658   8.756   5.220
38576W        W 6939  23.992  17.748   1.330
38577W        W 6940  27.638  27.000  14.019
38578W        W 6941  43.782   1.816  14.955
38579W        W 6942   0.914   1.443   2.276
38580W        W 6943  33.933   0.873   1.828
38581W        W 6944  29.522  28.656  11.391
38582W        W 6945  26.590  17.736   4.659
38583W        W 6946   9.783  23.198   0.285
38584W        W 6947   6.286  25.978   2.888
38585W        W 6948  28.023   3.844   2.335
38586W        W 6949  31.420  44.813   1.695
38587W        W 6950   6.736  36.397   4.616
38588W        W 6951  37.850  33.960  10.920
38589W        W 6952  17.166  11.635   0.829
38590W        W 6953   7.320  20.053  12.340
38591W        W 6954  11.794  40.402   0.420
38592W        W 6955   3.316  28.059   1.363
38593W        W 6956  19.162   7.224  11.871
38594W        W 6957  44.450  11.752   1.886
38595W        W 6958  25.596  29.093   2.413
38596W        W 6959  10.792  16.626   1.446
38597W        W 6960  13.617  14.307   3.731
38598W        W 6961   5.713  21.072   2.808
38599W        W 6962  36.457  42.507  13.340
38600W        W 6963   3.336  33.043   1.793
38601W        W 6964   2.748  20.763   3.176
38602W        W 6965  22.162  20.749  10.469
38603W        W 6966  41.415  23.142   3.375
38604W        W 6967  25.972  43.468   2.265
38605W        W 6968   8.344  33.476  12.849
38606W        W 6969  14.312  33.106  10.579
38607W        W 6970  15.095  16.681  13.416
38608W        W 6971  37.953   5.914   0.788
38609W        W 6972   5.249  38.359   0.828
38610W        W 6973  23.139  40.303  11.979
38611W        W 6974  16.099   4.820  14.488
38612W        W 6975  34.542  42.824  10.934
38613W        W 6976  32.992  28.607  10.626
38614W        W 6977  14.672  17.770   2.270
38615W        W 6978  34.419   6.728   2.300
38616W        W 6979   6.835  24.030  13.504
38617W        W 6980  12.735  37.891   4.333
38618W        W 6981  20.262  34.030  11.527
38619W        W 6982  19.182  38.489  13.438
38620W        W 6983  44.462   9.163  12.888
38621W        W 6984  32.062  23.613  13.994
38622W        W 6985  42.306  32.995   1.286
38623W        W 6986  22.590  38.016  10.601
38624W        W 6987  39.963   4.336  12.853
38625W        W 6988  44.268  32.112   4.824
38626W        W 6989   4.237  37.840   3.200
38627W        W 6990   1.245  17.249   2.679
38628W        W 6991  27.072   5.772   0.728
38629W        W 6992  43.882  28.127  12.436
38630W        W 6993   6.351   0.358   3.378
38631W        W 6994  36.028  14.755   2.203
38632W        W 6995   7.199   9.664   2.393
38633W        W 6996  43.905  20.677   2.883
38634W        W 6997  24.028  33.083   1.418
38635W        W 6998   4.865  31.946  11.082
38636W        W 6999  19.241  44.844   4.204
38637W        W 7000   4.438  36.076  10.600
38638W        W 7001  11.129  42.025   4.606
38639W        W 7002   8.204   4.287   4.188
38640W        W 7003  42.929  31.430   3.312
38641W        W 7004  12.117  27.550   3.277
38642W        W 7005  16.627  20.541  14.310
38643W        W 7006  12.704  26.691   2.776
38644W        W 7007  30.601  33.881   2.883
38645W        W 7008  43.379   5.213  10.424
38646W        W 7009  18.251  21.623  12.847
38647W        W 7010   1.480  39.839  14.399
38648W        W 7011  37.455  31.099  10.959
38649W        W 7012   8.866  21.045  10.438
38650W        W 7013   3.437  14.671  12.956
38651W        W 7014  38.855   2.722  14.458
38652W        W 7015  42.355  32.607   2.830
38653W        W 7016   6.345  26.697  12.406
38654W        W 7017  10.209  24.611  11.591
38655W        W 7018   8.319   1.287  11.938
38656W        W 7019  38.997  37.546  12.861
38657W        W 7020  25.561  17.079   2.227
38658W        W 7021   6.420  32.906  14.290
38659W        W 7022  16.774  39.981  11.102
38660W        W 7023  21.181  19.237   2.209
38661W        W 7024   0.366   9.705  11.894
38662W        W 7025  44.806  39.918   3.867
38663W        W 7026   0.397  41.849   2.800
38664W        W 7027  43.315   9.761  14.412
38665W        W 7028  28.486  40.817  12.401
38666W        W 7029   0.484  15.759   3.652
38667W        W 7030  17.565  24.033   4.609
38668W        W 7031  20.756  24.025   0.862
38669W        W 7032   1.474   0.440  14.967
38670W        W 7033  23.121  43.274   4.731
38671W        W 7034   3.811   3.772   3.344
38672W        W 7035  29.945  33.089  14.308
38673W        W 7036  34.481  36.896  14.793
38674W        W 7037  14.316  39.317   1.842
38675W        W 7038  26.539   5.206  11.964
38676W        W 7039  33.131  31.425   3.368
38677W        W 7040  13.701   4.878  12.387
38678W        W 7041  12.147  10.644   3.852
38679W        W 7042  38.893  26.504  14.916
38680W        W 7043  17.750  24.609  11.490
38681W        W 7044  13.271   5.849   2.340
38682W        W 7045  21.030  17.643  12.033
38683W        W 7046   0.325  10.323   0.824
38684W        W 7047  13.635  21.174  11.894
38685W        W 7048   2.750  36.472  13.323
38686W        W 7049  40.987  19.695  10.933
38687W        W 7050  43.270  36.955  13.409
38688W        W 7051  24.983  21.214   1.266
38689W        W 7052  20.111  24.632   4.337
38690W        W 7053  43.345   2.946  14.022
38691W        W 7054  20.184  31.427  13.896
38692W        W 7055  38.059   8.259  11.392
38693W        W 7056  17.685  26.457  11.478
38694W        W 7057  13.329  44.784   0.961
38695W        W 7058  13.837   3.906   0.411
38696W        W 7059  29.036   1.319  12.948
38697W        W 7060   9.647  43.426  11.972
38698W        W 7061  40.492  41.411  12.017
38699W        W 7062   6.713   1.817   3.218
38700W        W 7063   2.414  41.359  13.936
38701W        W 7064   1.371  15.716   3.744
38702W        W 7065  34.462  13.322   4.212
38703W        W 7066   9.874   4.729  12.396
38704W        W 7067   7.183  17.741   2.903
38705W        W 7068  20.229   3.790  12.055
38706W        W 7069  22.507  15.696  12.457
38707W        W 7070  38.505  14.744  14.020
38708W        W 7071   0.321  15.616  10.927
38709W        W 7072  31.584  27.564  14.424
38710W        W 7073  26.473  23.497   4.641
38711W        W 7074   1.810  34.444   3.656
38712W        W 7075  16.738  13.672   4.685
38713W        W 7076  29.162  39.813   0.836
38714W        W 7077  29.511  44.377   2.339
38715W        W 7078   4.743   7.787  12.461
38716W        W 7079   7.757  15.302   4.226
38717W        W 7080   3.711  38.410  13.317
38718W        W 7081  43.505  43.915  11.543
38719W        W 7082  23.058  13.238  12.506
38720W        W 7083  10.714  38.068  13.796
38721W        W 7084  25.498  15.778   5.128
38722W        W 7085  25.216   3.725   3.841
38723W        W 7086  33.875  29.103  14.901
38724W        W 7087  40.870  42.527   4.733
38725W        W 7088  43.963  28.048   0.888
38726W        W 7089  18.285  24.028   1.857
38727W        W 7090  14.653   7.272   3.716
38728W        W 7091   8.807  32.957   1.777
38729W        W 7092   4.209  33.115   1.238
38730W        W 7093   1.787   9.677   2.771
38731W        W 7094  15.318  34.463   1.793
38732W        W 7095  37.884   0.785   4.827
38733W        W 7096   2.885  36.969  10.537
38734W        W 7097  16.635  35.549  14.275
38735W        W 7098  22.180  26.029   4.831
38736W        W 7099  29.447  15.262  11.430
38737W        W 7100  40.340  29.959  11.040
38738W        W 7101  22.044  39.058  11.981
38739W        W 7102  18.215   3.889   0.319
38740W        W 7103  41.359   7.704   3.358
38741W        W 7104  12.341  43.840  14.006
38742W        W 7105   0.880  12.179  11.905
38743W        W 7106  39.945  23.636  13.420
38744W        W 7107  43.490  31.925  11.092
38745W        W 7108  36.914  23.497   4.150
38746W        W 7109   3.233  26.518   5.219
38747W        W 7110  16.169  13.743  13.342
38748W        W 7111  41.942  29.093   3.320
38749W        W 7112  21.038  12.634  13.500
38750W        W 7113  35.900   1.848  12.080
38751W        W 7114  18.237  30.536  14.957
38752W        W 7115  18.769  36.932   1.788
38753W        W 7116  30.460  21.147  14.293
38754W        W 7117   3.362  43.890   2.316
38755W        W 7118  31.459  23.577  13.867
38756W        W 7119  17.710  10.242   1.263
38757W        W 7120  42.793  19.191   1.783
38758W        W 7121  16.591  39.370   2.779
38759W        W 7122   4.897  37.941   4.206
38760W        W 7123  16.653  15.184   0.730
38761W        W 7124  28.962   9.272  11.461
38762W        W 7125  27.057  15.329   3.302
38763W        W 7126   7.682  14.139  10.044
38764W        W 7127  16.762  24.228  13.053
38765W        W 7128  15.242  30.084   4.168
38766W        W 7129  25.191   2.403  10.895
38767W        W 7130  42.384   6.197   2.707
38768W        W 7131  21.678  15.110   1.759
38769W        W 7132  17.777   6.367   3.280
38770W        W 7133  12.781  39.049   3.251
38771W        W 7134   3.943  33.559  14.381
38772W        W 7135  41.986  23.046  13.036
38773W        W 7136   7.746  24.143   5.188
38774W        W 7137   1.257  36.992   0.760
38775W        W 7138  41.042  44.258   4.218
38776W        W 7139  11.229  44.008  13.889
38777W        W 7140  14.238  19.628   3.285
38778W        W 7141  29.582   6.357  14.862
38779W        W 7142  17.244  41.789   2.793
38780W        W 7143  18.120  11.254   0.750
38781W        W 7144  40.955   8.864  14.303
38782W        W 7145  20.076   7.255  13.934
38783W        W 7146  31.081  18.213  13.354
38784W        W 7147   5.219   7.844   3.786
38785W        W 7148   4.277  10.655  14.958
38786W        W 7149  40.429  17.085   4.640
38787W        W 7150  22.048  32.579  13.341
38788W        W 7151  25.530  33.111   1.826
38789W        W 7152   2.935  24.112   0.829
38790W        W 7153  15.598   6.295   2.708
38791W        W 7154  24.982  30.489   4.246
38792W        W 7155   0.313  18.659   3.322
38793W        W 7156  12.714  17.161   2.358
38794W        W 7157  12.353  17.104  11.056
38795W        W 7158  15.211   3.854   3.258
38796W        W 7159  33.412   8.665   3.660
38797W        W 7160  20.728  24.539   1.330
38798W        W 7161  42.899  32.492  10.443
38799W        W 7162   8.363   7.307  14.888
38800W        W 7163  21.257  32.445   0.348
38801W        W 7164  13.647  31.423  13.313
38802W        W 7165  13.157   6.425   4.353
38803W        W 7166   3.276   4.848   0.853
38804W        W 7167  18.637   7.317   0.325
38805W        W 7168   4.223  12.791   4.631
38806W        W 7169   7.884  26.563   4.745
38807W        W 7170   1.433   9.171  10.989
38808W        W 7171   7.843  22.703  11.565
38809W        W 7172   6.691   5.873  12.504
38810W        W 7173  25.645  16.084  12.966
38811W        W 7174  34.444   2.886   2.182
38812W        W 7175  32.921   0.821  10.981
38813W        W 7176  21.192  39.913  11.073
38814W        W 7177  30.998  26.679  14.404
38815W        W 7178  15.681  22.570   4.661
38816W        W 7179   7.907  33.620   1.338
38817W        W 7180  36.442   4.747   2.667
38818W        W 7181  44.997   5.694  11.580
38819W        W 7182  17.177   2.469  11.962
38820W        W 7183   1.375  27.188   2.316
38821W        W 7184  13.122  22.176  10.926
38822W        W 7185  36.067  16.298  13.024
38823W        W 7186   8.230   3.426  12.049
38824W        W 7187  40.480  25.659   2.857
38825W        W 7188  28.146  12.213   3.639
38826W        W 7189  34.989  18.765   1.877
38827W        W 7190   4.900  29.536  12.485
38828W        W 7191   5.333   7.187  14.349
38829W        W 7192   2.472  38.936   1.703
38830W        W 7193  27.004   3.933  11.402
38831W        W 7194  44.263  14.608   3.775
38832W        W 7195   8.286  27.683  12.412
38833W        W 7196  21.154  39.924   4.670
38834W        W 7197  26.684  24.103  14.994
38835W        W 7198  11.772  30.457  12.083
38836W        W 7199  12.146   5.335   0.849
38837W        W 7200   9.808  18.565  13.967
38838W        W 7201  17.722   8.811  11.071
38839W        W 7202  12.749   5.879  11.057
38840W        W 7203  43.811  31.976  12.477
38841W        W 7204   4.330  31.039   3.334
38842W        W 7205  35.565  40.950  14.010
38843W        W 7206   2.725  22.065   3.173
38844W        W 7207  14.211  10.279   4.827
38845W        W 7208  12.126   0.860  12.432
38846W        W 7209   4.272   7.398   3.639
38847W        W 7210  40.366  29.931  14.766
38848W        W 7211  12.276  30.646   3.371
38849W        W 7212  14.220   7.722   4.218
38850W        W 7213  10.282   9.370  11.053
38851W        W 7214  15.732  14.175   0.873
38852W        W 7215  33.036  34.964  12.858
38853W        W 7216  12.334  39.967   0.827
38854W        W 7217  39.997  41.996   4.125
38855W        W 7218   5.325   3.838   0.737
38856W        W 7219   5.896  44.431  10.954
38857W        W 7220  10.632  15.124  11.578
38858W        W 7221  12.837  30.467  10.627
38859W        W 7222  40.342  22.648  14.873
38860W        W 7223  15.265  20.753   4.598
38861W        W 7224  35.855   2.918   3.313
38862W        W 7225  15.751  32.438  14.861
38863W        W 7226  34.098  18.052   0.782
38864W        W 7227   8.661  31.098  11.442
38865W        W 7228  40.036  13.330   5.323
38866W        W 7229  22.127  27.682   1.934
38867W        W 7230  26.099   6.830   2.766
38868W        W 7231   3.243  20.119   5.117
38869W        W 7232  41.323  41.864   0.758
38870W        W 7233   9.664  43.376   1.754
38871W        W 7234   6.848  19.081  13.459
38872W        W 7235  43.318  30.613  10.995
38873W        W 7236  41.044  16.610  14.786
38874W        W 7237  30.065  38.521   2.384
38875W        W 7238  41.983  15.753  11.955
38876W        W 7239  36.419  29.443   3.694
38877W        W 7240  34.538   9.883   3.256
38878W        W 7241  14.221  32.940  12.931
38879W        W 7242  27.954  24.694   2.781
38880W        W 7243  33.019   8.339   3.687
38881W        W 7244  30.538  20.057   3.285
38882W        W 7245  37.879  17.233  11.050
38883W        W 7246  13.229  14.272   2.837
38884W        W 7247  31.506  20.109  11.413
38885W        W 7248  36.850  10.796   3.278
38886W        W 7249   5.278  14.645  11.513
38887W        W 7250  35.569  23.605  12.851
38888W        W 7251  37.438  35.945   2.863
38889W        W 7252   8.287   7.210  13.540
38890W        W 7253  41.534  10.380   2.199
38891W        W 7254  32.070  41.877   4.179
38892W        W 7255  38.931   9.192   3.739
38893W        W 7256  31.632  42.426   2.203
38894W        W 7257  21.757  35.911   3.365
38895W        W 7258   8.396  38.415   2.356
38896W        W 7259  37.487   2.325   4.182
38897W        W 7260  23.501  12.633   0.776
38898W        W 7261  26.460  30.477   0.795
38899W        W 7262  40.816  36.866  12.978
38900W        W 7263  20.079  28.653  13.386
38901W        W 7264  41.963   8.790   1.931
38902W        W 7265  17.760   9.163  11.004
38903W        W 7266  19.185  35.005   2.296
38904W        W 7267  11.196  37.569  12.972
38905W        W 7268  22.138   9.233  13.930
38906W        W 7269  12.120  26.125  11.119
38907W        W 7270  16.745  26.519   0.820
38908W        W 7271  28.654   5.417  11.376
38909W        W 7272  31.063  21.118   4.599
38910W        W 7273   2.887  20.242   3.820
38911W        W 7274   0.864  16.271   0.264
38912W        W 7275   2.801  41.333  12.461
38913W        W 7276  36.395   9.278  12.425
38914W        W 7277  39.897   7.174   3.184
38915W        W 7278  15.157  34.408   0.843
38916W        W 7279  31.580   3.422  14.870
38917W        W 7280  12.736  32.063   1.383
38918W        W 7281  43.935  29.634  13.883
38919W        W 7282  39.437  19.588   3.243
38920W        W 7283  19.685  44.933  13.822
38921W        W 7284  40.838  25.091   1.803
38922W        W 7285  24.221  41.007   0.830
38923W        W 7286  22.669  14.158  14.874
38924W        W 7287  41.301  31.069   2.205
38925W        W 7288  40.457   1.938   1.802
38926W        W 7289  35.964  33.466   5.112
38927W        W 7290  15.591  10.186  14.861
38928W        W 7291   4.897  44.484  12.071
38929W        W 7292  40.449  31.983  12.443
38930W        W 7293  40.931  35.572   4.195
38931W        W 7294  34.376  16.259   3.362
38932W        W 7295  42.963  15.786  13.816
38933W        W 7296  43.923  10.720  12.913
38934W        W 7297   8.726  43.297  10.421
38935W        W 7298  10.720  30.158   3.331
38936W        W 7299  43.846   8.786  14.880
38937W        W 7300  38.032  20.662   1.302
38938W        W 7301  23.151  39.010  10.964
38939W        W 7302  21.538  25.206   5.090
38940W        W 7303  33.451  40.910  10.068
38941W        W 7304  14.757  10.192   0.245
38942W        W 7305  44.501  36.463  10.624
38943W        W 7306  13.333   0.943  10.557
38944W        W 7307  41.970  25.136  14.952
38945W        W 7308  23.672  41.003  12.833
38946W        W 7309  25.519  31.589   0.311
38947W        W 7310  24.091  22.517  11.969
38948W        W 7311  44.500  17.567  13.503
38949W        W 7312  31.122  42.877   3.240
38950W        W 7313  13.668   6.292  14.811
38951W        W 7314   5.353  18.603   2.220
38952W        W 7315  28.479  21.553  14.419
38953W        W 7316  41.402  35.534  11.879
38954W        W 7317   4.782  13.143  14.986
38955W        W 7318  28.651  34.877   0.333
38956W        W 7319  14.826  22.201   3.747
38957W        W 7320  33.404  12.133   1.917
38958W        W 7321  43.503  24.629  14.003
38959W        W 7322   7.749  33.578   2.222
38960W        W 7323   2.371  27.580  14.285
38961W        W 7324  37.906  32.621  10.577
38962W        W 7325  20.678  30.591   1.274
38963W        W 7326  27.613  20.626   4.265
38964W        W 7327   6.319  11.837  13.913
38965W        W 7328  12.844   4.313  11.492
38966W        W 7329  24.210  29.443  10.470
38967W        W 7330  18.281  32.485   3.316
38968W        W 7331  39.931  19.739  14.863
38969W        W 7332  37.482  36.998   1.407
38970W        W 7333  24.013  36.549  14.771
38971W        W 7334  43.291  27.949  11.511
38972W        W 7335  41.041   2.753  11.453
38973W        W 7336  24.127   9.676  13.023
38974W        W 7337  24.132  27.544   1.299
38975W        W 7338   1.326  14.117   2.820
38976W        W 7339   3.217   7.708  11.934
38977W        W 7340  42.795  37.437  11.972
38978W        W 7341  22.111  27.570  10.410
38979W        W 7342  36.370  34.073  11.064
38980W        W 7343  36.564  33.075   1.848
38981W        W 7344  11.227  39.937  11.103
38982W        W 7345   8.755  23.531  14.767
38983W        W 7346  17.605  15.792  10.546
38984W        W 7347  38.330   0.880  11.032
38985W        W 7348  13.793   7.285   4.802
38986W        W 7349  26.054  35.061   1.349
38987W        W 7350  44.354  23.666  14.402
38988W        W 7351  30.564  22.144   2.406
38989W        W 7352  18.734  25.175  14.299
38990W        W 7353  24.589  29.578  11.875
38991W        W 7354  34.865  44.376  11.553
38992W        W 7355  25.007  25.563  10.622
38993W        W 7356  33.528  22.667  12.457
38994W        W 7357  38.978  39.879  13.461
38995W        W 7358  41.528  24.021  14.358
38996W        W 7359  12.351   4.443   2.785
38997W        W 7360  36.953  19.278  11.562
38998W        W 7361  35.934  12.813   2.247
38999W        W 7362  12.668  18.167  14.288
39000W        W 7363  43.442  44.956   4.747
39001W        W 7364  40.888  16.280  11.483
39002W        W 7365   4.837  29.540  10.957
39003W        W 7366  31.565  44.883   0.884
39004W        W 7367  25.113   8.251   2.326
39005W        W 7368  36.906   9.736  11.555
39006W        W 7369  24.125   9.372   0.823
39007W        W 7370  19.043   2.240  14.803
39008W        W 7371  18.597   5.368   0.922
39009W        W 7372  25.124  23.216   0.348
39010W        W 7373  32.963  43.414  14.973
39011W        W 7374   2.862  22.176  12.960
39012W        W 7375   6.740   0.324   3.841
39013W        W 7376  37.432  24.083   2.853
39014W        W 7377  29.564  21.174   3.213
39015W        W 7378   4.396  43.940   3.196
39016W        W 7379  30.464  44.290   0.284
39017W        W 7380   1.850  42.323   1.363
39018W        W 7381   7.841  41.949  12.927
39019W        W 7382   1.433  42.395  12.047
39020W        W 7383   5.367  16.671   2.724
39021W        W 7384  40.527  12.286   0.926
39022W        W 7385  31.403  30.977   2.677
39023W        W 7386  40.325  30.516   3.674
39024W        W 7387  22.533   1.967   4.311
39025W        W 7388  29.991  29.018   1.412
39026W        W 7389  16.306  10.210  10.540
39027W        W 7390   7.248  16.587  13.329
39028W        W 7391  43.861  28.637   4.737
39029W        W 7392  11.783  23.147  13.449
39030W        W 7393  38.893  23.016   4.809
39031W        W 7394  27.053   1.795   1.388
39032W        W 7395   0.479  33.383  13.466
39033W        W 7396  20.654  30.119   4.601
39034W        W 7397   1.256  31.647   3.865
39035W        W 7398  40.306  30.575  11.563
39036W        W 7399  36.867   8.887  12.908
39037W        W 7400  24.641  42.527   2.764
39038W        W 7401   1.972  17.739   3.346
39039W        W 7402  43.883  13.197   3.787
39040W        W 7403  11.134  16.643   4.158
39041W        W 7404  16.174  21.592  12.499
39042W        W 7405  19.747   7.813  14.899
39043W        W 7406  29.918  23.063  12.861
39044W        W 7407   7.351  35.884   1.807
39045W        W 7408  39.483  44.309  11.505
39046W        W 7409  21.112  21.553   4.274
39047W        W 7410  24.678  38.447  11.882
39048W        W 7411  16.099  20.729  12.495
39049W        W 7412   5.384  43.961   5.145
39050W        W 7413   0.445   3.258   0.322
39051W        W 7414  35.023   1.859   3.316
39052W        W 7415  27.451   1.813  14.412
39053W        W 7416   9.794  35.927  11.016
39054W        W 7417  17.120  34.034   2.233
39055W        W 7418  16.162  36.994   0.390
39056W        W 7419  16.673  41.387  10.550
39057W        W 7420  39.975  18.105   0.392
39058W        W 7421   2.469  42.513  14.810
39059W        W 7422  17.147   3.221   1.329
39060W        W 7423  28.019  28.113  11.000
39061W        W 7424  27.554  19.701   3.372
39062W        W 7425  23.145  29.444   4.134
39063W        W 7426  25.701  39.903   2.381
39064W        W 7427  41.994  13.233  13.052
39065W        W 7428  30.443  23.522   3.200
39066W        W 7429  39.437  44.437   9.946
39067W        W 7430  13.839  23.239   1.382
39068W        W 7431  34.536  29.131   1.274
39069W        W 7432  14.824  24.565   2.273
39070W        W 7433   5.701   7.768   4.233
39071W        W 7434  12.271  13.349   4.695
39072W        W 7435  41.496   4.297  12.055
39073W        W 7436  31.906   1.470  10.141
39074W        W 7437   4.922  34.865  11.116
39075W        W 7438  43.373  11.810  10.962
39076W        W 7439  14.102  39.941  11.527
39077W        W 7440   7.343  39.327  11.377
39078W        W 7441  27.131  39.418   2.281
39079W        W 7442  11.727  38.856   5.284
39080W        W 7443  18.683   0.774  10.009
39081W        W 7444  29.950  33.498  12.024
39082W        W 7445   0.337   4.883  13.859
39083W        W 7446  40.011  30.511   2.673
39084W        W 7447  27.673   2.853  14.884
39085W        W 7448  19.561  42.013   2.378
39086W        W 7449  15.110  38.418  12.848
39087W        W 7450  10.367  10.802   3.164
39088W        W 7451  40.804  25.497   2.901
39089W        W 7452  23.697  39.868   3.754
39090W        W 7453   4.204  15.704  10.471
39091W        W 7454  32.993  15.284  12.875
39092W        W 7455  26.636  14.610  13.307
39093W        W 7456  11.646  27.980   3.321
39094W        W 7457   2.791  25.690   2.345
39095W        W 7458  29.546  44.406   1.707
39096W        W 7459  20.567  30.103   4.325
39097W        W 7460  10.361  43.914   1.443
39098W        W 7461  39.019  26.167  13.957
39099W        W 7462  35.374  36.036   2.328
39100W        W 7463   5.688  43.427  14.843
39101W        W 7464   3.857  41.953  13.411
39102W        W 7465   2.790  41.807  10.920
39103W        W 7466  28.620  36.503  13.925
39104W        W 7467  18.684  27.952   1.354
39105W        W 7468  20.696  14.735   3.732
39106W        W 7469  32.625  31.618   2.849
39107W        W 7470  29.512  25.468   3.383
39108W        W 7471  30.110  34.583   3.806
39109W        W 7472  43.271  28.617   0.941
39110W        W 7473  33.587  15.637   4.810
39111W        W 7474  43.295  43.376   0.472
39112W        W 7475  12.744   0.373   4.814
39113W        W 7476   1.249  22.054  13.357
39114W        W 7477  20.650  33.894  14.285
39115W        W 7478   8.785  14.756   2.750
39116W        W 7479  43.438  30.609  12.421
39117W        W 7480  11.825  30.589   1.843
39118W        W 7481   8.693  15.705  14.778
39119W        W 7482  33.485  40.345   1.280
39120W        W 7483  44.385  22.522  13.543
39121W        W 7484   0.932   6.318  12.434
39122W        W 7485   8.328  25.551   0.393
39123W        W 7486  31.495  25.647  14.442
39124W        W 7487  15.768  35.439  13.905
39125W        W 7488  40.928  44.933   3.301
39126W        W 7489  16.785  33.607   2.417
39127W        W 7490   4.836   0.273   9.545
39128W        W 7491  11.373  17.774  11.980
39129W        W 7492  26.645  25.060  11.905
39130W        W 7493  17.216  16.214  11.957
39131W        W 7494  25.082   5.250   2.691
39132W        W 7495  34.513  31.564  10.494
39133W        W 7496   4.721  38.823   3.286
39134W        W 7497  23.224  44.365  13.506
39135W        W 7498  15.601  10.788  10.581
39136W        W 7499  17.159  42.822  11.882
39137W        W 7500  36.466  21.202  10.520
39138W        W 7501  26.696  26.696   2.884
39139W        W 7502  23.598  24.134   0.411
39140W        W 7503  15.721   0.764  11.535
39141W        W 7504  20.105  25.970  13.340
39142W        W 7505  22.030   1.766  14.838
39143W        W 7506  12.163  12.738  14.878
39144W        W 7507  27.553  23.606   1.909
39145W        W 7508  18.246  14.102   5.290
39146W        W 7509  42.301  36.978   3.822
39147W        W 7510  20.046  19.142   2.326
39148W        W 7511  23.733   3.762   1.898
39149W        W 7512   0.782  36.011   4.716
39150W        W 7513  42.420  33.969  14.309
39151W        W 7514  11.768   6.772  13.828
39152W        W 7515  36.909  15.821  13.350
39153W        W 7516  28.974   6.845   0.440
39154W        W 7517  11.640   3.886   4.238
39155W        W 7518   9.748  32.587  12.919
39156W        W 7519  41.835  42.875  13.484
39157W        W 7520   7.836   7.315   2.810
39158W        W 7521  20.243  43.821   5.293
39159W        W 7522  10.653  24.033  11.039
39160W        W 7523  39.956   2.279  12.370
39161W        W 7524  30.501  22.063   4.215
39162W        W 7525  31.921   7.821  11.546
39163W        W 7526  23.630  10.260   2.379
39164W        W 7527  35.577  20.201  11.028
39165W        W 7528  27.467   5.305   1.278
39166W        W 7529  15.145  38.416   0.297
39167W        W 7530  23.495  17.603   4.619
39168W        W 7531  25.566  37.382  11.880
39169W        W 7532  36.849   8.183  10.531
39170W        W 7533  11.771  30.497  13.368
39171W        W 7534  42.287  26.107  13.402
39172W        W 7535  10.752   5.405   1.857
39173W        W 7536   9.845  21.167  10.952
39174W        W 7537  14.189  28.053   1.393
39175W        W 7538  25.061  37.373  10.048
39176W        W 7539  43.413  24.702  12.365
39177W        W 7540  41.798  43.390  14.827
39178W        W 7541   4.901  37.971   1.719
39179W        W 7542  27.063   8.754  10.920
39180W        W 7543  43.315   9.859   3.869
39181W        W 7544  19.101  43.511  11.089
39182W        W 7545  26.091  15.721   3.251
39183W        W 7546   2.772   8.820   2.179
39184W        W 7547  44.881  13.320   0.405
39185W        W 7548   2.946  25.557   4.266
39186W        W 7549   3.813  16.786   1.815
39187W        W 7550  27.650   5.702  10.540
39188W        W 7551  39.926   9.206  12.553
39189W        W 7552  10.712  41.444  13.980
39190W        W 7553  19.272  39.345  11.598
39191W        W 7554   5.415  29.521  13.413
39192W        W 7555   7.232  34.587   1.747
39193W        W 7556   3.306  25.025   4.603
39194W        W 7557  10.772  16.075   4.652
39195W        W 7558  24.530   0.477  12.997
39196W        W 7559  42.295  27.020  14.990
39197W        W 7560  22.715  17.120   3.741
39198W        W 7561  21.100  28.545  10.604
39199W        W 7562  10.152  44.967   2.374
39200W        W 7563   9.819  36.868  10.984
39201W        W 7564   9.167   1.316   2.870
39202W        W 7565  13.669  15.151  12.360
39203W        W 7566  20.087  16.580  14.499
39204W        W 7567  11.147  43.354   0.338
39205W        W 7568  14.147  36.401   2.286
39206W        W 7569  28.549  39.422   0.858
39207W        W 7570   4.741   5.389  13.985
39208W        W 7571  29.527  35.380  12.452
39209W        W 7572   0.928  22.687  12.529
39210W        W 7573   7.771  16.614   3.792
39211W        W 7574   4.885  25.674   1.703
39212W        W 7575  28.973  19.271  13.036
39213W        W 7576  32.623  39.906   4.346
39214W        W 7577  38.016  10.672   5.319
39215W        W 7578  35.987  39.866   3.659
39216W        W 7579  22.059  16.099  11.513
39217W        W 7580  17.125  30.079   3.812
39218W        W 7581  30.636  39.477  12.962
39219W        W 7582  42.013  37.955  12.444
39220W        W 7583  14.142   2.329   2.366
39221W        W 7584  44.343  41.370  13.460
39222W        W 7585   4.745  22.512   4.177
39223W        W 7586  35.593  18.295   0.308
39224W        W 7587  13.711  26.180  14.021
39225W        W 7588  22.678  23.054   4.626
39226W        W 7589  26.664  16.262   1.804
39227W        W 7590  26.043   2.282   2.232
39228W        W 7591  43.006  37.947   1.784
39229W        W 7592  40.547  33.074  13.515
39230W        W 7593  38.831  33.559   1.924
39231W        W 7594  15.090  44.328  10.464
39232W        W 7595  23.084  31.450  12.959
39233W        W 7596  24.140  14.774  10.922
39234W        W 7597  34.480   6.318  12.512
39235W        W 7598   8.693  32.480  12.567
39236W        W 7599  33.917   8.699   4.669
39237W        W 7600  36.572  14.618  10.406
39238W        W 7601  28.641   3.954   2.299
39239W        W 7602  18.102  34.109  14.000
39240W        W 7603  10.819   4.252  11.529
39241W        W 7604   0.400   5.744   2.418
39242W        W 7605  42.788  12.227  13.799
39243W        W 7606   9.764  39.929   3.826
39244W        W 7607  25.564  18.545  10.552
39245W        W 7608  37.491  43.791   0.826
39246W        W 7609  40.477   6.258   3.756
39247W        W 7610  40.503  33.982   3.683
39248W        W 7611  42.849  19.655  10.627
39249W        W 7612  27.168  20.126   0.862
39250W        W 7613   0.941  30.474   2.222
39251W        W 7614  42.407   6.400   1.873
39252W        W 7615  35.385  42.015  13.323
39253W        W 7616  37.870  27.074   0.365
39254W        W 7617  28.622  30.586   1.336
39255W        W 7618  13.238  31.420   2.285
39256W        W 7619  14.211  17.592   2.858
39257W        W 7620  16.637  22.149   0.342
39258W        W 7621  17.641  16.599   9.522
39259W        W 7622  20.636   0.376  14.891
39260W        W 7623  41.429  10.336  14.466
39261W        W 7624  16.147  37.442  13.054
39262W        W 7625  37.337  43.863  13.821
39263W        W 7626   1.895   3.234   4.213
39264W        W 7627  16.078  32.068   2.702
39265W        W 7628   4.429  22.613   1.301
39266W        W 7629  35.086  33.575  12.009
39267W        W 7630  15.177  10.274  14.376
39268W        W 7631  32.580  16.749   3.174
39269W        W 7632  15.121   0.950  13.485
39270W        W 7633  10.213  36.972   2.338
39271W        W 7634  11.272  42.776   2.856
39272W        W 7635  26.043  20.082   3.861
39273W        W 7636  19.559  13.265   5.264
39274W        W 7637   9.261  39.430  14.347
39275W        W 7638  17.085   2.425   4.677
39276W        W 7639  36.372  12.303   4.795
39277W        W 7640  24.629  29.455   4.245
39278W        W 7641   4.750  15.173   4.655
39279W        W 7642  32.466  32.093  12.450
39280W        W 7643  27.017   2.961   0.425
39281W        W 7644  43.346  19.197   3.650
39282W        W 7645  19.607   0.491   4.715
39283W        W 7646  16.224  28.522  12.468
39284W        W 7647  42.370  13.782   3.239
39285W        W 7648  42.517  12.781   2.883
39286W        W 7649  29.465  11.371  12.929
39287W        W 7650  41.448  38.448   0.843
39288W        W 7651  38.877  21.201  10.599
39289W        W 7652  21.085   0.290  11.505
39290W        W 7653  43.422  29.107   2.269
39291W        W 7654  27.139  30.423  14.513
39292W        W 7655  22.196  38.538  14.902
39293W        W 7656  24.528  32.457   2.305
39294W        W 7657  19.153  29.481  12.481
39295W        W 7658  12.723  28.483   1.279
39296W        W 7659  38.370  25.036  12.527
39297W        W 7660  23.112  14.119   1.760
39298W        W 7661  36.410  35.967  14.350
39299W        W 7662  34.404  12.228  12.908
39300W        W 7663  39.400  22.617   3.666
39301W        W 7664  40.895  38.441  12.576
39302W        W 7665  25.169   0.253   0.331
39303W        W 7666  17.122   8.319   0.284
39304W        W 7667   6.913  30.439  11.086
39305W        W 7668   7.794  32.978  13.451
39306W        W 7669   2.375  22.048   4.743
39307W        W 7670   2.267   6.855  14.777
39308W        W 7671  29.153  42.499   0.966
39309W        W 7672  42.332  15.169   0.789
39310W        W 7673  31.464  42.002  14.380
39311W        W 7674  22.136   5.769   2.196
39312W        W 7675  33.481  10.659   1.758
39313W        W 7676  40.540  24.676  11.100
39314W        W 7677  38.881   5.805  11.105
39315W        W 7678  44.421  11.657   0.873
39316W        W 7679   1.468  21.154  11.389
39317W        W 7680  14.115  16.678   0.915
39318W        W 7681  32.589  44.415   3.268
39319W        W 7682  13.127  25.131   2.775
39320W        W 7683  30.097  29.611   3.641
39321W        W 7684   0.917  32.430   1.275
39322W        W 7685  19.719  25.204   4.765
39323W        W 7686  43.764  29.141  10.923
39324W        W 7687  15.584  15.652   9.931
39325W        W 7688  36.574  11.198  14.950
39326W        W 7689  16.571  13.724   2.714
39327W        W 7690  30.463  37.347  10.994
39328W        W 7691   9.811  32.077   3.201
39329W        W 7692   4.717   2.881  12.409
39330W        W 7693  39.334  41.829  11.500
39331W        W 7694   1.341  43.779   2.298
39332W        W 7695  20.746  18.685  11.450
39333W        W 7696  38.442   3.943   1.317
39334W        W 7697  19.731  44.794   1.439
39335W        W 7698  34.023   5.318  12.909
39336W        W 7699  26.009  14.691  10.019
39337W        W 7700  40.015  20.660  14.019
39338W        W 7701   7.403  43.972   4.280
39339W        W 7702  18.768   2.766  10.466
39340W        W 7703  27.946  39.348  14.504
39341W        W 7704  32.090   9.159   4.737
39342W        W 7705   0.396  36.884   4.646
39343W        W 7706  20.685  44.481   1.838
39344W        W 7707   7.770   9.674  11.062
39345W        W 7708  15.628  12.766   3.807
39346W        W 7709  18.290  31.955  10.980
39347W        W 7710  28.670  20.135   4.117
39348W        W 7711  44.340  42.509   5.211
39349W        W 7712  12.712   9.328  13.495
39350W        W 7713  21.219  40.859  12.979
39351W        W 7714  30.099   8.219  11.405
39352W        W 7715  38.972  11.133  11.447
39353W        W 7716   5.862  42.969   3.189
39354W        W 7717  27.578  22.697  12.575
39355W        W 7718  36.868  26.174  14.414
39356W        W 7719  17.131  34.000  11.050
39357W        W 7720   4.737  24.721  13.944
39358W        W 7721   0.368  20.135  10.497
39359W        W 7722  42.813  26.207  12.836
39360W        W 7723  33.903  17.251   3.284
39361W        W 7724  22.556  10.712  14.917
39362W        W 7725  27.085  44.908  13.468
39363W        W 7726  31.629  39.364  10.569
39364W        W 7727  24.534  33.079  13.404
39365W        W 7728  44.857  39.444   4.116
39366W        W 7729  38.337   1.305   0.365
39367W        W 7730   6.681  13.755  11.435
39368W        W 7731  29.540  35.600  11.454
39369W        W 7732  26.079  20.161   2.252
39370W        W 7733  23.599  44.489  10.420
39371W        W 7734  36.077  20.646   2.832
39372W        W 7735  17.248  34.102  10.416
39373W        W 7736  35.993   1.906   1.802
39374W        W 7737   1.885  26.656   3.204
39375W        W 7738   1.402  26.602   0.352
39376W        W 7739   1.880  38.442  10.463
39377W        W 7740  24.145  18.244   3.665
39378W        W 7741  25.074  27.573   1.311
39379W        W 7742   9.372  34.562  12.478
39380W        W 7743   0.867   9.184   0.320
39381W        W 7744  19.694   8.677  12.493
39382W        W 7745  34.097  41.901   0.441
39383W        W 7746  20.579  28.084   2.869
39384W        W 7747  17.691   7.347  13.521
39385W        W 7748  44.999  28.660  12.518
39386W        W 7749  36.554   9.871   2.268
39387W        W 7750  38.384  40.303  10.487
39388W        W 7751  41.431  28.593  13.534
39389W        W 7752  13.674  13.330  13.433
39390W        W 7753  35.890  20.089  12.563
39391W        W 7754   7.416  18.136  10.976
39392W        W 7755   4.853  31.950  14.886
39393W        W 7756   0.929  37.357   4.309
39394W        W 7757   3.775  41.479   1.345
39395W        W 7758  29.994  37.959   1.838
39396W        W 7759  44.937  21.255  13.959
39397W        W 7760  33.991  39.010   2.866
39398W        W 7761  29.974  17.578  11.949
39399W        W 7762  36.862  20.127   1.303
39400W        W 7763  36.948  23.673  13.845
39401W        W 7764  22.205  38.830   9.921
39402W        W 7765  24.090  39.046  10.608
39403W        W 7766  23.152  36.355   0.787
39404W        W 7767  16.653  17.292   2.885
39405W        W 7768   9.769  13.234   2.895
39406W        W 7769   5.737  10.144  11.557
39407W        W 7770  15.267  25.175   0.271
39408W        W 7771  21.201  27.559  12.853
39409W        W 7772  28.059  41.445  11.442
39410W        W 7773  13.321  35.879   4.650
39411W        W 7774  26.131  14.178   0.766
39412W        W 7775  41.805  23.498   0.394
39413W        W 7776  25.573  25.612  10.915
39414W        W 7777  33.030  19.144  14.338
39415W        W 7778  29.170   6.305  13.922
39416W        W 7779  19.633  33.008   4.274
39417W        W 7780  34.571  25.153   3.294
39418W        W 7781  28.634  30.992   0.277
39419W        W 7782  38.885   1.836  12.377
39420W        W 7783  25.054  39.968  11.039
39421W        W 7784   0.980  25.128  14.890
39422W        W 7785   3.271  24.488  13.862
39423W        W 7786  39.987  11.345   2.210
39424W        W 7787   6.193  43.426  11.491
39425W        W 7788  33.386   0.393  12.545
39426W        W 7789   8.703  12.735  12.400
39427W        W 7790  36.950   8.339   4.640
39428W        W 7791  30.434  17.660   4.257
39429W        W 7792  11.278  29.093  12.034
39430W        W 7793  37.360  18.104   0.872
39431W        W 7794  14.685   3.927   9.623
39432W        W 7795  43.404  27.464   1.442
39433W        W 7796  23.047  34.552  11.550
39434W        W 7797  24.723  25.696   1.380
39435W        W 7798  23.150  39.535   0.943
39436W        W 7799  39.955  30.110  13.439
39437W        W 7800  26.197  37.871   4.693
39438W        W 7801  28.954  24.146   2.767
39439W        W 7802  35.588  44.853   1.731
39440W        W 7803   4.446  11.783  14.365
39441W        W 7804  37.834   5.340  13.861
39442W        W 7805  23.038  24.712  14.352
39443W        W 7806  43.980   5.263   1.326
39444W        W 7807  25.051   0.249  12.992
39445W        W 7808   9.872  44.468   4.301
39446W        W 7809  26.641  24.098   2.673
39447W        W 7810  26.002  12.803   0.257
39448W        W 7811  35.551  33.504  14.367
39449W        W 7812  39.519  17.629   2.257
39450W        W 7813  15.783  22.064  10.988
39451W        W 7814  11.673  32.613  13.360
39452W        W 7815  24.529   5.919  10.412
39453W        W 7816   5.354   1.837  12.443
39454W        W 7817  15.262  24.703  13.830
39455W        W 7818  30.638  37.923   2.663
39456W        W 7819  27.507  13.282  13.468
39457W        W 7820  29.595  35.061  12.078
39458W        W 7821  16.636  29.668   2.844
39459W        W 7822   4.803   8.768  14.805
39460W        W 7823  21.173   1.948  14.795
39461W        W 7824   0.857  32.944   4.252
39462W        W 7825   2.268  44.930   5.136
39463W        W 7826  20.524  21.735  12.481
39464W        W 7827  10.674   1.421   4.710
39465W        W 7828  37.932  21.048   1.370
39466W        W 7829  17.772  36.911   0.402
39467W        W 7830  44.969  23.144  14.862
39468W        W 7831  40.487  18.709   2.690
39469W        W 7832   2.741  32.990   2.419
39470W        W 7833   9.358  19.541  12.054
39471W        W 7834  43.860  17.209  13.397
39472W        W 7835   5.351  26.961  10.534
39473W        W 7836  11.152  20.037   2.365
39474W        W 7837  20.586  25.082   1.755
39475W        W 7838  32.515  34.501   0.889
39476W        W 7839  34.485  31.926   0.938
39477W        W 7840  41.317  34.046   1.413
39478W        W 7841   6.763  14.271   1.712
39479W        W 7842  23.240  12.125  12.898
39480W        W 7843  23.239   1.838   4.618
39481W        W 7844   2.367   6.767  12.844
39482W        W 7845   4.765  20.220  10.622
39483W        W 7846  13.623  16.596  13.335
39484W        W 7847  31.555   2.420  13.368
39485W        W 7848   8.833   6.318   4.227
39486W        W 7849  14.253  39.336   2.288
39487W        W 7850  25.488   8.170  10.552
39488W        W 7851  35.368  19.090  12.515
39489W        W 7852  28.017  24.026   3.296
39490W        W 7853  34.396  30.925   2.418
39491W        W 7854   2.435   4.430  13.505
39492W        W 7855  25.469  11.262  14.446
39493W        W 7856  35.381  41.483   1.720
39494W        W 7857  11.710   6.397  12.341
39495W        W 7858  14.824   3.235  14.312
39496W        W 7859  10.716  39.369   3.296
39497W        W 7860  14.286  20.198  10.922
39498W        W 7861   1.760  44.377   5.700
39499W        W 7862  42.352   7.671   1.449
39500W        W 7863   3.846  18.093   0.826
39501W        W 7864  43.810  24.523   2.814
39502W        W 7865  28.139  13.195  12.439
39503W        W 7866  27.497  13.660   1.283
39504W        W 7867  19.097   2.822   3.629
39505W        W 7868   9.162  20.700  10.644
39506W        W 7869   6.201  39.506   3.239
39507W        W 7870   8.877   3.446   0.762
39508W        W 7871   5.781  28.489   4.239
39509W        W 7872   2.859  44.306   2.336
39510W        W 7873  32.972  19.247  12.884
39511W        W 7874  24.151  42.380  12.933
39512W        W 7875   6.422  17.102  14.810
39513W        W 7876  14.815  43.288  12.919
39514W        W 7877   3.802  14.737   1.251
39515W        W 7878  34.548  24.540   2.275
39516W        W 7879  35.890  29.011  10.907
39517W        W 7880  30.501  18.675   2.702
39518W        W 7881  31.444   8.713  10.456
39519W        W 7882  38.352  40.855   4.276
39520W        W 7883  26.087  14.676  11.452
39521W        W 7884  36.033  42.926   1.927
39522W        W 7885  35.547  10.682  13.352
39523W        W 7886  37.557  44.863   1.760
39524W        W 7887  19.269   3.818   3.801
39525W        W 7888  30.498  28.540   5.117
39526W        W 7889  15.686  11.622  14.899
39527W        W 7890  26.562   9.767   2.330
39528W        W 7891  11.235  33.593   3.838
39529W        W 7892  43.956  43.934   0.922
39530W        W 7893  44.380  28.158  14.427
39531W        W 7894  15.160   7.402  14.862
39532W        W 7895  44.351  34.029  10.970
39533W        W 7896  15.673  36.447   1.427
39534W        W 7897  10.669  17.281   2.776
39535W        W 7898  42.472  12.335   3.160
39536W        W 7899  18.755   2.250  12.917
39537W        W 7900  13.333  29.444   4.156
39538W        W 7901   2.922  16.317   2.397
39539W        W 7902   7.205   5.871   3.686
39540W        W 7903  31.478  12.633   0.249
39541W        W 7904  27.592  11.749  13.343
39542W        W 7905  32.397   0.783   1.767
39543W        W 7906  14.297  20.769  11.474
39544W        W 7907   3.879   0.774   4.204
39545W        W 7908  41.847   0.946   0.740
39546W        W 7909  25.597   9.269   2.692
39547W        W 7910  39.511   5.852   4.189
39548W        W 7911  15.303  23.238  13.857
39549W        W 7912  18.180  17.062   4.795
39550W        W 7913  20.597  18.175   2.886
39551W        W 7914  19.116  24.123   2.687
39552W        W 7915   8.781  26.100   4.203
39553W        W 7916  21.673  38.541   0.448
39554W        W 7917  14.319   5.807   1.278
39555W        W 7918  20.546  44.317   0.764
39556W        W 7919  43.890   9.732  12.948
39557W        W 7920  19.220  23.683  12.551
39558W        W 7921  31.058   0.919   3.368
39559W        W 7922  18.570  31.934   1.856
39560W        W 7923  29.984  27.521   2.211
39561W        W 7924  17.231   0.887   1.417
39562W        W 7925   1.793   7.688  12.400
39563W        W 7926  17.662   0.435   3.713
39564W        W 7927  43.785  25.476  12.990
39565W        W 7928  16.632  33.514   1.699
39566W        W 7929  29.142  42.997  11.374
39567W        W 7930  42.811   8.839  12.411
39568W        W 7931  43.333  31.021   4.317
39569W        W 7932  31.067  25.655  13.982
39570W        W 7933  30.149  11.282  10.626
39571W        W 7934  24.164  44.789  12.037
39572W        W 7935  30.590   1.856   2.245
39573W        W 7936  22.580   5.429   4.271
39574W        W 7937   2.324   4.381   2.319
39575W        W 7938  42.965  13.693  14.327
39576W        W 7939  35.908  38.428   2.737
39577W        W 7940   8.742  37.473   2.883
39578W        W 7941   4.892  36.878  10.978
39579W        W 7942   9.817  17.671   3.323
39580W        W 7943  23.159  20.567   4.771
39581W        W 7944  15.821  26.978   3.842
39582W        W 7945  39.042  31.038  14.871
39583W        W 7946  26.123  34.870  11.075
39584W        W 7947   8.217  37.916   3.647
39585W        W 7948  18.557  43.900  13.526
39586W        W 7949  26.183  42.995  10.946
39587W        W 7950   0.434  23.156   0.757
39588W        W 7951   9.741  26.617   2.258
39589W        W 7952  22.047   9.231   2.222
39590W        W 7953  27.140  40.821  13.825
39591W        W 7954  17.126  19.608   3.317
39592W        W 7955  29.979  34.887  11.551
39593W        W 7956  20.225   6.874  11.446
39594W        W 7957  13.795  16.715  10.136
39595W        W 7958  13.835   3.329   2.856
39596W        W 7959  41.496  42.446   3.327
39597W        W 7960  14.177  30.959   4.146
39598W        W 7961  38.522   5.742  10.480
39599W        W 7962  41.032  37.439   1.885
39600W        W 7963  12.148  14.131  14.451
39601W        W 7964  43.888  19.561   1.387
39602W        W 7965  19.141   0.870  11.439
39603W        W 7966  35.472  38.030   4.340
39604W        W 7967  31.123  29.044   3.825
39605W        W 7968  23.228  15.700   1.447
39606W        W 7969  20.191  16.167  10.486
39607W        W 7970  12.185  37.033  14.925
39608W        W 7971  29.922  24.697  13.887
39609W        W 7972   6.776  29.923   0.292
39610W        W 7973  25.567  35.939   4.257
39611W        W 7974  26.503  10.260  14.404
39612W        W 7975   5.714  24.633  11.027
39613W        W 7976  12.630  26.605  10.933
39614W        W 7977  42.952  19.652  13.019
39615W        W 7978  34.422  18.063  14.843
39616W        W 7979  19.264   8.397  13.527
39617W        W 7980  11.802  25.149   3.805
39618W        W 7981  41.870  31.559   2.765
39619W        W 7982  22.008  36.584   1.364
39620W        W 7983  39.334  13.204   0.284
39621W        W 7984   3.323   2.263  10.426
39622W        W 7985  23.592  43.003   0.389
39623W        W 7986  43.342  37.884  14.493
39624W        W 7987  24.974   1.468  14.456
39625W        W 7988  30.521  35.915  13.427
39626W        W 7989  10.352   6.875   2.876
39627W        W 7990  22.080  26.070  13.049
39628W        W 7991  15.806  25.517   2.714
39629W        W 7992  44.430  16.687   1.793
39630W        W 7993   4.842  23.167  12.088
39631W        W 7994  25.108  22.699  12.491
39632W        W 7995  37.875   1.872  14.504
39633W        W 7996  18.228  33.016   1.871
39634W        W 7997   2.804  29.035   4.827
39635W        W 7998   5.415  31.439  14.440
39636W        W 7999  36.373  39.935  12.569
39637W        W 8000  20.039  30.526   1.402
39638W        W 8001   8.220  25.182  12.862
39639W        W 8002  44.972   5.701   0.772
39640W        W 8003   9.290   3.851  14.512
39641W        W 8004  37.043  14.237   4.604
39642W        W 8005  27.603  26.492   2.337
39643W        W 8006  32.968   3.832  10.984
39644W        W 8007   1.303  27.479   1.863
39645W        W 8008  23.017  25.581   0.919
39646W        W 8009  21.162  13.144  12.059
39647W        W 8010  24.609   6.729  14.352
39648W        W 8011   9.707   8.796   1.377
39649W        W 8012  26.536  13.164  13.490
39650W        W 8013  12.660   1.380   0.885
39651W        W 8014   9.881  16.103  11.944
39652W        W 8015   7.320  32.920  13.888
39653W        W 8016  21.525  18.575   2.217
39654W        W 8017  24.103  43.377   3.284
39655W        W 8018  24.991  10.831  13.954
39656W        W 8019   5.817  21.258  13.032
39657W        W 8020  25.179  14.271  10.531
39658W        W 8021  42.966  20.251   4.341
39659W        W 8022  20.079  40.906   3.632
39660W        W 8023  34.881   7.303   4.639
39661W        W 8024  31.121  14.243  12.433
39662W        W 8025  18.559  24.043  12.571
39663W        W 8026  40.019  24.228   2.752
39664W        W 8027   3.248  26.102   4.275
39665W        W 8028   1.291  16.752  11.570
39666W        W 8029  32.450  23.557  14.299
39667W        W 8030  19.054   5.833   2.847
39668W        W 8031  18.679  26.158  13.034
39669W        W 8032   6.201  14.225   3.193
39670W        W 8033  25.123   2.447   3.298
39671W        W 8034   9.807  41.418  13.370
39672W        W 8035  44.380  26.035  14.844
39673W        W 8036  12.180  43.893   4.819
39674W        W 8037  35.860  35.109  13.513
39675W        W 8038  35.034  10.649  11.856
39676W        W 8039  23.660  28.980  10.467
39677W        W 8040  18.568  10.808   0.255
39678W        W 8041  38.923  17.187   1.225
39679W        W 8042   9.750  18.791   4.628
39680W        W 8043   7.245  29.152   1.813
39681W        W 8044  19.075  23.507   2.219
39682W        W 8045   1.898  35.900   0.446
39683W        W 8046  28.624  37.894   3.267
39684W        W 8047   2.459   6.231   3.319
39685W        W 8048  29.079   0.856  14.307
39686W        W 8049  26.127  37.425  12.547
39687W        W 8050  40.423  25.045  10.002
39688W        W 8051  30.513  13.709   0.326
39689W        W 8052  23.198  28.605  10.538
39690W        W 8053   1.757  43.300  12.046
39691W        W 8054  26.668   9.736   0.258
39692W        W 8055  14.305  42.907  12.029
39693W        W 8056   6.875   4.936  13.534
39694W        W 8057  21.599   6.309   0.740
39695W        W 8058  37.426  25.649   3.854
39696W        W 8059  36.377  36.386  10.488
39697W        W 8060  21.116  23.602  13.444
39698W        W 8061  24.225   8.766  10.111
39699W        W 8062  34.379  27.518   2.184
39700W        W 8063  22.238  10.637  13.931
39701W        W 8064  36.455  15.677   0.817
39702W        W 8065  22.520  28.448   3.201
39703W        W 8066   4.880   9.660   2.753
39704W        W 8067  44.761   9.332  12.869
39705W        W 8068  34.434  20.093   2.764
39706W        W 8069  41.294  44.780  10.583
39707W        W 8070   0.428  16.232  12.418
39708W        W 8071  22.062  21.546  13.905
39709W        W 8072  16.303   3.861  10.996
39710W        W 8073   9.314  38.965  10.918
39711W        W 8074  26.194  14.192   5.658
39712W        W 8075  37.577  12.744  11.122
39713W        W 8076  29.561  15.751  12.502
39714W        W 8077   4.212  40.836  11.071
39715W        W 8078  19.619  39.529   3.819
39716W        W 8079   1.428  29.615   3.177
39717W        W 8080  15.106  19.277  13.509
39718W        W 8081  34.523   9.247   0.751
39719W        W 8082  36.981  19.674   3.202
39720W        W 8083  27.104  42.807   4.320
39721W        W 8084  13.267  24.089   4.663
39722W        W 8085  28.513  13.257  13.980
39723W        W 8086  38.518  16.094   0.384
39724W        W 8087  11.722  13.687   4.326
39725W        W 8088  41.537   0.452   0.876
39726W        W 8089   9.725  26.970  12.891
39727W        W 8090  10.789   1.911   2.700
39728W        W 8091  26.487  21.072  11.410
39729W        W 8092   3.353   8.702   0.366
39730W        W 8093   6.303  16.101   1.794
39731W        W 8094  28.061  22.036   4.766
39732W        W 8095  18.600   2.270  11.958
39733W        W 8096  23.493   9.391   1.350
39734W        W 8097  16.098  24.222   4.115
39735W        W 8098  24.536  38.521   1.857
39736W        W 8099  16.305  12.685   3.639
39737W        W 8100   0.822   3.316  12.091
39738W        W 8101  11.207  25.602  14.843
39739W        W 8102  23.534   3.276   3.769
39740W        W 8103  23.234  32.984  12.507
39741W        W 8104  39.924  35.388   2.834
39742W        W 8105   2.849  30.031  12.444
39743W        W 8106   2.829  37.950  13.025
39744W        W 8107  18.057   8.279  12.924
39745W        W 8108  23.551  26.120  14.812
39746W        W 8109  17.621  22.188   0.483
39747W        W 8110  16.718   8.862  14.462
39748W        W 8111  30.924   5.318  13.830
39749W        W 8112  40.941  26.693   0.404
39750W        W 8113  38.910  19.567  10.424
39751W        W 8114  38.015  23.041  12.093
39752W        W 8115   2.877   0.415   1.934
39753W        W 8116   6.339  28.070   0.833
39754W        W 8117  24.675  36.355   4.791
39755W        W 8118  31.410  11.706  12.910
39756W        W 8119  31.602  21.159   0.300
39757W        W 8120  42.020  26.522   2.204
39758W        W 8121  27.511   7.273   2.889
39759W        W 8122  23.107  21.675  11.984
39760W        W 8123  31.000  29.540   2.778
39761W        W 8124  20.632  38.563  13.047
39762W        W 8125   7.330  23.719   0.351
39763W        W 8126  21.250  13.640   2.788
39764W        W 8127   3.370  14.263   0.382
39765W        W 8128  42.830  41.941   2.699
39766W        W 8129  24.723  27.110   3.654
39767W        W 8130  16.687  35.426  11.577
39768W        W 8131  33.990  39.980  11.870
39769W        W 8132  15.824   8.849   5.170
39770W        W 8133  33.618  29.426  13.393
39771W        W 8134  35.552  22.556  12.825
39772W        W 8135   6.879  18.066   2.410
39773W        W 8136  36.948  27.966  12.401
39774W        W 8137  38.453  32.565   4.184
39775W        W 8138  10.693  13.782   3.800
39776W        W 8139   7.290   6.349   2.216
39777W        W 8140  17.205   2.962   4.320
39778W        W 8141  42.327   2.765  13.030
39779W        W 8142  28.961  36.591   3.291
39780W        W 8143   2.255  43.294   0.366
39781W        W 8144  17.296  39.055   1.230
39782W        W 8145   7.231  32.926   0.284
39783W        W 8146  11.238  29.985   1.333
39784W        W 8147  17.082  37.558   1.890
39785W        W 8148  39.446  27.575  13.337
39786W        W 8149  24.548  24.067  11.023
39787W        W 8150   1.305  22.695   4.606
39788W        W 8151   8.199  12.341  11.895
39789W        W 8152  36.517  25.181  10.938
39790W        W 8153  19.120  32.405  13.316
39791W        W 8154  30.555  39.402  11.422
39792W        W 8155  35.474  28.142   2.819
39793W        W 8156  37.443  28.584   4.352
39794W        W 8157   3.355  12.724  12.921
39795W        W 8158  36.381   5.376  10.436
39796W        W 8159  39.923  44.831  11.911
39797W        W 8160   6.701  23.214  12.416
39798W        W 8161  35.426  18.119  12.422
39799W        W 8162   4.450  32.907   0.815
39800W        W 8163  28.630  39.471  13.921
39801W        W 8164  31.071  38.409   1.813
39802W        W 8165   9.721  30.466   1.880
39803W        W 8166  33.404   4.847  12.533
39804W        W 8167   6.282  13.169  10.077
39805W        W 8168   8.318   7.371  10.958
39806W        W 8169  17.090   5.697   2.742
39807W        W 8170  19.685  24.699  13.063
39808W        W 8171  29.561  37.539   1.807
39809W        W 8172  37.563  21.185   3.194
39810W        W 8173  43.894  16.636   0.913
39811W        W 8174  25.017  23.176   0.868
39812W        W 8175  35.416  41.976   1.837
39813W        W 8176  21.560  15.607   2.381
39814W        W 8177  38.903  41.357  11.402
39815W        W 8178   9.381  35.874   3.225
39816W        W 8179  32.581  20.567   0.900
39817W        W 8180   0.409   0.324  11.605
39818W        W 8181  43.794   5.878  11.926
39819W        W 8182  39.967   8.859  13.369
39820W        W 8183  40.860   3.883   3.320
39821W        W 8184  39.546  32.488   1.416
39822W        W 8185  33.906  32.459   0.807
39823W        W 8186  40.797  38.845   1.814
39824W        W 8187   0.822  38.869   4.331
39825W        W 8188  40.414  14.120  13.516
39826W        W 8189  39.349  37.516  14.885
39827W        W 8190  12.688  19.601   0.870
39828W        W 8191  36.905   6.866   4.125
39829W        W 8192  16.626  26.026   3.255
39830W        W 8193  23.189  26.544   0.265
39831W        W 8194  23.492   7.721   1.219
39832W        W 8195   2.854  23.998  10.533
39833W        W 8196  30.950  33.530  13.041
39834W        W 8197   6.376   4.446  14.843
39835W        W 8198  24.519  23.173   1.292
39836W        W 8199  15.818  43.446  13.506
39837W        W 8200  20.567  31.518  10.405
39838W        W 8201  37.387  21.661   3.831
39839W        W 8202  40.524  10.742   2.748
39840W        W 8203  10.378  16.795  11.508
39841W        W 8204  26.166  11.813   2.270
39842W        W 8205  26.047  39.974  11.457
39843W        W 8206  22.510  34.576   3.347
39844W        W 8207   3.448  18.091  10.516
39845W        W 8208  32.069  41.889  11.537
39846W        W 8209  24.712  40.548   2.860
39847W        W 8210  17.191   7.193   0.737
39848W        W 8211  44.011  28.615  13.962
39849W        W 8212  41.822  39.524  11.468
39850W        W 8213  35.971  44.396   3.765
39851W        W 8214   0.480  20.250  11.547
39852W        W 8215  29.121  16.292  10.561
39853W        W 8216  19.742   1.848  10.414
39854W        W 8217  21.227  19.563  12.079
39855W        W 8218  17.797  29.001  11.909
39856W        W 8219  32.093   0.380   3.161
39857W        W 8220  28.678   8.309   1.451
39858W        W 8221  12.304  44.456  12.897
39859W        W 8222  13.111   6.285  14.996
39860W        W 8223  13.833  23.689  11.427
39861W        W 8224  40.021  32.054   2.349
39862W        W 8225  20.654  12.352  12.527
39863W        W 8226  30.536  40.807   2.222
39864W        W 8227  33.011   7.369  11.940
39865W        W 8228  30.997  41.023   0.754
39866W        W 8229  39.533  42.870  14.303
39867W        W 8230  21.524  19.179   0.904
39868W        W 8231  21.210  35.895   3.668
39869W        W 8232  24.134  28.049   5.307
39870W        W 8233  35.924  39.357  11.593
39871W        W 8234  21.657  31.481   4.776
39872W        W 8235   8.762  18.239  11.444
39873W        W 8236   4.850  24.049   0.261
39874W        W 8237  36.522  16.645  14.958
39875W        W 8238  33.941  32.007  12.384
39876W        W 8239  28.067  35.990  13.446
39877W        W 8240   8.271  38.450   0.441
39878W        W 8241  38.398  43.356   1.433
39879W        W 8242  10.711   7.303  11.371
39880W        W 8243  32.026   7.677   4.690
39881W        W 8244   8.686  31.507  14.434
39882W        W 8245  33.467  11.213   2.863
39883W        W 8246  12.187  42.784   4.627
39884W        W 8247  13.318  24.212  13.932
39885W        W 8248  15.123  32.944   2.226
39886W        W 8249  37.085   1.736  12.995
39887W        W 8250  23.215  44.492   3.188
39888W        W 8251   6.818  28.067   4.828
39889W        W 8252  35.088  34.923  12.543
39890W        W 8253  16.733   4.400  11.003
39891W        W 8254   0.352   2.864  14.475
39892W        W 8255   6.206  31.622   0.436
39893W        W 8256  41.405  26.517  14.972
39894W        W 8257  31.518  12.150   1.295
39895W        W 8258  41.828  22.206   0.362
39896W        W 8259  27.515   8.656   1.772
39897W        W 8260  15.809   7.406   4.255
39898W        W 8261  19.644  14.297  14.883
39899W        W 8262  30.651  13.711   1.300
39900W        W 8263  33.470   2.372  13.033
39901W        W 8264  17.126  40.446   3.862
39902W        W 8265  10.647   4.432   4.780
39903W        W 8266  43.975  17.667  13.338
39904W        W 8267  31.458   9.779   2.368
39905W        W 8268  24.062   1.413  14.931
39906W        W 8269  26.176  26.625  11.609
39907W        W 8270  31.641  37.517   1.788
39908W        W 8271  19.733   4.349  13.533
39909W        W 8272   5.324  12.786   1.775
39910W        W 8273  40.475  43.417  14.767
39911W        W 8274  24.985   7.911   2.750
39912W        W 8275  42.450  38.897   1.784
39913W        W 8276  19.277  18.230   1.796
39914W        W 8277  39.910  31.974   1.258
39915W        W 8278  41.362  10.654  12.340
39916W        W 8279  38.412  14.202  13.409
39917W        W 8280  43.941   9.205   1.286
39918W        W 8281  11.673  16.570   4.724
39919W        W 8282  31.522  16.176  12.418
39920W        W 8283  11.237   7.753  13.800
39921W        W 8284  34.113  17.247   1.879
39922W        W 8285  36.497  13.229   0.892
39923W        W 8286  19.060  26.577   0.303
39924W        W 8287  36.350   9.300  11.933
39925W        W 8288  43.383  31.150  10.410
39926W        W 8289  40.851  37.390   4.277
39927W        W 8290  32.567  28.452   1.228
39928W        W 8291  19.047   7.273  12.580
39929W        W 8292  10.735  28.670   4.705
39930W        W 8293  15.245   2.226   1.754
39931W        W 8294  19.709  24.633  11.509
39932W        W 8295   1.744  24.608   0.351
39933W        W 8296  19.166  44.767   2.285
39934W        W 8297   4.386  44.831  11.927
39935W        W 8298  16.647  21.237   0.807
39936W        W 8299   9.254  18.297   0.484
39937W        W 8300  20.647   3.406  14.460
39938W        W 8301  21.234  15.314   1.915
39939W        W 8302  36.473  16.153   2.823
39940W        W 8303  44.911  26.206   4.656
39941W        W 8304  17.606  34.944   1.906
39942W        W 8305  34.082  20.176  12.862
39943W        W 8306  43.327  15.126  14.852
39944W        W 8307  21.723   0.255  14.306
39945W        W 8308  10.675   0.975  13.488
39946W        W 8309  44.503  33.111   1.324
39947W        W 8310  19.636  28.452   4.798
39948W        W 8311  10.343  44.783   3.161
39949W        W 8312   4.228  41.904   2.280
39950W        W 8313  22.209  29.081   3.771
39951W        W 8314  16.170  44.286   1.250
39952W        W 8315  40.525  12.739   4.240
39953W        W 8316  20.674   9.726   2.326
39954W        W 8317  40.931  44.340   3.659
39955W        W 8318  17.108  22.603   0.919
39956W        W 8319  15.717  24.081   1.435
39957W        W 8320  11.718  13.132  13.544
39958W        W 8321   7.209  19.688  11.054
39959W        W 8322  23.091  26.606   4.256
39960W        W 8323  12.710  18.129  12.344
39961W        W 8324  34.579  34.439  12.475
39962W        W 8325   4.363   1.372  13.011
39963W        W 8326  21.608  23.997   1.294
39964W        W 8327  37.507  28.964  11.374
39965W        W 8328  38.070  32.517  14.452
39966W        W 8329  28.174   3.254  14.850
39967W        W 8330   3.904  14.652   2.901
39968W        W 8331  31.564  13.840   0.450
39969W        W 8332   7.692  43.917  10.592
39970W        W 8333  36.364  30.147   0.303
39971W        W 8334  35.550  37.891   0.403
39972W        W 8335  33.413  19.119   2.705
39973W        W 8336  40.896   8.388   3.658
39974W        W 8337  12.729  35.552   4.627
39975W        W 8338  25.977  14.737   2.734
39976W        W 8339  21.159  15.206  14.907
39977W        W 8340  29.512  37.961   4.345
39978W        W 8341  33.884  22.048  14.987
39979W        W 8342  22.190  29.097  13.348
39980W        W 8343  10.681  37.065  14.924
39981W        W 8344  38.466  19.190   4.132
39982W        W 8345  31.071   1.406   5.582
39983W        W 8346   6.778  41.437   4.291
39984W        W 8347  19.615  19.144   0.812
39985W        W 8348  26.098   3.938   4.831
39986W        W 8349  32.923  10.820  13.309
39987W        W 8350  17.555  39.904   4.169
39988W        W 8351   4.282  31.560  14.853
39989W        W 8352   0.823  19.731  12.882
39990W        W 8353  42.782  19.716  14.986
39991W        W 8354  39.334   5.351  14.861
39992W        W 8355  22.706  13.652  13.523
39993W        W 8356  40.007  36.364  12.397
39994W        W 8357   7.907  24.634   1.263
39995W        W 8358  21.533  21.202  13.335
39996W        W 8359  23.543  19.634  14.427
39997W        W 8360  39.869   3.376   2.366
39998W        W 8361   5.337  16.785  14.875
39999W        W 8362  35.050  44.932  14.990
40000W        W 8363  31.406  17.686   0.335
40001W        W 8364  34.417  38.359  14.879
40002W        W 8365   9.668  27.136  11.939
40003W        W 8366  18.245  30.625   4.723
40004W        W 8367  27.170  21.071   1.850
40005W        W 8368  36.477  19.240   0.252
40006W        W 8369  26.189  31.436  14.004
40007W        W 8370  35.013   1.302   3.684
40008W        W 8371  25.704   3.924   2.832
40009W        W 8372   3.403  23.011  10.506
40010W        W 8373  27.153  37.385  12.552
40011W        W 8374  36.974  38.043   0.424
40012W        W 8375  41.463  16.299   4.277
40013W        W 8376  16.656   0.264  10.896
40014W        W 8377  38.471  17.724   0.771
40015W        W 8378  35.056   0.476  10.565
40016W        W 8379  37.045   2.300   1.803
40017W        W 8380   3.738   6.277   1.353
40018W        W 8381  42.380  10.820  11.457
40019W        W 8382  38.360  17.656   2.186
40020W        W 8383  25.661   9.816  13.432
40021W        W 8384  33.606  40.458  10.494
40022W        W 8385  25.575  20.608   4.634
40023W        W 8386  23.525  12.129  11.501
40024W        W 8387  10.255  11.303   1.797
40025W        W 8388   5.720   8.756  13.937
40026W        W 8389  19.710  32.985  14.454
40027W        W 8390  42.296  12.187   0.407
40028W        W 8391  11.674  14.291   5.161
40029W        W 8392   0.400  36.867   2.879
40030W        W 8393  41.858  13.627  10.982
40031W        W 8394   1.307  26.150  12.826
40032W        W 8395  13.264  16.673   2.836
40033W        W 8396  30.107  36.862  11.999
40034W        W 8397  24.222  12.171   2.366
40035W        W 8398  12.785  20.657   1.396
40036W        W 8399  42.912  41.514  13.797
40037W        W 8400  34.566  34.959   2.230
40038W        W 8401  23.179  12.203  13.884
40039W        W 8402  14.675  41.826   1.427
40040W        W 8403  12.836  17.246   1.778
40041W        W 8404  33.511  28.096   4.713
40042W        W 8405  35.093   6.209   0.383
40043W        W 8406  23.577   1.783  12.952
40044W        W 8407  35.441  40.037   1.305
40045W        W 8408  38.852   7.279  11.877
40046W        W 8409  20.205  37.561   3.242
40047W        W 8410  35.040  36.575  10.990
40048W        W 8411  35.079   7.770  12.519
40049W        W 8412  17.241  28.036   1.359
40050W        W 8413  16.807  41.884   1.739
40051W        W 8414  41.989  24.108  11.522
40052W        W 8415   1.334  13.601   1.353
40053W        W 8416  37.351  16.184  11.592
40054W        W 8417  12.850   9.658   0.464
40055W        W 8418  14.245  38.002   3.290
40056W        W 8419   3.787  16.809   2.749
40057W        W 8420   4.287  36.862  12.536
40058W        W 8421   0.321  43.434  11.593
40059W        W 8422  40.377  42.820  12.071
40060W        W 8423   0.926  41.885  14.862
40061W        W 8424  32.081  21.092   5.286
40062W        W 8425  41.934  13.735  13.335
40063W        W 8426  13.325  20.695  10.516
40064W        W 8427  29.002  23.586   3.826
40065W        W 8428   2.420  10.351  11.890
40066W        W 8429  30.064  43.929  14.428
40067W        W 8430  40.326  17.281   1.866
40068W        W 8431  41.999  30.950  11.108
40069W        W 8432  36.426  38.481   4.820
40070W        W 8433   7.294  14.241   0.832
40071W        W 8434   8.731  14.296   2.832
40072W        W 8435   4.923   0.324   1.858
40073W        W 8436  11.693  35.429  10.158
40074W        W 8437  28.668  42.419   0.399
40075W        W 8438  32.583  10.342  13.394
40076W        W 8439   4.295  13.305   3.196
40077W        W 8440  20.036  21.707   0.483
40078W        W 8441   3.769   3.259   3.686
40079W        W 8442  35.937  24.151  12.074
40080W        W 8443  18.263  16.139  10.939
40081W        W 8444  11.770  13.339   1.860
40082W        W 8445   6.397  28.546  13.339
40083W        W 8446  30.944   8.759  12.394
40084W        W 8447  43.796  17.575  12.069
40085W        W 8448   5.404  43.889  14.020
40086W        W 8449  15.673  11.237   2.294
40087W        W 8450  33.398  16.308  14.979
40088W        W 8451  31.147  42.865  13.819
40089W        W 8452  20.150   3.417  13.993
40090W        W 8453  29.967  11.700   3.307
40091W        W 8454  23.128  10.138   1.839
40092W        W 8455  25.473  39.822  13.997
40093W        W 8456  32.410  38.989  14.953
40094W        W 8457  29.563  29.000   2.760
40095W        W 8458  28.055   1.823   2.692
40096W        W 8459  16.687  16.619  12.369
40097W        W 8460   6.229  43.276  13.033
40098W        W 8461  12.795  17.176   4.689
40099W        W 8462  29.002  10.343   2.719
40100W        W 8463  19.647  38.524   2.675
40101W        W 8464  21.550   4.903  11.125
40102W        W 8465  12.824  31.047  10.586
40103W        W 8466  35.953  39.902  12.021
40104W        W 8467  10.164   8.712  12.893
40105W        W 8468  31.631  13.290   4.245
40106W        W 8469   7.344  32.461  13.344
40107W        W 8470  20.754  44.794   0.926
40108W        W 8471  31.515  28.149  12.073
40109W        W 8472   5.922  43.947  12.464
40110W        W 8473  40.379  19.263   4.217
40111W        W 8474  17.161  29.993  14.869
40112W        W 8475   6.192  22.536   9.952
40113W        W 8476  13.170  22.161   4.156
40114W        W 8477  20.531   9.326  12.478
40115W        W 8478  13.728  19.651  12.990
40116W        W 8479   7.711  28.578  12.395
40117W        W 8480  19.195  21.226  11.379
40118W        W 8481  30.461   5.283   3.219
40119W        W 8482  29.478  19.739   4.707
40120W        W 8483  30.920   0.488   2.287
40121W        W 8484  27.632  25.504   0.833
40122W        W 8485  13.299  39.944   4.352
40123W        W 8486  14.781   2.884  11.030
40124W        W 8487   4.891  30.655  10.914
40125W        W 8488  14.803  37.341  10.136
40126W        W 8489  42.943  30.063  12.444
40127W        W 8490  41.353  31.436  12.980
40128W        W 8491  13.625  13.182  12.088
40129W        W 8492   9.237  16.091   3.283
40130W        W 8493  29.538  31.114   0.272
40131W        W 8494  16.084  22.172  14.359
40132W        W 8495   7.778  28.046  12.520
40133W        W 8496  18.658  10.754   1.859
40134W        W 8497  11.802  42.921  13.897
40135W        W 8498  22.605  21.040  14.331
40136W        W 8499  39.435  12.306   1.294
40137W        W 8500  19.701  40.421  13.374
40138W        W 8501  35.583   6.905  12.382
40139W        W 8502  21.601  21.189   4.815
40140W        W 8503   4.795  40.797   2.871
40141W        W 8504  30.517   4.735  12.518
40142W        W 8505  20.751  26.684   5.264
40143W        W 8506  33.982   7.340  11.394
40144W        W 8507  22.130  28.939  10.988
40145W        W 8508  10.328  20.162   3.149
40146W        W 8509  24.715  38.907  12.054
40147W        W 8510   4.399  41.871  13.378
40148W        W 8511  39.336   4.807  14.340
40149W        W 8512  15.096  15.276  13.349
40150W        W 8513  15.185  30.508   4.128
40151W        W 8514  43.883   3.899   0.848
40152W        W 8515  32.133  43.454   1.805
40153W        W 8516  10.823  39.908   2.755
40154W        W 8517  14.250   0.877   0.968
40155W        W 8518  17.218  43.471  10.465
40156W        W 8519  15.122  35.585  14.437
40157W        W 8520  38.496  42.319   2.183
40158W        W 8521  36.533  10.864  14.448
40159W        W 8522  20.567   5.903   4.734
40160W        W 8523  19.762  16.750   0.933
40161W        W 8524   2.833  18.224  11.045
40162W        W 8525  34.480  33.000   1.302
40163W        W 8526   1.816   3.350  12.483
40164W        W 8527  14.640  29.156   1.805
40165W        W 8528  39.381  32.089   2.697
40166W        W 8529  42.833  25.548   3.668
40167W        W 8530  41.432  10.173   4.291
40168W        W 8531  30.621  41.967  12.531
40169W        W 8532   7.232  35.498   2.208
40170W        W 8533   3.233  37.871  12.930
40171W        W 8534  27.512  38.383   2.885
40172W        W 8535  15.648  18.273  13.902
40173W        W 8536  38.384  43.795   1.351
40174W        W 8537  38.488  29.062   0.790
40175W        W 8538  14.109  22.560  14.406
40176W        W 8539  34.583  12.647  12.437
40177W        W 8540  19.669  37.928   0.930
40178W        W 8541  34.021  22.246   1.235
40179W        W 8542  12.760  44.483   2.726
40180W        W 8543  40.415  31.964  11.989
40181W        W 8544   9.203   2.313  10.598
40182W        W 8545  24.103  22.647   3.282
40183W        W 8546   8.185  33.465   4.738
40184W        W 8547   5.376  43.918   5.704
40185W        W 8548  23.158  15.097  10.916
40186W        W 8549  36.382  14.675  13.326
40187W        W 8550  34.373   0.869  10.955
40188W        W 8551   7.391  30.621   4.643
40189W        W 8552  16.677   7.402   2.417
40190W        W 8553  37.573  23.095  11.565
40191W        W 8554  20.531  24.079  13.430
40192W        W 8555  31.971   8.672   3.220
40193W        W 8556  34.539  35.593   0.268
40194W        W 8557  15.115  22.247   1.694
40195W        W 8558  27.042  35.852   0.784
40196W        W 8559  29.064  28.084  14.387
40197W        W 8560  39.508  33.912   3.185
40198W        W 8561   4.755  25.522   2.331
40199W        W 8562  23.988  29.636   3.760
40200W        W 8563   5.227  28.021  13.993
40201W        W 8564   6.194   8.745  13.515
40202W        W 8565  24.177  36.428   0.945
40203W        W 8566  31.536  37.539   0.304
40204W        W 8567   1.271  32.518  13.957
40205W        W 8568  41.857  11.734   5.151
40206W        W 8569   4.908   9.174   4.673
40207W        W 8570  25.629   1.803  13.505
40208W        W 8571  31.016  33.894   1.798
40209W        W 8572  14.188   3.411   2.758
40210W        W 8573  17.156   6.270  11.488
40211W        W 8574  14.782   4.805  10.536
40212W        W 8575   7.834  37.926   3.257
40213W        W 8576  18.685  34.536   4.692
40214W        W 8577  34.396  42.980  13.879
40215W        W 8578   0.836  26.999   4.786
40216W        W 8579  17.067  15.107   1.916
40217W        W 8580  32.581  10.198   9.932
40218W        W 8581  16.219  10.298   3.844
40219W        W 8582   6.782  34.436   0.408
40220W        W 8583  16.719  32.018  11.865
40221W        W 8584  26.535  15.620   4.339
40222W        W 8585  31.029  17.231   0.805
40223W        W 8586   4.257  11.770   1.850
40224W        W 8587  11.707  24.143  10.903
40225W        W 8588  34.395   2.248   1.346
40226W        W 8589  26.541  43.015   4.645
40227W        W 8590  11.319  14.828   3.650
40228W        W 8591   9.273  24.481  14.289
40229W        W 8592   4.761  38.533   3.853
40230W        W 8593  38.905  12.757  12.060
40231W        W 8594  16.207  20.712  13.421
40232W        W 8595   1.314  37.845  12.066
40233W        W 8596  37.953  43.279  13.535
40234W        W 8597  24.024  29.969   2.336
40235W        W 8598  16.605  19.073   1.328
40236W        W 8599   7.670   6.331  10.127
40237W        W 8600  25.617  15.632   4.153
40238W        W 8601  43.838  10.680  13.807
40239W        W 8602  36.086   0.870   4.838
40240W        W 8603  17.299  28.165  10.471
40241W        W 8604  33.438  33.921   2.412
40242W        W 8605  22.118  42.408  13.531
40243W        W 8606  39.403  12.732  11.582
40244W        W 8607   6.199  29.532  10.534
40245W        W 8608   0.459  14.677   4.714
40246W        W 8609  19.057  39.528   0.966
40247W        W 8610  19.577  11.161   4.209
40248W        W 8611  42.370  28.443   4.823
40249W        W 8612  18.602   1.312  12.863
40250W        W 8613  41.424  22.555  11.581
40251W        W 8614   2.264   7.408  13.974
40252W        W 8615  24.498  23.113   2.765
40253W        W 8616  44.977  36.949  12.538
40254W        W 8617  22.645  35.085  14.878
40255W        W 8618  29.466  14.656   2.695
40256W        W 8619   5.911  32.553  14.412
40257W        W 8620  29.561   9.878   0.467
40258W        W 8621   3.267  18.772   0.268
40259W        W 8622  38.824  34.574   2.222
40260W        W 8623  42.982  31.119  14.337
40261W        W 8624  29.035  35.916   0.431
40262W        W 8625   6.805   2.433   3.330
40263W        W 8626  43.436   5.726   0.929
40264W        W 8627  20.149  42.777   5.192
40265W        W 8628  12.769  43.468   0.869
40266W        W 8629  16.782   4.769   4.295
40267W        W 8630  28.082  12.850   3.337
40268W        W 8631   0.825  28.019   3.812
40269W        W 8632  23.163   2.404   1.321
40270W        W 8633  31.417  39.000   0.340
40271W        W 8634   2.270  33.468   2.862
40272W        W 8635  14.710   7.413  12.399
40273W        W 8636  27.087  14.654   0.467
40274W        W 8637  23.574  40.039   1.335
40275W        W 8638   4.398   8.379   4.118
40276W        W 8639  23.623  33.404   3.267
40277W        W 8640  19.039  10.860   1.287
40278W        W 8641   4.247  43.426  11.040
40279W        W 8642  20.040  31.485  11.595
40280W        W 8643  41.940   4.244   4.327
40281W        W 8644  44.444  38.506  13.343
40282W        W 8645  32.021  39.513  12.083
40283W        W 8646  34.065  16.719   4.782
40284W        W 8647  26.495  14.823   1.774
40285W        W 8648  23.133  17.657  13.848
40286W        W 8649   3.264  41.968  10.989
40287W        W 8650  21.673   9.330  13.925
40288W        W 8651  20.185  41.015  13.832
40289W        W 8652  15.171  31.976   0.461
40290W        W 8653  23.677  19.104   3.147
40291W        W 8654   6.313  24.718  11.443
40292W        W 8655  37.435  24.686  13.365
40293W        W 8656  29.423  36.523   4.644
40294W        W 8657   9.684  27.141  12.427
40295W        W 8658  21.122  30.917  14.787
40296W        W 8659  37.532  35.547   4.142
40297W        W 8660  26.680  25.708   0.272
40298W        W 8661  37.917  18.083   4.752
40299W        W 8662  26.150  13.616   9.520
40300W        W 8663  44.867  38.367   0.338
40301W        W 8664  30.437  30.033  14.931
40302W        W 8665  12.230  27.052   3.660
40303W        W 8666   1.812  18.657   2.287
40304W        W 8667   2.855  13.130  14.938
40305W        W 8668  40.027  11.826  14.370
40306W        W 8669  13.743  43.279  13.468
40307W        W 8670  37.861   7.782   1.449
40308W        W 8671  11.368  44.267   1.767
40309W        W 8672  26.088  25.179  13.380
40310W        W 8673  43.402  22.719   2.701
40311W        W 8674  18.641  18.169   4.274
40312W        W 8675   8.718  12.264   3.198
40313W        W 8676  39.878  19.061   1.849
40314W        W 8677  42.386  19.706   0.847
40315W        W 8678  37.908   9.200   4.142
40316W        W 8679   7.331  39.547   3.842
40317W        W 8680  11.849  22.177  12.932
40318W        W 8681  12.162  21.137   4.641
40319W        W 8682  20.543   7.896  13.353
40320W        W 8683  42.361  15.725  13.518
40321W        W 8684  17.721  37.895   1.225
40322W        W 8685  24.066  10.806  11.935
40323W        W 8686  38.499  34.106   2.399
40324W        W 8687  11.648  30.142   3.684
40325W        W 8688  36.452  19.268   4.161
40326W        W 8689  16.160   6.766  12.096
40327W        W 8690  38.938  23.601   1.712
40328W        W 8691  30.954  40.330  11.990
40329W        W 8692  44.854  41.411   0.431
40330W        W 8693  43.805  42.887  10.463
40331W        W 8694   4.832  23.202  10.453
40332W        W 8695   8.306  30.056   3.731
40333W        W 8696  12.628  40.837   1.231
40334W        W 8697  10.660  27.625  13.043
40335W        W 8698  44.912  14.693  13.354
40336W        W 8699  10.799  35.499  12.913
40337W        W 8700  30.086  30.572  12.918
40338W        W 8701  38.947  23.506   3.157
40339W        W 8702  11.659   3.848  14.359
40340W        W 8703  25.472   2.773  11.574
40341W        W 8704  20.208  16.252  14.345
40342W        W 8705  43.843  33.569  12.961
40343W        W 8706   0.332  14.206   3.816
40344W        W 8707  12.271   1.916  12.441
40345W        W 8708  12.157  35.578   0.289
40346W        W 8709  27.463  39.553  11.466
40347W        W 8710   1.799  41.300  13.874
40348W        W 8711  36.380   0.880   2.340
40349W        W 8712  30.077   4.872  12.507
40350W        W 8713  14.094  36.848  14.434
40351W        W 8714  13.298  13.838  12.842
40352W        W 8715  24.025   2.884   4.806
40353W        W 8716  19.172  44.260   0.917
40354W        W 8717  21.260   4.847  14.837
40355W        W 8718  42.899   1.862   1.324
40356W        W 8719  19.714   1.915  13.463
40357W        W 8720  44.472  29.160  13.311
40358W        W 8721  22.073  28.008   1.265
40359W        W 8722   5.305  44.383   3.858
40360W        W 8723  41.419  11.849  12.359
40361W        W 8724  25.648  23.199   3.805
40362W        W 8725  35.982  12.284  13.906
40363W        W 8726   3.906  40.431  10.990
40364W        W 8727  41.379  17.134  14.430
40365W        W 8728  26.479  38.409   0.959
40366W        W 8729  29.622  16.607   2.337
40367W        W 8730  26.552  35.520  14.450
40368W        W 8731  16.611  12.161   3.365
40369W        W 8732   0.976  41.394  11.524
40370W        W 8733  36.512   8.695   0.428
40371W        W 8734   0.821   2.757  10.464
40372W        W 8735   0.944  21.695  12.370
40373W        W 8736   5.894   8.656  11.956
40374W        W 8737  12.170  16.682   1.726
40375W        W 8738  15.654  31.478  10.560
40376W        W 8739  14.782  14.725   3.337
40377W        W 8740   8.839   7.909   0.478
40378W        W 8741  18.057  29.561  12.987
40379W        W 8742  16.788  20.135  13.441
40380W        W 8743  23.623   8.222   4.612
40381W        W 8744  31.451  29.092  13.366
40382W        W 8745   8.827  33.098   4.633
40383W        W 8746  26.660   9.328   1.737
40384W        W 8747   4.415  25.553  10.985
40385W        W 8748  22.204  34.997   1.847
40386W        W 8749  30.468  23.694   0.382
40387W        W 8750  44.484  20.035   3.788
40388W        W 8751  12.273   1.340  13.917
40389W        W 8752  19.129  17.078  11.093
40390W        W 8753  29.522  29.487  13.011
40391W        W 8754  27.624  41.501  10.540
40392W        W 8755  40.390  31.555  12.914
40393W        W 8756  21.691  23.085   2.234
40394W        W 8757  36.406   0.254  13.359
40395W        W 8758  40.837  37.578  12.908
40396W        W 8759   5.711  21.048   3.840
40397W        W 8760  42.415  44.448  11.562
40398W        W 8761  29.943   2.818   1.231
40399W        W 8762  10.309  17.288  13.035
40400W        W 8763  21.077  23.091   1.326
40401W        W 8764  14.247  11.848   1.849
40402W        W 8765  42.439  16.690   2.319
40403W        W 8766  20.629  20.671  14.015
40404W        W 8767  44.808  40.834   1.775
40405W        W 8768  23.494  30.437   1.885
40406W        W 8769  22.506  17.135   2.239
40407W        W 8770  28.938  40.015  11.964
40408W        W 8771  26.123   9.857  10.994
40409W        W 8772  26.181  43.427  13.399
40410W        W 8773  25.517  14.669   5.275
40411W        W 8774   8.838  37.389  12.877
40412W        W 8775  32.899  15.203  13.534
40413W        W 8776  16.687   1.257   3.178
40414W        W 8777   4.231   7.392   4.635
40415W        W 8778  12.735   4.276  11.864
40416W        W 8779   8.213   9.260  10.587
40417W        W 8780   9.866  35.596  11.101
40418W        W 8781   1.292  29.972  12.828
40419W        W 8782   2.348  28.533   3.294
40420W        W 8783   7.750  43.923   3.202
40421W        W 8784  11.627  10.746   2.691
40422W        W 8785   5.361   5.726  13.980
40423W        W 8786  30.913  28.140   4.220
40424W        W 8787  36.394   9.195   1.406
40425W        W 8788  22.117  33.620   0.831
40426W        W 8789  28.607  25.031   1.846
40427W        W 8790  28.536  21.605   1.384
40428W        W 8791  30.626   3.406   0.779
40429W        W 8792  16.637  44.948  13.455
40430W        W 8793   1.461   2.932  13.546
40431W        W 8794  15.612  10.697   3.853
40432W        W 8795  34.117  38.451   3.248
40433W        W 8796  12.753  16.744   0.952
40434W        W 8797  22.674   5.271  11.030
40435W        W 8798  16.103  38.063  11.910
40436W        W 8799  36.401  33.096   0.452
40437W        W 8800  36.451  26.687  12.860
40438W        W 8801  24.196  28.522  12.398
40439W        W 8802  10.730  41.797  13.454
40440W        W 8803  33.945   0.819   1.411
40441W        W 8804   0.323  40.909   1.717
40442W        W 8805  10.147   7.237   3.638
40443W        W 8806   0.275   7.763  10.619
40444W        W 8807   1.924   5.697  13.898
40445W        W 8808  35.894  40.512   3.154
40446W        W 8809  20.763  15.300   2.804
40447W        W 8810  38.480  33.418   4.191
40448W        W 8811  44.784   7.202   1.408
40449W        W 8812  13.111  36.069   1.369
40450W        W 8813  19.583   2.266   2.257
40451W        W 8814  28.146  22.059  10.577
40452W        W 8815  31.567  22.569  13.026
40453W        W 8816   8.169  38.888   0.765
40454W        W 8817  12.336   8.812  14.327
40455W        W 8818  30.946  31.918   9.962
40456W        W 8819  23.548   3.888   3.203
40457W        W 8820  16.810   6.810  12.523
40458W        W 8821   9.843  40.809  12.069
40459W        W 8822   9.808   9.350  10.936
40460W        W 8823   6.280   3.771  11.900
40461W        W 8824  16.616  19.692  11.960
40462W        W 8825  34.384   5.341   4.811
40463W        W 8826  13.155  26.484   0.284
40464W        W 8827  34.888  34.867  12.832
40465W        W 8828  27.522  38.968   1.801
40466W        W 8829   6.416  38.006   0.827
40467W        W 8830  37.522  18.276   2.271
40468W        W 8831  13.739  25.576   4.186
40469W        W 8832  40.840   4.449   1.925
40470W        W 8833  18.594  13.106  12.375
40471W        W 8834  44.005  13.824   2.662
40472W        W 8835  30.057   6.711   1.888
40473W        W 8836  26.589   8.367   3.819
40474W        W 8837  20.148  17.587  14.807
40475W        W 8838   8.242  27.164  13.818
40476W        W 8839   7.846  18.222   0.896
40477W        W 8840  19.200  25.145  14.352
40478W        W 8841  32.055   8.228   2.673
40479W        W 8842   8.192  35.401  14.391
40480W        W 8843  24.532  14.643   2.847
40481W        W 8844  12.214   2.339   1.299
40482W        W 8845  23.035  23.998   2.697
40483W        W 8846  40.332  30.093  13.889
40484W        W 8847  42.450  33.950   1.279
40485W        W 8848  29.578  23.552   4.753
40486W        W 8849   2.290   0.848   3.268
40487W        W 8850   8.706  44.334  12.025
40488W        W 8851  23.733  32.637  13.797
40489W        W 8852  42.452  44.412   4.752
40490W        W 8853   9.666   6.250  12.389
40491W        W 8854  38.041  42.492  14.400
40492W        W 8855  40.882  21.590   3.270
40493W        W 8856  10.247  23.723  10.950
40494W        W 8857  24.497  10.376   3.807
40495W        W 8858   5.401   5.409  13.919
40496W        W 8859  39.456  32.023  10.923
40497W        W 8860  23.025  39.047   0.454
40498W        W 8861   5.758  32.985   3.166
40499W        W 8862   2.388  37.983   4.286
40500W        W 8863  20.569  15.109  11.591
40501W        W 8864  31.015   7.841   3.781
40502W        W 8865  41.948   9.236   1.716
40503W        W 8866  38.837   1.321  12.549
40504W        W 8867   0.279  25.624   0.791
40505W        W 8868  13.842  26.147   4.255
40506W        W 8869  14.814  30.473   3.759
40507W        W 8870  10.867  32.993  12.551
40508W        W 8871   2.754  17.218   1.711
40509W        W 8872   3.337  40.480   0.847
40510W        W 8873  36.030  16.142   2.774
40511W        W 8874  30.654  10.873  10.936
40512W        W 8875  19.676   6.186   0.743
40513W        W 8876  31.899  39.377   1.361
40514W        W 8877  24.523  11.672   3.316
40515W        W 8878  21.644  17.231   0.465
40516W        W 8879  20.531  25.011  12.886
40517W        W 8880   0.831  21.695   1.814
40518W        W 8881   9.735  34.445   1.432
40519W        W 8882  34.426  36.361  11.449
40520W        W 8883   0.839   9.282  10.924
40521W        W 8884  16.237  34.426   1.919
40522W        W 8885   1.409   6.834  14.387
40523W        W 8886   8.222  32.014   4.803
40524W        W 8887  25.559   5.262   0.483
40525W        W 8888  32.604  41.890  14.357
40526W        W 8889  27.951  30.582   2.351
40527W        W 8890   1.928  34.045   3.148
40528W        W 8891   8.846  23.200  11.609
40529W        W 8892  19.251  31.408   4.125
40530W        W 8893  25.614  30.111  10.552
40531W        W 8894  19.585  14.743  13.012
40532W        W 8895  27.616   6.718  11.122
40533W        W 8896  23.555  33.512  12.917
40534W        W 8897  13.795  34.057  11.455
40535W        W 8898   3.850  13.136   2.264
40536W        W 8899  27.532  34.120   4.656
40537W        W 8900   8.670  30.080  11.503
40538W        W 8901  11.847  12.776   2.397
40539W        W 8902   6.775   1.290   4.221
40540W        W 8903   6.711  23.669  11.382
40541W        W 8904  22.608  44.869  10.553
40542W        W 8905  11.706  21.229   3.351
40543W        W 8906   1.420  27.654   1.272
40544W        W 8907   7.749  10.150   3.742
40545W        W 8908  33.573   2.725   2.748
40546W        W 8909   8.335  34.416   3.741
40547W        W 8910  24.612  18.274  13.888
40548W        W 8911   0.932   5.223   2.727
40549W        W 8912  12.650   6.206   1.737
40550W        W 8913  13.154  15.149   3.633
40551W        W 8914  26.675  43.871   3.172
40552W        W 8915  12.707  43.012   1.281
40553W        W 8916  34.919  41.335   0.937
40554W        W 8917  10.373  24.700  10.448
40555W        W 8918   4.751  32.419   0.951
40556W        W 8919   5.203   8.770  11.045
40557W        W 8920  31.056  27.108   5.690
40558W        W 8921  32.630  21.063  13.867
40559W        W 8922   7.823   2.367  14.508
40560W        W 8923  38.951   8.778  13.517
40561W        W 8924   6.776  15.174   0.403
40562W        W 8925  16.190  40.419  10.936
40563W        W 8926  26.468   1.859   9.951
40564W        W 8927  15.796  29.062   2.274
40565W        W 8928  41.886  25.153  10.968
40566W        W 8929   5.438  19.759  14.376
40567W        W 8930   2.769  10.368  12.894
40568W        W 8931  29.648  16.179  12.837
40569W        W 8932  44.792  40.337   0.747
40570W        W 8933  14.272   1.472   4.167
40571W        W 8934  10.650  15.771   3.681
40572W        W 8935  42.838  12.289  14.499
40573W        W 8936  24.642  43.968   1.385
40574W        W 8937  18.709  25.119   2.775
40575W        W 8938  19.645  43.804  10.450
40576W        W 8939  24.014  24.561  11.898
40577W        W 8940  26.520  23.580   3.326
40578W        W 8941  35.385  26.678   1.229
40579W        W 8942  42.481  10.299  14.366
40580W        W 8943   9.664  18.789  12.954
40581W        W 8944   6.393  40.497  14.402
40582W        W 8945  16.773  38.025  13.335
40583W        W 8946  35.074  15.639  10.548
40584W        W 8947  15.302  15.298   2.277
40585W        W 8948  40.003  23.732   4.316
40586W        W 8949  29.618  20.260   0.890
40587W        W 8950  10.341  29.663   3.759
40588W        W 8951  42.844  15.132   0.404
40589W        W 8952  15.305  27.099  11.972
40590W        W 8953  19.108  11.363   4.698
40591W        W 8954  21.074  37.959  11.455
40592W        W 8955  43.311  25.206  13.013
40593W        W 8956   1.785  32.437  11.023
40594W        W 8957  35.962  42.419   1.368
40595W        W 8958   5.396  32.556  11.050
40596W        W 8959   5.788  16.808  14.312
40597W        W 8960  38.550   6.294   2.789
40598W        W 8961  24.158  35.494   0.944
40599W        W 8962  41.529   6.696   2.367
40600W        W 8963  37.011  17.749   4.145
40601W        W 8964  33.003  15.770   4.653
40602W        W 8965  27.681  36.956  11.553
40603W        W 8966  26.097  29.935   3.232
40604W        W 8967  31.996  12.622  11.562
40605W        W 8968  17.693  36.904   3.832
40606W        W 8969  30.056  10.232  12.514
40607W        W 8970  37.946  33.488   0.854
40608W        W 8971   6.286  40.897   0.941
40609W        W 8972  20.562   5.822  13.547
40610W        W 8973   6.193  26.636   9.972
40611W        W 8974   7.769   9.846   3.273
40612W        W 8975   6.306  22.615   1.830
40613W        W 8976  37.981  44.469  11.997
40614W        W 8977  28.508  37.375  12.934
40615W        W 8978   1.389  38.067  13.964
40616W        W 8979  24.204  34.068   1.927
40617W        W 8980  40.313  21.199   0.938
40618W        W 8981  27.546  25.611  12.503
40619W        W 8982  20.197  12.702   1.217
40620W        W 8983  42.518  25.967  11.523
40621W        W 8984  43.288  36.040  14.778
40622W        W 8985  12.806  18.133  14.829
40623W        W 8986  37.905  11.307  14.417
40624W        W 8987  23.513   4.933  11.372
40625W        W 8988   1.777  15.108  14.775
40626W        W 8989  11.809  13.647   2.885
40627W        W 8990  35.420   3.220  11.552
40628W        W 8991  43.466  38.857  10.051
40629W        W 8992  31.574  40.907   0.308
40630W        W 8993  26.109  27.006  12.571
40631W        W 8994  29.506  32.418   0.903
40632W        W 8995   9.271   0.406  10.936
40633W        W 8996  22.621   6.417   2.843
40634W        W 8997  13.216  13.328   2.374
40635W        W 8998   3.754  19.675   1.295
40636W        W 8999  28.166  13.839  13.498
40637W        W 9000  36.021  36.459  10.526
40638W        W 9001   1.881  43.512  11.082
40639W        W 9002  10.200   6.252   0.890
40640W        W 9003  34.967  37.400   1.711
40641W        W 9004  36.417  22.042  11.554
40642W        W 9005  33.997  31.078   4.178
40643W        W 9006  21.558  24.659   0.261
40644W        W 9007  20.709   6.756  15.000
40645W        W 9008  24.671   1.766   4.121
40646W        W 9009  10.855   1.273  10.573
40647W        W 9010   3.934  13.648  10.949
40648W        W 9011  26.665  26.495   3.244
40649W        W 9012  20.542  28.038  14.016
40650W        W 9013  41.881  12.211   3.825
40651W        W 9014  38.055   6.872   4.773
40652W        W 9015  38.923  26.014   2.662
40653W        W 9016  30.007  27.676   9.628
40654W        W 9017   4.823  42.981   0.382
40655W        W 9018  41.352  31.948   2.256
40656W        W 9019  28.623  44.265  14.963
40657W        W 9020   1.419  39.422  10.993
40658W        W 9021  44.447  15.677   0.375
40659W        W 9022  10.139   3.787   3.375
40660W        W 9023  37.465  44.890  14.919
40661W        W 9024   5.416  34.499  10.438
40662W        W 9025  25.611  34.371   2.683
40663W        W 9026  15.610  17.094   2.712
40664W        W 9027  25.567  34.541  10.020
40665W        W 9028  18.129   3.943  10.600
40666W        W 9029  20.260  33.887  12.563
40667W        W 9030  36.036  42.952  12.967
40668W        W 9031  38.465  40.545  10.989
40669W        W 9032  10.694  29.074  13.823
40670W        W 9033  30.601  14.594   2.863
40671W        W 9034   1.404  40.054  13.346
40672W        W 9035   4.718  23.506   4.296
40673W        W 9036  28.076  42.294  11.526
40674W        W 9037  41.436  13.127   1.727
40675W        W 9038  11.845   1.455  10.539
40676W        W 9039  16.138  22.668  11.612
40677W        W 9040   8.344  13.106   4.230
40678W        W 9041   3.781   1.799  14.375
40679W        W 9042  43.787  37.001   1.261
40680W        W 9043  17.093   6.235  10.087
40681W        W 9044  43.003  36.585   0.393
40682W        W 9045  37.444  39.018  12.920
40683W        W 9046  16.126  10.706   2.887
40684W        W 9047  12.856  11.653   3.865
40685W        W 9048  43.866  14.314   1.891
40686W        W 9049  12.747   3.421   1.908
40687W        W 9050  30.015   1.434  13.499
40688W        W 9051   6.729   5.783  14.801
40689W        W 9052   0.979   5.874  14.886
40690W        W 9053   9.331  10.822   0.410
40691W        W 9054  24.084  37.338   1.835
40692W        W 9055   6.912  18.718   0.288
40693W        W 9056  37.841   4.785   2.840
40694W        W 9057  40.483  19.646   2.401
40695W        W 9058  37.544  21.722   4.741
40696W        W 9059   2.897   3.742   1.322
40697W        W 9060   4.222  36.045  11.546
40698W        W 9061  15.668   5.431  13.012
40699W        W 9062  44.960   3.948   2.787
40700W        W 9063  20.106   3.408   3.805
40701W        W 9064   9.787   7.343  13.803
40702W        W 9065  25.514  22.181   2.819
40703W        W 9066  20.212  41.987  10.436
40704W        W 9067  33.616  10.188   4.194
40705W        W 9068  44.834  18.623   0.331
40706W        W 9069  21.263  27.662   1.788
40707W        W 9070  31.426   6.201   1.847
40708W        W 9071  30.632  36.413  12.465
40709W        W 9072   5.337  30.947   0.735
40710W        W 9073  12.794  15.803   0.791
40711W        W 9074  18.067  12.351   1.881
40712W        W 9075   3.887  36.892   0.254
40713W        W 9076  10.175  43.431  13.884
40714W        W 9077  36.926   0.801   4.674
40715W        W 9078   6.281  40.346  12.471
40716W        W 9079  21.162  20.736  12.344
40717W        W 9080  39.048  20.236  14.403
40718W        W 9081  18.676  12.708  12.354
40719W        W 9082  41.381   1.839  14.796
40720W        W 9083  27.495   1.441  11.900
40721W        W 9084  21.700  15.121   3.680
40722W        W 9085  34.382  41.406  13.369
40723W        W 9086   9.750   0.941   0.381
40724W        W 9087  35.426  36.974  13.969
40725W        W 9088  10.797   2.323  10.942
40726W        W 9089  42.359  27.461   1.403
40727W        W 9090  42.378  28.592   3.188
40728W        W 9091  29.931  28.162   2.298
40729W        W 9092  32.392  23.164   1.219
40730W        W 9093  41.990   3.326  12.955
40731W        W 9094  43.825   3.329   3.235
40732W        W 9095  43.868  19.552   1.833
40733W        W 9096  29.064  20.633  12.078
40734W        W 9097  35.859  33.621  12.406
40735W        W 9098  19.686  11.736   2.868
40736W        W 9099  28.069  21.067  10.920
40737W        W 9100  22.641  39.855   4.226
40738W        W 9101   6.268   9.710  13.541
40739W        W 9102  22.251   7.385  13.997
40740W        W 9103  28.166  13.749   0.795
40741W        W 9104  26.197  34.904  13.421
40742W        W 9105  21.119  25.147  10.516
40743W        W 9106   7.313  23.105  13.372
40744W        W 9107  38.360   7.339   3.684
40745W        W 9108  41.365   1.340  11.382
40746W        W 9109  30.139  25.210   0.756
40747W        W 9110  43.883  25.637  13.911
40748W        W 9111  42.341  25.080  11.414
40749W        W 9112  39.938   5.348   2.301
40750W        W 9113  40.315  19.721  13.308
40751W        W 9114   7.344  24.981  13.478
40752W        W 9115  14.298  21.071   0.405
40753W        W 9116  17.226   6.377  12.048
40754W        W 9117  32.971  42.798   1.804
40755W        W 9118   2.752   2.443   1.376
40756W        W 9119  29.075  38.564  11.007
40757W        W 9120   1.913  30.497   0.442
40758W        W 9121  34.569  21.087   3.849
40759W        W 9122   1.748  33.063   3.768
40760W        W 9123  41.478   1.784  11.419
40761W        W 9124  11.837  10.706  12.869
40762W        W 9125   4.287   2.351  12.402
40763W        W 9126  14.674  14.154   2.782
40764W        W 9127  16.298  35.995   4.195
40765W        W 9128  33.978  28.930  14.490
40766W        W 9129   1.357  41.798   0.759
40767W        W 9130   9.796  39.439  13.431
40768W        W 9131  41.417  15.680  13.533
40769W        W 9132  27.586  29.602  12.374
40770W        W 9133   3.455  30.120   2.354
40771W        W 9134  36.889  31.484   0.798
40772W        W 9135   2.960  39.496   0.760
40773W        W 9136   0.817  12.681  10.594
40774W        W 9137  27.533   2.456  13.374
40775W        W 9138  27.649  39.482  14.785
40776W        W 9139  34.949  44.994  10.462
40777W        W 9140  39.814   5.267   1.920
40778W        W 9141  10.295  23.136  13.314
40779W        W 9142   5.859   5.401   1.344
40780W        W 9143  16.792  23.209  13.380
40781W        W 9144  43.003  23.640   4.644
40782W        W 9145  22.504  22.556   5.149
40783W        W 9146  37.447  27.462  12.035
40784W        W 9147   0.979  32.106  14.978
40785W        W 9148   3.750  18.091   4.211
40786W        W 9149  21.112  34.588  11.886
40787W        W 9150  15.221   3.235   3.339
40788W        W 9151  11.656  44.912  11.113
40789W        W 9152  27.018  29.503  10.419
40790W        W 9153   0.438  42.878   1.448
40791W        W 9154  14.100  16.282   1.450
40792W        W 9155  21.742  17.595   2.301
40793W        W 9156  12.344   6.186   2.727
40794W        W 9157   6.720   8.867  11.972
40795W        W 9158  19.700  11.370  12.872
40796W        W 9159  29.107   1.742  12.987
40797W        W 9160  34.466   5.855   2.708
40798W        W 9161   4.208  34.373   4.804
40799W        W 9162   9.181  43.363  14.910
40800W        W 9163   2.439  26.076   0.870
40801W        W 9164   1.473  43.398  14.765
40802W        W 9165  24.007  32.899   2.898
40803W        W 9166   6.380  15.148   1.303
40804W        W 9167   7.180  38.436   2.891
40805W        W 9168  14.627  15.152   3.225
40806W        W 9169  35.511  19.546   0.454
40807W        W 9170  42.498  11.172   3.221
40808W        W 9171  40.543   4.440   2.685
40809W        W 9172  17.672  31.630   4.713
40810W        W 9173  23.628   9.258   0.951
40811W        W 9174  36.080  23.711   1.857
40812W        W 9175  21.741   0.432   3.298
40813W        W 9176  25.669   3.370  14.879
40814W        W 9177  32.082  30.514  10.505
40815W        W 9178  25.129  21.073  14.999
40816W        W 9179   2.849  36.905   2.764
40817W        W 9180  34.093  17.112  11.877
40818W        W 9181  40.839  10.779  12.550
40819W        W 9182   3.289  15.753   3.777
40820W        W 9183  42.522   4.354  14.908
40821W        W 9184  37.960  28.540   1.834
40822W        W 9185  18.649  11.838  12.898
40823W        W 9186  35.514  36.455  13.817
40824W        W 9187  32.586  29.583   0.453
40825W        W 9188   4.899  19.564  14.911
40826W        W 9189  30.623  42.494   3.243
40827W        W 9190  18.220  30.055  10.977
40828W        W 9191   0.422  14.163   2.727
40829W        W 9192  32.483  13.812   4.230
40830W        W 9193  25.174   1.372   3.857
40831W        W 9194   8.766  34.542  14.383
40832W        W 9195  41.916  31.492  13.491
40833W        W 9196  32.551  17.591  11.081
40834W        W 9197  44.836  27.007   4.680
40835W        W 9198  23.056  21.235   3.227
40836W        W 9199  18.628  42.389  10.122
40837W        W 9200  31.522  31.099  13.870
40838W        W 9201  37.390   1.740   0.766
40839W        W 9202   1.769  43.502  10.049
40840W        W 9203  35.997   7.180   2.679
40841W        W 9204  26.546   2.312  11.944
40842W        W 9205   9.761  12.705  14.813
40843W        W 9206  22.550  38.542  11.088
40844W        W 9207  37.980   2.960  11.912
40845W        W 9208   9.202  15.679  11.900
40846W        W 9209  15.648   2.865   3.861
40847W        W 9210  19.149  17.750   1.848
40848W        W 9211  38.937   1.473  13.874
40849W        W 9212  37.347   9.250   0.888
40850W        W 9213  33.974  34.412  12.060
40851W        W 9214  19.626  37.981   4.792
40852W        W 9215  15.647  41.861   0.761
40853W        W 9216  15.313  33.002   4.653
40854W        W 9217   9.321  19.761   1.436
40855W        W 9218   6.902  20.232  10.963
40856W        W 9219  25.520  25.564  10.511
40857W        W 9220  10.655  17.567   0.900
40858W        W 9221  10.222   4.699  11.388
40859W        W 9222   3.765  15.167   4.752
40860W        W 9223   4.442  35.427   4.738
40861W        W 9224   5.848  22.171   1.799
40862W        W 9225   6.250  28.544   1.411
40863W        W 9226  35.981   0.402   1.287
40864W        W 9227  35.500  34.033   4.826
40865W        W 9228  12.773  18.755  14.375
40866W        W 9229  23.078  24.611  10.555
40867W        W 9230  30.026  35.594   1.323
40868W        W 9231  24.227   9.328   1.884
40869W        W 9232  40.537  36.028  14.348
40870W        W 9233  23.558  28.482   2.768
40871W        W 9234  17.194   9.380   0.756
40872W        W 9235   8.842  26.122  14.303
40873W        W 9236  21.114  26.649   4.783
40874W        W 9237  39.315  15.768  10.459
40875W        W 9238  17.792  35.442  14.025
40876W        W 9239  14.596  14.176   3.228
40877W        W 9240  37.461   6.211   3.299
40878W        W 9241  16.620  21.254   1.814
40879W        W 9242  43.963  23.573  14.791
40880W        W 9243   4.803  44.335   0.248
40881W        W 9244  44.761  22.503   1.856
40882W        W 9245   2.408   7.201  14.474
40883W        W 9246  42.781  13.333  11.462
40884W        W 9247  44.842  26.585   2.223
40885W        W 9248   2.252  41.459  13.471
40886W        W 9249  38.347  34.491   0.381
40887W        W 9250  27.463   3.866   0.950
40888W        W 9251  18.271  44.343  11.035
40889W        W 9252   8.176  12.668   2.867
40890W        W 9253  27.039  42.282  11.420
40891W        W 9254  36.938  16.254  10.429
40892W        W 9255   3.386   6.829   1.726
40893W        W 9256  42.792  33.501  14.948
40894W        W 9257  30.164  21.184  13.891
40895W        W 9258  30.016  44.994  10.516
40896W        W 9259  33.993  11.862  12.524
40897W        W 9260  26.118  30.126   4.745
40898W        W 9261  29.030  11.279   4.810
40899W        W 9262   5.705  34.559  13.906
40900W        W 9263  35.514  14.259   2.387
40901W        W 9264   8.224  38.845  14.470
40902W        W 9265  13.205  35.876  11.965
40903W        W 9266   7.179  22.735  10.976
40904W        W 9267  30.613  27.493   2.710
40905W        W 9268   8.165  37.074  11.022
40906W        W 9269  16.279  25.514  10.563
40907W        W 9270  19.091  40.986   1.759
40908W        W 9271  41.837  32.992  12.848
40909W        W 9272  25.114  20.169  10.465
40910W        W 9273  37.542  27.145  11.003
40911W        W 9274  23.670  18.297   3.665
40912W        W 9275  26.692  19.703   3.743
40913W        W 9276  44.988  11.847  14.324
40914W        W 9277   5.706  42.883   0.417
40915W        W 9278   9.723  35.960  13.796
40916W        W 9279  16.808  36.922  10.589
40917W        W 9280  17.173  44.418  14.984
40918W        W 9281  10.653  22.995   2.387
40919W        W 9282  37.925   9.226  14.394
40920W        W 9283  43.446  21.534   2.197
40921W        W 9284  25.503  28.033   3.800
40922W        W 9285  13.297  40.980   2.263
40923W        W 9286   7.273  19.125   2.881
40924W        W 9287   2.288  36.867  14.881
40925W        W 9288  14.249   6.204   3.231
40926W        W 9289   4.873  15.232  13.367
40927W        W 9290   6.411   8.308   4.293
40928W        W 9291  44.261  20.530   3.270
40929W        W 9292   3.813   1.822   3.209
40930W        W 9293  16.280  17.735  12.486
40931W        W 9294   7.199  28.647   0.813
40932W        W 9295  33.035   8.376  13.851
40933W        W 9296   8.214  25.504  11.067
40934W        W 9297  12.212   2.916  10.919
40935W        W 9298  43.866   1.382   3.679
40936W        W 9299  15.725   8.792   2.835
40937W        W 9300   9.875  44.926   1.304
40938W        W 9301  22.129   5.217  13.458
40939W        W 9302  29.649  12.775   1.346
40940W        W 9303  35.411   1.906  11.981
40941W        W 9304  12.270  41.797   0.470
40942W        W 9305  38.326   1.372  10.965
40943W        W 9306  27.083  28.575  10.494
40944W        W 9307  38.565  33.091  11.875
40945W        W 9308  21.057  23.239   0.729
40946W        W 9309  13.152  39.540  11.415
40947W        W 9310   4.417  33.440  12.018
40948W        W 9311  28.182  37.336   5.097
40949W        W 9312  32.565  10.773   2.698
40950W        W 9313  37.938  32.051  10.474
40951W        W 9314  36.971  43.301  12.851
40952W        W 9315   8.231  25.512   3.778
40953W        W 9316  22.123  35.905  12.389
40954W        W 9317  38.061   8.806   3.854
40955W        W 9318   0.368   3.912   0.262
40956W        W 9319  41.482  31.560  13.502
40957W        W 9320  25.031  24.528   4.773
40958W        W 9321  37.083   2.845   4.708
40959W        W 9322  33.445  10.733  11.017
40960W        W 9323  37.907   7.286   2.418
40961W        W 9324  28.021  42.514   4.248
40962W        W 9325   1.871  21.153   1.768
40963W        W 9326  19.742  10.184   3.753
40964W        W 9327  19.599  29.600  12.447
40965W        W 9328  11.147  36.083  10.461
40966W        W 9329  28.947  31.467  10.438
40967W        W 9330  39.341  37.938   4.829
40968W        W 9331  31.016  18.192  10.491
40969W        W 9332  22.245   2.894   1.914
40970W        W 9333  27.498   4.792  12.578
40971W        W 9334  39.468   6.372   2.746
40972W        W 9335  33.059  43.401   0.248
40973W        W 9336  43.347  13.633   3.368
40974W        W 9337  16.734  25.067   1.377
40975W        W 9338  23.081  27.950  13.954
40976W        W 9339   5.727   8.784   1.422
40977W        W 9340  20.681  43.488  14.797
40978W        W 9341  25.604  44.966   1.293
40979W        W 9342  21.664  22.111  14.902
40980W        W 9343  41.898   0.948  11.528
40981W        W 9344  32.101  42.021   3.862
40982W        W 9345  42.448  16.588  12.511
40983W        W 9346  41.320  21.680  14.296
40984W        W 9347   2.910  18.184   3.788
40985W        W 9348  13.277   3.256  12.926
40986W        W 9349  35.573  38.390  12.426
40987W        W 9350   8.383  42.831   2.885
40988W        W 9351  29.086  19.208   0.367
40989W        W 9352  42.995  42.005   3.633
40990W        W 9353  27.114  40.429   4.210
40991W        W 9354  41.884   3.884  13.830
40992W        W 9355  40.949  40.869  11.126
40993W        W 9356  29.998  38.999   3.158
40994W        W 9357   8.323  36.010   0.801
40995W        W 9358  16.642  13.131   1.307
40996W        W 9359  35.434  30.930   4.269
40997W        W 9360  30.539   9.807   2.663
40998W        W 9361   4.310   9.206   4.778
40999W        W 9362  17.715  35.875  12.893
41000W        W 9363  18.748  31.987  10.044
41001W        W 9364  17.275   6.265   5.148
41002W        W 9365  30.107   6.786  11.572
41003W        W 9366   7.372  14.662  14.282
41004W        W 9367   1.740  35.474   0.772
41005W        W 9368   2.791  39.823  14.865
41006W        W 9369   3.944  19.559   3.240
41007W        W 9370   9.188   6.345  10.538
41008W        W 9371  13.162  12.639   0.726
41009W        W 9372  12.260   8.305  11.608
41010W        W 9373   5.265  31.565  11.452
41011W        W 9374  41.301  29.056   2.723
41012W        W 9375  20.550  34.116  12.963
41013W        W 9376  11.349   5.436   3.247
41014W        W 9377  28.621  41.002   2.772
41015W        W 9378  41.466  26.080  12.863
41016W        W 9379  31.565  43.462  14.281
41017W        W 9380   8.680  30.591  11.099
41018W        W 9381   9.332  17.159   0.474
41019W        W 9382  34.568  11.696  13.384
41020W        W 9383   9.276  21.536   3.188
41021W        W 9384  13.144  39.508  12.825
41022W        W 9385  14.697  11.326   1.381
41023W        W 9386  42.994   3.410   4.265
41024W        W 9387  23.186  19.543   0.349
41025W        W 9388  13.172  32.521  12.571
41026W        W 9389  21.239   4.219  11.018
41027W        W 9390  22.745  13.221   0.468
41028W        W 9391  16.738  17.560  13.009
41029W        W 9392   4.725   8.716   4.127
41030W        W 9393  36.903  18.711   4.276
41031W        W 9394  19.247  36.916   1.752
41032W        W 9395  24.009  28.466   3.813
41033W        W 9396   0.967  41.880  12.877
41034W        W 9397  38.965  16.635   1.265
41035W        W 9398   8.311  22.049   2.886
41036W        W 9399  41.857  30.493   5.177
41037W        W 9400  10.237  27.097  11.891
41038W        W 9401   1.433  30.949   4.721
41039W        W 9402  23.155  21.748   3.793
41040W        W 9403  39.390  35.579   2.815
41041W        W 9404  16.300  25.522   3.346
41042W        W 9405  36.934  43.315  10.511
41043W        W 9406  18.145  42.960   2.310
41044W        W 9407  12.283  24.163   1.291
41045W        W 9408  39.440  19.184  12.350
41046W        W 9409  42.348  14.603  11.583
41047W        W 9410  11.359  38.882   4.325
41048W        W 9411  34.088  28.994   4.753
41049W        W 9412   1.832  37.081  12.072
41050W        W 9413  10.211  21.074  13.395
41051W        W 9414  22.736  25.476  14.819
41052W        W 9415  31.095  39.521  10.427
41053W        W 9416  22.175   0.946   3.683
41054W        W 9417  41.946  16.717  10.595
41055W        W 9418  10.345  11.782   0.388
41056W        W 9419   7.317  14.779   1.843
41057W        W 9420  12.340  34.067  12.952
41058W        W 9421  42.382   9.773  11.964
41059W        W 9422  13.323  25.671   4.618
41060W        W 9423  11.723  39.440   3.702
41061W        W 9424   8.312  32.898   4.766
41062W        W 9425  11.751  18.057  14.416
41063W        W 9426  28.015  23.987  14.946
41064W        W 9427  38.381   2.334  12.966
41065W        W 9428   8.279  27.000  14.344
41066W        W 9429  36.074  29.481   1.930
41067W        W 9430  32.609  13.167   2.265
41068W        W 9431   8.221  24.151  11.893
41069W        W 9432  36.381  21.228  12.904
41070W        W 9433  29.601  39.978   3.660
41071W        W 9434  23.222  42.353   0.262
41072W        W 9435  11.786   2.295   3.195
41073W        W 9436  35.361  18.664   4.730
41074W        W 9437  37.920   3.453   3.382
41075W        W 9438  31.409  30.645   0.413
41076W        W 9439  21.223  20.619  14.906
41077W        W 9440  23.722  18.740   1.390
41078W        W 9441  25.556  20.673   2.182
41079W        W 9442  23.220  42.805   2.279
41080W        W 9443  29.988  11.687  11.447
41081W        W 9444  44.269  16.601  12.520
41082W        W 9445   2.868  11.848   3.770
41083W        W 9446  36.386  17.288   4.350
41084W        W 9447  11.367   4.707   4.709
41085W        W 9448  40.400  21.689  10.554
41086W        W 9449   4.345  19.168   2.246
41087W        W 9450   8.173   8.374   1.770
41088W        W 9451  25.157   6.684   4.224
41089W        W 9452  31.491  37.484   5.130
41090W        W 9453  33.568  32.530  13.447
41091W        W 9454  44.264   9.259   1.364
41092W        W 9455  42.835  20.639   0.844
41093W        W 9456  23.984  43.937   4.704
41094W        W 9457  21.234  20.750   3.321
41095W        W 9458  28.950  41.342   4.352
41096W        W 9459  33.567  15.599  13.986
41097W        W 9460  26.186  20.212  13.851
41098W        W 9461  41.472  12.317   1.908
41099W        W 9462  10.850   7.845   3.364
41100W        W 9463  28.579  29.572  11.589
41101W        W 9464  15.818   0.882   0.365
41102W        W 9465   1.321  23.989   4.123
41103W        W 9466   5.892  39.064   4.723
41104W        W 9467   4.205  24.714  12.883
41105W        W 9468  43.469  44.777   1.229
41106W        W 9469  16.272  33.479  13.058
41107W        W 9470  28.642  40.925   4.749
41108W        W 9471  28.612  34.942   1.828
41109W        W 9472  17.577   7.818  14.497
41110W        W 9473  34.483  26.171  12.005
41111W        W 9474   5.876  33.438  11.586
41112W        W 9475   6.919   8.721   0.360
41113W        W 9476  20.666  39.029   1.730
41114W        W 9477  29.112   4.236  13.000
41115W        W 9478  41.848  37.372  14.345
41116W        W 9479  17.259  31.588   0.818
41117W        W 9480  20.174  33.610   3.316
41118W        W 9481  11.263  20.134  10.898
41119W        W 9482  37.444  39.346   2.842
41120W        W 9483  36.530  21.701  14.386
41121W        W 9484  33.540  44.263  14.369
41122W        W 9485  41.352  30.017   3.842
41123W        W 9486  18.674   7.291   1.284
41124W        W 9487  29.155  41.431   0.392
41125W        W 9488   1.456  23.545  10.126
41126W        W 9489  20.204  35.919  14.999
41127W        W 9490  39.855   7.258   3.788
41128W        W 9491  38.909  32.923   4.699
41129W        W 9492   0.904  20.641   0.879
41130W        W 9493  30.598  33.094  12.520
41131W        W 9494  23.004  17.109  11.568
41132W        W 9495  23.101  11.255   1.908
41133W        W 9496  27.982  13.607  12.868
41134W        W 9497  16.282  17.564  14.895
41135W        W 9498   7.375  11.333  10.984
41136W        W 9499  24.975  15.779  11.492
41137W        W 9500  12.253  44.003   3.225
41138W        W 9501  20.087  35.870  10.026
41139W        W 9502  26.521  22.091   1.416
41140W        W 9503  15.708  27.081   0.733
41141W        W 9504  39.318  31.150   2.682
41142W        W 9505   1.871  20.189   0.914
41143W        W 9506  18.559  15.168  12.046
41144W        W 9507   6.188  29.028   2.691
41145W        W 9508  24.664  13.284  14.793
41146W        W 9509  30.111   2.831  14.955
41147W        W 9510  24.210  28.096  12.095
41148W        W 9511  13.767  35.481  12.989
41149W        W 9512   8.705  35.396  13.980
41150W        W 9513  39.522  13.701  10.505
41151W        W 9514  13.154  36.373  12.438
41152W        W 9515  39.814  31.897  13.903
41153W        W 9516   7.722  42.961  13.004
41154W        W 9517  23.002   1.359   4.199
41155W        W 9518  40.435  33.008  12.429
41156W        W 9519  37.077   3.744   4.270
41157W        W 9520  36.016   2.827  14.854
41158W        W 9521  42.016  29.014   4.764
41159W        W 9522  24.552  34.570   1.818
41160W        W 9523  30.474   0.808  14.909
41161W        W 9524  20.272  40.443   2.232
41162W        W 9525   3.849  26.541  14.876
41163W        W 9526  41.889  38.845   1.840
41164W        W 9527  43.775  43.865   3.795
41165W        W 9528  40.468  41.399   4.777
41166W        W 9529  30.011   2.893   3.727
41167W        W 9530  30.429   0.952  11.600
41168W        W 9531  29.486  34.044  10.450
41169W        W 9532   6.211  22.006   2.874
41170W        W 9533  22.592  32.577  11.060
41171W        W 9534  42.443  39.929  10.453
41172W        W 9535  30.573  43.949   4.140
41173W        W 9536   6.864   4.438   1.228
41174W        W 9537  34.547  26.604  14.476
41175W        W 9538   9.860  11.806   2.790
41176W        W 9539  37.992  43.881   2.678
41177W        W 9540   5.276  27.123  14.900
41178W        W 9541  25.630  24.595   0.422
41179W        W 9542  13.350  24.064  13.392
41180W        W 9543  34.002  22.157  10.554
41181W        W 9544   9.674  41.510  13.043
41182W        W 9545  26.117   1.481   2.685
41183W        W 9546  35.983   9.672  11.977
41184W        W 9547  14.129   2.335  14.786
41185W        W 9548  13.812   7.797  13.908
41186W        W 9549  29.513   1.814  11.530
41187W        W 9550  41.031   0.813   1.253
41188W        W 9551  38.454  13.844   1.447
41189W        W 9552   1.881   3.722  10.582
41190W        W 9553  32.948  42.788   4.244
41191W        W 9554  14.613   3.335   0.910
41192W        W 9555  39.424  40.534   3.697
41193W        W 9556  39.819  11.326  14.451
41194W        W 9557  30.991   6.407   2.325
41195W        W 9558  15.193   4.890  12.067
41196W        W 9559  25.497  30.074  11.932
41197W        W 9560  21.203   4.339   2.679
41198W        W 9561  13.845  22.232  13.011
41199W        W 9562  25.169  44.806  11.982
41200W        W 9563  28.055  13.259   3.285
41201W        W 9564  34.389   0.327   1.772
41202W        W 9565  20.230  35.865  14.390
41203W        W 9566  25.480  32.442  13.943
41204W        W 9567  37.455  24.093  13.866
41205W        W 9568  43.815   6.199  14.808
41206W        W 9569  30.002  16.098   2.391
41207W        W 9570  19.707  31.077   1.796
41208W        W 9571  36.901  41.004  14.984
41209W        W 9572   1.953  28.565   1.835
41210W        W 9573   7.332  35.919  12.905
41211W        W 9574  35.054   0.303   1.439
41212W        W 9575  24.105   8.310   2.733
41213W        W 9576  19.093  44.489  10.156
41214W        W 9577  11.166  29.580  10.569
41215W        W 9578  33.924   8.304  11.912
41216W        W 9579  41.934  23.604  14.399
41217W        W 9580  26.615  28.542   1.782
41218W        W 9581   8.804   0.470  13.386
41219W        W 9582  26.639  44.896   1.926
41220W        W 9583  37.837  25.509   0.380
41221W        W 9584  44.314  42.394  12.448
41222W        W 9585  10.349  33.578  11.504
41223W        W 9586  17.182  15.789  14.416
41224W        W 9587   6.702  41.886   3.318
41225W        W 9588  19.189  44.393   4.696
41226W        W 9589   7.870   6.304  11.859
41227W        W 9590  23.135  12.659  10.491
41228W        W 9591   1.733   4.416   3.646
41229W        W 9592  27.448  30.001   0.344
41230W        W 9593  44.468  12.770   9.963
41231W        W 9594  31.421  18.747  12.865
41232W        W 9595  14.158  17.233  11.994
41233W        W 9596  37.370  22.202  10.009
41234W        W 9597  25.695  37.892   4.718
41235W        W 9598  25.606  41.913  12.424
41236W        W 9599  21.731  34.892   3.158
41237W        W 9600  18.614   1.874  11.906
41238W        W 9601  25.680  25.162  13.018
41239W        W 9602   0.815  37.965  14.771
41240W        W 9603  38.896  32.454  11.609
41241W        W 9604  44.936   6.352   2.877
41242W        W 9605  43.472  11.353   4.830
41243W        W 9606  15.770  14.215   9.944
41244W        W 9607   3.227  23.619   4.714
41245W        W 9608  39.933  42.374   4.678
41246W        W 9609  14.786  18.700  13.844
41247W        W 9610   8.847   4.712  13.016
41248W        W 9611  41.959  31.639  11.879
41249W        W 9612  29.037  11.252   1.276
41250W        W 9613  23.005  41.968  14.897
41251W        W 9614   6.341  21.051   9.970
41252W        W 9615   5.250  29.503   4.795
41253W        W 9616   3.455  39.052  11.871
41254W        W 9617  28.437  38.853   2.402
41255W        W 9618   9.357  35.084  12.345
41256W        W 9619  40.943  36.064  14.309
41257W        W 9620   6.793  11.744  14.802
41258W        W 9621   4.869  41.389   2.230
41259W        W 9622  36.467  18.775   2.739
41260W        W 9623  16.277  30.426   4.743
41261W        W 9624  20.159   0.819   4.741
41262W        W 9625  37.444  26.631   4.702
41263W        W 9626   5.307  13.672   1.848
41264W        W 9627  43.900  11.305   0.462
41265W        W 9628  31.147   9.654   0.423
41266W        W 9629  12.358  20.126   0.846
41267W        W 9630  24.635  24.189  14.403
41268W        W 9631  11.786  26.584  12.970
41269W        W 9632   8.203   4.281  10.485
41270W        W 9633  27.150  21.042  10.545
41271W        W 9634   6.850  38.402  10.426
41272W        W 9635  39.382  31.100   0.873
41273W        W 9636  25.184  34.414  11.993
41274W        W 9637  42.406  25.129  13.536
41275W        W 9638  16.183  20.586   3.177
41276W        W 9639  20.581   6.344   3.757
41277W        W 9640  38.528  26.688   0.434
41278W        W 9641   5.759  33.068  12.403
41279W        W 9642   3.262  15.170  12.959
41280W        W 9643  25.020   9.740  11.967
41281W        W 9644   4.339   2.363  14.819
41282W        W 9645   3.303  40.362   2.865
41283W        W 9646   2.945  19.624   3.786
41284W        W 9647  35.559  13.626   1.354
41285W        W 9648   4.221  27.974   0.776
41286W        W 9649  43.805  32.109  11.092
41287W        W 9650  14.703  14.792  12.880
41288W        W 9651  41.364   4.268   3.670
41289W        W 9652  24.156  19.116   1.822
41290W        W 9653  42.843  43.414   0.255
41291W        W 9654  30.641  19.543   1.371
41292W        W 9655  16.212  16.111  13.853
41293W        W 9656  43.308  19.099   4.741
41294W        W 9657  25.139  11.295   4.117
41295W        W 9658  26.199   1.257   4.328
41296W        W 9659  41.374  33.439   4.218
41297W        W 9660  10.790  16.607   4.726
41298W        W 9661  11.260  42.924   1.231
41299W        W 9662  28.156  31.103  13.350
41300W        W 9663   7.374  38.382  12.350
41301W        W 9664  14.134  16.769  10.556
41302W        W 9665  44.947  28.038  10.633
41303W        W 9666   7.792  35.997   2.779
41304W        W 9667  24.497  14.644  12.923
41305W        W 9668  38.352   4.716   1.256
41306W        W 9669   7.729  12.734   1.249
41307W        W 9670  15.587  28.016  12.939
41308W        W 9671  38.395   3.740  10.998
41309W        W 9672  30.595   4.799  12.074
41310W        W 9673  24.195  10.196   0.375
41311W        W 9674   5.743  29.581   0.444
41312W        W 9675   8.837  28.972  12.992
41313W        W 9676  19.597  15.098   1.423
41314W        W 9677  10.182  10.244  10.531
41315W        W 9678   6.207   2.783  12.002
41316W        W 9679  13.767  22.687   0.399
41317W        W 9680  23.207  20.138   3.794
41318W        W 9681   0.364  41.397  12.867
41319W        W 9682  43.824   6.712   1.317
41320W        W 9683  12.804  23.094  13.814
41321W        W 9684   2.256   2.294   0.966
41322W        W 9685  22.998  15.191   0.478
41323W        W 9686  31.529  36.412  14.395
41324W        W 9687  34.989   0.317  14.318
41325W        W 9688   4.283  18.252   2.214
41326W        W 9689   3.331  43.943  14.789
41327W        W 9690  15.127  32.105  14.859
41328W        W 9691   4.721  21.137   3.710
41329W        W 9692   6.356  32.050   0.254
41330W        W 9693  16.280   5.890  11.868
41331W        W 9694   3.250   9.809  10.935
41332W        W 9695  37.383  40.432  13.926
41333W        W 9696  38.354  28.952  11.399
41334W        W 9697   3.423   4.884  14.471
41335W        W 9698   3.741  22.732  13.816
41336W        W 9699  26.970  16.641  12.562
41337W        W 9700  11.641  27.003  12.374
41338W        W 9701   8.248  43.495  14.401
41339W        W 9702   2.782  43.911   0.903
41340W        W 9703  43.765   8.176  12.089
41341W        W 9704  29.508  33.555   3.683
41342W        W 9705  41.377  10.230   2.661
41343W        W 9706  36.932  25.139   4.679
41344W        W 9707  16.242   9.168  11.926
41345W        W 9708  11.723  10.341  13.870
41346W        W 9709  24.065  26.677  14.930
41347W        W 9710  10.870  10.213   1.694
41348W        W 9711  20.579  44.311  13.507
41349W        W 9712  22.685  39.016   5.131
41350W        W 9713  40.816  10.334  12.957
41351W        W 9714  22.229  21.527   0.860
41352W        W 9715  28.179  14.190   4.606
41353W        W 9716  33.555  17.599   4.794
41354W        W 9717  13.308  42.864   0.897
41355W        W 9718  29.525   7.895  11.909
41356W        W 9719   3.393   7.262  14.859
41357W        W 9720   5.240  26.082   2.209
41358W        W 9721  41.403  43.784  14.345
41359W        W 9722  15.765  18.201  14.951
41360W        W 9723   5.706  11.863   4.801
41361W        W 9724   3.453  18.274   2.350
41362W        W 9725  28.656  18.119  10.895
41363W        W 9726  37.980  35.580   4.128
41364W        W 9727  41.405   6.922  14.313
41365W        W 9728  28.436   5.769  12.005
41366W        W 9729   5.849   2.386  11.944
41367W        W 9730  13.727  38.406   3.222
41368W        W 9731  14.735  12.123   2.260
41369W        W 9732  28.139  21.615  11.564
41370W        W 9733  38.009   2.299  11.421
41371W        W 9734  15.797   7.832   3.278
41372W        W 9735  42.406  25.038   1.786
41373W        W 9736  44.358  14.808   2.796
41374W        W 9737  31.403  36.540   4.241
41375W        W 9738   2.859  17.711   2.795
41376W        W 9739  30.043  14.635   0.317
41377W        W 9740  33.484   1.250  11.451
41378W        W 9741  29.027  22.522  10.409
41379W        W 9742  12.158   0.273   2.246
41380W        W 9743  14.096  27.457  14.878
41381W        W 9744  38.854  24.187  11.505
41382W        W 9745  19.204   5.827   0.266
41383W        W 9746   6.214  16.181  11.925
41384W        W 9747  32.137  27.638  10.974
41385W        W 9748  43.426  20.093  12.425
41386W        W 9749  21.562  42.026  10.959
41387W        W 9750  33.895   1.417   1.719
41388W        W 9751  34.546  42.380   4.600
41389W        W 9752  13.190  41.379  13.992
41390W        W 9753  41.925   9.358  13.390
41391W        W 9754  44.939  20.696  11.562
41392W        W 9755   9.745  40.814  12.343
41393W        W 9756  41.443  10.707  10.522
41394W        W 9757  42.516   0.384  13.875
41395W        W 9758  24.719  39.447  10.961
41396W        W 9759  24.599   8.710  13.816
41397W        W 9760  30.956   4.746  14.476
41398W        W 9761  20.577  12.134   2.682
41399W        W 9762  24.180  25.186  11.520
41400W        W 9763  16.317  44.983   3.152
41401W        W 9764  26.120  31.121   2.741
41402W        W 9765   0.443  29.650  12.033
41403W        W 9766   6.410   0.297  11.384
41404W        W 9767  21.571  12.159  13.471
41405W        W 9768  18.288   4.764  12.511
41406W        W 9769  35.079  37.833  12.879
41407W        W 9770  18.098   4.765  13.460
41408W        W 9771  37.535  36.588   3.642
41409W        W 9772   7.339  20.598  12.044
41410W        W 9773  36.941  39.948  10.604
41411W        W 9774  27.499   7.716   2.220
41412W        W 9775   2.360  12.279  10.949
41413W        W 9776  28.536  41.820   1.859
41414W        W 9777   8.301  14.814   3.182
41415W        W 9778  40.008  12.135  10.478
41416W        W 9779  38.924   3.381  10.525
41417W        W 9780  14.329  41.440  14.979
41418W        W 9781   8.861  29.066   4.258
41419W        W 9782  32.077  13.774  14.361
41420W        W 9783  42.946  29.664  14.379
41421W        W 9784  22.709  33.105   0.326
41422W        W 9785   8.189  41.816   1.330
41423W        W 9786   1.956  25.622   5.124
41424W        W 9787  18.646  42.476  14.464
41425W        W 9788  12.212  37.446   2.180
41426W        W 9789  25.527  17.177   4.288
41427W        W 9790  37.990  33.527   1.388
41428W        W 9791  22.057  31.529   1.896
41429W        W 9792   7.180  39.554  12.404
41430W        W 9793   5.882  40.992  14.953
41431W        W 9794  28.638  43.834  13.048
41432W        W 9795   4.911  38.071   3.719
41433W        W 9796   1.276  41.819   1.353
41434W        W 9797  26.678  22.161  14.981
41435W        W 9798  22.164  27.176   2.376
41436W        W 9799   8.227   9.716   2.756
41437W        W 9800  25.575   8.742   3.247
41438W        W 9801  38.462   1.880   2.665
41439W        W 9802  22.692  28.611  12.508
41440W        W 9803   6.772  11.722  10.497
41441W        W 9804   0.869  34.928   2.266
41442W        W 9805  24.022  35.061  14.016
41443W        W 9806  42.929   9.164   4.245
41444W        W 9807  38.893  39.330  10.005
41445W        W 9808   7.697  27.496   4.813
41446W        W 9809  13.254   7.193  10.025
41447W        W 9810  20.731  42.321   3.380
41448W        W 9811  31.646  16.689   3.163
41449W        W 9812  16.666  32.418   4.642
41450W        W 9813  13.174  35.034  10.117
41451W        W 9814  42.280  31.071   2.215
41452W        W 9815  25.124   1.960  13.489
41453W        W 9816   9.665  13.687  14.275
41454W        W 9817  15.769  41.986   5.311
41455W        W 9818  23.637  22.045  14.832
41456W        W 9819  17.616  28.460   1.870
41457W        W 9820  42.373  43.444  12.464
41458W        W 9821   8.758  41.796  13.053
41459W        W 9822  41.891   7.349  10.138
41460W        W 9823  30.582  36.533  12.947
41461W        W 9824  15.657   9.788  13.938
41462W        W 9825  34.383  38.498  10.941
41463W        W 9826   9.201  30.940   1.322
41464W        W 9827  14.737  14.131   4.666
41465W        W 9828  22.675   5.373   3.630
41466W        W 9829  36.387  31.481   0.782
41467W        W 9830   0.776  38.894   0.422
41468W        W 9831  26.135  35.535  14.419
41469W        W 9832  39.514   5.739   2.402
41470W        W 9833  17.632  13.194   3.175
41471W        W 9834  13.789   3.867   9.612
41472W        W 9835   5.910   9.713   4.279
41473W        W 9836  18.751  42.306   2.221
41474W        W 9837  23.178  36.553  13.451
41475W        W 9838   7.317   1.409   4.605
41476W        W 9839   9.824  38.057   0.466
41477W        W 9840  42.828  37.898   5.306
41478W        W 9841  18.693   0.765   2.843
41479W        W 9842   8.749  40.542  11.530
41480W        W 9843  31.048   0.938  14.779
41481W        W 9844   0.865  37.080  10.457
41482W        W 9845   4.383  21.612   1.787
41483W        W 9846  41.450   8.221   2.683
41484W        W 9847  25.626  30.916  10.593
41485W        W 9848  39.508   3.447  13.015
41486W        W 9849  20.680  21.263  11.904
41487W        W 9850  31.036  42.967   4.807
41488W        W 9851  43.327  42.821  13.520
41489W        W 9852  40.346  20.723   4.822
41490W        W 9853  12.794  43.915  14.440
41491W        W 9854  29.090  42.285  14.788
41492W        W 9855   7.325  28.465  13.516
41493W        W 9856   1.440   2.411   2.358
41494W        W 9857  21.608  11.372   3.220
41495W        W 9858   4.432  26.526  10.914
41496W        W 9859  27.101  41.921   1.268
41497W        W 9860  43.884   1.902  13.420
41498W        W 9861  31.958  27.665   0.338
41499W        W 9862  16.285   3.859   2.696
41500W        W 9863   1.263  42.359  12.845
41501W        W 9864  42.790  38.878   3.802
41502W        W 9865  39.895  16.312   0.435
41503W        W 9866  12.846  44.797  14.965
41504W        W 9867  38.527  41.349   1.899
41505W        W 9868  23.078   4.869   4.164
41506W        W 9869  14.817  41.803  12.436
41507W        W 9870  35.462  17.105   2.259
41508W        W 9871  12.236   9.305   0.776
41509W        W 9872  32.889  25.640   1.725
41510W        W 9873  42.448  28.514   0.963
41511W        W 9874  36.465   0.849   1.887
41512W        W 9875  41.876  14.653   0.394
41513W        W 9876  43.768  29.007   4.274
41514W        W 9877  41.321  27.066  12.016
41515W        W 9878  44.340  28.064   2.202
41516W        W 9879  12.731  37.377   2.795
41517W        W 9880   5.193   4.252  14.916
41518W        W 9881  44.489  42.286  10.436
41519W        W 9882  19.195   5.738  14.297
41520W        W 9883  15.175  15.303   1.904
41521W        W 9884   7.271   2.868  13.943
41522W        W 9885   5.813  12.640   0.421
41523W        W 9886  25.557  11.848  10.511
41524W        W 9887   2.385  38.565  11.415
41525W        W 9888   9.775  43.873   2.393
41526W        W 9889  38.829  19.223  10.050
41527W        W 9890  39.487  34.613  13.859
41528W        W 9891  13.785   2.431  14.995
41529W        W 9892   6.248   8.684  10.498
41530W        W 9893  38.426   8.740   0.331
41531W        W 9894  14.109  34.518  12.875
41532W        W 9895   2.921  13.326  10.474
41533W        W 9896  25.538  26.180   3.176
41534W        W 9897   0.897  22.158   1.400
41535W        W 9898  15.676  17.614  12.049
41536W        W 9899  19.220  37.508   0.467
41537W        W 9900  42.898  44.333  13.926
41538W        W 9901  28.479  23.638   0.967
41539W        W 9902  13.342  39.928   2.717
41540W        W 9903  10.747  37.495   2.667
41541W        W 9904  42.969  22.682  11.407
41542W        W 9905  22.502   1.836   3.227
41543W        W 9906  27.584  10.254   1.449
41544W        W 9907  22.616   2.838   0.362
41545W        W 9908  15.779  25.052   2.410
41546W        W 9909  13.725  20.114   0.404
41547W        W 9910   3.400  17.144  10.435
41548W        W 9911  40.460  15.614  14.834
41549W        W 9912   9.845  18.759   2.321
41550W        W 9913  20.702  31.469  11.013
41551W        W 9914  26.125  39.393  10.628
41552W        W 9915  41.489   5.906  11.928
41553W        W 9916   3.268  42.850  13.350
41554W        W 9917  43.323  27.676   4.123
41555W        W 9918  43.921  39.528   4.764
41556W        W 9919  28.606  21.202   0.747
41557W        W 9920  33.976   8.735   2.854
41558W        W 9921  12.182  34.461   1.435
41559W        W 9922   4.702   0.252   3.736
41560W        W 9923   1.440  43.836   9.661
41561W        W 9924  17.094  11.671  12.067
41562W        W 9925  34.615  15.762  11.491
41563W        W 9926  39.439  30.624   2.215
41564W        W 9927  12.741  40.537  11.530
41565W        W 9928   8.327  44.966  11.947
41566W        W 9929  37.532  38.354   4.675
41567W        W 9930  10.772   1.380  11.610
41568W        W 9931  44.409  39.444  12.442
41569W        W 9932  15.754  40.494   1.301
41570W        W 9933  21.566  12.196   0.771
41571W        W 9934  31.126  17.174   3.722
41572W        W 9935   7.403  39.416  14.857
41573W        W 9936  41.862   2.837  12.077
41574W        W 9937  43.375   5.380  12.021
41575W        W 9938  43.904   9.734   4.749
41576W        W 9939  38.887  36.091  10.425
41577W        W 9940  29.496  10.369   0.929
41578W        W 9941  43.376  43.779   3.386
41579W        W 9942  22.154  10.290  10.899
41580W        W 9943  27.077  33.971  14.765
41581W        W 9944  36.016  38.065  12.395
41582W        W 9945  13.698  14.111  11.888
41583W        W 9946  15.137  35.012  11.037
41584W        W 9947  31.081  27.612   0.935
41585W        W 9948  29.034  31.520  12.428
41586W        W 9949   1.813  12.683  11.055
41587W        W 9950  15.320  17.626  14.329
41588W        W 9951   1.481  21.693   1.935
41589W        W 9952  15.216  37.479   4.814
41590W        W 9953  18.610   3.221   1.379
41591W        W 9954  43.833  32.633   2.855
41592W        W 9955  30.018   6.917  11.875
41593W        W 9956  39.327  15.794  14.781
41594W        W 9957  22.622   7.827  12.003
41595W        W 9958  36.009  12.221   1.305
41596W        W 9959  16.726   6.225  10.482
41597W        W 9960  10.833  15.753  10.917
41598W        W 9961  21.576  31.009  14.498
41599W        W 9962   4.780  44.852   4.651
41600W        W 9963   5.781  44.335   2.685
41601W        W 9964  21.140  40.500   2.818
41602W        W 9965   2.335  44.941  12.073
41603W        W 9966  18.687  10.152  14.885
41604W        W 9967  15.726  32.464   4.754
41605W        W 9968  16.646  25.116  14.305
41606W        W 9969  41.886   2.326  13.007
41607W        W 9970   4.848  32.583  13.042
41608W        W 9971  33.444  43.999   5.257
41609W        W 9972  17.638  39.510  14.800
41610W        W 9973   7.400  29.988   0.816
41611W        W 9974  39.510  16.568   3.218
41612W        W 9975   4.420  25.124   4.316
41613W        W 9976  14.199  22.102  13.386
41614W        W 9977   2.897  16.233   1.738
41615W        W 9978   2.745  34.435  11.100
41616W        W 9979   6.188   3.746  13.045
41617W        W 9980  15.137  12.727   4.783
41618W        W 9981  26.041   3.902  11.524
41619W        W 9982  31.966  30.009   1.215
41620W        W 9983  24.202   4.817   2.683
41621W        W 9984  27.476  25.667  14.933
41622W        W 9985  15.789  19.157   2.215
41623W        W 9986  28.043  15.246   4.264
41624W        W 9987   4.774  16.707   0.440
41625W        W 9988  16.781  17.293  12.940
41626W        W 9989  14.286   1.836  11.075
41627W        W 9990  15.817  13.296   4.756
41628W        W 9991  22.030  19.177   0.951
41629W        W 9992   1.438  16.681  13.542
41630W        W 9993  18.708  33.893   1.707
41631W        W 9994  42.435  41.924   0.387
41632W        W 9995   8.172  31.607   0.824
41633W        W 9996  44.502  33.027  12.545
41634W        W 9997  26.951   3.759  13.415
41635W        W 9998  26.181   3.774   3.369
41636W        W 9999   4.710  31.566   4.707
41637W        W10000  40.816   4.745   2.331
41638W        W10001  21.226  25.005   0.242
41639W        W10002  42.369  28.004   3.865
41640W        W10003   2.318  16.108   2.336
41641W        W10004  29.996  41.407   2.273
41642W        W10005  26.962  39.314  11.471
41643W        W10006   0.476  14.634  11.965
41644W        W10007  39.980  21.068  11.903
41645W        W10008  24.562  30.078  14.456
41646W        W10009  20.103  25.513  14.934
41647W        W10010  44.966  42.304   0.290
41648W        W10011  32.961  21.578  13.870
41649W        W10012  37.080  27.946   0.340
41650W        W10013  29.440  19.559  14.437
41651W        W10014   3.239  17.790   1.279
41652W        W10015  22.111   7.905  11.945
41653W        W10016  13.833  14.829  14.424
41654W        W10017  36.993  37.539  11.612
41655W        W10018  19.232  17.750  10.614
41656W        W10019  40.456  11.260   1.343
41657W        W10020  14.219  17.678   5.282
41658W        W10021   4.344  33.954   2.777
41659W        W10022  34.946  43.006   4.693
41660W        W10023  39.934  38.564   2.788
41661W        W10024  38.881  15.144   0.962
41662W        W10025  24.487  38.033  12.554
41663W        W10026   8.186   4.811  12.950
41664W        W10027  35.430  35.566   1.899
41665W        W10028  24.521  18.085  11.903
41666W        W10029  25.550   0.988  14.342
41667W        W10030  20.618  32.615  11.858
41668W        W10031  22.201  15.791  10.520
41669W        W10032  34.560  30.161   4.162
41670W        W10033   8.855   4.837  11.477
41671W        W10034  26.132  13.728   1.440
41672W        W10035  29.570  10.346   1.935
41673W        W10036  23.070   5.273   0.406
41674W        W10037  42.498  24.139   2.313
41675W        W10038   9.160  44.500  14.323
41676W        W10039  43.878  19.080  11.919
41677W        W10040   4.328  22.057   0.877
41678W        W10041  39.864  25.020  14.373
41679W        W10042  22.694  13.607   1.704
41680W        W10043  15.198  14.295  13.900
41681W        W10044  22.207  23.994  14.306
41682W        W10045  10.293  19.123   2.830
41683W        W10046  33.034  23.180   4.831
41684W        W10047  15.795  19.773  12.390
41685W        W10048  33.463  27.185  11.546
41686W        W10049  23.085   9.190  13.458
41687W        W10050  21.133  26.470  11.545
41688W        W10051  25.566  13.265   3.804
41689W        W10052  36.426   2.376  14.361
41690W        W10053  29.520   1.963   2.361
41691W        W10054   4.327  33.548  14.426
41692W        W10055  33.589  32.494   3.816
41693W        W10056  13.701  25.050   3.833
41694W        W10057  10.652  42.518  13.891
41695W        W10058  21.140  35.459  10.999
41696W        W10059  34.375  16.647   1.263
41697W        W10060  24.665  30.013  12.971
41698W        W10061  23.185  27.197  10.445
41699W        W10062  25.596   8.890   4.166
41700W        W10063  13.150  20.740   2.735
41701W        W10064  13.674  26.118   2.864
41702W        W10065  19.156  21.091  13.966
41703W        W10066  22.572   8.393   3.761
41704W        W10067   2.410   7.805  11.481
41705W        W10068   4.715  37.491  11.526
41706W        W10069  35.004  30.595   0.885
41707W        W10070  13.744  24.088  14.310
41708W        W10071   9.793  12.765   1.833
41709W        W10072  33.913   9.299  10.564
41710W        W10073  38.060   4.401   1.881
41711W        W10074  22.697  10.802  12.961
41712W        W10075   2.945  39.846  14.275
41713W        W10076  44.505  11.636   4.315
41714W        W10077  22.192  14.670   4.681
41715W        W10078  26.118  14.679  12.934
41716W        W10079  24.090  12.826   2.735
41717W        W10080  40.912  31.113   4.165
41718W        W10081   3.261   4.425  11.510
41719W        W10082  41.786   0.249  14.986
41720W        W10083  24.110  36.968  11.963
41721W        W10084  36.905   9.731   0.788
41722W        W10085  22.665  22.534  14.327
41723W        W10086  33.506  18.143   0.379
41724W        W10087  19.230  11.722  11.925
41725W        W10088  13.809  39.957   1.283
41726W        W10089  23.075  35.436  12.829
41727W        W10090  26.546  32.472  10.496
41728W        W10091  38.432  10.365   0.323
41729W        W10092  43.973  32.442  12.922
41730W        W10093  22.196  11.343  13.399
41731W        W10094   5.697   7.415   0.306
41732W        W10095   4.370  14.184  12.465
41733W        W10096  11.787   6.681  14.933
41734W        W10097  22.556  18.703   0.770
41735W        W10098  29.126  33.113   3.713
41736W        W10099  26.153   0.493   2.233
41737W        W10100  35.047  44.865   1.882
41738W        W10101   3.286  43.902   4.633
41739W        W10102  27.627  20.115   0.799
41740W        W10103  24.642  41.824  13.927
41741W        W10104  23.101  22.180  12.090
41742W        W10105  31.036  39.352   3.773
41743W        W10106  24.478  34.993  11.410
41744W        W10107  21.122  11.825   0.854
41745W        W10108  21.717  42.373   2.695
41746W        W10109  22.708  25.691   0.816
41747W        W10110  31.012  17.215  12.053
41748W        W10111  22.043  16.304  13.491
41749W        W10112  27.667  41.446   3.215
41750W        W10113  33.994  26.634   3.200
41751W        W10114  28.111  13.240   0.310
41752W        W10115  39.421  27.045   2.887
41753W        W10116  31.423   8.162   4.668
41754W        W10117   2.445  39.441   3.333
41755W        W10118   2.373  34.019   4.121
41756W        W10119  12.800   4.808  14.387
41757W        W10120  16.251  16.620   3.375
41758W        W10121   0.854   1.766   2.844
41759W        W10122  43.844   0.455  12.865
41760W        W10123  33.508  11.813   2.902
41761W        W10124   4.896  30.968   4.348
41762W        W10125  31.014  33.540  11.983
41763W        W10126  23.545  11.354   3.291
41764W        W10127   5.408  18.769   1.695
41765W        W10128  28.590  37.860   2.280
41766W        W10129  19.154  12.288   1.725
41767W        W10130  14.117  17.675   0.356
41768W        W10131  38.450  18.193   1.870
41769W        W10132  20.607  14.616   3.189
41770W        W10133  17.062   9.791  12.970
41771W        W10134  41.366  11.128   0.402
41772W        W10135  10.241  27.137  13.420
41773W        W10136  21.581  36.391   0.899
41774W        W10137  38.384  24.194   1.410
41775W        W10138   2.828  21.260  10.593
41776W        W10139  42.802  20.050   0.327
41777W        W10140  23.142   5.928  10.968
41778W        W10141  18.184   2.725  14.386
41779W        W10142  33.541  12.193  11.935
41780W        W10143  38.499   3.894   2.834
41781W        W10144  12.274  26.495  13.439
41782W        W10145  43.976   6.816  14.997
41783W        W10146   7.826  34.111  13.878
41784W        W10147   7.893  28.153  10.469
41785W        W10148   1.276  16.197   3.662
41786W        W10149  30.537  13.207   1.899
41787W        W10150  42.017   6.349  12.525
41788W        W10151  42.825  43.782   3.708
41789W        W10152  20.637  20.085  10.555
41790W        W10153  10.182  39.505   1.854
41791W        W10154  10.165  21.606   2.740
41792W        W10155  17.224  20.222   0.766
41793W        W10156  32.595  33.610   3.225
41794W        W10157  44.940   9.272   1.909
41795W        W10158  43.931  35.007   3.675
41796W        W10159  14.203  17.743   5.625
41797W        W10160   7.674  38.026  12.358
41798W        W10161  35.097  23.637   1.744
41799W        W10162  32.112  19.723  12.856
41800W        W10163  20.707  20.248  14.834
41801W        W10164  40.910  14.650   0.309
41802W        W10165  42.522  33.584  13.544
41803W        W10166  31.573  35.597  11.585
41804W        W10167  25.125  16.181  13.839
41805W        W10168   4.240  23.187   2.825
41806W        W10169  18.629  37.076  14.798
41807W        W10170  32.935  20.623  11.096
41808W        W10171  19.651  42.360   4.732
41809W        W10172  20.694  31.959  10.912
41810W        W10173  24.003  15.707   4.759
41811W        W10174   5.229  20.559   2.335
41812W        W10175  40.374  38.998   2.680
41813W        W10176  31.076   9.150   2.900
41814W        W10177   9.689  41.377   3.687
41815W        W10178   6.695  20.669   4.637
41816W        W10179  10.190   7.190  14.960
41817W        W10180  15.702   5.815  14.905
41818W        W10181  33.553  32.418   0.886
41819W        W10182  24.000  16.770   1.261
41820W        W10183  28.058  39.915  13.488
41821W        W10184  27.940   0.845  10.449
41822W        W10185   1.778  27.961   4.118
41823W        W10186  35.549  40.822  10.540
41824W        W10187   8.204  12.334   2.754
41825W        W10188  16.236  38.863  11.510
41826W        W10189  18.603  22.995  13.324
41827W        W10190   7.691  16.808  12.045
41828W        W10191  35.092  41.518  14.516
41829W        W10192  21.658   2.814   2.776
41830W        W10193  40.965  10.715  13.512
41831W        W10194   6.425  26.091  10.514
41832W        W10195  25.995  27.545  11.402
41833W        W10196  32.586  40.528  13.427
41834W        W10197  18.185  11.676   2.771
41835W        W10198  26.617  17.672  11.544
41836W        W10199  20.612  17.182   3.236
41837W        W10200  34.580  37.895  12.962
41838W        W10201  37.407  23.623  12.941
41839W        W10202   3.390  31.519   3.762
41840W        W10203  40.492   8.857  13.369
41841W        W10204   1.455  26.538   4.351
41842W        W10205   1.423  13.239  14.836
41843W        W10206  12.347   1.429   1.395
41844W        W10207  39.059  25.683   0.771
41845W        W10208  12.253  22.217   3.792
41846W        W10209   3.339   4.816  11.036
41847W        W10210  39.944  43.440  13.403
41848W        W10211  17.147  40.471  13.004
41849W        W10212  34.402   6.416  11.527
41850W        W10213  14.760  14.289   2.302
41851W        W10214  17.730   3.946   1.830
41852W        W10215  31.574  28.180  13.537
41853W        W10216  30.621   5.838   0.919
41854W        W10217  43.944   0.346   3.184
41855W        W10218  12.269  24.176  14.913
41856W        W10219  33.993  23.636  12.413
41857W        W10220  38.492  29.621   4.734
41858W        W10221  34.106  11.167   1.234
41859W        W10222  20.601  17.155   4.785
41860W        W10223  23.686  13.651   0.831
41861W        W10224  30.511  12.209   1.424
41862W        W10225   5.898  14.688  13.435
41863W        W10226  21.188  20.034  13.895
41864W        W10227  28.540   8.683  11.027
41865W        W10228   2.953   8.863  10.966
41866W        W10229   6.394  39.359  12.960
41867W        W10230  29.561  30.001  10.427
41868W        W10231  26.653  21.239  12.520
41869W        W10232   5.822  40.918   4.303
41870W        W10233  30.163  37.398  12.025
41871W        W10234   9.211  19.098   2.178
41872W        W10235  21.054  21.260  14.425
41873W        W10236  12.698  23.546   0.422
41874W        W10237  32.477  43.367  14.930
41875W        W10238   5.220  21.668  13.034
41876W        W10239  39.915  34.992   0.963
41877W        W10240  35.487  33.003  14.379
41878W        W10241   5.197  42.949   0.907
41879W        W10242   6.198  35.095   2.411
41880W        W10243  25.971  27.131   0.932
41881W        W10244  41.931  37.014  12.536
41882W        W10245  19.579  39.847   0.861
41883W        W10246  40.802  34.919  13.902
41884W        W10247  39.910   8.781   1.408
41885W        W10248  25.033  26.480  12.995
41886W        W10249  13.704   1.422   4.348
41887W        W10250  42.856  33.607  12.507
41888W        W10251  14.683  42.390   4.687
41889W        W10252  33.604  37.559   3.188
41890W        W10253  30.614   8.888  13.481
41891W        W10254  21.601  40.518  11.470
41892W        W10255   1.801   3.947  12.013
41893W        W10256   3.406   1.368  13.882
41894W        W10257  29.988   7.900  13.526
41895W        W10258  42.424   0.483   2.362
41896W        W10259  35.868  21.085  12.928
41897W        W10260  37.557  28.183   0.302
41898W        W10261  34.003   2.292   0.805
41899W        W10262  26.594  17.570  10.981
41900W        W10263  10.878  17.152  12.559
41901W        W10264  41.462  31.129   4.278
41902W        W10265  21.201  23.655  14.949
41903W        W10266  27.609  42.979   2.308
41904W        W10267  10.213  44.954  11.121
41905W        W10268   1.929  34.952  11.474
41906W        W10269   2.961  25.592   3.255
41907W        W10270  29.121  27.171   2.220
41908W        W10271  24.529  35.497  11.089
41909W        W10272   8.372   0.898   1.233
41910W        W10273   2.262  30.117  11.950
41911W        W10274  17.611  13.707   0.416
41912W        W10275  34.413  10.760  14.466
41913W        W10276  16.675  35.439   4.717
41914W        W10277   1.471   4.427   0.861
41915W        W10278  12.678   1.957  10.973
41916W        W10279   2.246  11.701  13.522
41917W        W10280  32.972  21.041   2.214
41918W        W10281  11.348  41.960  13.308
41919W        W10282  18.103  36.961  10.456
41920W        W10283  40.987  31.945  11.973
41921W        W10284   5.722   3.754  13.861
41922W        W10285  11.791  42.029  11.877
41923W        W10286   2.824  36.578   2.719
41924W        W10287   7.672   3.786   0.741
41925W        W10288  13.128  26.033  14.276
41926W        W10289  17.276  43.436   2.794
41927W        W10290  24.973  31.933   1.874
41928W        W10291  41.842  39.426   0.284
41929W        W10292  40.922  10.860   2.353
41930W        W10293   9.735  39.059  11.866
41931W        W10294  44.353  26.168   3.207
41932W        W10295  21.616   4.904  14.887
41933W        W10296  33.448   3.821  10.902
41934W        W10297  44.831  43.988   3.759
41935W        W10298  29.144  29.040  14.884
41936W        W10299   6.239   6.267  11.539
41937W        W10300  43.902   9.311   2.339
41938W        W10301   0.380  24.526   5.289
41939W        W10302  14.772  24.020   1.716
41940W        W10303  27.088  11.666   3.643
41941W        W10304  18.579  17.792   3.731
41942W        W10305  30.078  12.684   0.304
41943W        W10306  36.033  33.077  11.393
41944W        W10307  20.091  22.632   9.968
41945W        W10308   2.830   4.842  13.791
41946W        W10309  39.003   9.293   4.799
41947W        W10310  22.214  14.770   2.707
41948W        W10311  24.707   3.949   3.784
41949W        W10312  16.643  44.440  10.504
41950W        W10313  28.042  27.189   3.678
41951W        W10314   2.315  14.234  13.033
41952W        W10315  32.404  21.254   1.916
41953W        W10316  16.790   2.226   1.389
41954W        W10317  41.304  40.522   2.307
41955W        W10318  43.004  44.305  10.942
41956W        W10319  33.098  34.500  12.831
41957W        W10320  12.153  29.669   4.783
41958W        W10321  31.026   7.194   3.342
41959W        W10322  37.384  10.720   2.846
41960W        W10323  19.715   2.748   0.833
41961W        W10324   6.413  11.229  11.394
41962W        W10325  14.138  16.095  10.920
41963W        W10326  35.553  13.244   0.433
41964W        W10327  34.588  39.816   3.822
41965W        W10328   2.734  24.164  12.361
41966W        W10329  16.196   2.338  12.070
41967W        W10330  42.343  15.277   2.740
41968W        W10331  35.911  28.176   2.663
41969W        W10332  39.351  43.443  14.023
41970W        W10333  44.269   3.338   4.178
41971W        W10334  27.659   0.941   3.289
41972W        W10335  27.042  23.496   2.257
41973W        W10336  37.072   4.806   3.258
41974W        W10337  29.590   3.931  12.485
41975W        W10338  14.121  29.149   0.896
41976W        W10339  33.437  43.887   4.115
41977W        W10340  21.739  31.459  14.378
41978W        W10341  39.500  14.729  14.868
41979W        W10342  38.447  28.598   4.353
41980W        W10343  41.039  20.632   3.829
41981W        W10344   0.394  14.829   2.797
41982W        W10345  40.533  15.734  14.466
41983W        W10346   9.776  44.403   4.751
41984W        W10347  16.756  20.076  12.078
41985W        W10348  36.929  17.177  13.499
41986W        W10349   0.824   1.335   0.758
41987W        W10350   3.457  17.727  13.341
41988W        W10351  17.741  31.646   2.388
41989W        W10352  40.492  39.003  12.440
41990W        W10353  37.912  41.018  10.408
41991W        W10354  23.578  30.600   0.477
41992W        W10355  15.817  33.539  11.097
41993W        W10356   8.339  21.050  13.022
41994W        W10357  32.630  12.117  12.927
41995W        W10358  40.455  26.128   1.366
41996W        W10359  10.218  18.130   4.615
41997W        W10360  37.370  37.876  11.569
41998W        W10361  13.131   9.802   3.309
41999W        W10362   0.820  12.799  10.997
42000W        W10363  23.226  33.897   3.689
42001W        W10364   5.310   0.314   4.801
42002W        W10365  38.485  35.861  10.893
42003W        W10366  23.566   0.438  10.440
42004W        W10367  32.506  42.378  13.541
42005W        W10368  37.025  17.654   2.707
42006W        W10369  14.811  40.380   3.752
42007W        W10370  24.537  17.615   1.403
42008W        W10371  29.477   0.414  13.524
42009W        W10372  23.216  35.442   0.863
42010W        W10373  11.857  17.290   0.773
42011W        W10374  20.138   6.858  13.310
42012W        W10375   5.233  39.324  13.312
42013W        W10376  28.017  10.748   0.908
42014W        W10377  35.039  26.696  14.937
42015W        W10378   5.237  13.661  12.060
42016W        W10379  33.443  17.287   1.246
42017W        W10380  33.929   1.762  11.564
42018W        W10381   0.799  29.470   0.466
42019W        W10382  34.003   3.414   0.482
42020W        W10383  38.506  43.867  11.060
42021W        W10384  44.793  41.518  12.023
42022W        W10385   2.445  21.577   3.808
42023W        W10386  17.757  39.031   0.797
42024W        W10387  41.497  26.066  13.985
42025W        W10388  31.082  41.367  12.994
42026W        W10389  21.222  15.806   1.818
42027W        W10390  26.111  30.141  11.036
42028W        W10391  43.920  44.761   3.308
42029W        W10392  28.636  41.359   3.793
42030W        W10393   3.264  23.085  13.404
42031W        W10394  23.154  38.008  11.402
42032W        W10395   9.202   7.368   0.852
42033W        W10396  19.074  23.019   3.759
42034W        W10397  26.100   2.900   4.139
42035W        W10398  16.136  11.817  14.404
42036W        W10399  32.596  40.463  14.400
42037W        W10400   4.357  25.534  12.475
42038W        W10401  20.646  44.381  10.438
42039W        W10402  24.693  37.868  14.847
42040W        W10403   5.885  20.255   2.406
42041W        W10404  36.050  10.859  12.407
42042W        W10405   7.857  28.005  14.512
42043W        W10406  16.614  16.791  14.472
42044W        W10407  33.441  20.093  11.521
42045W        W10408  32.080   0.325  11.544
42046W        W10409  41.857   8.849   3.314
42047W        W10410  24.138  20.671  10.424
42048W        W10411  14.154  10.831  13.402
42049W        W10412  27.649  18.255   4.238
42050W        W10413  31.087  25.711   2.411
42051W        W10414  17.274   0.363  10.937
42052W        W10415   8.789  31.469  13.054
42053W        W10416  40.894   1.924   0.472
42054W        W10417  37.348   8.191  10.501
42055W        W10418  29.132  16.147   5.225
42056W        W10419  43.288  44.776  14.861
42057W        W10420  34.932  38.890  11.411
42058W        W10421   0.801  24.125  12.030
42059W        W10422   8.335  18.130  10.968
42060W        W10423  40.476  23.224  13.967
42061W        W10424   1.869  36.495  13.931
42062W        W10425  35.053  44.888   3.687
42063W        W10426  29.972  30.637   0.393
42064W        W10427  19.045  24.668   1.889
42065W        W10428  24.705  12.823  11.946
42066W        W10429   9.799   4.370  10.488
42067W        W10430  34.942   3.327   0.437
42068W        W10431   3.812   9.673   1.700
42069W        W10432  42.484  22.014  12.045
42070W        W10433  26.086  30.145  14.970
42071W        W10434  42.824  40.461   0.470
42072W        W10435  29.558  41.412   3.193
42073W        W10436  21.739  15.579  13.838
42074W        W10437  35.928  32.450  12.436
42075W        W10438  15.747  41.018  11.526
42076W        W10439   2.933  10.868   3.743
42077W        W10440  36.071  20.687  11.961
42078W        W10441  38.527  26.472   2.204
42079W        W10442   4.874  36.924   1.364
42080W        W10443   5.788  12.700  12.068
42081W        W10444  32.504   1.746  11.434
42082W        W10445  36.938  15.655   1.714
42083W        W10446  21.716  14.799   1.226
42084W        W10447  13.717   4.794  13.408
42085W        W10448  30.980  23.689   4.671
42086W        W10449  40.547  16.751  13.840
42087W        W10450   9.652  38.539  13.415
42088W        W10451  39.972   2.385  13.818
42089W        W10452  41.938  34.525  10.473
42090W        W10453   1.746  38.840  13.511
42091W        W10454   3.894  23.596   2.320
42092W        W10455  30.947  10.219  10.051
42093W        W10456  33.543  30.932  14.448
42094W        W10457   2.894   3.374  10.636
42095W        W10458   5.417  23.155  12.578
42096W        W10459  41.804   4.336   1.727
42097W        W10460  44.764  41.880  13.455
42098W        W10461  15.799  26.006  13.532
42099W        W10462  30.558   7.189  14.512
42100W        W10463  30.084  27.982  11.025
42101W        W10464  40.328  26.981   4.819
42102W        W10465   3.904  30.938   1.304
42103W        W10466  29.971   5.715   3.661
42104W        W10467  44.264   7.375  14.462
42105W        W10468   9.217  18.241   4.681
42106W        W10469  29.126  39.455   0.884
42107W        W10470  37.968  19.632   5.081
42108W        W10471   9.235  23.991   4.269
42109W        W10472  23.112  12.162   2.228
42110W        W10473  33.530   2.774   3.204
42111W        W10474   2.399  26.073   3.182
42112W        W10475  42.394  39.875   1.699
42113W        W10476  31.948  23.086   3.770
42114W        W10477  44.937  22.022   3.188
42115W        W10478  11.334  36.417   2.314
42116W        W10479  31.958   8.710   3.667
42117W        W10480  18.077   5.406  12.967
42118W        W10481  24.974  33.055  14.780
42119W        W10482  19.662  43.335   0.812
42120W        W10483  19.637  16.138  13.044
42121W        W10484   0.342  37.857  13.004
42122W        W10485   2.941  31.495   0.429
42123W        W10486  37.354   9.325  14.988
42124W        W10487   0.849  19.585   5.142
42125W        W10488  44.908  25.482   4.175
42126W        W10489  17.224  39.336  12.472
42127W        W10490  13.262   5.745   3.278
42128W        W10491  33.536  18.240  13.544
42129W        W10492   8.328   4.904  10.443
42130W        W10493   6.237  44.761   2.862
42131W        W10494  28.073  43.308  13.421
42132W        W10495  29.551  27.489   3.251
42133W        W10496  22.724  31.638  12.495
42134W        W10497  38.962  17.583  11.046
42135W        W10498  20.682   3.892   1.770
42136W        W10499  23.129   4.864   3.343
42137W        W10500  22.741  27.666   2.358
42138W        W10501  34.931  34.092  13.519
42139W        W10502  22.197  44.900  13.492
42140W        W10503   8.338  16.210  12.961
42141W        W10504   3.355  16.249  11.588
42142W        W10505   5.904  41.308  13.415
42143W        W10506  19.612  43.426   1.231
42144W        W10507  23.147  27.137  12.383
42145W        W10508   5.919  18.737   2.685
42146W        W10509  42.484  33.128   2.735
42147W        W10510   8.746  41.448   0.292
42148W        W10511   4.850   5.348   9.935
42149W        W10512   8.655  33.093  12.064
42150W        W10513   8.321   0.988   1.745
42151W        W10514  24.001  15.767   2.730
42152W        W10515   4.767   7.828  13.814
42153W        W10516  10.789   9.278  14.934
42154W        W10517  10.282  34.461   0.270
42155W        W10518  29.449  43.799  13.821
42156W        W10519   7.409  34.417   2.333
42157W        W10520  32.452  19.282   2.185
42158W        W10521  25.553   3.808   2.363
42159W        W10522  34.034  43.016   4.303
42160W        W10523  34.466   5.795  14.376
42161W        W10524  25.601  40.830  13.994
42162W        W10525   5.317  37.502  14.316
42163W        W10526  20.748   5.369  13.546
42164W        W10527  18.583   7.337  13.819
42165W        W10528  33.430  12.763  12.362
42166W        W10529  41.455   8.362   2.335
42167W        W10530   5.419  16.705  10.519
42168W        W10531  31.041  13.778  14.932
42169W        W10532  37.351   6.681  12.073
42170W        W10533  32.555  12.723   3.857
42171W        W10534  41.873   5.758   1.434
42172W        W10535  27.611  42.813   1.352
42173W        W10536  13.600  28.046   3.753
42174W        W10537  33.037   2.805   2.878
42175W        W10538   9.186  33.940   3.743
42176W        W10539  24.057  33.618   9.999
42177W        W10540  39.825   4.229   4.199
42178W        W10541   1.415  36.848   0.360
42179W        W10542  13.798  32.961   4.662
42180W        W10543   4.740  23.139  14.870
42181W        W10544  12.215  34.460   2.261
42182W        W10545  16.624  27.131  13.898
42183W        W10546  26.137  21.217  13.012
42184W        W10547  42.893  20.737  11.573
42185W        W10548  14.180  39.851   4.753
42186W        W10549   9.191  30.569  10.067
42187W        W10550  38.986  18.160   0.889
42188W        W10551  30.016   3.250  10.483
42189W        W10552   2.790  30.562   1.369
42190W        W10553  24.051  29.084  14.383
42191W        W10554  35.415  31.438   1.741
42192W        W10555  34.109  23.588  13.899
42193W        W10556  25.657  28.157   1.416
42194W        W10557  41.321   2.733   2.419
42195W        W10558  29.508  11.843   5.225
42196W        W10559  10.841   4.271   3.338
42197W        W10560  21.604  15.137  12.935
42198W        W10561  24.218  43.427   3.757
42199W        W10562  12.181  30.064   1.263
42200W        W10563   4.724  15.226   0.875
42201W        W10564  37.487  24.633   0.964
42202W        W10565   4.903  26.032  10.508
42203W        W10566  44.281   3.865   4.793
42204W        W10567  32.515  24.101   1.253
42205W        W10568   1.274  42.879   5.163
42206W        W10569  37.383   4.828  11.458
42207W        W10570  30.481  29.475  13.843
42208W        W10571  22.697  12.243   0.402
42209W        W10572  19.592  38.501   1.225
42210W        W10573   5.294  37.953   0.354
42211W        W10574  13.706  40.990   0.409
42212W        W10575  15.258  29.457   2.791
42213W        W10576  39.938  17.280  14.898
42214W        W10577  12.769  29.561   1.424
42215W        W10578   2.865  39.026   3.815
42216W        W10579  18.784   3.831   3.753
42217W        W10580   8.718  34.016   3.180
42218W        W10581  28.125  23.018   4.638
42219W        W10582   8.347  31.029   0.254
42220W        W10583  37.519  40.304   2.858
42221W        W10584  37.908  28.608  13.502
42222W        W10585  14.632  16.237  13.397
42223W        W10586   1.330  14.138  13.961
42224W        W10587   2.773   7.233  14.805
42225W        W10588  40.538  19.667  11.957
42226W        W10589  39.408  13.287   0.793
42227W        W10590  34.373  36.044   0.902
42228W        W10591  16.165  28.086   1.887
42229W        W10592  36.499  29.988  12.397
42230W        W10593  17.689  22.011  13.403
42231W        W10594   4.282  43.847  10.450
42232W        W10595  20.741   1.258   4.803
42233W        W10596  21.732   0.262   0.316
42234W        W10597  15.136  23.990  13.410
42235W        W10598  19.213  29.467  13.034
42236W        W10599  25.513   0.982   2.305
42237W        W10600  11.836   9.163  13.382
42238W        W10601   3.725  33.930  12.891
42239W        W10602   8.807  16.811  11.560
42240W        W10603  39.873  33.082   4.671
42241W        W10604  14.830   4.807  11.975
42242W        W10605  29.046   1.881  12.418
42243W        W10606  33.483  29.581  11.122
42244W        W10607  13.738   0.765  11.546
42245W        W10608  37.371  24.599  13.949
42246W        W10609   8.865  26.550  12.349
42247W        W10610  34.480  24.573  10.988
42248W        W10611  43.951  20.097  10.983
42249W        W10612  42.962  34.052  12.008
42250W        W10613  10.205  24.074   4.130
42251W        W10614  16.573  42.003  12.987
42252W        W10615  18.207   1.387  12.354
42253W        W10616  14.217  38.994  11.480
42254W        W10617  34.115  24.532   4.636
42255W        W10618  41.349  27.479  11.521
42256W        W10619   2.307  30.995  11.910
42257W        W10620  15.735   5.323   2.286
42258W        W10621   0.356  27.586  11.481
42259W        W10622  27.544  12.684  12.012
42260W        W10623   9.281  35.093  11.413
42261W        W10624   9.168   2.440  14.900
42262W        W10625   8.830  13.313   0.287
42263W        W10626  14.256  43.786  14.008
42264W        W10627  15.614  13.708   2.828
42265W        W10628   1.848   6.706   1.824
42266W        W10629   7.899  22.505   4.348
42267W        W10630   3.938  28.487   3.344
42268W        W10631   4.422  33.507   4.195
42269W        W10632  30.122  13.803   4.762
42270W        W10633  19.640  11.339   9.930
42271W        W10634  24.037  16.306  12.987
42272W        W10635  37.514  24.628   4.701
42273W        W10636  38.035  33.498   4.784
42274W        W10637  16.275  17.245   0.459
42275W        W10638  33.083  41.433   3.282
42276W        W10639  40.909   1.849  13.800
42277W        W10640  10.231   8.735   4.836
42278W        W10641   9.227  23.216  12.043
42279W        W10642  39.420  18.269  11.467
42280W        W10643  10.661  14.692  11.051
42281W        W10644  29.094  33.438  11.867
42282W        W10645   3.316  41.823  13.946
42283W        W10646  16.772  39.436  11.432
42284W        W10647  32.520  23.161  12.976
42285W        W10648  43.862   4.368   2.211
42286W        W10649  41.387   0.855   1.743
42287W        W10650  21.179   5.714  14.013
42288W        W10651   5.208   4.837   3.199
42289W        W10652  20.654  10.368   4.250
42290W        W10653   7.379  22.017   2.215
42291W        W10654  16.303  35.950  14.917
42292W        W10655  29.566  16.124   0.931
42293W        W10656  36.092   8.395   3.851
42294W        W10657  40.962   3.450   0.308
42295W        W10658   1.432  36.509  12.064
42296W        W10659  12.618   4.875  12.461
42297W        W10660  38.058  20.590   2.228
42298W        W10661   6.424  15.685  10.961
42299W        W10662   5.740  36.593  11.464
42300W        W10663  14.749  36.093  10.102
42301W        W10664  34.596  33.405  10.928
42302W        W10665  29.175  24.665   2.285
42303W        W10666   0.826  42.824   2.363
42304W        W10667  43.927  28.475   1.402
42305W        W10668  28.142  24.541  12.035
42306W        W10669  35.990  18.069  13.450
42307W        W10670   7.872  24.142  11.009
42308W        W10671   9.302  16.604  11.495
42309W        W10672  23.550   2.936  11.061
42310W        W10673  43.868  43.428   0.379
42311W        W10674   0.453  11.857  12.038
42312W        W10675  22.663  43.947   4.742
42313W        W10676  43.969  43.791  10.442
42314W        W10677  15.758  27.471  14.316
42315W        W10678  20.189  24.520   2.810
42316W        W10679  15.714  15.770  12.528
42317W        W10680  24.550  21.082  12.948
42318W        W10681  29.621  15.812  14.906
42319W        W10682  23.682  24.488  10.409
42320W        W10683  39.460  34.470  11.560
42321W        W10684  42.907  25.479   1.422
42322W        W10685  27.151  17.586  12.424
42323W        W10686  32.981   5.252  14.942
42324W        W10687  29.001  41.971  11.564
42325W        W10688  41.303  13.665   1.814
42326W        W10689   2.853   8.284  12.542
42327W        W10690  15.626  37.904   2.813
42328W        W10691  25.137  29.618  12.452
42329W        W10692  42.002   5.736  11.903
42330W        W10693   7.353  30.446   1.345
42331W        W10694   0.329  23.631  11.428
42332W        W10695  28.089  35.062  10.505
42333W        W10696  20.220   8.289   4.817
42334W        W10697   5.262  34.478  14.830
42335W        W10698   7.257   5.252  11.463
42336W        W10699  35.989   2.778   2.355
42337W        W10700  39.409  41.422  12.065
42338W        W10701  10.688   8.223  10.584
42339W        W10702  35.947  34.423   2.395
42340W        W10703  11.721  19.674   0.335
42341W        W10704  42.805  40.030  10.901
42342W        W10705  39.440  33.519   2.328
42343W        W10706  14.800  36.543   1.697
42344W        W10707  14.775  25.164   3.657
42345W        W10708  43.841  33.080   2.267
42346W        W10709   5.363   1.861  13.456
42347W        W10710  16.810  42.378   3.870
42348W        W10711  18.622  10.383   4.656
42349W        W10712  21.227  10.194  13.817
42350W        W10713   4.761  16.218   4.707
42351W        W10714  29.030   0.303  12.930
42352W        W10715  26.108  21.680   0.249
42353W        W10716   5.868   3.781   0.929
42354W        W10717  23.177  18.612   2.215
42355W        W10718  20.112   0.816  12.483
42356W        W10719   1.749  29.035   1.448
42357W        W10720  25.099  38.471   2.237
42358W        W10721  33.080  21.522  10.902
42359W        W10722  44.983  32.502   0.775
42360W        W10723   2.779  20.055  10.539
42361W        W10724   9.875  27.138  11.471
42362W        W10725  41.374  35.392   0.244
42363W        W10726  10.361  21.547  13.491
42364W        W10727   1.478  11.707   0.264
42365W        W10728  38.837   5.273   1.729
42366W        W10729  39.447  12.745   2.815
42367W        W10730  41.035  10.860  11.536
42368W        W10731  28.569   4.357   0.424
42369W        W10732  44.855  33.604   0.847
42370W        W10733  11.836  10.685   1.853
42371W        W10734   7.772  40.308   2.757
42372W        W10735  11.718  36.865   1.391
42373W        W10736  32.395  12.726   2.686
42374W        W10737  43.932  29.090   3.819
42375W        W10738  32.074  42.403  13.006
42376W        W10739  36.979  43.361   0.842
42377W        W10740  26.047   4.928  14.928
42378W        W10741   0.459  22.145   5.314
42379W        W10742  14.255  41.022   0.298
42380W        W10743  34.939  29.967  14.410
42381W        W10744  24.123  23.670  14.759
42382W        W10745  15.659  15.771   9.490
42383W        W10746  33.119  43.791  10.084
42384W        W10747  38.880  31.591   4.794
42385W        W10748   3.238  13.149   2.724
42386W        W10749  11.321  15.742   1.931
42387W        W10750  25.071   0.461   3.708
42388W        W10751   7.233  21.687  12.032
42389W        W10752  33.522  42.991   2.374
42390W        W10753  34.541  35.070   1.293
42391W        W10754  12.243   8.778   3.298
42392W        W10755  14.617  44.754   1.363
42393W        W10756  11.190  14.317   1.393
42394W        W10757  10.340  33.948  11.429
42395W        W10758   5.723   6.212  12.012
42396W        W10759  37.545  40.384   2.203
42397W        W10760  24.034  16.175  14.369
42398W        W10761   1.752  41.980  13.339
42399W        W10762  33.578   6.338  13.429
42400W        W10763   8.266  22.732  14.793
42401W        W10764  12.753  24.092   4.211
42402W        W10765  13.745  18.573  11.106
42403W        W10766  31.423  21.554   1.346
42404W        W10767   8.176  44.854   3.630
42405W        W10768  25.492  44.892  12.949
42406W        W10769  27.687  20.763   0.267
42407W        W10770  22.664   2.321  11.509
42408W        W10771   8.199  14.759  13.979
42409W        W10772   4.755  22.234  14.504
42410W        W10773  25.578  24.225   0.404
42411W        W10774  12.742   5.917   9.470
42412W        W10775  23.638  20.747  12.894
42413W        W10776  38.983  29.121   0.286
42414W        W10777  25.553  35.050   2.389
42415W        W10778  42.468   5.701   3.631
42416W        W10779   4.819  22.535  14.947
42417W        W10780  30.553   1.404  13.451
42418W        W10781  27.037   7.706  14.381
42419W        W10782  29.161  30.137  12.522
42420W        W10783  39.968   1.358   2.289
42421W        W10784  30.442  21.601  14.032
42422W        W10785   0.287   6.737   0.962
42423W        W10786  42.889  19.625   3.740
42424W        W10787   6.836  22.045  14.828
42425W        W10788  22.614  21.538  14.840
42426W        W10789  20.637  35.892   2.686
42427W        W10790   0.748  26.492  10.921
42428W        W10791  44.476  24.180   3.272
42429W        W10792  20.666  33.064  10.933
42430W        W10793  24.488   8.691  13.396
42431W        W10794  44.964  20.266   1.269
42432W        W10795  34.398  41.870  12.971
42433W        W10796  40.982  30.584  12.072
42434W        W10797   8.286  33.929   0.830
42435W        W10798   9.232  13.624   3.161
42436W        W10799  29.108  33.987   0.411
42437W        W10800  20.630  40.538   0.417
42438W        W10801  33.915  21.156  11.871
42439W        W10802  35.364   2.753   4.323
42440W        W10803  21.085  16.201   4.178
42441W        W10804  34.117  15.594  14.894
42442W        W10805   5.783  28.576  14.964
42443W        W10806  42.786  15.615   1.416
42444W        W10807   6.348   7.396   0.880
42445W        W10808  19.671   3.874  11.574
42446W        W10809  31.538  11.270  11.413
42447W        W10810  31.620  20.125  12.397
42448W        W10811  33.004  40.332   0.776
42449W        W10812  25.549  28.654  10.896
42450W        W10813  32.996  31.639   2.877
42451W        W10814  28.966   5.305   1.393
42452W        W10815   5.863  19.680  12.969
42453W        W10816  13.836   5.849   0.256
42454W        W10817  31.034  10.325  13.017
42455W        W10818  18.603  12.240  10.909
42456W        W10819  32.135  33.514  14.773
42457W        W10820  31.022  27.042  14.969
42458W        W10821   2.464  20.030   2.731
42459W        W10822  15.278  26.047  13.885
42460W        W10823  43.816  34.380   3.815
42461W        W10824   8.202  29.069  10.901
42462W        W10825  24.669  10.871   2.246
42463W        W10826  37.502  43.432  11.860
42464W        W10827  39.992  26.959  10.999
42465W        W10828  18.611   2.888   1.450
42466W        W10829  43.906  16.648  13.473
42467W        W10830  30.012  19.045  11.076
42468W        W10831   9.157  38.911  13.426
42469W        W10832   4.835  43.938  14.310
42470W        W10833   0.930  36.443  10.412
42471W        W10834  18.278   4.398   2.201
42472W        W10835  38.891  21.131  12.514
42473W        W10836  44.004   7.904   1.848
42474W        W10837  37.924  20.273  13.433
42475W        W10838  30.932  18.790   4.654
42476W        W10839  27.488  32.036   3.668
42477W        W10840  15.655  37.885   4.130
42478W        W10841  40.944   5.343   4.192
42479W        W10842  18.774  27.599  11.409
42480W        W10843  18.547  16.795  11.055
42481W        W10844  26.122  32.014  13.820
42482W        W10845  30.606  23.107  12.002
42483W        W10846  25.633  17.089   3.256
42484W        W10847  19.542  29.140  13.517
42485W        W10848  34.520   3.799   0.900
42486W        W10849   5.708  20.164   2.900
42487W        W10850  17.255  32.482   0.323
42488W        W10851  37.546   5.770   3.161
42489W        W10852   7.211   9.283   2.824
42490W        W10853  40.461  22.014   2.846
42491W        W10854  23.634  27.516  10.436
42492W        W10855  19.761  44.500   2.725
42493W        W10856  29.627   3.844   1.322
42494W        W10857  20.554   9.673  10.535
42495W        W10858  11.331  29.630  12.834
42496W        W10859  23.084  14.824   0.270
42497W        W10860  14.709   4.293   3.776
42498W        W10861  28.030  19.693   4.818
42499W        W10862  44.820  43.425   1.871
42500W        W10863  26.535   5.821  12.482
42501W        W10864  32.907  37.063   3.758
42502W        W10865  25.610  10.256   1.303
42503W        W10866  36.502   7.292  12.437
42504W        W10867  26.966  22.704   0.890
42505W        W10868   0.347  25.216   0.356
42506W        W10869  41.864   7.193   1.893
42507W        W10870  27.976  41.312  12.536
42508W        W10871  15.275  28.647   1.423
42509W        W10872   4.765  20.269  12.919
42510W        W10873  22.519  27.004  14.882
42511W        W10874  28.990  30.524  11.408
42512W        W10875  26.484  33.521  11.990
42513W        W10876  31.571   6.777  10.897
42514W        W10877  14.693  16.247  14.294
42515W        W10878  20.711  32.075  14.828
42516W        W10879  28.076  35.864  10.925
42517W        W10880  18.149  21.694   0.967
42518W        W10881  22.042  17.604   3.860
42519W        W10882  43.018  14.797  12.410
42520W        W10883   8.368  14.757  11.606
42521W        W10884  13.680  42.412  11.467
42522W        W10885  19.705  20.566  13.899
42523W        W10886  14.135   4.780  14.454
42524W        W10887  21.718  22.655   0.846
42525W        W10888  43.967   4.712   4.349
42526W        W10889   4.897  12.134  14.002
42527W        W10890  24.554  37.481   3.240
42528W        W10891  14.817  29.608   0.463
42529W        W10892  30.008   1.866  14.302
42530W        W10893  25.115  37.340   4.250
42531W        W10894  26.670  35.076   1.277
42532W        W10895  38.994   7.182   2.740
42533W        W10896  20.268  14.111  13.352
42534W        W10897  10.720  40.490  12.522
42535W        W10898   8.318  22.039  14.382
42536W        W10899   7.855  44.358   0.873
42537W        W10900  42.944  41.815  12.439
42538W        W10901  19.539   6.234  14.835
42539W        W10902  19.578  10.851   1.830
42540W        W10903  25.099  38.930   0.359
42541W        W10904  10.659  17.296   3.206
42542W        W10905  26.030  10.867  13.316
42543W        W10906   9.337  16.310  12.400
42544W        W10907  27.557  21.173   4.760
42545W        W10908   0.894  19.745   2.877
42546W        W10909  20.094   3.943   3.760
42547W        W10910  24.543  30.439  12.858
42548W        W10911  21.534  41.537  11.456
42549W        W10912   7.348  36.920  10.503
42550W        W10913  40.423  28.027   0.871
42551W        W10914  13.673  29.952  12.849
42552W        W10915  24.095  11.631   0.377
42553W        W10916  23.683  30.163   1.220
42554W        W10917  23.722  33.442  11.988
42555W        W10918  15.307  39.978  10.431
42556W        W10919  21.546  26.135  12.850
42557W        W10920  40.308   0.951  13.481
42558W        W10921  39.841  25.140   4.135
42559W        W10922  37.854  26.087   2.228
42560W        W10923  27.608  38.849   2.315
42561W        W10924  41.430   6.736  14.912
42562W        W10925   3.857  14.188   2.673
42563W        W10926  44.340  28.471   5.235
42564W        W10927  33.386  31.110  13.927
42565W        W10928   7.397  23.676   4.832
42566W        W10929  35.386  23.103   0.316
42567W        W10930  28.613  17.157   4.660
42568W        W10931  16.161  37.046   1.304
42569W        W10932  18.147  22.210  10.464
42570W        W10933  20.760  25.573  10.412
42571W        W10934  27.514   1.358   1.791
42572W        W10935  24.091  31.545   0.954
42573W        W10936   3.860  31.424  14.314
42574W        W10937  43.405  44.404   1.343
42575W        W10938  13.176  19.663   4.321
42576W        W10939   7.185  39.947   0.280
42577W        W10940  41.911  32.502  14.919
42578W        W10941  23.158  13.126  13.014
42579W        W10942  23.564  29.016   4.266
42580W        W10943  14.249  29.015   3.711
42581W        W10944  25.553  38.397  13.903
42582W        W10945   8.379  33.946  10.948
42583W        W10946  10.193  17.296   4.787
42584W        W10947  18.626  35.907   1.817
42585W        W10948  25.663  43.418  14.910
42586W        W10949  19.071  39.379  12.348
42587W        W10950  26.577   7.204   4.745
42588W        W10951  44.956  12.758  14.912
42589W        W10952  40.412  29.133  10.959
42590W        W10953  40.464   2.865   0.289
42591W        W10954  40.812  24.507  12.904
42592W        W10955  41.788  41.311   3.264
42593W        W10956  13.105  33.896   3.670
42594W        W10957  39.022  19.641  13.994
42595W        W10958  19.694  44.410  11.115
42596W        W10959   8.382  19.095   0.918
42597W        W10960   2.336  13.603   0.405
42598W        W10961  44.477  10.781   4.814
42599W        W10962  25.656  21.589   0.468
42600W        W10963  41.797  39.328  13.035
42601W        W10964  13.656  33.481  11.443
42602W        W10965  30.092  16.626   0.925
42603W        W10966  37.927  42.495  11.099
42604W        W10967  31.455   8.861   1.243
42605W        W10968  32.076  10.154  13.504
42606W        W10969  16.786  13.840   2.221
42607W        W10970  26.013  16.274  11.075
42608W        W10971  42.408   8.782   0.959
42609W        W10972  12.784  40.903  13.040
42610W        W10973  32.519   2.383   4.311
42611W        W10974   5.799  29.529  12.413
42612W        W10975  40.494  27.510  13.919
42613W        W10976   1.882  23.234  13.423
42614W        W10977   2.240  40.027   1.314
42615W        W10978  29.538  10.345   0.432
42616W        W10979  42.506  13.203   2.230
42617W        W10980  39.337   6.247   4.190
42618W        W10981   9.820  32.619   4.706
42619W        W10982  21.111  18.264  11.858
42620W        W10983  30.537  40.904   3.233
42621W        W10984  42.931  29.581   5.243
42622W        W10985  11.662  17.304   1.434
42623W        W10986  29.612  34.588  10.414
42624W        W10987  44.410  18.136  12.863
42625W        W10988  32.954   6.817  11.076
42626W        W10989   1.354   5.398  13.472
42627W        W10990  19.729  39.031   4.632
42628W        W10991  36.357   2.806   1.904
42629W        W10992  24.973  31.592   2.849
42630W        W10993  24.061  41.922   0.413
42631W        W10994   3.239  44.274  13.027
42632W        W10995  23.548  14.616  11.087
42633W        W10996   0.823  15.706   4.178
42634W        W10997  18.105  29.027   2.809
42635W        W10998  25.165  20.207   1.306
42636W        W10999  39.319  12.855   0.385
42637W        W11000  36.065  10.191   3.315
42638W        W11001   8.174   5.367   3.173
42639W        W11002  21.602  38.930   9.966
42640W        W11003  21.060  11.839  13.328
42641W        W11004  14.315  31.099   4.838
42642W        W11005  24.723  12.335  12.861
42643W        W11006  38.963  27.946   1.855
42644W        W11007  30.057   5.377   2.776
42645W        W11008  42.013   1.445   2.865
42646W        W11009  22.127   3.831  12.037
42647W        W11010  19.763  23.526  11.449
42648W        W11011  23.597  13.232   0.764
42649W        W11012  27.514   7.196  12.498
42650W        W11013   4.336  24.125   1.787
42651W        W11014  38.415  41.537  13.808
42652W        W11015  41.533   2.447   4.115
42653W        W11016  21.667  26.152   0.406
42654W        W11017  17.064  34.914   5.178
42655W        W11018  11.184  30.519  10.549
42656W        W11019  31.141  42.891   9.982
42657W        W11020  25.981  13.180  13.339
42658W        W11021   3.768  22.695  11.910
42659W        W11022  39.010  12.702  12.341
42660W        W11023   1.362  11.150   1.914
42661W        W11024  28.935  26.018  13.858
42662W        W11025  32.391  29.537   4.251
42663W        W11026  11.277  22.644  10.924
42664W        W11027  42.988  42.416  13.939
42665W        W11028   2.935   1.365   1.876
42666W        W11029   5.406   0.897  12.455
42667W        W11030   5.698   6.780  11.951
42668W        W11031   9.169  29.990  12.385
42669W        W11032  37.079  21.569  12.831
42670W        W11033  32.931   8.169   1.346
42671W        W11034  24.550  40.387  11.917
42672W        W11035  17.630  26.043  10.588
42673W        W11036  42.327   1.944   0.778
42674W        W11037  36.869   7.787  12.414
42675W        W11038  19.739   0.409   3.150
42676W        W11039  32.019   1.889   1.422
42677W        W11040  34.114  31.141   3.192
42678W        W11041  32.036  25.099  10.644
42679W        W11042   2.923   6.347  13.493
42680W        W11043  19.619  42.496  11.515
42681W        W11044   4.239  26.203   4.122
42682W        W11045  12.177  11.779   3.294
42683W        W11046  37.579  43.874  13.028
42684W        W11047  36.471  31.502  10.518
42685W        W11048  14.331   3.814  10.043
42686W        W11049  28.971  24.216   3.162
42687W        W11050  23.208  34.566   2.801
42688W        W11051  23.024  21.149   0.884
42689W        W11052  12.306  38.955  12.359
42690W        W11053   8.325   7.408  11.418
42691W        W11054  15.257  36.537  13.873
42692W        W11055  39.542   1.288   4.831
42693W        W11056   7.736  16.772   0.728
42694W        W11057  33.094  40.542  14.842
42695W        W11058   4.224   6.248  14.295
42696W        W11059  10.786  39.491   0.281
42697W        W11060  15.649  12.699  14.470
42698W        W11061  20.111  27.670  13.427
42699W        W11062   2.457  23.062   9.940
42700W        W11063  39.440   3.734  12.076
42701W        W11064  34.465  41.379   0.243
42702W        W11065   6.223  44.264   2.664
42703W        W11066  30.537  43.382  11.022
42704W        W11067  18.740  13.342  13.976
42705W        W11068  34.032  43.349  12.405
42706W        W11069  20.536  14.275   1.423
42707W        W11070  26.011  17.210   4.749
42708W        W11071  32.463  21.067   1.284
42709W        W11072   3.323  14.173   2.311
42710W        W11073   2.747  44.323   2.901
42711W        W11074  37.542  10.282   0.913
42712W        W11075  29.634  40.417  11.012
42713W        W11076  13.793  32.393   0.376
42714W        W11077  22.068  22.704  11.890
42715W        W11078  39.546   0.745  11.979
42716W        W11079  14.307  13.799   1.435
42717W        W11080  34.391  31.956   1.819
42718W        W11081  33.101   6.183   1.374
42719W        W11082  14.238   5.745  11.048
42720W        W11083  38.457  20.629   4.223
42721W        W11084  10.696  38.986  14.424
42722W        W11085  32.567  19.657   4.669
42723W        W11086  16.717   5.906  11.609
42724W        W11087  23.495  25.491   0.456
42725W        W11088  44.944   9.694   2.703
42726W        W11089  31.937   3.337  14.775
42727W        W11090   4.412  16.581   2.859
42728W        W11091  18.701  11.679  10.542
42729W        W11092   5.817  11.219  12.980
42730W        W11093  43.901  32.987  14.839
42731W        W11094  15.821  21.672  12.951
42732W        W11095  37.004   1.360  10.898
42733W        W11096  29.611   9.679   2.295
42734W        W11097  23.610  22.172   1.826
42735W        W11098  39.431  43.942  13.334
42736W        W11099   3.818  42.447  13.017
42737W        W11100  17.657   7.752  12.992
42738W        W11101  13.168   9.829  12.952
42739W        W11102  22.232  44.459   4.597
42740W        W11103  18.077   7.406   0.273
42741W        W11104  34.506  35.578   3.335
42742W        W11105  19.681   2.955  14.463
42743W        W11106  44.941   0.952   0.729
42744W        W11107  30.155  38.477  12.373
42745W        W11108  13.604  16.659   3.302
42746W        W11109   5.751  27.000  12.357
42747W        W11110  20.086  22.582  12.479
42748W        W11111   9.316  23.010   3.741
42749W        W11112   3.824  40.487  11.911
42750W        W11113   2.783  32.987  14.778
42751W        W11114   4.237  19.590  12.862
42752W        W11115  17.128  20.274   4.803
42753W        W11116  20.525   8.777  14.293
42754W        W11117  20.078  37.509  13.911
42755W        W11118   8.721  18.705  12.030
42756W        W11119   8.389  28.523   1.360
42757W        W11120  25.202  43.357  13.517
42758W        W11121   1.732  26.993   3.694
42759W        W11122  21.527   0.426  10.993
42760W        W11123   5.288  41.528  11.076
42761W        W11124  22.154   0.301   2.890
42762W        W11125  21.031  15.329  13.020
42763W        W11126  19.171  14.260   4.134
42764W        W11127   2.890   9.190   3.714
42765W        W11128  34.055  18.243   0.451
42766W        W11129  20.254  21.117   3.214
42767W        W11130   8.206  31.615  14.507
42768W        W11131   4.255   6.390   2.687
42769W        W11132  19.562  29.505  10.895
42770W        W11133  30.456  28.153   0.955
42771W        W11134  36.582   8.776   5.206
42772W        W11135  42.405   0.491   0.887
42773W        W11136   6.415  30.459   0.920
42774W        W11137  28.450   5.226  10.585
42775W        W11138  12.164  13.796  10.618
42776W        W11139  34.059  16.131   3.285
42777W        W11140   8.329   6.805  14.855
42778W        W11141   7.902   6.389  11.014
42779W        W11142  41.819  44.331  11.457
42780W        W11143  42.314  39.486   4.311
42781W        W11144  16.729   6.251   0.742
42782W        W11145  39.470  11.359  11.486
42783W        W11146   4.870  36.072  10.082
42784W        W11147  21.692  18.142   4.792
42785W        W11148  44.498  40.940  12.859
42786W        W11149  18.561  41.519   1.775
42787W        W11150  39.477  13.203  10.454
42788W        W11151  12.617   8.767  12.045
42789W        W11152  41.526  30.565   4.791
42790W        W11153  13.277  25.965   4.763
42791W        W11154  40.826  17.275  12.504
42792W        W11155  29.097  24.706   4.312
42793W        W11156  12.732  38.552  14.340
42794W        W11157  35.452  35.511  12.364
42795W        W11158  29.541  12.351  12.036
42796W        W11159   1.445   0.451   3.790
42797W        W11160   8.786  43.831  14.759
42798W        W11161  34.982  33.524  10.627
42799W        W11162  37.035  15.199  14.806
42800W        W11163   3.752  14.640   2.350
42801W        W11164   8.273   9.812  11.986
42802W        W11165  10.142  24.164  14.786
42803W        W11166  27.961  36.020  12.863
42804W        W11167  22.138  32.462   0.296
42805W        W11168   0.855   0.988  13.511
42806W        W11169  13.766  16.147   4.625
42807W        W11170   6.346   7.408  10.544
42808W        W11171  18.748  25.074  11.514
42809W        W11172  39.477  24.639   0.747
42810W        W11173  16.613  28.661  11.019
42811W        W11174   0.397  38.357  11.389
42812W        W11175  40.805  41.948  11.567
42813W        W11176  22.184   1.899  13.794
42814W        W11177  36.991  34.933   4.712
42815W        W11178  21.611  16.732   3.286
42816W        W11179  41.526  22.061  13.011
42817W        W11180  20.029  43.363   2.285
42818W        W11181   0.347  15.760  12.955
42819W        W11182  11.772  17.662   0.770
42820W        W11183  23.121  39.037  13.509
42821W        W11184  11.348  39.057   3.223
42822W        W11185  19.682  26.463   4.237
42823W        W11186  16.085   6.835  12.971
42824W        W11187  33.880  14.605  12.070
42825W        W11188  37.831  38.411  14.317
42826W        W11189  37.451  40.996  11.110
42827W        W11190   4.285  13.317  11.514
42828W        W11191  11.859  20.567  13.004
42829W        W11192  42.408  14.612  14.855
42830W        W11193  24.531  34.882   2.715
42831W        W11194   4.320  29.664  11.071
42832W        W11195  22.084  16.618   4.765
42833W        W11196  29.631  10.666  11.102
42834W        W11197  23.614   7.379  14.442
42835W        W11198  35.517  43.490  11.390
42836W        W11199  20.563  36.478   3.200
42837W        W11200  37.501  20.720  10.451
42838W        W11201  27.471  28.643  13.345
42839W        W11202   3.862   6.877   2.230
42840W        W11203   2.848   9.767  11.453
42841W        W11204  31.606   7.252  12.033
42842W        W11205  19.756  33.078   3.315
42843W        W11206   5.729  30.459   1.802
42844W        W11207   3.780  33.913  11.577
42845W        W11208   4.239  25.089   3.689
42846W        W11209   7.417  12.274   3.335
42847W        W11210  26.957  29.446   4.740
42848W        W11211  11.857  36.073   0.449
42849W        W11212  40.006   8.210   3.678
42850W        W11213  27.006  44.274   0.286
42851W        W11214   7.407  14.749   1.242
42852W        W11215  12.614  27.538  11.009
42853W        W11216  32.595  17.670   2.215
42854W        W11217  21.541  34.982   4.230
42855W        W11218   2.790  44.761   1.318
42856W        W11219  28.034   4.726  14.391
42857W        W11220  17.176   8.895  12.081
42858W        W11221  11.770  38.346   1.873
42859W        W11222  25.217  33.437  13.902
42860W        W11223  42.345   7.792   2.354
42861W        W11224  26.025  29.046  13.961
42862W        W11225   0.771  26.503  14.303
42863W        W11226  32.132   9.650  14.876
42864W        W11227  24.652  28.972  11.542
42865W        W11228   9.220  13.184   1.237
42866W        W11229   6.682  32.978  10.962
42867W        W11230   8.185  39.968  12.465
42868W        W11231   4.799   2.262   4.687
42869W        W11232  25.642   7.361  13.319
42870W        W11233   3.884  32.496   0.931
42871W        W11234  38.503  26.536  14.925
42872W        W11235  43.361  28.147  14.970
42873W        W11236  39.406  14.725  12.998
42874W        W11237  37.516   3.222  13.397
42875W        W11238  30.007  24.098  12.576
42876W        W11239  27.448  23.690   2.669
42877W        W11240  33.997  30.916  13.539
42878W        W11241  21.641  23.694   0.325
42879W        W11242  16.807  15.664  13.404
42880W        W11243  14.175  16.651   9.990
42881W        W11244  30.917  23.074  13.379
42882W        W11245  31.920   5.813   1.225
42883W        W11246   8.339  40.492  14.934
42884W        W11247   8.774  24.021   0.776
42885W        W11248  42.501  43.860   4.264
42886W        W11249  16.788  32.044   3.304
42887W        W11250   8.888  12.218   3.777
42888W        W11251  26.988  37.954   0.473
42889W        W11252  43.467  33.599   0.278
42890W        W11253   9.167  22.563   3.672
42891W        W11254  19.270  29.589  13.999
42892W        W11255  11.722  43.449  10.495
42893W        W11256  20.137  44.414   3.744
42894W        W11257   4.342   9.777   2.199
42895W        W11258  33.081  31.468  14.862
42896W        W11259  32.127  22.682  10.911
42897W        W11260   4.727   6.252   2.184
42898W        W11261  43.870  29.072   0.268
42899W        W11262  41.963  33.043   4.718
42900W        W11263  41.297  16.677   4.243
42901W        W11264  30.526  29.544   4.285
42902W        W11265  10.258  10.769   1.727
42903W        W11266  23.665  40.378  11.904
42904W        W11267  12.809   8.707   4.301
42905W        W11268   5.201  21.710   2.353
42906W        W11269  40.532  32.985  14.024
42907W        W11270  29.074  35.380  12.851
42908W        W11271  25.012  17.701   0.412
42909W        W11272  31.446   3.343   1.929
42910W        W11273  33.068  13.662   1.412
42911W        W11274  10.773  30.076   4.654
42912W        W11275  15.671  15.812   3.189
42913W        W11276   3.285   7.192  10.123
42914W        W11277   7.211  31.134   0.414
42915W        W11278   7.380  21.674   0.914
42916W        W11279  24.107  44.433  10.577
42917W        W11280   3.251  23.544  14.411
42918W        W11281   1.303  31.600  13.465
42919W        W11282  35.993   2.918  11.876
42920W        W11283  17.596  37.870  11.024
42921W        W11284  14.685  38.968  14.439
42922W        W11285  15.588  38.962   4.332
42923W        W11286  25.113  13.207  12.010
42924W        W11287   3.871  24.202   3.634
42925W        W11288  38.507  30.913  13.022
42926W        W11289  40.439  15.606   0.436
42927W        W11290   1.370  16.731  12.535
42928W        W11291  29.081  25.558   1.237
42929W        W11292  43.348  25.628  14.797
42930W        W11293  30.532  10.256   9.953
42931W        W11294   5.394  39.341   3.317
42932W        W11295  37.442  21.051  11.107
42933W        W11296  10.303  27.630  13.879
42934W        W11297  28.532   6.725   4.789
42935W        W11298  27.597  14.231  12.465
42936W        W11299   1.967  16.078  12.858
42937W        W11300   5.220  41.985   4.634
42938W        W11301   0.962  11.144  11.387
42939W        W11302  43.013   8.724   5.285
42940W        W11303  27.545  14.311  13.813
42941W        W11304  16.676   3.865  10.930
42942W        W11305  42.312  19.256   4.191
42943W        W11306  24.613  41.429   2.349
42944W        W11307  22.081   5.203   3.331
42945W        W11308  37.867  28.498   4.672
42946W        W11309  33.446  18.625  10.597
42947W        W11310  19.042  16.139   3.162
42948W        W11311  17.723  21.580  12.522
42949W        W11312  23.535  34.946  10.460
42950W        W11313   6.796  43.333  14.011
42951W        W11314  32.074  13.261  10.571
42952W        W11315  21.662  22.603  14.393
42953W        W11316  37.840  20.196  12.978
42954W        W11317  40.472  11.331   2.853
42955W        W11318  26.093  29.612   3.680
42956W        W11319  11.317  33.519   2.898
42957W        W11320  41.871  18.763  13.955
42958W        W11321  21.521  12.811  14.334
42959W        W11322  15.137   2.921   2.692
42960W        W11323  44.491  20.096   1.845
42961W        W11324  33.074   5.359  13.326
42962W        W11325   0.989   3.287  11.425
42963W        W11326  15.314  13.172   4.770
42964W        W11327  33.619   8.220  13.851
42965W        W11328  27.618  14.171  11.017
42966W        W11329  38.947  15.687  10.444
42967W        W11330  40.498   5.410  14.301
42968W        W11331   7.834  37.525  12.481
42969W        W11332  21.668  29.561  12.571
42970W        W11333  16.231  14.294   5.245
42971W        W11334  23.059  16.317  11.098
42972W        W11335  37.360  32.075   1.724
42973W        W11336  32.409   7.257  11.545
42974W        W11337   4.736  23.607  10.445
42975W        W11338  32.029  35.426   4.631
42976W        W11339  40.861  14.690   1.242
42977W        W11340  42.929  17.688  14.314
42978W        W11341  26.507  25.986   9.978
42979W        W11342   2.368  32.626   3.200
42980W        W11343  21.046  33.875  13.543
42981W        W11344  33.620  18.705  11.963
42982W        W11345   2.310  42.472  14.436
42983W        W11346  10.802  11.686   0.384
42984W        W11347   9.216  19.112   4.181
42985W        W11348  43.773  31.951  13.037
42986W        W11349  29.013  29.440  12.407
42987W        W11350   4.217  27.079   1.904
42988W        W11351  27.564  21.028   2.367
42989W        W11352  23.725  30.164   2.783
42990W        W11353  38.427   6.809  11.479
42991W        W11354   7.289   4.902   3.325
42992W        W11355  17.576  25.604  11.031
42993W        W11356  39.321   9.252   2.261
42994W        W11357  38.985  21.553   3.769
42995W        W11358  40.507  16.281   4.825
42996W        W11359  35.525  38.497  11.570
42997W        W11360  33.537  32.110  11.946
42998W        W11361  28.990  39.405  10.615
42999W        W11362  15.674  16.183   2.379
43000W        W11363  39.372  14.104   3.749
43001W        W11364  41.994  33.511  13.899
43002W        W11365  20.201  14.306  12.937
43003W        W11366  19.229  28.942   0.331
43004W        W11367  20.611   5.338  14.025
43005W        W11368  26.015  42.826   3.148
43006W        W11369  34.003   8.857  14.827
43007W        W11370  25.701   1.348  13.431
43008W        W11371  10.377   5.868   3.802
43009W        W11372   0.919   0.331   4.199
43010W        W11373  17.637  23.984  13.931
43011W        W11374  16.136  28.638   1.900
43012W        W11375   3.426  36.911  11.576
43013W        W11376  14.605   7.411  14.909
43014W        W11377  16.208  25.713   1.777
43015W        W11378  42.979  27.461  14.912
43016W        W11379  23.148  16.224   2.179
43017W        W11380   1.393   4.785  14.953
43018W        W11381  32.430   0.268  14.807
43019W        W11382  14.672  37.494   4.281
43020W        W11383  27.053  40.545   3.295
43021W        W11384   6.761  32.961   0.287
43022W        W11385  15.676  40.343  12.494
43023W        W11386  40.450  25.036   0.330
43024W        W11387   6.801   8.288   0.795
43025W        W11388  16.728  36.528  14.402
43026W        W11389  37.897  15.800   0.733
43027W        W11390  21.211  16.576  13.998
43028W        W11391  42.961  20.174  13.451
43029W        W11392  34.889  44.282   1.752
43030W        W11393   3.930  42.519   0.415
43031W        W11394  16.743  43.823  14.868
43032W        W11395   5.912  35.886   1.262
43033W        W11396   9.824  42.863  13.826
43034W        W11397  28.152   9.281  13.804
43035W        W11398  30.609  21.658  12.096
43036W        W11399  17.732  24.600   2.771
43037W        W11400   6.821   7.308  11.050
43038W        W11401  40.515  29.459  14.032
43039W        W11402  34.454   2.901   1.303
43040W        W11403  37.945  16.136  10.969
43041W        W11404  38.841  36.373  13.366
43042W        W11405  23.999  15.322  11.073
43043W        W11406  12.241  37.476   5.300
43044W        W11407  20.551  14.660  10.911
43045W        W11408  16.570  26.626  14.484
43046W        W11409  43.498  43.848  13.995
43047W        W11410  44.774  27.154  13.467
43048W        W11411   7.860   6.844   4.259
43049W        W11412  28.643  35.108   2.851
43050W        W11413  38.427   4.724  13.336
43051W        W11414  32.038  15.762  11.867
43052W        W11415   2.391   9.651  11.613
43053W        W11416  31.994  20.742   2.196
43054W        W11417  31.452   9.848   0.362
43055W        W11418  18.119   0.290  13.529
43056W        W11419  11.771  41.798   2.755
43057W        W11420   2.832  16.718  11.056
43058W        W11421  32.139   1.424  12.448
43059W        W11422  32.562  20.232  11.374
43060W        W11423  15.805  39.869   3.640
43061W        W11424  28.604  38.326   3.205
43062W        W11425  15.233  32.026  10.954
43063W        W11426  25.664  33.568   2.403
43064W        W11427  11.252  32.138  10.498
43065W        W11428  28.180  29.169   9.980
43066W        W11429  20.557  20.635   3.197
43067W        W11430  32.622  31.554   3.840
43068W        W11431  27.077  14.597   2.308
43069W        W11432  16.793  11.677   2.335
43070W        W11433  33.614  17.094   5.143
43071W        W11434  41.492  33.893   2.757
43072W        W11435  12.785  17.070   3.269
43073W        W11436   9.326  18.622  12.492
43074W        W11437  26.067   7.801   1.259
43075W        W11438  38.424  33.082   1.370
43076W        W11439  27.962   9.157   3.867
43077W        W11440  14.674  35.080  10.563
43078W        W11441  34.609  13.799   4.837
43079W        W11442  20.232   7.836  13.870
43080W        W11443  44.298  40.054   3.145
43081W        W11444  34.593  28.975  11.054
43082W        W11445   4.330  26.192  12.879
43083W        W11446  18.130   9.363  13.979
43084W        W11447   8.749  27.518   3.776
43085W        W11448  19.090  23.241   2.209
43086W        W11449   8.765  21.167   1.868
43087W        W11450  23.652  13.669   4.150
43088W        W11451  24.713  32.515   1.729
43089W        W11452  22.198  26.508  13.497
43090W        W11453  29.625  42.355  12.577
43091W        W11454  16.170   1.905  13.061
43092W        W11455  26.663  39.927   3.258
43093W        W11456  36.423  11.166  13.983
43094W        W11457  11.761  16.256  12.061
43095W        W11458  11.709  22.096  11.887
43096W        W11459  20.180  21.716   3.735
43097W        W11460  12.708  36.026  10.588
43098W        W11461  14.192  43.932   3.726
43099W        W11462   3.942   9.267  10.892
43100W        W11463  30.614   4.751  14.942
43101W        W11464  18.780  13.738   2.366
43102W        W11465  18.082   9.232  14.806
43103W        W11466  36.028  37.926  13.498
43104W        W11467  14.775  38.077   2.902
43105W        W11468  23.629  32.484  14.993
43106W        W11469  24.664   6.918   0.896
43107W        W11470  13.702  41.451  12.854
43108W        W11471  21.255   5.847   3.291
43109W        W11472   1.286  14.318   1.258
43110W        W11473  31.150  14.196   4.240
43111W        W11474  39.346  13.698   3.172
43112W        W11475  31.074  21.653   0.247
43113W        W11476  19.092   8.197  12.361
43114W        W11477  34.461  41.411  12.052
43115W        W11478  40.472  10.163   1.752
43116W        W11479  43.867  24.017  11.404
43117W        W11480   9.842  35.473   0.783
43118W        W11481  30.497  19.667   3.159
43119W        W11482   1.975  15.205  13.454
43120W        W11483  18.687   7.900   3.315
43121W        W11484  40.461  36.430  13.404
43122W        W11485  27.588  34.916  12.429
43123W        W11486  27.452  31.051   4.680
43124W        W11487  22.158  37.955  14.374
43125W        W11488  38.377  25.676   1.245
43126W        W11489  43.911  21.224   0.869
43127W        W11490   6.327  20.208  13.909
43128W        W11491  34.495  33.593   3.732
43129W        W11492  30.003   0.783  10.901
43130W        W11493  20.629  12.278  14.029
43131W        W11494  15.666  44.303  11.936
43132W        W11495   3.874  38.394  13.895
43133W        W11496  35.501  16.303  11.465
43134W        W11497   8.757   5.717   1.861
43135W        W11498  25.467   7.385   4.294
43136W        W11499  15.768  20.689  13.902
43137W        W11500  39.922   6.801  12.579
43138W        W11501  43.891  34.577   5.679
43139W        W11502   7.884  11.307  11.971
43140W        W11503   8.871   5.206   2.721
43141W        W11504  25.528  21.746  13.545
43142W        W11505  11.140  12.823  12.962
43143W        W11506   1.848   9.244  12.467
43144W        W11507   1.817  15.260   4.747
43145W        W11508  15.275   3.892  12.944
43146W        W11509  44.400  13.610   3.240
43147W        W11510  25.202  12.815   0.475
43148W        W11511  20.590  10.837   2.242
43149W        W11512   3.738  33.527   2.386
43150W        W11513  17.771  43.912   0.302
43151W        W11514  19.594  33.993   4.825
43152W        W11515   4.704  40.949  13.531
43153W        W11516  15.742  42.801  14.781
43154W        W11517  36.418   0.465   0.827
43155W        W11518  42.414  23.026   0.899
43156W        W11519  43.884  18.753   1.250
43157W        W11520   5.733  37.918   2.414
43158W        W11521  14.285  23.160  11.405
43159W        W11522  34.441  35.520  12.429
43160W        W11523  11.258  32.608   4.742
43161W        W11524  11.642   9.250   1.793
43162W        W11525  10.779  23.544  11.932
43163W        W11526  15.320  44.387  14.901
43164W        W11527  24.180  29.471  13.370
43165W        W11528  41.025  21.081  12.049
43166W        W11529  18.663  15.656  10.982
43167W        W11530  30.490  34.106  10.587
43168W        W11531  33.061  19.174   3.315
43169W        W11532   6.213   6.303   1.849
43170W        W11533  20.587   5.229   4.323
43171W        W11534  26.066  20.219   3.285
43172W        W11535  17.163  38.921   4.649
43173W        W11536   5.741  32.904   3.764
43174W        W11537  15.316   6.801   2.844
43175W        W11538   5.194   1.470   3.208
43176W        W11539  21.020  15.664   4.243
43177W        W11540  25.975  43.856  13.399
43178W        W11541  32.998  16.569   0.372
43179W        W11542   0.978   7.207   4.196
43180W        W11543   3.323   8.734  13.796
43181W        W11544  34.485  41.040   1.698
43182W        W11545  35.569   7.719  13.894
43183W        W11546   5.330  28.000   2.696
43184W        W11547  32.014   3.218   3.343
43185W        W11548  41.022  32.118  13.511
43186W        W11549   9.876  22.693  14.355
43187W        W11550  13.805   7.692  12.839
43188W        W11551   3.868  21.262  13.898
43189W        W11552   3.873  12.752  12.559
43190W        W11553  17.202  39.911  10.912
43191W        W11554   6.885  38.398  12.900
43192W        W11555  14.821  34.372  12.429
43193W        W11556  43.438  34.980   5.692
43194W        W11557  12.730   2.963  13.968
43195W        W11558   8.319   3.798   0.391
43196W        W11559  44.807   1.864  12.386
43197W        W11560  39.451  43.394   1.702
43198W        W11561  16.598   6.356   4.286
43199W        W11562   2.431  31.034  11.601
43200W        W11563   9.189  27.988  10.967
43201W        W11564   7.875  33.583   0.883
43202W        W11565  17.566  30.027   1.879
43203W        W11566  23.601  25.157  11.986
43204W        W11567   3.945  10.783   4.737
43205W        W11568  10.282  27.566  12.890
43206W        W11569  23.111  25.014  12.826
43207W        W11570  11.200  12.684  13.902
43208W        W11571  20.132  20.135   1.346
43209W        W11572   0.266  15.099   1.292
43210W        W11573  17.209  40.991   3.248
43211W        W11574  17.590   5.281   0.408
43212W        W11575  25.151  20.065  13.005
43213W        W11576  42.792  11.718   3.786
43214W        W11577  14.129  40.355   3.762
43215W        W11578  27.067  17.198  10.448
43216W        W11579  10.297  32.108  14.870
43217W        W11580   9.767  43.339  10.614
43218W        W11581  18.211  11.686   3.631
43219W        W11582  25.669  31.443   0.824
43220W        W11583  44.756  26.167   1.238
43221W        W11584  25.561   6.797  10.516
43222W        W11585  37.364   2.967  13.830
43223W        W11586  27.974  31.442   1.417
43224W        W11587  30.530  24.076  13.827
43225W        W11588  35.552  24.052  12.573
43226W        W11589  22.071  23.713  12.952
43227W        W11590  32.542  14.113  10.564
43228W        W11591  39.978   1.310  11.490
43229W        W11592  25.094   8.173   3.731
43230W        W11593  35.853  35.047   1.260
43231W        W11594   6.856  21.099   2.826
43232W        W11595   7.218  40.809   1.377
43233W        W11596  14.338   2.410   0.936
43234W        W11597  32.543  22.164   1.872
43235W        W11598  25.656  21.251   3.679
43236W        W11599   2.357  42.300  13.340
43237W        W11600  44.310  44.794   3.226
43238W        W11601  32.981  23.573  12.961
43239W        W11602  28.013  30.545  12.352
43240W        W11603  33.421  33.392  14.359
43241W        W11604  35.036  44.378  13.010
43242W        W11605  34.919   1.792  10.410
43243W        W11606   3.886  34.448  13.451
43244W        W11607   5.885  26.147  14.508
43245W        W11608  39.507   2.934   3.302
43246W        W11609  39.373   2.378  11.589
43247W        W11610   9.362  24.661  13.905
43248W        W11611  17.296  29.138  13.966
43249W        W11612  42.827  44.287   4.691
43250W        W11613  38.386  34.608  12.858
43251W        W11614   9.341  15.677   0.333
43252W        W11615   4.891  37.018  13.895
43253W        W11616  23.001  38.402   3.826
43254W        W11617  33.614  12.244   0.860
43255W        W11618  35.982  25.208   3.197
43256W        W11619  26.600  21.154   3.375
43257W        W11620  25.620  31.480  12.348
43258W        W11621  16.726   6.242   2.901
43259W        W11622  32.991  17.556   0.381
43260W        W11623   9.741   9.708  14.021
43261W        W11624  31.578   0.450   4.647
43262W        W11625   9.843  19.107   2.888
43263W        W11626  23.070  11.759  13.367
43264W        W11627   4.815  37.003   4.755
43265W        W11628  17.162  18.642  12.091
43266W        W11629  35.972  29.600   2.418
43267W        W11630  37.446  38.934  10.587
43268W        W11631  30.500  37.019  12.080
43269W        W11632   4.237   7.407  11.003
43270W        W11633   4.842  12.717  10.598
43271W        W11634   0.960  38.508   1.696
43272W        W11635   3.911  35.421  10.978
43273W        W11636  22.619   3.273   1.430
43274W        W11637   1.731  21.653  14.798
43275W        W11638  30.080  43.923   3.861
43276W        W11639  11.149  27.190   3.669
43277W        W11640  10.685  26.194   1.925
43278W        W11641  12.300   0.977  12.830
43279W        W11642  21.104   4.879  14.396
43280W        W11643  43.941  44.919   4.675
43281W        W11644  25.646  32.081  14.403
43282W        W11645  18.129  34.057   1.872
43283W        W11646   4.883  31.014  11.434
43284W        W11647   6.329  27.543   0.774
43285W        W11648  18.087  43.969  10.051
43286W        W11649   3.406  18.682   3.785
43287W        W11650   0.484  24.521   0.877
43288W        W11651  20.728  30.913  10.515
43289W        W11652  30.489  19.694   4.798
43290W        W11653  12.164   3.389   4.302
43291W        W11654  31.459  38.400   3.185
43292W        W11655  44.887  31.128   1.877
43293W        W11656  38.864  23.116   1.718
43294W        W11657  19.163   0.953  12.511
43295W        W11658   7.703  11.158  11.466
43296W        W11659  29.994   4.272   2.214
43297W        W11660  30.004  13.211  11.971
43298W        W11661   4.266  29.662  13.542
43299W        W11662  41.915   6.750   3.768
43300W        W11663  14.781  17.232  10.516
43301W        W11664  12.699  42.839  11.857
43302W        W11665  43.834  23.150   2.782
43303W        W11666  27.511  17.277   4.335
43304W        W11667  10.806   3.344   4.206
43305W        W11668  16.093  30.437   1.212
43306W        W11669  40.304  31.500   1.281
43307W        W11670  25.086  12.647   2.217
43308W        W11671  34.035  10.142   1.352
43309W        W11672  26.627  18.067  12.355
43310W        W11673  19.753   6.902  10.507
43311W        W11674  24.096  18.651  14.984
43312W        W11675  29.009  41.316   4.623
43313W        W11676   0.412  33.992  11.077
43314W        W11677  42.337  17.613   4.830
43315W        W11678   3.416  42.414   1.435
43316W        W11679  22.658  30.006   3.807
43317W        W11680  41.997  44.889  11.906
43318W        W11681  19.676  37.054   2.217
43319W        W11682  34.984  39.870  12.898
43320W        W11683  31.467  25.694   2.790
43321W        W11684  14.661  38.844   0.952
43322W        W11685  44.382  13.338   3.338
43323W        W11686  39.558   6.256  11.474
43324W        W11687  16.249  30.127  12.002
43325W        W11688  15.187  17.062   4.176
43326W        W11689  31.044   4.894   2.250
43327W        W11690  10.146  41.835   1.280
43328W        W11691  16.306   0.848   3.843
43329W        W11692  22.628  40.515   3.378
43330W        W11693  10.733  37.582   4.724
43331W        W11694  11.838  39.958   4.607
43332W        W11695  10.305  39.919   1.768
43333W        W11696  22.644  16.730  10.917
43334W        W11697  23.731   9.234  12.844
43335W        W11698  36.901  16.276  14.355
43336W        W11699   0.872  22.601  10.494
43337W        W11700  42.365  42.303  13.029
43338W        W11701   8.856  17.205  14.976
43339W        W11702  21.206  21.042   3.372
43340W        W11703  13.351   0.407  13.535
43341W        W11704  41.846  14.731   3.369
43342W        W11705  30.044   9.321  13.797
43343W        W11706  27.027  36.444  11.480
43344W        W11707  17.293  28.578   2.327
43345W        W11708  42.516   3.397   1.890
43346W        W11709   7.314  31.047  13.859
43347W        W11710   5.304  35.109  14.454
43348W        W11711   5.398  20.680  13.984
43349W        W11712  11.151  15.772  10.973
43350W        W11713  38.489  18.574   1.350
43351W        W11714  14.303  13.201   2.257
43352W        W11715  25.591  11.222   3.735
43353W        W11716  37.422   7.404   2.839
43354W        W11717  15.239  26.686   2.189
43355W        W11718  29.142  18.687  13.986
43356W        W11719  34.411  19.735  14.009
43357W        W11720  43.872  10.774  11.893
43358W        W11721  26.637  13.776  12.512
43359W        W11722  10.194  36.051   2.762
43360W        W11723  25.670   1.798  14.963
43361W        W11724  24.016  19.040   0.360
43362W        W11725  40.853  24.181   2.725
43363W        W11726  37.475  35.441  11.097
43364W        W11727  12.747  14.806   3.336
43365W        W11728  42.019  31.542  14.459
43366W        W11729  43.480   2.773  14.803
43367W        W11730  29.118  32.450  13.005
43368W        W11731  13.774  12.205  12.028
43369W        W11732  35.853  37.569   2.197
43370W        W11733   4.892  43.831   0.396
43371W        W11734  20.210  16.718  11.002
43372W        W11735  36.982  31.095   0.832
43373W        W11736  39.891   4.351  13.461
43374W        W11737  32.494  26.666   1.743
43375W        W11738  16.159  44.486   4.792
43376W        W11739   5.767  13.708   3.147
43377W        W11740   6.422   2.260  14.306
43378W        W11741   3.913  33.489  12.474
43379W        W11742  33.986  12.626   2.744
43380W        W11743  23.692  13.712  11.521
43381W        W11744   6.823  33.897   4.296
43382W        W11745   0.407  20.204  13.883
43383W        W11746  24.562  35.072   1.863
43384W        W11747   9.343  34.961   0.464
43385W        W11748  40.516  43.489   4.266
43386W        W11749  15.225  41.431   3.333
43387W        W11750  14.589  10.292  13.470
43388W        W11751  35.551  12.722   4.315
43389W        W11752  14.121  38.963   0.261
43390W        W11753  44.831   0.915   1.441
43391W        W11754  16.632  27.547  11.097
43392W        W11755  13.830  38.913   1.425
43393W        W11756  17.121  30.620   0.772
43394W        W11757  38.438  32.575   4.829
43395W        W11758  22.078  35.965   1.300
43396W        W11759  13.111   3.223   1.872
43397W        W11760  44.812  29.963   0.768
43398W        W11761  35.486  42.365   2.847
43399W        W11762  17.233  11.792  10.407
43400W        W11763   1.915  44.337   2.270
43401W        W11764   8.792   9.750  14.482
43402W        W11765   7.805  27.468   1.872
43403W        W11766  16.119  42.456  13.475
43404W        W11767  38.443  13.254  13.483
43405W        W11768  41.809   3.219  13.399
43406W        W11769   8.287  43.977  10.428
43407W        W11770  36.906  36.880   2.901
43408W        W11771  31.124  33.015   3.317
43409W        W11772  23.592  28.161  11.097
43410W        W11773  26.205   5.718  10.487
43411W        W11774  44.985  18.212  10.949
43412W        W11775  18.148  19.720   0.290
43413W        W11776  36.973  32.953   3.378
43414W        W11777  16.655  43.857  12.054
43415W        W11778  41.967  32.024   1.407
43416W        W11779  16.771  29.124  14.308
43417W        W11780  10.801  39.865  13.941
43418W        W11781  44.852  39.997  10.444
43419W        W11782   8.823  34.370  12.945
43420W        W11783  24.046  35.575   3.760
43421W        W11784  43.864  41.821   1.760
43422W        W11785  17.161  21.025  14.934
43423W        W11786  22.064  27.022   1.231
43424W        W11787  44.805  36.562   3.302
43425W        W11788  11.247  41.789  12.430
43426W        W11789  20.709  33.890   0.874
43427W        W11790  34.904  32.074  11.554
43428W        W11791  11.172  11.218  10.996
43429W        W11792  10.805  36.511   3.275
43430W        W11793   5.243  29.621  11.415
43431W        W11794  28.158   8.831   3.286
43432W        W11795   3.914  24.632   4.733
43433W        W11796  43.377  16.172   0.418
43434W        W11797  14.806   3.405   2.869
43435W        W11798   5.291  27.083  13.813
43436W        W11799  41.887  40.390  12.425
43437W        W11800  26.990   9.720   2.333
43438W        W11801  11.802  32.917  12.409
43439W        W11802   6.846   1.244   1.724
43440W        W11803  32.394   8.282  13.990
43441W        W11804  16.118  35.505   2.418
43442W        W11805  19.765  44.424  10.152
43443W        W11806  13.235  39.046  13.918
43444W        W11807  21.757  38.882  14.463
43445W        W11808  36.369  39.400  11.377
43446W        W11809  35.967  27.573   1.800
43447W        W11810  24.144  12.825  14.478
43448W        W11811   3.800  11.830   0.275
43449W        W11812  42.949  41.411   1.833
43450W        W11813  17.767  41.517   4.133
43451W        W11814   7.721   4.732   3.182
43452W        W11815  21.224  37.958   1.790
43453W        W11816  13.759  39.863   3.738
43454W        W11817   7.251   6.831  13.423
43455W        W11818  29.580  31.032  12.350
43456W        W11819   1.323  33.043  14.026
43457W        W11820  28.670   4.709   2.900
43458W        W11821   1.360  32.965  13.412
43459W        W11822   4.850  25.072  11.417
43460W        W11823   0.357  12.325  12.017
43461W        W11824  18.777  23.626  12.895
43462W        W11825  17.621  44.333  11.964
43463W        W11826  41.917   6.389  10.637
43464W        W11827  40.500  44.783   2.814
43465W        W11828  42.322  31.447   3.325
43466W        W11829  25.991  23.075   2.395
43467W        W11830   3.254  31.497  14.023
43468W        W11831  33.549  12.279  12.844
43469W        W11832  30.468  14.679  11.576
43470W        W11833  16.625  39.919  14.438
43471W        W11834  41.406  21.085  11.567
43472W        W11835  42.935  44.872   4.348
43473W        W11836  37.375  34.422   0.962
43474W        W11837   2.944  29.053  14.836
43475W        W11838  10.824   0.977   0.402
43476W        W11839   1.414  24.975   2.771
43477W        W11840  37.480  31.072   2.880
43478W        W11841  37.470  16.145   0.443
43479W        W11842  14.292  17.649   2.407
43480W        W11843  33.042   4.376   0.936
43481W        W11844  30.493   2.402  13.484
43482W        W11845   0.795  30.511  13.826
43483W        W11846  42.423   2.467   2.272
43484W        W11847   7.808  31.002  12.849
43485W        W11848   1.896  24.188  13.814
43486W        W11849  35.916  22.133  14.911
43487W        W11850  24.699   4.798   2.277
43488W        W11851   6.696  25.210   2.215
43489W        W11852   5.840   0.946   0.280
43490W        W11853  16.174  42.515  11.106
43491W        W11854   2.273  39.939   4.608
43492W        W11855  32.885   2.736  10.968
43493W        W11856   5.333  23.690  14.995
43494W        W11857  25.056  33.954  14.370
43495W        W11858   4.272  23.156  12.511
43496W        W11859  38.845  34.094   3.213
43497W        W11860  11.830  37.477  14.024
43498W        W11861   8.343  25.495   1.360
43499W        W11862  16.126  27.131  14.022
43500W        W11863   7.722  21.186  14.502
43501W        W11864  10.742  22.064  14.483
43502W        W11865   2.921  12.283  13.345
43503W        W11866  42.495   2.456  14.017
43504W        W11867  36.892  14.246   2.787
43505W        W11868   0.282  38.932   2.372
43506W        W11869  24.160   2.455  14.993
43507W        W11870   7.814  12.197  13.844
43508W        W11871  27.514  36.881  12.861
43509W        W11872  15.108  24.978  14.293
43510W        W11873  10.867  24.478   4.139
43511W        W11874   4.754  39.981   3.745
43512W        W11875  17.757  23.993  13.370
43513W        W11876   8.291  13.831   4.267
43514W        W11877   6.691  29.656  11.389
43515W        W11878  26.488  25.216   9.964
43516W        W11879  34.013  31.972   1.718
43517W        W11880   0.867  14.680  10.468
43518W        W11881   2.452  26.561  13.963
43519W        W11882  15.693  23.584   3.659
43520W        W11883  37.564  29.019   4.240
43521W        W11884  33.554  10.187  10.613
43522W        W11885  29.664  32.558   3.749
43523W        W11886  40.940   1.882   0.836
43524W        W11887  24.685  17.775  12.907
43525W        W11888  40.449  16.303   3.771
43526W        W11889  19.630   8.383   2.407
43527W        W11890  28.458  23.013  13.515
43528W        W11891  28.082  40.020  14.028
43529W        W11892  23.063  24.635  13.050
43530W        W11893   9.169   1.791  14.779
43531W        W11894   4.930  29.614   2.330
43532W        W11895   4.891  16.790   3.785
43533W        W11896  28.630  28.118  14.500
43534W        W11897  41.356  33.566   4.822
43535W        W11898  13.699  23.574  10.644
43536W        W11899   7.749  26.032   3.819
43537W        W11900  27.979  25.038   0.948
43538W        W11901  16.280  31.032  12.033
43539W        W11902  38.010   8.213   2.381
43540W        W11903   6.245   6.831   3.668
43541W        W11904  13.168  30.498   2.879
43542W        W11905  41.972   1.802  12.369
43543W        W11906  27.462   4.348   2.764
43544W        W11907   4.911  44.835  10.918
43545W        W11908   9.731  27.452   3.832
43546W        W11909  12.673  16.121  14.390
43547W        W11910  43.018  38.843  11.914
43548W        W11911  33.543  27.156  10.620
43549W        W11912  35.007  19.263  12.014
43550W        W11913  41.896  23.108   4.608
43551W        W11914  14.634  33.540  11.907
43552W        W11915  25.468  18.627  14.994
43553W        W11916  32.476  42.415  11.558
43554W        W11917   0.888  21.205  12.980
43555W        W11918  28.676  42.823   4.781
43556W        W11919   7.336  24.552   2.866
43557W        W11920  16.741  44.958   2.248
43558W        W11921   7.276  20.590  11.027
43559W        W11922   8.798  44.456   3.321
43560W        W11923   6.920  24.008  11.555
43561W        W11924  26.603  15.707   3.290
43562W        W11925  41.920  13.265  13.354
43563W        W11926  16.626   8.167  11.446
43564W        W11927  36.989  14.104  11.560
43565W        W11928  14.640  28.164  13.474
43566W        W11929   2.725  34.004   4.708
43567W        W11930  20.733  19.100   3.784
43568W        W11931  33.398  10.875  12.477
43569W        W11932  37.050   5.749  13.952
43570W        W11933   9.881  39.356  11.489
43571W        W11934   0.341  33.989   2.881
43572W        W11935  25.525  15.601  14.855
43573W        W11936  21.156  22.220  14.881
43574W        W11937  16.777   6.248  14.007
43575W        W11938  17.590  23.167   0.449
43576W        W11939  33.913   7.360   2.234
43577W        W11940  31.430  23.176   4.726
43578W        W11941   1.818  33.033   4.791
43579W        W11942  35.921  23.523   3.349
43580W        W11943  14.727  39.821  11.877
43581W        W11944   5.318  37.898   4.293
43582W        W11945  42.969  30.121   2.325
43583W        W11946  22.597   7.277   2.333
43584W        W11947  38.441  14.161  13.842
43585W        W11948   2.454  18.294   1.782
43586W        W11949  21.724   2.773  12.575
43587W        W11950  37.411  19.088  10.446
43588W        W11951  42.862  27.042  12.443
43589W        W11952  40.887  33.415   1.880
43590W        W11953  23.490  24.004  13.917
43591W        W11954  28.481  32.024  14.316
43592W        W11955   5.840  16.167   3.635
43593W        W11956  44.787   4.289  10.495
43594W        W11957  20.030  36.965   4.812
43595W        W11958  42.990  29.442   1.880
43596W        W11959  11.648  26.516  13.335
43597W        W11960  16.756  34.911  10.917
43598W        W11961   0.862  44.467   2.842
43599W        W11962  41.991   1.794   3.802
43600W        W11963  14.814  42.812  11.900
43601W        W11964  33.492  42.449   3.870
43602W        W11965  36.502   5.195   4.300
43603W        W11966  42.403   5.208   1.934
43604W        W11967   1.777  32.113  10.403
43605W        W11968  10.797   6.798  14.010
43606W        W11969  33.969  34.388  11.387
43607W        W11970  22.665  11.707  10.585
43608W        W11971  19.248  23.552  14.885
43609W        W11972  15.739  42.780   2.339
43610W        W11973   2.736  29.990   3.650
43611W        W11974  33.030  13.634  11.117
43612W        W11975  37.878  38.429  12.001
43613W        W11976   5.737  26.676  13.354
43614W        W11977  36.352  11.627   5.262
43615W        W11978   7.898   9.149   4.725
43616W        W11979  21.121  17.613   3.174
43617W        W11980  18.678  38.929  10.461
43618W        W11981  20.264  21.116  14.868
43619W        W11982   4.209  27.604  11.424
43620W        W11983  17.107  22.717   1.219
43621W        W11984   5.766  31.493   3.306
43622W        W11985  29.538  33.118  14.477
43623W        W11986  36.983  36.034   0.940
43624W        W11987  13.269   0.965   3.705
43625W        W11988  16.648   6.337  13.001
43626W        W11989  25.638  16.158  12.444
43627W        W11990  27.050  29.444   0.921
43628W        W11991  31.619  29.645  10.980
43629W        W11992  33.063  27.157  11.986
43630W        W11993  34.571  43.332  14.766
43631W        W11994  28.018  42.896   0.293
43632W        W11995  13.171  11.697  14.394
43633W        W11996  31.628  18.086  13.461
43634W        W11997   6.407  24.115   4.290
43635W        W11998  23.115   4.323   1.827
43636W        W11999  39.321  14.656  12.417
43637W        W12000  19.647  11.865  13.505
43638W        W12001  27.078  43.950   4.148
43639W        W12002  35.006   6.241   5.158
43640W        W12003  31.128  39.317  11.468
43641W        W12004  10.214  29.590  10.636
43642W        W12005  18.230   0.258   0.899
43643W        W12006  20.156   4.763  10.589
43644W        W12007  27.672  20.573  14.902
43645W        W12008  27.582  23.155   4.346
43646W        W12009  29.434  25.491   2.701
43647W        W12010   6.278  13.272  13.955
43648W        W12011   8.736  14.314   1.227
43649W        W12012   7.398  43.872  11.875
43650W        W12013  29.652  37.995  12.059
43651W        W12014  13.738   6.898  13.308
43652W        W12015  23.673  19.150  13.830
43653W        W12016  17.257  23.230   4.184
43654W        W12017  14.121  23.133  14.977
43655W        W12018  37.432   3.756   0.407
43656W        W12019   0.845  16.191   4.185
43657W        W12020  18.732  16.236  14.469
43658W        W12021  20.062  43.944  13.357
43659W        W12022  24.721  37.996  13.323
43660W        W12023  17.770  13.605  11.877
43661W        W12024   4.274  43.823   1.917
43662W        W12025  28.077  18.737  14.885
43663W        W12026  12.151  21.700   0.415
43664W        W12027  42.401  30.088   3.690
43665W        W12028  13.312  42.908   4.159
43666W        W12029  11.190  44.965   2.708
43667W        W12030  29.069  43.282  13.350
43668W        W12031   0.477   7.826  13.885
43669W        W12032  21.631   3.322   5.224
43670W        W12033  23.102  10.289  13.508
43671W        W12034  23.546   4.308  13.382
43672W        W12035   4.437  32.923  13.433
43673W        W12036  35.011  30.154   4.704
43674W        W12037   6.784  31.113   2.329
43675W        W12038   1.940  41.473  12.373
43676W        W12039  38.563   2.276  11.001
43677W        W12040  28.665  16.224   1.251
43678W        W12041  34.948  11.352   1.407
43679W        W12042  27.190  10.773  14.486
43680W        W12043  42.479  37.029  14.030
43681W        W12044  23.633  37.064   2.360
43682W        W12045   8.339  14.173  11.862
43683W        W12046  24.601  13.825  10.915
43684W        W12047  21.075   4.309   3.196
43685W        W12048  24.624  17.198  14.871
43686W        W12049  34.919  40.404   0.481
43687W        W12050  40.052  30.991  12.368
43688W        W12051  39.951  28.633   2.807
43689W        W12052  19.566  16.314   3.195
43690W        W12053   5.202  36.388   2.680
43691W        W12054   6.357  17.642  13.341
43692W        W12055  14.729  19.172  11.950
43693W        W12056   4.757  44.343   3.771
43694W        W12057  30.156  41.491  12.064
43695W        W12058  23.019   7.763  11.042
43696W        W12059  35.857   1.237  12.524
43697W        W12060  37.838  13.728   1.447
43698W        W12061  35.857  15.658  12.562
43699W        W12062  13.322  42.521  11.445
43700W        W12063  37.035  28.949  13.410
43701W        W12064  24.581   5.695  14.484
43702W        W12065  12.772  35.980  14.398
43703W        W12066  18.222   5.403   3.675
43704W        W12067  42.462  35.998  11.057
43705W        W12068  43.431  31.490   1.274
43706W        W12069  26.073  31.477  13.482
43707W        W12070  44.336  20.607  11.979
43708W        W12071   8.717  20.259   4.174
43709W        W12072   2.240  20.198   3.666
43710W        W12073  28.159  41.815   2.711
43711W        W12074  41.829  42.388   1.842
43712W        W12075  42.879  15.284   1.345
43713W        W12076   2.428  14.280   3.791
43714W        W12077  29.568  12.122   3.684
43715W        W12078  12.784  40.303  13.367
43716W        W12079  16.079  36.500   0.794
43717W        W12080  23.559   3.747  11.567
43718W        W12081  28.569  26.964  12.071
43719W        W12082   6.857  29.039   0.465
43720W        W12083   2.844   5.221  10.421
43721W        W12084  12.234   6.397  10.581
43722W        W12085  14.150  18.568   1.410
43723W        W12086  40.315  32.955   1.235
43724W        W12087  22.653  35.436  11.372
43725W        W12088  31.513  12.154  11.013
43726W        W12089   6.868  18.602   4.679
43727W        W12090  13.172  41.976  14.771
43728W        W12091  18.191   8.282   0.884
43729W        W12092  35.867  40.548  13.307
43730W        W12093   4.342  44.860  13.856
43731W        W12094  18.128  22.204  12.901
43732W        W12095   8.772  12.737  14.513
43733W        W12096  39.427   4.909   3.301
43734W        W12097  25.149  23.665  13.935
43735W        W12098   5.211  16.567   3.157
43736W        W12099  42.831  32.021   1.366
43737W        W12100   2.773  37.578  14.314
43738W        W12101  30.439  20.671  13.979
43739W        W12102  12.739  14.825   0.477
43740W        W12103  18.758  26.568   5.243
43741W        W12104  14.657  41.849   4.639
43742W        W12105  23.668  18.159  14.337
43743W        W12106   4.822  12.141  12.837
43744W        W12107  23.522   7.728  12.569
43745W        W12108  27.124  18.738  14.300
43746W        W12109  38.551  26.642   2.698
43747W        W12110  24.624  38.478  11.534
43748W        W12111   9.809   3.812  12.530
43749W        W12112  38.348  15.719   0.960
43750W        W12113   6.734   4.255   0.734
43751W        W12114   9.791  40.307   0.398
43752W        W12115  31.626  20.079  10.898
43753W        W12116   7.282  14.229   1.803
43754W        W12117   7.845  23.193  14.986
43755W        W12118  37.914  32.439  10.889
43756W        W12119  31.987  36.518  11.035
43757W        W12120  19.602  13.808  14.854
43758W        W12121  14.223   2.958  11.447
43759W        W12122  15.811  12.359   3.725
43760W        W12123  11.352  15.681  12.075
43761W        W12124  40.477  30.546  10.004
43762W        W12125  23.036  43.884   3.646
43763W        W12126   1.351   1.290  11.424
43764W        W12127  32.458  29.101   1.885
43765W        W12128   3.771  20.124   0.299
43766W        W12129  37.348  42.982  13.356
43767W        W12130  28.951   5.899  12.431
43768W        W12131  20.723  12.756   1.243
43769W        W12132   5.876  32.899  14.361
43770W        W12133  23.199   3.369   1.379
43771W        W12134  23.493   3.239  12.085
43772W        W12135  38.568  28.071   1.242
43773W        W12136  23.499  33.888   1.320
43774W        W12137  34.884  12.295  13.796
43775W        W12138  44.469  22.640   4.175
43776W        W12139  14.260  44.894   0.909
43777W        W12140  21.675  19.255   1.341
43778W        W12141  29.539  22.576  11.436
43779W        W12142  25.665   7.730   4.268
43780W        W12143   3.789  42.313  12.376
43781W        W12144  13.728  22.229   3.290
43782W        W12145  34.489  30.471   4.231
43783W        W12146   9.758  42.865   0.450
43784W        W12147   0.763  34.421  14.873
43785W        W12148  21.524  14.653  11.867
43786W        W12149  41.909  10.685   4.181
43787W        W12150  21.146  29.448   3.166
43788W        W12151  14.255  28.972  10.421
43789W        W12152  39.925  21.036  14.428
43790W        W12153   0.286   0.890  13.841
43791W        W12154  11.862  35.468   2.254
43792W        W12155  22.520  12.324   4.349
43793W        W12156   6.406  37.390   4.795
43794W        W12157   0.890   2.864   3.785
43795W        W12158  39.522  35.408   0.865
43796W        W12159  26.005  16.692  11.541
43797W        W12160  10.847  43.892   4.114
43798W        W12161  21.698   6.729  14.386
43799W        W12162  44.853   3.290  10.991
43800W        W12163  23.198  25.011  10.549
43801W        W12164   0.836  14.314   2.702
43802W        W12165  29.053   5.396   0.434
43803W        W12166   1.926  19.236  11.585
43804W        W12167   6.818  42.977   1.257
43805W        W12168  17.583  19.538  13.413
43806W        W12169  42.888  19.139  12.874
43807W        W12170  14.187  28.623   4.702
43808W        W12171  28.001   7.265   0.300
43809W        W12172  21.655   7.328  14.364
43810W        W12173  37.070  40.345  12.380
43811W        W12174  27.454  42.298  10.897
43812W        W12175  22.635  12.840   2.719
43813W        W12176  20.627  34.410   4.164
43814W        W12177  17.115  16.213   3.274
43815W        W12178   6.228   0.803  14.387
43816W        W12179   7.240   6.266  14.867
43817W        W12180  26.604  13.150   3.667
43818W        W12181  16.211   9.829  14.790
43819W        W12182   0.917  20.652   0.262
43820W        W12183  29.984  40.454   3.287
43821W        W12184  14.815  34.374  11.564
43822W        W12185  42.824  40.304   2.700
43823W        W12186  34.950  42.405   1.771
43824W        W12187   9.352   0.872  10.977
43825W        W12188  18.691  10.381  14.345
43826W        W12189  32.430  39.009   0.471
43827W        W12190  17.581   4.934   3.704
43828W        W12191  40.844  30.944  13.980
43829W        W12192  16.218  14.144   4.177
43830W        W12193  26.653   7.361  13.410
43831W        W12194  15.792  43.918  11.459
43832W        W12195  37.930   4.941  14.300
43833W        W12196   6.225   1.358  12.038
43834W        W12197  36.012  25.577  11.598
43835W        W12198   1.448  32.461  14.422
43836W        W12199  35.050  11.723   3.747
43837W        W12200  41.489   9.721   3.315
43838W        W12201  32.952  26.959   2.258
43839W        W12202  24.098  26.010   3.338
43840W        W12203  15.096  40.387  14.325
43841W        W12204  22.101  34.538   2.358
43842W        W12205  22.189   1.874  12.423
43843W        W12206  12.299  39.978  14.981
43844W        W12207  43.272  36.879   1.446
43845W        W12208  31.586   9.218  14.343
43846W        W12209  12.334  42.894  13.863
43847W        W12210  30.996  33.568  10.542
43848W        W12211   5.867  13.302   2.369
43849W        W12212  31.442  24.575   1.309
43850W        W12213  23.122  40.051   3.674
43851W        W12214  30.085  35.047   4.762
43852W        W12215  35.367  29.438   1.327
43853W        W12216  10.780  34.966   4.677
43854W        W12217  31.509  23.102  12.067
43855W        W12218  23.074  39.875  14.288
43856W        W12219   4.850  12.349  10.511
43857W        W12220   2.855  32.952  13.959
43858W        W12221  18.720  43.840  13.831
43859W        W12222  10.756  15.263  13.395
43860W        W12223  15.250  33.938   2.365
43861W        W12224  11.682  20.152  14.776
43862W        W12225  44.288  32.909  14.997
43863W        W12226   7.381  27.472   0.838
43864W        W12227  32.080  20.177   3.745
43865W        W12228  35.027  10.261   4.797
43866W        W12229  26.205  28.522   1.741
43867W        W12230  36.397  42.319   3.679
43868W        W12231   2.324  25.495  10.612
43869W        W12232   3.745  18.162   2.227
43870W        W12233   0.259  17.239  11.051
43871W        W12234  24.021  24.601   2.777
43872W        W12235  10.266  32.616   2.850
43873W        W12236   1.345  14.766  10.432
43874W        W12237  41.905   2.877   2.722
43875W        W12238   7.307  43.490  14.391
43876W        W12239   9.280  42.475  13.855
43877W        W12240   6.884  28.495  11.942
43878W        W12241  18.713  43.276  13.817
43879W        W12242  19.069  31.042   2.417
43880W        W12243  17.640   4.904  14.414
43881W        W12244  26.489   9.297  13.362
43882W        W12245  19.197  17.285  11.898
43883W        W12246  32.479  24.516   2.322
43884W        W12247   6.256  31.117   3.303
43885W        W12248  38.400  37.892  14.485
43886W        W12249   3.457  23.036  14.790
43887W        W12250  26.521   3.956  13.385
43888W        W12251   6.184  43.770   1.241
43889W        W12252  28.484  28.000   0.907
43890W        W12253  33.016   5.331   0.868
43891W        W12254  21.053  39.484  11.542
43892W        W12255  18.086  23.194  11.899
43893W        W12256  36.367  43.456   3.187
43894W        W12257  39.035  33.027   1.324
43895W        W12258   0.888   7.178  13.830
43896W        W12259  28.078   6.290   0.817
43897W        W12260   4.705  26.479   2.234
43898W        W12261   9.367  19.632  12.875
43899W        W12262  44.758  20.614  13.457
43900W        W12263  28.592  42.417   2.689
43901W        W12264   0.842   3.215   5.116
43902W        W12265   8.890  27.142  13.377
43903W        W12266  32.626  14.617  12.375
43904W        W12267   7.870   7.818  13.365
43905W        W12268  36.967  17.247   3.853
43906W        W12269  14.248  16.631   5.670
43907W        W12270  14.597  12.686  10.593
43908W        W12271  16.722   9.196  11.375
43909W        W12272  25.100   3.813  13.030
43910W        W12273  12.660   5.327  11.465
43911W        W12274  23.566   8.234   0.483
43912W        W12275  44.354  12.128   2.294
43913W        W12276   2.953  35.518  10.475
43914W        W12277  32.913  30.142  14.287
43915W        W12278  33.053   6.722   1.758
43916W        W12279  15.102  15.684   3.320
43917W        W12280   4.264  25.087  14.469
43918W        W12281  10.647  21.547   0.938
43919W        W12282   4.885  41.986   4.272
43920W        W12283  24.562  22.706   2.783
43921W        W12284  33.076  21.594   4.701
43922W        W12285  41.506   5.687  13.319
43923W        W12286  17.602  22.020   4.723
43924W        W12287  22.530  24.979  12.356
43925W        W12288  12.129   5.783  12.006
43926W        W12289  11.653  40.921  14.833
43927W        W12290  34.103  29.113  11.873
43928W        W12291  32.451  27.969   2.869
43929W        W12292  19.089  30.473  13.002
43930W        W12293  30.514  39.052  13.945
43931W        W12294  19.254  19.671   2.901
43932W        W12295   4.837  38.071  14.996
43933W        W12296  18.575  21.751   0.847
43934W        W12297  23.142  10.177  14.023
43935W        W12298  15.790  20.534  13.331
43936W        W12299  10.170  44.436  12.084
43937W        W12300  37.527   4.853   5.293
43938W        W12301  11.807  17.154   4.780
43939W        W12302   9.276  34.501   0.373
43940W        W12303   1.977  31.622  11.579
43941W        W12304  25.962  29.587   4.685
43942W        W12305  11.683  35.018  12.943
43943W        W12306  17.154  35.961  14.886
43944W        W12307  23.240   0.425   1.855
43945W        W12308   4.233  22.144  10.551
43946W        W12309  32.553  23.546  10.992
43947W        W12310   7.789  29.139  10.545
43948W        W12311  35.369   2.785  13.489
43949W        W12312  12.665  25.093   2.679
43950W        W12313   4.762  21.196  13.427
43951W        W12314  33.599  26.180  11.948
43952W        W12315  35.402  42.402   4.319
43953W        W12316  22.063   0.958   4.651
43954W        W12317  18.152  34.603  11.114
43955W        W12318  24.583  40.408  14.275
43956W        W12319   6.738  43.923   3.716
43957W        W12320  10.811  28.552   0.333
43958W        W12321  27.986  44.366   1.844
43959W        W12322  21.527  14.760  14.935
43960W        W12323  18.721  13.248   3.851
43961W        W12324  22.581  29.581  13.983
43962W        W12325  36.877  15.246   2.193
43963W        W12326  18.169  31.052  13.888
43964W        W12327   0.933  42.318   1.695
43965W        W12328  39.893  19.673   2.901
43966W        W12329   0.778  19.588  14.412
43967W        W12330  21.143   6.329   0.470
43968W        W12331  40.402  27.962   9.935
43969W        W12332  11.790  20.233   0.923
43970W        W12333  19.774   3.291  10.581
43971W        W12334  18.178  13.344  11.992
43972W        W12335  39.453  43.302  13.387
43973W        W12336  28.050   5.795  10.904
43974W        W12337  42.385   4.815   3.843
43975W        W12338  41.527  12.614  14.303
43976W        W12339  29.066  13.184  14.904
43977W        W12340  33.423  19.060   4.762
43978W        W12341  28.497  43.436  13.387
43979W        W12342  41.969  14.117  12.556
43980W        W12343  32.006  42.472   1.267
43981W        W12344  40.810  13.810  11.507
43982W        W12345  29.548  14.752  13.791
43983W        W12346  29.635  37.896   4.618
43984W        W12347  29.638  41.794  13.963
43985W        W12348  24.142  25.128  12.355
43986W        W12349   1.976  21.255  14.358
43987W        W12350  36.098  24.642  14.927
43988W        W12351   3.711   1.805   4.122
43989W        W12352  23.198   6.878  12.069
43990W        W12353   8.840  43.793   1.290
43991W        W12354  39.054  27.112  11.385
43992W        W12355  40.977  38.442   4.688
43993W        W12356  36.007  15.610  14.889
43994W        W12357  22.571  39.924   0.752
43995W        W12358  42.933  34.373   3.657
43996W        W12359  20.068   9.799   0.426
43997W        W12360  18.785  29.070   3.779
43998W        W12361  27.534  29.648   0.738
43999W        W12362   8.238  24.610   0.783
44000W        W12363  44.958  30.164  12.857
44001W        W12364  20.627  40.346   4.223
44002W        W12365   6.247  33.591  13.042
44003W        W12366  31.578   8.729  12.940
44004W        W12367  33.102  33.912   4.674
44005W        W12368  35.896  13.341   2.781
44006W        W12369  32.515  22.106   2.204
44007W        W12370  22.559  10.184  11.998
44008W        W12371  18.678  11.233   1.430
44009W        W12372  34.539  37.948  12.539
44010W        W12373  26.046   1.789  13.052
44011W        W12374  14.728  26.109   4.656
44012W        W12375  34.002  40.833  14.758
44013W        W12376   8.723  30.968   4.760
44014W        W12377  42.011  28.525   1.279
44015W        W12378  19.565   8.311   0.912
44016W        W12379  20.261   2.917  12.056
44017W        W12380  34.077  12.821   2.360
44018W        W12381   4.385  41.516  13.432
44019W        W12382  10.815  36.408   1.829
44020W        W12383   0.392  11.274   4.816
44021W        W12384  15.667  41.866   1.361
44022W        W12385  33.544  39.035  14.921
44023W        W12386  37.936  26.561   3.831
44024W        W12387  18.713  26.633  12.043
44025W        W12388  25.186   6.428   4.790
44026W        W12389  43.884  12.715   0.891
44027W        W12390  41.788  11.315  14.007
44028W        W12391  35.044  30.944  13.379
44029W        W12392  40.405   3.454   1.744
44030W        W12393   3.216  31.542  12.980
44031W        W12394  33.572  23.603   4.733
44032W        W12395  12.814  21.140  10.890
44033W        W12396  40.383  17.220   2.723
44034W        W12397  41.874  12.699   0.380
44035W        W12398   9.644  15.173   1.352
44036W        W12399   7.818  33.404   0.406
44037W        W12400  23.240  21.721   1.745
44038W        W12401  35.552  18.661  12.939
44039W        W12402  36.545  16.777  14.500
44040W        W12403  17.208  18.059   2.747
44041W        W12404  42.790  21.578  11.481
44042W        W12405  16.638  25.506  14.860
44043W        W12406  17.229   6.790  11.433
44044W        W12407  40.032  19.228  13.349
44045W        W12408  40.838   2.893   2.734
44046W        W12409  32.546   2.263   2.238
44047W        W12410   1.843  21.521   5.245
44048W        W12411  38.429  23.203  12.032
44049W        W12412  24.723  29.960  11.559
44050W        W12413  26.659  20.759  13.933
44051W        W12414   3.805  20.665   3.146
44052W        W12415   6.891   4.209  11.959
44053W        W12416  26.179  44.768   4.737
44054W        W12417  33.979   8.318   4.821
44055W        W12418   3.718   0.287  14.980
44056W        W12419   4.395  24.480  13.899
44057W        W12420  36.884   3.423   0.410
44058W        W12421  32.992  43.472  13.806
44059W        W12422  44.847  31.136  12.031
44060W        W12423  32.410  41.811   4.662
44061W        W12424  25.121  30.095  14.289
44062W        W12425  15.579  21.688   4.620
44063W        W12426   7.190  28.109  14.496
44064W        W12427  12.701   4.858  10.066
44065W        W12428  18.272  38.380  11.453
44066W        W12429  34.518  44.306   4.741
44067W        W12430   6.907  16.754   0.750
44068W        W12431  12.299  36.401  10.505
44069W        W12432  36.489  28.619  10.432
44070W        W12433  42.866  24.554  14.885
44071W        W12434  22.237  19.203   4.149
44072W        W12435  25.005  29.563  10.640
44073W        W12436   9.231   5.423  13.376
44074W        W12437  17.126   1.413  14.516
44075W        W12438  16.739  33.564   2.830
44076W        W12439  32.898  33.089  10.454
44077W        W12440  34.379  15.615   3.190
44078W        W12441  33.050  31.444  11.491
44079W        W12442  29.009  16.680  14.388
44080W        W12443  42.486  15.739   1.836
44081W        W12444  16.250  37.954   0.732
44082W        W12445  30.999  33.909  11.043
44083W        W12446  22.585  36.017  14.008
44084W        W12447   0.961  36.442   2.782
44085W        W12448  30.934   1.938   0.880
44086W        W12449  33.390  41.918   2.299
44087W        W12450  14.208  38.361  12.077
44088W        W12451  35.070   9.783  11.587
44089W        W12452  41.946  17.558   3.148
44090W        W12453  36.527  43.871   0.924
44091W        W12454   1.444  44.946  13.845
44092W        W12455  37.084   2.273  10.921
44093W        W12456  15.743  22.613  13.977
44094W        W12457  19.624  40.011   3.146
44095W        W12458  28.026  13.750   5.644
44096W        W12459  14.596   7.396   0.864
44097W        W12460  29.447  36.006  12.952
44098W        W12461  33.437   2.288   2.272
44099W        W12462   9.774   7.221   1.284
44100W        W12463  18.745  33.579  11.905
44101W        W12464   5.226  23.701  11.023
44102W        W12465  39.532   0.371  13.918
44103W        W12466  14.198  15.293   0.246
44104W        W12467  30.146   1.353   1.254
44105W        W12468  21.153  12.666   3.347
44106W        W12469  44.387  10.280   1.862
44107W        W12470  28.567  37.491   1.893
44108W        W12471   9.726  43.307   2.221
44109W        W12472  10.365  29.970  14.310
44110W        W12473  35.100  34.417   3.254
44111W        W12474  37.336  16.146  14.783
44112W        W12475  16.259  36.461  13.970
44113W        W12476   8.759   4.938  13.314
44114W        W12477  10.304  16.767   4.159
44115W        W12478  11.356  21.232  10.913
44116W        W12479  30.944  20.565  14.449
44117W        W12480  10.153  15.632   1.723
44118W        W12481  21.145   2.805   0.364
44119W        W12482  22.530  22.657  12.941
44120W        W12483  27.177  41.905   4.222
44121W        W12484  39.461   5.716  10.492
44122W        W12485  40.826  23.622   4.671
44123W        W12486  13.234  15.242   3.321
44124W        W12487  33.421  29.114   3.691
44125W        W12488  41.868   2.861  11.576
44126W        W12489  35.073   9.182  10.893
44127W        W12490  11.295  32.959  13.548
44128W        W12491  20.608  39.059   4.354
44129W        W12492  41.825  27.458  14.902
44130W        W12493  13.833  44.884   1.902
44131W        W12494  36.402  10.256   5.146
44132W        W12495   5.908  10.248  11.055
44133W        W12496  39.451   1.287   2.255
44134W        W12497  30.123  25.186   4.207
44135W        W12498  27.126   4.775  10.033
44136W        W12499  17.625  34.120   1.228
44137W        W12500   1.923  32.429   4.715
44138W        W12501  18.708   9.888  12.912
44139W        W12502   4.303  36.491  11.581
44140W        W12503  28.585  42.354  13.522
44141W        W12504  31.548  27.026  10.603
44142W        W12505  28.125  15.294   3.639
44143W        W12506  30.138  14.720  13.523
44144W        W12507  38.397  15.164  11.032
44145W        W12508  10.185  35.524   3.293
44146W        W12509  29.566  42.982   4.195
44147W        W12510  23.049  30.927  12.975
44148W        W12511  44.332  34.435   2.385
44149W        W12512  27.136  37.438   0.376
44150W        W12513  36.363  10.812   2.269
44151W        W12514  28.593  14.144   2.820
44152W        W12515  28.963  26.528   1.244
44153W        W12516   5.338  43.932   4.180
44154W        W12517  23.717  20.136   3.850
44155W        W12518  41.368  27.633  13.332
44156W        W12519  28.147  19.714  10.496
44157W        W12520  33.877   4.345  13.968
44158W        W12521  19.071   7.356   1.700
44159W        W12522  13.287  32.004  12.851
44160W        W12523  31.593   3.951  13.977
44161W        W12524  32.975   6.904  12.077
44162W        W12525  22.120  22.674   3.805
44163W        W12526  40.423  40.952   2.852
44164W        W12527   6.738  20.736   0.415
44165W        W12528   9.235  36.359   2.825
44166W        W12529  37.889  34.593  12.968
44167W        W12530  13.164  22.561  14.443
44168W        W12531  32.457  27.669   2.818
44169W        W12532   6.833   0.835  12.062
44170W        W12533   8.802  11.729  13.323
44171W        W12534   2.758  10.248  11.014
44172W        W12535  15.148  11.696  13.840
44173W        W12536  17.620  21.241   1.868
44174W        W12537  25.050   1.794   3.640
44175W        W12538  34.576  16.311  14.981
44176W        W12539  43.303  30.063   3.686
44177W        W12540  23.675  23.147   2.288
44178W        W12541  22.606  25.063   3.849
44179W        W12542  39.419  33.897  10.406
44180W        W12543   0.775  22.592  14.306
44181W        W12544  20.223  28.012   5.108
44182W        W12545  20.705  22.047  14.330
44183W        W12546   6.746  38.049  13.548
44184W        W12547   0.743  15.292   3.719
44185W        W12548  34.902  11.266  11.556
44186W        W12549  15.242  32.094  12.519
44187W        W12550  34.940  11.625   1.792
44188W        W12551  43.397  20.719  14.345
44189W        W12552  13.228  33.515   3.696
44190W        W12553  27.979  24.533  14.985
44191W        W12554  36.872  39.465   4.207
44192W        W12555  43.869  29.634   1.299
44193W        W12556  18.637   3.269   3.754
44194W        W12557  36.556   9.216   0.323
44195W        W12558  42.308   0.948   4.837
44196W        W12559  14.654   4.827  13.498
44197W        W12560  14.293   3.908  12.356
44198W        W12561  41.858   0.257   0.925
44199W        W12562  22.161  37.869  10.925
44200W        W12563  15.281  19.579   1.407
44201W        W12564   0.782  34.983   4.695
44202W        W12565  43.450  26.581   2.734
44203W        W12566   8.360  37.478  10.607
44204W        W12567  37.986  32.990  12.960
44205W        W12568  18.757   9.234  12.544
44206W        W12569   2.758  16.287   3.315
44207W        W12570   3.225  42.354  12.017
44208W        W12571  16.710  23.109  11.035
44209W        W12572  15.722  38.025  10.908
44210W        W12573  26.528  29.473   3.337
44211W        W12574  43.289  35.947   3.232
44212W        W12575  16.308  12.793   0.449
44213W        W12576  28.490  10.269  14.880
44214W        W12577  37.927   1.307  13.423
44215W        W12578  27.162  26.470  11.579
44216W        W12579  12.160  13.144  10.926
44217W        W12580  42.378  12.269  14.879
44218W        W12581  22.045  22.527   4.153
44219W        W12582  30.929  34.500  14.434
44220W        W12583  31.940   8.257   4.238
44221W        W12584   9.176  14.787   2.704
44222W        W12585   2.460  18.642  12.366
44223W        W12586  26.002  21.158  14.924
44224W        W12587  23.653  16.636   0.467
44225W        W12588  19.779  33.999  12.023
44226W        W12589   5.929  19.550  14.949
44227W        W12590  12.800   8.363   3.713
44228W        W12591  44.775  28.553   0.830
44229W        W12592  38.418  19.539  13.465
44230W        W12593  36.361  10.820  11.496
44231W        W12594   2.782   3.379   1.758
44232W        W12595  18.124  28.503   3.311
44233W        W12596  27.649   9.879   0.259
44234W        W12597  37.537   5.386   4.832
44235W        W12598   6.899  33.596   4.217
44236W        W12599  33.455  15.086   0.875
44237W        W12600  29.518  13.641  11.894
44238W        W12601  35.430  42.033  14.890
44239W        W12602   5.825  41.460  12.043
44240W        W12603  42.412   5.894   4.204
44241W        W12604  14.628  32.092  13.443
44242W        W12605  29.528  44.316  14.393
44243W        W12606  15.244  22.731   2.840
44244W        W12607  41.833  25.612   3.184
44245W        W12608  16.769   2.816   1.809
44246W        W12609  22.136  19.120  13.537
44247W        W12610  35.912  22.222   0.726
44248W        W12611   9.176  30.454  12.492
44249W        W12612  41.923   1.431   3.743
44250W        W12613   1.255  11.370   3.337
44251W        W12614  40.396  32.417   2.759
44252W        W12615   3.908   1.926   4.809
44253W        W12616  39.829  39.911   3.718
44254W        W12617  29.488  24.594   4.138
44255W        W12618  35.057  20.547  11.435
44256W        W12619  33.415   8.862  13.493
44257W        W12620   1.460  35.525  13.399
44258W        W12621  40.871   4.363   2.724
44259W        W12622   9.315   4.421   3.775
44260W        W12623  16.228  37.530  12.015
44261W        W12624  29.030  22.247   0.909
44262W        W12625  12.292  42.991   4.325
44263W        W12626   2.858  12.805   3.635
44264W        W12627   1.919  16.114  11.931
44265W        W12628  25.094  14.686   0.858
44266W        W12629  25.667  17.292  13.999
44267W        W12630  33.589  42.286  13.459
44268W        W12631  38.488   4.765  11.065
44269W        W12632  30.644   2.750  11.093
44270W        W12633  13.231  19.584  10.987
44271W        W12634   9.671  32.574   0.956
44272W        W12635  36.558   3.940   0.903
44273W        W12636   6.290  39.849  12.008
44274W        W12637  31.586  29.981   1.842
44275W        W12638  38.446  11.769  11.476
44276W        W12639  15.189  23.000  10.629
44277W        W12640   8.344  20.079  12.925
44278W        W12641  34.871  42.025   3.695
44279W        W12642  41.020   6.791   3.281
44280W        W12643  22.164   7.787   1.410
44281W        W12644  14.126  40.025   0.823
44282W        W12645  32.071  21.210   2.794
44283W        W12646  34.418  23.727   4.307
44284W        W12647   6.809  35.042  14.909
44285W        W12648  22.610  32.008  14.838
44286W        W12649   0.817  24.527  12.958
44287W        W12650  40.825  25.587   0.301
44288W        W12651  30.048   3.740   4.780
44289W        W12652   0.959   9.659   3.339
44290W        W12653  11.707  26.018   2.200
44291W        W12654  11.169   0.299   3.164
44292W        W12655  38.894  27.594  13.959
44293W        W12656  38.466  27.150   2.304
44294W        W12657  35.913   3.311  13.019
44295W        W12658   3.291  22.686   1.295
44296W        W12659  28.940  42.916  14.415
44297W        W12660  27.988  40.917   4.311
44298W        W12661   0.858  26.102   4.675
44299W        W12662  27.126  28.467  13.522
44300W        W12663  10.797   1.279   1.911
44301W        W12664  26.681   4.784   2.897
44302W        W12665  22.146  32.537  12.825
44303W        W12666  17.792  25.100   3.755
44304W        W12667  28.027  25.688  14.431
44305W        W12668  10.324   2.336   3.198
44306W        W12669   6.271  35.072  13.952
44307W        W12670  14.709  14.728  12.381
44308W        W12671   4.260   8.218  11.475
44309W        W12672   5.756  42.850   2.234
44310W        W12673  33.440   7.312  14.847
44311W        W12674  17.691  37.834  12.880
44312W        W12675  16.577  25.055   3.867
44313W        W12676   7.669  17.282   3.646
44314W        W12677  10.299  31.403  11.994
44315W        W12678   0.979   4.900   1.435
44316W        W12679   3.454   1.332   5.289
44317W        W12680  13.169  25.536   0.739
44318W        W12681  40.835  11.706  12.075
44319W        W12682  43.339  29.475  11.030
44320W        W12683  44.290  36.050   0.955
44321W        W12684   1.796  23.645   2.193
44322W        W12685   5.365  33.995   0.778
44323W        W12686  28.124  24.196   2.219
44324W        W12687   6.309   6.382  14.939
44325W        W12688  42.375  28.560  14.892
44326W        W12689  29.977  31.137  11.048
44327W        W12690  24.563  19.641   0.931
44328W        W12691  28.486   3.878  12.494
44329W        W12692   3.390  19.088  10.993
44330W        W12693   5.744  18.288   2.232
44331W        W12694  44.945  29.962  10.457
44332W        W12695  34.402  21.250  12.073
44333W        W12696  21.666  14.822   3.309
44334W        W12697  32.943   5.794   3.756
44335W        W12698  28.441  18.647  14.778
44336W        W12699   4.899   4.440   0.825
44337W        W12700  21.651  14.102   2.212
44338W        W12701   1.948  17.062   4.227
44339W        W12702   7.356  42.883   0.800
44340W        W12703  25.667  30.093   2.208
44341W        W12704  16.666  41.850  11.435
44342W        W12705  13.789  20.148  14.884
44343W        W12706  15.769  27.581   4.746
44344W        W12707  22.021  38.467   1.257
44345W        W12708   0.372   9.876   4.178
44346W        W12709  20.041  42.337   5.722
44347W        W12710   2.896  11.155   0.898
44348W        W12711   0.897  22.531   3.727
44349W        W12712  31.949  21.710   2.181
44350W        W12713  10.730  17.187  10.568
44351W        W12714   5.400  13.614  14.382
44352W        W12715  24.223   2.313  12.084
44353W        W12716  35.490  24.003  11.490
44354W        W12717  28.996  22.547   4.810
44355W        W12718  21.096  18.157  12.956
44356W        W12719  17.705  32.574  10.440
44357W        W12720  34.506  10.320  14.396
44358W        W12721   4.383  14.294   5.177
44359W        W12722  33.947  22.528   0.288
44360W        W12723  43.452  13.716   3.759
44361W        W12724  13.626  10.842  12.865
44362W        W12725  20.677  40.020  12.923
44363W        W12726  23.066  16.568   3.766
44364W        W12727   0.471   2.251  11.592
44365W        W12728  17.205  20.178  13.868
44366W        W12729   3.299  21.180  13.005
44367W        W12730  34.424  28.184   1.435
44368W        W12731  26.548  16.641   2.224
44369W        W12732  18.603  23.040   4.311
44370W        W12733  13.714   5.304   2.243
44371W        W12734  35.483  43.011  13.403
44372W        W12735  30.492  30.547   5.133
44373W        W12736   7.333   8.711   0.822
44374W        W12737  38.051  13.260   9.617
44375W        W12738  42.484  19.740   4.618
44376W        W12739  33.553  25.485  12.851
44377W        W12740  17.178  23.513   4.218
44378W        W12741  29.131  21.720   1.823
44379W        W12742  37.969  41.433   0.294
44380W        W12743   3.286  29.994  10.608
44381W        W12744  26.103  30.418  10.534
44382W        W12745  36.383  38.547  13.445
44383W        W12746  28.015  37.847  13.946
44384W        W12747  35.903  25.171  12.078
44385W        W12748  15.784  32.549  12.431
44386W        W12749  36.072  26.153   4.630
44387W        W12750  40.456  38.915   9.959
44388W        W12751   1.935  27.073   4.137
44389W        W12752   7.223  25.181  14.886
44390W        W12753  44.910  12.346  14.864
44391W        W12754  37.410  37.475   0.455
44392W        W12755  30.607   5.854  10.558
44393W        W12756  32.925  28.004   4.313
44394W        W12757   1.390  13.787  12.076
44395W        W12758   6.347   4.940  11.975
44396W        W12759  13.293   3.854   5.113
44397W        W12760  12.776   7.667   4.340
44398W        W12761  30.471  30.003   3.801
44399W        W12762  14.231  34.092   3.819
44400W        W12763  23.693  14.630   3.174
44401W        W12764   0.429  43.422  13.913
44402W        W12765  11.713  32.964   4.747
44403W        W12766  34.080  19.619  11.447
44404W        W12767  11.700  12.698  12.475
44405W        W12768   8.834  31.041   2.414
44406W        W12769  31.899   3.298  13.936
44407W        W12770  36.926  18.549   2.810
44408W        W12771  24.199   5.430  14.983
44409W        W12772  39.933   7.713   0.746
44410W        W12773  23.227  26.608  14.442
44411W        W12774  39.046  40.437  10.059
44412W        W12775  37.413  13.783  14.026
44413W        W12776  27.150  21.558  14.505
44414W        W12777  38.511  17.278  11.605
44415W        W12778  22.573  37.354  11.454
44416W        W12779   0.417   2.793  11.489
44417W        W12780  40.892  14.663   3.305
44418W        W12781  36.955  40.464  14.462
44419W        W12782  31.405  24.998   3.333
44420W        W12783   1.407  28.152  12.512
44421W        W12784  21.669  29.467  11.098
44422W        W12785  27.675   1.427   3.311
44423W        W12786  10.171  14.716  11.541
44424W        W12787  39.967   4.714   0.891
44425W        W12788   4.221  22.538  13.795
44426W        W12789   4.910  23.198   3.271
44427W        W12790  38.378  34.064  14.996
44428W        W12791  16.775  41.521  13.483
44429W        W12792  43.769  43.516   2.882
44430W        W12793  34.378  30.598  13.505
44431W        W12794   9.193  21.177  10.559
44432W        W12795   8.194   0.272  14.370
44433W        W12796  39.015  14.124  10.984
44434W        W12797  33.457  41.820  11.477
44435W        W12798   3.808   3.326  10.981
44436W        W12799  26.466  16.157   9.945
44437W        W12800  22.709  19.184  13.994
44438W        W12801  11.847  20.722  11.572
44439W        W12802  12.324  16.637   4.664
44440W        W12803  34.400  29.984  12.524
44441W        W12804  35.447  42.427  10.627
44442W        W12805  15.718  35.060   0.899
44443W        W12806   8.825  36.931  11.953
44444W        W12807  25.216  44.446   2.211
44445W        W12808   0.946  11.641  12.355
44446W        W12809  25.966  26.149  14.006
44447W        W12810   1.316  16.153  13.930
44448W        W12811  25.643   5.919   4.226
44449W        W12812  40.421  16.079  11.926
44450W        W12813  17.676  37.490   4.236
44451W        W12814  19.065  14.277   0.857
44452W        W12815  20.159  25.483  12.438
44453W        W12816  36.056  36.882  10.423
44454W        W12817  22.594   9.849  13.883
44455W        W12818  25.541  10.784   0.331
44456W        W12819  19.100   7.227  12.995
44457W        W12820  23.521   1.295  11.533
44458W        W12821  33.426   0.290   2.703
44459W        W12822   5.318  35.982   3.307
44460W        W12823  40.924  41.861   2.683
44461W        W12824  39.527  23.554  14.910
44462W        W12825   3.794  26.167   2.274
44463W        W12826  42.975  39.404   1.697
44464W        W12827  44.945  30.059  14.413
44465W        W12828  24.035   2.915   0.757
44466W        W12829  35.862  29.553   3.307
44467W        W12830  12.127  38.031   1.321
44468W        W12831  26.062   3.448   0.300
44469W        W12832  43.922  23.703  13.513
44470W        W12833  26.194  16.123   0.782
44471W        W12834  39.375  11.207   3.319
44472W        W12835  19.132  11.210   3.364
44473W        W12836  13.313  44.293   3.804
44474W        W12837   6.405  22.060   1.257
44475W        W12838  35.515  37.442  13.468
44476W        W12839  20.554  40.316  11.984
44477W        W12840  31.905  33.594   5.144
44478W        W12841   7.792  39.035  13.033
44479W        W12842  30.634  42.380  10.447
44480W        W12843  39.321  16.667   3.713
44481W        W12844  30.105  24.578  11.096
44482W        W12845  21.551  17.065  12.010
44483W        W12846   6.814  11.707  11.426
44484W        W12847  28.123  37.548  14.940
44485W        W12848  41.524  25.492  11.076
44486W        W12849   2.294   8.824  11.481
44487W        W12850  39.366  44.400  13.532
44488W        W12851  29.495  36.434  11.128
44489W        W12852   6.749  11.250   1.212
44490W        W12853  27.196  30.006  12.557
44491W        W12854  32.576  13.727   1.252
44492W        W12855  19.671   2.738  14.778
44493W        W12856  27.126   8.320   2.387
44494W        W12857  44.435   8.746   3.824
44495W        W12858  30.989  29.480   0.342
44496W        W12859  38.466  33.393  12.548
44497W        W12860  31.565  44.913  13.970
44498W        W12861  19.672   4.287  12.865
44499W        W12862  37.838   0.967  12.502
44500W        W12863  38.406  40.465  12.897
44501W        W12864  12.707  33.011  12.526
44502W        W12865   1.959   6.304   4.737
44503W        W12866  42.477  35.508  11.049
44504W        W12867  14.609  25.187  13.464
44505W        W12868  34.438   1.872   2.275
44506W        W12869  38.361  30.478   1.864
44507W        W12870  14.224  17.799   4.172
44508W        W12871  14.793  29.586   0.805
44509W        W12872  36.954   3.420  11.058
44510W        W12873  36.897  11.344   4.680
44511W        W12874  37.917  38.456  13.453
44512W        W12875  28.475  44.490   3.822
44513W        W12876  11.348  17.609   4.659
44514W        W12877   2.829  43.769   5.093
44515W        W12878  14.692  15.747  12.009
44516W        W12879   0.432  29.445   2.314
44517W        W12880  41.488  33.433  11.413
44518W        W12881  28.591  10.725   0.919
44519W        W12882   7.758   0.746  12.024
44520W        W12883   9.381  22.090   0.932
44521W        W12884  42.890  32.464  12.050
44522W        W12885  12.739  26.479   1.217
44523W        W12886  28.615  37.982  12.871
44524W        W12887  30.636  15.797   1.386
44525W        W12888   4.361  27.178   4.244
44526W        W12889  11.650  15.113   3.228
44527W        W12890  30.985   1.463   3.751
44528W        W12891   2.926   3.256  11.035
44529W        W12892  22.999  34.100  14.475
44530W        W12893  20.588   3.765  13.966
44531W        W12894  44.937   0.486   2.289
44532W        W12895  10.841  37.925   4.198
44533W        W12896  27.662   2.846  11.453
44534W        W12897   4.425  33.574  14.794
44535W        W12898  26.101  13.156  13.840
44536W        W12899   4.854  24.142  14.927
44537W        W12900  17.718  20.126  14.017
44538W        W12901   9.704  14.794   4.637
44539W        W12902  14.233   6.679  12.569
44540W        W12903  33.926  12.650  11.441
44541W        W12904  29.468  37.575   4.785
44542W        W12905  37.990  33.980   2.896
44543W        W12906  29.618  19.231  14.937
44544W        W12907   3.305   3.223  11.011
44545W        W12908  31.593   0.806   4.199
44546W        W12909  14.237  34.473  14.907
44547W        W12910  15.667   4.340   0.941
44548W        W12911  12.176  21.569   1.710
44549W        W12912  35.068  42.879  13.033
44550W        W12913  34.005  20.196  13.992
44551W        W12914  19.631  21.590  11.033
44552W        W12915   4.940  32.504  13.345
44553W        W12916  11.202  20.169  13.448
44554W        W12917  31.100  33.915   3.185
44555W        W12918  22.073   5.268  14.389
44556W        W12919  15.328  44.437   0.476
44557W        W12920  32.474  12.355  11.956
44558W        W12921  15.612   2.406  10.481
44559W        W12922  41.507  18.727  12.564
44560W        W12923  43.936  19.168   1.762
44561W        W12924   8.308   8.760   2.280
44562W        W12925  21.056  43.927   4.780
44563W        W12926  36.040   6.811  12.093
44564W        W12927  32.629  37.488   0.301
44565W        W12928  41.377  39.971  12.067
44566W        W12929   5.852   9.685  12.493
44567W        W12930  24.134  33.559  11.594
44568W        W12931  40.349  29.454  10.486
44569W        W12932   8.168  21.040  13.832
44570W        W12933  33.570  36.038   4.256
44571W        W12934  40.038  25.487  11.092
44572W        W12935   4.419  21.233   3.363
44573W        W12936  26.993  19.120  11.406
44574W        W12937  25.125  35.969   2.860
44575W        W12938  28.038   9.214   4.184
44576W        W12939  28.155  23.691   1.790
44577W        W12940  13.204   1.949   0.874
44578W        W12941  43.852   3.782  11.960
44579W        W12942  34.867   3.248   2.406
44580W        W12943  30.464   3.932  12.372
44581W        W12944  35.583   7.261   1.404
44582W        W12945  15.767  38.435  12.911
44583W        W12946  43.869  12.258   4.291
44584W        W12947  34.026  31.024  12.907
44585W        W12948  11.755   1.328  13.395
44586W        W12949  37.963   7.753  11.475
44587W        W12950  15.172  26.100   1.288
44588W        W12951  21.732  23.538  14.944
44589W        W12952  10.856  15.210   1.276
44590W        W12953  38.963  16.216  12.835
44591W        W12954  42.375  41.997   2.239
44592W        W12955  18.604  16.602  10.461
44593W        W12956  27.169  39.328   2.719
44594W        W12957  19.149  31.467  12.829
44595W        W12958  30.431  12.357   3.198
44596W        W12959   2.769   3.829  11.068
44597W        W12960  40.937  32.394  13.812
44598W        W12961  37.360  31.407   3.215
44599W        W12962  27.514  14.675   3.650
44600W        W12963  14.761  35.098  14.346
44601W        W12964   9.183  18.717  10.467
44602W        W12965  21.532  44.865  11.586
44603W        W12966  24.692  12.293  10.899
44604W        W12967  31.980  25.022   2.258
44605W        W12968  41.537  24.623  14.330
44606W        W12969   3.736  37.365   1.899
44607W        W12970  25.219  26.655   2.801
44608W        W12971  21.719  16.215  11.532
44609W        W12972  26.149  41.829  11.472
44610W        W12973  43.943  21.619  14.481
44611W        W12974  40.386  33.030   0.892
44612W        W12975  13.726  36.094   1.814
44613W        W12976  31.647  40.814  10.999
44614W        W12977   0.361   6.879  14.471
44615W        W12978  22.657   9.328  14.390
44616W        W12979  21.173  41.392   0.483
44617W        W12980  36.080   0.359  11.506
44618W        W12981  13.134  19.703  13.494
44619W        W12982  25.196  38.848  12.935
44620W        W12983  25.983  20.170  11.128
44621W        W12984  44.313  40.973   4.714
44622W        W12985  22.745  22.114   1.291
44623W        W12986  33.390  24.191   3.755
44624W        W12987  34.872  20.576  10.987
44625W        W12988   7.786  20.235  12.085
44626W        W12989  25.508  16.313  12.069
44627W        W12990  12.641  37.426   3.322
44628W        W12991   1.372  19.042   3.835
44629W        W12992   9.284  33.586  12.501
44630W        W12993  17.751  18.150   4.735
44631W        W12994  18.235  37.904  12.040
44632W        W12995  20.632  34.582   0.878
44633W        W12996  19.089  42.469  14.447
44634W        W12997  10.753   5.920   4.163
44635W        W12998  22.123  10.748   4.352
44636W        W12999  44.913  35.078  13.977
44637W        W13000  38.909  17.247   4.800
44638W        W13001   2.838   6.727   1.348
44639W        W13002  38.902  37.541  12.010
44640W        W13003  10.304  15.631   3.643
44641W        W13004  14.804  35.516   0.451
44642W        W13005  27.564   2.258  11.603
44643W        W13006  38.411  20.760  13.029
44644W        W13007  10.220   2.256   5.263
44645W        W13008   7.371  23.189   0.818
44646W        W13009  31.551  40.427  14.891
44647W        W13010   0.984  44.317  12.847
44648W        W13011  24.696  41.806   1.708
44649W        W13012   2.963  35.399  14.873
44650W        W13013  26.176  17.798   1.893
44651W        W13014   2.273   7.362  12.442
44652W        W13015   9.336  28.550   0.816
44653W        W13016  32.009  18.623   5.304
44654W        W13017   9.716   8.789   4.228
44655W        W13018  20.765  37.899   2.672
44656W        W13019   1.327   6.759  12.089
44657W        W13020  26.580   3.325  12.024
44658W        W13021   6.186  33.433  11.072
44659W        W13022  33.501  43.402  12.499
44660W        W13023  35.073  16.195   2.267
44661W        W13024   5.877  29.043  13.017
44662W        W13025  11.202  28.942   1.297
44663W        W13026  42.442  35.951   2.395
44664W        W13027  13.797  41.043   0.942
44665W        W13028  25.187   5.228   4.243
44666W        W13029  20.157  27.601  12.504
44667W        W13030  41.809  21.151   4.329
44668W        W13031  26.116   2.917   2.837
44669W        W13032   5.850   6.778   4.153
44670W        W13033  42.455  38.963   3.680
44671W        W13034  34.922  28.562  10.580
44672W        W13035  10.207  31.111  13.815
44673W        W13036  44.863  40.397   4.695
44674W        W13037  22.646  11.850  13.007
44675W        W13038  34.424  24.066   3.265
44676W        W13039   6.697  18.707  11.989
44677W        W13040   0.273  27.547  13.452
44678W        W13041  38.471   4.449  14.884
44679W        W13042  17.736  11.336  11.958
44680W        W13043  26.685  22.230  13.387
44681W        W13044  20.715  41.384  10.572
44682W        W13045  14.268  17.764   4.764
44683W        W13046  22.594  31.971  13.992
44684W        W13047  17.563  36.070   1.309
44685W        W13048  28.183  34.593   3.729
44686W        W13049  28.101  35.602   0.343
44687W        W13050  19.125  37.476  10.934
44688W        W13051  44.331  20.112   3.261
44689W        W13052  20.106  29.065  10.427
44690W        W13053  36.573   0.476  10.422
44691W        W13054   8.677  33.507  12.018
44692W        W13055  44.334  15.762   0.923
44693W        W13056  12.249  28.587  12.043
44694W        W13057   3.759   1.311   1.779
44695W        W13058  31.981  20.633   3.340
44696W        W13059  32.606   9.253   3.854
44697W        W13060  33.534  25.510  12.451
44698W        W13061  16.731   4.716   3.681
44699W        W13062   4.258  22.040   2.261
44700W        W13063  43.315  40.831   4.809
44701W        W13064  31.603  33.393   2.292
44702W        W13065  31.494   6.838   3.160
44703W        W13066   5.407  11.177   4.693
44704W        W13067  12.825  22.167   0.963
44705W        W13068  35.481  28.510  12.919
44706W        W13069  36.508  33.934  12.446
44707W        W13070  36.929  12.742   0.946
44708W        W13071  39.373  10.660  14.982
44709W        W13072  33.589   6.283  11.933
44710W        W13073  17.272  20.551   4.838
44711W        W13074  30.008  20.158   3.870
44712W        W13075  10.303  11.720  13.434
44713W        W13076   2.759  11.725  12.544
44714W        W13077  12.815  27.648  12.067
44715W        W13078  27.197   5.845  12.881
44716W        W13079  24.078  12.156   2.835
44717W        W13080   3.807  18.557   2.889
44718W        W13081  42.855  22.675  11.920
44719W        W13082  22.166  17.599   2.408
44720W        W13083   6.406  16.804   0.483
44721W        W13084  35.414  14.339  12.455
44722W        W13085  32.428   8.712   3.186
44723W        W13086  19.594  30.585   2.289
44724W        W13087  39.356  34.941  12.980
44725W        W13088   3.248  35.431   2.788
44726W        W13089  40.009  40.325   1.810
44727W        W13090   1.483  19.697   1.425
44728W        W13091   2.348  13.347  12.478
44729W        W13092  35.859  17.680   3.150
44730W        W13093  32.919  23.214  13.984
44731W        W13094  44.948  11.843   0.740
44732W        W13095  24.669  29.152   0.440
44733W        W13096  16.651  24.050  12.493
44734W        W13097  32.060  23.005   0.432
44735W        W13098  41.423   1.245  14.831
44736W        W13099  36.933   5.385   4.160
44737W        W13100  41.811  14.254   3.662
44738W        W13101  24.084  19.642  12.040
44739W        W13102  36.927  23.544  14.444
44740W        W13103  15.111  17.738   3.838
44741W        W13104  23.085  24.072  13.340
44742W        W13105  37.561  21.127  13.996
44743W        W13106  41.453  20.238  12.930
44744W        W13107  22.700   5.891   4.700
44745W        W13108  15.803  33.491  12.952
44746W        W13109  11.712  35.385   3.796
44747W        W13110  36.877  33.078  13.337
44748W        W13111  14.701  24.659   3.671
44749W        W13112  41.370   0.816  12.072
44750W        W13113  10.146   5.840   1.348
44751W        W13114  14.251  10.851   3.177
44752W        W13115  23.683   4.289   4.152
44753W        W13116  23.686  25.106  14.300
44754W        W13117   6.738  22.209   2.861
44755W        W13118  38.380  38.425  10.545
44756W        W13119  34.951  19.619  10.441
44757W        W13120   2.884  31.444  10.517
44758W        W13121   8.331  15.169   2.277
44759W        W13122   6.727  37.454   1.730
44760W        W13123  36.966   1.748   1.815
44761W        W13124  18.546   2.869  11.056
44762W        W13125  36.427  28.569  12.437
44763W        W13126  35.906   1.262  10.926
44764W        W13127   0.461  15.293  11.059
44765W        W13128  38.556   4.254  12.348
44766W        W13129  21.229  19.147  13.392
44767W        W13130  31.147  15.088  12.060
44768W        W13131  27.596  27.029  14.483
44769W        W13132  29.043  43.500  11.949
44770W        W13133   2.446  33.899  10.926
44771W        W13134  12.705   1.967  14.883
44772W        W13135  10.206   9.326  12.025
44773W        W13136  33.542  37.082  13.945
44774W        W13137  21.036   8.799   2.305
44775W        W13138  37.519  23.221   4.126
44776W        W13139  10.853  40.468  10.473
44777W        W13140   2.340  25.158  11.068
44778W        W13141   4.417  35.905  10.960
44779W        W13142  15.273  19.267  11.507
44780W        W13143  39.023  24.621   1.300
44781W        W13144   7.809  21.183  10.614
44782W        W13145   7.231  34.534   0.294
44783W        W13146  32.020  38.061  14.352
44784W        W13147  31.544  42.775   2.306
44785W        W13148   5.362   8.355  11.900
44786W        W13149  31.414  22.138   1.286
44787W        W13150  34.916  37.528  12.940
44788W        W13151  20.716  40.349  12.871
44789W        W13152  12.692  41.393   0.337
44790W        W13153  20.667  42.813  12.950
44791W        W13154   2.325  30.611  13.441
44792W        W13155  33.971   5.298   2.876
44793W        W13156   6.357  37.360   9.944
44794W        W13157  36.371  13.621   2.288
44795W        W13158   2.248  38.824   4.632
44796W        W13159  28.658  42.404  12.364
44797W        W13160  40.049  44.900   3.765
44798W        W13161  39.023  11.632   1.275
44799W        W13162  38.015  42.485  12.491
44800W        W13163  20.690  26.086   0.880
44801W        W13164   0.440  23.556   3.147
44802W        W13165  26.952  31.093  11.047
44803W        W13166  33.619  25.060   0.847
44804W        W13167  29.634  16.228  13.462
44805W        W13168  35.979   9.300  12.092
44806W        W13169  33.067  28.527   3.737
44807W        W13170  14.790  27.086  10.945
44808W        W13171  28.090  27.505  11.042
44809W        W13172  44.886  25.502  13.456
44810W        W13173  15.711   9.384   3.779
44811W        W13174   9.757  26.692   0.305
44812W        W13175   5.256  38.823   2.691
44813W        W13176  40.000  17.102   3.321
44814W        W13177  27.182  34.963   1.822
44815W        W13178  12.140  16.182   1.262
44816W        W13179  22.677   6.357   0.357
44817W        W13180  25.100  11.795   3.283
44818W        W13181  20.078  15.584   2.707
44819W        W13182  20.663   7.673  13.853
44820W        W13183  33.538  35.384   4.652
44821W        W13184  44.932  38.066   3.246
44822W        W13185  11.722  29.520  13.339
44823W        W13186  34.481  30.540   2.864
44824W        W13187  14.785  42.877   5.180
44825W        W13188  39.983  34.474   1.406
44826W        W13189  14.778   0.816  12.350
44827W        W13190  31.483  31.528  11.883
44828W        W13191  19.201  14.122   3.735
44829W        W13192  43.799   6.680  13.436
44830W        W13193  22.607  15.138  12.919
44831W        W13194  17.192  24.707   4.272
44832W        W13195  42.505  15.106  14.509
44833W        W13196  20.633   5.915  10.503
44834W        W13197  34.576  30.103  10.404
44835W        W13198  22.104  13.187  13.405
44836W        W13199  35.939  29.024   0.936
44837W        W13200   3.885   2.803   2.730
44838W        W13201   0.273   2.337   3.809
44839W        W13202   7.875  36.546   2.695
44840W        W13203  33.005   0.291   0.895
44841W        W13204  36.960  30.507  10.469
44842W        W13205   1.812  14.251   2.766
44843W        W13206  36.477  36.500   1.916
44844W        W13207   3.925  39.841  14.414
44845W        W13208  27.624  40.027   3.776
44846W        W13209   7.298  36.093   2.229
44847W        W13210  21.581   9.179   3.313
44848W        W13211  42.346   9.174   1.831
44849W        W13212  27.085  10.196  10.441
44850W        W13213  11.133  31.554   1.835
44851W        W13214  37.496  24.190   5.109
44852W        W13215  27.113  26.540   0.336
44853W        W13216  34.870  25.534   3.840
44854W        W13217  22.747  35.565   0.361
44855W        W13218  16.162   6.215  13.951
44856W        W13219  42.380  25.571  12.014
44857W        W13220  17.188  43.927   2.756
44858W        W13221  41.019   5.819  13.416
44859W        W13222  41.859  13.179   0.435
44860W        W13223  41.953  39.065   4.345
44861W        W13224  31.418   9.663   1.356
44862W        W13225  22.575   1.925  10.548
44863W        W13226  23.181  17.158  11.894
44864W        W13227  28.146  21.714   2.240
44865W        W13228  23.707  14.725   2.415
44866W        W13229  31.954  20.059   1.333
44867W        W13230  15.705   5.695   0.395
44868W        W13231  34.964  44.363   4.654
44869W        W13232  34.603   1.300  13.993
44870W        W13233   5.244   0.760  10.581
44871W        W13234   2.920  22.090   4.729
44872W        W13235  38.926  41.877   1.741
44873W        W13236  44.377  43.778  10.094
44874W        W13237  14.631  44.945   0.957
44875W        W13238   8.692  34.582   0.414
44876W        W13239  20.064  35.545   2.217
44877W        W13240  17.089  32.988   3.651
44878W        W13241  20.249   7.370   0.846
44879W        W13242  22.176   8.348  12.938
44880W        W13243  36.353  16.785   1.260
44881W        W13244   9.803  12.160  13.852
44882W        W13245   8.837   9.890   3.220
44883W        W13246   0.807  41.853   0.374
44884W        W13247  27.044  10.169   1.785
44885W        W13248  19.769  30.497  12.036
44886W        W13249  23.120  17.801   4.131
44887W        W13250  36.087  26.636   4.605
44888W        W13251  25.206  18.171  10.525
44889W        W13252  21.575  34.426  10.991
44890W        W13253  43.281  33.953  12.055
44891W        W13254  11.845  24.533   3.776
44892W        W13255  38.069  11.165   2.690
44893W        W13256  36.436   6.715  10.506
44894W        W13257  22.704  11.337  11.456
44895W        W13258  32.543  33.124   0.840
44896W        W13259  33.452  30.928  12.395
44897W        W13260   5.349  37.338  11.592
44898W        W13261   3.804  21.039   1.868
44899W        W13262  24.484  16.778  11.573
44900W        W13263  34.405  25.479  12.983
44901W        W13264  17.082   7.871   2.783
44902W        W13265  16.212   6.767   4.609
44903W        W13266   0.324  41.477   1.354
44904W        W13267  29.472  40.451  13.972
44905W        W13268  24.603  16.724   0.388
44906W        W13269  22.109  14.760  14.826
44907W        W13270  24.124  36.390  10.597
44908W        W13271  10.831  35.553  14.321
44909W        W13272   2.261  14.793   0.781
44910W        W13273   3.350  38.529  10.565
44911W        W13274   8.245  34.884  12.084
44912W        W13275   6.829  40.855   3.749
44913W        W13276  37.850  37.341  14.786
44914W        W13277  16.774   5.693  13.330
44915W        W13278   9.863  22.582   4.714
44916W        W13279  14.183  31.582  11.578
44917W        W13280  14.811  19.553  13.481
44918W        W13281  43.906  36.881  14.959
44919W        W13282   5.418  11.811   1.868
44920W        W13283  41.038  31.038   2.405
44921W        W13284  36.853  16.593   4.166
44922W        W13285  15.638  38.013   2.405
44923W        W13286  11.677  28.983   2.396
44924W        W13287   9.725   8.693  12.360
44925W        W13288  32.900   2.888   3.284
44926W        W13289   1.836  16.772  13.491
44927W        W13290  25.128  24.062   4.613
44928W        W13291  23.161   9.351  13.914
44929W        W13292  32.114  12.754  13.532
44930W        W13293   7.837  17.801   1.697
44931W        W13294  32.112  33.431   4.696
44932W        W13295  34.373  17.624   2.838
44933W        W13296   1.757  40.858   1.917
44934W        W13297  22.180   2.906  11.101
44935W        W13298  12.202  14.329   3.243
44936W        W13299   8.167  23.650  14.029
44937W        W13300  33.492  23.195  14.377
44938W        W13301  12.718   2.356   2.190
44939W        W13302   7.674  39.365  11.529
44940W        W13303  25.679  43.306   0.305
44941W        W13304  17.226  29.635  13.020
44942W        W13305  27.646  29.049  11.009
44943W        W13306   1.787  23.632  13.356
44944W        W13307  12.611  20.212   2.721
44945W        W13308  10.341   3.827  13.865
44946W        W13309   9.303  24.002  11.553
44947W        W13310  17.602  33.385  11.040
44948W        W13311   5.254   7.756   4.307
44949W        W13312   1.844  25.032  11.374
44950W        W13313   4.450  15.776   4.690
44951W        W13314   4.206  17.269  10.974
44952W        W13315  39.448  27.137   1.334
44953W        W13316  38.014  11.183   1.780
44954W        W13317  39.523   3.836  12.561
44955W        W13318   5.399  24.603  11.969
44956W        W13319  44.882  15.777  11.005
44957W        W13320   6.219  33.466   2.218
44958W        W13321  20.540  26.144  14.020
44959W        W13322   5.904  22.662   4.120
44960W        W13323  39.885   0.376   3.328
44961W        W13324  23.160  11.632   0.825
44962W        W13325  12.264  13.132  13.409
44963W        W13326   2.758   8.199   2.227
44964W        W13327  14.227   9.762  14.871
44965W        W13328  39.412  26.989  11.108
44966W        W13329  33.970  39.380   2.863
44967W        W13330  18.680   2.902  12.082
44968W        W13331  41.985  24.017   4.131
44969W        W13332  26.678  27.125   1.334
44970W        W13333  33.397   6.839  14.355
44971W        W13334  12.785   2.266   1.427
44972W        W13335  22.624  24.138   0.478
44973W        W13336  35.551  36.867  10.412
44974W        W13337  20.033  43.498  12.005
44975W        W13338  27.030  40.505  13.531
44976W        W13339   7.412  23.034  12.878
44977W        W13340  29.434  21.124  11.992
44978W        W13341  41.429  41.438  13.318
44979W        W13342   1.257  41.849   1.695
44980W        W13343  43.394   6.219   0.307
44981W        W13344  42.890  28.980   2.774
44982W        W13345  33.536  28.028   5.111
44983W        W13346  12.300  38.868   3.854
44984W        W13347  39.429  10.242   3.833
44985W        W13348  21.539  33.596  12.541
44986W        W13349  24.976  40.813   0.370
44987W        W13350   2.760  13.777  14.403
44988W        W13351  17.118  23.728   0.773
44989W        W13352  38.357  19.211   3.150
44990W        W13353   3.875  31.031   2.818
44991W        W13354  24.529  21.074   1.719
44992W        W13355   1.976  36.465   0.448
44993W        W13356  39.839  22.135  13.400
44994W        W13357   4.761  26.508  10.957
44995W        W13358  13.319  23.126  13.544
44996W        W13359   4.260  31.053   1.704
44997W        W13360   3.418  29.453  13.311
44998W        W13361  23.526  39.840   2.717
44999W        W13362  29.142  16.746   2.753
45000W        W13363   0.323   0.470   3.816
45001W        W13364  21.174  41.864   4.346
45002W        W13365  31.917  31.523   4.649
45003W        W13366  12.328  37.386  14.915
45004W        W13367  44.754   7.698  13.986
45005W        W13368  38.373  18.715  10.971
45006W        W13369   8.729  12.153   0.400
45007W        W13370  10.786  30.534  10.438
45008W        W13371  14.625  38.065   4.219
45009W        W13372  28.607  17.281   5.130
45010W        W13373  25.962  44.848  11.945
45011W        W13374  11.288  24.017  10.990
45012W        W13375  24.705  40.394   4.244
45013W        W13376   5.813  40.364  12.500
45014W        W13377  32.045   7.831   1.715
45015W        W13378  15.137   3.289  11.531
45016W        W13379  35.876  31.124   0.930
45017W        W13380   5.701  30.507  14.368
45018W        W13381  40.011  15.633   0.852
45019W        W13382  41.301   5.296   4.320
45020W        W13383  14.267  42.956   1.271
45021W        W13384  24.136   6.718  13.535
45022W        W13385  31.530   1.851  10.895
45023W        W13386  16.607  32.414  11.933
45024W        W13387  22.737   3.759  11.559
45025W        W13388  42.945  19.077  14.290
45026W        W13389  28.639  24.122   4.774
45027W        W13390  41.914  15.726   0.905
45028W        W13391  41.997  37.904   1.709
45029W        W13392  33.453  22.032   3.281
45030W        W13393   3.753   1.763  10.891
45031W        W13394  24.544  41.315   1.280
45032W        W13395   0.874   0.378  13.813
45033W        W13396  19.673  35.408  11.455
45034W        W13397  11.797  12.335  11.078
45035W        W13398  28.604  12.304  12.350
45036W        W13399  18.223  36.422   2.364
45037W        W13400   0.347   8.862   1.697
45038W        W13401  28.117  44.474  11.977
45039W        W13402  38.554  26.201  14.498
45040W        W13403  34.426   6.680   1.906
45041W        W13404  24.715   6.197  13.393
45042W        W13405  27.477   9.746   4.202
45043W        W13406  21.524  18.177   0.747
45044W        W13407   4.317  44.290  12.432
45045W        W13408   2.403   1.347   4.714
45046W        W13409   0.983  33.400   4.625
45047W        W13410  28.511  20.583   4.634
45048W        W13411   6.276  32.563   4.625
45049W        W13412  17.275  44.347  13.544
45050W        W13413  15.174  33.599  10.997
45051W        W13414  38.487  41.487   3.150
45052W        W13415  35.961  43.476   4.781
45053W        W13416  15.224  20.733   2.289
45054W        W13417  17.266  33.523   1.903
45055W        W13418  15.306   7.253  14.016
45056W        W13419   3.874  30.081   1.325
45057W        W13420  33.395   4.835  14.313
45058W        W13421  33.054   0.896   2.380
45059W        W13422  31.918  34.441   1.288
45060W        W13423  14.126  35.548   1.408
45061W        W13424  23.000  29.048   2.755
45062W        W13425  24.577  25.588   0.763
45063W        W13426  23.046  16.126  12.090
45064W        W13427  16.107  35.370  14.788
45065W        W13428  35.903  10.139  10.506
45066W        W13429   3.350  22.608   4.663
45067W        W13430   7.863  10.288   3.341
45068W        W13431  33.401  27.106   4.783
45069W        W13432  17.590  44.866  13.476
45070W        W13433   8.845  11.639   1.437
45071W        W13434  22.196  26.671   4.812
45072W        W13435  28.091  37.019  13.917
45073W        W13436  36.903   6.197   1.846
45074W        W13437  35.573  33.543  12.064
45075W        W13438  12.168  40.036  10.471
45076W        W13439  23.124  43.511   0.429
45077W        W13440  24.499  16.749  14.408
45078W        W13441  30.629  35.593   1.825
45079W        W13442  23.234  31.145   4.316
45080W        W13443  33.915   7.285   0.436
45081W        W13444  24.205  30.117   0.343
45082W        W13445  43.001   7.387   1.917
45083W        W13446   6.906  31.906   4.757
45084W        W13447  37.955  35.587  14.450
45085W        W13448  40.835  42.777   4.678
45086W        W13449   6.188  15.769  14.762
45087W        W13450  22.167  25.655  14.867
45088W        W13451   7.364   0.953  12.916
45089W        W13452   3.245  26.535  12.440
45090W        W13453  36.432  31.104   1.794
45091W        W13454   8.705  18.159   1.709
45092W        W13455  13.346  12.358   2.259
45093W        W13456  29.585  20.610  11.926
45094W        W13457  42.436   7.676   4.331
45095W        W13458  26.590   2.297  13.500
45096W        W13459  38.031  31.001  13.967
45097W        W13460  35.961  13.604   2.261
45098W        W13461  29.097  32.580   2.763
45099W        W13462   9.740  29.952   3.644
45100W        W13463  21.739  35.928  11.972
45101W        W13464   7.230   7.365   0.809
45102W        W13465  10.326  28.661   0.277
45103W        W13466  34.541  40.016   2.864
45104W        W13467   8.247  28.581  13.943
45105W        W13468  29.457   0.908  14.837
45106W        W13469  44.976  22.080  13.410
45107W        W13470   6.882  17.569  13.377
45108W        W13471  14.654  21.181   5.178
45109W        W13472  23.604  33.064  14.884
45110W        W13473  39.983   1.255  14.429
45111W        W13474  29.503  12.154  12.421
45112W        W13475  11.688  25.658   3.756
45113W        W13476  34.420  18.654   4.351
45114W        W13477  37.400  21.199  10.143
45115W        W13478  44.858  42.882   3.769
45116W        W13479  26.110  37.910  10.475
45117W        W13480   1.277  15.111  13.049
45118W        W13481  27.563  12.704  14.439
45119W        W13482  38.408  32.998   2.842
45120W        W13483  21.647  18.159  12.093
45121W        W13484  19.586   8.834  13.949
45122W        W13485  31.454  10.325   2.757
45123W        W13486  38.875  17.209  14.447
45124W        W13487  12.683  10.814  10.601
45125W        W13488  10.724   9.712   2.325
45126W        W13489   4.862  43.490   0.317
45127W        W13490  32.391   8.885   1.880
45128W        W13491  18.647  19.053  14.367
45129W        W13492  18.639  21.550  12.845
45130W        W13493  27.030   7.312  14.290
45131W        W13494  28.105  44.400   4.117
45132W        W13495   5.201  28.970   2.197
45133W        W13496   3.822  42.910  13.021
45134W        W13497  10.835   6.855   3.246
45135W        W13498  33.466  44.979  12.530
45136W        W13499  32.430  38.942   3.699
45137W        W13500  23.227  15.815  13.529
45138W        W13501  23.513  35.899  14.825
45139W        W13502  19.143  19.104   1.796
45140W        W13503  13.616  29.523   2.842
45141W        W13504  20.629   3.351   1.345
45142W        W13505   7.858   3.264   0.726
45143W        W13506  35.450  26.697  14.338
45144W        W13507  41.909   1.838   3.384
45145W        W13508   6.792  11.708   1.720
45146W        W13509  29.616  42.386  14.909
45147W        W13510  11.765  13.757   2.188
45148W        W13511   2.312  33.536   5.222
45149W        W13512  18.093  42.406  10.095
45150W        W13513  25.679  40.974   2.346
45151W        W13514  21.033  28.642   3.661
45152W        W13515   0.294   6.183   2.745
45153W        W13516  15.808  25.155  11.855
45154W        W13517  33.045  11.188   3.238
45155W        W13518   2.398  39.965   3.653
45156W        W13519   6.853  42.450  14.955
45157W        W13520  38.516  43.486  14.512
45158W        W13521  42.958  36.385  14.310
45159W        W13522   5.359   2.722  14.459
45160W        W13523  18.211   1.310  13.499
45161W        W13524   5.367  33.940  14.448
45162W        W13525  44.918  35.592  11.917
45163W        W13526  29.476  36.052   0.471
45164W        W13527   7.696  33.504   2.887
45165W        W13528  34.873   4.429   1.889
45166W        W13529  32.048  27.637   0.837
45167W        W13530  24.090  12.775   4.302
45168W        W13531  15.736  30.541  14.303
45169W        W13532  28.178  31.436   3.251
45170W        W13533  42.966  15.632   5.135
45171W        W13534  15.209  25.522  13.452
45172W        W13535   0.475  39.914  11.998
45173W        W13536  42.952  32.964  10.528
45174W        W13537  23.529  13.794  13.922
45175W        W13538  39.475  43.914  14.811
45176W        W13539  41.451  38.468  13.873
45177W        W13540  19.570  33.050  10.629
45178W        W13541   2.377  43.423   4.777
45179W        W13542  19.592  32.914  13.473
45180W        W13543  16.245  18.096  13.950
45181W        W13544   1.962  24.611   4.242
45182W        W13545  32.981  21.721   1.821
45183W        W13546  36.969  17.653  13.362
45184W        W13547  26.058   0.258  11.567
45185W        W13548  30.657  25.107  13.803
45186W        W13549  42.856   5.424  10.540
45187W        W13550   3.821  10.644  14.493
45188W        W13551  43.505  10.861  11.479
45189W        W13552  13.209  11.673  12.046
45190W        W13553  22.018  40.336   0.357
45191W        W13554  12.128   9.761  14.004
45192W        W13555  30.995  43.340   2.843
45193W        W13556  36.956   6.829   2.895
45194W        W13557  15.808   3.221  13.882
45195W        W13558  20.603  12.201   1.743
45196W        W13559   6.332  13.687  11.436
45197W        W13560   8.371  17.584   4.315
45198W        W13561  17.296  41.416  11.055
45199W        W13562  22.534  33.570   5.221
45200W        W13563  38.342  18.237  11.035
45201W        W13564  38.062  11.696   0.285
45202W        W13565  10.284  27.634   3.201
45203W        W13566  34.048  16.307   0.906
45204W        W13567  14.255   4.392   5.293
45205W        W13568  26.696  39.969   1.438
45206W        W13569   7.698   4.287   0.838
45207W        W13570  24.492  36.900  12.065
45208W        W13571  26.016  13.710  11.571
45209W        W13572  29.513   5.723   4.784
45210W        W13573  15.613  24.985  14.829
45211W        W13574  18.742   8.390   4.714
45212W        W13575   7.840  39.360   2.353
45213W        W13576  38.069   3.742  12.504
45214W        W13577   3.915  25.207  13.373
45215W        W13578  11.741  20.096   1.851
45216W        W13579  41.015   0.784  14.478
45217W        W13580  33.009  32.509  11.492
45218W        W13581  34.588  40.385   4.757
45219W        W13582  31.014  17.192   5.253
45220W        W13583  12.241  16.316   1.749
45221W        W13584  12.338  22.714   0.904
45222W        W13585  35.949  16.101   0.838
45223W        W13586  42.306   2.402  11.113
45224W        W13587  42.820  42.393  14.442
45225W        W13588   3.711  18.238  13.892
45226W        W13589  43.001  37.083  10.643
45227W        W13590  30.030  21.021   0.386
45228W        W13591  28.534   8.340  13.523
45229W        W13592   1.921  11.662  14.768
45230W        W13593  11.204  18.109  10.912
45231W        W13594  25.507  10.237  10.135
45232W        W13595  29.105  17.193  10.906
45233W        W13596   4.429   2.907   1.695
45234W        W13597  10.196  12.621   1.910
45235W        W13598   3.346  11.812  10.645
45236W        W13599  27.691  44.000   4.674
45237W        W13600  24.480   9.350   1.700
45238W        W13601  10.334  22.746  12.501
45239W        W13602  33.106  40.968   2.784
45240W        W13603  30.942  34.610   2.417
45241W        W13604  43.294  18.256   4.182
45242W        W13605   6.863  29.649  13.460
45243W        W13606  11.288  28.592   0.342
45244W        W13607  20.201   2.447   3.652
45245W        W13608  17.558   1.877   3.169
45246W        W13609  42.492  30.481  14.978
45247W        W13610  35.469  36.899  13.037
45248W        W13611  16.739  34.049   3.200
45249W        W13612  37.014   7.411   3.371
45250W        W13613  22.701  30.464   2.347
45251W        W13614   5.402  28.095  14.471
45252W        W13615  12.662   0.773   4.632
45253W        W13616  26.061  44.425   1.796
45254W        W13617   5.223  43.399  11.381
45255W        W13618  34.960   1.337   1.316
45256W        W13619  17.197  10.672  14.883
45257W        W13620  25.563   9.880  13.909
45258W        W13621  34.096  34.035   2.392
45259W        W13622  28.559  22.146  13.887
45260W        W13623  26.997  10.302  12.947
45261W        W13624  28.511  12.215  14.009
45262W        W13625   9.736   0.392  12.570
45263W        W13626  14.721  36.930   4.658
45264W        W13627  32.567  13.155  13.379
45265W        W13628   0.827   8.359   4.757
45266W        W13629  37.393  42.938   2.327
45267W        W13630   8.891   6.707   0.927
45268W        W13631   7.258  15.269   1.326
45269W        W13632  19.257  26.494   3.772
45270W        W13633  27.450  32.492  11.012
45271W        W13634  36.482  36.426  11.520
45272W        W13635  33.523  38.569   4.810
45273W        W13636  27.666  37.850   1.726
45274W        W13637   1.480  43.440   2.334
45275W        W13638  33.456   4.429  12.056
45276W        W13639  13.218  28.986   1.355
45277W        W13640  19.122  35.004   3.348
45278W        W13641   9.749  12.330   4.191
45279W        W13642  25.704   7.675  12.826
45280W        W13643  15.256  29.622  11.970
45281W        W13644  26.565   3.916  13.956
45282W        W13645  26.135  29.451  13.488
45283W        W13646   9.158   7.858  14.763
45284W        W13647  39.025  41.009  14.020
45285W        W13648  38.072  31.956   2.242
45286W        W13649   9.325  43.333  13.849
45287W        W13650  28.643  41.408   4.637
45288W        W13651  36.996  31.028  13.389
45289W        W13652  29.558  44.406  10.996
45290W        W13653  14.835  19.665  11.944
45291W        W13654   9.659  33.913  10.429
45292W        W13655   5.688  41.036  11.389
45293W        W13656  43.433   4.282  10.457
45294W        W13657  27.482  31.449   0.889
45295W        W13658  42.453  41.898  10.926
45296W        W13659  21.105  14.815   5.099
45297W        W13660  11.775  11.373   0.272
45298W        W13661  40.511  36.409   1.867
45299W        W13662   2.432  10.683   2.289
45300W        W13663   2.238   8.690   2.808
45301W        W13664  14.600  19.041   1.728
45302W        W13665  35.979  27.450   3.328
45303W        W13666  23.003  13.657  12.833
45304W        W13667   8.352  22.008   2.186
45305W        W13668  12.302  30.097  11.608
45306W        W13669   2.286   6.897   4.687
45307W        W13670  32.517  27.982  12.461
45308W        W13671  33.385   7.296   5.181
45309W        W13672  29.975  14.690  11.073
45310W        W13673  20.052  23.171   3.646
45311W        W13674  19.727   7.331   3.301
45312W        W13675  37.864  32.076  10.919
45313W        W13676  24.624  32.125   4.129
45314W        W13677  32.926  38.451   1.819
45315W        W13678   4.409  21.082   4.834
45316W        W13679  24.492  34.597  12.942
45317W        W13680  14.779  16.629   1.809
45318W        W13681  22.666  33.445   0.475
45319W        W13682  27.509  42.791  11.536
45320W        W13683  41.500  30.108   4.280
45321W        W13684  28.059   5.270  14.994
45322W        W13685   9.761  43.779  10.529
45323W        W13686  29.482   3.447  11.606
45324W        W13687  44.839  29.451   2.832
45325W        W13688  28.168  41.919  14.955
45326W        W13689  36.892  42.429  10.924
45327W        W13690  44.390   2.374  12.485
45328W        W13691  29.517   8.822   5.309
45329W        W13692  41.296  10.214  10.610
45330W        W13693  41.496  41.950   2.335
45331W        W13694  28.644  16.290  14.770
45332W        W13695  25.549  17.153  10.009
45333W        W13696   3.442  34.545   0.325
45334W        W13697  32.028  15.603   4.215
45335W        W13698  39.036  42.907  11.051
45336W        W13699  37.077  41.410  12.509
45337W        W13700  27.947  11.774   2.670
45338W        W13701  36.497  12.638  14.898
45339W        W13702  13.733   0.779  11.922
45340W        W13703  42.284   4.409   3.651
45341W        W13704  21.252  17.564   2.863
45342W        W13705  35.064  31.134  12.049
45343W        W13706  14.146  31.425   3.635
45344W        W13707  41.936  33.045   1.801
45345W        W13708  15.656   8.844  12.880
45346W        W13709  43.779   4.770  12.979
45347W        W13710  18.053  42.480  10.407
45348W        W13711  41.537   4.435  14.867
45349W        W13712  39.355  33.462   4.633
45350W        W13713  31.058  41.360  10.130
45351W        W13714  24.977  36.873  12.907
45352W        W13715  18.651   9.745  10.919
45353W        W13716  41.481  36.850   2.868
45354W        W13717  20.580  33.465  12.901
45355W        W13718   2.758  44.777  13.528
45356W        W13719   0.903  16.796   0.275
45357W        W13720  14.724  21.103  12.047
45358W        W13721   1.249  33.592   1.433
45359W        W13722  13.602  22.634   1.843
45360W        W13723  24.558   9.222   0.942
45361W        W13724  24.122  40.319  14.474
45362W        W13725  19.759  36.045   0.891
45363W        W13726  28.131  19.130  14.786
45364W        W13727  28.962  43.951   3.201
45365W        W13728   1.830  32.510   3.336
45366W        W13729  35.084  32.475  11.374
45367W        W13730   4.265  19.620  12.465
45368W        W13731  13.825  19.230  14.007
45369W        W13732  23.209  14.275  13.971
45370W        W13733  43.422  20.580   4.624
45371W        W13734   1.922   3.345  10.552
45372W        W13735  33.540  23.541  14.295
45373W        W13736  24.172   7.267   3.671
45374W        W13737  31.111  15.235  10.939
45375W        W13738  17.585  44.439   5.592
45376W        W13739  18.088  23.128  12.461
45377W        W13740  14.144  23.567   1.739
45378W        W13741  40.365   1.771   0.473
45379W        W13742  40.021  34.052  10.508
45380W        W13743  32.635   4.336   2.413
45381W        W13744  15.288   4.336   0.837
45382W        W13745  10.226  25.556  12.539
45383W        W13746  25.138  30.640   2.403
45384W        W13747  24.661  35.404  12.980
45385W        W13748  14.753   5.244   3.799
45386W        W13749  18.248  34.091  14.794
45387W        W13750  23.718  35.498   2.692
45388W        W13751  34.043  34.951  11.596
45389W        W13752  28.102   2.834  11.128
45390W        W13753   8.852  35.096   3.205
45391W        W13754  24.975  35.002   4.813
45392W        W13755   4.404  11.182  13.547
45393W        W13756  31.587   7.896   3.800
45394W        W13757  32.126   5.272   1.845
45395W        W13758  35.430   2.449   3.168
45396W        W13759  39.890  24.015  14.765
45397W        W13760  14.782   8.884  13.325
45398W        W13761  24.481  21.222   0.298
45399W        W13762  30.033  43.453   3.708
45400W        W13763  42.400  12.758  13.016
45401W        W13764   2.764  33.561   4.670
45402W        W13765  19.202  25.196  11.504
45403W        W13766  40.332  13.644  12.566
45404W        W13767  36.360  21.123  10.029
45405W        W13768  15.260  11.248   2.188
45406W        W13769  21.229   0.248   1.339
45407W        W13770  15.199  44.431   3.155
45408W        W13771   5.727  16.726  11.533
45409W        W13772  10.778   7.794  12.935
45410W        W13773  30.917  11.765  10.102
45411W        W13774   4.807   8.703  10.476
45412W        W13775  30.519  29.613   2.393
45413W        W13776  34.073   0.376  13.899
45414W        W13777   7.321  41.350  14.842
45415W        W13778   8.832  31.097  10.512
45416W        W13779  29.078  42.819   2.775
45417W        W13780  13.776  34.504  12.386
45418W        W13781  12.277  30.512  11.078
45419W        W13782  19.236  25.622   3.749
45420W        W13783  30.053  23.595   3.640
45421W        W13784  40.944   2.406  11.539
45422W        W13785  23.720  43.787   2.869
45423W        W13786  37.439  21.562  13.791
45424W        W13787  26.983  21.648   1.846
45425W        W13788  44.335  35.548  14.995
45426W        W13789  43.890   9.263   4.282
45427W        W13790  44.375  44.449  13.354
45428W        W13791  25.133  24.980   0.967
45429W        W13792  38.884  44.008   1.314
45430W        W13793  42.385  30.990   0.478
45431W        W13794  27.123  26.486   3.338
45432W        W13795  10.153  40.976   5.214
45433W        W13796  23.165  33.476   0.418
45434W        W13797  35.505  40.904  13.507
45435W        W13798  17.111   7.384  12.939
45436W        W13799  19.043  15.200   1.342
45437W        W13800  38.422  36.403   4.690
45438W        W13801  27.541  41.511  11.526
45439W        W13802  36.401  37.549   3.712
45440W        W13803  44.781  11.249   3.281
45441W        W13804   5.895  30.483   0.921
45442W        W13805  33.975  43.275   4.168
45443W        W13806   1.483  20.527   4.236
45444W        W13807   1.432  41.461   1.910
45445W        W13808   0.274  18.236   1.892
45446W        W13809  25.031  27.684   0.420
45447W        W13810  15.283   7.767   1.831
45448W        W13811  14.619  41.900   0.383
45449W        W13812  11.801  38.882  11.491
45450W        W13813  30.567   7.187   4.784
45451W        W13814  40.382  12.834  14.824
45452W        W13815  25.065  44.263  14.844
45453W        W13816  36.361  10.832   0.760
45454W        W13817   2.246  28.507   3.735
45455W        W13818  39.526  37.015  10.541
45456W        W13819  38.374  36.405   2.734
45457W        W13820   0.363   7.819   1.783
45458W        W13821   5.331   7.192  10.916
45459W        W13822  17.730  43.803   4.217
45460W        W13823  42.777  27.961   0.376
45461W        W13824  31.056  32.421   1.315
45462W        W13825  34.099  17.181  11.062
45463W        W13826   4.426  18.609  10.511
45464W        W13827  33.944  17.616   0.866
45465W        W13828  37.394  27.554   4.190
45466W        W13829   9.329  10.229  13.519
45467W        W13830  35.933  33.516   9.934
45468W        W13831  10.699  36.049  13.869
45469W        W13832  42.303  31.908  12.946
45470W        W13833  23.555  44.336  13.796
45471W        W13834   6.812  31.648   3.856
45472W        W13835  24.629  12.270   0.907
45473W        W13836   2.253  37.019  12.986
45474W        W13837  13.690  33.925   4.346
45475W        W13838   9.250  28.040  10.067
45476W        W13839  39.973  22.155  10.492
45477W        W13840   9.244  19.172   2.702
45478W        W13841  18.686  26.001   4.784
45479W        W13842   1.429  32.069   3.187
45480W        W13843   2.284  35.994   0.346
45481W        W13844  32.628  32.039   0.865
45482W        W13845  24.183  19.175  14.897
45483W        W13846  38.552  10.281   0.854
45484W        W13847  12.257  11.703   1.414
45485W        W13848  15.298   1.972   3.726
45486W        W13849  37.061  12.755  10.043
45487W        W13850   0.376   5.846   4.146
45488W        W13851  13.141  19.124   3.193
45489W        W13852  25.586  38.365   4.193
45490W        W13853  11.221  28.554   0.967
45491W        W13854  16.794  42.009   5.122
45492W        W13855  21.540  12.155   0.295
45493W        W13856  22.518  21.622   2.862
45494W        W13857  14.679  38.054   3.379
45495W        W13858  23.998  33.001   0.425
45496W        W13859  20.273  41.911  14.819
45497W        W13860  36.048  31.427  13.926
45498W        W13861  19.710  23.653   1.234
45499W        W13862   7.705  19.764  14.847
45500W        W13863   8.360  26.607   2.721
45501W        W13864   3.282  26.618  14.889
45502W        W13865  19.210  21.035  14.446
45503W        W13866  15.607  36.992  13.307
45504W        W13867   0.836   5.834   0.411
45505W        W13868  33.437   0.429  14.284
45506W        W13869  27.547  24.998  13.461
45507W        W13870  33.506  21.748   4.749
45508W        W13871  16.083  28.972  13.869
45509W        W13872  34.375  24.593  13.476
45510W        W13873  36.056  12.625   2.679
45511W        W13874  32.490  28.955  13.482
45512W        W13875  42.813  42.427   2.289
45513W        W13876  34.965   1.462  11.483
45514W        W13877  22.541  15.760  13.985
45515W        W13878  43.349  37.869  14.958
45516W        W13879  33.519  12.630   1.731
45517W        W13880  24.024  36.951   3.364
45518W        W13881   9.853   2.847   0.268
45519W        W13882  34.064  13.243   3.288
45520W        W13883   2.306  22.623   3.262
45521W        W13884  24.601  33.617  13.939
45522W        W13885  24.120   5.698  13.907
45523W        W13886  44.363  23.051   4.157
45524W        W13887  12.654  29.164   4.650
45525W        W13888  24.613   3.342   1.356
45526W        W13889  38.926  13.280  14.445
45527W        W13890  13.176   3.879   2.298
45528W        W13891  37.011  38.570   4.254
45529W        W13892  30.550  19.642  14.923
45530W        W13893  18.688  44.497   4.287
45531W        W13894  26.969  39.386  14.016
45532W        W13895  28.065  41.814   1.861
45533W        W13896  29.443  41.023  14.851
45534W        W13897  36.910   8.733   1.436
45535W        W13898  13.294   3.871  12.922
45536W        W13899  19.646  34.507  12.951
45537W        W13900  33.537  30.596   5.161
45538W        W13901  33.062  12.356   3.193
45539W        W13902  35.483  21.089  12.437
45540W        W13903  30.149  40.978   4.632
45541W        W13904   4.719  36.099  12.860
45542W        W13905  22.232  33.506   2.410
45543W        W13906  22.226  22.146  10.598
45544W        W13907  10.755  32.399  13.459
45545W        W13908  30.540  32.960  14.956
45546W        W13909  27.559  32.475  11.496
45547W        W13910   8.298   4.450   0.895
45548W        W13911  40.507  20.038  10.909
45549W        W13912  39.971  24.498  13.954
45550W        W13913  25.495  33.550  12.521
45551W        W13914  18.145  13.303  14.854
45552W        W13915  15.230  19.129   3.219
45553W        W13916  28.058  10.348  11.995
45554W        W13917  11.222   8.738  14.439
45555W        W13918  15.716   7.907  10.000
45556W        W13919   2.254  16.236  11.042
45557W        W13920  42.447  29.114  14.431
45558W        W13921  16.726  13.284  14.308
45559W        W13922  13.846  27.016   0.339
45560W        W13923  17.618  11.730  12.939
45561W        W13924  17.760  15.811  14.446
45562W        W13925  11.272  25.057   1.325
45563W        W13926  42.010  22.568  11.452
45564W        W13927  33.624   5.928   1.784
45565W        W13928  38.066   5.288   3.659
45566W        W13929  37.528  25.109   0.816
45567W        W13930  30.504  15.693  10.408
45568W        W13931  17.778   1.732  12.435
45569W        W13932  15.719  26.656   1.824
45570W        W13933  32.116  30.993   0.385
45571W        W13934  38.966  19.138   1.266
45572W        W13935  33.479  11.288   3.794
45573W        W13936  29.588  21.134  11.105
45574W        W13937  37.887  32.515   1.420
45575W        W13938  38.863  12.657   3.836
45576W        W13939  32.009  28.987   4.330
45577W        W13940  35.965   4.374   4.213
45578W        W13941  43.435  37.977   9.669
45579W        W13942  26.035  38.441   3.858
45580W        W13943  25.685   7.705  11.983
45581W        W13944  19.235  43.913   0.860
45582W        W13945  41.924   5.317   0.360
45583W        W13946  38.957  39.009   1.447
45584W        W13947  42.324  44.504  12.563
45585W        W13948  17.220  26.973  13.376
45586W        W13949  13.684  34.027  12.015
45587W        W13950   5.815  23.065   3.363
45588W        W13951  11.341  11.273   4.710
45589W        W13952  28.582  29.485  10.159
45590W        W13953  19.606  32.952   3.722
45591W        W13954  42.028  32.999   4.295
45592W        W13955  18.639  38.483  14.962
45593W        W13956   5.821  21.537   0.451
45594W        W13957  33.587  13.250   2.833
45595W        W13958  21.031  17.083  11.042
45596W        W13959  31.924   5.369   0.426
45597W        W13960  34.116   1.770  14.950
45598W        W13961   6.402  42.894  14.369
45599W        W13962  31.085  42.918   2.791
45600W        W13963  44.502  34.041  11.409
45601W        W13964  35.029  23.550  10.641
45602W        W13965  42.436  44.774  13.453
45603W        W13966  36.087  19.647  11.957
45604W        W13967  41.984  21.053  10.972
45605W        W13968  29.038  16.231   3.287
45606W        W13969  38.326  16.237  11.441
45607W        W13970  38.478  11.199  14.334
45608W        W13971  32.995   7.689  12.964
45609W        W13972   8.848  33.400  14.923
45610W        W13973  15.624  24.228   2.184
45611W        W13974  16.727  44.881  14.872
45612W        W13975   3.921  40.894  14.878
45613W        W13976  15.294   3.867  13.979
45614W        W13977  41.921  16.636  11.112
45615W        W13978  23.127  38.880   4.234
45616W        W13979  41.998  16.588  14.933
45617W        W13980  13.600  13.752  14.866
45618W        W13981  18.710  20.273   3.807
45619W        W13982   8.169  35.993  12.976
45620W        W13983   1.364  37.473  14.409
45621W        W13984  44.346  24.162  11.030
45622W        W13985  39.403  37.520  11.483
45623W        W13986   9.819   3.861  11.032
45624W        W13987   7.218  37.887   2.846
45625W        W13988   8.796   1.448  13.432
45626W        W13989  22.228  37.845  10.580
45627W        W13990  15.244  12.810   0.776
45628W        W13991  35.898  19.106  10.919
45629W        W13992  28.118  39.389  13.391
45630W        W13993  16.139   3.301  13.869
45631W        W13994  24.146  38.418  12.447
45632W        W13995  44.891  14.820   0.898
45633W        W13996  43.385  13.318  14.500
45634W        W13997   1.474   4.292   3.257
45635W        W13998  12.157   2.833  13.007
45636W        W13999  12.283  43.870   2.255
45637W        W14000  35.067  11.349   2.858
45638W        W14001   9.706  33.049  11.963
45639W        W14002  14.621  39.923  11.461
45640W        W14003  14.116  10.829  14.763
45641W        W14004  15.165  41.295   1.848
45642W        W14005   9.883  36.450   0.381
45643W        W14006   6.896  22.670   4.634
45644W        W14007  24.203   4.786   4.164
45645W        W14008  21.162  41.955  11.550
45646W        W14009   9.760  22.152  11.963
45647W        W14010  27.005   2.367  14.367
45648W        W14011  41.446   6.772  10.418
45649W        W14012  16.313   4.778   3.354
45650W        W14013   6.309  22.677   1.306
45651W        W14014  22.206   0.878   2.391
45652W        W14015  37.020  33.891   4.771
45653W        W14016  25.083  40.503   1.798
45654W        W14017  41.906  44.773   4.651
45655W        W14018  42.001  36.468  10.465
45656W        W14019  42.417  27.943   4.319
45657W        W14020  28.169  36.557   3.172
45658W        W14021  32.517  37.505   2.218
45659W        W14022  38.057  24.029  13.832
45660W        W14023   1.924   8.800  11.523
45661W        W14024  16.124  41.473   2.864
45662W        W14025   0.902  20.236   3.708
45663W        W14026  43.769  27.966  13.383
45664W        W14027  37.836  21.181  12.362
45665W        W14028  28.497   9.251   1.931
45666W        W14029   9.225  25.968   4.624
45667W        W14030   7.794   5.274   4.153
45668W        W14031  12.292  27.132  14.972
45669W        W14032  18.075   5.294  12.367
45670W        W14033  23.674   9.739  14.488
45671W        W14034  42.947  25.122  11.433
45672W        W14035   4.848  14.629  11.537
45673W        W14036  10.720  30.504   2.821
45674W        W14037   2.784  12.745  11.460
45675W        W14038  17.182  13.777  14.994
45676W        W14039  22.665  16.761  14.899
45677W        W14040  10.304  26.145  11.078
45678W        W14041  34.449  25.127   0.766
45679W        W14042   4.206   0.255  13.537
45680W        W14043   0.294  29.951  12.344
45681W        W14044  18.168  15.263  13.390
45682W        W14045  31.049  16.312   4.231
45683W        W14046  16.588  27.055   0.402
45684W        W14047   8.689  20.198   3.235
45685W        W14048  38.429   0.813   1.376
45686W        W14049  21.138  23.500   4.766
45687W        W14050  20.738  36.033   2.379
45688W        W14051  18.208   9.174   1.347
45689W        W14052  26.576  26.652   0.411
45690W        W14053   9.877  40.423   0.759
45691W        W14054  10.274  32.113  14.505
45692W        W14055  14.793  40.332   1.273
45693W        W14056   6.231   4.244   2.717
45694W        W14057   9.204  37.982  11.114
45695W        W14058   0.746  25.978  12.946
45696W        W14059  16.248  23.227   0.458
45697W        W14060  36.928   3.390   1.230
45698W        W14061  21.719   1.748   0.746
45699W        W14062  22.659  36.499   0.376
45700W        W14063  32.454  33.939  11.415
45701W        W14064   8.828   3.953   1.279
45702W        W14065   0.781  23.202   4.712
45703W        W14066  22.046  22.096  11.432
45704W        W14067  17.083  26.622  14.907
45705W        W14068  40.506  11.807  12.526
45706W        W14069  11.334  36.396  11.547
45707W        W14070  27.623   7.777  12.965
45708W        W14071  37.024  22.534   4.186
45709W        W14072  18.661  15.800  14.425
45710W        W14073  36.483  41.314  12.866
45711W        W14074  24.538   7.752   3.260
45712W        W14075  11.862  34.462  14.443
45713W        W14076  22.033   7.806  10.571
45714W        W14077   9.282  34.014  14.348
45715W        W14078  40.355  37.547  11.977
45716W        W14079   3.785  37.392  11.925
45717W        W14080  29.037  31.915   0.393
45718W        W14081   0.842  21.117  11.448
45719W        W14082   4.876  34.007   2.834
45720W        W14083  43.453  26.994   0.340
45721W        W14084  35.375  16.787  13.363
45722W        W14085  28.009  14.176   4.130
45723W        W14086  25.177  37.995  12.924
45724W        W14087   0.957  41.936  11.128
45725W        W14088  28.546  16.719   2.337
45726W        W14089  23.039  19.089  13.878
45727W        W14090  22.206  26.140   0.907
45728W        W14091  35.542   6.796   0.930
45729W        W14092  28.532  35.064  12.454
45730W        W14093  34.582  17.141  13.378
45731W        W14094  17.106  44.399  11.053
45732W        W14095  39.413  23.536   0.925
45733W        W14096  28.604   0.948  13.893
45734W        W14097  38.883  21.183  10.891
45735W        W14098  29.022  31.579   0.275
45736W        W14099  20.115  16.297   4.346
45737W        W14100  15.685   6.831  10.969
45738W        W14101  34.896   0.807   3.751
45739W        W14102  37.527  32.414  11.089
45740W        W14103  39.838   8.243  12.507
45741W        W14104  33.109  29.431  14.954
45742W        W14105   8.383   8.216   0.381
45743W        W14106  26.655   4.396   3.697
45744W        W14107  38.987  27.147   4.245
45745W        W14108  22.666  15.652  14.503
45746W        W14109  29.553  42.379  12.039
45747W        W14110   9.775  10.825   2.342
45748W        W14111  34.424   0.253   5.778
45749W        W14112  42.892  37.517  11.561
45750W        W14113  44.912  28.176   2.842
45751W        W14114  43.313  32.046   1.743
45752W        W14115  27.455   2.238  12.529
45753W        W14116  44.835  15.818  12.074
45754W        W14117   1.390  42.823  12.354
45755W        W14118   5.845  29.986   3.314
45756W        W14119  34.447   7.256  10.901
45757W        W14120  23.572  27.673  12.880
45758W        W14121  24.029  21.042  14.311
45759W        W14122  34.593  22.629   4.262
45760W        W14123  38.993  43.502   3.867
45761W        W14124   2.798   9.782  14.001
45762W        W14125  26.647   1.369   1.392
45763W        W14126  18.205  24.123   1.411
45764W        W14127  43.514   1.359  10.942
45765W        W14128  17.723   1.259  12.396
45766W        W14129  20.598   1.333   4.193
45767W        W14130  18.700  37.566   1.829
45768W        W14131   4.907   6.922   2.379
45769W        W14132  44.856  40.497   3.338
45770W        W14133   6.922   7.403   4.156
45771W        W14134  13.251  14.132  11.533
45772W        W14135  43.843  17.756   3.238
45773W        W14136   7.178  27.481   1.917
45774W        W14137  10.326  35.549  14.508
45775W        W14138  20.576  20.559   1.313
45776W        W14139   8.797  33.562  12.495
45777W        W14140  34.948  41.420   4.352
45778W        W14141  36.877  14.278   1.244
45779W        W14142   8.784  17.077  11.067
45780W        W14143  44.804   8.227  10.903
45781W        W14144  33.096  39.325  13.533
45782W        W14145  16.279  35.408  12.071
45783W        W14146  14.817  33.014   4.812
45784W        W14147  18.233  26.632   3.224
45785W        W14148   4.925  15.174   0.277
45786W        W14149   0.989   7.725  10.475
45787W        W14150  42.899  12.239  10.600
45788W        W14151  26.088  36.576   3.374
45789W        W14152  33.620  24.060  12.992
45790W        W14153  11.698  44.818  14.478
45791W        W14154  29.512   7.310  13.895
45792W        W14155  25.051  35.918   3.745
45793W        W14156  15.644   1.856   3.814
45794W        W14157  10.290  39.550  11.611
45795W        W14158  35.558   0.836   0.746
45796W        W14159  37.548   0.888   0.763
45797W        W14160  20.162   6.323  11.610
45798W        W14161  18.234  12.712  12.375
45799W        W14162  34.573  11.331   3.632
45800W        W14163  32.513  39.923   0.251
45801W        W14164  24.141   1.392  12.826
45802W        W14165  30.132  40.014  11.433
45803W        W14166  33.039  27.106  11.588
45804W        W14167  30.535   7.845  10.638
45805W        W14168  33.906   4.710  14.784
45806W        W14169   3.813  33.547  10.990
45807W        W14170  37.960  32.469  13.867
45808W        W14171  27.088   6.866  13.965
45809W        W14172  27.186  32.455  11.373
45810W        W14173  11.781  14.705   4.281
45811W        W14174  26.599  22.691  12.482
45812W        W14175  43.897   8.668  12.933
45813W        W14176  23.161  23.143  13.464
45814W        W14177  13.256  13.639   1.924
45815W        W14178   1.860  31.541  13.403
45816W        W14179  40.935  31.469  11.039
45817W        W14180  14.808  15.755  12.356
45818W        W14181  40.006  30.632   4.291
45819W        W14182  24.586   4.435  14.957
45820W        W14183  31.984  30.524  11.577
45821W        W14184  13.614   9.661  12.483
45822W        W14185   0.899  17.743  10.943
45823W        W14186  38.018   1.248   2.736
45824W        W14187   7.244  12.337  14.759
45825W        W14188  12.158   5.755  12.468
45826W        W14189  26.604  44.816  11.914
45827W        W14190  12.361   8.349  13.528
45828W        W14191  41.440   9.360   1.858
45829W        W14192  42.799  36.511  13.425
45830W        W14193  38.501   9.374   1.221
45831W        W14194   9.754  43.401  12.408
45832W        W14195  43.882  38.547  11.534
45833W        W14196   6.710  14.109   4.666
45834W        W14197   1.863  18.183   0.340
45835W        W14198  31.468  36.021   0.734
45836W        W14199  22.085  11.205   4.723
45837W        W14200  25.096  16.703  10.540
45838W        W14201  11.267  41.485  14.499
45839W        W14202   8.273   4.363   2.813
45840W        W14203   6.327   6.396   5.202
45841W        W14204   1.858   9.334  14.295
45842W        W14205  14.591  25.972  11.091
45843W        W14206  21.584   5.392  12.413
45844W        W14207  14.800  32.969  13.380
45845W        W14208  29.078  11.833   4.678
45846W        W14209   4.315  22.706  11.373
45847W        W14210  37.385   3.852  14.279
45848W        W14211  16.265  39.524   3.319
45849W        W14212   7.254  37.489  14.885
45850W        W14213  22.023  18.214   3.324
45851W        W14214  44.310  32.569   4.200
45852W        W14215  18.095  38.523  10.527
45853W        W14216  33.405  14.291   1.424
45854W        W14217  40.805  25.110  12.966
45855W        W14218   9.153  39.063  11.465
45856W        W14219  27.181  18.132   3.755
45857W        W14220  16.175   4.407  12.466
45858W        W14221  12.356   9.287  13.322
45859W        W14222   3.397  44.297   4.161
45860W        W14223  37.859  31.496   3.298
45861W        W14224  36.531   5.744  12.388
45862W        W14225  23.108  15.240   3.211
45863W        W14226  22.110  23.719  14.795
45864W        W14227  31.412  19.639  12.354
45865W        W14228  41.017  30.587  10.497
45866W        W14229   5.312   1.779   4.671
45867W        W14230   1.252   1.243  14.783
45868W        W14231  18.737   4.279   1.755
45869W        W14232   5.231  30.531  12.853
45870W        W14233  17.659  34.051   2.228
45871W        W14234  14.653  17.724   2.894
45872W        W14235  12.805  33.416   4.310
45873W        W14236  12.169  31.599  13.058
45874W        W14237  43.446  28.666  14.804
45875W        W14238  42.309   9.682  11.019
45876W        W14239  24.616  33.907   2.793
45877W        W14240  30.023   7.267   0.353
45878W        W14241   4.441  36.927  10.586
45879W        W14242  17.690  17.096  12.086
45880W        W14243  16.314  33.876   0.792
45881W        W14244  42.381  43.483  10.961
45882W        W14245  24.086  15.105  13.475
45883W        W14246  30.056  16.253  13.995
45884W        W14247  40.882  38.412   0.728
45885W        W14248  39.822  31.515  13.969
45886W        W14249  26.196  44.423  14.370
45887W        W14250  32.629  16.787  11.445
45888W        W14251  18.766  27.961  12.383
45889W        W14252   8.212  25.190  13.442
45890W        W14253  39.443   6.186   3.765
45891W        W14254   7.802  12.775   3.182
45892W        W14255   6.255  25.640  11.910
45893W        W14256  33.548  42.872   1.224
45894W        W14257  12.812  42.422   0.837
45895W        W14258  13.237  41.787  13.349
45896W        W14259  41.010  13.182   0.392
45897W        W14260  35.918  42.955  11.522
45898W        W14261  29.161  22.501   1.913
45899W        W14262  10.242  19.705  12.916
45900W        W14263  16.648   4.366   1.696
45901W        W14264  14.263  14.248   0.313
45902W        W14265  37.445   2.904  10.933
45903W        W14266   3.299  37.550   4.753
45904W        W14267  26.104  41.508   1.245
45905W        W14268  23.985  41.308   4.191
45906W        W14269  12.331  18.157   0.918
45907W        W14270  42.798  10.320  10.948
45908W        W14271  30.650   0.256   1.440
45909W        W14272  24.978  41.467  12.967
45910W        W14273  22.713   9.697  14.346
45911W        W14274  12.614  32.049  10.488
45912W        W14275   6.329  43.944  13.815
45913W        W14276   0.860  44.963   0.804
45914W        W14277  34.379  43.343  10.621
45915W        W14278   4.940  36.579  13.368
45916W        W14279  39.912  15.806  13.877
45917W        W14280   0.417  18.633  12.402
45918W        W14281  23.124  40.334   2.754
45919W        W14282  32.522   5.691  11.909
45920W        W14283  32.593  17.182  10.534
45921W        W14284   9.746   0.938   1.389
45922W        W14285  20.568  44.870  11.414
45923W        W14286  21.686  29.479  13.509
45924W        W14287  42.856   3.240  13.022
45925W        W14288  37.875  29.028   1.694
45926W        W14289  28.999  44.340  12.432
45927W        W14290  14.724   0.797  13.834
45928W        W14291  20.104  18.644   2.684
45929W        W14292   1.823  23.084   5.081
45930W        W14293  19.653  31.638  12.435
45931W        W14294  34.433  27.968  14.772
45932W        W14295  24.062  27.165   1.810
45933W        W14296   1.384   4.281   4.114
45934W        W14297  40.955  35.540  14.473
45935W        W14298  32.632  14.269   2.278
45936W        W14299  27.189  26.975   2.787
45937W        W14300  10.355  30.952   2.688
45938W        W14301  18.277  37.390  12.027
45939W        W14302  15.802  34.076   0.840
45940W        W14303  32.106  34.032  11.926
45941W        W14304   2.726  43.965  11.014
45942W        W14305  10.851   3.724  12.977
45943W        W14306  12.843  35.110  14.982
45944W        W14307  42.470   0.248   1.732
45945W        W14308  18.725  38.375   3.859
45946W        W14309  16.253  22.650  10.887
45947W        W14310  30.524  40.842  11.462
45948W        W14311  34.877  15.152  10.535
45949W        W14312  14.722  38.458   2.836
45950W        W14313  18.606  33.039  11.093
45951W        W14314  27.661  24.548  10.906
45952W        W14315  28.618  33.555   2.828
45953W        W14316  10.262  10.694   4.660
45954W        W14317   8.161  18.055  13.436
45955W        W14318  19.262  20.185  12.851
45956W        W14319  20.529  40.486   2.724
45957W        W14320  15.255   6.213   1.782
45958W        W14321  37.496  13.707  12.852
45959W        W14322  17.159   5.418   1.844
45960W        W14323  23.699  34.918   3.371
45961W        W14324  40.048   4.350  10.568
45962W        W14325  31.934   1.920  11.445
45963W        W14326   2.278   9.726   3.854
45964W        W14327  21.643  14.812   4.153
45965W        W14328  19.580  33.617   1.345
45966W        W14329  17.122   5.354   2.199
45967W        W14330  13.201  32.494  14.916
45968W        W14331  19.116  14.098   0.338
45969W        W14332   2.327  22.222  13.548
45970W        W14333  26.639  14.250   1.408
45971W        W14334  14.787  42.296   1.760
45972W        W14335  34.987  10.833   0.846
45973W        W14336   6.907  40.380   1.871
45974W        W14337  40.864  26.551   5.182
45975W        W14338  23.215  24.151  10.438
45976W        W14339  22.132  27.582  12.021
45977W        W14340  28.152  22.215  14.810
45978W        W14341  44.955  37.989   0.807
45979W        W14342  13.247  42.955  10.154
45980W        W14343  19.746   5.294   0.866
45981W        W14344  43.978   8.709  11.538
45982W        W14345  43.302  33.570  12.371
45983W        W14346   1.352  10.375   0.799
45984W        W14347   5.436  13.303   2.879
45985W        W14348   3.939  18.254   3.250
45986W        W14349   6.224  33.449   2.702
45987W        W14350  36.545   9.648  13.063
45988W        W14351  44.993   1.357  13.967
45989W        W14352  10.706  26.138   1.427
45990W        W14353   0.806  10.706  12.029
45991W        W14354   7.172  32.552  14.275
45992W        W14355  20.583  26.540   3.332
45993W        W14356  14.780  17.287   3.268
45994W        W14357   7.286  14.130  12.414
45995W        W14358  23.504  28.161   1.269
45996W        W14359  29.950  26.498   0.797
45997W        W14360  38.503  13.663   0.960
45998W        W14361  32.906  16.172   1.281
45999W        W14362  33.416   8.276   0.797
46000W        W14363   9.702  37.555   2.399
46001W        W14364  15.279  21.075   3.242
46002W        W14365  26.967  27.154  11.602
46003W        W14366  18.224  25.108  12.536
46004W        W14367  39.366  16.677   2.746
46005W        W14368  40.370  10.352   9.970
46006W        W14369  20.719  36.091   4.122
46007W        W14370   7.184  37.020   4.733
46008W        W14371  37.845  38.901  14.405
46009W        W14372  11.850  38.822  12.361
46010W        W14373   3.369  42.443   1.752
46011W        W14374  10.313   2.333  11.021
46012W        W14375   6.887  18.051  14.365
46013W        W14376  14.226  18.212   2.777
46014W        W14377   5.718  20.767  11.981
46015W        W14378   4.812  36.537  14.374
46016W        W14379  29.962  41.836  10.998
46017W        W14380  15.298  32.487   1.365
46018W        W14381  31.518  15.177   4.196
46019W        W14382   8.762  17.148   4.300
46020W        W14383  43.489   3.746  13.000
46021W        W14384  29.615  42.970   1.451
46022W        W14385  33.388  37.974  11.527
46023W        W14386  33.971  41.420   0.899
46024W        W14387   4.823   1.378  13.873
46025W        W14388  23.645  40.924   3.193
46026W        W14389  37.431  16.608  13.475
46027W        W14390  39.033  12.792   2.773
46028W        W14391  44.432  44.362  14.336
46029W        W14392  35.577  40.440  11.977
46030W        W14393  37.506   0.343  14.407
46031W        W14394  18.703  20.199   1.368
46032W        W14395  33.384  16.787  12.383
46033W        W14396  17.742  44.947  13.035
46034W        W14397  13.260  37.049   3.238
46035W        W14398   2.370  35.088  13.969
46036W        W14399  42.787  16.780   4.711
46037W        W14400  40.843  23.203  14.283
46038W        W14401  33.466  41.806   3.669
46039W        W14402  21.080  26.026   4.836
46040W        W14403   2.371   9.261   4.150
46041W        W14404  30.000  30.651  11.609
46042W        W14405  22.669  42.867   4.142
46043W        W14406  25.016  25.123   4.731
46044W        W14407   5.333  35.402  13.536
46045W        W14408  27.180  30.920   0.419
46046W        W14409   9.799  14.312  12.983
46047W        W14410  31.012  16.155  10.432
46048W        W14411  13.264  18.555  13.817
46049W        W14412   1.325  21.722   2.690
46050W        W14413   9.316  20.533  12.982
46051W        W14414  39.970   6.786   2.817
46052W        W14415   3.311  12.749   3.804
46053W        W14416   4.876   1.850  11.925
46054W        W14417   5.715  16.769   2.682
46055W        W14418  33.554   9.688   0.928
46056W        W14419  40.925  28.662   4.616
46057W        W14420   1.347  25.150   3.756
46058W        W14421  26.613   5.432  11.041
46059W        W14422  18.610  35.558   1.237
46060W        W14423   5.793  12.317   2.671
46061W        W14424  32.947  28.442   3.311
46062W        W14425   2.441   5.396   1.323
46063W        W14426  22.027  12.355   3.703
46064W        W14427  25.573  31.082   0.261
46065W        W14428  26.055   6.816  11.523
46066W        W14429   0.274  21.032  12.408
46067W        W14430  25.711   3.377  12.884
46068W        W14431  21.179  12.229  12.087
46069W        W14432  33.621  33.462   1.370
46070W        W14433  10.350   7.256   2.227
46071W        W14434  14.715  18.102   0.479
46072W        W14435  22.721  24.521  13.808
46073W        W14436  41.939  27.511   4.686
46074W        W14437  33.534   5.379  14.889
46075W        W14438   8.882  21.217   1.311
46076W        W14439  41.013   4.411  12.362
46077W        W14440  21.105  34.558   0.876
46078W        W14441  36.076  42.520  12.352
46079W        W14442   9.678   2.251  10.592
46080W        W14443  18.104  25.015   0.421
46081W        W14444  33.482   1.870  10.926
46082W        W14445  30.609  39.974   3.725
46083W        W14446  21.250  34.905   1.924
46084W        W14447  26.011  22.032   3.205
46085W        W14448  28.934   8.690   0.941
46086W        W14449  29.015  12.145  13.817
46087W        W14450  21.721  38.496  12.046
46088W        W14451  22.625  31.978  12.476
46089W        W14452   3.406   1.845  11.593
46090W        W14453   8.690   3.438   1.287
46091W        W14454  30.039  20.182  14.825
46092W        W14455  13.835   8.873   0.331
46093W        W14456  37.539  15.817   0.295
46094W        W14457  33.894   3.436   0.740
46095W        W14458  33.883  35.501  11.441
46096W        W14459   1.416  32.072   4.254
46097W        W14460  30.611  31.432   2.309
46098W        W14461   6.354  41.033  10.995
46099W        W14462  35.048  16.629  14.515
46100W        W14463  23.666  17.799  10.407
46101W        W14464  11.811  30.500  13.846
46102W        W14465   2.397  16.611   3.842
46103W        W14466  42.913  12.814  14.423
46104W        W14467   3.742   3.302   2.762
46105W        W14468  24.498  31.960   0.940
46106W        W14469  13.223   2.818   4.716
46107W        W14470   0.843  14.225   1.919
46108W        W14471  43.282   4.288  11.070
46109W        W14472  41.828  38.900  10.897
46110W        W14473   9.271  35.914  13.801
46111W        W14474   2.358  33.522  14.004
46112W        W14475  26.039   0.841  12.000
46113W        W14476  33.018  22.127   3.194
46114W        W14477   2.430  23.588   2.215
46115W        W14478  14.622  21.247  11.535
46116W        W14479  44.428   2.835  14.415
46117W        W14480  37.559  25.693   1.934
46118W        W14481  25.168  41.439  10.554
46119W        W14482  44.775  25.021  11.890
46120W        W14483  37.457  21.732  14.858
46121W        W14484  22.131  30.530   0.934
46122W        W14485  30.935   9.718   3.314
46123W        W14486  28.029  34.487  10.458
46124W        W14487  13.162  43.286  14.295
46125W        W14488   4.906  30.992   3.850
46126W        W14489  42.365  43.939  10.465
46127W        W14490   0.890  42.467   4.130
46128W        W14491   5.376   1.939   3.699
46129W        W14492  25.598  23.228  10.961
46130W        W14493   0.440  33.904   4.810
46131W        W14494  19.111   9.890   1.449
46132W        W14495   9.354   8.815  10.633
46133W        W14496  11.340  28.044  14.502
46134W        W14497   0.489  37.037   3.153
46135W        W14498  20.257  24.981   4.788
46136W        W14499   1.428  18.159  13.054
46137W        W14500  44.287   8.260  14.478
46138W        W14501  19.766  17.691   1.381
46139W        W14502  14.742  30.162   1.831
46140W        W14503  30.972  15.153   3.832
46141W        W14504   2.427  31.518  10.890
46142W        W14505  30.497  15.176  13.509
46143W        W14506  10.838  37.482  13.414
46144W        W14507  18.199  11.139   2.733
46145W        W14508  27.572  44.859  10.561
46146W        W14509  35.084  31.006   1.315
46147W        W14510  44.367  33.397  11.057
46148W        W14511  37.941  13.676   4.165
46149W        W14512   7.311  38.976  10.450
46150W        W14513  26.083  43.778   0.880
46151W        W14514  18.284   6.900  10.569
46152W        W14515  29.924  16.743   4.795
46153W        W14516   2.318  25.493   4.755
46154W        W14517  15.773  39.967  13.345
46155W        W14518  18.744   4.439  12.385
46156W        W14519   8.250  43.809   2.812
46157W        W14520   1.779  40.536   0.792
46158W        W14521  27.977   0.336  12.919
46159W        W14522   0.830   3.229  13.481
46160W        W14523  37.009  19.719  14.329
46161W        W14524  44.378   6.309  14.357
46162W        W14525  29.175  25.993   4.626
46163W        W14526  17.239  22.048   4.832
46164W        W14527  20.104  15.699  12.496
46165W        W14528  30.489  30.963   3.715
46166W        W14529   6.730   6.715  13.985
46167W        W14530  12.350  26.519   4.694
46168W        W14531   3.951  19.697  13.476
46169W        W14532  10.757  16.782  11.599
46170W        W14533  16.201  22.202   0.816
46171W        W14534  24.006  28.991  13.490
46172W        W14535  14.632  33.042   2.812
46173W        W14536  20.576  18.563   1.256
46174W        W14537  13.604  17.782   3.749
46175W        W14538  25.979  21.703   3.252
46176W        W14539   3.445   8.866   2.415
46177W        W14540  11.775  33.907   0.822
46178W        W14541  15.300  28.966  11.474
46179W        W14542  35.452  13.605  11.095
46180W        W14543  28.118  41.483   0.316
46181W        W14544   9.184  12.835  14.334
46182W        W14545  18.600   5.808  10.474
46183W        W14546  29.525  30.490  10.079
46184W        W14547   9.735  41.826   3.716
46185W        W14548  38.563  40.867  11.860
46186W        W14549  29.580  29.559  13.831
46187W        W14550  23.997  39.493  13.945
46188W        W14551  13.309  26.133  13.477
46189W        W14552  16.086  36.422  11.592
46190W        W14553   3.368  23.631   1.768
46191W        W14554  15.792  44.952   4.224
46192W        W14555  37.889   7.185  13.384
46193W        W14556  24.042  11.235  13.437
46194W        W14557  29.579   2.240   2.183
46195W        W14558  18.758   4.748   0.391
46196W        W14559  20.191  30.129   4.624
46197W        W14560  36.559  15.287   0.823
46198W        W14561   5.336  12.341  12.348
46199W        W14562  23.661   7.345  13.473
46200W        W14563  13.774  23.697  12.536
46201W        W14564  19.605  36.495   3.789
46202W        W14565  44.471  17.110   3.806
46203W        W14566  30.584  42.370   3.723
46204W        W14567   5.868  41.292  13.969
46205W        W14568  40.432  42.508   1.248
46206W        W14569  15.663   6.781  14.445
46207W        W14570  17.626  14.824   3.305
46208W        W14571  22.229  44.483   1.908
46209W        W14572   3.436  43.791   1.897
46210W        W14573  30.005  20.166   2.185
46211W        W14574  30.038  13.692  10.927
46212W        W14575   9.203  34.397   4.117
46213W        W14576  36.581  43.867  10.568
46214W        W14577  12.801  25.038   0.368
46215W        W14578  15.096   7.283  12.977
46216W        W14579  17.793   4.435   2.880
46217W        W14580  24.106  21.121   4.781
46218W        W14581   5.334  32.977  14.988
46219W        W14582  42.429   7.318  12.916
46220W        W14583  41.876  11.724  11.489
46221W        W14584   1.474  26.523  11.022
46222W        W14585  36.885  20.074   2.262
46223W        W14586  12.744  29.132   0.754
46224W        W14587  11.722  23.080   0.895
46225W        W14588  16.191   9.693   0.452
46226W        W14589   2.339  34.017  14.300
46227W        W14590  13.300  19.708  13.855
46228W        W14591  10.289   4.815   2.789
46229W        W14592  38.044   4.239  13.001
46230W        W14593   5.253  40.422  12.067
46231W        W14594  28.167   4.421   4.617
46232W        W14595  13.350  36.420  13.412
46233W        W14596  36.956  40.372  14.920
46234W        W14597  25.190  10.699   3.801
46235W        W14598   1.467  30.144  13.328
46236W        W14599   2.454   6.238   0.247
46237W        W14600  16.718  36.863   3.236
46238W        W14601   9.819  27.168   1.277
46239W        W14602  42.359  25.569   3.156
46240W        W14603  20.703   5.195   2.771
46241W        W14604   6.345  33.921  14.374
46242W        W14605  20.572   7.271  14.848
46243W        W14606   6.339  11.672   4.151
46244W        W14607  33.130  15.693   4.191
46245W        W14608  38.358  42.357  14.407
46246W        W14609  17.587  10.312  10.469
46247W        W14610  13.713  34.099  12.415
46248W        W14611  43.471  43.014  12.551
46249W        W14612   2.256   2.340  13.501
46250W        W14613  20.589   6.202   2.874
46251W        W14614   0.896  10.761  14.489
46252W        W14615  30.967  31.001  12.860
46253W        W14616  35.021  39.534   1.435
46254W        W14617   4.363  27.953  12.917
46255W        W14618  25.470  18.175  14.382
46256W        W14619   2.465   3.341  13.894
46257W        W14620   4.750  41.828   2.804
46258W        W14621  43.367  31.544   0.745
46259W        W14622  19.099  18.651  12.037
46260W        W14623  18.582  33.013   4.170
46261W        W14624  42.870   1.738   0.781
46262W        W14625  10.212  43.515   1.440
46263W        W14626  38.518  13.130  10.004
46264W        W14627  10.633  20.580  13.401
46265W        W14628   2.430  19.242   2.663
46266W        W14629  44.971   8.245   3.764
46267W        W14630  22.626   8.189   4.310
46268W        W14631  27.040  20.240   1.772
46269W        W14632  34.006   3.329   1.304
46270W        W14633  40.994  44.998  12.462
46271W        W14634  41.493  42.369  13.910
46272W        W14635  12.649  40.387   1.390
46273W        W14636  17.567  23.547  14.426
46274W        W14637  34.441  25.679  10.939
46275W        W14638  11.737  26.689  12.542
46276W        W14639  32.899  14.131   1.719
46277W        W14640   4.268  37.349   3.310
46278W        W14641  33.990   2.290   5.579
46279W        W14642  40.807   2.858  10.427
46280W        W14643  13.657  27.183  10.953
46281W        W14644  21.126   3.713  14.334
46282W        W14645   0.382  40.990  10.485
46283W        W14646  11.638  22.743   4.708
46284W        W14647  26.114  31.906   4.703
46285W        W14648  37.403   3.234  10.097
46286W        W14649  36.514   8.249   2.327
46287W        W14650  32.540  40.376   1.212
46288W        W14651  38.904   5.360   4.683
46289W        W14652  11.831  17.191  11.863
46290W        W14653  11.840   0.775  11.411
46291W        W14654  28.052  13.274  11.873
46292W        W14655  16.762   9.321   1.864
46293W        W14656  43.477  27.606  12.908
46294W        W14657  11.686   3.869  14.995
46295W        W14658  38.942   9.744  14.278
46296W        W14659   5.354  28.567   0.383
46297W        W14660  15.094  33.959  11.856
46298W        W14661  19.619  30.532  13.922
46299W        W14662  20.595  15.203   3.379
46300W        W14663  17.114  40.502  13.507
46301W        W14664  38.038   0.392   2.415
46302W        W14665  16.639  10.141  12.411
46303W        W14666   6.816   0.441   4.674
46304W        W14667   9.171   5.273   2.827
46305W        W14668  37.879  31.468  12.493
46306W        W14669  40.846  35.063  14.893
46307W        W14670  32.898  36.431  11.530
46308W        W14671  36.987  23.033  12.871
46309W        W14672  23.014  23.567   0.889
46310W        W14673  11.288  25.539  12.986
46311W        W14674  38.856  24.543  14.365
46312W        W14675  36.006   5.381   3.171
46313W        W14676  30.559  38.983  10.553
46314W        W14677  44.479  23.241  13.397
46315W        W14678  26.101  40.965  12.036
46316W        W14679  18.120  38.031  12.339
46317W        W14680  38.916  34.479   4.779
46318W        W14681   0.989  39.545   3.360
46319W        W14682  12.713  44.404   3.706
46320W        W14683  27.647  14.605   1.874
46321W        W14684  39.849  39.919  12.989
46322W        W14685  16.187  14.799   3.806
46323W        W14686   2.860   8.815   3.802
46324W        W14687  43.845  44.496  12.845
46325W        W14688   9.271  23.220  13.057
46326W        W14689  27.511  25.601  14.286
46327W        W14690  34.883  18.557  12.979
46328W        W14691   9.801   3.777   3.261
46329W        W14692  39.510   1.478  11.000
46330W        W14693  12.772  11.362   0.404
46331W        W14694   2.904  44.368   4.150
46332W        W14695  33.404  11.784   0.922
46333W        W14696  25.094  27.991   2.748
46334W        W14697  19.596  23.493  13.392
46335W        W14698  33.074  30.477  12.913
46336W        W14699   5.373   1.971  11.994
46337W        W14700  35.991  36.021   2.202
46338W        W14701  29.164  41.843   1.846
46339W        W14702  11.214  12.207  12.941
46340W        W14703  32.610   3.899  11.383
46341W        W14704  21.519  16.797   1.294
46342W        W14705   2.865  34.914   0.410
46343W        W14706  26.648   5.306   3.233
46344W        W14707  30.919  14.596  14.513
46345W        W14708  28.048  17.104   5.304
46346W        W14709  17.715   9.316   4.792
46347W        W14710  42.506  37.874   5.775
46348W        W14711   5.815  32.408  12.944
46349W        W14712  38.464   9.291  13.900
46350W        W14713  43.924  29.976   0.764
46351W        W14714  37.071  33.129   3.866
46352W        W14715  17.202  33.570  14.513
46353W        W14716   7.727  15.254  11.941
46354W        W14717   2.413  38.980  10.517
46355W        W14718   4.239   2.381   1.212
46356W        W14719   4.265  25.480  14.909
46357W        W14720  25.114  28.038   1.244
46358W        W14721   5.405  18.138  11.569
46359W        W14722   7.201  12.744  14.379
46360W        W14723  25.493  18.109   2.292
46361W        W14724   3.398  19.639   0.785
46362W        W14725   0.287  41.999   3.175
46363W        W14726   0.775  23.107   9.960
46364W        W14727  18.620  28.436   0.293
46365W        W14728  12.338  11.163   0.748
46366W        W14729  21.143  12.147   4.216
46367W        W14730  18.182  31.017   1.823
46368W        W14731   1.338  24.196  13.381
46369W        W14732  44.960   1.408  11.061
46370W        W14733  43.340  25.134  11.372
46371W        W14734  38.867  32.523   1.868
46372W        W14735  41.293  10.324   3.164
46373W        W14736  20.651  36.354   1.336
46374W        W14737  13.664  39.873   0.950
46375W        W14738  26.194  25.613  14.442
46376W        W14739  14.611  15.089   3.841
46377W        W14740  37.547  11.779  14.489
46378W        W14741  29.500  32.895   1.854
46379W        W14742  38.474  10.813  13.458
46380W        W14743  15.584  32.530   9.951
46381W        W14744   7.251   1.394   1.871
46382W        W14745   3.228  41.379  14.496
46383W        W14746  43.492  40.994   0.374
46384W        W14747  13.215  27.995  14.932
46385W        W14748  33.875  41.353   1.341
46386W        W14749  14.245  43.344  14.413
46387W        W14750   3.879  15.737   2.260
46388W        W14751   2.245  31.543  13.508
46389W        W14752  33.017   7.386   2.723
46390W        W14753  16.725  21.598   0.754
46391W        W14754   2.306  29.112  12.471
46392W        W14755  15.749  29.536   2.867
46393W        W14756  22.744   2.852  10.124
46394W        W14757  11.212   6.270   0.822
46395W        W14758   2.354  31.427   2.257
46396W        W14759   4.270  14.744  11.475
46397W        W14760  21.603  44.932   3.164
46398W        W14761  40.476  31.003  11.909
46399W        W14762  15.765  14.165  11.551
46400W        W14763   0.364   0.883   3.710
46401W        W14764  15.715  20.181  11.403
46402W        W14765  44.881  44.441  11.384
46403W        W14766  35.378  20.069   0.331
46404W        W14767  22.174  38.852  11.050
46405W        W14768  41.477  36.095  11.419
46406W        W14769  29.630  28.561  13.492
46407W        W14770   0.892  11.736   9.958
46408W        W14771  18.714  19.741   1.431
46409W        W14772  36.097  11.312   0.831
46410W        W14773   4.379   0.823  14.994
46411W        W14774  37.016  19.148  12.396
46412W        W14775  17.686  38.961   3.847
46413W        W14776  13.136   5.878  11.927
46414W        W14777  11.728  16.246  12.349
46415W        W14778  31.928  43.805   1.408
46416W        W14779  29.584  22.624   3.266
46417W        W14780  40.340  35.084   3.336
46418W        W14781  17.203  43.292   2.295
46419W        W14782  36.888  30.134   2.316
46420W        W14783  35.022  30.565   2.202
46421W        W14784  23.514   8.660   4.173
46422W        W14785  35.079  17.062   2.323
46423W        W14786  28.590   5.717  13.359
46424W        W14787  32.130  35.053  10.416
46425W        W14788  13.808   7.310  12.404
46426W        W14789  29.479  19.734   2.805
46427W        W14790   4.296  24.665  14.848
46428W        W14791   0.895  36.842  11.480
46429W        W14792  12.737   5.229  11.905
46430W        W14793  36.385   6.367   3.315
46431W        W14794  20.715  43.334  11.542
46432W        W14795   8.730  44.360   1.212
46433W        W14796  24.626   7.289  13.496
46434W        W14797   5.381   0.775  11.873
46435W        W14798   1.943  26.544   1.867
46436W        W14799  22.510  29.063  11.046
46437W        W14800  25.053  40.817   4.150
46438W        W14801  36.009  27.517   2.867
46439W        W14802  24.711  36.011   1.260
46440W        W14803   4.308  28.142   2.773
46441W        W14804  33.120  16.182   3.327
46442W        W14805  18.255  19.592   1.296
46443W        W14806  36.867  18.057  10.931
46444W        W14807   5.408  40.358  11.095
46445W        W14808  40.811  26.085  11.531
46446W        W14809   7.172  18.225  11.562
46447W        W14810   0.270  12.312  12.991
46448W        W14811  44.350  16.649  14.759
46449W        W14812  30.055  43.838  14.784
46450W        W14813  30.544  13.163   3.861
46451W        W14814  22.645  18.209   2.290
46452W        W14815   6.757   7.801   2.792
46453W        W14816  15.811  31.619  14.447
46454W        W14817  44.897   1.331   0.897
46455W        W14818  20.188   9.350   3.852
46456W        W14819  20.042  24.213  13.846
46457W        W14820   7.192  31.457  12.566
46458W        W14821  26.598  31.496  14.772
46459W        W14822  18.071  43.905  11.430
46460W        W14823  33.929  32.920  12.456
46461W        W14824   0.266   2.411  12.875
46462W        W14825   1.322  21.141   1.934
46463W        W14826   3.244  42.012  11.958
46464W        W14827  17.141  13.787   2.848
46465W        W14828  21.253   1.957   2.715
46466W        W14829  37.474  25.016   2.408
46467W        W14830  28.468  21.020   3.678
46468W        W14831  18.776   1.843   2.831
46469W        W14832  17.077  24.188   4.265
46470W        W14833  38.903  43.768   1.725
46471W        W14834   4.822  40.312   0.762
46472W        W14835   5.407  39.917  11.974
46473W        W14836  25.702  19.247   1.429
46474W        W14837  17.683   4.372  14.793
46475W        W14838  28.089  23.088  10.609
46476W        W14839  29.937  37.013  10.483
46477W        W14840  40.370   3.726   0.322
46478W        W14841  30.020  38.837   0.818
46479W        W14842  41.814  33.912   1.266
46480W        W14843   9.784   7.722  12.388
46481W        W14844   1.735  37.074  10.540
46482W        W14845  20.250  17.269  14.975
46483W        W14846  14.831  40.310   2.872
46484W        W14847  44.006   9.674   2.781
46485W        W14848  14.639  25.144   4.690
46486W        W14849  44.877  24.121  12.859
46487W        W14850  29.670   2.445   2.767
46488W        W14851  44.876  18.636  12.391
46489W        W14852  15.702   5.722   1.396
46490W        W14853   5.329  27.631   1.720
46491W        W14854  31.051  26.463  11.605
46492W        W14855  26.060  16.730   2.263
46493W        W14856  23.594  44.926   2.385
46494W        W14857  38.421  27.657   0.778
46495W        W14858   1.884  21.753  13.328
46496W        W14859  17.696  39.920   0.430
46497W        W14860  14.131  35.035  12.996
46498W        W14861   8.292  14.099   2.738
46499W        W14862   6.311  32.021  10.543
46500W        W14863  37.361  28.069  11.997
46501W        W14864  16.254  35.866   2.232
46502W        W14865  38.982  17.095   0.350
46503W        W14866  39.346  29.933  10.947
46504W        W14867  33.533  26.955   0.249
46505W        W14868  22.669  18.775  13.372
46506W        W14869  42.962  31.459  11.503
46507W        W14870  23.698  38.927   3.684
46508W        W14871  29.982  44.775   1.431
46509W        W14872  34.863  13.144  11.957
46510W        W14873  31.518  30.026   5.126
46511W        W14874  37.020   2.335  12.985
46512W        W14875   2.315  44.408   3.706
46513W        W14876   2.891  37.002   0.765
46514W        W14877  29.096   8.867   1.846
46515W        W14878  13.171   0.921   4.214
46516W        W14879   7.679   5.254  11.128
46517W        W14880   3.711  31.448  11.012
46518W        W14881  15.272  26.607   0.920
46519W        W14882   6.218  12.264  11.988
46520W        W14883  17.119  26.684   3.369
46521W        W14884   0.313   9.774  14.964
46522W        W14885  44.770  12.332  13.415
46523W        W14886   9.320  26.550  14.308
46524W        W14887  27.009  41.458  12.518
46525W        W14888  34.404  36.455  14.888
46526W        W14889  26.576  34.474   2.754
46527W        W14890  41.491  38.888   3.690
46528W        W14891  22.170  21.670  13.411
46529W        W14892  11.234   1.435   0.255
46530W        W14893  35.877  32.477   2.291
46531W        W14894  42.898   8.329   3.764
46532W        W14895  18.070  10.153  13.546
46533W        W14896  39.965   5.810  14.976
46534W        W14897  20.170  15.776  14.929
46535W        W14898  39.339  26.145  14.900
46536W        W14899  11.141  33.537   4.767
46537W        W14900  29.557  15.117   3.385
46538W        W14901  28.660  28.026  14.857
46539W        W14902  38.975   8.176  11.076
46540W        W14903   2.299   1.811   4.316
46541W        W14904   9.786   6.285   1.744
46542W        W14905  18.164   0.433   3.308
46543W        W14906   7.252  16.786   0.874
46544W        W14907  22.039  13.671  14.000
46545W        W14908   5.692  13.326   4.238
46546W        W14909  30.132  16.289  12.025
46547W        W14910   5.284  30.942   2.378
46548W        W14911   3.453  40.521  14.405
46549W        W14912  21.023  38.536  13.890
46550W        W14913   8.707  21.545   2.759
46551W        W14914  12.777  43.388  14.349
46552W        W14915  27.068   7.686   1.712
46553W        W14916  18.725  24.640  10.969
46554W        W14917   7.171  37.051   2.304
46555W        W14918  26.099  27.022  12.994
46556W        W14919  36.091   2.377  12.844
46557W        W14920  34.474  29.611   0.245
46558W        W14921   6.731  10.140   2.238
46559W        W14922   4.909   6.735  15.000
46560W        W14923  20.126   8.837  12.912
46561W        W14924  18.669  33.451  13.315
46562W        W14925  11.282  33.986  13.982
46563W        W14926  12.351  26.649  13.872
46564W        W14927  22.161  30.517  11.545
46565W        W14928   6.780   4.746   3.733
46566W        W14929  31.578  33.958   3.664
46567W        W14930  44.383  16.807  11.078
46568W        W14931  37.018   3.333   3.710
46569W        W14932  31.047  18.104  13.817
46570W        W14933   2.466  11.289   0.881
46571W        W14934  26.961  36.942   1.382
46572W        W14935  44.937  33.601  14.412
46573W        W14936  15.624  29.938  11.909
46574W        W14937  42.885  39.864   2.706
46575W        W14938  14.272   2.942  11.934
46576W        W14939  27.609   3.347  10.980
46577W        W14940  10.761  23.210   2.697
46578W        W14941  18.653   0.940  12.574
46579W        W14942   5.434  17.271  11.443
46580W        W14943   0.273  14.668   0.867
46581W        W14944  18.054  27.679   3.233
46582W        W14945  35.502  33.078  13.821
46583W        W14946   4.760  17.638  11.451
46584W        W14947  30.440  20.202   1.414
46585W        W14948  20.544  17.086  11.098
46586W        W14949  30.497  36.893   2.322
46587W        W14950  36.091  37.074  12.452
46588W        W14951  11.645  26.956  12.920
46589W        W14952  33.455   1.970   4.687
46590W        W14953  42.311  17.723  10.996
46591W        W14954   3.312  34.999   1.907
46592W        W14955   0.784   8.879  13.342
46593W        W14956   9.291   8.284  10.642
46594W        W14957  39.981  34.004  14.323
46595W        W14958  35.513  21.114   1.299
46596W        W14959  11.207  31.046  10.602
46597W        W14960  36.899  30.577   1.855
46598W        W14961  29.936  15.112   4.786
46599W        W14962  14.795  41.913  13.380
46600W        W14963  27.676  37.495   0.754
46601W        W14964  38.948  41.306   4.656
46602W        W14965  11.208   6.383   4.752
46603W        W14966  21.542  21.624  10.579
46604W        W14967  27.549  18.073  14.503
46605W        W14968  21.637  41.332   5.258
46606W        W14969  18.742   3.904  10.994
46607W        W14970   0.342   4.893  11.905
46608W        W14971  19.553  17.159  13.827
46609W        W14972   1.758  25.037   1.715
46610W        W14973   6.394  16.223   3.660
46611W        W14974  27.135  17.221   3.240
46612W        W14975   0.939  23.116  11.004
46613W        W14976  10.164  11.730  14.809
46614W        W14977  12.320   9.708   2.793
46615W        W14978   7.898  11.862  10.528
46616W        W14979  19.701  16.757   4.214
46617W        W14980  34.450  12.774  10.987
46618W        W14981  11.209  35.889  13.426
46619W        W14982  42.349  29.989  11.962
46620W        W14983  40.372  14.692   4.773
46621W        W14984  18.685   6.707   1.907
46622W        W14985  27.640   7.900  10.457
46623W        W14986  36.997  29.074  10.998
46624W        W14987  41.294  29.608  13.888
46625W        W14988  33.030   3.734  10.464
46626W        W14989  23.200  19.245  14.976
46627W        W14990   2.422  19.061   1.700
46628W        W14991  17.691  31.093  14.303
46629W        W14992  24.643   3.449   4.312
46630W        W14993  16.138  40.329  14.310
46631W        W14994  38.963  32.040  10.431
46632W        W14995   8.698   1.936  14.843
46633W        W14996  10.632  25.593   0.314
46634W        W14997  11.345  34.934  13.501
46635W        W14998  22.225  13.628  14.770
46636W        W14999  30.626  32.604  14.839
46637W        W15000   4.870  15.589   3.630
46638W        W15001  21.209  16.312   3.269
46639W        W15002  29.635  22.607   2.297
46640W        W15003  39.529  24.228   4.263
46641W        W15004  34.079  37.364  12.458
46642W        W15005  35.109  14.135   4.271
46643W        W15006  15.166  19.658   2.729
46644W        W15007  36.080  19.149  14.848
46645W        W15008  44.807  23.063   0.440
46646W        W15009  24.002   3.923  13.426
46647W        W15010  15.316  22.135  13.528
46648W        W15011  19.237  41.439   2.767
46649W        W15012  35.877  32.611   1.421
46650W        W15013  21.108  38.993   4.605
46651W        W15014  35.449  12.723   1.715
46652W        W15015  38.508   1.472   2.800
46653W        W15016  31.999  31.132  14.972
46654W        W15017  32.454   6.853  14.468
46655W        W15018   5.858   4.219   0.884
46656W        W15019  29.041  18.775   4.191
46657W        W15020  28.515  12.708   0.938
46658W        W15021  13.334   5.369  12.509
46659W        W15022  41.346  42.785   1.901
46660W        W15023  14.165  29.088  13.865
46661W        W15024  37.355  39.359   3.787
46662W        W15025   3.803  20.604  12.933
46663W        W15026  14.676  38.998   5.110
46664W        W15027  44.814  16.719  13.541
46665W        W15028  23.089  16.566   4.296
46666W        W15029  21.213  20.665  14.281
46667W        W15030  36.347  34.490  12.082
46668W        W15031  20.064  27.671  10.425
46669W        W15032  44.002   4.286  13.432
46670W        W15033  22.715  39.894  12.049
46671W        W15034  12.825  43.434  14.933
46672W        W15035  21.024  14.207   3.383
46673W        W15036  20.531   8.315  12.990
46674W        W15037  38.071  23.708   0.857
46675W        W15038  38.044  14.150  12.347
46676W        W15039  18.054  32.399   4.793
46677W        W15040  29.666   6.748   1.324
46678W        W15041  17.183  35.380   1.740
46679W        W15042  23.201  29.092  12.014
46680W        W15043  40.879  15.752   4.207
46681W        W15044  12.666   7.878  12.825
46682W        W15045   0.957  35.866  14.356
46683W        W15046  37.071  31.006  14.976
46684W        W15047  17.258   1.942   4.328
46685W        W15048  28.450  40.900  11.874
46686W        W15049  16.090  36.025  14.449
46687W        W15050  30.919   3.293   3.812
46688W        W15051  29.557  23.670   1.344
46689W        W15052   6.844  32.034   3.352
46690W        W15053  30.163  18.611   4.351
46691W        W15054  41.313  40.047   3.843
46692W        W15055   3.874  37.861   2.178
46693W        W15056   6.773  28.130  13.824
46694W        W15057  16.157  41.843  13.458
46695W        W15058  40.826  11.361   2.723
46696W        W15059  15.126  23.694   2.232
46697W        W15060   7.802  42.925   2.336
46698W        W15061  35.584  36.889  14.458
46699W        W15062  26.553  17.640  14.493
46700W        W15063  30.147  33.587   4.710
46701W        W15064  36.524   6.802  11.969
46702W        W15065   4.854   3.285  14.505
46703W        W15066  22.152   0.469  11.952
46704W        W15067  15.273  34.589   3.372
46705W        W15068   2.327  26.511  12.575
46706W        W15069   9.768  23.031  12.370
46707W        W15070   7.269  35.953  12.486
46708W        W15071  10.208  35.557  13.890
46709W        W15072  13.233  27.658   1.781
46710W        W15073   4.881  39.832  11.916
46711W        W15074  37.024   9.666   4.766
46712W        W15075  41.881  25.580   4.345
46713W        W15076  27.991  12.685  14.447
46714W        W15077  19.621  29.576   3.294
46715W        W15078   4.898  42.414  12.070
46716W        W15079  36.969  21.545   2.815
46717W        W15080  32.944  40.397  11.932
46718W        W15081  25.493  32.470  11.913
46719W        W15082   0.455  35.502   1.729
46720W        W15083  40.362  24.516  12.446
46721W        W15084  36.532  33.926   4.658
46722W        W15085  20.069  13.734  14.290
46723W        W15086  34.941  29.532  11.533
46724W        W15087  21.737  22.507   1.724
46725W        W15088   3.222  17.648  14.006
46726W        W15089   5.409  17.602   1.249
46727W        W15090  23.591  25.202   4.200
46728W        W15091  24.587  39.816   3.743
46729W        W15092  17.207  36.939   2.678
46730W        W15093  35.530  11.301  14.382
46731W        W15094  42.346  23.682   4.636
46732W        W15095   1.344  13.264   2.392
46733W        W15096  41.430  19.222  12.410
46734W        W15097  22.040  15.325   2.275
46735W        W15098  38.919  32.055   2.320
46736W        W15099  33.101  17.679   2.349
46737W        W15100  44.453  33.078  14.305
46738W        W15101  11.786  37.858   0.770
46739W        W15102  21.692  13.813   0.940
46740W        W15103   2.261  22.105  12.903
46741W        W15104   4.299  38.935   3.181
46742W        W15105  29.122  26.157   2.382
46743W        W15106  16.771   4.290  13.896
46744W        W15107  37.920  17.145   3.746
46745W        W15108  26.986   5.733   1.390
46746W        W15109  37.915  42.359   0.859
46747W        W15110   7.748   2.794  11.072
46748W        W15111  38.968  22.094  14.515
46749W        W15112  12.758   1.466   4.114
46750W        W15113   2.808  22.158  11.439
46751W        W15114  41.797  39.949   5.167
46752W        W15115  38.420   2.255   1.857
46753W        W15116  21.040  34.975  10.525
46754W        W15117  36.014  10.327   0.481
46755W        W15118  28.130   0.819   4.667
46756W        W15119   0.318  34.872  11.587
46757W        W15120  16.661  31.107   4.263
46758W        W15121  44.447  40.994  11.897
46759W        W15122  27.953  11.704  12.938
46760W        W15123  15.618  20.570  11.034
46761W        W15124   3.428  14.311   2.777
46762W        W15125   9.373   9.865   0.301
46763W        W15126  14.301   0.476   2.274
46764W        W15127  15.177  14.624  11.097
46765W        W15128  42.932   5.327   2.244
46766W        W15129  13.327  33.512  10.602
46767W        W15130  34.510  30.486   3.668
46768W        W15131  18.182  20.726  12.966
46769W        W15132  23.716  19.649   3.181
46770W        W15133  10.373  18.633   5.315
46771W        W15134  11.801  33.493   0.855
46772W        W15135   5.727  44.965   3.782
46773W        W15136   9.856   4.205  14.833
46774W        W15137  36.388  43.940  14.802
46775W        W15138   2.332  24.993  10.576
46776W        W15139  41.536  36.869   1.438
46777W        W15140  36.409  12.786   2.286
46778W        W15141  34.013  42.400   4.710
46779W        W15142  41.522  25.708   1.849
46780W        W15143  37.970  36.488   0.282
46781W        W15144  30.967  13.132  13.426
46782W        W15145  19.265   9.749   4.670
46783W        W15146  40.861  29.042  13.870
46784W        W15147  23.166  30.480   4.240
46785W        W15148  41.466  19.627  12.350
46786W        W15149  22.041   7.220  12.353
46787W        W15150  11.345  31.433  12.541
46788W        W15151   0.881   7.333   4.687
46789W        W15152  20.149  23.678   0.967
46790W        W15153  29.609  27.073   2.311
46791W        W15154  40.469  25.569   0.246
46792W        W15155  40.449  35.078  13.428
46793W        W15156   6.383   5.897  11.002
46794W        W15157  30.442  16.107  13.823
46795W        W15158  29.509  27.545  11.858
46796W        W15159  11.282   4.840  11.503
46797W        W15160  11.138   1.419  10.434
46798W        W15161   8.831   3.927  12.466
46799W        W15162  37.569  37.480   3.721
46800W        W15163  34.460  16.651  11.909
46801W        W15164  13.790  43.891   4.711
46802W        W15165  21.719  31.639  14.960
46803W        W15166  17.208  31.529  10.072
46804W        W15167  28.040  23.735   4.641
46805W        W15168   0.466  36.858   0.955
46806W        W15169  25.977  40.334   4.805
46807W        W15170  30.492   9.732   0.385
46808W        W15171  33.086   9.645   0.861
46809W        W15172   2.938   9.291  13.877
46810W        W15173  30.125  40.806   3.813
46811W        W15174  44.861   5.202  11.384
46812W        W15175  37.495  44.325  11.018
46813W        W15176  21.238  35.365   0.952
46814W        W15177  32.571   4.826   3.703
46815W        W15178   3.225  33.534   2.748
46816W        W15179   0.852  32.606   2.310
46817W        W15180  41.454  14.322   3.857
46818W        W15181  44.868  20.565   1.757
46819W        W15182  12.728  18.698   3.180
46820W        W15183  35.583  19.610   1.933
46821W        W15184   4.720  22.021   0.428
46822W        W15185  36.549  23.158  11.599
46823W        W15186  20.704  21.148  10.897
46824W        W15187  26.070  14.595   5.141
46825W        W15188  39.872  35.448  11.513
46826W        W15189  35.013  12.673   3.842
46827W        W15190   2.942  36.913  14.804
46828W        W15191  20.744   9.718   4.777
46829W        W15192   4.752  16.094   1.357
46830W        W15193  19.124  32.978   1.849
46831W        W15194   3.767  18.677  13.316
46832W        W15195  20.273   0.300   0.947
46833W        W15196  42.390  16.763  10.961
46834W        W15197  10.353  37.399   1.788
46835W        W15198  43.936   0.870   4.136
46836W        W15199  25.648  42.964  14.973
46837W        W15200  22.626  12.794  12.937
46838W        W15201  28.466  17.794   1.726
46839W        W15202  21.112   5.275   0.309
46840W        W15203  29.470   8.889  14.342
46841W        W15204   2.872  34.579  12.055
46842W        W15205  38.984  31.599  11.000
46843W        W15206   0.364  38.069  11.918
46844W        W15207  12.764  13.206   1.871
46845W        W15208  26.003  41.849   1.247
46846W        W15209  17.627  17.565   1.847
46847W        W15210  10.810   8.253   1.359
46848W        W15211  42.901  12.273  12.549
46849W        W15212  10.322  26.700   3.848
46850W        W15213  34.503  12.769   4.766
46851W        W15214  35.476  43.272  13.475
46852W        W15215  10.173   8.673   1.276
46853W        W15216  33.888  25.536  12.073
46854W        W15217   0.473   1.395  11.475
46855W        W15218   0.382  24.193   4.659
46856W        W15219  34.038  25.540   3.356
46857W        W15220  17.163  16.575   3.173
46858W        W15221  14.747  31.134  11.491
46859W        W15222  20.258  18.266  10.510
46860W        W15223  17.081  24.182   0.886
46861W        W15224  17.604  14.654  14.002
46862W        W15225  43.900  42.030  12.872
46863W        W15226  25.190   5.220   4.761
46864W        W15227  43.887  17.788  13.881
46865W        W15228  33.620  40.801  10.556
46866W        W15229  30.487  43.832  11.895
46867W        W15230  44.392  26.057  14.454
46868W        W15231  27.003  29.042  14.923
46869W        W15232  30.632  26.457  10.427
46870W        W15233  23.580  33.015   0.309
46871W        W15234  36.025  30.487   2.672
46872W        W15235  20.732  21.219   2.773
46873W        W15236  39.354  38.031  11.088
46874W        W15237  15.189  26.204  11.867
46875W        W15238  42.820   1.816  10.598
46876W        W15239  13.781  17.194   4.784
46877W        W15240  39.543  43.381  11.013
46878W        W15241   0.339   0.931   0.883
46879W        W15242  18.580  23.585   1.405
46880W        W15243  16.715  42.490  12.058
46881W        W15244  39.006   6.254   0.764
46882W        W15245  44.948  12.201  10.447
46883W        W15246  39.390  30.039  11.415
46884W        W15247   4.294  19.662  14.486
46885W        W15248  13.813  11.360  13.057
46886W        W15249  44.913  34.595   4.620
46887W        W15250   2.875  12.692  10.898
46888W        W15251  33.888   3.907   4.174
46889W        W15252  33.111  42.928   3.274
46890W        W15253  18.120  10.381  11.449
46891W        W15254  33.446  13.843  11.512
46892W        W15255  24.600  11.219   2.721
46893W        W15256  14.141   1.795  12.994
46894W        W15257  34.411   1.288  11.015
46895W        W15258  40.939  11.140  13.862
46896W        W15259  11.684  14.125   4.265
46897W        W15260  28.950  17.740   4.708
46898W        W15261  17.308  12.663  13.862
46899W        W15262   5.375  24.029   0.860
46900W        W15263  16.641   3.216   2.717
46901W        W15264  31.462  29.936   1.445
46902W        W15265  40.486  15.314   4.729
46903W        W15266   1.884   0.852   1.335
46904W        W15267  25.001  41.416   1.413
46905W        W15268   4.231  28.615  14.014
46906W        W15269  18.240   9.708  10.625
46907W        W15270  12.646  18.789   0.792
46908W        W15271  10.325  27.525   3.713
46909W        W15272   1.765  41.977   1.790
46910W        W15273  44.288  10.823  12.050
46911W        W15274  14.147  41.428   0.858
46912W        W15275  41.958  22.249   3.725
46913W        W15276  34.511  12.743  11.552
46914W        W15277   9.691  44.983  14.934
46915W        W15278  43.912  30.624   1.834
46916W        W15279  38.898  27.539   4.626
46917W        W15280  26.486   7.859  12.921
46918W        W15281  11.212  36.091  14.983
46919W        W15282  22.694  44.976   3.387
46920W        W15283  27.024  14.164  11.056
46921W        W15284   4.390   0.748   5.202
46922W        W15285   3.756  43.957  14.308
46923W        W15286  43.437  39.528  14.907
46924W        W15287   5.373  17.219   1.789
46925W        W15288  26.108  44.445   2.203
46926W        W15289  38.043  43.377   0.964
46927W        W15290   7.672   8.834  11.937
46928W        W15291  17.766  38.904   4.139
46929W        W15292   0.479   0.802  12.389
46930W        W15293  23.716  38.959  13.316
46931W        W15294  32.410  42.825  14.969
46932W        W15295  39.546  14.611   0.454
46933W        W15296   3.284  20.196  14.837
46934W        W15297  15.238  33.397  13.516
46935W        W15298  33.603  30.091  10.018
46936W        W15299   1.879  35.426   4.629
46937W        W15300  35.449  11.243   2.223
46938W        W15301  26.519  34.601   3.672
46939W        W15302  42.962  30.088   1.319
46940W        W15303  20.055  26.132  13.033
46941W        W15304  30.930  15.218  12.891
46942W        W15305  25.218  43.297   4.625
46943W        W15306  30.474  22.576   2.777
46944W        W15307  28.932  41.525  12.495
46945W        W15308   0.760  25.564   3.205
46946W        W15309  41.471  19.543  13.987
46947W        W15310  20.657   4.935  10.157
46948W        W15311  32.995  29.931  13.825
46949W        W15312  41.037  37.931   1.919
46950W        W15313  38.354  30.001  13.435
46951W        W15314  24.577  17.713   3.835
46952W        W15315  23.986   2.438  13.336
46953W        W15316  26.147  41.342   4.295
46954W        W15317   9.689  23.696  11.048
46955W        W15318   0.454  21.137   2.385
46956W        W15319  29.424   5.922  14.442
46957W        W15320  20.654  43.891   0.774
46958W        W15321  21.145   1.871  13.958
46959W        W15322  37.916  36.925  11.427
46960W        W15323   8.311  32.997  11.023
46961W        W15324  28.085  32.937   0.903
46962W        W15325   5.741  12.790   2.822
46963W        W15326  36.545  23.610  11.034
46964W        W15327   5.196  10.742   0.757
46965W        W15328   8.859   6.887  14.430
46966W        W15329  35.373  21.741  13.855
46967W        W15330   2.924  11.193  13.022
46968W        W15331  34.392  44.262   4.304
46969W        W15332   6.717  21.623   3.715
46970W        W15333   6.857  44.290  12.051
46971W        W15334  25.634  34.373  10.506
46972W        W15335   4.439  18.079   4.828
46973W        W15336   6.891  34.580  13.828
46974W        W15337  32.088  15.589  13.514
46975W        W15338  29.628   6.188   0.817
46976W        W15339  42.819  36.500  12.572
46977W        W15340  35.923  35.102  12.970
46978W        W15341  16.155   9.187   2.672
46979W        W15342   2.807  28.581  10.509
46980W        W15343  42.837  12.618  12.038
46981W        W15344  25.029  31.020   1.338
46982W        W15345  34.439   0.477   3.712
46983W        W15346   8.328  19.676   0.748
46984W        W15347   8.860   8.339  14.462
46985W        W15348  33.504  11.732  12.052
46986W        W15349  42.479  14.224   1.840
46987W        W15350   1.848  24.203  10.145
46988W        W15351   8.889  39.495   0.475
46989W        W15352   2.328  25.618  13.516
46990W        W15353   1.430  43.358  12.374
46991W        W15354  10.242   3.894  13.344
46992W        W15355   1.972  37.948   4.317
46993W        W15356  21.688  38.035   2.723
46994W        W15357  30.559  10.292   2.781
46995W        W15358  13.133   4.210  12.063
46996W        W15359  21.089   6.380  11.517
46997W        W15360  20.158  26.456  12.935
46998W        W15361  14.286   7.710  13.807
46999W        W15362  18.630  14.663  11.058
47000W        W15363  24.715  10.694  11.047
47001W        W15364  37.379  15.319   3.273
47002W        W15365  18.236  39.350  11.521
47003W        W15366  29.985  27.446  14.427
47004W        W15367  28.082  38.423   4.749
47005W        W15368  31.580   8.845   3.305
47006W        W15369  40.935  20.697   0.882
47007W        W15370  23.686  11.310  11.984
47008W        W15371  29.513  27.547   1.326
47009W        W15372   8.704  29.087   1.915
47010W        W15373  41.512  17.283   1.329
47011W        W15374   6.737   3.937  14.334
47012W        W15375  37.981  11.256   4.253
47013W        W15376   6.281  28.986  14.027
47014W        W15377  16.810   1.257   0.408
47015W        W15378  21.649  32.590  12.907
47016W        W15379   4.728  15.276   9.932
47017W        W15380  40.545  11.709   9.979
47018W        W15381  30.538  29.081   0.260
47019W        W15382   3.864  16.137   3.674
47020W        W15383  30.465  23.033  13.861
47021W        W15384  20.177   8.870  12.379
47022W        W15385  30.424  31.961   4.280
47023W        W15386   5.907  13.650  10.537
47024W        W15387  27.949  40.485   2.706
47025W        W15388  15.594   0.973   4.668
47026W        W15389   7.235  30.944  11.125
47027W        W15390  30.416  43.406  11.396
47028W        W15391  30.553  16.695  11.502
47029W        W15392   5.420  24.996  13.836
47030W        W15393  14.785  23.683  12.089
47031W        W15394  34.472  25.219  14.765
47032W        W15395   6.800  20.651   0.905
47033W        W15396  15.102   5.418  12.406
47034W        W15397  25.966  43.882   1.786
47035W        W15398   7.666  42.496   3.703
47036W        W15399  20.108  41.820   0.267
47037W        W15400  21.544  43.772  12.076
47038W        W15401   5.895  21.094   1.857
47039W        W15402  23.178  43.332  13.530
47040W        W15403  22.704  28.174   2.753
47041W        W15404  22.154  15.274  12.999
47042W        W15405  27.562  16.723   2.843
47043W        W15406  11.222  37.855  12.379
47044W        W15407  41.463  23.010   0.373
47045W        W15408  27.030  17.715   3.146
47046W        W15409  40.953  44.846   4.829
47047W        W15410  30.647  28.559  14.416
47048W        W15411  33.403  19.716  14.898
47049W        W15412  15.603  16.738   3.848
47050W        W15413  34.871  43.399  13.355
47051W        W15414   9.748  14.722  13.501
47052W        W15415  17.720   2.252  11.899
47053W        W15416  12.171  25.588   4.666
47054W        W15417   2.394  11.794   1.903
47055W        W15418  23.733   5.917   1.230
47056W        W15419  44.258  18.179  14.374
47057W        W15420  29.171  14.635   2.211
47058W        W15421   4.944   5.294  13.429
47059W        W15422  25.170  15.740  14.893
47060W        W15423  42.446  35.952  12.056
47061W        W15424  31.030   6.694  13.960
47062W        W15425   1.261  40.042   4.151
47063W        W15426  12.267  27.138  10.578
47064W        W15427  43.853  33.553  13.316
47065W        W15428  29.626   6.246   3.157
47066W        W15429  22.119  20.166   1.402
47067W        W15430  44.329   3.858   1.881
47068W        W15431  13.738  42.931  10.609
47069W        W15432  37.918  40.449  12.580
47070W        W15433  26.587  17.704   0.930
47071W        W15434  20.131  15.185   2.373
47072W        W15435   1.973   1.791  14.835
47073W        W15436   6.776  28.437   4.209
47074W        W15437   7.791  28.063  14.841
47075W        W15438  31.612   4.353   1.757
47076W        W15439  29.619  17.637   4.326
47077W        W15440   8.338  33.518  11.062
47078W        W15441  14.325   8.732  13.056
47079W        W15442  33.423  27.616  11.564
47080W        W15443  16.635  44.982  10.636
47081W        W15444  14.791  36.418   4.283
47082W        W15445  16.810  10.833  10.430
47083W        W15446   7.261  32.534  12.521
47084W        W15447  34.446   4.881  14.371
47085W        W15448  32.471  37.974  13.516
47086W        W15449  12.639  42.020  12.852
47087W        W15450  35.595  39.008   4.714
47088W        W15451  27.627  15.697  10.483
47089W        W15452   4.369   2.946   1.425
47090W        W15453  26.043   9.278   4.187
47091W        W15454  32.080  37.004  12.858
47092W        W15455  40.863   5.233   0.261
47093W        W15456  21.042  44.879  13.909
47094W        W15457  29.984   0.331   3.793
47095W        W15458  40.346   0.774   1.776
47096W        W15459  18.613  32.497   3.804
47097W        W15460  21.699  23.153   4.204
47098W        W15461   4.382  32.531   0.741
47099W        W15462   8.777  40.336   0.259
47100W        W15463   8.764  41.485   4.622
47101W        W15464  30.439   7.833   4.283
47102W        W15465  28.017  38.886  14.858
47103W        W15466  38.346  31.440   2.189
47104W        W15467  24.165  34.014   4.168
47105W        W15468   0.277  19.691  11.921
47106W        W15469  39.438  10.840   0.476
47107W        W15470  38.903  24.576  14.994
47108W        W15471  26.084  14.332   9.540
47109W        W15472  20.032  11.347  10.965
47110W        W15473  12.277  18.204   1.818
47111W        W15474   2.307  30.627   2.753
47112W        W15475  42.505  32.128  14.461
47113W        W15476  43.308  11.813  13.044
47114W        W15477  37.354  30.165   1.737
47115W        W15478   6.300  28.078  10.940
47116W        W15479  11.284  38.988  10.616
47117W        W15480  20.636   7.414   1.379
47118W        W15481  36.900  18.151  10.457
47119W        W15482  13.248  11.214  11.063
47120W        W15483  35.374  38.972   0.434
47121W        W15484  24.141  30.634  13.511
47122W        W15485  31.136  13.618   2.408
47123W        W15486   0.350  13.635   3.717
47124W        W15487  39.042  42.999  14.425
47125W        W15488  30.631  38.359  14.370
47126W        W15489  15.289  37.022   3.740
47127W        W15490  23.734   5.311   2.414
47128W        W15491  44.993   6.298  14.496
47129W        W15492  11.626  30.474   4.740
47130W        W15493  31.527  29.598  10.106
47131W        W15494  15.117  29.576   1.806
47132W        W15495  35.918   2.922  13.844
47133W        W15496  13.173  12.225   1.255
47134W        W15497   3.308  17.692  11.612
47135W        W15498   0.411  40.812   3.348
47136W        W15499  43.486   6.382  14.848
47137W        W15500  35.435  31.049  12.084
47138W        W15501  13.724  26.141   1.394
47139W        W15502  31.959  28.083  12.953
47140W        W15503   4.755  27.056   1.285
47141W        W15504  37.489   1.419  14.298
47142W        W15505   2.409  33.459   4.782
47143W        W15506   5.301   1.751  10.406
47144W        W15507  38.903  31.614  11.994
47145W        W15508  19.535  40.340   2.808
47146W        W15509  17.555  31.499   4.321
47147W        W15510   2.317  16.602   1.390
47148W        W15511  33.082   0.866  11.411
47149W        W15512  21.613  23.020  11.597
47150W        W15513  42.896  40.475  11.463
47151W        W15514   3.321  11.239  10.959
47152W        W15515  19.086  42.477  12.511
47153W        W15516   2.847  31.405   2.372
47154W        W15517  20.762   3.801   0.482
47155W        W15518  25.022  41.499  12.039
47156W        W15519  42.374  18.563   0.872
47157W        W15520  33.414   3.723   3.351
47158W        W15521  20.576  15.766  14.340
47159W        W15522  41.373  43.992   3.654
47160W        W15523   4.449  34.390   1.234
47161W        W15524  35.050   8.780   0.951
47162W        W15525   1.237  42.909   4.733
47163W        W15526  18.204  41.042  12.918
47164W        W15527  35.367  39.463  14.491
47165W        W15528   9.652  31.509   4.283
47166W        W15529  29.556  33.482  10.030
47167W        W15530  30.551  23.551  11.073
47168W        W15531  43.878  37.847  14.357
47169W        W15532  40.971  16.649  10.418
47170W        W15533  30.649  24.207  11.881
47171W        W15534  21.622  36.021   2.866
47172W        W15535  33.551  33.946  13.925
47173W        W15536  14.144  12.810  12.028
47174W        W15537   1.880  32.497   2.287
47175W        W15538  21.571   9.150  11.527
47176W        W15539   6.720  22.123  12.850
47177W        W15540  19.260   5.882  13.923
47178W        W15541   2.359  32.079   4.738
47179W        W15542   0.831  20.240  14.494
47180W        W15543   0.390  37.029   9.536
47181W        W15544  31.603  29.922   0.884
47182W        W15545  25.680  18.164  11.899
47183W        W15546  19.589  27.474   0.739
47184W        W15547   7.789  17.238   4.166
47185W        W15548  38.954   5.331  14.317
47186W        W15549   3.932  42.290   2.877
47187W        W15550  36.885   9.217   4.813
47188W        W15551  33.127  21.194   2.757
47189W        W15552   0.939  18.164  12.071
47190W        W15553  22.678  23.559   2.687
47191W        W15554  19.199  10.347  11.059
47192W        W15555   0.798  37.833  12.469
47193W        W15556   7.802  26.639  13.527
47194W        W15557   8.252  32.421   1.378
47195W        W15558  43.365  18.084  13.331
47196W        W15559  38.568  37.851   3.361
47197W        W15560  25.499  21.667   2.234
47198W        W15561  41.362  21.582  13.850
47199W        W15562  25.966  13.118   1.697
47200W        W15563   9.663  15.773  12.991
47201W        W15564  26.589  21.254   3.758
47202W        W15565  26.461   3.783   4.134
47203W        W15566  29.575  20.766  14.332
47204W        W15567   3.235   3.904  13.515
47205W        W15568  25.098   4.919   1.368
47206W        W15569   5.752  20.628   0.811
47207W        W15570  32.570  15.728  12.870
47208W        W15571   0.392  36.362   2.893
47209W        W15572  11.828  44.505   3.854
47210W        W15573  26.673  28.503  12.030
47211W        W15574  12.301  20.158   3.180
47212W        W15575   3.345  21.593   1.873
47213W        W15576  38.855  36.097   0.458
47214W        W15577  15.328  16.617  10.527
47215W        W15578  13.251  10.230   3.651
47216W        W15579   8.806  23.654  12.557
47217W        W15580  38.361  22.192  13.057
47218W        W15581  17.555   9.704   4.197
47219W        W15582  20.716  25.648   1.295
47220W        W15583  22.023   6.204   0.280
47221W        W15584  15.683  12.689  13.338
47222W        W15585  26.000  31.614   4.816
47223W        W15586  22.640  27.134   1.288
47224W        W15587  36.394  31.466  13.805
47225W        W15588   1.328  40.331  14.415
47226W        W15589   0.443  21.599   4.223
47227W        W15590  42.842  37.024   2.252
47228W        W15591  42.523  39.551  14.313
47229W        W15592   9.192  35.369   3.705
47230W        W15593  17.794  30.604  13.380
47231W        W15594  24.055  28.986  12.970
47232W        W15595   5.396  41.901  14.443
47233W        W15596  10.349  43.794  11.065
47234W        W15597  42.792  33.587  10.574
47235W        W15598  29.492  23.016   3.806
47236W        W15599  12.641  11.343  14.331
47237W        W15600  41.026  43.432   4.329
47238W        W15601  40.529  41.933   3.690
47239W        W15602  26.027  38.402   1.871
47240W        W15603  26.607  39.494   2.830
47241W        W15604  12.701   4.717  13.370
47242W        W15605   1.391  38.947   4.208
47243W        W15606  37.063   6.864  11.013
47244W        W15607  15.621  23.134  12.992
47245W        W15608  28.012  25.188  10.496
47246W        W15609  44.806  41.309   2.883
47247W        W15610  33.995  36.920  14.474
47248W        W15611  19.551  24.482  14.345
47249W        W15612  35.533  28.052  10.917
47250W        W15613  26.122  18.638  12.424
47251W        W15614  32.885   5.336  10.500
47252W        W15615  27.136  27.118   2.235
47253W        W15616  36.952  12.206   1.883
47254W        W15617  28.067  16.627   9.986
47255W        W15618  43.432  44.495  14.388
47256W        W15619  28.526   9.328   3.172
47257W        W15620   6.739  12.236  11.042
47258W        W15621  29.091  31.412  13.510
47259W        W15622  12.786   6.399   4.152
47260W        W15623  13.317  40.923   1.403
47261W        W15624  40.832  29.937   3.672
47262W        W15625  39.001  43.977   2.320
47263W        W15626  22.553  33.123  12.469
47264W        W15627  37.858  27.527   3.694
47265W        W15628  11.758  14.685  11.124
47266W        W15629  24.587   3.315  12.407
47267W        W15630  15.684  39.828   4.185
47268W        W15631   1.872   0.301   2.778
47269W        W15632  13.135  18.130  12.437
47270W        W15633  39.475   0.763  12.972
47271W        W15634  19.628  36.865   1.421
47272W        W15635  33.415  44.918   2.841
47273W        W15636  13.223  29.950   0.466
47274W        W15637   0.478  30.031   1.375
47275W        W15638  32.537   3.432   1.696
47276W        W15639  27.036  12.120  13.902
47277W        W15640  41.993  26.580   4.162
47278W        W15641  32.537   1.963   2.398
47279W        W15642  13.105  17.079   3.680
47280W        W15643  33.418  21.057   4.796
47281W        W15644  30.617  34.045   0.813
47282W        W15645  32.093  28.066   2.347
47283W        W15646  44.942   2.255   0.259
47284W        W15647  34.607  43.482  14.516
47285W        W15648  11.258  37.045   0.284
47286W        W15649  44.459  23.490  13.020
47287W        W15650   1.379   7.721  14.501
47288W        W15651   8.296  10.274   9.932
47289W        W15652  19.251  29.648  10.905
47290W        W15653  35.580  30.010   3.330
47291W        W15654  16.227  22.562  13.974
47292W        W15655  39.054  22.717   5.110
47293W        W15656   5.726  24.527  13.490
47294W        W15657  27.047   2.886  12.885
47295W        W15658  41.363  21.122   4.599
47296W        W15659   1.430  21.544  10.590
47297W        W15660   8.231   2.905   3.303
47298W        W15661  27.071  34.511   4.686
47299W        W15662  10.259  23.997   3.231
47300W        W15663  16.173  15.276  11.533
47301W        W15664  44.360  27.059   1.694
47302W        W15665  26.032   8.262   3.777
47303W        W15666  36.970  41.490  14.388
47304W        W15667  10.226   0.343   1.784
47305W        W15668  37.870  41.338  10.449
47306W        W15669  31.539  10.813   1.742
47307W        W15670  14.289  40.845  12.883
47308W        W15671   1.834  15.318  13.855
47309W        W15672  31.632  27.453   5.272
47310W        W15673  22.518  20.131   2.348
47311W        W15674  15.614  25.066  14.399
47312W        W15675   6.872  14.718   0.474
47313W        W15676  38.490  16.196  12.437
47314W        W15677  31.131  19.234  14.512
47315W        W15678  22.747  27.661   0.316
47316W        W15679  33.069  12.242   0.246
47317W        W15680  39.395   2.393   4.653
47318W        W15681   7.287   7.677   1.751
47319W        W15682  39.316  43.937   0.739
47320W        W15683  12.335  34.516   4.300
47321W        W15684  15.152  34.422   3.780
47322W        W15685  37.010  22.008   4.616
47323W        W15686  25.066  10.302  14.286
47324W        W15687  28.527  13.778   4.218
47325W        W15688  39.503  43.500  12.392
47326W        W15689  21.739  40.510  12.877
47327W        W15690  14.784  35.357  10.412
47328W        W15691  32.938  22.711   1.315
47329W        W15692  29.426   9.332  11.403
47330W        W15693  33.101   1.391  10.640
47331W        W15694  33.000  23.148  14.341
47332W        W15695  15.106  27.039  11.103
47333W        W15696  41.394  22.706   4.197
47334W        W15697   1.239   1.453  12.369
47335W        W15698  30.916  33.990   2.716
47336W        W15699  37.541   0.368   1.437
47337W        W15700  39.527  22.570   2.682
47338W        W15701  22.615  21.204   3.664
47339W        W15702  19.741   3.753  12.878
47340W        W15703  20.038  34.601   0.395
47341W        W15704  36.842   9.710  10.611
47342W        W15705   1.445  37.974   3.719
47343W        W15706   3.460  12.663   4.754
47344W        W15707  26.613  37.041   3.162
47345W        W15708  15.193  27.037  10.442
47346W        W15709  10.736  44.291  13.417
47347W        W15710  34.487  15.217   1.231
47348W        W15711  38.014  10.854  10.006
47349W        W15712   4.259  34.889   2.261
47350W        W15713  36.873  38.350   3.338
47351W        W15714  18.670  20.124   4.640
47352W        W15715  35.456  34.894  11.567
47353W        W15716  28.096  14.815   1.838
47354W        W15717  29.072  11.628  11.028
47355W        W15718   2.293   7.668  13.859
47356W        W15719  18.252  25.576  12.454
47357W        W15720  37.982  13.333  13.823
47358W        W15721  33.609  43.379  14.015
47359W        W15722  19.262  10.853   4.669
47360W        W15723  33.387   7.201   2.798
47361W        W15724  19.106   4.722   1.399
47362W        W15725  27.606   4.265   0.470
47363W        W15726  14.102  13.274   0.410
47364W        W15727   3.930  41.919  12.892
47365W        W15728   9.252  19.743   2.875
47366W        W15729  34.537  20.135  13.890
47367W        W15730  41.845  37.908  11.085
47368W        W15731  35.876   4.889   0.901
47369W        W15732   5.326  37.442  12.342
47370W        W15733  40.943  38.493  11.000
47371W        W15734  28.055  16.084   1.916
47372W        W15735  30.944  11.699   0.429
47373W        W15736  19.665  34.005  14.941
47374W        W15737  44.979  20.183  13.011
47375W        W15738  26.583   6.730  10.996
47376W        W15739  19.126   8.329   3.337
47377W        W15740   3.827  27.130   0.408
47378W        W15741  29.090  35.940   3.362
47379W        W15742  38.514  42.400  14.965
47380W        W15743  23.157  31.647   3.816
47381W        W15744   2.458   3.734  11.024
47382W        W15745  20.759  37.059  13.842
47383W        W15746  34.508  29.150  14.890
47384W        W15747  30.920   8.759   3.251
47385W        W15748  38.049  10.712  12.366
47386W        W15749  24.065   1.756  12.512
47387W        W15750  16.227  15.173   0.956
47388W        W15751  35.934   8.843   3.275
47389W        W15752  18.226  30.641   4.126
47390W        W15753   4.878   0.254   5.161
47391W        W15754  37.533   2.261  11.084
47392W        W15755   2.772  23.724   2.277
47393W        W15756  28.583  27.104   2.798
47394W        W15757   9.151  28.121   1.306
47395W        W15758  43.810  13.336  14.976
47396W        W15759  40.932  15.258   3.822
47397W        W15760   3.377  11.755   5.322
47398W        W15761  15.309  26.690   4.169
47399W        W15762   6.843  23.227  11.424
47400W        W15763  14.611  26.144   1.873
47401W        W15764  13.670   8.682   3.230
47402W        W15765  20.066  33.131   3.306
47403W        W15766  13.727  34.094  10.933
47404W        W15767  35.987  42.503   2.829
47405W        W15768  34.416  35.523  13.400
47406W        W15769   3.729   1.836   0.263
47407W        W15770  17.293  26.535   9.954
47408W        W15771  19.664  39.992  10.978
47409W        W15772  10.299  39.508   0.753
47410W        W15773  30.982  28.517  12.455
47411W        W15774  15.152  21.643  14.394
47412W        W15775  11.827  18.622   1.902
47413W        W15776  34.535   4.279  12.078
47414W        W15777   6.812  13.154   4.145
47415W        W15778  40.358   3.798   4.302
47416W        W15779  31.611  25.106   2.851
47417W        W15780  24.088  22.243   4.166
47418W        W15781  37.860   6.845  12.910
47419W        W15782  29.528  23.133  12.886
47420W        W15783  44.390   0.337  13.469
47421W        W15784  24.573  27.670   0.417
47422W        W15785   5.697   0.828  14.384
47423W        W15786  31.499  44.498  11.576
47424W        W15787  31.511   4.757   4.235
47425W        W15788  22.556   0.363  12.068
47426W        W15789  43.404  36.028   4.700
47427W        W15790  31.959  35.452   2.351
47428W        W15791  34.916  30.527   4.244
47429W        W15792   5.859   6.699   1.883
47430W        W15793  39.510  43.000  11.583
47431W        W15794  37.475  39.014   0.761
47432W        W15795  37.435   2.397   1.714
47433W        W15796  38.836  39.333   3.273
47434W        W15797  11.278   6.247   0.321
47435W        W15798   5.292   5.376  12.566
47436W        W15799  19.161  18.730   1.362
47437W        W15800  25.483  36.947   2.311
47438W        W15801  15.270   1.284   2.342
47439W        W15802  35.371  43.334  14.399
47440W        W15803  33.072  28.992   1.782
47441W        W15804  42.411   5.918  11.874
47442W        W15805  22.006  43.305   2.243
47443W        W15806   7.701  32.003  10.010
47444W        W15807  28.644  31.417  12.882
47445W        W15808   9.670  23.218  10.644
47446W        W15809  29.074   7.679  13.982
47447W        W15810  37.430  11.686  11.527
47448W        W15811  39.471   7.180  11.514
47449W        W15812   9.245  44.872   3.165
47450W        W15813   4.892   7.417  10.952
47451W        W15814  23.170  42.795   3.306
47452W        W15815  20.082  30.413   3.644
47453W        W15816  28.502   0.329   0.438
47454W        W15817   0.889  35.900   0.932
47455W        W15818  37.387   8.678   9.987
47456W        W15819   5.230  24.536  12.966
47457W        W15820  23.199  16.137  14.421
47458W        W15821  26.018  30.484  10.934
47459W        W15822   1.286  39.450   2.369
47460W        W15823  30.021  44.485   1.889
47461W        W15824  32.905  18.631  10.921
47462W        W15825   2.860  17.600   1.817
47463W        W15826  27.555   3.282   2.384
47464W        W15827   5.724  17.725   2.349
47465W        W15828  35.996  40.933   0.382
47466W        W15829   5.690  26.503  12.527
47467W        W15830  37.434  40.990   2.775
47468W        W15831   1.348  34.383  12.432
47469W        W15832  21.039  29.602   2.183
47470W        W15833   0.459  42.018  14.993
47471W        W15834  40.907  36.560  11.591
47472W        W15835   4.294  14.319   3.666
47473W        W15836  38.429   7.772   3.361
47474W        W15837  16.138  41.341  14.400
47475W        W15838   7.342  43.384   1.225
47476W        W15839  19.608  13.317   0.846
47477W        W15840  15.763  24.230  13.317
47478W        W15841  16.137  40.367  12.576
47479W        W15842   9.263  28.003   1.730
47480W        W15843  31.997  20.180  11.441
47481W        W15844  10.266  27.000  11.414
47482W        W15845  38.049  34.393   0.346
47483W        W15846   9.333  21.082  14.325
47484W        W15847  44.786  32.570  13.482
47485W        W15848  25.607  11.287  14.997
47486W        W15849   9.360   5.367   1.878
47487W        W15850   1.770  14.184   1.416
47488W        W15851  28.083  25.702   2.221
47489W        W15852  34.435   8.853  13.964
47490W        W15853  30.422   9.865   4.153
47491W        W15854  33.425  39.472  12.348
47492W        W15855  22.734  14.702   3.832
47493W        W15856   4.805  26.178   2.220
47494W        W15857   7.261  44.394  11.520
47495W        W15858   4.308  12.856  10.935
47496W        W15859  12.681   8.364  12.497
47497W        W15860  13.764  14.239  11.563
47498W        W15861  20.119   6.318  10.497
47499W        W15862  20.561  12.178  11.527
47500W        W15863   2.387   8.697  13.401
47501W        W15864   3.833  26.983  13.534
47502W        W15865  14.142  20.602   3.343
47503W        W15866   0.762  19.590  10.910
47504W        W15867  10.790  27.034   1.281
47505W        W15868  15.807  33.070   1.427
47506W        W15869   8.827   1.286  12.375
47507W        W15870  37.468  28.531   1.882
47508W        W15871  33.971   5.341   3.864
47509W        W15872  35.427  12.226  11.426
47510W        W15873  40.999   5.395  14.947
47511W        W15874  10.330  28.963   4.155
47512W        W15875  15.150  10.649  13.431
47513W        W15876  16.732  36.076  13.385
47514W        W15877  23.102  27.690  13.498
47515W        W15878   3.342  30.141  10.992
47516W        W15879  44.330  14.095  14.488
47517W        W15880  44.460  23.554   4.675
47518W        W15881  14.126   4.425   1.771
47519W        W15882   5.370   6.213   4.143
47520W        W15883  37.865  26.197  11.610
47521W        W15884  12.770  21.607   1.251
47522W        W15885  31.422   0.426   3.848
47523W        W15886   2.820  27.621   1.930
47524W        W15887  39.933   6.786   3.676
47525W        W15888  36.522   6.400  11.891
47526W        W15889  21.598  38.365   2.274
47527W        W15890  44.002  33.934  11.374
47528W        W15891  10.762  37.437  14.026
47529W        W15892  18.582  42.933   3.262
47530W        W15893   7.801  32.081  12.927
47531W        W15894  35.359  33.621   0.416
47532W        W15895  14.827   6.301  14.956
47533W        W15896   8.196  44.500  14.502
47534W        W15897  24.010  17.141   1.288
47535W        W15898  23.674   9.697   1.774
47536W        W15899  23.583   4.799  12.953
47537W        W15900  30.447  27.183   0.802
47538W        W15901  36.506  26.011   2.393
47539W        W15902  13.840  29.509   4.346
47540W        W15903  19.644   2.340   0.465
47541W        W15904  27.614  17.153  13.338
47542W        W15905  17.289   5.283  13.911
47543W        W15906  12.347  38.452   4.766
47544W        W15907  16.674  37.551  11.041
47545W        W15908  39.552  35.565   2.340
47546W        W15909  40.898  40.844   3.332
47547W        W15910  11.674   2.266  13.799
47548W        W15911  11.734  11.346   2.871
47549W        W15912  30.930  31.536   3.750
47550W        W15913   7.282  28.570   4.293
47551W        W15914  20.098  38.326   3.653
47552W        W15915   3.289  39.472  11.556
47553W        W15916  15.697  23.575   2.805
47554W        W15917  14.108  10.283  10.518
47555W        W15918  24.010  22.200   1.308
47556W        W15919  30.076  21.123   0.923
47557W        W15920   0.943  16.291   1.224
47558W        W15921   9.311  38.402   3.292
47559W        W15922  16.804  14.241  13.009
47560W        W15923  28.048  16.214   1.403
47561W        W15924   8.206  38.327  14.790
47562W        W15925  24.229  31.033   0.320
47563W        W15926  30.071   6.334   4.623
47564W        W15927  25.070  31.543  13.028
47565W        W15928  17.193  43.764   9.558
47566W        W15929  18.655   3.761  12.384
47567W        W15930  26.176  40.924   2.343
47568W        W15931  19.553  38.348  14.814
47569W        W15932  27.076  42.471   0.899
47570W        W15933  40.430  43.771  14.024
47571W        W15934  16.582  27.552  13.481
47572W        W15935  38.400  38.850   4.760
47573W        W15936  10.335  19.045   3.149
47574W        W15937  20.542  10.352   3.310
47575W        W15938  28.952  44.498   4.241
47576W        W15939  40.943  27.149   4.800
47577W        W15940  41.885  15.651   9.943
47578W        W15941  32.141  39.895  11.555
47579W        W15942  29.643   0.303   3.213
47580W        W15943  18.604   1.868  12.414
47581W        W15944   2.913   1.927   3.773
47582W        W15945   3.767  36.484  11.033
47583W        W15946  26.102   1.412  11.899
47584W        W15947   4.895  34.472   4.144
47585W        W15948  36.371  35.560   1.700
47586W        W15949  37.549  44.335  14.809
47587W        W15950  10.821  19.557  10.993
47588W        W15951  24.000  25.974  11.585
47589W        W15952  20.048  14.152   4.667
47590W        W15953   9.363  38.428  14.839
47591W        W15954  12.117  12.119  11.469
47592W        W15955  37.846  19.271  14.952
47593W        W15956  42.443  22.552  14.031
47594W        W15957   3.891  44.909   4.723
47595W        W15958   4.271  38.874   1.409
47596W        W15959  37.044  20.628   3.657
47597W        W15960  13.828  44.811   3.189
47598W        W15961  14.260  34.069  13.867
47599W        W15962  31.621  26.115  10.513
47600W        W15963  26.472   3.845   4.597
47601W        W15964  24.133  30.554  12.507
47602W        W15965  16.281  25.502  11.916
47603W        W15966  18.126  11.291  13.884
47604W        W15967   6.701  25.962   0.359
47605W        W15968   5.786  27.032   2.263
47606W        W15969  24.626  17.654  10.604
47607W        W15970  38.530  44.921   0.285
47608W        W15971  13.801  14.725   0.890
47609W        W15972  32.060  27.649  14.477
47610W        W15973  21.050  39.019   3.663
47611W        W15974   9.738  19.086  11.965
47612W        W15975   8.229  35.548  14.870
47613W        W15976  28.681  44.883  14.016
47614W        W15977   3.786  41.369   9.967
47615W        W15978  24.541  42.445   0.247
47616W        W15979  32.623  32.898   3.267
47617W        W15980  28.456  17.203  10.553
47618W        W15981   4.914  21.105   1.880
47619W        W15982   1.874   0.275   4.794
47620W        W15983   2.878  14.317   4.689
47621W        W15984  30.154  23.007   0.455
47622W        W15985   7.293  19.109   0.277
47623W        W15986   7.665  20.524  11.586
47624W        W15987  21.656  28.044   9.956
47625W        W15988   1.421  27.447  12.373
47626W        W15989  30.011  20.620   3.775
47627W        W15990  31.917  19.767  14.798
47628W        W15991  21.141  17.790   1.829
47629W        W15992  17.654   0.932   1.348
47630W        W15993  18.089  19.264   4.321
47631W        W15994  30.039  28.676   0.452
47632W        W15995  27.971  29.657   1.858
47633W        W15996  17.092  34.036   4.136
47634W        W15997  35.383  38.449  12.845
47635W        W15998  13.694  40.383   0.806
47636W        W15999  20.081  24.631   3.363
47637W        W16000  24.989  26.193   3.243
47638W        W16001   9.783  10.835  14.359
47639W        W16002  43.003  21.033   3.692
47640W        W16003   4.379  17.217  11.929
47641W        W16004  35.922  19.082   3.318
47642W        W16005   3.387   9.182  13.436
47643W        W16006  34.985  39.456  11.925
47644W        W16007  41.377   7.188   2.688
47645W        W16008  34.867  23.682  14.804
47646W        W16009  39.506   0.981  14.390
47647W        W16010  19.205  17.238  12.547
47648W        W16011  29.157  15.186   2.388
47649W        W16012   0.366  19.209   1.371
47650W        W16013  13.164  15.714   4.166
47651W        W16014  38.905  21.645   4.751
47652W        W16015  43.803  40.336   2.894
47653W        W16016   6.783  26.601  12.390
47654W        W16017  22.068  18.569   2.853
47655W        W16018  29.592  10.183  14.874
47656W        W16019  34.871  11.330   0.728
47657W        W16020  15.126  13.151   3.268
47658W        W16021   3.269  10.345   4.780
47659W        W16022  39.355  44.987  13.952
47660W        W16023  14.823   6.211   0.781
47661W        W16024  40.845  19.599  13.795
47662W        W16025  26.677  32.131   2.346
47663W        W16026  37.379  36.043   4.803
47664W        W16027  21.628  30.473  12.418
47665W        W16028  36.843  10.245  10.406
47666W        W16029  16.104  19.691   5.234
47667W        W16030  17.690  15.593  13.353
47668W        W16031   1.893  41.791  11.562
47669W        W16032   0.443   3.309  10.491
47670W        W16033   4.780  30.458   5.271
47671W        W16034  42.958  37.039  11.462
47672W        W16035  28.504  28.173  10.025
47673W        W16036  17.779   2.415   2.896
47674W        W16037  10.687  10.200   2.268
47675W        W16038  10.719  16.611   3.658
47676W        W16039   8.207  10.245   3.245
47677W        W16040  40.832  21.128   1.709
47678W        W16041  20.542  22.663  14.481
47679W        W16042   2.380  42.808  13.838
47680W        W16043  22.720  11.320  13.484
47681W        W16044  20.653  16.230   4.667
47682W        W16045  21.242  13.173   1.262
47683W        W16046  44.404  12.725   0.411
47684W        W16047  44.291  32.924   9.953
47685W        W16048  15.182  15.215   1.263
47686W        W16049  18.159  15.641   3.645
47687W        W16050   1.465   0.931  13.885
47688W        W16051   8.828  36.922  14.327
47689W        W16052  23.098   1.924  10.984
47690W        W16053   9.280   4.207   4.183
47691W        W16054  43.912   2.438   1.831
47692W        W16055   9.652  38.455   2.410
47693W        W16056  15.303  37.027  12.012
47694W        W16057  28.560  10.812   0.414
47695W        W16058   7.178  30.104  13.928
47696W        W16059  37.392  31.506   2.790
47697W        W16060  26.097  36.875  13.908
47698W        W16061  13.268  17.704   2.222
47699W        W16062  29.451  31.497  10.590
47700W        W16063  22.193   7.304   4.164
47701W        W16064  44.963  39.999   3.350
47702W        W16065  18.634  38.367   3.223
47703W        W16066  37.991  18.658   3.273
47704W        W16067  32.928  38.924   3.154
47705W        W16068  44.461  25.997   0.270
47706W        W16069  39.459   8.297  13.058
47707W        W16070  43.397   7.267  14.497
47708W        W16071  34.501  21.734  14.880
47709W        W16072   2.407  34.467  12.059
47710W        W16073  31.462  35.970  11.969
47711W        W16074  37.549  17.226   4.314
47712W        W16075  23.639  22.040   2.766
47713W        W16076  29.988  23.539   0.843
47714W        W16077   1.758  21.608   3.385
47715W        W16078  10.716  22.071  10.555
47716W        W16079   0.376  26.622   2.887
47717W        W16080  20.243   8.868  11.928
47718W        W16081  18.054  13.338   2.839
47719W        W16082   2.825  38.015   1.431
47720W        W16083  21.150  11.305   1.236
47721W        W16084  26.090  29.498  10.585
47722W        W16085  32.017  16.773   4.719
47723W        W16086  17.268  17.171  10.083
47724W        W16087  41.404  38.983  10.919
47725W        W16088  43.858  29.476   4.606
47726W        W16089  33.556  19.150   4.342
47727W        W16090  29.666  27.152   0.308
47728W        W16091  11.759  22.511  10.149
47729W        W16092   9.648  16.153   1.900
47730W        W16093  39.014   5.735   1.842
47731W        W16094   6.294  28.976  12.886
47732W        W16095  39.008   3.354   3.341
47733W        W16096   9.652   9.861   1.823
47734W        W16097  41.459  37.945   1.347
47735W        W16098   5.212  36.077   4.255
47736W        W16099  43.401  14.264   1.805
47737W        W16100  38.074  13.771   5.777
47738W        W16101   7.783   2.250   2.672
47739W        W16102  44.442  12.328   1.829
47740W        W16103  12.811  14.659   3.726
47741W        W16104   9.651  19.758   2.411
47742W        W16105  33.396  25.984   1.440
47743W        W16106  21.134   7.789   4.653
47744W        W16107  44.294  39.978  11.052
47745W        W16108  17.683  30.934  14.990
47746W        W16109  12.221  38.393  12.896
47747W        W16110   7.296  16.749   0.418
47748W        W16111  43.958  14.147   5.221
47749W        W16112  14.821  42.391   0.819
47750W        W16113  26.048  38.526  12.037
47751W        W16114  39.409  13.189   4.203
47752W        W16115  30.152  38.450  13.891
47753W        W16116   5.751  26.990  11.596
47754W        W16117  17.204  37.498   1.384
47755W        W16118  27.195  18.701  13.853
47756W        W16119   5.411   3.844   3.237
47757W        W16120   3.785  29.975  12.381
47758W        W16121  17.242  12.828  10.566
47759W        W16122   0.802  40.884  12.558
47760W        W16123  36.565  22.510  12.825
47761W        W16124  15.777  41.887  10.910
47762W        W16125  10.738  14.807  12.868
47763W        W16126  21.077   3.867  11.558
47764W        W16127  32.968  33.098   0.826
47765W        W16128  11.710  34.615   2.856
47766W        W16129   0.408   9.371  11.039
47767W        W16130  25.077   8.666  13.841
47768W        W16131  10.790  27.622   0.955
47769W        W16132  22.743  11.302   1.403
47770W        W16133  16.200   9.793  13.883
47771W        W16134  44.945   7.867   3.748
47772W        W16135  22.231   5.347   1.418
47773W        W16136   1.965  24.516   4.760
47774W        W16137  15.136  29.976   1.891
47775W        W16138   4.721  19.590  12.075
47776W        W16139   4.832  37.948  12.031
47777W        W16140  42.455   5.349  12.430
47778W        W16141  12.295  40.951  11.115
47779W        W16142  26.575   7.221  11.866
47780W        W16143  44.936  41.795   4.778
47781W        W16144  44.377  25.527   1.388
47782W        W16145  31.647  11.781   4.612
47783W        W16146  22.632  31.132  11.546
47784W        W16147  38.337  15.752  12.361
47785W        W16148  16.772  27.974   1.423
47786W        W16149  27.548  22.051  14.451
47787W        W16150  25.496  29.018  12.932
47788W        W16151  18.629  18.611   5.209
47789W        W16152   1.834  39.953   3.659
47790W        W16153   3.880   1.942  13.449
47791W        W16154  10.345   2.290  12.566
47792W        W16155  30.988  34.604   2.807
47793W        W16156  10.189  15.670  14.947
47794W        W16157  35.374  31.581   3.332
47795W        W16158  43.318  30.035   1.432
47796W        W16159  14.685  13.255   3.258
47797W        W16160   1.354  29.109   2.326
47798W        W16161  31.928   2.376   4.344
47799W        W16162  10.174  25.183  13.955
47800W        W16163  30.125  12.738  10.967
47801W        W16164  24.003  34.920   0.425
47802W        W16165  23.648  31.056   4.250
47803W        W16166   6.217   3.768   3.378
47804W        W16167  37.000  12.298  12.833
47805W        W16168  32.980   0.492   1.789
47806W        W16169   5.821  30.133  10.970
47807W        W16170  22.520   5.802   1.789
47808W        W16171  37.959  13.770   0.395
47809W        W16172  16.104   7.200   1.846
47810W        W16173  25.685  17.300  13.307
47811W        W16174  31.418  37.843   3.782
47812W        W16175  42.384   0.308   3.349
47813W        W16176  30.979  36.036  13.968
47814W        W16177   8.741  30.043   4.693
47815W        W16178   7.398  20.206   2.369
47816W        W16179  27.966  35.106  11.930
47817W        W16180  19.687  14.614   0.804
47818W        W16181   1.794   5.269  10.478
47819W        W16182  26.665  30.548   3.159
47820W        W16183  27.053   9.814   0.889
47821W        W16184   4.204  14.756   2.723
47822W        W16185  27.178  34.560   0.927
47823W        W16186  24.204  22.130  11.427
47824W        W16187   6.251  17.672   3.732
47825W        W16188  10.285  25.671  12.847
47826W        W16189  27.982  18.587   2.728
47827W        W16190  20.058  33.435   2.867
47828W        W16191  28.168  25.210   0.452
47829W        W16192  31.983   0.480  10.109
47830W        W16193  17.659  27.562   3.711
47831W        W16194  11.273  36.489   4.624
47832W        W16195   8.259  22.625   3.789
47833W        W16196  28.475  30.495  14.766
47834W        W16197  28.583  36.563   0.430
47835W        W16198  11.645  31.646   4.338
47836W        W16199  10.781   8.406  11.104
47837W        W16200  14.670   0.947   0.366
47838W        W16201  23.527  32.458  12.509
47839W        W16202  19.215  32.513  14.412
47840W        W16203  10.710  24.042   2.210
47841W        W16204  43.471  43.468   1.428
47842W        W16205  31.914  24.007  12.416
47843W        W16206  24.668  31.525  11.113
47844W        W16207  12.815  23.129  13.491
47845W        W16208  11.275  38.071   4.242
47846W        W16209  38.367   3.710   1.855
47847W        W16210   2.405  40.834   1.309
47848W        W16211  44.464  26.460   2.210
47849W        W16212  24.544  15.680  14.348
47850W        W16213   8.895  28.633   4.744
47851W        W16214  28.450  33.488  13.409
47852W        W16215  15.172  31.411  11.107
47853W        W16216  34.608  42.523  11.494
47854W        W16217   6.308   1.853   1.252
47855W        W16218  23.656  23.582   4.798
47856W        W16219   9.872  28.652   4.254
47857W        W16220  43.338  16.632   1.370
47858W        W16221  28.475  11.714  13.878
47859W        W16222  36.853  30.479   4.129
47860W        W16223  38.920  31.634   3.811
47861W        W16224  43.425  20.639   2.419
47862W        W16225   1.350  14.253  11.957
47863W        W16226  42.786   0.849   5.098
47864W        W16227  33.997  18.562  14.350
47865W        W16228  35.479  32.489   2.356
47866W        W16229  16.301  31.111   4.675
47867W        W16230  19.638  19.083   4.612
47868W        W16231   7.233  38.555   4.337
47869W        W16232  17.222  10.822  10.966
47870W        W16233  12.343  34.541   0.277
47871W        W16234  31.984   0.839   3.678
47872W        W16235  22.668  36.977   0.394
47873W        W16236  26.954  13.725   2.845
47874W        W16237  29.454  32.463  12.965
47875W        W16238  22.696   0.984   9.926
47876W        W16239  35.404   9.686  13.326
47877W        W16240  28.587  31.590  13.897
47878W        W16241  43.307  34.552   1.349
47879W        W16242  10.751   0.342   3.789
47880W        W16243  25.098  37.870   4.124
47881W        W16244  29.996   4.897  11.425
47882W        W16245  41.537   5.763  13.825
47883W        W16246   6.758   9.332  11.442
47884W        W16247  38.862  30.053  12.089
47885W        W16248  14.333  44.376  10.407
47886W        W16249  43.501  29.574  14.445
47887W        W16250  19.719   2.759   4.335
47888W        W16251  19.550  21.104   3.373
47889W        W16252   9.211  22.084   1.854
47890W        W16253  12.692  27.589  14.886
47891W        W16254  19.580  20.740  12.887
47892W        W16255  15.244  38.413   4.156
47893W        W16256  20.221   6.247   3.834
47894W        W16257  36.024  26.495   5.209
47895W        W16258  42.830   2.375  13.844
47896W        W16259  25.574  31.969   5.198
47897W        W16260  25.573  41.523  11.482
47898W        W16261   7.675  40.373  12.543
47899W        W16262  36.567  31.499  12.975
47900W        W16263  20.087  36.956   1.708
47901W        W16264  22.228  26.060   4.167
47902W        W16265  28.620  33.385   3.366
47903W        W16266   1.747  12.280  11.010
47904W        W16267  19.122   2.912  10.641
47905W        W16268   3.738  42.398  14.877
47906W        W16269   9.257  43.513  12.530
47907W        W16270  24.212   7.272   1.809
47908W        W16271  17.177   8.383   1.738
47909W        W16272   9.722  31.585  13.510
47910W        W16273  43.776  25.527  13.426
47911W        W16274   6.207  26.699   0.761
47912W        W16275  26.098  36.417  13.447
47913W        W16276  29.015  36.353  11.518
47914W        W16277  13.177  19.138   2.289
47915W        W16278  19.090  31.992  10.503
47916W        W16279  23.568   5.290   1.445
47917W        W16280  20.580  37.902   0.327
47918W        W16281  37.846  36.546   2.369
47919W        W16282  26.584  42.461   1.706
47920W        W16283  38.514  31.081   1.933
47921W        W16284  27.636  42.521  11.467
47922W        W16285  36.429  31.930  12.505
47923W        W16286   4.910  42.453   3.276
47924W        W16287  19.055  39.522   4.276
47925W        W16288  16.316  28.128   0.262
47926W        W16289   2.460  28.527   2.758
47927W        W16290  15.276   0.958   2.241
47928W        W16291  39.881  44.472   0.747
47929W        W16292  26.128  11.327   4.726
47930W        W16293  26.552  25.516  13.899
47931W        W16294   4.769   2.458   0.467
47932W        W16295  12.323  16.696   2.246
47933W        W16296   1.402  42.442   1.353
47934W        W16297  35.399   7.334   4.811
47935W        W16298  42.339  38.947   1.377
47936W        W16299   6.378  44.412  10.067
47937W        W16300   1.912  19.621   0.468
47938W        W16301  38.532  11.140   0.770
47939W        W16302   2.385  35.039  12.382
47940W        W16303  40.923   4.319  13.799
47941W        W16304  36.875  14.764  11.508
47942W        W16305  16.231  33.932   4.230
47943W        W16306  32.511  24.609   0.826
47944W        W16307   8.870   3.369   0.451
47945W        W16308  16.601  24.973  12.937
47946W        W16309  31.988  25.690  14.354
47947W        W16310  44.266  38.377   3.152
47948W        W16311  30.943   1.265   0.258
47949W        W16312   4.338  33.485   2.311
47950W        W16313  36.007  34.094  11.422
47951W        W16314  14.589  35.961  11.008
47952W        W16315  21.195   9.796   3.850
47953W        W16316  17.688  27.966  10.917
47954W        W16317  33.939   9.188  14.404
47955W        W16318   0.919  31.489  12.092
47956W        W16319  40.392  23.035  13.006
47957W        W16320  21.073  26.039   3.181
47958W        W16321  14.334   4.864   1.935
47959W        W16322  32.416  10.862  14.280
47960W        W16323  22.101   1.406   1.307
47961W        W16324  43.975   4.750  13.338
47962W        W16325  30.576  32.538   0.729
47963W        W16326  27.187  13.267  13.403
47964W        W16327   7.884  14.339  10.915
47965W        W16328  43.938  21.668  10.943
47966W        W16329   4.206  38.421   1.737
47967W        W16330  35.871   9.378   1.318
47968W        W16331  28.537   1.883   2.258
47969W        W16332  28.657  11.696   2.203
47970W        W16333  29.003  26.517   1.875
47971W        W16334   6.840  38.837  12.830
47972W        W16335   5.791  39.842  14.328
47973W        W16336  21.551   3.899  13.850
47974W        W16337  42.432  43.840   2.733
47975W        W16338  26.050  26.959  11.490
47976W        W16339  42.373  28.942  12.082
47977W        W16340  22.603  20.734  12.871
47978W        W16341  26.585  36.535   3.721
47979W        W16342  28.015  33.498   3.285
47980W        W16343  27.514  15.772   2.365
47981W        W16344  17.122  29.955   4.130
47982W        W16345  21.561   5.247   1.836
47983W        W16346  24.719  31.033  13.913
47984W        W16347  32.546  30.044   5.160
47985W        W16348  19.776   9.650   0.963
47986W        W16349  44.310  38.460  12.348
47987W        W16350  30.584  34.033   0.255
47988W        W16351  16.673   6.692   4.611
47989W        W16352  14.161   6.818  13.017
47990W        W16353  37.570   0.396   0.787
47991W        W16354  42.431  12.818   1.333
47992W        W16355  21.751  18.266   2.682
47993W        W16356  10.845   9.792   3.795
47994W        W16357   1.763   7.283  12.837
47995W        W16358   5.808  30.908  14.782
47996W        W16359   3.415  32.614   0.846
47997W        W16360  28.944  29.512   4.820
47998W        W16361  10.261  15.136  14.996
47999W        W16362  15.718  26.175   4.766
48000W        W16363  40.948   3.769  14.507
48001W        W16364  11.302   5.932   4.297
48002W        W16365  31.440  29.613   4.141
48003W        W16366  44.856  20.157  13.870
48004W        W16367  23.710  28.470  10.529
48005W        W16368  12.208  32.478   1.697
48006W        W16369  11.653  24.558  12.381
48007W        W16370  11.302  17.074  13.918
48008W        W16371  34.120  32.907  14.811
48009W        W16372  38.381  40.330  11.902
48010W        W16373  29.028  24.629   3.732
48011W        W16374  39.039  44.881  14.847
48012W        W16375  27.524   7.262  14.867
48013W        W16376  26.183  36.081   3.204
48014W        W16377  30.629  15.637   1.750
48015W        W16378  30.163  14.204  14.909
48016W        W16379  40.909   1.433  14.392
48017W        W16380  32.051  16.760   3.722
48018W        W16381  39.450   1.752   3.673
48019W        W16382  19.237   9.191  10.964
48020W        W16383  17.189  40.394   2.353
48021W        W16384   2.872  44.415   1.903
48022W        W16385  36.980   4.385   4.198
48023W        W16386  16.279  30.042  11.398
48024W        W16387  28.470  15.807  14.495
48025W        W16388   4.282  42.844  12.038
48026W        W16389  14.803  25.033  14.332
48027W        W16390  32.439   1.363  14.816
48028W        W16391  40.387  16.127   0.925
48029W        W16392  33.931   8.330  14.373
48030W        W16393  23.506  17.221   0.320
48031W        W16394  33.556  19.667   3.256
48032W        W16395   6.345  18.166   3.685
48033W        W16396  29.097  25.523  13.522
48034W        W16397  26.960  32.488   2.364
48035W        W16398  13.157  20.577  11.519
48036W        W16399  26.052  18.126  14.391
48037W        W16400  42.814  17.199  13.363
48038W        W16401  33.444  35.018   5.283
48039W        W16402  16.795  15.169   2.193
48040W        W16403  26.525  21.741   0.936
48041W        W16404  20.650  22.216  13.410
48042W        W16405  16.281   5.334  11.028
48043W        W16406   0.346  18.546  11.545
48044W        W16407  18.601  29.496  13.846
48045W        W16408   5.323  14.199   3.787
48046W        W16409  10.342  37.413   5.131
48047W        W16410   5.242  13.725   4.737
48048W        W16411  40.849  39.336   2.292
48049W        W16412  27.522  19.608   5.173
48050W        W16413  24.086  10.822   2.324
48051W        W16414  14.723  22.634   4.140
48052W        W16415  22.716  19.237   2.826
48053W        W16416  31.959  30.560   0.263
48054W        W16417  34.526  25.198   1.377
48055W        W16418  29.066  24.618  13.397
48056W        W16419   0.903  31.607   1.821
48057W        W16420  40.325  34.446  14.501
48058W        W16421  25.608  27.158  11.878
48059W        W16422   6.189  13.778  13.890
48060W        W16423   0.378   1.814   3.733
48061W        W16424  43.408  44.406  13.007
48062W        W16425  25.098   4.733   2.690
48063W        W16426  22.636  39.393   3.273
48064W        W16427  23.045  36.516   2.239
48065W        W16428   1.863  10.821   3.706
48066W        W16429  30.048   5.237  13.419
48067W        W16430  29.163  34.934  13.796
48068W        W16431   4.238  17.100  11.527
48069W        W16432   3.770  32.449   2.341
48070W        W16433   8.325  17.236  13.958
48071W        W16434  34.885  31.524  12.367
48072W        W16435  30.535   8.210   0.823
48073W        W16436  30.512  44.402  14.333
48074W        W16437  24.522  43.339   4.828
48075W        W16438  21.226   1.470  14.845
48076W        W16439  32.442   7.297   1.324
48077W        W16440  19.088  24.558   4.600
48078W        W16441  35.459  16.665  13.024
48079W        W16442  20.665   3.316   0.401
48080W        W16443  23.161  35.057  10.587
48081W        W16444  16.737  15.201   1.327
48082W        W16445  13.820  34.964  13.546
48083W        W16446  34.477  42.005  11.545
48084W        W16447  41.931  23.497  14.958
48085W        W16448  16.762  30.110   2.379
48086W        W16449  32.105   9.860   4.675
48087W        W16450  34.417  43.331   3.354
48088W        W16451  32.942  35.954   0.270
48089W        W16452  38.478  43.764   2.714
48090W        W16453   2.773  11.276   1.292
48091W        W16454  16.632  27.122   2.317
48092W        W16455   5.336  14.109  14.461
48093W        W16456  29.622   7.704   4.165
48094W        W16457  30.516  27.088  11.980
48095W        W16458  25.560  26.690  14.885
48096W        W16459  27.483  24.516  14.354
48097W        W16460  28.471  15.317  13.544
48098W        W16461  31.573   5.776   4.333
48099W        W16462   1.836  15.213   0.952
48100W        W16463  12.741  29.466  12.917
48101W        W16464  29.133  28.657   5.787
48102W        W16465   3.337   5.386   1.802
48103W        W16466  29.135  35.951   4.682
48104W        W16467   0.421  33.885   0.434
48105W        W16468  15.168  20.044  14.506
48106W        W16469  30.092  37.500  12.941
48107W        W16470  17.700  41.315   4.800
48108W        W16471  32.626  41.985   1.358
48109W        W16472  24.673  37.529   1.754
48110W        W16473  12.795  20.715  12.423
48111W        W16474  34.475  23.993  13.536
48112W        W16475  14.134  10.767  14.462
48113W        W16476  39.022   7.773   3.676
48114W        W16477  20.678  28.040  10.921
48115W        W16478  27.570  31.064  14.387
48116W        W16479  28.615   1.425   2.716
48117W        W16480  32.545   0.975  13.455
48118W        W16481  24.147  44.387   3.745
48119W        W16482   9.812   4.823  13.846
48120W        W16483  19.236  37.445   2.403
48121W        W16484  19.590  18.222   2.689
48122W        W16485  24.604  41.439   0.293
48123W        W16486  34.433  25.597  14.941
48124W        W16487  24.559   1.285  14.032
48125W        W16488  39.362  27.056   4.737
48126W        W16489  18.781   9.881   0.291
48127W        W16490  38.471  43.870  11.499
48128W        W16491  10.839  19.777   1.855
48129W        W16492   3.343  25.046   3.178
48130W        W16493  10.150  37.349  13.509
48131W        W16494  27.992  32.124   4.318
48132W        W16495  10.317  15.273  11.988
48133W        W16496  29.168  10.739   2.413
48134W        W16497   4.890  34.994   2.679
48135W        W16498  19.554  10.876   4.118
48136W        W16499  20.531   2.833   0.728
48137W        W16500  17.722  33.037  10.476
48138W        W16501  42.807  23.637  11.036
48139W        W16502  27.542  30.520  11.116
48140W        W16503  25.984  39.882  13.359
48141W        W16504  16.745  28.997   3.243
48142W        W16505  16.710  38.982  13.025
48143W        W16506  38.331   7.188   2.418
48144W        W16507  38.451   4.819   0.954
48145W        W16508  21.658  21.608  14.378
48146W        W16509   4.765  36.422   4.659
48147W        W16510  10.755  22.209   2.851
48148W        W16511  25.650   3.713  13.373
48149W        W16512  15.095  44.980   2.322
48150W        W16513  25.581  40.916  14.389
48151W        W16514  18.205   2.843   4.819
48152W        W16515  38.561  24.640   1.931
48153W        W16516  13.707  20.068   4.322
48154W        W16517   0.943  30.476  12.941
48155W        W16518   4.847  35.390   3.715
48156W        W16519  21.149  19.187  12.080
48157W        W16520  27.593   6.786  11.372
48158W        W16521   1.307   6.900   3.756
48159W        W16522  12.255   7.872   4.770
48160W        W16523  17.677  30.615   3.292
48161W        W16524  36.418  10.381   2.877
48162W        W16525  16.219  37.351   2.864
48163W        W16526  36.429  30.501   4.287
48164W        W16527  14.610  33.003  14.377
48165W        W16528   6.786  16.153  14.462
48166W        W16529  15.772  42.953   0.455
48167W        W16530  12.166  20.662   4.257
48168W        W16531  32.490  26.548  10.097
48169W        W16532  38.947  33.616   2.710
48170W        W16533  11.222  23.116  14.772
48171W        W16534  13.155  30.648  13.859
48172W        W16535  43.346  14.761   3.202
48173W        W16536   9.339  25.469   0.805
48174W        W16537  15.105  11.341  14.430
48175W        W16538  36.894  32.958  12.022
48176W        W16539  22.734  28.019   0.337
48177W        W16540  14.281   7.676  14.955
48178W        W16541  35.023  20.577  14.897
48179W        W16542  44.336  16.725  10.152
48180W        W16543   6.314  26.964   0.923
48181W        W16544   6.204   4.701   1.868
48182W        W16545   8.329  22.073  13.455
48183W        W16546  32.131  11.152   2.221
48184W        W16547  24.214   1.261   3.773
48185W        W16548  34.381   7.214   2.301
48186W        W16549  18.053  26.027  13.360
48187W        W16550  11.338  15.592  14.777
48188W        W16551   2.762  27.045   4.243
48189W        W16552   9.256  36.048   3.722
48190W        W16553  43.764  18.608  11.981
48191W        W16554  23.598  39.343  14.822
48192W        W16555  40.315  27.550   0.798
48193W        W16556  37.022  26.141  10.590
48194W        W16557  26.538   7.353   1.418
48195W        W16558   1.858  11.766  11.113
48196W        W16559  25.054  11.220   0.248
48197W        W16560   8.734   4.371  14.868
48198W        W16561  44.447   4.854  13.314
48199W        W16562  32.521  14.223  12.897
48200W        W16563  24.983  40.489   4.741
48201W        W16564  43.285  29.157   2.662
48202W        W16565  37.369  33.518   4.281
48203W        W16566  39.516  28.950   1.228
48204W        W16567  21.751  31.615   0.865
48205W        W16568  36.495   7.322  13.487
48206W        W16569   0.450   2.246   4.638
48207W        W16570   4.737  10.861  12.997
48208W        W16571  24.612  34.434   4.789
48209W        W16572   7.732  32.136   1.804
48210W        W16573  17.252  24.560  13.885
48211W        W16574  42.372  37.410   9.462
48212W        W16575  26.617  33.911  13.866
48213W        W16576  29.143  34.909  14.969
48214W        W16577  18.054  30.163  14.931
48215W        W16578  12.748   5.229   0.275
48216W        W16579  20.559  44.308  10.050
48217W        W16580  20.216  11.752  14.962
48218W        W16581   6.359  34.081  10.582
48219W        W16582  42.422  15.735   2.900
48220W        W16583  11.344  23.240   4.193
48221W        W16584  24.488  37.479   2.858
48222W        W16585   0.771  21.571   0.742
48223W        W16586  38.525  37.493  12.545
48224W        W16587  10.700  35.081  13.542
48225W        W16588  22.011  28.474   1.381
48226W        W16589  21.526  28.007  10.427
48227W        W16590   1.425  40.473  12.406
48228W        W16591  10.733  42.357   2.269
48229W        W16592  35.357   4.340  12.567
48230W        W16593  10.193  37.460  12.000
48231W        W16594   9.697  14.271   3.220
48232W        W16595  17.621   5.848   4.329
48233W        W16596  15.214  17.305   1.715
48234W        W16597  35.861  14.305   0.367
48235W        W16598  33.927  35.538  10.954
48236W        W16599  16.791  19.237   2.793
48237W        W16600  19.772  35.407  12.889
48238W        W16601  15.727   5.914   1.776
48239W        W16602   2.956  17.631  13.307
48240W        W16603   8.368  29.158   1.344
48241W        W16604  44.754  31.926   4.257
48242W        W16605  42.964  38.930  11.037
48243W        W16606  30.620  21.129  14.919
48244W        W16607  44.414  12.276   1.327
48245W        W16608   1.887  28.670   0.810
48246W        W16609  22.622   3.888  12.975
48247W        W16610  17.675  18.176   0.957
48248W        W16611  39.907  39.408  10.576
48249W        W16612  22.591  39.509  14.837
48250W        W16613  26.643   4.445   4.147
48251W        W16614  40.990   1.285   3.811
48252W        W16615  27.661  35.090   4.747
48253W        W16616  34.515  30.584   0.459
48254W        W16617  39.492  38.034   2.326
48255W        W16618  43.943   1.278  14.806
48256W        W16619  20.069  33.056   2.857
48257W        W16620  30.997   1.741   3.148
48258W        W16621   7.305  12.760   4.730
48259W        W16622  33.013  36.990  13.465
48260W        W16623   8.266   5.285   0.893
48261W        W16624   9.233  12.612   2.885
48262W        W16625  44.488  30.981  13.031
48263W        W16626  32.132  41.883   0.860
48264W        W16627  17.569  16.103   2.371
48265W        W16628  40.960  44.863   1.259
48266W        W16629   0.982  42.962  10.445
48267W        W16630   2.343  30.519  14.363
48268W        W16631  11.778   1.247   2.722
48269W        W16632   1.305   6.205   0.376
48270W        W16633   6.689  30.586   2.314
48271W        W16634  19.166  35.983  14.957
48272W        W16635  33.571  16.240  13.026
48273W        W16636  27.019   0.908   3.281
48274W        W16637  24.549  10.780  13.856
48275W        W16638   0.978  22.100   0.294
48276W        W16639   6.741   0.471   3.223
48277W        W16640  25.474  29.494  10.511
48278W        W16641  18.663  15.134   2.385
48279W        W16642  11.351  14.210   3.680
48280W        W16643  11.770  32.561   4.719
48281W        W16644  41.960  36.468  13.967
48282W        W16645  28.021  30.100  11.487
48283W        W16646  44.436  26.595   0.865
48284W        W16647  12.660  19.070   4.782
48285W        W16648   6.876  22.221  13.449
48286W        W16649  39.814  16.247  13.395
48287W        W16650  42.512  34.514  10.998
48288W        W16651  22.169  36.539  14.893
48289W        W16652  24.108   4.251  11.068
48290W        W16653  15.292  15.099   4.241
48291W        W16654  43.317  23.535  10.138
48292W        W16655  30.150   8.337  10.524
48293W        W16656  15.810  30.027   4.157
48294W        W16657  44.501  19.207  11.117
48295W        W16658  36.898  41.909  11.592
48296W        W16659  27.142   5.418   3.824
48297W        W16660  43.271  15.606  11.040
48298W        W16661  11.344  40.861   2.866
48299W        W16662  23.086  34.576  13.463
48300W        W16663  37.019  15.264  12.516
48301W        W16664  15.651  23.113   0.952
48302W        W16665   0.395  44.275  12.856
48303W        W16666   9.714   4.752  14.305
48304W        W16667  27.180  11.783   4.634
48305W        W16668  27.547  34.120  10.431
48306W        W16669   5.271  36.512  12.868
48307W        W16670  28.560   1.473   4.152
48308W        W16671   4.349  44.344  12.826
48309W        W16672   8.386  22.194   0.288
48310W        W16673  28.148   2.339   4.281
48311W        W16674  39.425  30.607  13.886
48312W        W16675   5.324  40.826  10.990
48313W        W16676  25.586  13.129   4.733
48314W        W16677   4.871  14.158   3.333
48315W        W16678   4.365   9.727  10.409
48316W        W16679  30.458  24.137  12.537
48317W        W16680   3.388  40.915   0.346
48318W        W16681  31.539  29.432  12.029
48319W        W16682  33.606  38.072  14.436
48320W        W16683  28.512  31.069  13.803
48321W        W16684  30.940   6.316  10.441
48322W        W16685  15.784   5.691  13.965
48323W        W16686  30.614  12.703  11.061
48324W        W16687  43.418  13.267   2.737
48325W        W16688  13.144   3.810  12.350
48326W        W16689  24.557  42.776  14.302
48327W        W16690   9.265  39.350  11.876
48328W        W16691  37.397   3.847   3.220
48329W        W16692  34.086  36.937   3.789
48330W        W16693  38.971  27.472   0.861
48331W        W16694  44.314  22.191   1.345
48332W        W16695  30.154  44.398   0.874
48333W        W16696  17.612  27.668  10.501
48334W        W16697  24.155  29.545   1.709
48335W        W16698  26.056   9.316  14.492
48336W        W16699   0.374  28.002   2.248
48337W        W16700  13.197  27.498  13.332
48338W        W16701  25.575  40.391   1.373
48339W        W16702  12.823  23.996   3.231
48340W        W16703  23.009  30.545   0.399
48341W        W16704  18.623  28.995   2.786
48342W        W16705  30.108  34.901   2.385
48343W        W16706  13.753  24.485  12.011
48344W        W16707  37.357  16.291  12.893
48345W        W16708  12.737  35.962   2.276
48346W        W16709  17.574  26.167   2.667
48347W        W16710  17.575  14.638  14.901
48348W        W16711  30.428  22.039   4.787
48349W        W16712  34.395  22.719   0.760
48350W        W16713  22.603  22.660   3.869
48351W        W16714  42.811  20.528  12.060
48352W        W16715  44.998  22.580  12.851
48353W        W16716  14.717  11.850   3.296
48354W        W16717  41.813  30.928   3.718
48355W        W16718  14.714  25.615  13.447
48356W        W16719  24.566  27.545   4.829
48357W        W16720   7.282  22.091   4.150
48358W        W16721  25.170  38.503  14.791
48359W        W16722  25.003  42.945   5.090
48360W        W16723  38.973  37.053   2.191
48361W        W16724  11.323  17.772  14.938
48362W        W16725  17.675  28.120  11.600
48363W        W16726  36.856   5.924  13.324
48364W        W16727   3.222  22.658  12.513
48365W        W16728   1.840   4.791   0.416
48366W        W16729  19.778  32.611   0.836
48367W        W16730  18.571  41.826   2.252
48368W        W16731  36.574  21.612  10.597
48369W        W16732  24.669  23.491   3.763
48370W        W16733  24.564  40.519   1.775
48371W        W16734  27.534  13.150  11.402
48372W        W16735  20.120  36.541  12.483
48373W        W16736  23.033   1.859  13.842
48374W        W16737  28.026  35.075  13.898
48375W        W16738  20.744  23.518  11.044
48376W        W16739  15.305  37.438  12.877
48377W        W16740  17.069  25.638   0.787
48378W        W16741  43.512  17.671   1.313
48379W        W16742   1.257  41.350   2.887
48380W        W16743  13.810  19.721  12.082
48381W        W16744  16.684   3.738  14.511
48382W        W16745  42.795   1.468  11.937
48383W        W16746  16.183  42.392   1.392
48384W        W16747  33.439   2.365   3.275
48385W        W16748  25.583  32.953   3.837
48386W        W16749  25.664  33.452   0.749
48387W        W16750  23.568  30.045   0.250
48388W        W16751  33.070  10.168   1.248
48389W        W16752   9.196  21.026  11.462
48390W        W16753  22.187  11.272  11.071
48391W        W16754  28.649  43.391   0.298
48392W        W16755   3.721  21.636  13.805
48393W        W16756  37.345   8.165   1.255
48394W        W16757  15.292   0.316   0.746
48395W        W16758   8.805  15.614   0.899
48396W        W16759  19.719  18.655  14.502
48397W        W16760   3.802  15.231  13.964
48398W        W16761   7.866  40.931  12.937
48399W        W16762  35.425   1.966   3.146
48400W        W16763   2.361   0.805   4.641
48401W        W16764   6.715  15.213  11.435
48402W        W16765  22.534   7.399  14.781
48403W        W16766  25.493   3.438   3.227
48404W        W16767  31.407  32.136  13.438
48405W        W16768  39.911   7.773   4.254
48406W        W16769  41.425   5.375  13.463
48407W        W16770  23.733  26.074   3.292
48408W        W16771  27.010  42.897   1.780
48409W        W16772  36.557   5.362  12.399
48410W        W16773  15.797  35.942   3.730
48411W        W16774  42.936  20.246  12.411
48412W        W16775   0.321   8.280  12.393
48413W        W16776  25.003  30.093  12.869
48414W        W16777  15.322  40.509  14.828
48415W        W16778  28.142  37.357   9.990
48416W        W16779   6.848   4.311   3.818
48417W        W16780  40.803   5.259  13.829
48418W        W16781  39.958  30.050  13.050
48419W        W16782  38.976  17.593  14.277
48420W        W16783   4.799  34.047   9.936
48421W        W16784  17.721  29.493   3.632
48422W        W16785   3.751   3.277  11.985
48423W        W16786  28.014  32.077  12.894
48424W        W16787  35.021  36.467  12.483
48425W        W16788   4.719  44.349  11.099
48426W        W16789   1.854  14.281   3.170
48427W        W16790  22.038  37.338  14.983
48428W        W16791  15.229   4.290   1.295
48429W        W16792  42.378   5.738   3.332
48430W        W16793  39.340  25.559  10.894
48431W        W16794  43.495  42.821   3.694
48432W        W16795  23.108   8.867  11.019
48433W        W16796  36.465  35.914   3.745
48434W        W16797  28.475  39.848   1.842
48435W        W16798  36.844  16.675  12.466
48436W        W16799  10.378  44.379   5.146
48437W        W16800   9.670  18.594   3.225
48438W        W16801  24.605  31.599  13.950
48439W        W16802  15.803  40.949   3.869
48440W        W16803   5.743  13.172  14.850
48441W        W16804   1.747  30.154  10.917
48442W        W16805  16.138  27.631   2.697
48443W        W16806  29.569  33.482  12.845
48444W        W16807  44.829   5.217  13.426
48445W        W16808  28.436  28.509  12.370
48446W        W16809  30.118  19.178  14.859
48447W        W16810  25.160  27.622   4.646
48448W        W16811  37.869  44.343  11.549
48449W        W16812  16.777  10.179   2.769
48450W        W16813  28.650  34.399   4.217
48451W        W16814   1.271   9.707  12.965
48452W        W16815   9.731  19.670   3.856
48453W        W16816  26.063  39.384  11.603
48454W        W16817  40.522  12.140   5.164
48455W        W16818  42.897  30.160   2.770
48456W        W16819  13.790  36.920   4.752
48457W        W16820  40.899  15.110  10.890
48458W        W16821  27.671  27.638   3.855
48459W        W16822  17.189  19.644  10.002
48460W        W16823  40.308   1.279   0.908
48461W        W16824   4.703  32.628  12.479
48462W        W16825   5.849   9.666  13.053
48463W        W16826   8.275  20.258   1.860
48464W        W16827   2.772   6.814   3.869
48465W        W16828  43.381   8.729   2.736
48466W        W16829  26.018  43.920   2.695
48467W        W16830  28.014   5.348   3.268
48468W        W16831  34.476  42.845   0.373
48469W        W16832  18.164   8.243  13.946
48470W        W16833   9.653  23.631   2.391
48471W        W16834   4.722   6.797   4.759
48472W        W16835  16.174  32.058   4.642
48473W        W16836  30.625   7.852  14.333
48474W        W16837  10.256  26.646  10.956
48475W        W16838  22.532   9.648  12.873
48476W        W16839   6.865  40.424  13.971
48477W        W16840  12.286  39.907   4.625
48478W        W16841   9.648  39.323  12.484
48479W        W16842  24.664   9.393   4.148
48480W        W16843  11.713  30.122  13.471
48481W        W16844  33.580   6.763   3.272
48482W        W16845  28.978   3.891   4.311
48483W        W16846  36.086  32.909   2.350
48484W        W16847  23.123  43.821   4.823
48485W        W16848   0.899  41.490   4.270
48486W        W16849  13.305   6.291   2.900
48487W        W16850   3.373  12.121   1.374
48488W        W16851  14.655   7.829  14.894
48489W        W16852  38.330  27.005  13.332
48490W        W16853  29.089   7.301   0.309
48491W        W16854   0.464   2.232  13.909
48492W        W16855  14.728  16.186  11.892
48493W        W16856  15.201  42.432  14.796
48494W        W16857  17.668   1.251  11.066
48495W        W16858   3.816  25.483  11.041
48496W        W16859   0.894  24.609   0.740
48497W        W16860  38.063  37.925  11.871
48498W        W16861  37.877   6.374   3.175
48499W        W16862  42.942  32.463   3.348
48500W        W16863  32.942  39.033   0.867
48501W        W16864   9.292  17.753   2.293
48502W        W16865  18.670  39.900  14.886
48503W        W16866  17.087  28.999  13.475
48504W        W16867  37.061   0.427   2.303
48505W        W16868  32.468  16.754  13.529
48506W        W16869  32.106  42.842  11.889
48507W        W16870  40.397  29.007  12.560
48508W        W16871  14.282   9.809  10.442
48509W        W16872  11.343  26.604   2.411
48510W        W16873   6.910  41.040  14.000
48511W        W16874  44.397   0.919  14.330
48512W        W16875  33.463  39.487   1.751
48513W        W16876  20.155  42.965   1.833
48514W        W16877   6.912  21.092   3.158
48515W        W16878  19.214  31.630   3.258
48516W        W16879  20.737  28.504   0.454
48517W        W16880   3.956  44.302   3.146
48518W        W16881  10.372  13.753  13.980
48519W        W16882  44.756  22.198  13.954
48520W        W16883  28.655  35.423   4.215
48521W        W16884   6.781  23.222   3.291
48522W        W16885  11.215  32.542  10.920
48523W        W16886  13.110  23.678  13.315
48524W        W16887  41.322  17.147  13.021
48525W        W16888  17.138   4.239   1.904
48526W        W16889   8.742  22.135  11.475
48527W        W16890  33.939  43.859   0.360
48528W        W16891  35.075   8.171   2.208
48529W        W16892  29.033   0.264   0.256
48530W        W16893  30.527  22.746   3.720
48531W        W16894  21.726  42.442  14.781
48532W        W16895  41.960  41.509   2.374
48533W        W16896  14.166  43.286  11.510
48534W        W16897  43.276   5.764  10.518
48535W        W16898  25.501  32.937  12.000
48536W        W16899  21.088  24.523  10.544
48537W        W16900  32.405  27.981   5.772
48538W        W16901  38.822  27.594  10.595
48539W        W16902  23.147  40.364   9.928
48540W        W16903  44.336  14.738  10.429
48541W        W16904  28.073   4.279  13.446
48542W        W16905  23.548  25.663   3.842
48543W        W16906  10.840  13.239   4.292
48544W        W16907  27.047  11.289   1.431
48545W        W16908  14.818  11.232   4.765
48546W        W16909  33.941  39.872  13.895
48547W        W16910  24.520  40.453  11.595
48548W        W16911  40.442  36.074  12.457
48549W        W16912  14.124  23.591  14.327
48550W        W16913  44.771  23.106   4.212
48551W        W16914  31.477  44.826   3.780
48552W        W16915  34.953  37.484  10.449
48553W        W16916  28.656  41.991  10.404
48554W        W16917  17.154  40.341   1.344
48555W        W16918  23.697   2.795  12.567
48556W        W16919  19.133   5.718   3.694
48557W        W16920  40.363   0.891  12.559
48558W        W16921  29.480  30.461  14.864
48559W        W16922  39.053  34.584  10.070
48560W        W16923  18.632  38.057   3.250
48561W        W16924  13.696  37.911  11.457
48562W        W16925  43.978  13.732  10.953
48563W        W16926  40.490  33.914  12.900
48564W        W16927  14.687  43.978  12.939
48565W        W16928  35.384   3.281  12.882
48566W        W16929  37.458   7.343   4.709
48567W        W16930   2.891  31.421   0.827
48568W        W16931  21.219  15.606  12.935
48569W        W16932   3.446  17.258   5.184
48570W        W16933   1.850  15.612   1.904
48571W        W16934  12.628  35.104   4.178
48572W        W16935   2.304  41.926  13.926
48573W        W16936  18.102  24.531   1.315
48574W        W16937  13.654  34.114  13.533
48575W        W16938  24.102  13.215  14.514
48576W        W16939  24.672  23.528  12.489
48577W        W16940  25.606  18.639   3.656
48578W        W16941   7.745  39.057   5.124
48579W        W16942  16.732  17.243   3.826
48580W        W16943   7.335  31.124  14.446
48581W        W16944  33.615   8.356  11.856
48582W        W16945  23.613  25.597  13.363
48583W        W16946  10.760   5.381  14.986
48584W        W16947  14.809  16.653  11.111
48585W        W16948   2.357  27.524  10.473
48586W        W16949  33.041  16.209  11.095
48587W        W16950   6.739   5.336   2.765
48588W        W16951  14.805  12.353   0.817
48589W        W16952  34.024  17.283   0.740
48590W        W16953   8.662   7.828  11.096
48591W        W16954  36.014  18.205  11.042
48592W        W16955  31.502  38.377  11.572
48593W        W16956  11.335  44.996   3.861
48594W        W16957  43.012  30.564  12.480
48595W        W16958   7.251   2.799   4.750
48596W        W16959  40.928  15.132  13.493
48597W        W16960  25.119  43.888   4.195
48598W        W16961  23.121   1.402  14.473
48599W        W16962  31.142  23.687   0.872
48600W        W16963  28.049  12.675   1.815
48601W        W16964   8.199  32.453   0.427
48602W        W16965  37.925  23.503   0.420
48603W        W16966  13.723   6.804   3.184
48604W        W16967  26.168  16.766   9.643
48605W        W16968  41.314  16.271   2.685
48606W        W16969  19.672  26.060   0.728
48607W        W16970  25.163  19.203   3.804
48608W        W16971  43.969  41.896  14.775
48609W        W16972  33.506   7.762   4.695
48610W        W16973  32.903   2.303  10.518
48611W        W16974  27.091  12.317  14.374
48612W        W16975   8.297  16.570   0.785
48613W        W16976  19.165  31.532   3.869
48614W        W16977  36.879  30.951  12.937
48615W        W16978  38.856  38.435  13.974
48616W        W16979  11.264   0.788   2.745
48617W        W16980   7.771  31.990  10.921
48618W        W16981  14.615  11.753  10.506
48619W        W16982  12.263   3.316  10.107
48620W        W16983  28.027  34.004  11.002
48621W        W16984  20.199  27.567   4.197
48622W        W16985  26.668   3.895  14.422
48623W        W16986   2.935  38.360  14.318
48624W        W16987  39.000  43.873   4.643
48625W        W16988  24.974  10.862  11.008
48626W        W16989  24.144  15.110   1.829
48627W        W16990  37.081  14.269  13.439
48628W        W16991   1.370  26.479  13.938
48629W        W16992   4.371  17.789   3.163
48630W        W16993  31.518  40.027   4.655
48631W        W16994  26.033  30.145   1.313
48632W        W16995   1.861  40.044   1.240
48633W        W16996  20.252   0.361  12.565
48634W        W16997   2.763  13.778  12.339
48635W        W16998   7.900   2.761  14.847
48636W        W16999  30.520  10.373  13.900
48637W        W17000  30.014  44.384  12.887
48638W        W17001  13.647  16.750  14.950
48639W        W17002   9.171  25.495   1.742
48640W        W17003  28.583  20.206  14.760
48641W        W17004  20.083   3.355   2.305
48642W        W17005  11.765  10.269  14.800
48643W        W17006  37.056  31.973  14.334
48644W        W17007  17.762  18.178  10.892
48645W        W17008  37.995   1.350  14.830
48646W        W17009   6.333  42.900  13.512
48647W        W17010  19.172  33.053  11.572
48648W        W17011  14.132  29.627   4.165
48649W        W17012  31.588   4.231  10.969
48650W        W17013  18.770  26.039   0.477
48651W        W17014  22.137  13.252  14.960
48652W        W17015  33.565  21.189  14.383
48653W        W17016  18.790   0.934   0.391
48654W        W17017  11.172  35.962   2.883
48655W        W17018   2.748  11.290   4.258
48656W        W17019   6.310  44.887  14.882
48657W        W17020  18.210  38.347   2.222
48658W        W17021   4.367  20.047   1.811
48659W        W17022  22.114   4.771  11.400
48660W        W17023  32.022  26.008   4.331
48661W        W17024  21.158  35.035   4.832
48662W        W17025  12.348  41.459  12.987
48663W        W17026   7.324  14.303  11.496
48664W        W17027  32.545  32.489  14.003
48665W        W17028  31.080  32.049   3.850
48666W        W17029  25.990  32.520  14.431
48667W        W17030  18.700  24.164   1.217
48668W        W17031   5.423  37.990   2.796
48669W        W17032  12.637  29.522  12.565
48670W        W17033  27.680  20.609   2.741
48671W        W17034  24.078   7.362   0.335
48672W        W17035  35.920  12.180   4.254
48673W        W17036  15.207  42.821  10.643
48674W        W17037   3.912  35.893  11.092
48675W        W17038  42.950   1.305   3.702
48676W        W17039  29.165  19.142  11.041
48677W        W17040  15.736   6.728   2.802
48678W        W17041  14.151  16.303  11.868
48679W        W17042  14.751  15.193  13.922
48680W        W17043  22.217  23.685  13.933
48681W        W17044   4.348  31.476   0.454
48682W        W17045  37.534  30.077  11.556
48683W        W17046  15.750   9.192  12.013
48684W        W17047  43.467  26.208   4.630
48685W        W17048   0.406  28.173   1.703
48686W        W17049  40.825  35.597  13.862
48687W        W17050  44.417  25.120  11.420
48688W        W17051  15.602   1.971  13.408
48689W        W17052  33.422  29.055  10.619
48690W        W17053  36.951  28.677  14.992
48691W        W17054  31.421  36.862   4.816
48692W        W17055  19.096   6.183  12.466
48693W        W17056   1.445  30.423  13.794
48694W        W17057  12.162  20.138  10.990
48695W        W17058  42.487  43.487   4.204
48696W        W17059  20.109   8.165  12.009
48697W        W17060  39.538   7.777   3.200
48698W        W17061  34.029  33.573  12.566
48699W        W17062  22.113  22.032   0.933
48700W        W17063  44.308  22.567   2.729
48701W        W17064  20.138  20.608  13.446
48702W        W17065  14.732  27.667  14.879
48703W        W17066  29.994  31.991  10.415
48704W        W17067   3.315  24.545  11.954
48705W        W17068  44.830  15.157  10.584
48706W        W17069   3.800  26.552   0.794
48707W        W17070  15.192  19.210   2.413
48708W        W17071   8.348  22.027   4.254
48709W        W17072   2.445  24.113  13.795
48710W        W17073  37.926   5.889   3.300
48711W        W17074   4.345   9.299   1.337
48712W        W17075   8.874  32.422   4.666
48713W        W17076  12.166  36.928  12.911
48714W        W17077  18.221   8.814  11.451
48715W        W17078  14.619  27.049  13.409
48716W        W17079  39.061   3.729   1.926
48717W        W17080  22.239  30.625  13.844
48718W        W17081  26.133  10.359  14.378
48719W        W17082  31.607   0.942   3.247
48720W        W17083  24.206  41.042   1.801
48721W        W17084  35.931   8.700  11.036
48722W        W17085  31.646  14.594  12.012
48723W        W17086  19.161  34.929  13.434
48724W        W17087  18.589  29.042   1.428
48725W        W17088   9.657  18.227   4.270
48726W        W17089  30.983  39.993  10.483
48727W        W17090  41.437  33.047  11.021
48728W        W17091   4.439  22.036  12.354
48729W        W17092  40.463  15.280   3.282
48730W        W17093   2.239  10.759  11.878
48731W        W17094  15.732  35.412   4.609
48732W        W17095  35.010  31.495   4.834
48733W        W17096  14.232  27.464   1.724
48734W        W17097  25.586   7.339   1.325
48735W        W17098  16.318  38.373  11.542
48736W        W17099  17.669  36.474   1.356
48737W        W17100  31.595  26.614   2.888
48738W        W17101  38.857  44.984  12.926
48739W        W17102  41.020   3.739  12.038
48740W        W17103  44.338  31.450  14.455
48741W        W17104  11.868  33.065   0.330
48742W        W17105  15.136  35.509  11.120
48743W        W17106  22.733  24.714   2.780
48744W        W17107  11.298   2.392   2.728
48745W        W17108  39.985  18.174   3.267
48746W        W17109  29.991   7.306  11.560
48747W        W17110  41.903   0.941  12.966
48748W        W17111   0.381  19.099   0.271
48749W        W17112  30.643  23.181  11.587
48750W        W17113  27.621   0.969  13.544
48751W        W17114  27.625   6.322  13.319
48752W        W17115   5.718  27.091  12.871
48753W        W17116  10.297  37.867  13.415
48754W        W17117  39.909   3.427  13.028
48755W        W17118  13.785   2.939   2.394
48756W        W17119  30.424  24.713  11.486
48757W        W17120  31.637   9.246  11.062
48758W        W17121  36.010  11.184  10.562
48759W        W17122  24.049  28.469   1.231
48760W        W17123  39.387  33.083  12.938
48761W        W17124   8.694  37.849   1.377
48762W        W17125  38.507  15.109  13.031
48763W        W17126  31.114  14.130   2.694
48764W        W17127   8.893   4.735  10.891
48765W        W17128   8.177  23.596  12.456
48766W        W17129  26.966   9.822  14.923
48767W        W17130  23.192   5.906   1.217
48768W        W17131  43.317   0.858   2.230
48769W        W17132  41.361  18.696   0.477
48770W        W17133  29.040   7.675   3.870
48771W        W17134   9.810   0.808  10.981
48772W        W17135  25.996  37.900   1.928
48773W        W17136  24.574  13.319   0.280
48774W        W17137  19.558   1.261  13.949
48775W        W17138  19.100   6.367  11.095
48776W        W17139  16.725  42.363  10.560
48777W        W17140  24.218  43.816   2.785
48778W        W17141   3.932  12.756   1.316
48779W        W17142  29.666   9.652   2.902
48780W        W17143  28.505  38.896  13.920
48781W        W17144  27.577  39.852  11.967
48782W        W17145  40.826  38.999   1.341
48783W        W17146  38.340   0.938   2.673
48784W        W17147   0.404  42.354   3.280
48785W        W17148  20.155  13.610  12.473
48786W        W17149  22.079  25.706  11.932
48787W        W17150  32.972   4.308   4.319
48788W        W17151   9.244   2.963   4.716
48789W        W17152  12.821  39.369   1.413
48790W        W17153   6.282  26.662  14.965
48791W        W17154  26.624  39.432  10.965
48792W        W17155  18.546   1.928  13.543
48793W        W17156   3.764  22.622   1.745
48794W        W17157  26.186  21.263  13.464
48795W        W17158  16.092  27.087   2.858
48796W        W17159  40.921  21.173  12.574
48797W        W17160  39.935  20.577  13.395
48798W        W17161  14.790  39.973  14.442
48799W        W17162  20.129  35.108  10.963
48800W        W17163   2.849   6.328   1.696
48801W        W17164  17.115  18.184  12.891
48802W        W17165  41.972  12.799  13.002
48803W        W17166  10.240  40.522  13.862
48804W        W17167   3.285  25.561  14.404
48805W        W17168   7.903   1.254   0.464
48806W        W17169  11.635  29.118  14.376
48807W        W17170  33.912  42.503  13.544
48808W        W17171   8.298  24.686   2.698
48809W        W17172  39.317  16.081   4.228
48810W        W17173  21.700  31.916  10.896
48811W        W17174  18.293  39.996  12.015
48812W        W17175  17.194  37.017   1.227
48813W        W17176  29.137  24.183   3.705
48814W        W17177  19.690   5.822   0.360
48815W        W17178  30.532  43.282   3.827
48816W        W17179  38.507  42.980   4.838
48817W        W17180  13.223  19.537   0.961
48818W        W17181  40.438  24.566   4.711
48819W        W17182   3.755  27.534   1.215
48820W        W17183   3.735   9.259   3.710
48821W        W17184  27.086   6.905   1.430
48822W        W17185   2.259   1.327  12.026
48823W        W17186   5.219  14.806   0.297
48824W        W17187   8.769   5.221  13.993
48825W        W17188   4.717  23.539  11.592
48826W        W17189  28.150   4.881  13.835
48827W        W17190  24.046  31.429  11.006
48828W        W17191  41.503   9.700  10.424
48829W        W17192   1.376  40.879   0.274
48830W        W17193  27.637  29.007  11.926
48831W        W17194  31.135  38.440   1.330
48832W        W17195  24.599  29.046   3.333
48833W        W17196  16.185   5.887   2.268
48834W        W17197  21.144  28.520  11.124
48835W        W17198   9.643  24.149  12.096
48836W        W17199  11.274   9.849  11.405
48837W        W17200   5.821  40.397  11.088
48838W        W17201  30.125  11.175  11.112
48839W        W17202  29.670  41.790   0.243
48840W        W17203  43.795  15.788  10.617
48841W        W17204  32.998  27.663  13.975
48842W        W17205  21.632  10.147   0.863
48843W        W17206  17.192  13.148   2.314
48844W        W17207  35.491   5.794   1.419
48845W        W17208   7.774  18.562  13.838
48846W        W17209  31.046  32.915  12.022
48847W        W17210  10.211   9.212   5.120
48848W        W17211   9.674  25.019   3.707
48849W        W17212   8.374   2.272  13.398
48850W        W17213  34.463   8.384   0.890
48851W        W17214  35.452   7.229  11.984
48852W        W17215  34.040  34.897  13.920
48853W        W17216  16.721  40.530   1.733
48854W        W17217  16.604  37.527   3.285
48855W        W17218   8.828  41.484  10.136
48856W        W17219  28.589  30.973  11.095
48857W        W17220  10.155  29.997   0.270
48858W        W17221  21.118  19.625  11.591
48859W        W17222  41.397  24.596   3.766
48860W        W17223  18.261  21.091  10.566
48861W        W17224  19.198  44.369   3.365
48862W        W17225   0.357  26.149   4.245
48863W        W17226  32.079   3.845  11.963
48864W        W17227   9.248  23.701   0.902
48865W        W17228  32.128  33.608  13.813
48866W        W17229   6.207  13.657   0.386
48867W        W17230  33.010  18.631  14.964
48868W        W17231  28.441  42.904  10.131
48869W        W17232  14.281  31.458   0.901
48870W        W17233   3.302  32.996  13.509
48871W        W17234  27.192  12.816   1.712
48872W        W17235  36.450   3.878  12.565
48873W        W17236  38.327  26.974   1.735
48874W        W17237  28.077  18.194  12.446
48875W        W17238  29.016  35.543   4.637
48876W        W17239  35.408   9.661   3.688
48877W        W17240  43.835  37.032  12.842
48878W        W17241  40.404  42.507  11.083
48879W        W17242  39.990  23.704  11.902
48880W        W17243  28.005  33.043  14.013
48881W        W17244  28.655  13.225   1.847
48882W        W17245  29.992  25.621  13.352
48883W        W17246  14.685  33.525   0.775
48884W        W17247  28.680   6.757  13.861
48885W        W17248   1.790  26.546  14.772
48886W        W17249   9.788   3.450   4.205
48887W        W17250   2.765  18.109  11.608
48888W        W17251  36.859  22.682  12.411
48889W        W17252  39.928  14.631   1.354
48890W        W17253  35.042  41.475   2.341
48891W        W17254   8.317  13.184  13.377
48892W        W17255   9.865  34.536  13.855
48893W        W17256   3.372  31.630   1.400
48894W        W17257  39.852   5.870  10.549
48895W        W17258  30.608  18.100  14.493
48896W        W17259  25.121   2.736  12.854
48897W        W17260  41.445   6.851   0.755
48898W        W17261  36.031  44.789  14.806
48899W        W17262  15.198  17.730  10.593
48900W        W17263  39.969  41.383   0.782
48901W        W17264   4.334  16.650  13.912
48902W        W17265  40.798   2.383  11.969
48903W        W17266   2.265  27.531  11.876
48904W        W17267   5.695  37.882  14.961
48905W        W17268  31.070  29.983   1.407
48906W        W17269   9.281  31.550   1.697
48907W        W17270   0.889  23.236  10.409
48908W        W17271  11.263  38.014  12.874
48909W        W17272   3.251  13.251  14.367
48910W        W17273  35.587  10.777  14.406
48911W        W17274   5.917   9.795  14.922
48912W        W17275  23.088  36.913  11.552
48913W        W17276   7.252   3.868   3.146
48914W        W17277  41.415  24.495   0.786
48915W        W17278  26.968  35.391  13.326
48916W        W17279  31.113  34.865  13.889
48917W        W17280  38.480  30.963  10.577
48918W        W17281   1.405  34.905   2.674
48919W        W17282  36.530  30.089   1.860
48920W        W17283  32.559  16.269  12.416
48921W        W17284  36.054  34.494   0.243
48922W        W17285  21.257  41.860   3.712
48923W        W17286  35.091   0.442  14.777
48924W        W17287  22.545  22.199  13.470
48925W        W17288  31.453   8.161   1.904
48926W        W17289   5.822   3.764   4.731
48927W        W17290  13.289  27.562  10.949
48928W        W17291  41.295  44.425  13.891
48929W        W17292   0.319  32.083  14.837
48930W        W17293  27.660  14.654   4.601
48931W        W17294  29.445  23.500  13.385
48932W        W17295  39.339  12.164   1.895
48933W        W17296   4.389  23.670   5.199
48934W        W17297  25.022   8.393   2.844
48935W        W17298  34.119   0.405  12.889
48936W        W17299   6.294  15.704  12.843
48937W        W17300  14.330  34.003  13.384
48938W        W17301  25.040   6.365   4.153
48939W        W17302  19.157   6.426  14.353
48940W        W17303  12.302  44.791  13.431
48941W        W17304  42.391  28.458  11.041
48942W        W17305  38.422  39.514   0.456
48943W        W17306  21.599  44.489   0.376
48944W        W17307   0.804   7.825  13.360
48945W        W17308  31.029  33.462   4.729
48946W        W17309  35.964  41.386  11.916
48947W        W17310  14.813  24.594  14.310
48948W        W17311  11.201   4.388  11.546
48949W        W17312  39.050  18.719  10.450
48950W        W17313  27.665  26.552  14.394
48951W        W17314  43.318  11.764   0.453
48952W        W17315  12.256  40.039   2.846
48953W        W17316   4.761  20.540   2.779
48954W        W17317  35.430  10.293   1.757
48955W        W17318  11.164  29.585  11.611
48956W        W17319   9.680  26.638  11.967
48957W        W17320  33.542  42.805  13.441
48958W        W17321  33.439  35.920  12.832
48959W        W17322  44.441  25.187   1.774
48960W        W17323  31.600   1.965  14.348
48961W        W17324  19.176  30.076  14.507
48962W        W17325  25.711  14.097   2.893
48963W        W17326  15.304   7.720   3.729
48964W        W17327  17.793  27.085   1.327
48965W        W17328  12.186  24.658   3.818
48966W        W17329  22.208  14.200  11.929
48967W        W17330  28.548  30.027   4.181
48968W        W17331  40.360   7.841   3.672
48969W        W17332   8.270  13.764   2.897
48970W        W17333  28.534  22.202   0.421
48971W        W17334  30.964  31.582  10.897
48972W        W17335  34.052  39.950   2.300
48973W        W17336  16.573   3.940  12.069
48974W        W17337  34.567  26.576  14.836
48975W        W17338  42.949  37.437  13.489
48976W        W17339  44.832  14.273   4.734
48977W        W17340   7.237  40.925   2.284
48978W        W17341  36.873  25.581  12.071
48979W        W17342  35.877  32.472  11.599
48980W        W17343  43.288  19.079   4.322
48981W        W17344  26.617   1.266  12.566
48982W        W17345  21.713   0.392   1.226
48983W        W17346   4.854  21.124  10.614
48984W        W17347   2.856  43.504   4.753
48985W        W17348  41.395  15.116   0.255
48986W        W17349   6.182  33.407   3.738
48987W        W17350  22.581  42.823   1.242
48988W        W17351   4.211  10.772  13.462
48989W        W17352  19.566  43.301  10.628
48990W        W17353  21.135  30.495  13.438
48991W        W17354   4.754  27.195   2.205
48992W        W17355  42.421   2.404   4.147
48993W        W17356  29.057  31.483   4.642
48994W        W17357  29.076  12.673  11.372
48995W        W17358  15.635  15.262  11.550
48996W        W17359  41.012  24.072  11.449
48997W        W17360  43.009  27.070  11.449
48998W        W17361  37.342  16.176  12.451
48999W        W17362  33.514  22.693   4.724
49000W        W17363  14.779  36.872  12.921
49001W        W17364  23.067  31.538   4.226
49002W        W17365  14.106   8.354  13.803
49003W        W17366   4.803  17.640  14.449
49004W        W17367  25.143  42.844   4.736
49005W        W17368  33.490  43.800   0.369
49006W        W17369   9.202   2.465  13.364
49007W        W17370  24.134  18.072  12.844
49008W        W17371   0.786   5.352   4.294
49009W        W17372  26.082  34.414   2.670
49010W        W17373  43.822   2.966  14.916
49011W        W17374  39.941   4.205  11.923
49012W        W17375  21.637  22.250  14.506
49013W        W17376   1.878  24.145  14.375
49014W        W17377  42.959  21.597   3.852
49015W        W17378  11.281  44.759  12.825
49016W        W17379  44.338  18.558  14.416
49017W        W17380  32.468  36.590  11.072
49018W        W17381  29.450  32.469   3.194
49019W        W17382   1.297  21.048   2.736
49020W        W17383  15.760  26.179   1.734
49021W        W17384  26.502  25.189   4.808
49022W        W17385  35.362  15.158   2.414
49023W        W17386  37.023  37.988   3.191
49024W        W17387  15.674  12.781   1.274
49025W        W17388   2.458  28.464   4.121
49026W        W17389  33.922  35.046   2.802
49027W        W17390  28.990  13.630  12.518
49028W        W17391  18.085  44.391  11.456
49029W        W17392  23.557  30.947  14.937
49030W        W17393   0.423  25.604  14.396
49031W        W17394   7.806   0.748  12.902
49032W        W17395  10.728  13.695   1.810
49033W        W17396  40.995  39.900   4.834
49034W        W17397  16.579  12.660   3.281
49035W        W17398  13.811  24.692  14.962
49036W        W17399   3.751  28.045  12.008
49037W        W17400  14.629  19.755   3.345
49038W        W17401  41.419   4.450  11.097
49039W        W17402  37.338  36.029  11.404
49040W        W17403  10.686  41.956  11.060
49041W        W17404   3.774  14.332   1.783
49042W        W17405  17.239  39.477  13.889
49043W        W17406  14.244  32.108   3.804
49044W        W17407   6.251  20.107  10.567
49045W        W17408  25.511  14.784  10.638
49046W        W17409  30.043  31.059  13.960
49047W        W17410  18.101  15.309   0.897
49048W        W17411  29.932  35.979   0.356
49049W        W17412  23.584  18.721   3.300
49050W        W17413   1.882  39.478   4.224
49051W        W17414  34.602   6.705  14.827
49052W        W17415  37.470  28.435  14.811
49053W        W17416  15.801   7.394   2.211
49054W        W17417  40.966  29.445   3.759
49055W        W17418   7.910  16.657   2.853
49056W        W17419   8.209  21.029  11.088
49057W        W17420  10.195  25.149   4.625
49058W        W17421  30.133  13.221  12.852
49059W        W17422  35.055   5.194   0.853
49060W        W17423  30.164  30.071  11.453
49061W        W17424  29.669  24.192   4.127
49062W        W17425   7.381   7.889   0.917
49063W        W17426  36.846   6.883  11.514
49064W        W17427   8.866   5.910  11.515
49065W        W17428  33.465  20.738  10.591
49066W        W17429  34.531  15.157  13.881
49067W        W17430  43.973  18.184  12.983
49068W        W17431   1.957  39.853  10.490
49069W        W17432   9.241   4.881   2.379
49070W        W17433  15.803  43.383  11.997
49071W        W17434  23.645  20.078  13.522
49072W        W17435   0.266  43.318  12.446
49073W        W17436   3.816  39.917  11.502
49074W        W17437  38.007  21.682  13.043
49075W        W17438  18.652   1.392   0.918
49076W        W17439   3.311  30.605   2.229
49077W        W17440  33.079  22.634  10.552
49078W        W17441   1.770  32.909  14.300
49079W        W17442  17.765  42.476   3.304
49080W        W17443  16.176  15.095  12.519
49081W        W17444  42.451  28.003   4.817
49082W        W17445  11.852  38.370  14.817
49083W        W17446  16.097  20.717  14.934
49084W        W17447  37.424  32.053   2.260
49085W        W17448  15.320  30.477   0.381
49086W        W17449  38.837  22.598  14.303
49087W        W17450  33.092   2.269   0.875
49088W        W17451  40.037  32.102   5.268
49089W        W17452  11.213  15.116   0.933
49090W        W17453  37.504   0.756   5.213
49091W        W17454  36.592   5.409   1.320
49092W        W17455  17.765   0.749  12.979
49093W        W17456   2.299  33.005   3.789
49094W        W17457  20.161   0.922  12.083
49095W        W17458  32.567  22.207  14.291
49096W        W17459  40.882  12.842   0.407
49097W        W17460  17.170  43.913  10.092
49098W        W17461  43.826   5.823  12.829
49099W        W17462  23.645  20.037   0.417
49100W        W17463   0.264   8.392   2.700
49101W        W17464  43.372  30.474   0.370
49102W        W17465  29.561  29.555   9.928
49103W        W17466   3.903  37.854  11.443
49104W        W17467  33.055  31.644  10.599
49105W        W17468   4.773  37.479  14.914
49106W        W17469  31.023  36.970  13.436
49107W        W17470  15.759  14.238   4.296
49108W        W17471  24.479  18.205  14.821
49109W        W17472   1.270  28.558   2.285
49110W        W17473  13.832  38.859   1.741
49111W        W17474  36.428  33.127   3.149
49112W        W17475  19.722  23.221   3.154
49113W        W17476  16.672  32.086   2.874
49114W        W17477  37.864  36.550   1.407
49115W        W17478  12.611  39.542  11.429
49116W        W17479  39.511  40.498  14.279
49117W        W17480  38.522  10.640  10.135
49118W        W17481   5.693  15.747  10.472
49119W        W17482  13.107  37.028   0.480
49120W        W17483   3.343  24.528  13.530
49121W        W17484  44.441  23.171  12.908
49122W        W17485  16.566  30.494  13.376
49123W        W17486  41.002  27.056   3.794
49124W        W17487  10.348  25.555   0.925
49125W        W17488  25.985  21.231   1.802
49126W        W17489   2.908  14.662   1.746
49127W        W17490  40.466  30.560  14.817
49128W        W17491  31.489  15.305   1.842
49129W        W17492  18.177   9.368   2.674
49130W        W17493  22.702  40.420  12.484
49131W        W17494  29.658   9.326   3.154
49132W        W17495   6.900  18.646  13.346
49133W        W17496  33.568  30.960   3.216
49134W        W17497  40.005  38.472  11.376
49135W        W17498  44.937  19.072   3.198
49136W        W17499   5.699  16.172   4.227
49137W        W17500  43.859  43.326   0.950
49138W        W17501   8.321  23.694   2.690
49139W        W17502   6.299   2.937   1.331
49140W        W17503  14.158  19.133   3.178
49141W        W17504  32.946  15.243   3.215
49142W        W17505  44.974  32.024  14.371
49143W        W17506  14.173  36.031  10.926
49144W        W17507  35.945  18.643  10.611
49145W        W17508  40.951  40.984   1.797
49146W        W17509  44.800  40.927   3.364
49147W        W17510  43.894  28.146  14.406
49148W        W17511   5.429  24.590   4.252
49149W        W17512  26.511  22.627  13.500
49150W        W17513  29.535  23.114   1.358
49151W        W17514  31.454  18.680  11.497
49152W        W17515  44.852   2.872  13.850
49153W        W17516   8.708  42.309   1.770
49154W        W17517  17.185  13.660   1.341
49155W        W17518  25.698  10.862   3.826
49156W        W17519  20.544  39.462   3.707
49157W        W17520  42.988   6.688   1.310
49158W        W17521  19.162   1.424   2.744
49159W        W17522  29.483  24.020   2.821
49160W        W17523  13.333   1.267   2.777
49161W        W17524  31.433   2.753  13.795
49162W        W17525  12.702   9.261   4.599
49163W        W17526  39.874  30.084  14.940
49164W        W17527  22.590  13.712   4.177
49165W        W17528   3.289  12.695  14.465
49166W        W17529  28.512  10.645   1.352
49167W        W17530  19.092  24.168  11.573
49168W        W17531  13.837  30.434   3.272
49169W        W17532   7.703  21.093  11.486
49170W        W17533  30.927  15.151  11.460
49171W        W17534  22.106  18.140  10.988
49172W        W17535   4.850   4.751  14.484
49173W        W17536   7.801   6.225  13.449
49174W        W17537  33.466  30.107  12.976
49175W        W17538  26.514   3.891  12.841
49176W        W17539  17.276  19.254   1.357
49177W        W17540  17.682   7.813   1.859
49178W        W17541  37.490   2.770   4.179
49179W        W17542  34.434  32.968   4.727
49180W        W17543  15.155   4.393  14.987
49181W        W17544  30.413  14.788   1.283
49182W        W17545  14.162  17.759   0.815
49183W        W17546  27.581  13.744  12.467
49184W        W17547  42.392  22.623   3.843
49185W        W17548   8.326  25.159  10.547
49186W        W17549  37.406   7.853  14.451
49187W        W17550  36.022  16.174   3.335
49188W        W17551   3.405  10.327   1.727
49189W        W17552  19.286  30.974   2.803
49190W        W17553  10.176  38.890  11.906
49191W        W17554  21.137  15.289   5.083
49192W        W17555  12.728  17.199  11.966
49193W        W17556  29.606   6.412   5.091
49194W        W17557  10.260  18.657   4.646
49195W        W17558  17.778  31.961   3.255
49196W        W17559  17.102  23.677  14.882
49197W        W17560  16.777   0.965  12.052
49198W        W17561  37.954   7.793   0.265
49199W        W17562  12.167  31.980  13.917
49200W        W17563  15.609   2.359   1.299
49201W        W17564   7.764  26.039  13.370
49202W        W17565  43.436  14.623  10.432
49203W        W17566  33.034  42.872  12.389
49204W        W17567  29.053  30.605   0.881
49205W        W17568  10.783  20.720  12.863
49206W        W17569  43.330  19.751   3.828
49207W        W17570  26.178  22.561  13.994
49208W        W17571  40.934  24.224   0.437
49209W        W17572  37.436   4.206  10.925
49210W        W17573   1.439  30.509   1.419
49211W        W17574  28.034  27.977  10.558
49212W        W17575  34.427  39.955  11.967
49213W        W17576  14.707  11.225  12.456
49214W        W17577   6.921  25.040  13.034
49215W        W17578   4.340  37.364  14.907
49216W        W17579  19.607  29.014  14.003
49217W        W17580   8.383  33.578   0.366
49218W        W17581  16.575  31.502   1.352
49219W        W17582  10.667  18.565   0.303
49220W        W17583  12.631  42.487  13.320
49221W        W17584  19.640   7.266  14.822
49222W        W17585  41.028  38.824   0.870
49223W        W17586  18.653  17.195  13.023
49224W        W17587  34.892  42.870   4.116
49225W        W17588  34.943  22.698  11.067
49226W        W17589   1.866   6.706  14.888
49227W        W17590  36.350   7.257   0.298
49228W        W17591   0.338  12.668  11.957
49229W        W17592  24.221  19.668   3.675
49230W        W17593   5.748  16.192   3.162
49231W        W17594  31.475  37.542  11.990
49232W        W17595  12.339   8.869   3.747
49233W        W17596   7.173   7.287   2.326
49234W        W17597   2.963  19.543  12.870
49235W        W17598  24.540  24.535   3.724
49236W        W17599  23.148  20.605  13.893
49237W        W17600   5.258   6.393  11.037
49238W        W17601  41.905  11.751  11.103
49239W        W17602   6.805  33.476  11.543
49240W        W17603  33.555  31.539   1.745
49241W        W17604  10.713  20.231  10.634
49242W        W17605  40.801  18.221  12.470
49243W        W17606  16.276  25.471  13.534
49244W        W17607  24.133  36.876   4.747
49245W        W17608  17.135  10.709  14.441
49246W        W17609  40.354   7.335   4.830
49247W        W17610  38.410  32.886  11.076
49248W        W17611  26.509  32.453  11.950
49249W        W17612   0.444  24.678   4.297
49250W        W17613  23.110   6.731  10.578
49251W        W17614  22.052   2.433  14.460
49252W        W17615   2.255   5.902   1.773
49253W        W17616  14.709  25.130  13.941
49254W        W17617  11.812  11.362   1.913
49255W        W17618  32.596  20.535   2.849
49256W        W17619  38.501  37.951   2.794
49257W        W17620  33.385  34.438  10.121
49258W        W17621  30.976  26.087   0.264
49259W        W17622  39.357  40.822   0.296
49260W        W17623  21.557  14.173  11.397
49261W        W17624  29.008  10.687  13.966
49262W        W17625  43.444  40.384  12.525
49263W        W17626   4.714  44.860   9.968
49264W        W17627  28.622  44.946   3.211
49265W        W17628  22.552  10.784   0.374
49266W        W17629  19.635  15.168   3.227
49267W        W17630   8.802  12.772  11.899
49268W        W17631  41.295  23.027   0.807
49269W        W17632  10.642  14.668  13.323
49270W        W17633   9.805   7.217   3.684
49271W        W17634   2.891  44.438  10.051
49272W        W17635   4.889  16.117   2.822
49273W        W17636  41.937  17.304  10.978
49274W        W17637  13.839  23.200   1.795
49275W        W17638  20.096  30.988   1.792
49276W        W17639  33.475  23.593   1.808
49277W        W17640  16.641  17.596   4.136
49278W        W17641  23.726   1.474  13.891
49279W        W17642  15.650  37.972  13.424
49280W        W17643  30.610  33.079  13.894
49281W        W17644  28.516   5.198   3.642
49282W        W17645  11.674   9.388   4.829
49283W        W17646  35.865  12.121   2.410
49284W        W17647  15.680  16.221  13.548
49285W        W17648  36.855  35.361  13.464
49286W        W17649  39.557  38.913   1.252
49287W        W17650   8.657  37.562   4.608
49288W        W17651  15.657  34.086   3.724
49289W        W17652  28.106  34.613  11.564
49290W        W17653  25.180  12.794   0.860
49291W        W17654  22.202  36.402   2.852
49292W        W17655   9.180  34.430   2.406
49293W        W17656  42.407  41.896  11.955
49294W        W17657  42.495  24.030  10.477
49295W        W17658   9.659  18.116  11.540
49296W        W17659  27.008   2.959   2.375
49297W        W17660  39.888  31.605   1.697
49298W        W17661  12.779  16.104  14.921
49299W        W17662   2.283   8.229  11.063
49300W        W17663  13.196  32.509   1.314
49301W        W17664  16.801  14.659   0.290
49302W        W17665  44.840  30.141  10.955
49303W        W17666   0.249   5.426   2.199
49304W        W17667  43.316  36.962   4.349
49305W        W17668   9.257   3.413  10.938
49306W        W17669  10.221  18.632  10.891
49307W        W17670  15.121  28.571   3.304
49308W        W17671  40.403  15.087  12.392
49309W        W17672  27.664  22.645   0.415
49310W        W17673  26.119  31.638   3.669
49311W        W17674  35.037   2.299  14.830
49312W        W17675  37.366  36.855   2.206
49313W        W17676  23.686   8.692  10.939
49314W        W17677   7.225   2.379   2.832
49315W        W17678  33.038   9.197  10.983
49316W        W17679  14.301  33.501  12.906
49317W        W17680  36.370  22.625   4.640
49318W        W17681   6.348  39.903  14.883
49319W        W17682  43.305  24.182   1.769
49320W        W17683  28.969  27.968   5.157
49321W        W17684  12.119   1.968  11.899
49322W        W17685  32.966  29.501   4.766
49323W        W17686  18.673  25.592  13.926
49324W        W17687  24.122  11.243   1.267
49325W        W17688  36.367  42.009   2.328
49326W        W17689  34.971   8.792  11.886
49327W        W17690  18.154  19.119  13.355
49328W        W17691  13.231  22.740   0.826
49329W        W17692  23.695  32.586   0.340
49330W        W17693   0.308  33.600  12.438
49331W        W17694  18.735  30.087  13.887
49332W        W17695  20.528  14.327   4.692
49333W        W17696  31.468  22.556  14.010
49334W        W17697  43.011  43.013   2.269
49335W        W17698  16.087  27.547   4.121
49336W        W17699  44.861  32.127  11.940
49337W        W17700  30.078  37.069   0.257
49338W        W17701   1.835   7.405   1.713
49339W        W17702   7.195  13.232  14.365
49340W        W17703  40.419   5.796  10.424
49341W        W17704   2.392  42.010  11.110
49342W        W17705  26.608  22.549   2.685
49343W        W17706  19.609   0.270   2.329
49344W        W17707   5.781  20.074  10.629
49345W        W17708  33.526   3.718   0.900
49346W        W17709  14.176   4.866  12.869
49347W        W17710  32.532  40.339   0.471
49348W        W17711   9.350  18.613   4.648
49349W        W17712  36.975  19.540  11.891
49350W        W17713  15.244   6.274   5.185
49351W        W17714  24.122  38.431  11.874
49352W        W17715  43.855  43.852   4.676
49353W        W17716   8.776  41.884   2.249
49354W        W17717  25.179   9.745  11.526
49355W        W17718  34.527  34.033   1.346
49356W        W17719   7.813  15.676  12.959
49357W        W17720  17.726  18.209  10.412
49358W        W17721  32.444  22.124   4.316
49359W        W17722  28.997  19.113   3.344
49360W        W17723  36.945  17.164  13.808
49361W        W17724  30.058  17.557  13.492
49362W        W17725  17.296  29.171  14.984
49363W        W17726   2.808   6.199  13.791
49364W        W17727  37.955  21.645   0.353
49365W        W17728  29.142  27.108  11.397
49366W        W17729  31.440  24.510  12.479
49367W        W17730   2.448  37.346   1.292
49368W        W17731  36.347  25.998   3.250
49369W        W17732  12.304  31.518   1.794
49370W        W17733  28.184  19.162   0.885
49371W        W17734  35.575  29.576   4.796
49372W        W17735  17.738  11.370  12.825
49373W        W17736  29.423  14.745   2.237
49374W        W17737  33.953   3.730  10.908
49375W        W17738  12.775   1.915  11.572
49376W        W17739  36.080  17.652  13.452
49377W        W17740  10.332   9.160   3.859
49378W        W17741  15.590  42.518   0.409
49379W        W17742  31.084   7.850   1.874
49380W        W17743   7.693  29.128   1.357
49381W        W17744  25.151  37.000   3.335
49382W        W17745  14.179  20.662  12.383
49383W        W17746  18.565   7.755   0.819
49384W        W17747  43.991   2.736  13.530
49385W        W17748  36.945   5.409  13.418
49386W        W17749  36.061  28.072   1.699
49387W        W17750  12.751  39.909   4.728
49388W        W17751  19.190  20.597   1.248
49389W        W17752  38.371  16.240   3.821
49390W        W17753   8.194  26.058  13.995
49391W        W17754  44.386  12.856  12.454
49392W        W17755   4.374  22.034   3.224
49393W        W17756  26.206  34.610   4.213
49394W        W17757  38.355  33.005   3.709
49395W        W17758   9.698  17.121   2.812
49396W        W17759  29.009  33.528   2.751
49397W        W17760  13.114  12.752  10.110
49398W        W17761  41.870  35.387   0.910
49399W        W17762   2.956   9.838  13.487
49400W        W17763  32.047  32.114  14.954
49401W        W17764   8.761   9.298  12.853
49402W        W17765   4.328  17.072  10.523
49403W        W17766  26.040  26.035  14.920
49404W        W17767  27.044  16.114  13.476
49405W        W17768  15.329   9.753  12.937
49406W        W17769  39.434  24.721  13.793
49407W        W17770  11.163  34.512  14.493
49408W        W17771  39.555  42.321  11.123
49409W        W17772   4.740   5.339   4.118
49410W        W17773   8.690   1.919   4.223
49411W        W17774  43.477  16.259  10.908
49412W        W17775  40.344   9.857  10.566
49413W        W17776   4.216   7.854  14.951
49414W        W17777  30.071  24.089   1.771
49415W        W17778  19.089  35.496   1.295
49416W        W17779  31.117  38.907   1.284
49417W        W17780  36.953  11.251  12.385
49418W        W17781   6.375  26.047  13.918
49419W        W17782  25.526  23.047  12.553
49420W        W17783  32.564   1.383  10.637
49421W        W17784   8.815  14.139  14.872
49422W        W17785  14.786  16.154   1.241
49423W        W17786  42.857   3.772   1.843
49424W        W17787  18.122  17.277   0.248
49425W        W17788  27.688  30.098   2.216
49426W        W17789  42.482  34.540  14.948
49427W        W17790  35.089  14.115  10.887
49428W        W17791  27.592   7.324   4.149
49429W        W17792  19.179  44.957  14.988
49430W        W17793  21.740  19.258  13.493
49431W        W17794  22.672  31.056   2.855
49432W        W17795  32.617  21.181   2.183
49433W        W17796  43.764  35.025   2.292
49434W        W17797  23.535  43.826  13.501
49435W        W17798  24.069   7.221  12.454
49436W        W17799   3.925  28.524   0.873
49437W        W17800  22.024  35.883   4.191
49438W        W17801  12.631  29.659  10.613
49439W        W17802  25.580  31.411   4.343
49440W        W17803  22.177   7.807   4.715
49441W        W17804  44.871  12.706   3.745
49442W        W17805  43.858  24.625  11.009
49443W        W17806  19.760   6.715  14.003
49444W        W17807  22.709  16.804   1.861
49445W        W17808  18.549  35.981  12.359
49446W        W17809   3.730  38.899   0.886
49447W        W17810  26.638  40.449   0.330
49448W        W17811  44.277  35.094   1.221
49449W        W17812  43.391   1.850   3.262
49450W        W17813  17.781   3.857   3.266
49451W        W17814  20.207  12.360   0.731
49452W        W17815  33.618  35.597   0.316
49453W        W17816  14.309  25.498  11.472
49454W        W17817  17.685  26.040   3.327
49455W        W17818   8.874  42.402   0.316
49456W        W17819  12.234  13.130  11.522
49457W        W17820   7.274  25.992   4.689
49458W        W17821   6.822   5.305  14.904
49459W        W17822   4.899   2.816  11.564
49460W        W17823  14.254  20.679  13.845
49461W        W17824  31.605  43.996   1.825
49462W        W17825  26.970  12.348  14.875
49463W        W17826  32.986   1.849  10.888
49464W        W17827  27.024  33.417   3.758
49465W        W17828  24.207  24.656   2.264
49466W        W17829  10.673  34.882   2.747
49467W        W17830   8.312  12.715  10.919
49468W        W17831   8.210  34.581  12.391
49469W        W17832  44.868  21.548   3.386
49470W        W17833  19.252  24.112   1.721
49471W        W17834  33.380  41.439  13.978
49472W        W17835  37.048  32.604  14.848
49473W        W17836  44.470  28.604   2.712
49474W        W17837  36.014  11.280  11.389
49475W        W17838  28.156  34.584  14.989
49476W        W17839  29.099  32.570   0.898
49477W        W17840  30.016   9.710   2.820
49478W        W17841  37.947  20.683  14.304
49479W        W17842  40.522   0.287  12.550
49480W        W17843  32.975  34.116  10.928
49481W        W17844  10.790  26.498  11.518
49482W        W17845  32.055  35.920   3.252
49483W        W17846  34.545  31.967   3.708
49484W        W17847  41.829  37.387   3.348
49485W        W17848   8.233   7.216   4.159
49486W        W17849   0.906  23.140  11.975
49487W        W17850  24.522  41.989  13.317
49488W        W17851  39.866  19.087   2.820
49489W        W17852  18.758  28.542  11.551
49490W        W17853   2.799  17.768   3.817
49491W        W17854  42.313  42.989  10.450
49492W        W17855  19.692  22.238   1.274
49493W        W17856  24.560  31.026   3.268
49494W        W17857  40.976  28.557   1.801
49495W        W17858   6.781  36.893   0.331
49496W        W17859  43.917  40.520  14.973
49497W        W17860  24.495   7.234   4.721
49498W        W17861   2.255  21.134   1.245
49499W        W17862   5.359  38.534   4.195
49500W        W17863  32.628   8.387   3.723
49501W        W17864   8.209   3.795  11.384
49502W        W17865   0.833   9.855  12.831
49503W        W17866   2.940  24.027  10.103
49504W        W17867  39.007   7.762  12.043
49505W        W17868  41.007  38.908  10.620
49506W        W17869  40.985   3.754   2.813
49507W        W17870  39.365  38.825  10.934
49508W        W17871  17.278  36.571   1.762
49509W        W17872  44.322  44.810   3.827
49510W        W17873  32.543  43.902   3.722
49511W        W17874  40.360  16.240   3.300
49512W        W17875  19.762  30.117   3.866
49513W        W17876  41.372  10.195  11.588
49514W        W17877  42.821   6.325   0.847
49515W        W17878  40.336   8.725   3.320
49516W        W17879  16.732   0.853   2.255
49517W        W17880  19.178  22.734  11.914
49518W        W17881  11.141   3.284   5.313
49519W        W17882  31.073  25.531  12.903
49520W        W17883  34.974  12.758   4.288
49521W        W17884  37.062  11.681  13.907
49522W        W17885  33.929  15.136   3.670
49523W        W17886  42.292  22.571   2.283
49524W        W17887   3.720  44.859   2.730
49525W        W17888  16.792  32.905   0.898
49526W        W17889   3.767  24.159  11.974
49527W        W17890  30.610  20.137  11.048
49528W        W17891  42.868  40.039   4.290
49529W        W17892  29.603  24.032  10.440
49530W        W17893  21.087  35.865  12.055
49531W        W17894  11.635  39.839   1.312
49532W        W17895  13.186  12.810  14.496
49533W        W17896  12.660  40.522   4.144
49534W        W17897  17.291  38.439   0.943
49535W        W17898  20.536  19.274  10.983
49536W        W17899   0.988   0.257   2.376
49537W        W17900  33.044  36.536  13.502
49538W        W17901  29.482  32.488  12.463
49539W        W17902  26.670  25.579   2.264
49540W        W17903  25.515  20.259  13.904
49541W        W17904  42.903  34.501   2.306
49542W        W17905   8.882  34.912  12.394
49543W        W17906  40.002   7.815  11.051
49544W        W17907  14.231   9.231   0.341
49545W        W17908  37.860  15.610   2.675
49546W        W17909  15.294   7.810  14.449
49547W        W17910  42.477   8.867  13.486
49548W        W17911  33.103   8.658  11.913
49549W        W17912  14.115  16.647   2.746
49550W        W17913  12.716  12.283  11.088
49551W        W17914  24.596  38.038   4.327
49552W        W17915  15.116  21.059  13.543
49553W        W17916  26.462  11.822   2.802
49554W        W17917  42.311  10.216   1.785
49555W        W17918  36.969  35.021  12.058
49556W        W17919  33.487   4.265   3.634
49557W        W17920  27.649  34.904  11.021
49558W        W17921  26.087  44.356   0.819
49559W        W17922   8.197  16.289  13.890
49560W        W17923  29.980  26.134   2.737
49561W        W17924   6.387   9.286   2.802
49562W        W17925   1.354  41.960   0.297
49563W        W17926  37.963  26.640   1.378
49564W        W17927  26.605  10.210   0.282
49565W        W17928  43.878  33.016  13.800
49566W        W17929  13.340  17.112   2.416
49567W        W17930  41.385  14.329  11.872
49568W        W17931  19.683  25.635   0.808
49569W        W17932  15.198  44.312   2.702
49570W        W17933  20.625  42.385  14.018
49571W        W17934  10.180  24.497   0.853
49572W        W17935  37.410  43.476   1.878
49573W        W17936   9.667  27.532  13.020
49574W        W17937  23.145  31.617   0.913
49575W        W17938  29.573  44.836   3.823
49576W        W17939  44.955  10.245  14.410
49577W        W17940  23.588   5.435   0.363
49578W        W17941  32.576  14.603   3.837
49579W        W17942  22.006  11.724   1.834
49580W        W17943  30.918  18.188   0.427
49581W        W17944  39.404  38.462   0.260
49582W        W17945  26.585   0.422  14.412
49583W        W17946  28.558  36.564   0.876
49584W        W17947   6.250  36.487  14.786
49585W        W17948  20.732   2.942  10.599
49586W        W17949  17.138  10.238  10.049
49587W        W17950  34.887   9.162   2.778
49588W        W17951  39.837  44.401  13.905
49589W        W17952  37.918  19.172   4.314
49590W        W17953  39.492  21.561   2.404
49591W        W17954   9.686  23.102   2.665
49592W        W17955  36.984  33.435   3.187
49593W        W17956  14.615   2.312   0.388
49594W        W17957   1.361  20.559   2.344
49595W        W17958  14.628  21.056  13.818
49596W        W17959  33.557  10.374   3.278
49597W        W17960   3.455   5.204   0.892
49598W        W17961  33.450   3.389  11.909
49599W        W17962  39.464  16.603  14.500
49600W        W17963  17.108  15.700   5.138
49601W        W17964   4.780  19.152  12.424
49602W        W17965   7.412  21.211   3.220
49603W        W17966  40.462  32.916   4.702
49604W        W17967  39.396   6.728   1.928
49605W        W17968  16.676   2.831   2.274
49606W        W17969  15.762  16.155  14.871
49607W        W17970  17.669   6.830   0.243
49608W        W17971  35.425  35.023   2.738
49609W        W17972   5.836   5.932  12.895
49610W        W17973  12.233  37.388  12.040
49611W        W17974  29.501  28.959  14.000
49612W        W17975  36.400   3.709  10.422
49613W        W17976  22.231  24.618  12.375
49614W        W17977  18.762  21.600   2.257
49615W        W17978   6.741  25.106  12.015
49616W        W17979   9.336  27.111  10.915
49617W        W17980  34.434  16.316  11.110
49618W        W17981  23.559   3.836  12.509
49619W        W17982  31.942   8.797  13.420
49620W        W17983  44.755  25.021  14.345
49621W        W17984   3.216  36.914  12.850
49622W        W17985  37.882  19.077   0.915
49623W        W17986  12.309   5.880  10.139
49624W        W17987  26.584   8.393  10.922
49625W        W17988  24.679  24.720  11.424
49626W        W17989  25.560   3.369   5.236
49627W        W17990  19.539  35.896  14.327
49628W        W17991  10.859   7.678  11.413
49629W        W17992  15.706  38.503   0.819
49630W        W17993   5.265  44.894  10.440
49631W        W17994  11.641  34.528  10.553
49632W        W17995   4.872  41.529  10.944
49633W        W17996  41.020  13.747   0.410
49634W        W17997  43.307  23.567  14.457
49635W        W17998  34.395   2.849  11.928
49636W        W17999  16.784   3.939   0.757
49637W        W18000  19.222   0.419   1.817
49638W        W18001   1.779  29.002   3.219
49639W        W18002  28.677  20.089  13.519
49640W        W18003  24.143  13.281  13.377
49641W        W18004   5.857  17.701   3.281
49642W        W18005  28.582  28.016   0.338
49643W        W18006   0.887  13.807   1.931
49644W        W18007   0.896  44.498   3.701
49645W        W18008  29.601  44.807   3.378
49646W        W18009  12.169  16.131  10.909
49647W        W18010  39.342  18.092   3.345
49648W        W18011   5.396  42.809   1.697
49649W        W18012  20.761  11.169  13.461
49650W        W18013  11.289  14.205  14.954
49651W        W18014  15.094  38.828  12.077
49652W        W18015   6.905   9.792  12.995
49653W        W18016   0.474  24.115  14.930
49654W        W18017  44.368  28.947   0.892
49655W        W18018  36.934   8.746   3.231
49656W        W18019  11.849  14.116   4.817
49657W        W18020  33.114  18.057   4.788
49658W        W18021  43.516  33.911  12.853
49659W        W18022  23.551   3.343   0.437
49660W        W18023  24.542  36.923   3.200
49661W        W18024  25.479  36.911   4.665
49662W        W18025   5.843  44.905  13.846
49663W        W18026  11.734   2.428  10.533
49664W        W18027   7.814  29.066   1.756
49665W        W18028  10.197  42.346  11.929
49666W        W18029  12.729  36.468  13.475
49667W        W18030  23.665  43.463   4.276
49668W        W18031  21.757  19.118  11.402
49669W        W18032  29.644   8.717   2.412
49670W        W18033  19.078  19.657  11.571
49671W        W18034  24.092  19.137  12.350
49672W        W18035   2.802  25.159  10.037
49673W        W18036  18.252   9.738  11.578
49674W        W18037   7.207  14.147   4.144
49675W        W18038  29.020   8.800   5.176
49676W        W18039   0.865   8.331   2.417
49677W        W18040  25.991  12.723  13.400
49678W        W18041  26.601  22.233   4.267
49679W        W18042  19.132  12.139  11.942
49680W        W18043  34.954  44.932   0.734
49681W        W18044  12.305   4.843  14.478
49682W        W18045  36.869  18.772   3.204
49683W        W18046   0.988  11.807   2.210
49684W        W18047   7.747   6.286  11.466
49685W        W18048   4.722  42.321  12.418
49686W        W18049   9.299  29.588   4.305
49687W        W18050  17.702  39.550  11.011
49688W        W18051   4.362  35.393  14.907
49689W        W18052  24.486  22.595  10.594
49690W        W18053  30.453  15.215   4.215
49691W        W18054   1.423  15.227  12.460
49692W        W18055  39.005  41.811   4.160
49693W        W18056  20.710  41.325   4.758
49694W        W18057  24.050  25.636   1.266
49695W        W18058  23.022   0.467  14.963
49696W        W18059  32.060  38.896   3.277
49697W        W18060  16.742  29.631  12.395
49698W        W18061  12.180   8.242  11.086
49699W        W18062   1.408   2.452  11.903
49700W        W18063  20.269  39.528   4.239
49701W        W18064  41.360   2.729  12.511
49702W        W18065   7.676   9.819   2.400
49703W        W18066  18.112  40.314  11.603
49704W        W18067  12.809  12.663   3.800
49705W        W18068  15.115  23.043  11.551
49706W        W18069  43.471   0.451   0.901
49707W        W18070   0.887  43.303  12.884
49708W        W18071  26.036  44.478   1.344
49709W        W18072  32.889  14.670   0.419
49710W        W18073   5.700  25.489   0.467
49711W        W18074  33.428   0.361  13.806
49712W        W18075  16.631  28.177  11.900
49713W        W18076  18.712  33.531   4.746
49714W        W18077  34.594   3.949   4.196
49715W        W18078  30.134  21.734  13.383
49716W        W18079  36.869  19.075   0.357
49717W        W18080  27.055  15.231   1.847
49718W        W18081  30.501  28.039   5.192
49719W        W18082  43.509  33.534  13.902
49720W        W18083  30.924  34.898  12.534
49721W        W18084  43.491  36.481  12.994
49722W        W18085  33.064  37.495   1.351
49723W        W18086  35.061  41.452   1.855
49724W        W18087  22.739  13.305  14.931
49725W        W18088  33.560  21.680  12.470
49726W        W18089  23.562   5.426   4.633
49727W        W18090  41.892  12.164   3.162
49728W        W18091  23.621  13.802   1.262
49729W        W18092   8.330  27.197  11.575
49730W        W18093  24.071  36.378  11.906
49731W        W18094   5.377  23.701   1.784
49732W        W18095  38.398  24.136  10.478
49733W        W18096  15.166  24.986   1.930
49734W        W18097  34.507  32.004  13.000
49735W        W18098  43.459  17.298  10.000
49736W        W18099  35.035  28.092  11.436
49737W        W18100  10.844   3.901  14.366
49738W        W18101  33.457  39.848  13.996
49739W        W18102  11.321  16.781  10.998
49740W        W18103  33.409  41.864  14.512
49741W        W18104  15.115  24.676  11.001
49742W        W18105  25.605  41.395  14.893
49743W        W18106  18.546  21.190   1.299
49744W        W18107  28.468  32.619   1.745
49745W        W18108  42.848  26.116  10.444
49746W        W18109   1.318  41.839   2.216
49747W        W18110  44.827   4.217   4.318
49748W        W18111  34.883   6.406   0.896
49749W        W18112  13.176  31.921  13.867
49750W        W18113   3.405  44.323   3.345
49751W        W18114  12.782  11.218   0.875
49752W        W18115  11.285  12.720  14.326
49753W        W18116  33.445  20.695   1.834
49754W        W18117  43.324  10.222  10.530
49755W        W18118  28.672   9.170   3.811
49756W        W18119  31.012  22.519   4.260
49757W        W18120   7.847   8.763   1.919
49758W        W18121   3.435  28.178   3.751
49759W        W18122   1.361   0.909  10.038
49760W        W18123  35.969  35.428   4.193
49761W        W18124   2.731   5.323  14.869
49762W        W18125   2.736  38.878  10.500
49763W        W18126  42.934  12.295   3.759
49764W        W18127  36.001  26.119   3.687
49765W        W18128  11.188  20.710   1.234
49766W        W18129   4.723  29.429   4.260
49767W        W18130   1.394  31.457  14.031
49768W        W18131  12.123   0.490  10.429
49769W        W18132  34.891   8.885   4.793
49770W        W18133   0.283   9.876  11.509
49771W        W18134  27.543  21.691  14.367
49772W        W18135  44.419  37.857   1.765
49773W        W18136  17.165  44.499  12.946
49774W        W18137  13.336  11.780  10.125
49775W        W18138  33.471   6.304   3.322
49776W        W18139  15.234  31.567  14.377
49777W        W18140  38.451  33.994  12.393
49778W        W18141  21.550  30.509  11.974
49779W        W18142  38.452  23.156   1.450
49780W        W18143   4.345  11.202  12.455
49781W        W18144  20.533   1.440   0.479
49782W        W18145   9.702  31.510  14.028
49783W        W18146   2.800  23.732  14.439
49784W        W18147  39.532  22.696   2.403
49785W        W18148  21.041  23.067  12.344
49786W        W18149  24.098  20.196  10.495
49787W        W18150  24.053  39.927  10.913
49788W        W18151  34.508  13.806   2.364
49789W        W18152  35.480  30.590   0.354
49790W        W18153  30.447  17.707  13.007
49791W        W18154  25.575  30.139   2.704
49792W        W18155  19.574   8.180   3.237
49793W        W18156  34.471  24.637  14.781
49794W        W18157  39.354  15.735  12.476
49795W        W18158  25.531  17.264  12.829
49796W        W18159  24.213  11.737   2.291
49797W        W18160   6.774  12.157   1.908
49798W        W18161  19.132  42.927   0.906
49799W        W18162  36.388  18.579   3.338
49800W        W18163  19.177   8.685   5.119
49801W        W18164  15.743   6.855  14.802
49802W        W18165  30.143   4.435   4.807
49803W        W18166   3.232  20.760   0.395
49804W        W18167  17.563  14.713   3.694
49805W        W18168  11.775   5.215  11.374
49806W        W18169  18.076  14.821   4.334
49807W        W18170   3.307  10.378  13.418
49808W        W18171  32.596  38.888   2.304
49809W        W18172  26.544   2.824  10.460
49810W        W18173  11.761  27.515   1.782
49811W        W18174  13.343   3.885   2.838
49812W        W18175  34.572  28.077  13.873
49813W        W18176  25.186  41.385   0.831
49814W        W18177  29.555  29.079  13.521
49815W        W18178   0.252  23.111   9.511
49816W        W18179  42.019   7.221   0.727
49817W        W18180  10.837  33.626  14.920
49818W        W18181  11.628  15.294  11.492
49819W        W18182  28.148  21.517   4.746
49820W        W18183   0.879  15.204  12.349
49821W        W18184  14.339  44.277   1.223
49822W        W18185   9.695  39.053   3.731
49823W        W18186  27.678  20.605   1.699
49824W        W18187  38.843  27.461  11.402
49825W        W18188   8.852  38.998  12.549
49826W        W18189   2.395  40.802   4.344
49827W        W18190  17.776  40.900  13.499
49828W        W18191   4.719   1.436  14.414
49829W        W18192  22.702   5.927   0.461
49830W        W18193  38.904  35.990  11.016
49831W        W18194  24.600  27.191  12.897
49832W        W18195  25.568  42.832  11.471
49833W        W18196  33.109  14.287   3.773
49834W        W18197  26.977  16.580  10.110
49835W        W18198  31.605  31.128  11.027
49836W        W18199  42.845  10.671  14.777
49837W        W18200  38.547  21.240  11.945
49838W        W18201  13.176   5.821  10.563
49839W        W18202  32.040   3.352   5.275
49840W        W18203  28.636  23.556  13.791
49841W        W18204  19.598  39.967   1.324
49842W        W18205  28.094  38.554  13.914
49843W        W18206  12.146  18.672  12.437
49844W        W18207   7.311  31.004   4.736
49845W        W18208   0.928  18.741   9.941
49846W        W18209  14.664  41.986  13.025
49847W        W18210  10.342  28.624   1.730
49848W        W18211  34.080  35.528   2.401
49849W        W18212  11.230  40.466  12.938
49850W        W18213   3.442   3.382   9.957
49851W        W18214  28.654  32.980  10.532
49852W        W18215  39.053  19.634   2.886
49853W        W18216  31.992  42.994   1.828
49854W        W18217   9.203  21.024   2.202
49855W        W18218  11.312  36.098  14.365
49856W        W18219   0.801  39.457  13.888
49857W        W18220  11.156   0.827   1.235
49858W        W18221  28.148  21.659   0.765
49859W        W18222  12.208   4.232  10.897
49860W        W18223   6.828  20.698   1.754
49861W        W18224  28.546  11.346  13.331
49862W        W18225   9.831  42.922   2.225
49863W        W18226  25.210   5.243  11.478
49864W        W18227   4.741  13.274  11.858
49865W        W18228  18.715  10.238   2.737
49866W        W18229   4.815  43.013  14.760
49867W        W18230  10.260  11.353  10.090
49868W        W18231  16.155   0.970  14.293
49869W        W18232  14.203   2.965   4.760
49870W        W18233  26.580  22.199   0.335
49871W        W18234   3.923  13.212  12.051
49872W        W18235  12.261  35.487  10.488
49873W        W18236   3.923  13.152  11.035
49874W        W18237  25.560  19.584   5.237
49875W        W18238  20.737  42.418   1.863
49876W        W18239  21.671  32.096  12.409
49877W        W18240  15.611   5.309   1.439
49878W        W18241  17.288   1.255  10.576
49879W        W18242  15.637  15.763   1.375
49880W        W18243  25.020   4.931   3.862
49881W        W18244  10.226  32.981   0.343
49882W        W18245  34.558  21.107   2.316
49883W        W18246  36.956  18.268  14.419
49884W        W18247  17.283  41.969   3.278
49885W        W18248   6.184  30.113   2.797
49886W        W18249  26.951  20.053   0.375
49887W        W18250  44.437  44.501   3.757
49888W        W18251  31.445   3.255  13.004
49889W        W18252   8.768  19.739  13.872
49890W        W18253  30.035   8.808  10.488
49891W        W18254  11.199  17.601  12.828
49892W        W18255   0.963  36.484  12.888
49893W        W18256  39.456   6.185  12.950
49894W        W18257  28.557  35.076  12.085
49895W        W18258   8.180  34.961   2.800
49896W        W18259  33.497  35.449   2.398
49897W        W18260  41.864  19.176   1.803
49898W        W18261  16.690  29.495  13.461
49899W        W18262   9.779  35.547  11.515
49900W        W18263  23.617  37.850  13.983
49901W        W18264  35.022  21.562  13.526
49902W        W18265  14.230  43.779   0.862
49903W        W18266  30.590  35.488  10.436
49904W        W18267  44.008   1.332   0.924
49905W        W18268  10.679   8.272   0.752
49906W        W18269  22.160  30.152  11.964
49907W        W18270  28.119   3.304   1.357
49908W        W18271  27.510  13.172  10.541
49909W        W18272  32.396  43.840  10.149
49910W        W18273  20.116  29.491   1.763
49911W        W18274  42.460   4.776  13.455
49912W        W18275  39.495   7.814   1.904
49913W        W18276  21.703  42.301  12.883
49914W        W18277  34.445  17.647   1.707
49915W        W18278  41.300  14.205   3.260
49916W        W18279  23.152  41.994   1.429
49917W        W18280  35.391   1.765  14.815
49918W        W18281  13.234   2.352   1.410
49919W        W18282   1.927   1.371   4.294
49920W        W18283  34.893  20.539   0.742
49921W        W18284  19.070  43.989   1.356
49922W        W18285  26.186  11.721   3.815
49923W        W18286   9.394  40.863   1.720
49924W        W18287  42.319  22.710  14.926
49925W        W18288  20.536   1.393  14.829
49926W        W18289   6.885  11.307   0.453
49927W        W18290   7.833  30.417  14.510
49928W        W18291  42.302  22.740  12.521
49929W        W18292   7.200  29.619   1.914
49930W        W18293  12.673  25.588   0.395
49931W        W18294  10.289  39.820  11.993
49932W        W18295  44.293  31.579   0.923
49933W        W18296   7.785  26.702  12.492
49934W        W18297  31.932  21.632   3.656
49935W        W18298  13.791  10.783   0.873
49936W        W18299  21.171   0.885  11.531
49937W        W18300  19.192  42.473   0.264
49938W        W18301   4.310   7.718   1.909
49939W        W18302  23.027   0.790   0.961
49940W        W18303  14.611  29.552   1.791
49941W        W18304  36.462  10.729  14.900
49942W        W18305  39.470  18.667   3.296
49943W        W18306   9.772  10.370   1.405
49944W        W18307  13.343  23.046  12.970
49945W        W18308  36.406   1.803   2.384
49946W        W18309  13.663  40.041   0.474
49947W        W18310  40.902  25.650  11.428
49948W        W18311  39.956  37.864  12.089
49949W        W18312  43.907   9.160  13.507
49950W        W18313   5.730  25.124  13.829
49951W        W18314  22.037  13.303   4.350
49952W        W18315   9.333   8.856  12.885
49953W        W18316   8.740  37.073  13.821
49954W        W18317   5.765   5.256   4.262
49955W        W18318  25.553  15.284  12.350
49956W        W18319   7.339  23.630   2.871
49957W        W18320   6.717  43.803  11.038
49958W        W18321  28.976  34.921  11.483
49959W        W18322   8.733  41.844   1.333
49960W        W18323  17.166  36.966   2.178
49961W        W18324  10.315   6.211   5.174
49962W        W18325  19.688  36.531  12.029
49963W        W18326  38.389  36.359   2.281
49964W        W18327  19.760  14.744   4.668
49965W        W18328  24.109  33.589   3.848
49966W        W18329  44.335   6.337   4.643
49967W        W18330  13.247  39.339  10.520
49968W        W18331   2.767  14.296  11.926
49969W        W18332   6.726  15.653  10.463
49970W        W18333  28.536   3.854   3.297
49971W        W18334  35.398  35.473  13.890
49972W        W18335  32.112   0.853   0.277
49973W        W18336  43.336  37.525  10.978
49974W        W18337   8.712  33.088  14.896
49975W        W18338  32.605  40.803   2.387
49976W        W18339   0.374  14.251   3.295
49977W        W18340   1.783  18.700  14.936
49978W        W18341  24.691  37.496   4.301
49979W        W18342  37.941  30.413   4.253
49980W        W18343  29.535  34.515  13.936
49981W        W18344  27.560   7.203  13.411
49982W        W18345  12.739  44.441   3.147
49983W        W18346  19.599  39.064  12.887
49984W        W18347   2.283  41.445  12.926
49985W        W18348   9.716   2.374  14.847
49986W        W18349  43.330  22.556  12.341
49987W        W18350  44.467  20.091   4.698
49988W        W18351  42.429   6.188   3.293
49989W        W18352  10.201   1.429  13.341
49990W        W18353  17.779  38.414  14.498
49991W        W18354  34.519  44.259   2.180
49992W        W18355  25.032  43.957  11.577
49993W        W18356  43.866  32.940  11.556
49994W        W18357  10.684  26.566  14.809
49995W        W18358  18.228  33.536  13.488
49996W        W18359   8.783   4.438   1.243
49997W        W18360  38.986   0.476   4.170
49998W        W18361   3.321  27.019  10.962
49999W        W18362  41.788  14.765  10.922
50000W        W18363  38.823  18.252  11.088
50001W        W18364   6.796   7.685  11.863
50002W        W18365   2.273  17.293   5.182
50003W        W18366   3.912  16.771  11.984
50004W        W18367  14.830  30.440   1.696
50005W        W18368   2.820  26.644   2.364
50006W        W18369  31.138  42.331   2.663
50007W        W18370   8.248  25.628   4.192
50008W        W18371  13.800  18.633  10.417
50009W        W18372  38.947  36.992  12.380
50010W        W18373  29.124   8.677   2.368
50011W        W18374  17.214  16.108   1.934
50012W        W18375  14.321  24.129  11.548
50013W        W18376  41.022   7.179   1.860
50014W        W18377  15.155  22.081   3.191
50015W        W18378  42.020  34.581   1.341
50016W        W18379  24.207  29.432   2.228
50017W        W18380  33.037  11.169  12.029
50018W        W18381  17.792  29.504   0.394
50019W        W18382  15.096   7.779  10.404
50020W        W18383  41.479  36.038   1.271
50021W        W18384  20.184  23.511   1.258
50022W        W18385  25.549  37.383  11.111
50023W        W18386  16.769  44.840   5.104
50024W        W18387  34.593   7.170  14.858
50025W        W18388  29.958  19.144  12.023
50026W        W18389  10.138  28.485   4.303
50027W        W18390  24.032  22.217   3.216
50028W        W18391  13.687  20.593   1.811
50029W        W18392  10.171  44.374   3.236
50030W        W18393  17.141  17.273   2.417
50031W        W18394  36.087   8.810   4.631
50032W        W18395   7.357  12.126   2.673
50033W        W18396  18.081  37.914   2.283
50034W        W18397  20.031  44.335  11.978
50035W        W18398  23.664  28.475  11.402
50036W        W18399  37.420   7.793  13.417
50037W        W18400  30.110  26.992  11.464
50038W        W18401  24.523  27.550   2.746
50039W        W18402  18.104   3.243   0.744
50040W        W18403  16.660  38.041   2.417
50041W        W18404  14.784  27.062  12.389
50042W        W18405  40.541  18.546  10.458
50043W        W18406  40.364   7.337  13.912
50044W        W18407  36.456  41.345   4.250
50045W        W18408  25.991  24.034   3.194
50046W        W18409  16.288  14.683   1.354
50047W        W18410  38.406  11.834  10.598
50048W        W18411  29.066  26.128  11.501
50049W        W18412  25.623   7.766  10.591
50050W        W18413  41.357  17.608   0.741
50051W        W18414  28.144  39.918   4.735
50052W        W18415  37.543  12.142  11.385
50053W        W18416   2.371  43.303  13.867
50054W        W18417   9.219  18.199   2.264
50055W        W18418  35.507   2.470   0.801
50056W        W18419  38.926  38.879  11.998
50057W        W18420  15.693  16.723  12.577
50058W        W18421  11.691  22.096   2.809
50059W        W18422  31.509  22.158   2.295
50060W        W18423  21.633  38.920  10.922
50061W        W18424  15.087   1.759  11.894
50062W        W18425  35.574  25.470   4.705
50063W        W18426   1.444  18.590   2.862
50064W        W18427   0.454  23.520  10.504
50065W        W18428  25.687  41.915   2.267
50066W        W18429  36.074  33.090  10.966
50067W        W18430  38.868   5.840   1.334
50068W        W18431   2.288  33.054  11.991
50069W        W18432   1.869   0.876   3.371
50070W        W18433   2.314  38.948   2.320
50071W        W18434  37.490  38.839  11.065
50072W        W18435  17.104  28.555   3.156
50073W        W18436   2.378  25.204   3.644
50074W        W18437  36.023   3.279   4.779
50075W        W18438   1.916  36.078  13.795
50076W        W18439  21.073  22.047  10.998
50077W        W18440   1.939  16.758   3.312
50078W        W18441   8.887  38.486   9.978
50079W        W18442  34.411  29.996  12.075
50080W        W18443   3.914  34.403   1.332
50081W        W18444  37.931  30.587  14.484
50082W        W18445   6.420  42.867  10.407
50083W        W18446   4.757  24.157  12.863
50084W        W18447  16.211  26.168   1.698
50085W        W18448   6.268  15.762   2.383
50086W        W18449   8.225  23.521   1.304
50087W        W18450  31.958  28.463   0.833
50088W        W18451  25.530  27.088  11.565
50089W        W18452   2.377  41.430  14.332
50090W        W18453  44.809  24.482  11.015
50091W        W18454  18.182  36.968   2.694
50092W        W18455  32.125  27.510   2.316
50093W        W18456  42.957  22.503   3.725
50094W        W18457  18.561  28.135   9.956
50095W        W18458  10.270  42.337   1.932
50096W        W18459  20.201  24.088  13.348
50097W        W18460  13.198   4.412   5.214
50098W        W18461  26.155   7.720  11.078
50099W        W18462   4.924  29.007  11.010
50100W        W18463  31.616  24.506  10.925
50101W        W18464  17.274  30.023  11.417
50102W        W18465   3.737  40.341  13.906
50103W        W18466  41.515  40.812  13.495
50104W        W18467  14.305  32.072  11.591
50105W        W18468  39.402  41.445  11.040
50106W        W18469  28.505  39.347  14.803
50107W        W18470   3.897  17.616  13.532
50108W        W18471  28.167  38.535  13.395
50109W        W18472   3.923  19.614  12.465
50110W        W18473  37.360   0.896  13.483
50111W        W18474  33.112  32.956   3.629
50112W        W18475  24.685  11.349   2.265
50113W        W18476   8.770   9.806   9.967
50114W        W18477  39.513  20.597  14.412
50115W        W18478  12.814  37.417   4.823
50116W        W18479  41.501  27.169  13.052
50117W        W18480  16.290  34.534  11.427
50118W        W18481  15.732  34.384   0.424
50119W        W18482  41.940  28.479   0.282
50120W        W18483  44.386   6.778   4.144
50121W        W18484   4.857  35.454  14.000
50122W        W18485  27.010   3.353  14.443
50123W        W18486  32.419  36.366   4.117
50124W        W18487  41.996   7.303  11.399
50125W        W18488  44.373  24.077  13.473
50126W        W18489  41.419   9.702   1.236
50127W        W18490  26.974  29.561  13.933
50128W        W18491   4.850  19.740   0.817
50129W        W18492  37.053   0.837  13.931
50130W        W18493  17.189   2.773  10.943
50131W        W18494  27.138  10.816   0.263
50132W        W18495   2.425  21.037  10.926
50133W        W18496  20.241   1.741  14.843
50134W        W18497  28.579   9.287   2.863
50135W        W18498  10.745  13.149   0.811
50136W        W18499  30.544  14.324   3.371
50137W        W18500   0.439  22.116   3.855
50138W        W18501   7.732  44.446   0.482
50139W        W18502  26.088  24.050  13.324
50140W        W18503  20.704   1.819  13.804
50141W        W18504  24.999  42.308  11.019
50142W        W18505  27.585  10.658   0.758
50143W        W18506  42.010  32.974   2.803
50144W        W18507  32.105  29.429   4.659
50145W        W18508  12.651  24.596  10.577
50146W        W18509  26.967  42.963   2.681
50147W        W18510  10.798  41.520   4.129
50148W        W18511  30.067  18.154   1.413
50149W        W18512  39.836   8.865   3.661
50150W        W18513  25.996  16.277   4.134
50151W        W18514  28.522  25.104   3.807
50152W        W18515   0.853   6.341   3.287
50153W        W18516  13.654   0.796   3.678
50154W        W18517  22.686  27.016  10.601
50155W        W18518  26.522  41.020  12.445
50156W        W18519  16.250  24.111   9.962
50157W        W18520  19.138  32.391   0.756
50158W        W18521  11.200  14.166   2.813
50159W        W18522   6.824  24.052   2.338
50160W        W18523   9.710  15.297   3.236
50161W        W18524  31.448  43.800   3.257
50162W        W18525  18.117  23.664  12.093
50163W        W18526  13.206  28.616  11.494
50164W        W18527  36.557  42.503  14.448
50165W        W18528  37.037  10.229   3.728
50166W        W18529  29.031   2.857   4.168
50167W        W18530  28.052  14.304   1.340
50168W        W18531   3.716  43.499   0.963
50169W        W18532  38.065  37.570   0.455
50170W        W18533  42.897  30.111   4.189
50171W        W18534  13.245  44.912   1.893
50172W        W18535  42.330  17.241   2.768
50173W        W18536  42.809   2.876   1.856
50174W        W18537  43.772   9.804  13.909
50175W        W18538  15.191  14.097  11.100
50176W        W18539  28.517  18.698  12.476
50177W        W18540  27.572  34.992  14.925
50178W        W18541  23.077  26.056  14.029
50179W        W18542  16.690  23.719  13.506
50180W        W18543  41.987   8.819   2.210
50181W        W18544  29.624  34.411  12.447
50182W        W18545  22.151  40.313  11.005
50183W        W18546  31.940  34.520  11.898
50184W        W18547  16.634   0.752   0.254
50185W        W18548  15.700   5.834  14.315
50186W        W18549   9.166  32.038  14.368
50187W        W18550  18.154   2.727   3.754
50188W        W18551  17.602  35.579   1.737
50189W        W18552  40.054  24.606   4.597
50190W        W18553  21.601  26.631   4.722
50191W        W18554  25.177  41.027  11.400
50192W        W18555  39.937  31.979  12.883
50193W        W18556  41.463  43.452   3.744
50194W        W18557  43.307   6.764   1.858
50195W        W18558  33.073  33.405   4.817
50196W        W18559  11.251  40.873  12.390
50197W        W18560  15.779  33.429   4.217
50198W        W18561   1.823  44.955   4.641
50199W        W18562  35.033  27.576  13.840
50200W        W18563  27.016  38.474   3.291
50201W        W18564  12.816  24.154  12.530
50202W        W18565   0.750  33.908   3.230
50203W        W18566   3.230   4.804  13.397
50204W        W18567  31.079   1.786  12.910
50205W        W18568  28.106  21.188  10.452
50206W        W18569  14.294  19.065   1.899
50207W        W18570  35.863   8.292  14.893
50208W        W18571  14.632  26.101   0.782
50209W        W18572  33.961  20.746  13.450
50210W        W18573  38.894  20.239   3.751
50211W        W18574  16.278  14.282  11.494
50212W        W18575   3.294  12.162  12.439
50213W        W18576   3.736  43.946  11.856
50214W        W18577  24.136  24.011   5.101
50215W        W18578   8.797  17.586   1.311
50216W        W18579  13.308  38.374  12.921
50217W        W18580  43.351   6.399   3.219
50218W        W18581  35.591   2.351  11.486
50219W        W18582  36.978  41.031   4.123
50220W        W18583  42.493  15.213  12.393
50221W        W18584  30.494  27.551   5.114
50222W        W18585  40.810   6.830   2.897
50223W        W18586  28.008  43.515   0.865
50224W        W18587  10.877  14.337   2.199
50225W        W18588  30.510  39.005  11.083
50226W        W18589  12.296  26.111  11.936
50227W        W18590  41.513  21.647   3.267
50228W        W18591   2.350   7.762  11.119
50229W        W18592  33.120   8.392   0.898
50230W        W18593   6.769  11.158   4.682
50231W        W18594  25.528  41.986  14.493
50232W        W18595  22.135   9.198  14.374
50233W        W18596   3.886  11.351  12.527
50234W        W18597  17.107  29.968   3.188
50235W        W18598  25.518  36.972  14.473
50236W        W18599  40.972   2.450   2.231
50237W        W18600  20.129  39.827   4.720
50238W        W18601  26.469  23.604   4.301
50239W        W18602  19.542   9.699   1.769
50240W        W18603   7.858   6.892   3.826
50241W        W18604   7.317  28.049  10.922
50242W        W18605  15.797  38.972  12.936
50243W        W18606   7.797  42.972  10.957
50244W        W18607   1.948  12.689   1.372
50245W        W18608   5.420  10.809  14.828
50246W        W18609  16.797  23.568   2.771
50247W        W18610  34.938  44.920   2.836
50248W        W18611  40.003   9.705   0.330
50249W        W18612  33.404  34.606  14.414
50250W        W18613  18.668  35.015   3.866
50251W        W18614  37.054  12.149  13.795
50252W        W18615  12.641   6.407   0.423
50253W        W18616  26.467   4.818   0.461
50254W        W18617  31.575  36.525  10.483
50255W        W18618  40.830  13.169   1.843
50256W        W18619  43.460  30.459  14.297
50257W        W18620  28.640   6.389  13.864
50258W        W18621  20.219  29.476   0.775
50259W        W18622  19.621  28.961   4.835
50260W        W18623  28.180   6.370  13.024
50261W        W18624  22.068   3.954   1.845
50262W        W18625  43.955  34.965  14.453
50263W        W18626  16.190   2.271  13.472
50264W        W18627  28.441   9.364  11.495
50265W        W18628  44.773   3.412  13.331
50266W        W18629  23.675   4.441   2.328
50267W        W18630  37.351  29.554   1.311
50268W        W18631  12.751  10.372  11.575
50269W        W18632  31.985   1.237   2.670
50270W        W18633  16.233  39.915  13.461
50271W        W18634  38.353  13.747   1.853
50272W        W18635   8.796  18.692   0.827
50273W        W18636  23.007  13.136   4.195
50274W        W18637  26.678  23.667  14.310
50275W        W18638  17.130  27.075  11.891
50276W        W18639  16.648   0.283   3.677
50277W        W18640  43.273  36.532   1.412
50278W        W18641  33.890  37.446   3.854
50279W        W18642  22.184   7.693   0.732
50280W        W18643  10.832  38.418   4.212
50281W        W18644   2.874  27.050   4.796
50282W        W18645  23.578  34.089  11.604
50283W        W18646  36.555   5.866   1.292
50284W        W18647   5.827  30.532  12.888
50285W        W18648   0.432  42.303  12.364
50286W        W18649  13.783  11.738  12.934
50287W        W18650  17.622  20.121   1.743
50288W        W18651  24.613  18.065   3.385
50289W        W18652  20.062  37.965  13.522
50290W        W18653  35.033  36.515   2.700
50291W        W18654  41.327  34.960   4.833
50292W        W18655   3.277  28.531  13.048
50293W        W18656   7.888   9.712  11.525
50294W        W18657  21.706  37.402  14.418
50295W        W18658  32.437  32.627  14.442
50296W        W18659  32.127  42.980  14.804
50297W        W18660  25.159  15.307  13.867
50298W        W18661  20.145  29.936   0.408
50299W        W18662  32.071  27.466   1.389
50300W        W18663  22.036  16.589  11.560
50301W        W18664  23.658   5.787  12.038
50302W        W18665   5.766  34.414   2.891
50303W        W18666   0.327  22.127   1.856
50304W        W18667   0.366  33.606   0.782
50305W        W18668   5.317   8.331  12.442
50306W        W18669  27.494   5.696   1.817
50307W        W18670  16.282  23.564  13.060
50308W        W18671  41.397  30.928   3.308
50309W        W18672  12.639   6.263   0.899
50310W        W18673  39.367  18.761  11.121
50311W        W18674  33.427  19.243  11.075
50312W        W18675  11.789  30.994  11.994
50313W        W18676  34.022  41.040  12.978
50314W        W18677   4.374   8.779   0.364
50315W        W18678  22.225  34.505  12.021
50316W        W18679  25.542  12.772  13.454
50317W        W18680  44.391  35.957  12.344
50318W        W18681   5.303   4.342   2.316
50319W        W18682  26.485  42.989   3.666
50320W        W18683   5.821  21.611   2.342
50321W        W18684   2.955  43.791   3.813
50322W        W18685  21.090   6.326  14.802
50323W        W18686  23.177  24.063  12.929
50324W        W18687  27.104   2.437   0.478
50325W        W18688   3.768  39.533  10.596
50326W        W18689  16.803  29.490  10.512
50327W        W18690   3.937  26.138  14.802
50328W        W18691  40.867  29.919  14.941
50329W        W18692  39.930  35.975  14.470
50330W        W18693   9.726   7.832  12.985
50331W        W18694  39.502   2.265  12.353
50332W        W18695  23.528   5.324   3.788
50333W        W18696  31.044  24.083  14.977
50334W        W18697  44.286  15.792   2.686
50335W        W18698  38.353  12.751   1.776
50336W        W18699  18.231   0.288   1.243
50337W        W18700   9.186  35.486  12.563
50338W        W18701  16.675  44.472   1.286
50339W        W18702  43.957  21.077  14.463
50340W        W18703  42.893   7.903  12.989
50341W        W18704  29.083   3.264  10.446
50342W        W18705   3.243  44.792   2.399
50343W        W18706  23.719  36.071   4.673
50344W        W18707  34.884   3.316   3.192
50345W        W18708  22.747  43.309  14.884
50346W        W18709  25.469  44.280  11.402
50347W        W18710  24.119  37.998   4.342
50348W        W18711  39.462  33.928   1.838
50349W        W18712  43.926  36.365  13.458
50350W        W18713  10.360   2.833   1.697
50351W        W18714  34.586  44.862   1.236
50352W        W18715   6.303  38.825  11.017
50353W        W18716  14.211  41.502  13.988
50354W        W18717  13.237   2.767  10.964
50355W        W18718  28.498  33.074  14.866
50356W        W18719  11.636  36.007   1.336
50357W        W18720  26.668   7.212  13.951
50358W        W18721  16.584   5.759  11.058
50359W        W18722  39.482  12.258  14.467
50360W        W18723  12.744  42.008  14.873
50361W        W18724   0.872  13.111  14.005
50362W        W18725   4.888  22.143  13.416
50363W        W18726  32.560   6.914   2.348
50364W        W18727  19.726  14.124  11.077
50365W        W18728  44.299   7.714   2.255
50366W        W18729  25.599  10.814  14.775
50367W        W18730  12.825  43.420  12.095
50368W        W18731  43.773  35.370   3.664
50369W        W18732  40.837  18.734   1.297
50370W        W18733  31.022  41.000  12.983
50371W        W18734   2.462  43.329   5.615
50372W        W18735  19.542  11.175   1.905
50373W        W18736  44.488   4.239   0.880
50374W        W18737   7.339   3.922  13.446
50375W        W18738  35.532  33.083  11.607
50376W        W18739  28.508  36.480  12.349
50377W        W18740  14.645  23.988  11.371
50378W        W18741  38.458  22.149  11.087
50379W        W18742   6.682  30.416  12.064
50380W        W18743  39.871  25.201  11.882
50381W        W18744   4.843   1.879  11.095
50382W        W18745  24.037   9.775  11.040
50383W        W18746  20.064   8.306   3.193
50384W        W18747  27.195  27.509  12.970
50385W        W18748  13.819  16.657  12.005
50386W        W18749  13.726  44.981  13.920
50387W        W18750  27.583  36.552   1.878
50388W        W18751   2.720  41.433  13.929
50389W        W18752  14.288   9.358   3.838
50390W        W18753   8.256  24.202  11.461
50391W        W18754  18.621  19.731   2.697
50392W        W18755  33.049  15.192   1.851
50393W        W18756  12.206  10.256   1.780
50394W        W18757   2.429  28.458  11.524
50395W        W18758   0.282  26.169  12.464
50396W        W18759  28.440   1.319   0.380
50397W        W18760  23.234  42.388   4.212
50398W        W18761   3.826  43.937   1.897
50399W        W18762  36.567   7.830  14.486
50400W        W18763   3.867  39.343  12.390
50401W        W18764  21.124  27.108  14.860
50402W        W18765  13.319  30.958  10.986
50403W        W18766   7.696  27.557  11.451
50404W        W18767   6.291  44.828   0.738
50405W        W18768  17.729  16.694   4.611
50406W        W18769  12.832  42.937  13.429
50407W        W18770  24.177  44.833  11.516
50408W        W18771  24.589  34.924   0.366
50409W        W18772   6.325  15.103  12.080
50410W        W18773  29.452   2.770  13.853
50411W        W18774  30.536  22.733   3.249
50412W        W18775  42.803  37.916   2.727
50413W        W18776   2.857  33.875  13.000
50414W        W18777  41.916  43.924  11.374
50415W        W18778  44.288  24.977   4.128
50416W        W18779  42.981  15.174  13.430
50417W        W18780  27.079  30.558   0.361
50418W        W18781  31.146  22.691  14.781
50419W        W18782  16.578  40.506  14.488
50420W        W18783  22.246  19.717   4.611
50421W        W18784  10.383  26.611   3.363
50422W        W18785   4.395   6.683   0.437
50423W        W18786   1.383  37.018   3.316
50424W        W18787  28.178  19.182  12.004
50425W        W18788  28.033  15.111   4.631
50426W        W18789  28.439  44.324   1.275
50427W        W18790   3.299  10.851   3.307
50428W        W18791  26.120  15.313   0.395
50429W        W18792  16.143   8.880   4.271
50430W        W18793  28.645  15.274   5.185
50431W        W18794  24.624  13.149   3.226
50432W        W18795  21.024  30.121   0.288
50433W        W18796   6.765  21.225  11.025
50434W        W18797   2.383  18.111  13.485
50435W        W18798  20.214  17.727   4.663
50436W        W18799  40.999   4.871   4.708
50437W        W18800  23.589  41.027  10.481
50438W        W18801  12.205   2.255   3.358
50439W        W18802  43.439  39.342  13.457
50440W        W18803  14.598  39.402  11.073
50441W        W18804  30.937  17.633   2.377
50442W        W18805  34.521  40.041  13.499
50443W        W18806  40.051   9.317   2.390
50444W        W18807  43.781   4.314   4.120
50445W        W18808  27.943  31.523   3.785
50446W        W18809  10.278   3.270  12.428
50447W        W18810   2.469  22.138   2.800
50448W        W18811  41.425   7.175  14.897
50449W        W18812  33.546  38.064   2.829
50450W        W18813  44.444  21.596   1.438
50451W        W18814  32.946  21.576   1.264
50452W        W18815  21.249  26.690   3.660
50453W        W18816  28.492  38.980   4.305
50454W        W18817  34.033  44.467   1.319
50455W        W18818   4.802  15.682   5.142
50456W        W18819  35.078  28.967  10.460
50457W        W18820  30.104  10.764  10.431
50458W        W18821  28.534  11.696  12.975
50459W        W18822  32.521   0.475  12.087
50460W        W18823   4.932  15.777   0.255
50461W        W18824  22.692  22.716  13.533
50462W        W18825  43.447  30.156   0.416
50463W        W18826  12.175  30.987  10.415
50464W        W18827   9.232  29.050  10.107
50465W        W18828   9.181  19.548  11.110
50466W        W18829  33.103   0.810  12.987
50467W        W18830  35.928  41.342  12.853
50468W        W18831   5.733  16.762  10.494
50469W        W18832  21.098  35.110  13.005
50470W        W18833  36.955  36.479   0.737
50471W        W18834  20.185  40.973   0.726
50472W        W18835  15.815   6.251  10.568
50473W        W18836   5.934  11.307   4.782
50474W        W18837  16.574  27.189  11.112
50475W        W18838  42.004   1.394  12.552
50476W        W18839   6.921   6.305  12.550
50477W        W18840  14.667  44.956  13.958
50478W        W18841  18.616  35.967  11.424
50479W        W18842  32.595  19.777   1.408
50480W        W18843  22.153  20.563   0.351
50481W        W18844  31.916   2.298   1.760
50482W        W18845  36.843  32.955  13.829
50483W        W18846  22.665  27.614  13.004
50484W        W18847   3.395  32.948   3.831
50485W        W18848   6.421  31.971  11.114
50486W        W18849   4.867  29.497   3.165
50487W        W18850  24.141  14.138   4.706
50488W        W18851  42.834  15.612   0.456
50489W        W18852  38.897  21.627  13.441
50490W        W18853  20.563  29.125  11.054
50491W        W18854  35.360  29.009   1.413
50492W        W18855   6.185  21.186   1.278
50493W        W18856  42.288  36.879  14.426
50494W        W18857  18.131  37.389  14.914
50495W        W18858  16.770  26.061   2.255
50496W        W18859  35.981  12.714   0.928
50497W        W18860  20.644  43.499   3.231
50498W        W18861  24.595  41.448  11.928
50499W        W18862   2.258  32.415  14.317
50500W        W18863  15.790  44.280   0.880
50501W        W18864   0.444  38.458  14.026
50502W        W18865  27.606  19.723   1.793
50503W        W18866  17.642  21.091   4.265
50504W        W18867  35.463  25.556  14.818
50505W        W18868  28.674  33.981   2.316
50506W        W18869  39.995  37.342  12.090
50507W        W18870  19.110  16.685  14.440
50508W        W18871  43.822   6.767  10.958
50509W        W18872   0.478  21.127   3.303
50510W        W18873  13.118   6.192   0.341
50511W        W18874  18.288  33.482  10.502
50512W        W18875  40.960  32.446   4.792
50513W        W18876  19.142  21.752  13.351
50514W        W18877  14.729  32.527   4.314
50515W        W18878  33.094   1.884   1.749
50516W        W18879  17.785  40.481  13.005
50517W        W18880  18.563   5.323  10.501
50518W        W18881   5.202  17.159   3.786
50519W        W18882   6.265  36.859   2.766
50520W        W18883  40.418  30.419   3.150
50521W        W18884  32.083  15.819   3.741
50522W        W18885   8.355   3.351  13.972
50523W        W18886  36.071   8.787  14.780
50524W        W18887  11.715  43.797   0.421
50525W        W18888  32.986   9.888   2.855
50526W        W18889  32.943  26.484   1.241
50527W        W18890  23.669  16.672   2.380
50528W        W18891  21.545  17.699  14.475
50529W        W18892  27.661   9.205  11.452
50530W        W18893   1.373  28.673  13.827
50531W        W18894   7.210   3.307  13.897
50532W        W18895  19.668  31.604  11.938
50533W        W18896  22.208  28.040   4.729
50534W        W18897  41.340  44.942   0.741
50535W        W18898  10.203  36.990  11.597
50536W        W18899  42.394  19.592   3.674
50537W        W18900   9.376   8.305  11.547
50538W        W18901  17.616  22.688  11.884
50539W        W18902  36.987  25.688   2.358
50540W        W18903  24.665  41.851   0.262
50541W        W18904  20.761   3.317  11.469
50542W        W18905   0.351  15.123  10.536
50543W        W18906  27.980  37.550  10.523
50544W        W18907  34.934  26.508   0.790
50545W        W18908  23.542  26.513   4.633
50546W        W18909  14.210  12.156  10.999
50547W        W18910  27.635  23.713  13.993
50548W        W18911  33.089   1.831  11.446
50549W        W18912   0.477  30.607  12.889
50550W        W18913  16.627  22.205   2.662
50551W        W18914  26.578  34.979  12.540
50552W        W18915  29.643  21.064   4.814
50553W        W18916  35.525  26.190   3.152
50554W        W18917   2.897  39.908   1.770
50555W        W18918   0.854   4.205   1.783
50556W        W18919  35.099  27.990  14.478
50557W        W18920  36.847   4.876   4.300
50558W        W18921  19.042  35.876  11.500
50559W        W18922  44.314  28.961   5.168
50560W        W18923  16.298  44.979   0.779
50561W        W18924  28.659  40.513  14.943
50562W        W18925  11.636  22.700   5.271
50563W        W18926  23.030  31.573   1.841
50564W        W18927  33.404  12.147   2.180
50565W        W18928  44.763  34.589   5.190
50566W        W18929  39.044  21.114   2.714
50567W        W18930   9.670   5.331  11.880
50568W        W18931  35.545   4.291   3.218
50569W        W18932  42.979  42.365  11.490
50570W        W18933  32.494  44.907   2.411
50571W        W18934  10.777  34.053   0.862
50572W        W18935  15.596  30.120  14.355
50573W        W18936  36.381  25.590   0.294
50574W        W18937   5.780  33.558   2.753
50575W        W18938  36.880  38.437   1.785
50576W        W18939  41.984   7.266  12.523
50577W        W18940  23.580  28.185  14.008
50578W        W18941  22.115  20.749   2.728
50579W        W18942  14.180  12.256   3.749
50580W        W18943  26.964  25.553  13.051
50581W        W18944   6.375  34.485  11.055
50582W        W18945  21.246   5.904  10.004
50583W        W18946  31.092  10.707  13.436
50584W        W18947  22.682  42.899  12.429
50585W        W18948  32.918  26.023   0.381
50586W        W18949   1.859   7.313  13.966
50587W        W18950  35.948   4.204  11.863
50588W        W18951  11.290  20.107  10.447
50589W        W18952  29.990  37.024  11.020
50590W        W18953  23.622  25.106  11.030
50591W        W18954  20.101   8.172  12.467
50592W        W18955  17.254  41.519   5.273
50593W        W18956  10.799   4.333  14.999
50594W        W18957   1.379  12.267  14.937
50595W        W18958  15.089   3.302  12.090
50596W        W18959  19.747  23.150  13.349
50597W        W18960   2.923  22.702   0.733
50598W        W18961  37.942  19.665   1.392
50599W        W18962  10.699  40.449   3.377
50600W        W18963   8.388  18.296  11.881
50601W        W18964   3.848  29.488   1.864
50602W        W18965  26.598  38.437  12.411
50603W        W18966   4.733  39.974   2.692
50604W        W18967   8.760  40.813   4.766
50605W        W18968   5.743  30.619  13.858
50606W        W18969  42.328   2.725   0.470
50607W        W18970  44.952  10.334   4.329
50608W        W18971  25.175   3.955   2.233
50609W        W18972  32.414  43.372  14.279
50610W        W18973  13.109  18.105   1.374
50611W        W18974   6.778  22.066  11.118
50612W        W18975  23.699   1.824  13.847
50613W        W18976  26.083  15.284   1.752
50614W        W18977  42.341  37.404  13.041
50615W        W18978  38.538  40.447  14.311
50616W        W18979  16.274  32.074  11.400
50617W        W18980  33.967  21.199  10.997
50618W        W18981  24.485  10.847  11.473
50619W        W18982  41.534  27.651  14.476
50620W        W18983  16.236   8.181   4.769
50621W        W18984   5.299  23.152   1.784
50622W        W18985  13.762  39.427   4.781
50623W        W18986   6.733  13.258  12.361
50624W        W18987   2.320  14.792  14.839
50625W        W18988  14.824  36.012  11.579
50626W        W18989  20.664  38.547  10.584
50627W        W18990  38.007  24.666  11.858
50628W        W18991  32.142  38.433  14.952
50629W        W18992  41.840  34.459  14.435
50630W        W18993   3.333  41.457   0.893
50631W        W18994   1.322  25.614  12.990
50632W        W18995  37.467  31.592   4.829
50633W        W18996  15.087  15.793  14.855
50634W        W18997   2.884  31.115  14.497
50635W        W18998  10.638  43.344  14.973
50636W        W18999  42.993  24.685   0.865
50637W        W19000   4.937  39.047   0.313
50638W        W19001  32.030  33.974   0.368
50639W        W19002  14.823  33.579  13.907
50640W        W19003  19.689   0.279   1.897
50641W        W19004  41.892  11.291  11.893
50642W        W19005  15.779   6.288  13.009
50643W        W19006  23.997  37.951  14.952
50644W        W19007  15.296  13.128   3.717
50645W        W19008  27.586  41.499   1.786
50646W        W19009  30.624  32.625  11.483
50647W        W19010  23.605  40.549  11.604
50648W        W19011   0.799  11.637   0.471
50649W        W19012  16.236  24.603  10.908
50650W        W19013  31.930   8.279  12.833
50651W        W19014   3.722   2.382  14.025
50652W        W19015  19.603  17.134   0.886
50653W        W19016  31.487  24.144   1.343
50654W        W19017  23.694  44.264  14.294
50655W        W19018  22.687  12.756  13.532
50656W        W19019  16.310  33.588   1.255
50657W        W19020  35.082  44.797  12.923
50658W        W19021   5.216  14.158  11.394
50659W        W19022  35.429  34.994  10.971
50660W        W19023  29.024   2.348  11.389
50661W        W19024   0.888   0.858  12.367
50662W        W19025  20.054   1.780   2.265
50663W        W19026  35.992  28.149   3.813
50664W        W19027   5.406   0.451  12.540
50665W        W19028  10.746  18.709   0.759
50666W        W19029  42.966   3.927   4.819
50667W        W19030  16.687  10.171   3.276
50668W        W19031  41.375   5.801   0.814
50669W        W19032  34.070  25.117  13.823
50670W        W19033  43.789   7.248   4.243
50671W        W19034   9.753  30.920  14.010
50672W        W19035   9.361   2.825   2.323
50673W        W19036  33.563   0.437   4.347
50674W        W19037   4.789  43.474  12.433
50675W        W19038  18.775  44.378   2.237
50676W        W19039  26.480  39.814  12.075
50677W        W19040   0.860   9.759   0.770
50678W        W19041  35.866  15.254   1.409
50679W        W19042  44.458  15.321   0.377
50680W        W19043  26.689  13.782  10.110
50681W        W19044  39.333   3.738   4.124
50682W        W19045  11.774  13.314  12.488
50683W        W19046   3.244   6.888  13.035
50684W        W19047  33.098   6.215  14.483
50685W        W19048  26.172  26.596  10.912
50686W        W19049  32.558   5.349  13.807
50687W        W19050   5.772  33.509   3.809
50688W        W19051  23.579  35.099   1.353
50689W        W19052  43.304  43.952   4.769
50690W        W19053   2.777  32.080   2.393
50691W        W19054   4.782  26.179  11.561
50692W        W19055  36.425  41.388   1.795
50693W        W19056  20.029  41.363  10.946
50694W        W19057   9.310  29.656   1.706
50695W        W19058  24.148  38.852  11.058
50696W        W19059  16.773  37.356   2.763
50697W        W19060  25.217   1.426   4.224
50698W        W19061   9.832  42.983  14.857
50699W        W19062  30.091   7.273   0.809
50700W        W19063  13.672  39.369   1.774
50701W        W19064  44.810  19.547  14.306
50702W        W19065  39.314  35.565  14.028
50703W        W19066  20.247  30.958   0.476
50704W        W19067  16.600  16.129   1.364
50705W        W19068  15.232  39.983   4.231
50706W        W19069  42.896  42.871  13.926
50707W        W19070  41.964  29.065   2.357
50708W        W19071  24.589  13.709  10.611
50709W        W19072  14.272  41.974  14.983
50710W        W19073  22.010  35.584   4.798
50711W        W19074  25.539  27.500  14.498
50712W        W19075  23.491  28.497  12.432
50713W        W19076  33.569  40.867   0.418
50714W        W19077   6.414  34.965   2.706
50715W        W19078  25.158  34.885   1.356
50716W        W19079   0.768  28.138   2.862
50717W        W19080  36.428   3.394   2.850
50718W        W19081  21.121  35.370  12.348
50719W        W19082  23.568  22.516   0.336
50720W        W19083  16.233   0.770   1.281
50721W        W19084  11.161  21.116   2.372
50722W        W19085  13.181  29.525   2.330
50723W        W19086  12.117  14.706   1.400
50724W        W19087  36.960   9.810  13.377
50725W        W19088  40.489  17.589   0.729
50726W        W19089   7.358  43.437   1.909
50727W        W19090   7.258   9.153  11.461
50728W        W19091  20.709  29.943   1.717
50729W        W19092  17.708   9.669   4.616
50730W        W19093  34.092  12.222   3.276
50731W        W19094   9.252  22.110  14.373
50732W        W19095   1.395  39.444  14.421
50733W        W19096  17.118   4.934   1.927
50734W        W19097  25.087   2.810  12.420
50735W        W19098   0.456   9.307  11.520
50736W        W19099  11.133  20.216   1.250
50737W        W19100   5.267  11.855   0.897
50738W        W19101  35.071  38.467  14.369
50739W        W19102  39.887  28.618  12.857
50740W        W19103   2.829  30.469  11.522
50741W        W19104  14.317  11.867   3.748
50742W        W19105   7.737  12.808   5.172
50743W        W19106  28.606   8.742   4.729
50744W        W19107  41.350  28.504   3.659
50745W        W19108  27.446   7.202   0.746
50746W        W19109  26.975  30.562  11.865
50747W        W19110  15.655   8.323   3.279
50748W        W19111  10.764  24.178   4.182
50749W        W19112  15.817  19.676  11.421
50750W        W19113  39.526  42.800   4.182
50751W        W19114  19.241  20.612   4.296
50752W        W19115  42.419   9.786   2.840
50753W        W19116  35.909  33.553   3.793
50754W        W19117  40.050  41.857  12.040
50755W        W19118  38.899   0.457   3.316
50756W        W19119   3.830  28.660   2.284
50757W        W19120   5.232  43.802  11.486
50758W        W19121  25.969  31.568  13.045
50759W        W19122  29.129   5.849   3.631
50760W        W19123  21.202   0.350  12.967
50761W        W19124  36.585   1.461  11.125
50762W        W19125  35.489  11.218  12.957
50763W        W19126   0.365  30.122  11.127
50764W        W19127   6.760  42.452  12.036
50765W        W19128  26.138   6.688  10.519
50766W        W19129  10.235   7.667  11.116
50767W        W19130  38.966  41.970  13.910
50768W        W19131  37.444   5.385  10.902
50769W        W19132  35.053   8.889   2.354
50770W        W19133  36.080  25.099  10.544
50771W        W19134  42.306  10.217   3.311
50772W        W19135  10.770  23.656  12.577
50773W        W19136  21.247  30.069   2.295
50774W        W19137   5.328   0.954  10.945
50775W        W19138  37.841  32.475   2.894
50776W        W19139  11.652  40.355  13.929
50777W        W19140  31.970   4.876  13.041
50778W        W19141   0.431  28.484  14.356
50779W        W19142  19.206  29.153   1.233
50780W        W19143   9.747  20.593   0.285
50781W        W19144  42.525  13.701  11.554
50782W        W19145  38.517   4.713   3.768
50783W        W19146  25.204  31.127  12.972
50784W        W19147  34.936  34.387  11.396
50785W        W19148  22.713   9.781   4.143
50786W        W19149  11.322  41.339  10.633
50787W        W19150  31.535  40.316   3.641
50788W        W19151  14.780  39.951  12.987
50789W        W19152   0.907  14.818  13.428
50790W        W19153   8.195   2.312   2.753
50791W        W19154   0.494   7.323  13.333
50792W        W19155  40.827  35.066  12.912
50793W        W19156   2.274  19.142   4.114
50794W        W19157   6.323  39.503  11.120
50795W        W19158  22.085   8.832  12.065
50796W        W19159  40.512  28.151  12.941
50797W        W19160  30.995  24.215   0.354
50798W        W19161   0.840  14.667  11.916
50799W        W19162  38.062   6.317  12.831
50800W        W19163  21.094  17.563   0.463
50801W        W19164  10.818   5.867  13.894
50802W        W19165  20.118  33.613  11.092
50803W        W19166  28.569  37.056   3.729
50804W        W19167   0.367  14.608  10.899
50805W        W19168  34.478  24.621  12.940
50806W        W19169   5.397  36.081   5.272
50807W        W19170   4.804  38.430  11.044
50808W        W19171   6.888  34.046   2.675
50809W        W19172   7.316  17.262  11.520
50810W        W19173  42.426  21.111   1.718
50811W        W19174  18.551  24.124  11.402
50812W        W19175   9.807   8.162   4.807
50813W        W19176  15.121  44.776   1.438
50814W        W19177  31.624  18.139  10.963
50815W        W19178  38.922  30.116  10.027
50816W        W19179   0.797  34.024   0.962
50817W        W19180   0.936  13.697  13.436
50818W        W19181  30.535  37.934   4.202
50819W        W19182   3.839   6.747  14.970
50820W        W19183   0.283  31.544   4.670
50821W        W19184  35.030  31.975   2.826
50822W        W19185  25.169  10.861   4.318
50823W        W19186  43.858  15.639   2.872
50824W        W19187  20.729  22.724  12.567
50825W        W19188  10.247  32.535  11.947
50826W        W19189  15.682  32.967  14.441
50827W        W19190  35.409  35.995  12.528
50828W        W19191  42.311  43.310   2.757
50829W        W19192  14.205  34.065  13.022
50830W        W19193  21.746  40.495  14.465
50831W        W19194  12.316  32.125   1.337
50832W        W19195  39.461   2.242  11.027
50833W        W19196  40.500  42.896   2.810
50834W        W19197  40.321   5.336   2.336
50835W        W19198  21.201  39.416  14.887
50836W        W19199  34.423   7.751   1.836
50837W        W19200   2.779  26.564   2.889
50838W        W19201   5.321  18.629   0.835
50839W        W19202  27.621   5.818  12.348
50840W        W19203  26.962  38.918   9.997
50841W        W19204  39.912  29.080   3.661
50842W        W19205   9.671  18.763  11.485
50843W        W19206  25.069  37.478   1.221
50844W        W19207  40.401  38.438   1.807
50845W        W19208  11.223   3.800  14.381
50846W        W19209  37.384  17.584   0.374
50847W        W19210  43.826  15.117  13.023
50848W        W19211  41.372  15.226  13.408
50849W        W19212   0.755  11.847  11.980
50850W        W19213  17.762  37.837   4.328
50851W        W19214  34.900   5.887   2.203
50852W        W19215  14.711  31.574   1.389
50853W        W19216  41.041  25.586  10.449
50854W        W19217  40.018  31.405  13.428
50855W        W19218   4.435  34.406  12.422
50856W        W19219  10.222   7.322   9.984
50857W        W19220   7.239  23.691   1.277
50858W        W19221  19.041  14.170  12.035
50859W        W19222  25.116  41.537   3.773
50860W        W19223  23.731  17.782  14.798
50861W        W19224  19.194   2.837  14.968
50862W        W19225  23.151   6.801  13.963
50863W        W19226  36.449  23.693   3.704
50864W        W19227  22.029   2.946   4.713
50865W        W19228  17.145  32.021   4.300
50866W        W19229  15.184  34.932  13.476
50867W        W19230   4.350  22.155  11.536
50868W        W19231  41.883  24.139   1.740
50869W        W19232  42.285  16.223   3.645
50870W        W19233   4.350  39.528  12.850
50871W        W19234  43.005  42.351   3.838
50872W        W19235   9.866  36.910   4.255
50873W        W19236   5.809  30.161  13.516
50874W        W19237  23.497  13.732  13.348
50875W        W19238  26.592   7.378   0.741
50876W        W19239  17.076  26.182   4.219
50877W        W19240  42.917  37.963  10.991
50878W        W19241  19.613  12.775   0.265
50879W        W19242  24.635   5.338   2.858
50880W        W19243   4.817  18.598  13.866
50881W        W19244  11.151  39.384   0.458
50882W        W19245  13.242  38.371  14.943
50883W        W19246   8.314  13.644  11.074
50884W        W19247   5.817   1.361   1.841
50885W        W19248  23.716   6.314   1.392
50886W        W19249  39.987   2.287   4.722
50887W        W19250  42.898  13.774  12.476
50888W        W19251  25.049  20.058   0.864
50889W        W19252  13.846  40.475  14.432
50890W        W19253  36.508  31.152   3.854
50891W        W19254   3.420  11.683  11.901
50892W        W19255  20.646   1.341  10.494
50893W        W19256  27.015  44.768   3.238
50894W        W19257  24.171   6.263   5.085
50895W        W19258  14.626  26.963   2.416
50896W        W19259  13.116  33.011   2.290
50897W        W19260   6.347  32.574   1.734
50898W        W19261  19.130   4.387   4.625
50899W        W19262  10.287  20.697   1.896
50900W        W19263  11.777  42.468  12.468
50901W        W19264   3.941  22.998   0.289
50902W        W19265  25.536  34.044   2.372
50903W        W19266  15.199  26.200   3.312
50904W        W19267  41.846   2.448  13.455
50905W        W19268  35.978  41.017  12.368
50906W        W19269  16.088  21.688  10.991
50907W        W19270   2.827   9.309  11.558
50908W        W19271  39.330  31.624  13.928
50909W        W19272  36.920  22.528   3.776
50910W        W19273  19.232  15.579  12.084
50911W        W19274  44.389   6.299  11.415
50912W        W19275   3.336  14.209   3.866
50913W        W19276  28.003   1.367   4.116
50914W        W19277  18.217  29.453   1.907
50915W        W19278   6.799  19.655  10.456
50916W        W19279  29.577  35.377  12.846
50917W        W19280   2.243  43.300   1.784
50918W        W19281  18.272  32.451  13.910
50919W        W19282  42.300   6.223  10.914
50920W        W19283  34.103  19.580  13.464
50921W        W19284  25.632  30.031   0.918
50922W        W19285   8.847  18.548  13.793
50923W        W19286  40.871  23.215  12.566
50924W        W19287  25.643  11.250  13.919
50925W        W19288  29.538   7.714   2.367
50926W        W19289  44.772  17.644   4.344
50927W        W19290  14.218   7.340   4.605
50928W        W19291  18.135  18.110  14.845
50929W        W19292  41.501  18.703   2.365
50930W        W19293  22.593   1.252   3.190
50931W        W19294  31.410   2.388   4.128
50932W        W19295  41.825  42.846  12.442
50933W        W19296   0.854  12.241   4.653
50934W        W19297  30.139  29.122   0.828
50935W        W19298  19.268  27.609  10.540
50936W        W19299  10.311  21.215   4.225
50937W        W19300   8.386  29.076  12.550
50938W        W19301  12.348   9.172   4.352
50939W        W19302   2.464   7.286   0.471
50940W        W19303  21.182  20.094   1.769
50941W        W19304  31.989  26.114  13.951
50942W        W19305   4.330  37.382   5.105
50943W        W19306  39.504   3.757  14.386
50944W        W19307  29.544  21.657  11.887
50945W        W19308  23.655   6.186  14.821
50946W        W19309  20.705  12.189   0.321
50947W        W19310  21.089  28.082   1.889
50948W        W19311  40.461  40.466   5.165
50949W        W19312   3.761  24.012   3.305
50950W        W19313  22.197   8.692  12.389
50951W        W19314   1.913   0.828   2.403
50952W        W19315  44.857   2.908  14.448
50953W        W19316  27.188  10.182   3.347
50954W        W19317  33.120  41.395   1.435
50955W        W19318  40.873  18.056  13.475
50956W        W19319  43.766  24.652  12.529
50957W        W19320  12.770  12.231   4.278
50958W        W19321  19.604   5.896  10.476
50959W        W19322   5.394   1.792   1.752
50960W        W19323  20.675   8.898  13.314
50961W        W19324   7.801  27.013  11.373
50962W        W19325   1.746  25.021   0.274
50963W        W19326  39.523  12.851   9.518
50964W        W19327  14.302   4.729   4.641
50965W        W19328  42.336  12.158  10.542
50966W        W19329  27.180   3.883  11.884
50967W        W19330  31.992  37.454   3.223
50968W        W19331   2.727  42.511   0.365
50969W        W19332  13.793  12.171   0.320
50970W        W19333  12.289  42.384   4.121
50971W        W19334  33.597  41.911  10.507
50972W        W19335  19.643   5.348   1.359
50973W        W19336  40.372   0.951   4.709
50974W        W19337  33.506  16.181   0.440
50975W        W19338   8.286  17.293  11.899
50976W        W19339  39.814  25.989  12.367
50977W        W19340   3.811  32.631  11.863
50978W        W19341  36.934  34.444   1.732
50979W        W19342  33.089  39.929   2.260
50980W        W19343  22.676  14.744  13.394
50981W        W19344   0.329   7.816   3.256
50982W        W19345  19.773  29.536   4.125
50983W        W19346  30.138  27.476  11.415
50984W        W19347  10.246   8.267   2.732
50985W        W19348  14.727   7.823  12.075
50986W        W19349   2.915  44.419  10.529
50987W        W19350  32.039  17.667   4.337
50988W        W19351  33.974  36.555   1.272
50989W        W19352  29.021  18.161   4.273
50990W        W19353  18.170  41.826  12.453
50991W        W19354  27.672  19.083   4.165
50992W        W19355  21.114  39.512   4.311
50993W        W19356  22.162  17.643  13.980
50994W        W19357  21.154  13.733   4.710
50995W        W19358  43.294   0.774  11.067
50996W        W19359  19.051  13.704   2.219
50997W        W19360  34.480  21.699  14.491
50998W        W19361  35.002  42.024  12.533
50999W        W19362   9.692   2.916   3.657
51000W        W19363  39.988  41.406   3.646
51001W        W19364  14.689  11.656   0.925
51002W        W19365  36.972  28.140  12.847
51003W        W19366   8.818  19.132   0.407
51004W        W19367  14.329  33.418   1.323
51005W        W19368   1.479  40.391  12.952
51006W        W19369  41.957   2.789  11.037
51007W        W19370  39.968  33.109   0.306
51008W        W19371   4.333  15.309  10.540
51009W        W19372  41.986   7.695  12.397
51010W        W19373  32.465  12.790  10.477
51011W        W19374   8.678  39.452  11.938
51012W        W19375  40.502  22.012   0.746
51013W        W19376  14.249   7.403   2.330
51014W        W19377  33.955  19.583  12.487
51015W        W19378  15.625  44.375  12.465
51016W        W19379  42.336  36.019  10.480
51017W        W19380   5.291   4.227  11.483
51018W        W19381  35.460  39.963  10.498
51019W        W19382   6.710  44.391   4.772
51020W        W19383  30.625  24.106   2.822
51021W        W19384  44.447   9.267   4.197
51022W        W19385  43.347  27.998  11.909
51023W        W19386  31.576  22.625   0.847
51024W        W19387  15.136  27.514   3.360
51025W        W19388  17.244  33.101  11.551
51026W        W19389  14.132   9.726  13.997
51027W        W19390  16.670  42.936  12.030
51028W        W19391   8.688  40.013   2.303
51029W        W19392  43.881  30.575   4.333
51030W        W19393  42.895  15.180  10.589
51031W        W19394  41.969   4.355   0.482
51032W        W19395  30.573  33.410   4.333
51033W        W19396  16.233  41.820  12.096
51034W        W19397  38.847  29.101  10.445
51035W        W19398   9.280  35.983   5.098
51036W        W19399  13.607   8.329  12.961
51037W        W19400  38.446   6.416  11.885
51038W        W19401  20.087   8.355   4.249
51039W        W19402  36.446  11.690  11.395
51040W        W19403  11.657  16.638  11.495
51041W        W19404  43.483   0.312  14.352
51042W        W19405  18.125  32.469   3.653
51043W        W19406  22.068  40.819  14.963
51044W        W19407  24.630  24.725   4.304
51045W        W19408   0.793  30.453   3.353
51046W        W19409  31.942   1.334   0.385
51047W        W19410  40.926   5.326   2.796
51048W        W19411   2.429  35.572   0.269
51049W        W19412  18.554  44.758  14.998
51050W        W19413   4.336  23.532  12.025
51051W        W19414  35.038  21.055   4.657
51052W        W19415  19.078  33.508  11.994
51053W        W19416  13.644  19.276   2.361
51054W        W19417   2.845   8.756  14.339
51055W        W19418  25.166  41.527   4.226
51056W        W19419   4.868  39.532   4.282
51057W        W19420  42.499  29.163  13.456
51058W        W19421  10.806  20.166  13.031
51059W        W19422  43.876  33.587  13.791
51060W        W19423  15.296  38.346  12.518
51061W        W19424  12.754   7.312  14.504
51062W        W19425  34.382  28.625   1.339
51063W        W19426  30.466  34.463   0.478
51064W        W19427   3.376  28.459   3.224
51065W        W19428  19.636   3.323  12.492
51066W        W19429  40.341  21.070  12.847
51067W        W19430   8.834   0.911   1.410
51068W        W19431  10.239  29.477  12.043
51069W        W19432   0.470  22.133  14.820
51070W        W19433  31.632  43.943   5.747
51071W        W19434  12.157  23.088   0.762
51072W        W19435  43.286   1.339  13.842
51073W        W19436  31.952   2.784  14.980
51074W        W19437   0.912  42.914  13.794
51075W        W19438  43.425  24.658  14.799
51076W        W19439  18.761  43.474   0.885
51077W        W19440  31.054  27.084  10.903
51078W        W19441  12.633  33.467  13.426
51079W        W19442  33.950  27.654  11.951
51080W        W19443  33.893  16.092  10.936
51081W        W19444  42.020  11.750   1.316
51082W        W19445   3.371  22.602  12.955
51083W        W19446   2.411   1.884  12.936
51084W        W19447  26.497  39.331   0.820
51085W        W19448  41.822  30.997  14.804
51086W        W19449  38.888  34.563  10.521
51087W        W19450  18.191   8.876   2.330
51088W        W19451  15.733   9.843  13.499
51089W        W19452   0.858  23.504   5.273
51090W        W19453  15.240   8.896   0.256
51091W        W19454  35.967  23.108   1.900
51092W        W19455  31.062  44.276  11.417
51093W        W19456  44.810  43.834   2.804
51094W        W19457  18.237  32.117   0.760
51095W        W19458  16.622  36.467  11.876
51096W        W19459  36.571  16.659  13.356
51097W        W19460  14.112   5.210   4.700
51098W        W19461  33.906  29.432  10.459
51099W        W19462  19.573   8.374  13.540
51100W        W19463  13.127  13.217   1.742
51101W        W19464   6.407   0.948   2.684
51102W        W19465  38.514   0.835  11.405
51103W        W19466  24.488   7.833  13.968
51104W        W19467   5.703  25.000  13.451
51105W        W19468   0.272  36.424   5.226
51106W        W19469  14.777  13.842  11.515
51107W        W19470  20.736  39.518  12.378
51108W        W19471  41.528   7.789  11.122
51109W        W19472   0.463  35.099  14.022
51110W        W19473  39.014  41.852   4.628
51111W        W19474  11.650  30.140  10.479
51112W        W19475   7.823  15.194   0.868
51113W        W19476  41.806  17.570   2.185
51114W        W19477   1.825  28.929   2.844
51115W        W19478  24.656  40.831   0.787
51116W        W19479  12.759   7.415   0.851
51117W        W19480   9.159  29.121  11.945
51118W        W19481  13.169  15.664   5.126
51119W        W19482  14.131   6.827   9.599
51120W        W19483  35.420  20.764   3.327
51121W        W19484  34.907  33.910  12.408
51122W        W19485  17.184   0.836  12.999
51123W        W19486   4.899  38.819  10.090
51124W        W19487   4.776  37.540  13.487
51125W        W19488  35.010  40.023  14.491
51126W        W19489   0.826   0.327   3.760
51127W        W19490  32.090  13.218   3.155
51128W        W19491  41.515  39.830  12.436
51129W        W19492  16.181  10.699   4.173
51130W        W19493   7.265  28.580  14.280
51131W        W19494  21.028   2.422   4.733
51132W        W19495   9.683  42.021   4.621
51133W        W19496   5.275  17.083  13.895
51134W        W19497   5.759  12.827  11.430
51135W        W19498   1.850  19.689   1.231
51136W        W19499  26.176  16.760   9.962
51137W        W19500   5.324  41.297   2.874
51138W        W19501  43.452   8.386  14.839
51139W        W19502  31.046   1.752  10.517
51140W        W19503   1.934  17.664  12.883
51141W        W19504   8.357   8.760  14.862
51142W        W19505   6.402  23.214  14.011
51143W        W19506  21.641  40.052  11.580
51144W        W19507   0.302  41.346   4.351
51145W        W19508  10.184  14.610  12.864
51146W        W19509  18.656  11.354  10.096
51147W        W19510  17.616  20.224   2.762
51148W        W19511   5.208  26.469   0.809
51149W        W19512  11.147  12.694   4.121
51150W        W19513  24.575  44.400  13.796
51151W        W19514  33.441  34.490   4.817
51152W        W19515  11.153  18.132  12.035
51153W        W19516  37.975  28.120  14.294
51154W        W19517  13.816  40.924  12.039
51155W        W19518  10.715  20.232   0.270
51156W        W19519  29.134   0.899  11.557
51157W        W19520  23.049  33.015   1.445
51158W        W19521  14.786  40.927   4.761
51159W        W19522  35.985  21.581   0.399
51160W        W19523  42.810  31.459  13.471
51161W        W19524   2.939   7.349  12.572
51162W        W19525  36.937   2.959  12.372
51163W        W19526   1.825   2.434   0.882
51164W        W19527  13.272  17.686   4.200
51165W        W19528  37.908  42.346  13.367
51166W        W19529  26.692   3.751   3.326
51167W        W19530  40.024  12.822  11.878
51168W        W19531   5.203   4.324   2.687
51169W        W19532   6.799  38.944   3.323
51170W        W19533  28.578  22.197  13.352
51171W        W19534   1.251  35.929   1.306
51172W        W19535   7.325  23.191   0.252
51173W        W19536  33.422  19.646   1.366
51174W        W19537  35.361  38.391  14.300
51175W        W19538  11.259  12.830   3.808
51176W        W19539  37.395  43.918   1.835
51177W        W19540  44.297  20.149  10.996
51178W        W19541  14.630  10.317  10.590
51179W        W19542  10.199   3.410   3.227
51180W        W19543  42.436  13.190  12.518
51181W        W19544   8.842  22.729   4.114
51182W        W19545  36.482   0.805  14.324
51183W        W19546   3.768  16.172   2.386
51184W        W19547  40.934  26.091  14.493
51185W        W19548  29.981  21.536   2.347
51186W        W19549  41.853  27.500  10.464
51187W        W19550  22.027  12.840   1.904
51188W        W19551  28.473   0.401  10.440
51189W        W19552  27.025  28.499   3.818
51190W        W19553  38.416  39.843  14.384
51191W        W19554   9.193  33.619  14.460
51192W        W19555   5.354  21.578  11.993
51193W        W19556  25.471   1.940  11.504
51194W        W19557  15.743  26.994   4.803
51195W        W19558  21.061   1.964   3.217
51196W        W19559  16.607  32.082  12.469
51197W        W19560  11.215   8.804   1.344
51198W        W19561   3.882   5.887  13.931
51199W        W19562  37.978  35.538   0.373
51200W        W19563   7.328  31.127  12.047
51201W        W19564   2.447  39.038   3.823
51202W        W19565  19.656  15.102  11.016
51203W        W19566  27.551  23.598  14.808
51204W        W19567   9.229   4.717  10.943
51205W        W19568  16.217  15.135   1.931
51206W        W19569  33.056  27.152   4.263
51207W        W19570   2.447  32.910   4.185
51208W        W19571  39.062   6.318   4.779
51209W        W19572  10.744  15.797  14.985
51210W        W19573  37.015   8.865  10.434
51211W        W19574  20.642  39.386  11.129
51212W        W19575  34.091  26.479   0.435
51213W        W19576  28.081  18.212  10.573
51214W        W19577  42.421  20.252  14.514
51215W        W19578  26.005  16.734  12.470
51216W        W19579   5.933   8.335   1.299
51217W        W19580  43.286  21.152   4.606
51218W        W19581  33.488  34.074  14.916
51219W        W19582  36.366  20.230  13.328
51220W        W19583  30.986  19.079   2.773
51221W        W19584  21.117  38.049  14.003
51222W        W19585  35.859  39.364  14.866
51223W        W19586  28.446  14.597   0.759
51224W        W19587  44.280  28.557   1.336
51225W        W19588   8.729  10.837   3.755
51226W        W19589  36.968   4.775  12.485
51227W        W19590  43.514  12.285   0.852
51228W        W19591   3.345  25.975   1.854
51229W        W19592  39.344  19.180  14.439
51230W        W19593  33.406   8.802   5.257
51231W        W19594  32.891  22.649  11.860
51232W        W19595  29.988  41.822   4.121
51233W        W19596  14.164  41.321   1.727
51234W        W19597  23.586  15.771  13.972
51235W        W19598  15.326   6.266  11.434
51236W        W19599  16.784  27.666   3.306
51237W        W19600  35.402  18.701   2.390
51238W        W19601   0.815   3.307  13.873
51239W        W19602  24.224  14.724  14.769
51240W        W19603  32.532  38.527  14.830
51241W        W19604  34.961  29.574  12.578
51242W        W19605   5.230  25.710  11.891
51243W        W19606   1.839  39.382   3.353
51244W        W19607   8.202  30.651  12.852
51245W        W19608  35.906  11.178   3.345
51246W        W19609  25.968  38.400  14.932
51247W        W19610  15.159  43.274  13.394
51248W        W19611   5.919  15.236  14.970
51249W        W19612  11.706  13.638   3.358
51250W        W19613  43.381  37.382  13.428
51251W        W19614  18.242   0.325  11.915
51252W        W19615  40.901  43.364   0.881
51253W        W19616  43.863  31.510   4.318
51254W        W19617  33.583  26.652   1.336
51255W        W19618  22.054  11.153  13.959
51256W        W19619  39.064  26.157   1.309
51257W        W19620  39.323  18.143  14.307
51258W        W19621  35.928  28.586   1.863
51259W        W19622  34.506  34.562  13.981
51260W        W19623  15.754  43.310   0.827
51261W        W19624  18.115  37.058  11.038
51262W        W19625   1.822  17.582  12.027
51263W        W19626  14.096  38.021  14.317
51264W        W19627  32.978  34.948   3.236
51265W        W19628  33.069  20.663  14.348
51266W        W19629  44.293  19.555  11.969
51267W        W19630  34.101  26.134   1.231
51268W        W19631  10.854   8.377   4.278
51269W        W19632  34.091  14.650  13.312
51270W        W19633  11.822  30.484  11.488
51271W        W19634  34.014  36.992   4.350
51272W        W19635   4.402  17.218   0.871
51273W        W19636  44.334  15.601   5.144
51274W        W19637  28.137  21.255  14.949
51275W        W19638   2.280   4.355  11.958
51276W        W19639  36.849  14.835   0.953
51277W        W19640  18.091  23.657  14.761
51278W        W19641  43.988  15.085   3.245
51279W        W19642   8.406  15.293   4.285
51280W        W19643  43.971   9.336  13.846
51281W        W19644  13.299  24.560   1.745
51282W        W19645  38.979   8.320  13.998
51283W        W19646  31.096  12.152  12.540
51284W        W19647  30.926   5.407  12.885
51285W        W19648  27.685  32.008  11.546
51286W        W19649   4.336  16.153   0.897
51287W        W19650  41.409   0.387   0.466
51288W        W19651   6.759  28.985  11.122
51289W        W19652  19.208  20.700  12.899
51290W        W19653  18.130  15.270  13.030
51291W        W19654   6.355  28.038   2.825
51292W        W19655  24.055  27.051  11.997
51293W        W19656  23.018   5.306  12.563
51294W        W19657  13.636  16.788  12.454
51295W        W19658   3.268  17.153   0.354
51296W        W19659  30.531  42.313  13.516
51297W        W19660  35.539  37.032   2.228
51298W        W19661   4.853  35.901  12.348
51299W        W19662  36.926  36.899  13.838
51300W        W19663   3.745  27.113  13.966
51301W        W19664  23.082   3.891  12.494
51302W        W19665  27.484   5.848  11.604
51303W        W19666   9.847   0.336   4.184
51304W        W19667  42.460  19.245  10.934
51305W        W19668  24.174  30.056   2.753
51306W        W19669  40.892  38.917   9.983
51307W        W19670  12.221   4.409  13.997
51308W        W19671  37.852   9.660   5.731
51309W        W19672  42.962  34.601   1.270
51310W        W19673  35.436   2.263   4.668
51311W        W19674  20.094  44.795  13.349
51312W        W19675  33.504  30.569  10.585
51313W        W19676  33.901  19.669  11.962
51314W        W19677  39.495  44.855  12.511
51315W        W19678  33.503  33.100  12.088
51316W        W19679  24.049  21.553   0.749
51317W        W19680  36.507  16.681  11.425
51318W        W19681   6.800  37.958  11.987
51319W        W19682   2.913   7.767  13.528
51320W        W19683   2.307  24.976  13.393
51321W        W19684  44.009  30.471  11.425
51322W        W19685  38.006  43.896  12.480
51323W        W19686  25.605  26.020  14.808
51324W        W19687  19.083  10.384   4.652
51325W        W19688  18.221   0.413   2.315
51326W        W19689  21.154  37.932  13.445
51327W        W19690  39.526  13.731  14.766
51328W        W19691  21.668  14.757  13.537
51329W        W19692  40.841   9.778   4.752
51330W        W19693   5.277   2.453   3.384
51331W        W19694  22.691  15.814   4.823
51332W        W19695  24.511  30.451   0.480
51333W        W19696  37.057  27.530  11.476
51334W        W19697  34.097  15.178  13.011
51335W        W19698  17.142  33.510   4.799
51336W        W19699  13.160   5.750  13.356
51337W        W19700  10.149  35.921  11.957
51338W        W19701  17.259  20.641  13.024
51339W        W19702  10.662  41.491  12.952
51340W        W19703  23.642  23.669   4.279
51341W        W19704  10.159  38.401   3.807
51342W        W19705  41.470  14.638   0.260
51343W        W19706  43.376   3.453  11.486
51344W        W19707  34.901  11.821  13.437
51345W        W19708  38.508  26.518   3.869
51346W        W19709  17.139  30.502  12.029
51347W        W19710  30.151   6.882  12.832
51348W        W19711   7.388  21.621  13.036
51349W        W19712   5.212   8.766  12.977
51350W        W19713  42.960  16.685   3.181
51351W        W19714  20.167   5.902  14.365
51352W        W19715  41.797  28.511  10.980
51353W        W19716  34.990  19.671  11.389
51354W        W19717  21.063  29.472   4.665
51355W        W19718  13.607  36.053   0.855
51356W        W19719  21.138   4.707  10.632
51357W        W19720  29.512   4.260  10.445
51358W        W19721  13.766  21.067   1.316
51359W        W19722  33.467  26.130   2.273
51360W        W19723  26.202  21.235   3.212
51361W        W19724  18.752  43.773  11.115
51362W        W19725  11.164  36.515   0.799
51363W        W19726  43.985  38.504   4.271
51364W        W19727  38.879  21.703   2.883
51365W        W19728  35.021  43.020   1.794
51366W        W19729  14.666   6.391   3.346
51367W        W19730  13.684  11.866  11.553
51368W        W19731  30.150  27.054  12.863
51369W        W19732  30.935   9.270   4.641
51370W        W19733  40.009  37.834  11.010
51371W        W19734   9.763   3.856  11.379
51372W        W19735  26.120  25.052  13.038
51373W        W19736  41.443  41.840  13.361
51374W        W19737  11.194  16.736   2.336
51375W        W19738  18.241  20.687   2.283
51376W        W19739  34.082  18.607  11.026
51377W        W19740  41.354  16.245   1.761
51378W        W19741  19.124   6.297   0.406
51379W        W19742   3.855  28.029  11.058
51380W        W19743  28.661  42.324   3.665
51381W        W19744  31.931  24.492  10.637
51382W        W19745  23.582  30.984  12.976
51383W        W19746  39.401  11.840   2.403
51384W        W19747  21.181   3.317  12.548
51385W        W19748  34.384  17.731  14.415
51386W        W19749  13.784   3.435  10.904
51387W        W19750   2.409  16.180  14.333
51388W        W19751  25.678  22.088   1.310
51389W        W19752  22.191  28.081  12.947
51390W        W19753  19.189  43.408  13.056
51391W        W19754   5.767  15.250  10.510
51392W        W19755  29.106  40.829  11.537
51393W        W19756  24.642   5.739   1.850
51394W        W19757  21.195  24.628  10.968
51395W        W19758   4.327  39.372   2.297
51396W        W19759   0.275  22.013  11.473
51397W        W19760  37.422   6.834  13.924
51398W        W19761  11.340  38.404   1.383
51399W        W19762  21.710  41.814  12.482
51400W        W19763  34.094  32.555   3.325
51401W        W19764  28.934  38.538   0.302
51402W        W19765  39.550  12.696  12.363
51403W        W19766  17.740  25.993   4.649
51404W        W19767  12.174   5.826   4.251
51405W        W19768  42.446  16.693   3.276
51406W        W19769  37.984  20.701  10.584
51407W        W19770  28.173  19.564   3.174
51408W        W19771  15.741   0.318  13.383
51409W        W19772  40.467  24.649   4.114
51410W        W19773   0.392   6.909   3.690
51411W        W19774   0.338  41.862  11.000
51412W        W19775  34.047  15.742  12.443
51413W        W19776   1.431  25.517   4.261
51414W        W19777  14.299  21.226  11.478
51415W        W19778  39.531   6.801   4.623
51416W        W19779  26.563   5.859   3.679
51417W        W19780   0.252  44.894   4.690
51418W        W19781  22.664  25.102  14.850
51419W        W19782   5.217   5.266   2.355
51420W        W19783   3.844  25.023   5.237
51421W        W19784  19.197  42.404  12.850
51422W        W19785   4.412   0.852  13.851
51423W        W19786  21.157   4.240   1.934
51424W        W19787  14.096   8.669   0.899
51425W        W19788   0.861   4.816   4.699
51426W        W19789   9.813  30.055   0.822
51427W        W19790   3.311  43.380  14.284
51428W        W19791   6.771  42.788  12.879
51429W        W19792  35.377  25.026   2.745
51430W        W19793  31.004  27.940   2.803
51431W        W19794  21.602   4.784   1.253
51432W        W19795  37.581  11.358  13.335
51433W        W19796  36.399  17.126   0.767
51434W        W19797  13.762  11.204   2.186
51435W        W19798  40.359  41.009  11.049
51436W        W19799  12.238  42.825   0.281
51437W        W19800  29.078  42.463  13.322
51438W        W19801  13.649  41.348  11.522
51439W        W19802  17.686  32.023   0.302
51440W        W19803  24.616  20.620  13.944
51441W        W19804  41.873   0.899  10.407
51442W        W19805  33.977  36.380  12.016
51443W        W19806   3.275  15.632  14.761
51444W        W19807  43.340   7.731  14.407
51445W        W19808  37.943  28.582  12.076
51446W        W19809  23.214  24.490  11.893
51447W        W19810  41.832   6.894  12.866
51448W        W19811  37.409  38.529  11.532
51449W        W19812  18.163  19.285   4.710
51450W        W19813  17.571  22.101  13.031
51451W        W19814  12.639  37.005  11.868
51452W        W19815  33.462  37.084  14.810
51453W        W19816  31.492  28.653   2.785
51454W        W19817  22.143   7.368   0.857
51455W        W19818  18.565  25.091   5.086
51456W        W19819  23.723  42.421   3.856
51457W        W19820   2.739   8.340   1.855
51458W        W19821   3.293   9.273  12.925
51459W        W19822  15.671  43.022   5.281
51460W        W19823   2.957   7.220  12.955
51461W        W19824  42.987  33.024   4.353
51462W        W19825   3.918   8.793   4.243
51463W        W19826  36.035  23.149  14.495
51464W        W19827  28.036  36.462   4.347
51465W        W19828  12.840  27.181   2.229
51466W        W19829  20.532  41.535   1.306
51467W        W19830  42.484  13.708   2.871
51468W        W19831  19.710  30.600   2.825
51469W        W19832  34.904  25.974  12.870
51470W        W19833  24.168  30.417   4.775
51471W        W19834  36.896  39.435  13.918
51472W        W19835  26.188  44.779   0.787
51473W        W19836   6.407  16.183   2.234
51474W        W19837  17.178   0.457  12.980
51475W        W19838   5.747  41.800  13.501
51476W        W19839   3.797  14.671  11.934
51477W        W19840  42.521   3.714   0.331
51478W        W19841  22.711  24.518  11.102
51479W        W19842   0.972  39.046   1.312
51480W        W19843   2.345  25.041  11.957
51481W        W19844  29.012   1.820   3.170
51482W        W19845  16.656  11.190  10.478
51483W        W19846   0.344   8.345   0.276
51484W        W19847  39.460  44.880   1.839
51485W        W19848  20.117   6.333   0.346
51486W        W19849  41.835  20.045   3.834
51487W        W19850   4.366  35.881   2.368
51488W        W19851  44.267  10.214  10.991
51489W        W19852  11.167  26.960   3.342
51490W        W19853  40.312   3.900   3.735
51491W        W19854  37.575  34.532   0.278
51492W        W19855  15.227  20.161   2.319
51493W        W19856  13.826   6.862  12.985
51494W        W19857  37.026  43.806  14.907
51495W        W19858  33.897  42.839   4.708
51496W        W19859  20.156  44.398   4.227
51497W        W19860   3.394  38.859   0.387
51498W        W19861   0.269  10.164   0.270
51499W        W19862  28.024  25.174  12.389
51500W        W19863   9.310  22.714   2.818
51501W        W19864  10.297  28.576  11.879
51502W        W19865   8.841  13.678   4.304
51503W        W19866  27.690   6.263  11.555
51504W        W19867   2.345   9.751   1.697
51505W        W19868   4.402  13.291   4.654
51506W        W19869  13.272  28.546   4.352
51507W        W19870  27.666  17.802  10.476
51508W        W19871   4.731   7.849   1.366
51509W        W19872  27.033  44.969  11.528
51510W        W19873   6.884  44.999  11.383
51511W        W19874  38.867  14.674   4.797
51512W        W19875  39.846  39.464  11.080
51513W        W19876  22.579  25.190   5.249
51514W        W19877  12.844   6.725   3.854
51515W        W19878  11.340  41.958   2.675
51516W        W19879  27.644  20.055  12.477
51517W        W19880  42.363  30.559  11.910
51518W        W19881  25.126  44.301   4.674
51519W        W19882  29.984  42.515   1.896
51520W        W19883   9.883   7.848   4.301
51521W        W19884  26.960  23.513   4.272
51522W        W19885  40.870  25.164   1.359
51523W        W19886  15.635  41.865  13.538
51524W        W19887  26.559  22.160   3.637
51525W        W19888  33.931  39.982  10.981
51526W        W19889  18.596  26.099  12.442
51527W        W19890   9.689   4.723   4.802
51528W        W19891  20.039  37.477  10.482
51529W        W19892  42.838  29.559   2.372
51530W        W19893  22.539  31.540   3.738
51531W        W19894   3.305  41.807  11.553
51532W        W19895  35.575   9.757  10.981
51533W        W19896  43.273  14.804  14.471
51534W        W19897  20.591  23.515   1.797
51535W        W19898  21.198   2.853   1.878
51536W        W19899   7.408   3.453   2.277
51537W        W19900   8.192  27.997   2.250
51538W        W19901  22.089  34.398   0.934
51539W        W19902  30.652   7.739   1.331
51540W        W19903  19.572  31.581   3.210
51541W        W19904  10.711  22.062  13.364
51542W        W19905  17.106  18.653  10.438
51543W        W19906  30.527  16.715  13.014
51544W        W19907  36.536  36.347   3.740
51545W        W19908   2.920  11.700  13.849
51546W        W19909  29.516  42.811  12.545
51547W        W19910   1.392   4.791   4.308
51548W        W19911  36.026   6.729  13.909
51549W        W19912   9.193  40.333   4.684
51550W        W19913   2.361   3.259  14.980
51551W        W19914  20.274   9.683   3.256
51552W        W19915  20.123  13.299  11.863
51553W        W19916  31.907  35.917   2.830
51554W        W19917   1.429   1.448   0.877
51555W        W19918  14.202  19.669  14.792
51556W        W19919  26.664   4.750  14.986
51557W        W19920  34.971   6.248  12.031
51558W        W19921   3.238   4.344  14.291
51559W        W19922  29.030  12.286   3.366
51560W        W19923  30.651  31.511  10.637
51561W        W19924  20.532  13.840  11.905
51562W        W19925  25.103   7.287   3.374
51563W        W19926   7.832  35.445   3.858
51564W        W19927  10.716  12.263   3.800
51565W        W19928  31.406   0.870   0.461
51566W        W19929  34.109  35.389   2.785
51567W        W19930   4.723  25.073  12.032
51568W        W19931  27.071  35.945   1.759
51569W        W19932   8.289  19.651   2.765
51570W        W19933  44.881  12.826  10.906
51571W        W19934   5.770  26.613   4.758
51572W        W19935   7.858  14.754  10.645
51573W        W19936  12.611  15.649  13.494
51574W        W19937   5.201   9.245  12.356
51575W        W19938  42.937  29.464  13.875
51576W        W19939  25.219  35.458   1.412
51577W        W19940   4.896  41.304  14.317
51578W        W19941  26.961  14.807  12.464
51579W        W19942  16.118   9.256   0.797
51580W        W19943  29.086  18.738  14.842
51581W        W19944   4.370   5.428   4.349
51582W        W19945  17.103  29.147  11.903
51583W        W19946  44.967   6.280  13.507
51584W        W19947  15.681   5.339  13.892
51585W        W19948   6.181  21.173  12.462
51586W        W19949  33.079   9.168   2.710
51587W        W19950  10.757   6.754  14.387
51588W        W19951  25.697  36.485   0.740
51589W        W19952   3.366  39.521  14.891
51590W        W19953  15.259  18.171   1.887
51591W        W19954   3.401  17.628   2.235
51592W        W19955  32.401  32.454   1.420
51593W        W19956   5.826  38.885  10.973
51594W        W19957  31.104  20.735   2.255
51595W        W19958  10.342  28.930   2.874
51596W        W19959  28.955  29.159  14.412
51597W        W19960   8.293  20.631  10.955
51598W        W19961   1.858  12.248   4.762
51599W        W19962  35.930   4.928   2.378
51600W        W19963   6.802  33.075   3.848
51601W        W19964  33.524   3.396  12.861
51602W        W19965  17.296  44.451   2.338
51603W        W19966  22.205  27.085  12.428
51604W        W19967  29.570   2.327  11.481
51605W        W19968  35.528  31.052   1.427
51606W        W19969  25.639  21.582  11.037
51607W        W19970   4.374   2.919  11.405
51608W        W19971  34.613  25.539   3.332
51609W        W19972  31.452  26.956  13.998
51610W        W19973  13.188  22.242   4.677
51611W        W19974   0.888  41.838  13.821
51612W        W19975   2.860  38.830  12.580
51613W        W19976  31.401   1.321   4.703
51614W        W19977  15.285   9.705   0.872
51615W        W19978  44.973   4.348   3.806
51616W        W19979  36.057  42.424  12.981
51617W        W19980  16.265  39.049  10.455
51618W        W19981  42.463   7.679  14.855
51619W        W19982  16.127  42.497  11.553
51620W        W19983  16.087  18.242   3.699
51621W        W19984  28.531   7.367   2.243
51622W        W19985  28.944  17.766   1.703
51623W        W19986  14.214   4.436  10.632
51624W        W19987   6.894  17.615  13.804
51625W        W19988  40.341   1.799   1.314
51626W        W19989   4.222  18.589  12.910
51627W        W19990   5.754  25.211   3.834
51628W        W19991  26.655  24.591   0.278
51629W        W19992   9.682  39.349   3.249
51630W        W19993  20.664   6.409  11.468
51631W        W19994  32.523   6.878   4.179
51632W        W19995   9.378   4.707   4.672
51633W        W19996  44.357   3.370   1.805
51634W        W19997  19.739  23.175   3.638
51635W        W19998  10.161  36.875  11.023
51636W        W19999  29.964   2.348  14.481
51637W        W20000  25.500  11.190  13.426
51638W        W20001  10.862  38.833   1.736
51639W        W20002   7.747  34.028   2.301
51640W        W20003   4.221  22.198  11.011
51641W        W20004   1.367  41.030   1.780
51642W        W20005  17.163  24.026   1.370
51643W        W20006   5.411   4.312  10.538
51644W        W20007  16.308   2.274   0.282
51645W        W20008  30.126  20.059  11.452
51646W        W20009  29.154  10.299   3.236
51647W        W20010  24.063   7.784  10.931
51648W        W20011   9.187  27.151  13.843
51649W        W20012  13.829  41.818   2.354
51650W        W20013   8.259  29.511   1.773
51651W        W20014   3.272  42.385  14.963
51652W        W20015   8.697  16.734  11.959
51653W        W20016   2.953  30.999  10.952
51654W        W20017   0.875   9.290  13.488
51655W        W20018   5.926  30.517   4.727
51656W        W20019  43.976  33.072   4.815
51657W        W20020   6.720  39.881  12.096
51658W        W20021  44.379   0.321   0.879
51659W        W20022  12.305   1.797   2.673
51660W        W20023   6.677   9.845  11.480
51661W        W20024  38.340  15.172   1.356
51662W        W20025  26.074   2.855  10.951
51663W        W20026  42.838  40.820  14.286
51664W        W20027  37.532  19.616  13.849
51665W        W20028  13.714  27.533  14.320
51666W        W20029   0.940  15.107  10.958
51667W        W20030  13.660  37.037   0.287
51668W        W20031  25.653  42.976  13.959
51669W        W20032  30.952  40.480   2.801
51670W        W20033  18.659  32.432  11.485
51671W        W20034  13.141  13.261  14.770
51672W        W20035  21.594  13.309  12.838
51673W        W20036   3.443  13.839   2.187
51674W        W20037  31.476  43.873   0.853
51675W        W20038  29.541   0.835  10.520
51676W        W20039  41.484  44.811  12.058
51677W        W20040   1.411  15.752  13.455
51678W        W20041   7.203   6.370  11.905
51679W        W20042   0.813   3.438   9.978
51680W        W20043  16.791  42.812  12.403
51681W        W20044  36.060  44.441   1.401
51682W        W20045  41.487  29.162   0.434
51683W        W20046  22.721  36.937   4.732
51684W        W20047  24.577   2.830   3.827
51685W        W20048  30.973  16.621  11.583
51686W        W20049   0.335  39.378   2.887
51687W        W20050  13.776  32.002   3.244
51688W        W20051  34.073  12.795  10.915
51689W        W20052  26.624  31.455   1.311
51690W        W20053  31.538  15.769   1.878
51691W        W20054  29.982  27.656   2.777
51692W        W20055  16.278  25.066  12.999
51693W        W20056  44.425  26.189  12.002
51694W        W20057   8.304  36.075  12.070
51695W        W20058   0.925  39.404  13.449
51696W        W20059   8.821  35.373  13.024
51697W        W20060  23.048   1.314  12.082
51698W        W20061   4.904   5.926  14.962
51699W        W20062  12.128  38.355  12.076
51700W        W20063  22.204  27.120  11.463
51701W        W20064  32.076  42.832   2.259
51702W        W20065  25.600  25.120  10.140
51703W        W20066  23.543   9.822   1.378
51704W        W20067  23.170  18.288  12.960
51705W        W20068   6.351  42.826   3.304
51706W        W20069  17.606  21.758   3.686
51707W        W20070  23.014  26.972   2.875
51708W        W20071  38.056   4.357  13.970
51709W        W20072  44.971   3.740   1.839
51710W        W20073  19.634  28.678   3.637
51711W        W20074  10.837  35.102   3.208
51712W        W20075  15.732  44.915  10.572
51713W        W20076  41.422  32.916   2.771
51714W        W20077  21.754  41.802   4.764
51715W        W20078  26.673   8.187  13.369
51716W        W20079  19.778   6.321  13.827
51717W        W20080  28.586  23.127  11.521
51718W        W20081   7.175  38.881  12.488
51719W        W20082  34.942   4.298   4.834
51720W        W20083   6.743  16.125   4.159
51721W        W20084  15.279  19.118   9.480
51722W        W20085  10.279   0.761  12.021
51723W        W20086  10.270  12.792   3.850
51724W        W20087   6.917  35.889  10.588
51725W        W20088  29.136  41.396  14.384
51726W        W20089  36.866   3.389   2.666
51727W        W20090  20.765  15.764   4.175
51728W        W20091  38.490  31.424   2.857
51729W        W20092  43.001  40.804   4.670
51730W        W20093  43.417   6.215  10.634
51731W        W20094  42.319  12.698  10.956
51732W        W20095   7.375   1.938   0.810
51733W        W20096   2.260  22.122   9.494
51734W        W20097   0.287  44.334   2.879
51735W        W20098  31.124  30.481  10.623
51736W        W20099   6.328  17.195  13.501
51737W        W20100   0.769  33.543  14.030
51738W        W20101  39.326   5.725  13.927
51739W        W20102  41.853  20.215   0.438
51740W        W20103  23.540  37.953   4.723
51741W        W20104  36.420  42.388  12.523
51742W        W20105  30.948  19.221   1.311
51743W        W20106  10.821   2.885   4.299
51744W        W20107   0.307  38.343   2.256
51745W        W20108  17.617  18.751  13.020
51746W        W20109  38.336  15.821  10.468
51747W        W20110  21.618  23.234   4.609
51748W        W20111  28.481   1.812   3.354
51749W        W20112   7.890  35.513   1.432
51750W        W20113  13.248   3.422   4.758
51751W        W20114  24.587  14.720   1.749
51752W        W20115  23.628   3.821   0.268
51753W        W20116  18.242   8.344   2.818
51754W        W20117  26.575  44.347  14.936
51755W        W20118  17.747  10.380   3.274
51756W        W20119  10.383  21.189   9.993
51757W        W20120  33.977  20.743  10.974
51758W        W20121  36.007  17.067  12.923
51759W        W20122  12.197  41.988   3.322
51760W        W20123  18.098  10.701  13.309
51761W        W20124   6.919  10.864  13.896
51762W        W20125  33.473  12.220   4.333
51763W        W20126  27.632  38.427   3.714
51764W        W20127  43.465  43.461   3.731
51765W        W20128   4.861   1.444   3.201
51766W        W20129  37.519   5.419  14.286
51767W        W20130  11.303  36.398  10.565
51768W        W20131  16.756  26.195  12.027
51769W        W20132  21.721  16.626   2.730
51770W        W20133   7.906  12.229   0.872
51771W        W20134  41.023  37.850  13.537
51772W        W20135   7.363   9.204  14.403
51773W        W20136  24.593   1.905  14.861
51774W        W20137  16.256  44.950  13.909
51775W        W20138  30.975  31.913  13.816
51776W        W20139  26.565  32.510   4.657
51777W        W20140  43.489  44.769  12.531
51778W        W20141  33.101  40.929   3.662
51779W        W20142   2.283  40.955   1.719
51780W        W20143  14.138  36.540  11.858
51781W        W20144  28.492  43.301   1.276
51782W        W20145  37.414   9.720  12.370
51783W        W20146  34.573  39.859  13.991
51784W        W20147   3.346   5.768  13.354
51785W        W20148  28.578  14.253  12.909
51786W        W20149  41.494  24.121   1.828
51787W        W20150  37.571  33.010  11.382
51788W        W20151  19.044  21.097   3.364
51789W        W20152  25.528  20.120   1.876
51790W        W20153  40.335  37.444  11.589
51791W        W20154   6.692   4.836  12.049
51792W        W20155   9.299  16.306   2.819
51793W        W20156  41.363   8.656   2.754
51794W        W20157  40.354   3.863  12.026
51795W        W20158  35.583  31.471  11.545
51796W        W20159  35.919  20.739   4.143
51797W        W20160  20.562  21.557  10.407
51798W        W20161   5.316  11.226  10.451
51799W        W20162  35.034  37.995   1.292
51800W        W20163  34.532  23.162   3.159
51801W        W20164  30.022  16.651  13.536
51802W        W20165  18.292  29.452  10.502
51803W        W20166  35.870   1.960   3.732
51804W        W20167  13.606  39.482  11.397
51805W        W20168  37.041  42.303   3.226
51806W        W20169  14.221  24.137   0.932
51807W        W20170  20.544  18.782  12.939
51808W        W20171  28.046  34.932  13.029
51809W        W20172  20.246  39.492  13.328
51810W        W20173  37.528  39.974  13.389
51811W        W20174  44.491  44.803   0.469
51812W        W20175  34.532  14.833   1.331
51813W        W20176  38.027  37.859   3.798
51814W        W20177  32.068   6.414   5.203
51815W        W20178  32.025  34.097   4.796
51816W        W20179  31.644  39.396   2.305
51817W        W20180   3.250  44.267   5.122
51818W        W20181   5.400  32.635   4.673
51819W        W20182  44.850  10.771   0.353
51820W        W20183  44.870  28.621  12.068
51821W        W20184  30.119  20.715   3.250
51822W        W20185  34.907   0.295   0.422
51823W        W20186  14.750  35.035  13.393
51824W        W20187  13.211   5.338  12.838
51825W        W20188  37.576  14.657  13.009
51826W        W20189  44.473   8.209  13.990
51827W        W20190   9.313  21.208   1.430
51828W        W20191  42.409  35.564  13.037
51829W        W20192  35.506  20.730   2.706
51830W        W20193  10.798  15.658   4.728
51831W        W20194  19.096  30.623  14.793
51832W        W20195  25.693  13.266   2.725
51833W        W20196   5.239  21.729   2.846
51834W        W20197  19.199  24.677   4.200
51835W        W20198  13.268   1.892  10.959
51836W        W20199   6.207  19.049   4.635
51837W        W20200  13.827  19.613   0.371
51838W        W20201  38.376  19.698  14.514
51839W        W20202  25.608  16.667   2.882
51840W        W20203  37.877  37.524  11.934
51841W        W20204   0.395   8.227  11.941
51842W        W20205  34.405  18.666   1.265
51843W        W20206   6.791  38.334   2.384
51844W        W20207   4.238  22.211   5.670
51845W        W20208   9.646  27.013  13.491
51846W        W20209  21.023  31.088   2.738
51847W        W20210  44.881  12.737   1.704
51848W        W20211   7.852  23.507   3.797
51849W        W20212  20.207  15.104   1.431
51850W        W20213   1.276  23.688   1.315
51851W        W20214  37.995   5.258  12.457
51852W        W20215  24.076  25.078   2.281
51853W        W20216  32.015  43.278   4.276
51854W        W20217  44.335   9.794  11.552
51855W        W20218  24.018  39.941   4.313
51856W        W20219  17.235  30.958   3.775
51857W        W20220  24.975  33.498   3.268
51858W        W20221  40.989   6.837   2.280
51859W        W20222   7.414  23.626  13.522
51860W        W20223  35.054  25.988  13.426
51861W        W20224  13.617   9.683  13.318
51862W        W20225  29.535  40.339  13.477
51863W        W20226  32.593  26.599  13.946
51864W        W20227   1.423   6.845  14.964
51865W        W20228  42.495  42.365  14.459
51866W        W20229  18.265   6.186   0.261
51867W        W20230  28.566  43.940  12.559
51868W        W20231  30.577  28.059  13.365
51869W        W20232  33.617  25.137   1.855
51870W        W20233   8.169   6.810  10.909
51871W        W20234  36.000  25.500   4.665
51872W        W20235   0.301  27.669   1.837
51873W        W20236  43.905  27.147  12.569
51874W        W20237   6.728  38.057  14.515
51875W        W20238  44.417  27.023  11.558
51876W        W20239  22.606  16.624  13.534
51877W        W20240  20.200  26.013   1.379
51878W        W20241  38.397  26.036  13.052
51879W        W20242   7.805  43.348  13.846
51880W        W20243  17.569  35.556   0.867
51881W        W20244  32.997  43.797   3.755
51882W        W20245  32.483  20.274   1.747
51883W        W20246  22.068   9.869   2.372
51884W        W20247  43.924  43.432  13.391
51885W        W20248   1.320  39.505   4.126
51886W        W20249   0.858  13.204   5.208
51887W        W20250  37.009  24.535   3.321
51888W        W20251   7.751  34.051   3.217
51889W        W20252  44.925  10.164   3.147
51890W        W20253  18.165  18.667  14.969
51891W        W20254  40.041   9.865  14.786
51892W        W20255   5.409  44.438  13.965
51893W        W20256  44.349  39.856   2.195
51894W        W20257   7.788  44.008   4.302
51895W        W20258  43.453  23.568   3.640
51896W        W20259  40.534  14.192   0.857
51897W        W20260  25.970  18.256   1.419
51898W        W20261  17.632  34.406  10.627
51899W        W20262  30.639  17.101   4.727
51900W        W20263   1.459  15.113  13.356
51901W        W20264  20.071  38.995  13.461
51902W        W20265   9.186  40.452   5.105
51903W        W20266  18.674  38.503  12.902
51904W        W20267  35.888   5.916  14.443
51905W        W20268   5.333  35.880   2.396
51906W        W20269   3.896  28.119   0.309
51907W        W20270  11.140  38.999   2.326
51908W        W20271  25.009  43.314  14.961
51909W        W20272   7.382  42.899   2.878
51910W        W20273  39.486  27.120   0.354
51911W        W20274  19.227  20.077   3.827
51912W        W20275   7.667  28.527  12.940
51913W        W20276  41.936  18.651   4.752
51914W        W20277  15.814  34.453   9.921
51915W        W20278   8.748  17.753   2.892
51916W        W20279   0.781  34.541  10.603
51917W        W20280  36.866   3.419  10.500
51918W        W20281  35.558  40.441   2.754
51919W        W20282  30.484  10.662   1.411
51920W        W20283  29.491  30.921   1.723
51921W        W20284  14.250  37.940  11.509
51922W        W20285  23.205  15.171  11.445
51923W        W20286  31.074  15.254   2.182
51924W        W20287  23.725   7.755   1.915
51925W        W20288  16.624   2.738  10.634
51926W        W20289  32.534  13.176  12.376
51927W        W20290  21.674   5.905   0.274
51928W        W20291   3.235  34.119  12.829
51929W        W20292  26.195  21.708   1.451
51930W        W20293  22.692  25.601  12.996
51931W        W20294  25.504  10.310   2.237
51932W        W20295   1.929  18.063  12.425
51933W        W20296  36.375   8.661   0.944
51934W        W20297  27.530  27.543   1.366
51935W        W20298  41.440   3.855   4.145
51936W        W20299  42.021  27.064   3.841
51937W        W20300  21.557  35.552   1.867
51938W        W20301  17.606  17.107  12.995
51939W        W20302  35.968   9.866  13.893
51940W        W20303   8.297  38.943  14.914
51941W        W20304  39.966  18.065  14.943
51942W        W20305  31.958  21.150   0.244
51943W        W20306  11.759  42.892   4.124
51944W        W20307  34.894  24.152  10.026
51945W        W20308  37.844  12.761   1.349
51946W        W20309  15.101  32.459   2.313
51947W        W20310   2.830  32.631   1.418
51948W        W20311  11.713  22.716   0.731
51949W        W20312  27.653   5.784   0.780
51950W        W20313   9.232  12.750  12.390
51951W        W20314  31.425  36.541  12.048
51952W        W20315  17.793  25.049   2.896
51953W        W20316   3.783   2.772   4.209
51954W        W20317  22.075  20.716  14.888
51955W        W20318  38.065  30.593   4.776
51956W        W20319  29.086  15.129   0.856
51957W        W20320  15.321   5.198  11.925
51958W        W20321  19.040  24.179   0.432
51959W        W20322  21.068  25.700   0.459
51960W        W20323   1.936  25.043   2.824
51961W        W20324  29.586  28.541  11.051
51962W        W20325  43.916  44.001   1.274
51963W        W20326  17.693  34.109  14.506
51964W        W20327  21.205   6.343   1.912
51965W        W20328  29.132  17.576   2.399
51966W        W20329   1.803  36.968   0.878
51967W        W20330   4.802   5.764   3.294
51968W        W20331  19.703  39.458  14.332
51969W        W20332  31.418   3.937  14.997
51970W        W20333  16.079  35.404  11.444
51971W        W20334  31.416  25.002   0.453
51972W        W20335  29.123   6.736   2.778
51973W        W20336  27.161  32.097   2.884
51974W        W20337  24.530  28.650   3.357
51975W        W20338  32.078  29.074   4.677
51976W        W20339  19.744  26.660  13.879
51977W        W20340  28.466  35.534  12.536
51978W        W20341  42.434  39.425   0.772
51979W        W20342  16.805  20.570  13.844
51980W        W20343  30.499  33.043   0.775
51981W        W20344  20.094  20.560   1.854
51982W        W20345  37.542  19.154  10.956
51983W        W20346  31.444  15.764  12.868
51984W        W20347  26.090  26.511  13.925
51985W        W20348  28.515  13.651   0.282
51986W        W20349  37.001  16.635   3.785
51987W        W20350  31.997  15.128   0.332
51988W        W20351   8.339   2.315  10.896
51989W        W20352   9.718  26.976  10.890
51990W        W20353  26.057  25.081   5.169
51991W        W20354   0.866   5.365  12.014
51992W        W20355  41.311  35.075   1.423
51993W        W20356  16.651   6.840  10.626
51994W        W20357  17.750  31.975  14.839
51995W        W20358  26.613  36.995  12.948
51996W        W20359  18.261  34.394   0.754
51997W        W20360  31.008  30.941  10.936
51998W        W20361   8.880  12.154  14.886
51999W        W20362  18.655  20.629   1.373
52000W        W20363  29.538  30.518  13.457
52001W        W20364   4.824  40.465  12.555
52002W        W20365   9.287  39.323  13.908
52003W        W20366   8.700  10.811   0.839
52004W        W20367  16.159  29.668   2.674
52005W        W20368  33.902  17.612   3.323
52006W        W20369  27.653  26.527   0.296
52007W        W20370  25.492  26.175  11.481
52008W        W20371  15.816  44.259   4.633
52009W        W20372  14.118  16.099   3.809
52010W        W20373  44.420   2.447   3.859
52011W        W20374  37.340   5.413  11.515
52012W        W20375  34.119  28.626  12.843
52013W        W20376  22.017  37.483   0.462
52014W        W20377   3.411  42.907   1.448
52015W        W20378  31.516  37.903  14.879
52016W        W20379  42.032  33.887  13.365
52017W        W20380   6.717  26.609   2.833
52018W        W20381   3.916  26.141   3.281
52019W        W20382  38.929  41.941   1.242
52020W        W20383   0.279  42.327  11.930
52021W        W20384  20.693  10.809  15.000
52022W        W20385  40.434  21.567   2.194
52023W        W20386  29.424  21.132  14.005
52024W        W20387  15.205   5.430   1.238
52025W        W20388  14.590  40.385   4.621
52026W        W20389  30.476  41.040  12.470
52027W        W20390  27.153  17.791   0.848
52028W        W20391  37.458  20.656  11.570
52029W        W20392   7.861  13.785   2.831
52030W        W20393  26.045   7.234  14.320
52031W        W20394  16.103  32.446   0.899
52032W        W20395   6.209  14.144  13.811
52033W        W20396  33.099   4.340  14.347
52034W        W20397  18.073  39.509  13.823
52035W        W20398  21.668  17.689  11.543
52036W        W20399  16.577  19.625   3.226
52037W        W20400   1.871  22.720  12.532
52038W        W20401  43.383  23.705   0.471
52039W        W20402  16.238  40.811  13.965
52040W        W20403  10.661  26.559   3.831
52041W        W20404  43.817  18.154   1.928
52042W        W20405  13.725  28.511   1.725
52043W        W20406  38.964  15.220   4.342
52044W        W20407  40.471  42.980   4.210
52045W        W20408   4.770  36.040  14.345
52046W        W20409   8.670  13.331  11.100
52047W        W20410  26.580  32.901   4.755
52048W        W20411  43.801  35.525   2.800
52049W        W20412  28.435  23.185  13.819
52050W        W20413  17.599  18.236   5.137
52051W        W20414  27.531  25.206  14.948
52052W        W20415  11.837   9.830   1.442
52053W        W20416  32.515  35.538   0.810
52054W        W20417  32.453  39.814   2.855
52055W        W20418  16.101  38.527  14.007
52056W        W20419  29.652  19.705   5.255
52057W        W20420  35.866  19.658   3.865
52058W        W20421  13.168  17.264  13.406
52059W        W20422  10.226  13.659  12.902
52060W        W20423  38.053  34.982   1.418
52061W        W20424  24.133  17.199  10.451
52062W        W20425  36.870  16.107   1.213
52063W        W20426  32.503  35.587  11.865
52064W        W20427  34.551   0.764   1.448
52065W        W20428  10.247  29.605  14.467
52066W        W20429   9.363  38.032   0.315
52067W        W20430  24.674  43.802   4.806
52068W        W20431  35.527  36.037   0.897
52069W        W20432  19.584  29.520  14.962
52070W        W20433  42.798  38.895   5.118
52071W        W20434  26.554  13.238   2.682
52072W        W20435  31.045   3.391   2.180
52073W        W20436  25.650   1.958  13.873
52074W        W20437   0.791  14.115  11.998
52075W        W20438  40.343  43.909  12.533
52076W        W20439  18.763  31.409   2.680
52077W        W20440  40.875  43.856  14.762
52078W        W20441  23.546  26.630   3.145
52079W        W20442  20.167   9.854  12.902
52080W        W20443  21.645  15.294  12.348
52081W        W20444  22.513   0.975  14.810
52082W        W20445  12.621  22.576  14.502
52083W        W20446  39.981  38.448  12.353
52084W        W20447   2.371  40.380   1.395
52085W        W20448  41.873  32.492  10.901
52086W        W20449  38.869  38.900  13.970
52087W        W20450  11.349  19.186   1.874
52088W        W20451  44.302   8.831  13.014
52089W        W20452  21.557  43.400  12.485
52090W        W20453   0.913   8.751   4.622
52091W        W20454  14.735  29.173  14.402
52092W        W20455  30.134  16.086   2.903
52093W        W20456  41.973  42.955   2.772
52094W        W20457  12.832  13.661  10.539
52095W        W20458   5.308  18.726   4.753
52096W        W20459  42.867  43.991  11.095
52097W        W20460   8.803  10.175  12.026
52098W        W20461   3.226   2.821   4.282
52099W        W20462  26.028   4.731  13.033
52100W        W20463  15.303  18.274  11.501
52101W        W20464  38.376  13.753  14.947
52102W        W20465  12.821  33.543  11.112
52103W        W20466  14.663  32.000   0.326
52104W        W20467  26.607  37.410   3.749
52105W        W20468  13.751  31.122  14.935
52106W        W20469   2.784  33.457  11.583
52107W        W20470  42.909  43.825  12.013
52108W        W20471  34.522  14.591  13.342
52109W        W20472  29.152  28.183  13.414
52110W        W20473  18.714  35.046  13.384
52111W        W20474  35.384  42.893   0.755
52112W        W20475  39.543  32.981   4.691
52113W        W20476  39.335  23.031  11.486
52114W        W20477  26.548  23.061  11.430
52115W        W20478  37.960   9.874   0.863
52116W        W20479  26.490  32.603   1.930
52117W        W20480  22.235  10.320  14.941
52118W        W20481  40.895  16.230   2.707
52119W        W20482  37.474  15.631  10.601
52120W        W20483  31.898  24.671   0.841
52121W        W20484  17.165  30.493   2.770
52122W        W20485   1.899  22.726  13.355
52123W        W20486  36.052  15.601  14.430
52124W        W20487  44.813  33.481  14.967
52125W        W20488  18.675  27.129   0.845
52126W        W20489   8.663  14.133   1.823
52127W        W20490  10.728  38.834   4.186
52128W        W20491   9.300  36.872   4.662
52129W        W20492  12.161  36.999   0.897
52130W        W20493   0.280  32.396  12.558
52131W        W20494   7.697  34.992   0.915
52132W        W20495  44.429  16.646  10.462
52133W        W20496  27.131   9.152   4.692
52134W        W20497  44.959   7.873   0.854
52135W        W20498  28.986   5.391  14.859
52136W        W20499   9.764  20.701  12.502
52137W        W20500  20.710   4.800  12.410
52138W        W20501  28.090  35.104   1.913
52139W        W20502  40.386  24.175  13.046
52140W        W20503  39.468  38.934  14.333
52141W        W20504  20.202  24.158   2.210
52142W        W20505  16.238  39.899  12.397
52143W        W20506  22.518  33.100  10.421
52144W        W20507  31.899  36.440  10.640
52145W        W20508   2.902   9.697   3.657
52146W        W20509  32.565   3.742  14.454
52147W        W20510  12.169  40.511  14.454
52148W        W20511  39.986  21.519   4.328
52149W        W20512  38.860  37.502  10.008
52150W        W20513  39.051   4.743  10.606
52151W        W20514   3.934  23.508   0.396
52152W        W20515  42.320  10.310  13.999
52153W        W20516  29.023  19.118   3.859
52154W        W20517  31.011  15.767  13.532
52155W        W20518  31.942  10.870   1.361
52156W        W20519  25.054   3.718   4.776
52157W        W20520  31.899  29.652   3.831
52158W        W20521  13.787  41.919  11.979
52159W        W20522  39.325  14.662  10.503
52160W        W20523  38.521   4.315  13.507
52161W        W20524  41.307  19.263   3.694
52162W        W20525  29.577  38.009  11.084
52163W        W20526  44.490  17.672   2.373
52164W        W20527  37.984  42.947  11.869
52165W        W20528   3.815  12.189  14.455
52166W        W20529  23.493  31.134  11.939
52167W        W20530   9.266  31.909   0.811
52168W        W20531  31.453   1.295  12.504
52169W        W20532  32.115   6.912   1.883
52170W        W20533  31.063  38.831   2.890
52171W        W20534  14.269  21.692  11.420
52172W        W20535  19.577  34.954  12.397
52173W        W20536  33.964  10.842   0.444
52174W        W20537  25.143   0.340   1.716
52175W        W20538   1.738  36.873  13.953
52176W        W20539  42.849   5.747  14.404
52177W        W20540  43.834  24.573  14.914
52178W        W20541   4.905   5.346   0.753
52179W        W20542  29.041  29.617   4.251
52180W        W20543   9.157  31.485  10.528
52181W        W20544   4.370  37.425  10.520
52182W        W20545  23.008  18.163  14.282
52183W        W20546  12.791  41.995  14.490
52184W        W20547  33.877  26.696   3.644
52185W        W20548  42.794  12.144   1.357
52186W        W20549  21.746  24.105  13.432
52187W        W20550  14.603  24.547   2.871
52188W        W20551  43.383  42.991   2.875
52189W        W20552  17.672  30.597   1.338
52190W        W20553  18.698  21.590  14.950
52191W        W20554  15.178   4.801  11.498
52192W        W20555   0.301   1.764  12.384
52193W        W20556  37.933  43.862  11.115
52194W        W20557  17.724  10.864   0.440
52195W        W20558  22.548   5.903  12.858
52196W        W20559  30.417  19.079  11.990
52197W        W20560  24.071  15.796  11.561
52198W        W20561   2.924  27.609   4.716
52199W        W20562   2.404  19.068  13.855
52200W        W20563   1.741  44.968  14.364
52201W        W20564  31.590  35.465   1.795
52202W        W20565  32.065  16.631  12.353
52203W        W20566  44.351  37.049  13.369
52204W        W20567  33.996  17.743  13.864
52205W        W20568  40.966   7.910  14.923
52206W        W20569  39.371  29.609   1.444
52207W        W20570  38.960  13.227   1.326
52208W        W20571   7.824  34.386  13.887
52209W        W20572  40.998  39.511   1.315
52210W        W20573  44.410  10.862   9.964
52211W        W20574  41.394  14.114  10.598
52212W        W20575  11.319   7.686   0.430
52213W        W20576  44.829  28.440  13.437
52214W        W20577  18.184  17.139   1.931
52215W        W20578   6.366  23.598  14.413
52216W        W20579  21.735   9.304   2.788
52217W        W20580  18.143  39.036   0.342
52218W        W20581  11.628   7.251   3.282
52219W        W20582   9.751  21.172   2.745
52220W        W20583   3.954  27.095  14.952
52221W        W20584  12.125   1.431  12.432
52222W        W20585   6.222  22.049  12.339
52223W        W20586  17.303  18.095  14.493
52224W        W20587   9.805  14.170  10.994
52225W        W20588  40.898  38.865  12.406
52226W        W20589  12.216   0.465  12.559
52227W        W20590  42.984   0.800   1.920
52228W        W20591  44.819  30.444   1.414
52229W        W20592  31.612  22.185  11.494
52230W        W20593   2.472  28.514   2.315
52231W        W20594  24.180   2.794   2.400
52232W        W20595  14.157  27.082   1.756
52233W        W20596  27.477   8.300  12.947
52234W        W20597  28.128  24.515   0.245
52235W        W20598   9.369  25.563   2.192
52236W        W20599   8.737  34.095   0.342
52237W        W20600  20.271  26.618   2.727
52238W        W20601  24.594  42.936   3.171
52239W        W20602   6.248   0.867  11.425
52240W        W20603  20.576   0.960   0.957
52241W        W20604   1.937  23.998   2.807
52242W        W20605  29.449   1.276  12.422
52243W        W20606  20.213   0.334  14.333
52244W        W20607  41.363  40.938   4.660
52245W        W20608  38.483  14.693   0.383
52246W        W20609   1.311  35.913   4.824
52247W        W20610  36.000  24.658  14.029
52248W        W20611  35.601  12.743   3.273
52249W        W20612   3.361  38.358   2.852
52250W        W20613  34.453  29.044  14.387
52251W        W20614  26.036   7.315   1.366
52252W        W20615   2.845  44.358   0.949
52253W        W20616  35.373   3.291  10.630
52254W        W20617  31.138  21.157  10.504
52255W        W20618  31.074  43.782  12.479
52256W        W20619  21.529   7.781  12.368
52257W        W20620   7.376  10.154   5.096
52258W        W20621  29.661  12.653  11.079
52259W        W20622   2.325  28.481  12.014
52260W        W20623   1.788  42.977  14.331
52261W        W20624  28.664  39.457  11.081
52262W        W20625  41.022  41.307   1.450
52263W        W20626   1.961   3.871  14.880
52264W        W20627  41.299  40.414  10.554
52265W        W20628  27.990   6.207   1.245
52266W        W20629   3.369  40.826  11.000
52267W        W20630   7.293  13.709  12.359
52268W        W20631  39.970  25.140  13.431
52269W        W20632  23.032  30.147   0.900
52270W        W20633  25.581  35.877  14.930
52271W        W20634   5.892  29.948  12.898
52272W        W20635  12.854  10.229   1.771
52273W        W20636  32.589  28.631   0.294
52274W        W20637  37.894   0.770  11.866
52275W        W20638  33.999  42.956   1.852
52276W        W20639  33.132  13.705  10.503
52277W        W20640  22.010   7.254  12.971
52278W        W20641  40.310   5.744  13.307
52279W        W20642   7.332  15.759  13.927
52280W        W20643  26.141  28.001  14.470
52281W        W20644  42.780  14.190   5.314
52282W        W20645  12.842  39.040   1.425
52283W        W20646  12.240   5.206   0.469
52284W        W20647  19.680  18.227   2.341
52285W        W20648  41.370  19.246   0.777
52286W        W20649  30.078  36.565  10.965
52287W        W20650  25.102   2.731   4.683
52288W        W20651  33.132  17.108   0.809
52289W        W20652  22.098   0.257   2.410
52290W        W20653  32.026   0.262  10.584
52291W        W20654   4.920  26.042  13.534
52292W        W20655   8.744  37.459  14.964
52293W        W20656  28.064  32.035   4.757
52294W        W20657  28.076  37.839  11.119
52295W        W20658  14.190  44.953   1.274
52296W        W20659   6.845   9.288  14.762
52297W        W20660  25.106   7.234  11.611
52298W        W20661   6.267   4.291   4.727
52299W        W20662  12.239  27.507   0.953
52300W        W20663  37.963  37.548   4.797
52301W        W20664  26.580  43.480  12.364
52302W        W20665   1.780  25.135  13.850
52303W        W20666  37.561  35.027  12.409
52304W        W20667   3.282  30.103   2.875
52305W        W20668  17.126   1.833   5.260
52306W        W20669  26.072  36.390   3.658
52307W        W20670  17.191  37.444  14.387
52308W        W20671  30.591  27.198   4.123
52309W        W20672   8.658  29.570   5.182
52310W        W20673  29.997  44.499  12.434
52311W        W20674  39.870  30.641   0.846
52312W        W20675  29.015  38.467   2.773
52313W        W20676  35.057  43.916   1.694
52314W        W20677   6.379  28.990   3.291
52315W        W20678  21.587  29.438   2.739
52316W        W20679   3.827  20.599  10.579
52317W        W20680  26.668   9.832  11.906
52318W        W20681   2.810  38.339  12.541
52319W        W20682  23.134  43.386   3.692
52320W        W20683  24.614  43.821  10.488
52321W        W20684  44.976  21.046  10.969
52322W        W20685   8.689  13.632  11.595
52323W        W20686  16.290  31.006   2.321
52324W        W20687  29.156  21.183  11.881
52325W        W20688  22.224  41.531   0.279
52326W        W20689  28.091  36.554  14.430
52327W        W20690  37.934  17.800   1.934
52328W        W20691  43.514  36.563  13.537
52329W        W20692  14.592   3.330   9.656
52330W        W20693  28.021  30.030   1.751
52331W        W20694  43.396  27.993   9.974
52332W        W20695  10.245   3.301  11.406
52333W        W20696   0.309   0.368  13.812
52334W        W20697  41.964  27.476  13.427
52335W        W20698  40.402  33.535   2.717
52336W        W20699  18.777  18.056   0.300
52337W        W20700   8.655  17.261  12.462
52338W        W20701  34.971   1.965  12.536
52339W        W20702  30.642  23.638   1.252
52340W        W20703  32.499  25.145   3.825
52341W        W20704  22.678  15.286  13.365
52342W        W20705  13.111   7.238   1.441
52343W        W20706  10.237  34.898  11.403
52344W        W20707  40.401  22.015  10.430
52345W        W20708  16.168   7.680  13.407
52346W        W20709  44.885  23.666   4.771
52347W        W20710  33.086  40.406  12.498
52348W        W20711  35.505  25.112  13.451
52349W        W20712  12.830  33.073   1.775
52350W        W20713  24.216  11.314   2.876
52351W        W20714  24.021  14.137  12.431
52352W        W20715  29.550  14.773   0.788
52353W        W20716   6.240   2.459  11.023
52354W        W20717  11.152  10.694   3.640
52355W        W20718  43.357  38.395   2.851
52356W        W20719  16.702  25.552   1.380
52357W        W20720  31.538  33.572  14.841
52358W        W20721  25.090  19.215   2.336
52359W        W20722   9.742  26.653   3.321
52360W        W20723  35.474  11.248  13.847
52361W        W20724  28.047  25.078  13.415
52362W        W20725   7.823  40.818  14.832
52363W        W20726  21.214   5.798   0.429
52364W        W20727  13.177  23.676  14.806
52365W        W20728  15.248  38.070   0.375
52366W        W20729  35.912  33.575   1.807
52367W        W20730  32.434  38.824  13.817
52368W        W20731   4.778  19.177   1.798
52369W        W20732  26.161  16.586  11.918
52370W        W20733  22.594  31.028   0.313
52371W        W20734  16.091  34.989  12.457
52372W        W20735  41.029  16.605   3.644
52373W        W20736   4.245  37.427   4.769
52374W        W20737   5.775  38.819   3.347
52375W        W20738  32.464  11.249  10.580
52376W        W20739  18.147  16.598   2.182
52377W        W20740   4.315  13.846  12.359
52378W        W20741   0.391  23.208   3.834
52379W        W20742  20.065   9.302  14.975
52380W        W20743  35.586   5.205   4.300
52381W        W20744   5.330  41.372  14.777
52382W        W20745  28.511  24.706   3.667
52383W        W20746  37.539   1.378   4.248
52384W        W20747   2.831  41.399   0.383
52385W        W20748  26.690  15.787   3.870
52386W        W20749  41.462  41.357   2.245
52387W        W20750  21.160  12.694  12.405
52388W        W20751  36.563   6.290   0.314
52389W        W20752  41.896  24.599  13.826
52390W        W20753   8.285  12.337   1.340
52391W        W20754  27.970  33.587  14.815
52392W        W20755  44.828  10.837   1.302
52393W        W20756   1.481   9.353  13.942
52394W        W20757  10.687   0.316   3.357
52395W        W20758  44.786  42.501   0.944
52396W        W20759  26.679  10.291  12.949
52397W        W20760  10.863  16.161   4.335
52398W        W20761  42.845  40.821   2.893
52399W        W20762  15.227  37.404  13.913
52400W        W20763  21.096  20.108  14.815
52401W        W20764   9.269  25.549   2.746
52402W        W20765  36.859  22.568  14.320
52403W        W20766   9.674  23.676   3.783
52404W        W20767  39.034  24.117   1.422
52405W        W20768  10.837   7.859   1.376
52406W        W20769   0.817  38.945  12.056
52407W        W20770  37.498   5.366  12.983
52408W        W20771  36.526  42.783   2.337
52409W        W20772  16.771  28.002  14.308
52410W        W20773  39.050  24.213   4.156
52411W        W20774  26.132   1.752  14.893
52412W        W20775  26.465  35.486  14.014
52413W        W20776  11.194  22.998   0.422
52414W        W20777  41.862  43.298  13.027
52415W        W20778  24.107  31.079  10.644
52416W        W20779  23.623  19.219   3.851
52417W        W20780  39.334  29.060  14.340
52418W        W20781   0.888  43.312   2.883
52419W        W20782  17.788  39.476   4.200
52420W        W20783  27.985   4.386   4.348
52421W        W20784   5.351  20.744   4.790
52422W        W20785  12.746  43.462  13.875
52423W        W20786  10.311  38.461  11.945
52424W        W20787  20.273   1.799  11.047
52425W        W20788  12.638  26.156   0.745
52426W        W20789   6.333  24.990  13.055
52427W        W20790   3.808  38.330   0.835
52428W        W20791   2.733  34.076   1.820
52429W        W20792  25.536  15.610   1.695
52430W        W20793  34.060  29.981   3.793
52431W        W20794  43.995  37.573   0.434
52432W        W20795  39.408  40.947  12.864
52433W        W20796  27.543   4.223   4.276
52434W        W20797  19.249  14.326  12.873
52435W        W20798  41.895  41.967   2.260
52436W        W20799  26.610  12.783   1.276
52437W        W20800  18.595   2.286   1.435
52438W        W20801  43.448  34.994   1.330
52439W        W20802  16.251  21.577  12.953
52440W        W20803  39.028  43.846  13.821
52441W        W20804   8.195  42.854   2.418
52442W        W20805  31.568  38.851  14.418
52443W        W20806  21.177  32.431   4.785
52444W        W20807  38.349   7.783  10.991
52445W        W20808  38.531  11.358   0.367
52446W        W20809   9.673  33.583  14.417
52447W        W20810  17.158  41.792   0.377
52448W        W20811   2.285  29.107  13.409
52449W        W20812  38.556  33.406   2.791
52450W        W20813  39.924  17.219   2.403
52451W        W20814  23.063  10.303   0.795
52452W        W20815  15.805  21.168  14.438
52453W        W20816  17.608  43.355   3.649
52454W        W20817  28.052  17.608  10.489
52455W        W20818  40.918  34.089   0.409
52456W        W20819   5.409  30.628   2.684
52457W        W20820   1.419  16.606  14.388
52458W        W20821   0.274   5.411   1.231
52459W        W20822   5.845  16.765  13.924
52460W        W20823  24.618   0.486   3.197
52461W        W20824   1.791  42.895  10.071
52462W        W20825  39.940  26.541  14.313
52463W        W20826  38.032   5.906   1.356
52464W        W20827  21.677  36.577  13.924
52465W        W20828  24.584  29.919   2.708
52466W        W20829  22.580   4.330   1.751
52467W        W20830  41.351   0.913  10.563
52468W        W20831  32.024   6.421  14.867
52469W        W20832  14.160  37.982  11.064
52470W        W20833  12.292  39.883   1.212
52471W        W20834   3.777  11.751   1.214
52472W        W20835   5.282  29.040  11.129
52473W        W20836   7.670   8.843   4.145
52474W        W20837  31.032  35.568   3.331
52475W        W20838  28.601  30.086   2.243
52476W        W20839  32.987  29.166   9.923
52477W        W20840  15.185  31.420   2.240
52478W        W20841  31.493  12.745   3.865
52479W        W20842  17.588   3.241   2.283
52480W        W20843  10.849  40.340   1.754
52481W        W20844  16.085   0.358  14.945
52482W        W20845  38.571   2.950  14.275
52483W        W20846   0.399  39.962   4.604
52484W        W20847  12.664  26.593   2.197
52485W        W20848  26.537  15.297  12.902
52486W        W20849  12.739  10.241   2.793
52487W        W20850  24.080  17.208   0.423
52488W        W20851  41.981  15.087   3.158
52489W        W20852  27.594  29.135  13.368
52490W        W20853  22.526  35.996   0.379
52491W        W20854  40.821  30.908   3.850
52492W        W20855  19.243  34.968  12.407
52493W        W20856   7.882  19.549  11.872
52494W        W20857   0.399  25.185  10.641
52495W        W20858  20.756  30.567  10.564
52496W        W20859  44.466  42.960  14.815
52497W        W20860  44.442  14.151   0.347
52498W        W20861   4.243   6.805  13.471
52499W        W20862   0.485  21.600  12.935
52500W        W20863  11.818   8.849   4.793
52501W        W20864  17.265  14.757  11.497
52502W        W20865   7.807  42.958   1.359
52503W        W20866  10.378   1.827  13.824
52504W        W20867  28.035  10.206   5.220
52505W        W20868  15.583   1.946   2.214
52506W        W20869  24.694  33.082  13.976
52507W        W20870  19.704  36.372   4.336
52508W        W20871  39.537  12.709   4.649
52509W        W20872  20.688  22.025   3.253
52510W        W20873  28.008  42.790  12.566
52511W        W20874  42.506   0.494  13.519
52512W        W20875  12.667  17.291  14.807
52513W        W20876  35.471   8.744   2.380
52514W        W20877  27.142   1.255  12.983
52515W        W20878  25.086   5.743  13.352
52516W        W20879  10.229  37.418   3.307
52517W        W20880  28.936  14.173  13.954
52518W        W20881   9.833  31.560   0.262
52519W        W20882   5.421  42.367  13.952
52520W        W20883  37.002  18.709  13.316
52521W        W20884  24.987  36.566  13.002
52522W        W20885  40.535  38.357  13.407
52523W        W20886  41.497   7.398  13.444
52524W        W20887  25.055  28.441   4.327
52525W        W20888  35.104  25.039   3.198
52526W        W20889   7.265  39.983  14.444
52527W        W20890  17.634  40.494   4.173
52528W        W20891   1.972  15.177   0.344
52529W        W20892  24.593  43.418   0.247
52530W        W20893  11.204  28.982   1.913
52531W        W20894  27.999  33.405   0.412
52532W        W20895  34.063  19.089   2.822
52533W        W20896   1.743  25.978  12.422
52534W        W20897  15.125  25.042  11.443
52535W        W20898  37.071  29.598   1.413
52536W        W20899   4.767   6.776  11.119
52537W        W20900  15.093  27.468  13.847
52538W        W20901  10.840   7.766  12.079
52539W        W20902  33.400  28.103  10.060
52540W        W20903  25.096  17.701  13.824
52541W        W20904   1.355  36.072   2.292
52542W        W20905  44.463  15.679  13.318
52543W        W20906  18.273  13.277  14.450
52544W        W20907   8.211  23.112  12.885
52545W        W20908  44.877  20.053   4.818
52546W        W20909  16.644   6.681  10.907
52547W        W20910   7.254  42.899  11.001
52548W        W20911   2.943  13.790  10.955
52549W        W20912  27.964  32.591  10.593
52550W        W20913  39.935   9.378   1.843
52551W        W20914  33.569   8.695  13.032
52552W        W20915   5.891  29.081   0.347
52553W        W20916  14.260   1.332   3.315
52554W        W20917  41.032  37.026  12.007
52555W        W20918  30.489  26.648   4.630
52556W        W20919   7.737  13.224  10.528
52557W        W20920   5.824  12.706   2.400
52558W        W20921  30.136  20.272   2.670
52559W        W20922  26.564  13.175  10.140
52560W        W20923  32.906  15.133  12.342
52561W        W20924  18.652  39.914  12.855
52562W        W20925  15.656  38.452   3.338
52563W        W20926  14.333   8.716   5.308
52564W        W20927  15.169   1.248   3.663
52565W        W20928   5.366  29.126  12.431
52566W        W20929  43.441   5.204  11.585
52567W        W20930   7.229   5.384  11.866
52568W        W20931  27.505  34.991   3.765
52569W        W20932   6.426  15.127   0.748
52570W        W20933   6.286   3.353   2.776
52571W        W20934   7.760  34.009  14.947
52572W        W20935  10.164  28.669   2.835
52573W        W20936  25.686  16.270   4.158
52574W        W20937   9.265  22.153  10.582
52575W        W20938   3.807  40.428  13.316
52576W        W20939  37.925   7.832  12.852
52577W        W20940  15.288  38.566   3.211
52578W        W20941  31.467  24.712   1.736
52579W        W20942  40.030  10.730   5.686
52580W        W20943  39.536   7.243  13.354
52581W        W20944  22.718  40.312  13.008
52582W        W20945  25.586  15.652   0.752
52583W        W20946  38.913   7.898  14.424
52584W        W20947  15.214  10.666  14.360
52585W        W20948  11.689   8.365  12.939
52586W        W20949  43.817  19.060   4.763
52587W        W20950  13.815  12.791   3.821
52588W        W20951   6.336  15.298   4.164
52589W        W20952  31.427   5.294   1.887
52590W        W20953  33.452  39.535  10.018
52591W        W20954  38.026  15.743   1.269
52592W        W20955  24.701   7.849   4.254
52593W        W20956   6.423  34.039   2.417
52594W        W20957   9.294  13.319   3.835
52595W        W20958  30.545  20.737  14.934
52596W        W20959  13.229  44.899   1.225
52597W        W20960  17.659   4.370   1.448
52598W        W20961  42.817  10.300   1.794
52599W        W20962   5.426  36.528   4.240
52600W        W20963  18.194  10.236  11.008
52601W        W20964  32.610  20.159   2.855
52602W        W20965  17.226  41.861   1.366
52603W        W20966  23.646  36.458  11.548
52604W        W20967   2.857  12.755  11.884
52605W        W20968  14.264  13.757   3.815
52606W        W20969  17.162   4.242  13.024
52607W        W20970  37.499   4.928  12.040
52608W        W20971   1.926  24.603  14.923
52609W        W20972  32.588  17.654  14.483
52610W        W20973   4.782  16.774  10.485
52611W        W20974  22.077  25.639   1.712
52612W        W20975  34.918  13.154  14.030
52613W        W20976  44.906  19.574   0.809
52614W        W20977  19.207  36.058   3.817
52615W        W20978  16.072  25.679   2.901
52616W        W20979  16.610  26.965   2.831
52617W        W20980  27.632  16.261   9.616
52618W        W20981  41.034   7.170   0.349
52619W        W20982  19.123  23.573  10.929
52620W        W20983   1.860   8.188   2.763
52621W        W20984   3.361   9.224   4.126
52622W        W20985  27.190  39.910  11.089
52623W        W20986  30.567  32.425   2.714
52624W        W20987  43.864  31.058   2.889
52625W        W20988  28.007   6.414   5.126
52626W        W20989  40.316  25.499   4.721
52627W        W20990   3.279   0.963  10.000
52628W        W20991  37.524  11.371  10.118
52629W        W20992  19.099   2.307   1.872
52630W        W20993  11.742  36.588   0.363
52631W        W20994  18.673  26.066   0.916
52632W        W20995  24.227   6.264   2.853
52633W        W20996  12.683   9.384   3.162
52634W        W20997   3.332   3.783  10.959
52635W        W20998   4.748   7.254   0.431
52636W        W20999   2.382  44.450   0.447
52637W        W21000  12.144  17.642   1.336
52638W        W21001   7.815  38.369   1.220
52639W        W21002   1.734   9.335   1.450
52640W        W21003  35.978  32.956  13.474
52641W        W21004  21.033  30.644  12.967
52642W        W21005  34.061  43.985   2.722
52643W        W21006   1.895  19.219  11.010
52644W        W21007   8.221  15.762   3.649
52645W        W21008  24.167  34.523  11.395
52646W        W21009   3.831   7.394  13.477
52647W        W21010  13.785  35.885   1.296
52648W        W21011   4.341  33.881  14.877
52649W        W21012  41.793  28.088  11.498
52650W        W21013  44.485  37.566  12.976
52651W        W21014  14.111  30.953  14.948
52652W        W21015   5.771  28.614   3.777
52653W        W21016  40.832  37.335  14.789
52654W        W21017  39.374  39.412   4.726
52655W        W21018   4.825  27.540   1.792
52656W        W21019  16.106   8.828  10.530
52657W        W21020  16.270  15.778   1.896
52658W        W21021  40.501   3.951   2.240
52659W        W21022  14.815   6.715  13.336
52660W        W21023  30.063  17.186  13.369
52661W        W21024  15.681  31.032  12.518
52662W        W21025  32.594  21.029  12.489
52663W        W21026  18.581  32.106  11.591
52664W        W21027  26.008  24.512  13.513
52665W        W21028  19.659  18.291   4.806
52666W        W21029  32.568  13.655  14.352
52667W        W21030  25.537  42.921   1.413
52668W        W21031  19.573  40.925   3.243
52669W        W21032  32.130   6.866   3.859
52670W        W21033  39.546  20.560   2.690
52671W        W21034  10.784  16.637   2.308
52672W        W21035  25.675   2.336   0.267
52673W        W21036  44.405  18.055   3.808
52674W        W21037  43.863  15.129  13.835
52675W        W21038  14.696  38.980  13.358
52676W        W21039   5.784  40.902  13.435
52677W        W21040  39.361  19.104  11.467
52678W        W21041  30.132  18.262  14.398
52679W        W21042  31.044  12.707  12.926
52680W        W21043  22.665  36.978   3.260
52681W        W21044   7.250  33.409   2.407
52682W        W21045  42.881  40.934   3.659
52683W        W21046  41.440  29.426  14.827
52684W        W21047  42.520  12.634  13.969
52685W        W21048  22.132  43.336   1.847
52686W        W21049  34.615  11.806  14.319
52687W        W21050  26.120  16.773   3.267
52688W        W21051   6.411  14.692  13.897
52689W        W21052   3.714   4.354  14.378
52690W        W21053  39.929   7.284  14.896
52691W        W21054  12.724  12.787  13.870
52692W        W21055  18.107   4.712   2.691
52693W        W21056  10.283  20.634  12.852
52694W        W21057  33.446  39.844  10.540
52695W        W21058  15.724  21.054   2.286
52696W        W21059  10.787   9.801  12.945
52697W        W21060  28.545   2.861  11.494
52698W        W21061  15.302  17.060  14.850
52699W        W21062  44.819   7.809  14.477
52700W        W21063  41.941  12.639   1.706
52701W        W21064  27.471  31.499  10.456
52702W        W21065  34.959  31.911  10.071
52703W        W21066  11.867  34.535  13.044
52704W        W21067   2.384  11.325   1.240
52705W        W21068   1.793  43.272   0.820
52706W        W21069  24.553  17.583  13.335
52707W        W21070  10.320  35.565   0.304
52708W        W21071  15.751  40.477   2.818
52709W        W21072  15.593   9.766  11.899
52710W        W21073  36.876  44.903  12.958
52711W        W21074  30.058  35.889   2.767
52712W        W21075  42.815   7.882  11.057
52713W        W21076   7.213  22.019   3.384
52714W        W21077  20.252   6.315  14.421
52715W        W21078  18.246  27.453  12.904
52716W        W21079  14.798   1.282   1.257
52717W        W21080  28.095  33.576  12.050
52718W        W21081  33.977   2.919   3.163
52719W        W21082   3.309   3.293   4.154
52720W        W21083  14.594   8.804   3.869
52721W        W21084  10.742   8.364   0.421
52722W        W21085   2.815  16.624   0.443
52723W        W21086   4.765  27.189  14.004
52724W        W21087   0.916  40.391  13.829
52725W        W21088  34.014  28.939  11.421
52726W        W21089  23.020  39.399   3.697
52727W        W21090  10.648  18.249   4.126
52728W        W21091  42.783  36.023   3.705
52729W        W21092  28.143  32.958   2.696
52730W        W21093  22.052   3.793  14.031
52731W        W21094   6.701  36.491   2.206
52732W        W21095  24.129   8.168  12.941
52733W        W21096  24.188   6.778   0.267
52734W        W21097   6.346  42.285   2.358
52735W        W21098   7.328   2.344  12.494
52736W        W21099  23.066  31.064  13.921
52737W        W21100  13.749   8.259  12.447
52738W        W21101   0.839  26.462  12.008
52739W        W21102  34.595   2.437  11.999
52740W        W21103  18.082  40.817  12.355
52741W        W21104  39.872  34.603   1.764
52742W        W21105  24.981   0.939   1.856
52743W        W21106  40.930  14.133   0.734
52744W        W21107  18.192  10.801  12.874
52745W        W21108  26.474  18.290   4.313
52746W        W21109   5.747  38.850  11.895
52747W        W21110  22.674  23.657   3.240
52748W        W21111  15.647  43.848   0.948
52749W        W21112  26.679  13.757   3.733
52750W        W21113  42.994  24.001  11.905
52751W        W21114  41.933  16.621   4.695
52752W        W21115  37.347   1.785   9.968
52753W        W21116  12.156  24.587  10.447
52754W        W21117  25.081  15.151  11.398
52755W        W21118  18.743  17.301  10.016
52756W        W21119  32.397  42.902  11.427
52757W        W21120  41.939  36.957   1.762
52758W        W21121  31.071   6.193   2.668
52759W        W21122  20.536  42.854   0.773
52760W        W21123  24.534  34.614  11.543
52761W        W21124   1.335  16.272  11.483
52762W        W21125  38.974  39.899   1.897
52763W        W21126  31.424  32.467  14.947
52764W        W21127  31.112  38.564   2.261
52765W        W21128   9.747   9.887   0.242
52766W        W21129  20.766  24.053  12.860
52767W        W21130  33.890  24.482  10.575
52768W        W21131   1.377  25.644  12.345
52769W        W21132  10.195  20.234   4.175
52770W        W21133  42.844  26.496  10.920
52771W        W21134  19.050  15.768  10.968
52772W        W21135  26.465   5.253   4.608
52773W        W21136  43.295  37.865   4.785
52774W        W21137  12.195   4.393   0.772
52775W        W21138  20.703   2.939   4.723
52776W        W21139  42.984  18.196   0.459
52777W        W21140  29.568  40.930   2.419
52778W        W21141   6.374  17.762  14.333
52779W        W21142  14.774  18.614  14.970
52780W        W21143   1.808  18.201  10.433
52781W        W21144  20.033  22.010   0.962
52782W        W21145  18.723  30.987   4.121
52783W        W21146  39.813  17.072   0.407
52784W        W21147  44.492  26.049  13.522
52785W        W21148  25.613  43.944   0.796
52786W        W21149  18.611   4.394  10.532
52787W        W21150  14.151  28.957  10.988
52788W        W21151   5.413   0.359   5.650
52789W        W21152  12.721  34.930   0.859
52790W        W21153  40.391  14.336   0.261
52791W        W21154  15.581  41.993  11.606
52792W        W21155  38.971  14.169  13.981
52793W        W21156  23.062  11.822   0.424
52794W        W21157  39.368  24.669   0.333
52795W        W21158   5.763  16.685   3.298
52796W        W21159  24.092  32.419   4.221
52797W        W21160  22.631  12.799  14.509
52798W        W21161   3.231   5.325  12.498
52799W        W21162  24.108  23.615   3.869
52800W        W21163  42.780  24.161  12.567
52801W        W21164  20.075   6.371  14.989
52802W        W21165  14.274   9.803   1.323
52803W        W21166  33.033  27.061   3.219
52804W        W21167  21.218  42.356  14.879
52805W        W21168  44.341   8.257   3.313
52806W        W21169  11.675  44.258  10.581
52807W        W21170  33.509  39.494   3.825
52808W        W21171   1.383  26.061  14.802
52809W        W21172   0.811  16.669  12.515
52810W        W21173  31.624  35.055   2.697
52811W        W21174   0.414  31.608  10.999
52812W        W21175  43.899  12.799  10.557
52813W        W21176   7.758  25.090  10.022
52814W        W21177  29.944  27.545  14.852
52815W        W21178  33.076   0.841  13.947
52816W        W21179  42.970  20.074   0.749
52817W        W21180  32.094  31.525  10.990
52818W        W21181  19.283  12.270  14.342
52819W        W21182  14.234   9.371  13.320
52820W        W21183  14.778   4.447  12.516
52821W        W21184  34.488  29.648  11.055
52822W        W21185  28.966  34.400  13.529
52823W        W21186  30.517  21.590   0.352
52824W        W21187   6.892  30.652   2.772
52825W        W21188  14.778   4.275   2.234
52826W        W21189  44.000  41.036   4.246
52827W        W21190   8.714  34.069  10.429
52828W        W21191   3.354   4.897   2.894
52829W        W21192  18.236  23.055  11.450
52830W        W21193  12.218  41.382   2.280
52831W        W21194  42.009  42.379   2.188
52832W        W21195  26.692  11.300  11.927
52833W        W21196  22.539  22.546   0.900
52834W        W21197   0.430  29.964   0.341
52835W        W21198  16.187  14.724  11.057
52836W        W21199  37.429  15.163  12.366
52837W        W21200  30.102  15.745  14.471
52838W        W21201   7.803   6.746   1.697
52839W        W21202  28.590  26.010  13.524
52840W        W21203   5.778   1.746   1.803
52841W        W21204  11.341  23.633   4.151
52842W        W21205  21.145  14.123   2.190
52843W        W21206  39.905  44.304  14.986
52844W        W21207   5.854  33.042   0.804
52845W        W21208  29.457  35.432  12.022
52846W        W21209  37.942   9.669   4.835
52847W        W21210  41.984  32.606   0.741
52848W        W21211  27.539  26.691  13.882
52849W        W21212  19.752  33.383  14.315
52850W        W21213   8.272  34.503   1.891
52851W        W21214  35.046  30.931  10.992
52852W        W21215  28.162  25.210   4.629
52853W        W21216  22.123  26.129  13.933
52854W        W21217  26.193  28.583   3.682
52855W        W21218  38.364  41.905  13.419
52856W        W21219  15.229  39.523  12.417
52857W        W21220   5.919   7.262   1.447
52858W        W21221  42.991  38.017   0.347
52859W        W21222  14.655  27.167   4.198
52860W        W21223  41.473  36.052   0.789
52861W        W21224   1.848  24.214  13.013
52862W        W21225  31.409  24.512   2.670
52863W        W21226  21.724  43.508  13.918
52864W        W21227  38.473  24.026   1.874
52865W        W21228   9.260  43.515   2.330
52866W        W21229  21.550  12.743  13.390
52867W        W21230  17.127  29.130   5.085
52868W        W21231  10.286   5.353   3.684
52869W        W21232  11.695  19.755  13.796
52870W        W21233  13.741  43.982   3.834
52871W        W21234  29.633  11.233   3.678
52872W        W21235  16.671  28.524   0.248
52873W        W21236   6.728  12.328   3.148
52874W        W21237  33.554  12.736  11.590
52875W        W21238  36.453  42.433   1.868
52876W        W21239  20.543  29.482  12.540
52877W        W21240  39.878   8.680  11.565
52878W        W21241  23.996  15.291   3.778
52879W        W21242  31.113   1.874   4.238
52880W        W21243  11.685   5.734   2.214
52881W        W21244  14.697  33.521   5.252
52882W        W21245  29.078  19.221   1.772
52883W        W21246  22.646  14.223   3.330
52884W        W21247  32.914  35.976  12.501
52885W        W21248  26.642   9.864  13.475
52886W        W21249  39.461  29.611  13.953
52887W        W21250  18.583   8.864   4.782
52888W        W21251   5.879  31.027   0.908
52889W        W21252   9.161  27.618  14.414
52890W        W21253  29.474   9.365   3.708
52891W        W21254  23.672  29.019   0.275
52892W        W21255  24.607  27.590  10.954
52893W        W21256  16.214  13.106  14.942
52894W        W21257  21.255  32.097   3.709
52895W        W21258  30.982  21.243   3.685
52896W        W21259   2.780  33.556   3.325
52897W        W21260   0.788  34.005   4.123
52898W        W21261  19.643  33.450  13.460
52899W        W21262  43.810  32.470   4.712
52900W        W21263  15.204  29.960  13.539
52901W        W21264   7.759  38.508  13.999
52902W        W21265  22.591  28.040  13.985
52903W        W21266  20.116   3.403  12.951
52904W        W21267  29.475  44.505   4.293
52905W        W21268  24.567  14.636   0.847
52906W        W21269  24.620  37.854   2.881
52907W        W21270  30.101  21.022   3.632
52908W        W21271  36.533  26.545  10.986
52909W        W21272  13.812   1.364   1.371
52910W        W21273  24.066  44.967   0.358
52911W        W21274  19.587   9.200   0.363
52912W        W21275   4.388  39.876  11.946
52913W        W21276  29.115  15.652   5.701
52914W        W21277  15.620  17.612   2.309
52915W        W21278   2.924  34.091  10.538
52916W        W21279  38.540   9.857  10.079
52917W        W21280  33.011  39.059   3.865
52918W        W21281   8.821  39.943  10.903
52919W        W21282   5.789   6.884  14.404
52920W        W21283  12.155   9.387  14.488
52921W        W21284  11.211   8.357   1.904
52922W        W21285  22.050  30.654  12.924
52923W        W21286   6.746   1.793  14.889
52924W        W21287  35.536  30.934   2.700
52925W        W21288  25.671  43.331   4.641
52926W        W21289  35.383   4.209   4.599
52927W        W21290  26.456  20.600   0.934
52928W        W21291  33.939   9.802  10.456
52929W        W21292  21.690   3.298   2.313
52930W        W21293   9.782  36.531  12.531
52931W        W21294  28.044  28.454  11.542
52932W        W21295  29.618  19.040  13.026
52933W        W21296  44.332  39.525  10.633
52934W        W21297  21.218  20.572   2.788
52935W        W21298  42.810  23.498   3.288
52936W        W21299   5.300   1.359  10.488
52937W        W21300  32.526  39.402  11.068
52938W        W21301  31.421  24.526  14.896
52939W        W21302  21.123  38.547   3.774
52940W        W21303  27.643   1.359   4.765
52941W        W21304  36.453  38.000   0.357
52942W        W21305  22.703   4.227  14.836
52943W        W21306  34.451  23.509   2.896
52944W        W21307  44.484   4.823  14.899
52945W        W21308  14.769   6.814   9.602
52946W        W21309  36.373  17.187  11.089
52947W        W21310  44.419  24.031   2.291
52948W        W21311  15.200  37.067  12.474
52949W        W21312  38.947  25.488  10.910
52950W        W21313  15.589  11.652  14.311
52951W        W21314  17.727  12.789  11.407
52952W        W21315  36.944  29.653  13.008
52953W        W21316  29.527  32.485   2.762
52954W        W21317  17.620  31.930  12.501
52955W        W21318  31.972  30.024  10.503
52956W        W21319   6.823   8.826  11.525
52957W        W21320   5.915  38.374   2.713
52958W        W21321  34.872  33.526   1.403
52959W        W21322   0.361  44.837  11.488
52960W        W21323  22.554   1.337   1.372
52961W        W21324  33.398  29.660   0.371
52962W        W21325  13.730  40.878  14.858
52963W        W21326  43.884  24.038   4.820
52964W        W21327  34.099   3.310   4.607
52965W        W21328  39.956   2.854   4.316
52966W        W21329  40.039  22.099  10.919
52967W        W21330  25.101  31.430   2.288
52968W        W21331  41.509  31.945  14.996
52969W        W21332  35.922  28.589   4.319
52970W        W21333   9.170  41.009   3.715
52971W        W21334  34.607  37.354   3.203
52972W        W21335  19.154  13.233  14.832
52973W        W21336  20.634  23.092  14.946
52974W        W21337  25.180  29.498  11.400
52975W        W21338  19.740   1.824   2.398
52976W        W21339  12.298  22.582  12.460
52977W        W21340   0.787   7.227   0.478
52978W        W21341  43.769   3.401   2.234
52979W        W21342   6.218  39.061   4.807
52980W        W21343  28.658  22.513   3.813
52981W        W21344  27.468  42.496   3.774
52982W        W21345   4.235  21.531  10.611
52983W        W21346  25.614  10.314   3.692
52984W        W21347  36.424   4.231   2.185
52985W        W21348   3.833   7.291  11.901
52986W        W21349  13.671   6.694   3.635
52987W        W21350  26.558  33.980   2.253
52988W        W21351  32.403  38.329  12.849
52989W        W21352  24.529  26.507  13.822
52990W        W21353   6.834  15.659   9.921
52991W        W21354  40.985  17.643  14.914
52992W        W21355  10.151  43.859   2.769
52993W        W21356   2.392  18.734  12.054
52994W        W21357  26.039  14.656   3.157
52995W        W21358  19.652  42.474   1.879
52996W        W21359   2.427   9.216  12.563
52997W        W21360  11.798   8.657   4.227
52998W        W21361  25.022  16.650   2.362
52999W        W21362  15.304  31.137  12.369
53000W        W21363   8.201  41.988  12.440
53001W        W21364   3.934  12.714  12.825
53002W        W21365  40.837  24.596   3.711
53003W        W21366  34.992  33.888   0.273
53004W        W21367  15.738   1.453  12.899
53005W        W21368  41.034   4.720  13.846
53006W        W21369  43.849   0.357  13.450
53007W        W21370   6.287  18.141   3.299
53008W        W21371  22.696  21.587  11.545
53009W        W21372  34.459  25.602  10.575
53010W        W21373  36.470  10.640  10.509
53011W        W21374  39.994   1.776  11.586
53012W        W21375   2.322  28.516   0.292
53013W        W21376  19.117  38.841   3.789
53014W        W21377  24.103  38.450  14.996
53015W        W21378  31.586  39.022  12.406
53016W        W21379  35.598   5.883   2.871
53017W        W21380  11.694  41.374  11.605
53018W        W21381  34.944  32.420   2.287
53019W        W21382   4.859  44.991  14.506
53020W        W21383  40.922   2.249  14.362
53021W        W21384  15.648  15.209   1.363
53022W        W21385  32.479   2.392  10.597
53023W        W21386  14.807  43.863   0.739
53024W        W21387  10.336  25.537   1.363
53025W        W21388  11.142  24.708   4.761
53026W        W21389  20.713  36.952   1.839
53027W        W21390  19.543   7.374  13.478
53028W        W21391  43.436  17.187   0.912
53029W        W21392  38.885  10.703   5.655
53030W        W21393  33.059  25.617   2.309
53031W        W21394   9.670  37.023  10.499
53032W        W21395  20.607  26.583   2.901
53033W        W21396  33.581  42.982   2.700
53034W        W21397  43.803  21.691   3.275
53035W        W21398  22.162  37.461   2.845
53036W        W21399   2.819  44.955  12.369
53037W        W21400  31.132  44.798   5.094
53038W        W21401  42.989  43.846  14.452
53039W        W21402  43.328  12.623  14.858
53040W        W21403   6.696  18.740  10.902
53041W        W21404  42.526   7.369   3.205
53042W        W21405  44.842   5.348   3.292
53043W        W21406  33.124  13.833   0.259
53044W        W21407  35.604  23.198  14.970
53045W        W21408   1.955  31.478   4.792
53046W        W21409   5.862   7.268  13.422
53047W        W21410  23.008  16.660  12.510
53048W        W21411  12.612  41.035  14.884
53049W        W21412  22.600  13.733  10.916
53050W        W21413  29.030  25.040   2.272
53051W        W21414  44.011  35.491  10.474
53052W        W21415  37.843  23.146  11.599
53053W        W21416  36.571  28.472   2.839
53054W        W21417   5.268  42.373   3.681
53055W        W21418  26.192  17.604   0.746
53056W        W21419  33.402  14.808   1.771
53057W        W21420  18.171   4.772   0.338
53058W        W21421  15.092  20.597   4.341
53059W        W21422  28.163  34.589   0.328
53060W        W21423  11.717  40.305   3.633
53061W        W21424  41.300  30.151  10.487
53062W        W21425   9.782  31.904  13.344
53063W        W21426  18.297  32.427   1.317
53064W        W21427  20.114  16.629  12.492
53065W        W21428  25.097   3.304   1.737
53066W        W21429  18.702  12.629   3.773
53067W        W21430  31.003   7.359   3.659
53068W        W21431  43.352   7.340   0.413
53069W        W21432  40.828  30.122   1.376
53070W        W21433  37.853   9.717   2.684
53071W        W21434  25.970  39.969   1.279
53072W        W21435  39.830   2.284   1.448
53073W        W21436   8.706  35.053   1.707
53074W        W21437  43.971   5.305  11.435
53075W        W21438  10.737  32.477   4.608
53076W        W21439   5.380  21.200   3.272
53077W        W21440   4.715  36.969   0.861
53078W        W21441   1.847  14.680  10.443
53079W        W21442  41.836   1.783  13.033
53080W        W21443   9.321   4.259  11.947
53081W        W21444  14.191   3.926   4.816
53082W        W21445  40.975  32.447   4.155
53083W        W21446  39.967  44.840   4.282
53084W        W21447  43.308  17.709  13.802
53085W        W21448   8.241  34.491  14.498
53086W        W21449  23.570  27.074  14.457
53087W        W21450   0.345  25.706  14.001
53088W        W21451  15.094   8.832  12.998
53089W        W21452  21.039  12.255   3.858
53090W        W21453  42.319  42.873  11.454
53091W        W21454  39.550  35.561  14.807
53092W        W21455   9.370   7.311  11.971
53093W        W21456  41.890  41.040   2.300
53094W        W21457  31.052  26.192   3.387
53095W        W21458   2.798  24.560   3.642
53096W        W21459  28.087  43.338  12.056
53097W        W21460  43.878   5.333  14.850
53098W        W21461  32.949  43.869  12.826
53099W        W21462  30.109  14.220   2.246
53100W        W21463   4.410  15.731   4.291
53101W        W21464  30.134   5.249   2.299
53102W        W21465  19.255   9.814  14.779
53103W        W21466  22.683  39.508  11.428
53104W        W21467  18.271  35.067   2.662
53105W        W21468  35.493  15.224  10.620
53106W        W21469  16.304  40.889   1.868
53107W        W21470   1.848  43.460   1.216
53108W        W21471  30.939  37.343  13.936
53109W        W21472  12.307  43.451  11.508
53110W        W21473  34.035  28.436  13.476
53111W        W21474  17.136  28.042   4.183
53112W        W21475  11.704  44.878   3.847
53113W        W21476  44.928   3.951   0.251
53114W        W21477  33.940  20.672  14.003
53115W        W21478  30.970  27.062   0.869
53116W        W21479  33.923  28.930  13.937
53117W        W21480   1.467  44.864   4.280
53118W        W21481  16.162  41.942   0.753
53119W        W21482  25.015   5.854  12.008
53120W        W21483  26.988  22.087  10.977
53121W        W21484  17.799  25.491  13.828
53122W        W21485  42.497   8.854  11.077
53123W        W21486  43.412   9.364   2.221
53124W        W21487  12.287  27.689  13.372
53125W        W21488   8.758  12.347   1.273
53126W        W21489   4.385  38.977  11.939
53127W        W21490   4.230  30.559   0.413
53128W        W21491  26.595  25.559   4.749
53129W        W21492   2.818  15.101  13.923
53130W        W21493   5.422  34.067  11.546
53131W        W21494  28.558   9.692  10.418
53132W        W21495   2.472   6.721   4.141
53133W        W21496  27.659   0.745   4.288
53134W        W21497  12.722   2.436  13.447
53135W        W21498  32.928   4.830   2.378
53136W        W21499   4.423  28.454  12.362
53137W        W21500  15.602  40.462  12.913
53138W        W21501  38.984  10.145   2.376
53139W        W21502   5.343  21.758   0.755
53140W        W21503  33.906  16.738  10.916
53141W        W21504   8.251  19.226  12.434
53142W        W21505  31.540  33.075  14.817
53143W        W21506   7.783  44.373   2.746
53144W        W21507  37.580   6.240  12.069
53145W        W21508   1.885  35.364  12.943
53146W        W21509  17.248  21.176  13.972
53147W        W21510  42.445   6.897   2.376
53148W        W21511   4.371  39.457  11.418
53149W        W21512  10.740  35.505   0.828
53150W        W21513  21.235  42.358  13.034
53151W        W21514   5.237  11.744  11.119
53152W        W21515  30.623  14.120  13.455
53153W        W21516   4.706   8.276  12.088
53154W        W21517  33.883  12.675   0.796
53155W        W21518  40.048  28.962  10.925
53156W        W21519  11.328  39.538   4.145
53157W        W21520   8.741  33.969   4.643
53158W        W21521  22.165  22.062  14.822
53159W        W21522  17.103  27.979  14.947
53160W        W21523  28.099  35.496  14.894
53161W        W21524   1.452   1.249  11.941
53162W        W21525  39.901  19.082   4.197
53163W        W21526  44.762  18.290   1.829
53164W        W21527  39.451  43.419   2.768
53165W        W21528  38.456  18.287   0.906
53166W        W21529  12.715  27.082  11.975
53167W        W21530  33.509  29.059   1.441
53168W        W21531  14.785  15.151   2.293
53169W        W21532  24.036  44.328   5.104
53170W        W21533  37.047  30.572  12.348
53171W        W21534  10.863  26.652   0.291
53172W        W21535   6.260  28.452   3.270
53173W        W21536  10.868  39.901  10.901
53174W        W21537  14.177  33.455  13.465
53175W        W21538  20.106   7.714  12.388
53176W        W21539  37.896  33.065   1.707
53177W        W21540   4.710   9.746   4.281
53178W        W21541  27.158   0.372   0.965
53179W        W21542  36.497  26.533   1.353
53180W        W21543  10.138  25.089  12.964
53181W        W21544  34.406  32.446   4.307
53182W        W21545  25.679  28.019  10.088
53183W        W21546  10.200  26.695   5.121
53184W        W21547   0.779  19.159   1.329
53185W        W21548  12.812  42.367  11.077
53186W        W21549  15.649  14.291  12.929
53187W        W21550  10.852  26.149  14.286
53188W        W21551   5.768   7.908   4.698
53189W        W21552   3.799  39.967  13.429
53190W        W21553   8.809  25.488   2.807
53191W        W21554  11.676   7.201   3.674
53192W        W21555  23.732   3.895   3.841
53193W        W21556  13.281   8.169  13.884
53194W        W21557   5.872  35.912  11.924
53195W        W21558   6.917   8.829   4.820
53196W        W21559   5.213  31.017  12.546
53197W        W21560  43.378   5.734   2.373
53198W        W21561  29.619  32.966   2.378
53199W        W21562  32.396  35.890   2.333
53200W        W21563  44.410  21.534  11.883
53201W        W21564  26.490   7.298   3.361
53202W        W21565  27.150  14.140  10.616
53203W        W21566   5.775  39.377   0.281
53204W        W21567  13.291  42.517  13.854
53205W        W21568  19.232  19.674  11.974
53206W        W21569  38.399   7.850   4.783
53207W        W21570   2.248   6.207   4.625
53208W        W21571   0.764  40.834   1.237
53209W        W21572  10.790   2.288   2.225
53210W        W21573  36.591  38.994   0.931
53211W        W21574  27.636   9.242   2.351
53212W        W21575  30.974  13.821  12.951
53213W        W21576  33.626  44.862  14.906
53214W        W21577  11.712  32.944   1.919
53215W        W21578  37.859  33.579  13.432
53216W        W21579   2.355  33.624  13.396
53217W        W21580  16.223  15.162   5.193
53218W        W21581  19.059  14.697   2.785
53219W        W21582  30.434  14.833  14.366
53220W        W21583   4.307  20.182  10.631
53221W        W21584   2.746   3.449   2.298
53222W        W21585  15.306  25.703   3.837
53223W        W21586   0.382  27.152   2.808
53224W        W21587  35.060  43.855  13.049
53225W        W21588  44.898  28.673  14.767
53226W        W21589   1.299  33.120   4.239
53227W        W21590  36.024  20.127   1.384
53228W        W21591  16.106   7.860  12.832
53229W        W21592  15.752   3.333  13.468
53230W        W21593   1.320   4.348  13.031
53231W        W21594  27.586  23.233   2.734
53232W        W21595  34.117   2.840   2.674
53233W        W21596  37.988  42.464   4.334
53234W        W21597  19.052  34.559   0.825
53235W        W21598  21.654  36.906   0.771
53236W        W21599  41.858   8.187   4.724
53237W        W21600  14.318  35.482   0.315
53238W        W21601  35.091   5.199  12.866
53239W        W21602  25.560  33.951   3.356
53240W        W21603  27.492  26.615   1.768
53241W        W21604  40.354  25.698  13.326
53242W        W21605  31.961  18.692  11.972
53243W        W21606  16.713  44.439  13.367
53244W        W21607  34.869  33.428   0.426
53245W        W21608  36.874  39.414   2.866
53246W        W21609  32.511   0.823  11.549
53247W        W21610  14.096  29.666  12.933
53248W        W21611  23.653  33.916   2.282
53249W        W21612  19.754   4.320   3.325
53250W        W21613  11.340   1.960  14.768
53251W        W21614  42.299  18.722   4.695
53252W        W21615   8.745  12.218  12.341
53253W        W21616  29.062   7.740   0.959
53254W        W21617  10.766  34.498  12.423
53255W        W21618  27.048  22.072   4.166
53256W        W21619   9.284  33.102  14.895
53257W        W21620  32.414  14.295   3.240
53258W        W21621  11.744  35.890  13.918
53259W        W21622  41.830  20.574   4.707
53260W        W21623  10.178  43.873   3.355
53261W        W21624   0.264  27.552  10.619
53262W        W21625  35.408  14.105  13.795
53263W        W21626  36.887  30.517  11.032
53264W        W21627  41.891  12.721  12.557
53265W        W21628  43.797  27.689   2.887
53266W        W21629  18.183  43.335   3.725
53267W        W21630  30.121  35.065  14.308
53268W        W21631  19.045  14.760   0.843
53269W        W21632  38.414  33.539  14.300
53270W        W21633   8.713  30.635   0.937
53271W        W21634   7.410  21.157   2.778
53272W        W21635   0.756   1.260  11.048
53273W        W21636   6.414   1.780  13.837
53274W        W21637   4.427  13.140  13.897
53275W        W21638   8.678  35.087   2.796
53276W        W21639  36.049  15.110   4.264
53277W        W21640  14.630  14.676   2.335
53278W        W21641  30.046  42.290   3.339
53279W        W21642  33.983  10.823   1.730
53280W        W21643   9.236  10.363   1.223
53281W        W21644  30.099  32.608  12.953
53282W        W21645  25.175  11.717   4.835
53283W        W21646  25.706  12.778   3.148
53284W        W21647  42.021  13.617   0.370
53285W        W21648   5.294   8.401   2.365
53286W        W21649  27.578   1.475   3.697
53287W        W21650  42.295  39.410   1.234
53288W        W21651  28.025  15.794   0.375
53289W        W21652  23.099  32.046   3.819
53290W        W21653  18.204  16.578   3.704
53291W        W21654  32.971  20.667  14.939
53292W        W21655  27.972  17.646   0.257
53293W        W21656   2.251  28.139  14.914
53294W        W21657  12.318  11.194  12.351
53295W        W21658  31.583   0.322  13.390
53296W        W21659  43.383  24.220  13.815
53297W        W21660  26.603  12.850  14.428
53298W        W21661   9.319  37.921   1.223
53299W        W21662  25.633  13.152   2.219
53300W        W21663  25.040  36.862   2.731
53301W        W21664   8.867  37.405  13.477
53302W        W21665   2.266  15.717  11.948
53303W        W21666  23.608  19.635  14.869
53304W        W21667   8.170  39.979   4.321
53305W        W21668   0.873  14.189  14.895
53306W        W21669  24.626  39.410  10.585
53307W        W21670  21.152  39.938  14.839
53308W        W21671  27.486   1.273   0.471
53309W        W21672  25.160  31.977  13.036
53310W        W21673  43.385  11.360   0.452
53311W        W21674  21.518  39.531   0.922
53312W        W21675   4.818  21.552  10.135
53313W        W21676  23.504  19.654  13.062
53314W        W21677  27.682  35.416  14.800
53315W        W21678  28.084  16.165   3.351
53316W        W21679   0.489  25.648  11.992
53317W        W21680  31.422  23.132  12.565
53318W        W21681  37.566  39.900  14.348
53319W        W21682  23.558  17.690  11.872
53320W        W21683  37.494   9.859  10.566
53321W        W21684  17.275  17.713  10.540
53322W        W21685  28.594  44.495   0.334
53323W        W21686  33.009   5.714   4.267
53324W        W21687   9.218  14.603  12.503
53325W        W21688  37.964  38.871  13.406
53326W        W21689  30.981  19.538   5.223
53327W        W21690  14.143  36.354  11.530
53328W        W21691  14.795  12.363  10.948
53329W        W21692  15.185   8.786   1.421
53330W        W21693  26.023  19.219  14.386
53331W        W21694  41.477  42.959   0.854
53332W        W21695  26.517  28.174   2.315
53333W        W21696   5.708  14.687   3.252
53334W        W21697  32.516  28.611   2.835
53335W        W21698  24.179  24.617  13.515
53336W        W21699  28.526   6.866   3.654
53337W        W21700  24.102  22.701   1.265
53338W        W21701  38.570  21.089   0.283
53339W        W21702   8.305  24.605   1.918
53340W        W21703   9.383  41.313  14.289
53341W        W21704  27.097  16.640  13.381
53342W        W21705  32.885  10.767  11.916
53343W        W21706   3.272  36.590  13.414
53344W        W21707  25.976  43.388  13.851
53345W        W21708  38.329  21.679  11.431
53346W        W21709  43.959   3.785   3.634
53347W        W21710  11.689   3.392  10.564
53348W        W21711  40.836  19.125   1.450
53349W        W21712  31.627  44.794   9.953
53350W        W21713  41.830  41.000  11.412
53351W        W21714  17.251  28.535   0.458
53352W        W21715  10.685   2.263   2.803
53353W        W21716  13.324  29.660  14.501
53354W        W21717  23.066  12.735   1.411
53355W        W21718  26.571  14.674  12.413
53356W        W21719  17.112  41.042  13.828
53357W        W21720   3.766  24.191   5.689
53358W        W21721  35.953  30.450   1.243
53359W        W21722  23.602   4.757  10.467
53360W        W21723  37.471  11.838   0.272
53361W        W21724  20.062  40.436   4.269
53362W        W21725  10.692  33.454  14.502
53363W        W21726  40.491  28.055   2.313
53364W        W21727   2.412  13.244  12.020
53365W        W21728  15.184  27.479  14.823
53366W        W21729  42.008   7.189   2.277
53367W        W21730   9.880   3.759   0.453
53368W        W21731  22.997  11.233   3.178
53369W        W21732  22.071  39.386   0.438
53370W        W21733  16.114  44.333  12.879
53371W        W21734  16.312  30.085  10.602
53372W        W21735  35.402   3.802   1.402
53373W        W21736  14.250  18.590  12.009
53374W        W21737  15.809   7.239   2.877
53375W        W21738   5.357  14.796   2.663
53376W        W21739  10.237  44.824  14.893
53377W        W21740  25.554  37.979   1.866
53378W        W21741   1.882  31.104  13.355
53379W        W21742  25.219  21.143  13.448
53380W        W21743  38.979  37.939   0.244
53381W        W21744  16.285   2.938  14.917
53382W        W21745  28.648  44.319  14.317
53383W        W21746   0.293  16.275   4.777
53384W        W21747  27.446  41.946  12.373
53385W        W21748  19.535  39.501   4.282
53386W        W21749  23.143  33.019  11.432
53387W        W21750  32.504  34.945  12.385
53388W        W21751  24.683  29.513   0.362
53389W        W21752  10.338  39.008  14.931
53390W        W21753  12.670  15.213  11.004
53391W        W21754  37.086  18.171  12.447
53392W        W21755  22.592   0.343  10.463
53393W        W21756  31.527  25.106   1.871
53394W        W21757   1.909   2.385   5.279
53395W        W21758   1.418  23.211  12.449
53396W        W21759  30.656   7.384  13.925
53397W        W21760  26.653  37.847  11.395
53398W        W21761  34.494  19.219  14.813
53399W        W21762  35.046  40.321  10.640
53400W        W21763  41.522  37.054  11.450
53401W        W21764  12.277  41.506  12.556
53402W        W21765  23.659  17.121   4.616
53403W        W21766  24.107   1.868   4.829
53404W        W21767  18.644  44.428   9.541
53405W        W21768   9.292  10.171  14.313
53406W        W21769  13.219  26.992  12.870
53407W        W21770   7.671  36.516  14.395
53408W        W21771  15.314  43.923  12.969
53409W        W21772   4.294  41.833   4.252
53410W        W21773  37.860  21.744   2.705
53411W        W21774  14.706   7.269  13.945
53412W        W21775  33.027   1.869   5.797
53413W        W21776  30.527  37.517  12.407
53414W        W21777  16.247   1.472  12.488
53415W        W21778  39.319  28.449  14.386
53416W        W21779   4.401  38.379   2.343
53417W        W21780  32.940  17.197  10.925
53418W        W21781  29.174  22.533   2.817
53419W        W21782  11.747  17.674  12.024
53420W        W21783  29.947  15.761   1.294
53421W        W21784   1.910   8.276   4.303
53422W        W21785  44.318  22.106  12.356
53423W        W21786  31.049  27.998  10.529
53424W        W21787  11.782  23.719   3.764
53425W        W21788  20.723  17.710  10.991
53426W        W21789  15.655  32.101  13.475
53427W        W21790   9.658  43.434   2.855
53428W        W21791  25.119  32.516   3.832
53429W        W21792  28.959   7.694   4.830
53430W        W21793  35.531  37.391  13.898
53431W        W21794   2.909  27.475   2.216
53432W        W21795  36.853  34.610   4.141
53433W        W21796  39.827  11.347  12.042
53434W        W21797  42.854  31.910  12.915
53435W        W21798  16.778   9.310  13.880
53436W        W21799  35.498  23.139   0.783
53437W        W21800  21.112  15.691   2.231
53438W        W21801  34.948  14.340  14.447
53439W        W21802  23.033  35.539  13.890
53440W        W21803  23.147  13.773  11.413
53441W        W21804  23.103   0.334   1.225
53442W        W21805  24.686  37.582  12.031
53443W        W21806   0.489  26.692  11.892
53444W        W21807  13.135  29.088  10.627
53445W        W21808   1.833  41.324   0.875
53446W        W21809  21.089  38.902  14.891
53447W        W21810   7.858  23.002   3.790
53448W        W21811   6.322  22.142   4.331
53449W        W21812  15.207  28.574   1.750
53450W        W21813   7.783   8.728   0.295
53451W        W21814  31.615  39.533  11.097
53452W        W21815  41.957   3.300   1.363
53453W        W21816  23.233  34.412   4.669
53454W        W21817  41.976  28.973  12.994
53455W        W21818  33.937  30.569  11.547
53456W        W21819  43.800  18.224   0.301
53457W        W21820   9.703  41.383   2.357
53458W        W21821  43.950  13.742  12.045
53459W        W21822  34.411  39.326  13.875
53460W        W21823  22.152  22.159   3.367
53461W        W21824  12.626   2.327   3.751
53462W        W21825  31.140   0.421   9.959
53463W        W21826  27.060  32.025   0.409
53464W        W21827  40.041  36.410  14.497
53465W        W21828   6.330   3.364  11.407
53466W        W21829  17.307  13.210  11.941
53467W        W21830  22.997  20.741   0.742
53468W        W21831  40.898  36.847  14.348
53469W        W21832  28.582  18.677  11.540
53470W        W21833   1.455  11.131   3.798
53471W        W21834   2.228  44.438  13.828
53472W        W21835   1.808   1.424   0.353
53473W        W21836  37.000  21.256  13.485
53474W        W21837  19.654  40.444   3.697
53475W        W21838  11.144  37.056  11.050
53476W        W21839  16.711  36.087   3.718
53477W        W21840  44.425  33.623  14.407
53478W        W21841  23.080  27.020  14.419
53479W        W21842  15.308  23.237  13.475
53480W        W21843  20.522   4.918  12.917
53481W        W21844  41.918  15.110   2.714
53482W        W21845  43.986  27.667  13.887
53483W        W21846  11.707   5.390  10.467
53484W        W21847  27.624  43.399   1.769
53485W        W21848  38.984  14.134   0.315
53486W        W21849  39.928  17.784   1.899
53487W        W21850  37.003  11.348   1.704
53488W        W21851   5.846  24.023  12.843
53489W        W21852  35.500  37.471   5.120
53490W        W21853   3.412   7.748  13.911
53491W        W21854  22.177  20.080   4.734
53492W        W21855   3.226  28.034   2.387
53493W        W21856  18.555  26.108  10.629
53494W        W21857  23.044  42.476   0.760
53495W        W21858  33.914   4.793  11.065
53496W        W21859  20.722  29.628   0.781
53497W        W21860  31.047  11.845   0.841
53498W        W21861  27.526   6.747   2.395
53499W        W21862  36.469  30.510   2.699
53500W        W21863  37.860  18.210   0.762
53501W        W21864   1.254  13.642  12.900
53502W        W21865  16.612  41.538   0.800
53503W        W21866  26.954  21.152   2.735
53504W        W21867  22.597   0.945   2.677
53505W        W21868   2.408  27.567   4.146
53506W        W21869  38.346  24.109  11.540
53507W        W21870  14.634  39.375   0.907
53508W        W21871  24.215  23.179  13.891
53509W        W21872  26.567  41.845   3.870
53510W        W21873  24.710  42.524   3.285
53511W        W21874  17.570  38.069  13.908
53512W        W21875  14.627   4.430   3.254
53513W        W21876  29.435   5.309  14.866
53514W        W21877  30.063  17.617   4.230
53515W        W21878  26.048   3.775   0.761
53516W        W21879   2.417  14.160   1.701
53517W        W21880   8.886  26.663   9.966
53518W        W21881   3.939  16.079   1.881
53519W        W21882  29.570  36.520   3.718
53520W        W21883   6.308  26.144  13.489
53521W        W21884  38.403  41.884  10.933
53522W        W21885  42.927   4.347   1.397
53523W        W21886   4.221   1.790  12.032
53524W        W21887  13.804   6.914   5.755
53525W        W21888  37.466   5.391   2.815
53526W        W21889   1.877  39.032   3.359
53527W        W21890   3.305   8.199   4.136
53528W        W21891   6.241  39.029  14.898
53529W        W21892   8.186  36.916  12.397
53530W        W21893  25.049  24.646  13.355
53531W        W21894  15.744  42.471   3.186
53532W        W21895   2.944  41.359   2.403
53533W        W21896  37.994  25.069   2.740
53534W        W21897  42.490  15.188  11.073
53535W        W21898  42.476   1.282   3.281
53536W        W21899  13.711   7.838  11.896
53537W        W21900  21.517   3.439  11.971
53538W        W21901  39.960   8.183   2.778
53539W        W21902  13.142   9.653  11.552
53540W        W21903  22.074   3.416  12.091
53541W        W21904  11.223  19.769   2.875
53542W        W21905  36.494  14.711   1.364
53543W        W21906  34.610   0.462  12.833
53544W        W21907  37.557   3.285   3.204
53545W        W21908   9.355  40.309   0.963
53546W        W21909   1.890  34.902  13.935
53547W        W21910  37.503  28.594   2.903
53548W        W21911   9.786   6.793  13.894
53549W        W21912   3.459  28.679   1.440
53550W        W21913   7.719   1.326   4.168
53551W        W21914   5.231   6.790  13.390
53552W        W21915  11.679  42.291  12.003
53553W        W21916  18.208   2.834  13.824
53554W        W21917  21.253  17.182   1.358
53555W        W21918   9.253   2.850  12.433
53556W        W21919  35.008  28.185   3.171
53557W        W21920  31.145   3.832   3.300
53558W        W21921  30.111  15.616  12.020
53559W        W21922  43.805  13.680  12.992
53560W        W21923  11.279  11.686  14.295
53561W        W21924  39.898  23.129  13.040
53562W        W21925   9.873  34.884   3.147
53563W        W21926  26.975  17.733   1.401
53564W        W21927   7.716  39.866  14.976
53565W        W21928  21.558  28.115   2.837
53566W        W21929  24.585   6.194  10.481
53567W        W21930  43.485   1.820   4.832
53568W        W21931  36.041   8.900  12.529
53569W        W21932   7.209  36.008  10.937
53570W        W21933  34.879  28.624  14.427
53571W        W21934  28.112  41.939  11.980
53572W        W21935  42.477   6.779  11.034
53573W        W21936  15.598   5.744   5.739
53574W        W21937  42.888  33.072   0.302
53575W        W21938  22.630   2.329  10.635
53576W        W21939  28.563  14.182  12.350
53577W        W21940  13.190  10.140  13.336
53578W        W21941  32.034   5.313  13.006
53579W        W21942  24.494  19.609   5.284
53580W        W21943  10.234   0.366   4.813
53581W        W21944  28.542  32.956  11.915
53582W        W21945  26.083   6.299  12.011
53583W        W21946  20.146  31.444   1.788
53584W        W21947   2.819  32.035   4.729
53585W        W21948   7.888  18.732  10.465
53586W        W21949  18.182   1.401   3.844
53587W        W21950  33.011  23.681   2.754
53588W        W21951   6.781   1.921  12.860
53589W        W21952  42.897  15.226   2.280
53590W        W21953  31.934  18.602  11.420
53591W        W21954  20.090   6.828   4.122
53592W        W21955  14.154  26.496  13.988
53593W        W21956   8.388  20.611   3.823
53594W        W21957  37.379  31.021   4.696
53595W        W21958  14.594  43.422  12.462
53596W        W21959   8.727  25.133  12.468
53597W        W21960   6.729  29.010   1.928
53598W        W21961   2.889  32.101  12.907
53599W        W21962  16.572  37.836  12.493
53600W        W21963   8.193  36.396   1.294
53601W        W21964  42.510   0.307  11.116
53602W        W21965  25.134   3.292  14.502
53603W        W21966   0.482  34.373   0.880
53604W        W21967   1.936  18.078   2.250
53605W        W21968   1.819  30.971   3.247
53606W        W21969  26.655  25.662   3.753
53607W        W21970   2.238  14.699   3.777
53608W        W21971  31.981  20.057  10.619
53609W        W21972  17.589   0.859  11.603
53610W        W21973  13.131  10.857  11.859
53611W        W21974  10.253  28.942  10.468
53612W        W21975  15.747  35.042  11.467
53613W        W21976  17.778  41.429   0.444
53614W        W21977  10.632  42.467  11.088
53615W        W21978  37.833   7.315  14.856
53616W        W21979  18.577  41.851   3.210
53617W        W21980   2.911  12.232   3.658
53618W        W21981  22.207  33.072   2.846
53619W        W21982  30.964  25.618  14.915
53620W        W21983   9.377  38.393   4.316
53621W        W21984  24.535   3.746   3.337
53622W        W21985  32.097  34.604  11.474
53623W        W21986  38.062  25.168   0.878
53624W        W21987  17.632  24.535  13.372
53625W        W21988  34.379   0.960  14.899
53626W        W21989  17.161  23.182   3.377
53627W        W21990   6.313  36.034   5.214
53628W        W21991   4.446  31.421   3.227
53629W        W21992   9.308  36.064   4.641
53630W        W21993  39.020  34.116  13.866
53631W        W21994  35.504  30.591  13.866
53632W        W21995   4.830  26.008  11.092
53633W        W21996  16.620  23.529   1.881
53634W        W21997  12.260   4.246  12.044
53635W        W21998  24.046   3.281  10.094
53636W        W21999  21.023   2.436   0.895
53637W        W22000   1.804   2.271  11.985
53638W        W22001  32.567  29.496  12.418
53639W        W22002   4.845   9.327  13.435
53640W        W22003  16.732  34.426   2.741
53641W        W22004  20.720  23.708  13.924
53642W        W22005  16.159  42.298  13.978
53643W        W22006   4.272  11.806  13.478
53644W        W22007  36.889   1.965  13.960
53645W        W22008  12.263  38.058   3.643
53646W        W22009  16.664  22.075   3.341
53647W        W22010  29.070  10.687  12.563
53648W        W22011   2.797  28.672  13.338
53649W        W22012   3.769  44.877  10.493
53650W        W22013  28.067  32.460   1.791
53651W        W22014  34.087   1.770  13.839
53652W        W22015  27.471  23.546  10.468
53653W        W22016   9.360  37.359   1.332
53654W        W22017   6.304  39.848   0.934
53655W        W22018  18.230  13.638  12.485
53656W        W22019  39.897  22.006  14.801
53657W        W22020  11.316  28.654   1.866
53658W        W22021  42.440  37.497   1.859
53659W        W22022  10.360  18.772   1.353
53660W        W22023  31.952  31.503  12.375
53661W        W22024   4.228  34.112   0.396
53662W        W22025  35.387  23.155   2.342
53663W        W22026  24.567  18.242   0.930
53664W        W22027  42.316   8.179   4.679
53665W        W22028  27.684  29.453   4.232
53666W        W22029  31.123   9.331   2.344
53667W        W22030  11.636  25.570  12.064
53668W        W22031  16.216  38.910  12.393
53669W        W22032  44.897  30.653  10.920
53670W        W22033  19.767   5.369   2.368
53671W        W22034  16.175   9.263   0.427
53672W        W22035  35.885  16.650  10.895
53673W        W22036   7.735  19.056   2.284
53674W        W22037  30.466  30.562  11.539
53675W        W22038  17.193  12.164  12.485
53676W        W22039  17.736   0.446  12.861
53677W        W22040  33.917  24.667   1.428
53678W        W22041  27.493  29.448   3.350
53679W        W22042  17.264  40.336   5.183
53680W        W22043  43.979  40.360   4.186
53681W        W22044   6.187  22.163   1.912
53682W        W22045   4.271  43.947  10.000
53683W        W22046  12.840  24.559   2.850
53684W        W22047  44.364  40.020   4.258
53685W        W22048  24.133   3.322   2.342
53686W        W22049   3.882   5.222   2.299
53687W        W22050  23.549  30.424   4.688
53688W        W22051  34.397  41.410   3.202
53689W        W22052  35.942  43.389   2.856
53690W        W22053  32.045  31.648   4.149
53691W        W22054  16.581  42.450   2.198
53692W        W22055   7.405  22.705  13.984
53693W        W22056  43.296   3.848  13.913
53694W        W22057  33.538  28.496  12.859
53695W        W22058   3.804  20.250  10.956
53696W        W22059  14.701   7.381  11.110
53697W        W22060  18.782  22.184  11.421
53698W        W22061   6.890  13.306   2.263
53699W        W22062  39.000  34.946   1.767
53700W        W22063  16.696   6.786   1.369
53701W        W22064  39.546  43.460  10.540
53702W        W22065  17.241  21.736   1.274
53703W        W22066  37.449  43.019  10.538
53704W        W22067  26.989  31.406   2.763
53705W        W22068   7.888  41.986  14.765
53706W        W22069  44.976  37.076  12.985
53707W        W22070   2.366  30.942  14.292
53708W        W22071  13.740  15.755  11.537
53709W        W22072  19.091   3.246  11.467
53710W        W22073  32.418   7.770   0.838
53711W        W22074  28.674  19.183  12.913
53712W        W22075  23.009  11.765  11.546
53713W        W22076  27.044   3.277  10.627
53714W        W22077  41.477  15.247  14.378
53715W        W22078  12.756  33.916   1.391
53716W        W22079   4.243  32.547   0.290
53717W        W22080  21.534  12.306  11.473
53718W        W22081  32.636  14.166   5.169
53719W        W22082  24.050  44.753  13.387
53720W        W22083  32.392  38.543   4.179
53721W        W22084   6.311  28.165   3.248
53722W        W22085  38.827  39.521  12.494
53723W        W22086   1.406   1.470   0.456
53724W        W22087  32.435  36.408   0.333
53725W        W22088   9.228  27.614   2.324
53726W        W22089   2.453  17.726   3.691
53727W        W22090  17.267  36.041  10.526
53728W        W22091   5.758  40.389  12.040
53729W        W22092  30.621  26.578  12.462
53730W        W22093  21.247   4.295   0.452
53731W        W22094  11.321  26.514  10.515
53732W        W22095  38.837  24.482  11.935
53733W        W22096  43.983  11.143  13.913
53734W        W22097  12.256  43.895   1.270
53735W        W22098  30.122  37.971  13.935
53736W        W22099  19.088  38.075  12.501
53737W        W22100  36.873  38.937  10.940
53738W        W22101  22.084  33.418   4.616
53739W        W22102  17.288  21.079  10.490
53740W        W22103  26.658   8.691  10.927
53741W        W22104  21.727  39.376   2.361
53742W        W22105  30.068   2.796   0.468
53743W        W22106  23.027  39.017   3.247
53744W        W22107  44.413  19.245  12.419
53745W        W22108  33.992  37.074   4.659
53746W        W22109  10.230  39.850  10.097
53747W        W22110  44.358  38.331   1.853
53748W        W22111  44.347   4.290  12.437
53749W        W22112   5.858  37.401  14.801
53750W        W22113  20.646   7.285  13.377
53751W        W22114  13.791  15.731   2.268
53752W        W22115  28.449  16.290   9.470
53753W        W22116  19.634  30.911  13.400
53754W        W22117   8.297  38.405  13.867
53755W        W22118   5.417  36.459   0.447
53756W        W22119   4.854  35.863  13.987
53757W        W22120  34.465  33.904   0.940
53758W        W22121  10.781  23.088  14.458
53759W        W22122  36.023  44.913  11.038
53760W        W22123  29.048  22.996   2.286
53761W        W22124  23.570  42.308  11.383
53762W        W22125   4.937   2.814   2.308
53763W        W22126  16.647  12.676   4.335
53764W        W22127  44.898  27.530   4.343
53765W        W22128  32.392  26.970   2.308
53766W        W22129  18.293   3.790   3.291
53767W        W22130  44.419  31.146   2.756
53768W        W22131  33.381  37.032   4.243
53769W        W22132   7.343  38.348  13.031
53770W        W22133  43.403   8.812   2.292
53771W        W22134   0.442  29.102  14.973
53772W        W22135   3.866  37.039  14.927
53773W        W22136   7.669  38.933  11.979
53774W        W22137  32.450   3.823   0.290
53775W        W22138   9.187  32.433   1.795
53776W        W22139  41.351  44.503  12.389
53777W        W22140   7.195   0.784  14.417
53778W        W22141  21.750  21.709   3.659
53779W        W22142  30.546  22.109   0.407
53780W        W22143  35.883   5.879   4.666
53781W        W22144  28.674  15.165  10.617
53782W        W22145  19.129  29.472  13.530
53783W        W22146  42.876  18.778   4.262
53784W        W22147  25.999  26.498  14.964
53785W        W22148   3.709  24.046  14.813
53786W        W22149  44.428  31.578  14.783
53787W        W22150   0.441  34.005   0.761
53788W        W22151   8.375  13.141   3.225
53789W        W22152  27.146   4.230   1.404
53790W        W22153  13.607  22.651  14.770
53791W        W22154   5.751  40.859  13.059
53792W        W22155  22.723  18.192  10.488
53793W        W22156   2.921  12.813  13.451
53794W        W22157  42.802  34.963  13.957
53795W        W22158  34.450  25.701   2.680
53796W        W22159  14.745  38.482  12.914
53797W        W22160  42.981  27.137  10.609
53798W        W22161  31.020   3.914  12.975
53799W        W22162  30.592   2.903   3.214
53800W        W22163  43.016  21.067   4.280
53801W        W22164  23.055  21.044   1.426
53802W        W22165   6.216   3.287  10.995
53803W        W22166   1.748  19.203   2.721
53804W        W22167  29.593   7.276   0.817
53805W        W22168  31.148  42.333  12.065
53806W        W22169  37.531  10.191  13.048
53807W        W22170   7.897  35.898   4.148
53808W        W22171  10.186  22.143  14.342
53809W        W22172  33.126  21.683   3.825
53810W        W22173   6.419   7.878   0.743
53811W        W22174   8.349   1.891  14.428
53812W        W22175  12.327  18.608   3.855
53813W        W22176   0.863  40.404  11.404
53814W        W22177  19.112  36.943   2.318
53815W        W22178  36.946   1.896   4.310
53816W        W22179  40.469   2.428   2.807
53817W        W22180  27.083  16.080   1.921
53818W        W22181  13.660   2.819  12.973
53819W        W22182  31.898  10.342  12.828
53820W        W22183  23.224  23.716  11.522
53821W        W22184  43.920  32.108   1.927
53822W        W22185  12.146  40.051   0.298
53823W        W22186   2.833  14.649  12.838
53824W        W22187  26.694  30.152  10.543
53825W        W22188  24.685  36.948   0.856
53826W        W22189  10.215  15.200   2.193
53827W        W22190   3.784  42.890   2.808
53828W        W22191   4.325  39.973   0.381
53829W        W22192   7.821   7.212   4.748
53830W        W22193  28.576   9.691   0.754
53831W        W22194  34.419  40.936   0.811
53832W        W22195  19.148   6.263  14.887
53833W        W22196  30.557   7.266  10.484
53834W        W22197   0.491  15.315  13.512
53835W        W22198  32.065  27.095  10.983
53836W        W22199  12.231  41.840  11.073
53837W        W22200  20.225  36.066  12.831
53838W        W22201  41.526   9.705  14.457
53839W        W22202  22.190  39.033  10.500
53840W        W22203  13.700  31.436   2.820
53841W        W22204  18.632  36.052   2.300
53842W        W22205   3.360  32.475  14.480
53843W        W22206  25.655  36.051   5.231
53844W        W22207   4.339  23.621   0.350
53845W        W22208  41.321  34.985   2.745
53846W        W22209  32.061  31.632   1.390
53847W        W22210   5.714  34.493  14.476
53848W        W22211  42.910  15.624   4.725
53849W        W22212   6.681  30.948  14.309
53850W        W22213  15.262  33.927   4.806
53851W        W22214  29.085  14.325   2.357
53852W        W22215  28.148   4.834  13.312
53853W        W22216  39.360  11.372   4.239
53854W        W22217  15.311  44.770   0.931
53855W        W22218  36.421   8.704  12.970
53856W        W22219  13.761  17.158  13.385
53857W        W22220  20.143  39.834  13.962
53858W        W22221  13.683   4.739   2.728
53859W        W22222  27.617   0.473  14.845
53860W        W22223  22.207  39.508  11.886
53861W        W22224  40.456  39.354   4.140
53862W        W22225   2.274  21.694  13.000
53863W        W22226  22.661  41.367   4.668
53864W        W22227  42.361   1.261   0.948
53865W        W22228  44.797  33.562   3.805
53866W        W22229  27.481  27.591   2.752
53867W        W22230  26.619  20.077   4.698
53868W        W22231  34.066  21.663  10.561
53869W        W22232  20.222  23.210   0.850
53870W        W22233  43.999  28.970  10.545
53871W        W22234  22.055  43.379  10.970
53872W        W22235  44.271  20.137  13.396
53873W        W22236   7.764  28.944  13.416
53874W        W22237  31.442  14.314  11.399
53875W        W22238  39.892  27.627  14.995
53876W        W22239  17.683  18.740  11.999
53877W        W22240   7.849   8.713  10.485
53878W        W22241  36.847   8.754  12.366
53879W        W22242  10.784  33.442   3.368
53880W        W22243  15.326  13.735  12.053
53881W        W22244  12.212  28.627   2.268
53882W        W22245  24.573  22.565   3.814
53883W        W22246  20.114  34.034   0.345
53884W        W22247  31.034  34.374   3.634
53885W        W22248  41.948  16.233   2.718
53886W        W22249   7.228  36.516  11.531
53887W        W22250  10.641   9.259  14.275
53888W        W22251  38.952   8.251   2.809
53889W        W22252  24.039  32.118   1.349
53890W        W22253   3.842  36.925   3.257
53891W        W22254  13.652  25.699  14.359
53892W        W22255   3.249  42.032   3.261
53893W        W22256  27.557   7.356  13.929
53894W        W22257  14.184  25.494   4.345
53895W        W22258  24.611  30.101   2.209
53896W        W22259  25.190  39.043  10.966
53897W        W22260  24.018  18.568   4.757
53898W        W22261  42.434  38.355   0.885
53899W        W22262  30.565  13.760   2.815
53900W        W22263  36.011  40.497   1.413
53901W        W22264  16.614  40.537   1.316
53902W        W22265  29.128  33.418  12.350
53903W        W22266  13.128  23.119   3.367
53904W        W22267  30.512  37.863  12.060
53905W        W22268  31.439  32.477  13.318
53906W        W22269  11.657   1.799  11.385
53907W        W22270  30.976  44.862  11.439
53908W        W22271  37.873   4.751   3.742
53909W        W22272  36.521  16.298  12.032
53910W        W22273  25.159  41.322   0.261
53911W        W22274  37.502  11.308   2.874
53912W        W22275  14.140  25.114  13.398
53913W        W22276  27.988   7.743   2.291
53914W        W22277  18.236   5.923   2.250
53915W        W22278  35.562   9.862   0.850
53916W        W22279  16.221  21.541   0.894
53917W        W22280  20.605  32.001   2.869
53918W        W22281   8.242  29.107   2.669
53919W        W22282  44.785  30.530  11.422
53920W        W22283   4.744  21.714  13.918
53921W        W22284   7.217  37.553  14.416
53922W        W22285  17.717  17.072   1.760
53923W        W22286  33.392  23.201   4.746
53924W        W22287  36.917  37.903  12.533
53925W        W22288  39.517   4.740   1.723
53926W        W22289  22.658  28.620  14.970
53927W        W22290  32.395  30.607  14.511
53928W        W22291  11.847  31.067   3.307
53929W        W22292  14.830  21.637   4.202
53930W        W22293  38.385   4.860  12.036
53931W        W22294  38.042  18.168  10.936
53932W        W22295  29.560  32.922  11.523
53933W        W22296  30.423  18.594   3.173
53934W        W22297  19.579  41.876   0.921
53935W        W22298  36.950  38.437   0.782
53936W        W22299  23.184  15.663   1.838
53937W        W22300  27.452   1.886  12.474
53938W        W22301  21.530  37.024  12.518
53939W        W22302   3.903   1.472   5.645
53940W        W22303  39.873   7.861   0.459
53941W        W22304   8.848  36.023  12.921
53942W        W22305  13.248  15.131   2.348
53943W        W22306  21.244  39.537   5.136
53944W        W22307  40.821  26.090   3.815
53945W        W22308  27.091   6.301  11.428
53946W        W22309  30.994   2.419   3.285
53947W        W22310  13.140  39.875   4.620
53948W        W22311  25.566  24.211  10.970
53949W        W22312  17.594  34.560   3.239
53950W        W22313  13.184   7.383   5.151
53951W        W22314  38.564  31.124   2.289
53952W        W22315  38.916  42.520   3.201
53953W        W22316  26.552  34.876  11.941
53954W        W22317  43.886  29.928   2.680
53955W        W22318  33.961  33.083  11.128
53956W        W22319  20.570  41.429  12.884
53957W        W22320   6.769  18.253  11.427
53958W        W22321  13.124  23.614   3.829
53959W        W22322  34.024  16.791   0.924
53960W        W22323  18.082   6.893   0.909
53961W        W22324  22.668  10.711   4.662
53962W        W22325  36.556  13.606  10.576
53963W        W22326   2.830  14.632   2.769
53964W        W22327  21.073   5.817  11.536
53965W        W22328  39.049  25.688   4.154
53966W        W22329  23.662  10.281  12.502
53967W        W22330  35.602  23.060   4.622
53968W        W22331  12.283  11.848   2.705
53969W        W22332  21.076   2.351  10.426
53970W        W22333   5.226  40.392  14.504
53971W        W22334  39.521  35.900  12.415
53972W        W22335  31.637  27.676  10.475
53973W        W22336   9.841  27.575   0.764
53974W        W22337   2.861  23.497   4.676
53975W        W22338  26.561  32.032  14.909
53976W        W22339   9.888  29.039   3.708
53977W        W22340  37.843  37.039   1.298
53978W        W22341  11.722  27.046  13.932
53979W        W22342   0.266  31.125  13.452
53980W        W22343  32.399  21.224  11.051
53981W        W22344   5.858  38.957   4.349
53982W        W22345   7.414   7.772  14.827
53983W        W22346  39.013  16.273   0.966
53984W        W22347  32.452   5.290   0.345
53985W        W22348   3.251  22.121   1.406
53986W        W22349   9.648  13.723  13.383
53987W        W22350  32.950   9.833  10.565
53988W        W22351  28.025  31.407  13.874
53989W        W22352  40.007  22.231   4.237
53990W        W22353  28.017  27.010   1.717
53991W        W22354  18.633  11.162  14.850
53992W        W22355  13.155  29.159  12.515
53993W        W22356   7.880  37.980  14.973
53994W        W22357  31.577  25.702  13.420
53995W        W22358  37.973  37.912  13.802
53996W        W22359  42.504  19.676   2.893
53997W        W22360  23.640  25.123   0.931
53998W        W22361  18.127  34.954   1.907
53999W        W22362   9.755  19.204   3.787
54000W        W22363  31.082  40.937   4.144
54001W        W22364   9.298  43.275   0.303
54002W        W22365  27.156  25.640   0.372
54003W        W22366  29.079  40.451   2.391
54004W        W22367  32.954  30.914  13.495
54005W        W22368  39.916  29.096  11.901
54006W        W22369  26.997  38.909   4.140
54007W        W22370  29.430  35.976   0.738
54008W        W22371   6.680  35.364   1.369
54009W        W22372  14.217  36.531   0.345
54010W        W22373  21.600  26.625   2.778
54011W        W22374  35.086  40.906   4.612
54012W        W22375  43.440  16.582   4.787
54013W        W22376  26.004  23.141   4.690
54014W        W22377  34.548  12.789  13.459
54015W        W22378  16.722  16.161   5.702
54016W        W22379   4.347  31.598   4.782
54017W        W22380   3.364  11.646   0.306
54018W        W22381  15.266  27.513   2.295
54019W        W22382   6.333  30.973  11.095
54020W        W22383  30.514  33.068   1.817
54021W        W22384  31.115  37.364   2.767
54022W        W22385  32.510  19.714  13.042
54023W        W22386   4.275  26.579  11.920
54024W        W22387  26.636   4.751   2.343
54025W        W22388  18.079  30.037  11.534
54026W        W22389   6.787  15.247   3.661
54027W        W22390  11.239   2.903  13.862
54028W        W22391  20.245  34.410  13.914
54029W        W22392  17.213  26.202   2.722
54030W        W22393  22.515  37.438   1.334
54031W        W22394  14.595  40.868  14.930
54032W        W22395  39.970  21.264   0.783
54033W        W22396  22.679   1.758  11.401
54034W        W22397   5.692   7.781  10.574
54035W        W22398   0.360  17.269   2.390
54036W        W22399   7.878  29.016   0.741
54037W        W22400  25.556  31.513   2.231
54038W        W22401  23.125   3.441  13.389
54039W        W22402  20.760   7.212  12.471
54040W        W22403   0.326  32.114  13.822
54041W        W22404   7.781  24.092  13.444
54042W        W22405  33.493  41.807   0.905
54043W        W22406  12.213  12.799  11.995
54044W        W22407   4.788   3.878   4.621
54045W        W22408  37.530  21.543  12.395
54046W        W22409  19.147   6.408  13.030
54047W        W22410  15.652  40.422   4.352
54048W        W22411  36.593  33.969   1.231
54049W        W22412  39.313  44.353   3.313
54050W        W22413  25.507  25.502   2.670
54051W        W22414  10.813  30.464  11.950
54052W        W22415   7.822   8.169  13.903
54053W        W22416  16.266  10.264  13.039
54054W        W22417  27.519  38.003  12.339
54055W        W22418  44.842  31.945   1.887
54056W        W22419  24.177  28.512   0.283
54057W        W22420  40.529  33.522   3.196
54058W        W22421   1.783  13.348   3.220
54059W        W22422  23.148  22.619  14.410
54060W        W22423   6.913  32.430   1.408
54061W        W22424  17.733  22.110  11.437
54062W        W22425  43.459   7.397   0.757
54063W        W22426  23.642  29.591  13.516
54064W        W22427   9.677  22.505  10.471
54065W        W22428  16.089   7.301  13.933
54066W        W22429   6.775  34.559   1.934
54067W        W22430  25.653  24.648   4.762
54068W        W22431   9.352   9.813  14.446
54069W        W22432  22.549  34.916  12.386
54070W        W22433  37.881  18.625   2.901
54071W        W22434  18.144  10.728  11.515
54072W        W22435   9.845  12.237   2.869
54073W        W22436   5.933  36.566   0.801
54074W        W22437   2.329   0.356  13.919
54075W        W22438  41.978  14.831  13.954
54076W        W22439  17.147  14.138   2.741
54077W        W22440  13.812   6.232  14.377
54078W        W22441  22.626  38.392  10.012
54079W        W22442  43.374  31.550   3.348
54080W        W22443  16.575   8.343   2.270
54081W        W22444  41.992  10.231  12.495
54082W        W22445  17.557  17.731   0.907
54083W        W22446  14.280  24.999   4.722
54084W        W22447  28.049  36.882   0.730
54085W        W22448   2.351  38.365  13.517
54086W        W22449  43.455  17.601  11.937
54087W        W22450  42.848  43.907  13.877
54088W        W22451   9.187  43.876  12.830
54089W        W22452  10.147  26.560  12.915
54090W        W22453   4.795   0.308  10.026
54091W        W22454  27.466  28.171  10.965
54092W        W22455  15.710  29.959   2.419
54093W        W22456  31.024  27.136   0.338
54094W        W22457   8.229   4.918   0.814
54095W        W22458  21.180  28.143   2.323
54096W        W22459   4.313   6.307   3.755
54097W        W22460  11.705  18.264  11.564
54098W        W22461  31.568   3.837   3.150
54099W        W22462  23.724   4.848  13.535
54100W        W22463  21.563  40.017   3.695
54101W        W22464  44.349  42.000  13.021
54102W        W22465  33.986  44.393   2.696
54103W        W22466  24.641   7.282   3.253
54104W        W22467  17.709  36.002  14.949
54105W        W22468  19.201  31.623   0.941
54106W        W22469  26.045  32.971   0.790
54107W        W22470   0.439  22.021  12.556
54108W        W22471  11.657  33.047   2.705
54109W        W22472   1.768  29.496  14.394
54110W        W22473  11.686  19.251  11.498
54111W        W22474   1.910  22.248  11.927
54112W        W22475  29.517  20.535   2.744
54113W        W22476  31.429  14.248   1.380
54114W        W22477  33.959   0.844   2.704
54115W        W22478  22.175  40.046  14.821
54116W        W22479  40.885  25.523   4.248
54117W        W22480  24.628  25.085  13.427
54118W        W22481   1.977  17.670  12.503
54119W        W22482  29.017   2.458  12.356
54120W        W22483  36.064  25.643   0.322
54121W        W22484  22.517  10.321   4.785
54122W        W22485  30.161  14.261  11.431
54123W        W22486  22.175   6.829  14.319
54124W        W22487  39.046  21.224  11.877
54125W        W22488  28.061   0.486  14.449
54126W        W22489   9.325   2.313  11.107
54127W        W22490  39.545  13.613  12.000
54128W        W22491  42.506  42.800  10.902
54129W        W22492  12.643  34.917  12.482
54130W        W22493   6.782  28.172  14.768
54131W        W22494  21.202  29.462  12.402
54132W        W22495   4.307  23.549   4.725
54133W        W22496  10.383  19.073  11.054
54134W        W22497  15.273  16.184  12.010
54135W        W22498  18.579  39.471   0.246
54136W        W22499   0.468  29.650  12.463
54137W        W22500  25.550  37.868   4.247
54138W        W22501   2.424  41.330   4.179
54139W        W22502  13.788  32.603  10.990
54140W        W22503   0.820  19.130  10.472
54141W        W22504  11.772  13.759  10.023
54142W        W22505  28.569  17.156   0.352
54143W        W22506  18.252  10.758  11.094
54144W        W22507  25.169  17.093   0.784
54145W        W22508   2.901  35.890  10.431
54146W        W22509   6.818   7.320  11.479
54147W        W22510  12.748  21.166  13.440
54148W        W22511  41.001  20.705   3.148
54149W        W22512  16.142   8.211  11.528
54150W        W22513  32.110  22.210  14.470
54151W        W22514  20.697  35.596  11.388
54152W        W22515  30.134  24.974  13.864
54153W        W22516  29.062  42.933  13.464
54154W        W22517  25.964   9.244   1.727
54155W        W22518   2.821   9.377  12.523
54156W        W22519  22.209   8.369   4.190
54157W        W22520  34.929  14.640  12.065
54158W        W22521  34.022  33.549   2.376
54159W        W22522  36.083  35.110  14.898
54160W        W22523  29.424  35.359   3.211
54161W        W22524  23.668  23.665  11.595
54162W        W22525  23.108  40.922   1.349
54163W        W22526  21.554  21.075   0.789
54164W        W22527  41.368  18.127   3.253
54165W        W22528  21.076  23.221  11.057
54166W        W22529   3.878  40.965  13.871
54167W        W22530   6.757  37.463  11.961
54168W        W22531  33.403  16.812   1.819
54169W        W22532   0.477  35.921   3.768
54170W        W22533  28.996  30.994  10.892
54171W        W22534  38.013  10.634  14.489
54172W        W22535   2.424   7.205  11.862
54173W        W22536   7.754   4.352   1.333
54174W        W22537  13.845   6.243   9.995
54175W        W22538  41.001  27.532  13.516
54176W        W22539  24.089  31.540  10.429
54177W        W22540  43.322  30.478  13.544
54178W        W22541  43.935   4.332   1.747
54179W        W22542  19.062  20.639   2.792
54180W        W22543  15.727  21.215   0.738
54181W        W22544  41.800  20.061   2.882
54182W        W22545  25.143  15.328   2.675
54183W        W22546  32.085  29.050   2.745
54184W        W22547  40.846   0.249  12.044
54185W        W22548  24.682  44.845   4.748
54186W        W22549   9.183  36.891   0.935
54187W        W22550   5.704  24.071   2.744
54188W        W22551   1.812  12.216  11.901
54189W        W22552   6.387  32.036  11.471
54190W        W22553  14.652  10.825  11.600
54191W        W22554  42.295   2.384  10.535
54192W        W22555  29.918  26.168   4.613
54193W        W22556  36.915   0.338   0.874
54194W        W22557   3.278  23.548  10.596
54195W        W22558  11.677  29.621  11.888
54196W        W22559  17.149   9.214   2.790
54197W        W22560  34.093   1.435   3.356
54198W        W22561  43.420  16.739   3.281
54199W        W22562  43.334   4.229   4.197
54200W        W22563  38.412  40.427  11.593
54201W        W22564  31.484  39.447  13.986
54202W        W22565  41.008  40.524  13.920
54203W        W22566   2.754  37.414   3.689
54204W        W22567  43.387  22.620  11.922
54205W        W22568   9.326  44.965  11.378
54206W        W22569   9.155  37.973   1.888
54207W        W22570  21.576  32.900  14.797
54208W        W22571  38.416  30.436   0.815
54209W        W22572   9.815  13.308   3.364
54210W        W22573  44.989  30.502   3.366
54211W        W22574  12.818  27.068   3.150
54212W        W22575  19.147   3.928  11.964
54213W        W22576  41.038   3.447   1.404
54214W        W22577   5.412  32.552  10.503
54215W        W22578  12.312  29.461   2.194
54216W        W22579  43.333  14.634  14.810
54217W        W22580  25.042  42.837   4.195
54218W        W22581  22.536  37.032   4.158
54219W        W22582  39.863   1.388  12.453
54220W        W22583  11.205  33.030  13.962
54221W        W22584  23.006   5.394   0.896
54222W        W22585  12.205  37.049  12.499
54223W        W22586  10.224  28.117  10.635
54224W        W22587  14.746  18.058  10.931
54225W        W22588  25.967  40.809   0.792
54226W        W22589  34.035  11.292   1.781
54227W        W22590  41.822  32.131  13.473
54228W        W22591  22.556   9.359  13.919
54229W        W22592  26.568  18.256   3.847
54230W        W22593  10.780  39.873   1.760
54231W        W22594  23.049  22.617   0.374
54232W        W22595  31.468  42.434  14.870
54233W        W22596   7.674  31.583   2.406
54234W        W22597   7.832  23.711  12.958
54235W        W22598  39.386  14.165  11.006
54236W        W22599   4.225  18.253  13.332
54237W        W22600  38.067  23.143   2.792
54238W        W22601   8.369   5.770  10.994
54239W        W22602  31.004   9.213   0.289
54240W        W22603  15.718  20.624  14.862
54241W        W22604   5.877  29.109   3.829
54242W        W22605   2.382  33.548  12.955
54243W        W22606  10.219  16.716  10.117
54244W        W22607  36.548  38.072  12.942
54245W        W22608  10.334  19.215  12.061
54246W        W22609  15.313  22.092  11.053
54247W        W22610  22.179   2.745   0.908
54248W        W22611   5.848  37.907   1.730
54249W        W22612  12.259  20.737  13.046
54250W        W22613  42.433   3.816  13.049
54251W        W22614  35.057  38.482   1.381
54252W        W22615  30.629  22.604  14.807
54253W        W22616  20.689   5.738   3.738
54254W        W22617   6.758  15.303   0.910
54255W        W22618  32.095  23.015   0.802
54256W        W22619  40.841  20.225   2.414
54257W        W22620  30.479  42.032  10.522
54258W        W22621  13.688   7.908   0.946
54259W        W22622  28.161  21.141  12.869
54260W        W22623  36.049  18.279   1.803
54261W        W22624  24.603  39.343   3.823
54262W        W22625  39.346   1.344   3.219
54263W        W22626  42.396  38.379   2.727
54264W        W22627  25.606   1.250  13.813
54265W        W22628  16.107  32.526  14.465
54266W        W22629  19.550  34.539   4.302
54267W        W22630   3.255  38.834  10.578
54268W        W22631   4.425  36.458   4.687
54269W        W22632   7.336  18.135  13.312
54270W        W22633  36.847   9.871  13.833
54271W        W22634  14.302  44.455  11.482
54272W        W22635  36.848   3.461  12.064
54273W        W22636  11.721   4.321   2.821
54274W        W22637  22.216  32.048  10.962
54275W        W22638  28.611  24.050   1.883
54276W        W22639  27.525  20.528   0.919
54277W        W22640  25.664  28.479  12.457
54278W        W22641  19.092  11.310   4.177
54279W        W22642  19.727  37.503  14.296
54280W        W22643   2.295  42.824  14.994
54281W        W22644  22.635  33.513   2.883
54282W        W22645  18.722  23.528   0.311
54283W        W22646  11.138  43.475   2.738
54284W        W22647  36.961  22.520   4.724
54285W        W22648   3.846  15.109   3.208
54286W        W22649   0.308   4.821  14.875
54287W        W22650  25.495   2.294   2.670
54288W        W22651  38.474  37.573   4.274
54289W        W22652  16.746   8.213  13.307
54290W        W22653  20.735   5.352  14.278
54291W        W22654   2.763  35.888  13.023
54292W        W22655  14.327   5.821   1.713
54293W        W22656  17.143  29.620  11.100
54294W        W22657  42.294  30.591  11.034
54295W        W22658  21.207  42.430   1.261
54296W        W22659   5.773  31.018  13.793
54297W        W22660  35.994  43.405   3.647
54298W        W22661   9.187  12.241  11.891
54299W        W22662  44.344  37.394   3.712
54300W        W22663  37.568  27.047  13.045
54301W        W22664  28.052   5.911   4.237
54302W        W22665  43.497  32.952   3.198
54303W        W22666  31.103  23.984   1.884
54304W        W22667  39.446  17.695   1.787
54305W        W22668  14.156  33.998   3.344
54306W        W22669  14.789  19.205  14.836
54307W        W22670  44.968   5.708  13.452
54308W        W22671  24.077  37.516  14.023
54309W        W22672  25.705  27.095  14.357
54310W        W22673  41.992  10.693   4.727
54311W        W22674  10.774   2.465  14.808
54312W        W22675  13.320  22.702  10.513
54313W        W22676  15.713  40.876  14.290
54314W        W22677  39.459  32.084  12.354
54315W        W22678  15.273   6.896   2.332
54316W        W22679  14.792  12.213   3.211
54317W        W22680  18.699  16.580   0.749
54318W        W22681  41.874  35.887  12.518
54319W        W22682   5.207  24.676   1.350
54320W        W22683  20.610   0.943   4.127
54321W        W22684   3.788   1.884  13.993
54322W        W22685   0.854  36.591   3.755
54323W        W22686  35.364  39.887  14.838
54324W        W22687   8.229  28.980   1.762
54325W        W22688  12.846  44.858  14.372
54326W        W22689  16.720  41.481  14.816
54327W        W22690  38.885  13.767   0.324
54328W        W22691  31.572  21.517   3.771
54329W        W22692  21.089  20.051  12.950
54330W        W22693  12.814  44.364  10.929
54331W        W22694   9.209  38.046  13.062
54332W        W22695  21.631   2.866   4.640
54333W        W22696  37.845  30.055   0.407
54334W        W22697  37.528  27.558   0.780
54335W        W22698  14.320  32.443  12.872
54336W        W22699  32.517  24.063   4.834
54337W        W22700  18.155  24.042   4.790
54338W        W22701  10.714  25.542  14.397
54339W        W22702  40.954  17.272  14.469
54340W        W22703   7.901  39.883  12.953
54341W        W22704  10.196  44.280   0.250
54342W        W22705   9.313  23.693   5.193
54343W        W22706  44.316   6.304  12.519
54344W        W22707  44.414  11.728  11.373
54345W        W22708   1.448  16.576   1.361
54346W        W22709  16.161  35.371  13.870
54347W        W22710  38.015  27.679   0.245
54348W        W22711  33.061  11.316   4.672
54349W        W22712  14.776  44.360  11.871
54350W        W22713   6.906  42.999   2.869
54351W        W22714   1.270  26.080  10.414
54352W        W22715   8.349  39.811   3.191
54353W        W22716  35.570  18.629   0.468
54354W        W22717  36.994  31.405  10.630
54355W        W22718  25.002  13.263  12.892
54356W        W22719  25.987  26.472   3.802
54357W        W22720  16.801   7.809  11.410
54358W        W22721   1.743  29.647  11.058
54359W        W22722  21.597   9.753  14.994
54360W        W22723  11.241  43.966   2.790
54361W        W22724  25.493  29.585   4.189
54362W        W22725   4.281   3.321  11.057
54363W        W22726  42.336  20.119   4.780
54364W        W22727  43.827  44.848  12.919
54365W        W22728  23.093   1.459   2.762
54366W        W22729  25.175   6.846  14.308
54367W        W22730  20.590   5.928   0.823
54368W        W22731  44.494  37.928   0.764
54369W        W22732  32.053  30.006   0.372
54370W        W22733   9.836   0.958  13.984
54371W        W22734   5.839  43.817  14.303
54372W        W22735  23.076  42.391  11.961
54373W        W22736  16.197  10.696   3.705
54374W        W22737   3.297   8.826  10.589
54375W        W22738  25.506  32.585  11.086
54376W        W22739  24.150  20.086   2.259
54377W        W22740  43.430   4.205   3.291
54378W        W22741   7.824  24.689   1.837
54379W        W22742   5.218  37.033   1.899
54380W        W22743  44.471   0.852   0.928
54381W        W22744  16.121  26.183   4.681
54382W        W22745  15.088  10.812  14.869
54383W        W22746  43.978  21.669   4.620
54384W        W22747   5.438  43.363   4.768
54385W        W22748   1.835  44.912   4.241
54386W        W22749  31.088   4.323  11.420
54387W        W22750   0.376  20.208  13.477
54388W        W22751  27.942  32.624   3.274
54389W        W22752  21.618  34.484  13.910
54390W        W22753  33.488  36.432   2.818
54391W        W22754  25.068  20.211   2.836
54392W        W22755  24.019   6.836  12.344
54393W        W22756  10.234  16.807  14.428
54394W        W22757   2.247   6.199  11.890
54395W        W22758  41.014  18.051  15.000
54396W        W22759  17.210   6.806   2.859
54397W        W22760  13.808  42.913   4.611
54398W        W22761  18.735   4.329   2.767
54399W        W22762  19.573  12.279  12.827
54400W        W22763  40.427  41.361  14.765
54401W        W22764  36.867  38.983   3.287
54402W        W22765  18.273  43.350  14.388
54403W        W22766  13.155  14.321  10.529
54404W        W22767   5.272   5.230  14.429
54405W        W22768  28.178  43.810   2.241
54406W        W22769  20.032  30.550  12.345
54407W        W22770  33.094  36.013  11.610
54408W        W22771  26.651  39.433  13.379
54409W        W22772   5.425  34.430  14.306
54410W        W22773  15.740  16.794   1.417
54411W        W22774  26.103  11.722   3.149
54412W        W22775  30.137  20.758   2.806
54413W        W22776  22.720  16.273  11.880
54414W        W22777  15.659  39.042  10.538
54415W        W22778  10.302  11.270   4.342
54416W        W22779   6.779  28.124   4.145
54417W        W22780   3.724  39.885  11.913
54418W        W22781  20.641  27.614  13.858
54419W        W22782  13.714  28.024   4.702
54420W        W22783  12.760  17.783  10.971
54421W        W22784  25.514  23.586   5.137
54422W        W22785  12.210  25.689   0.429
54423W        W22786  33.449  43.382   3.700
54424W        W22787   3.272  16.231  13.856
54425W        W22788  24.131  16.615  13.016
54426W        W22789  35.089   6.797  12.413
54427W        W22790   6.403  12.825  10.507
54428W        W22791  43.309  43.982   4.264
54429W        W22792  17.127   4.245   4.243
54430W        W22793  17.618  20.764   3.807
54431W        W22794  20.088  21.108  13.935
54432W        W22795  10.139   4.226   1.376
54433W        W22796  16.307  17.095   4.703
54434W        W22797   7.780  18.215   1.305
54435W        W22798  31.004   7.874   0.417
54436W        W22799  35.935   1.340  12.904
54437W        W22800  18.074  23.134  14.411
54438W        W22801   1.799  42.989   4.738
54439W        W22802  38.895  39.004   2.344
54440W        W22803  28.076  43.971  13.435
54441W        W22804  40.919  21.055  13.034
54442W        W22805  38.372  36.352   0.908
54443W        W22806  36.948  43.011  10.584
54444W        W22807  32.058   3.809   3.301
54445W        W22808   8.331  16.180   3.753
54446W        W22809  19.250  28.115  14.384
54447W        W22810  35.935  42.933   4.789
54448W        W22811  31.586  11.209   1.818
54449W        W22812  13.242  38.344  11.605
54450W        W22813   5.259   6.402  13.431
54451W        W22814   6.688  28.137   2.759
54452W        W22815  39.375  39.397   2.822
54453W        W22816  34.912  18.656   2.283
54454W        W22817  17.690  30.452   2.808
54455W        W22818   6.206  30.060   3.321
54456W        W22819  36.870  32.139   1.363
54457W        W22820  26.021  25.027  12.409
54458W        W22821  40.329  33.890   2.722
54459W        W22822  21.250   1.396  14.300
54460W        W22823  11.822  31.424  12.902
54461W        W22824  43.352   2.443  14.822
54462W        W22825  24.221  25.039   2.739
54463W        W22826  40.502   9.723   2.188
54464W        W22827  39.488  42.027  14.028
54465W        W22828  32.598  19.615   4.351
54466W        W22829   6.271   0.805  14.860
54467W        W22830  11.753  43.871  11.552
54468W        W22831  28.470   2.387  10.956
54469W        W22832  25.120  23.556  12.533
54470W        W22833   4.712   1.242  11.483
54471W        W22834  24.591  18.115   2.280
54472W        W22835  40.025  42.815  13.972
54473W        W22836  38.862  21.710   2.222
54474W        W22837   7.200  30.552   2.230
54475W        W22838  37.515  27.552   0.315
54476W        W22839  17.785  35.918   3.303
54477W        W22840  23.234  18.764  11.475
54478W        W22841  34.866   3.356  10.412
54479W        W22842  16.164  15.717  11.064
54480W        W22843  34.923   1.926  14.902
54481W        W22844  44.949   1.353   4.196
54482W        W22845  35.430  39.392   3.673
54483W        W22846  37.881  38.822   1.824
54484W        W22847   3.421   3.404   4.801
54485W        W22848  32.992  34.427  13.524
54486W        W22849  15.122  28.984  10.542
54487W        W22850  22.553   3.808   1.925
54488W        W22851   3.932   9.797   2.317
54489W        W22852  31.038  23.515  14.395
54490W        W22853  29.498  12.136  14.025
54491W        W22854  34.977   4.285   0.914
54492W        W22855  26.981  24.134  13.838
54493W        W22856  29.062   2.341   1.787
54494W        W22857  44.910  31.007   2.688
54495W        W22858  37.938  30.019   1.918
54496W        W22859  22.540   0.769   0.393
54497W        W22860  29.627  36.497  12.455
54498W        W22861  16.662  17.593   1.256
54499W        W22862  16.082  32.894  14.858
54500W        W22863  17.249   7.397   2.203
54501W        W22864  27.490   7.668  14.887
54502W        W22865  17.576  44.365   9.517
54503W        W22866  44.297  19.736  12.348
54504W        W22867  26.983  23.710  11.894
54505W        W22868  37.489   8.377   2.795
54506W        W22869   2.277   1.369  13.972
54507W        W22870  21.256   2.910  12.399
54508W        W22871   6.183  26.127   3.290
54509W        W22872  27.499  17.092   0.431
54510W        W22873   9.357  40.438  11.125
54511W        W22874   3.234  15.704   1.371
54512W        W22875  27.085  20.209  13.410
54513W        W22876  16.214  40.388  11.923
54514W        W22877  39.549  38.840  10.452
54515W        W22878  40.514  19.048   1.235
54516W        W22879  24.100   6.303  10.059
54517W        W22880  33.476  38.880   0.476
54518W        W22881  32.496  26.577  13.420
54519W        W22882  26.676   9.291   0.792
54520W        W22883  22.730  43.301   0.787
54521W        W22884  35.060   6.275   2.819
54522W        W22885   3.727  40.822   2.391
54523W        W22886  42.459  12.745   2.245
54524W        W22887  26.098   4.299   1.845
54525W        W22888  19.238  40.535  14.512
54526W        W22889  37.416   6.191   2.884
54527W        W22890  30.074  36.533  14.464
54528W        W22891  39.515   3.378  10.404
54529W        W22892  24.227  27.056  14.894
54530W        W22893  12.730  23.586   4.675
54531W        W22894  10.182  13.167  14.760
54532W        W22895  37.502  14.245  11.972
54533W        W22896  34.056   2.470   1.268
54534W        W22897   8.704  31.902   4.828
54535W        W22898   0.974  34.936  12.028
54536W        W22899   5.896  26.194   1.826
54537W        W22900   2.721  28.090   3.268
54538W        W22901  39.369  25.474   0.916
54539W        W22902  39.527  28.950   2.781
54540W        W22903  10.833  15.251  10.474
54541W        W22904  40.388  37.545   3.195
54542W        W22905  11.328   1.753   3.769
54543W        W22906  26.625  41.404  12.375
54544W        W22907  23.574  14.140   2.753
54545W        W22908  37.578  20.273  11.541
54546W        W22909   4.702  41.919   3.210
54547W        W22910  21.644  12.319  11.121
54548W        W22911  40.841  26.188  12.574
54549W        W22912  12.727  20.217  10.475
54550W        W22913   5.771  21.743  11.394
54551W        W22914  22.615  24.511  12.413
54552W        W22915  25.963  37.847   3.817
54553W        W22916  23.031  11.658  12.006
54554W        W22917  40.329  32.541  11.592
54555W        W22918  43.363  27.059   2.210
54556W        W22919  11.713   5.829   4.724
54557W        W22920  39.870  35.100   1.308
54558W        W22921  19.109   1.437   3.764
54559W        W22922   7.808  38.449   0.398
54560W        W22923   7.408  28.529   2.733
54561W        W22924   4.439   1.448   2.391
54562W        W22925  29.010  12.708  14.882
54563W        W22926  30.604  40.977  12.031
54564W        W22927  16.206   7.250  10.483
54565W        W22928   4.369  23.606   2.817
54566W        W22929  33.490  26.606   2.726
54567W        W22930  27.480  44.419  10.051
54568W        W22931  12.705  37.051   3.246
54569W        W22932  16.799   6.419  14.971
54570W        W22933  10.730  35.408   0.264
54571W        W22934  37.854   6.360   4.664
54572W        W22935  12.320  38.363  14.943
54573W        W22936  42.033   7.841  13.791
54574W        W22937  42.479  21.256   4.605
54575W        W22938  28.668  43.408   0.938
54576W        W22939  19.660  34.500   1.726
54577W        W22940  40.441  19.092   0.267
54578W        W22941  13.332  19.682  10.627
54579W        W22942  31.072  23.021  10.492
54580W        W22943  33.057   6.770  14.472
54581W        W22944  11.666  11.798   5.259
54582W        W22945   2.802  18.715  11.542
54583W        W22946  41.870  25.152   3.312
54584W        W22947  25.621  29.579   3.861
54585W        W22948  38.498   3.772  11.529
54586W        W22949  18.171  44.457  14.396
54587W        W22950  18.637  26.991  12.530
54588W        W22951  32.515  11.639  13.004
54589W        W22952  30.598  16.712   2.763
54590W        W22953  32.483   4.290  12.463
54591W        W22954  24.555   9.654  14.840
54592W        W22955   3.844  30.594  11.540
54593W        W22956  38.914  29.455  10.493
54594W        W22957  39.537   3.267   4.766
54595W        W22958   6.201  19.629  13.896
54596W        W22959   1.939  39.879  14.457
54597W        W22960  22.060  23.036  10.522
54598W        W22961  36.958  38.559   1.393
54599W        W22962   8.176   2.727  10.941
54600W        W22963  31.089  24.666  13.322
54601W        W22964  21.741  34.410   3.727
54602W        W22965   7.870  35.067  10.600
54603W        W22966  34.606  43.985  10.470
54604W        W22967   3.815  26.653   1.922
54605W        W22968  19.268  11.726  14.413
54606W        W22969  33.118   1.837   0.936
54607W        W22970  37.410  44.296   0.249
54608W        W22971  41.427  33.482  10.536
54609W        W22972  18.690  38.050   0.761
54610W        W22973  22.527  18.242   2.867
54611W        W22974  40.948   2.259   2.762
54612W        W22975  37.835  14.685   0.893
54613W        W22976  17.641   8.724  13.945
54614W        W22977  12.706  33.597  12.894
54615W        W22978   3.749  23.615  10.555
54616W        W22979  15.814  30.044   2.848
54617W        W22980  29.545  44.968   0.946
54618W        W22981   7.392  39.553  11.991
54619W        W22982  27.513  10.143   2.839
54620W        W22983  29.013   4.264   0.730
54621W        W22984  12.611  27.150  11.454
54622W        W22985   4.261  30.501   4.671
54623W        W22986  34.445  10.665   1.903
54624W        W22987  28.147  29.950  10.541
54625W        W22988   0.420  35.569  11.978
54626W        W22989  22.543  42.374   2.393
54627W        W22990  13.134  24.484  14.369
54628W        W22991  25.547  38.946   2.328
54629W        W22992  22.024   3.906   3.186
54630W        W22993   3.395  15.206   1.754
54631W        W22994  20.153  41.404  10.526
54632W        W22995  41.957  41.426  13.848
54633W        W22996  44.393  35.081   0.916
54634W        W22997  10.327  30.908  14.284
54635W        W22998   6.773  32.070   1.439
54636W        W22999  28.600   8.692   0.257
54637W        W23000  40.351  20.656   1.267
54638W        W23001  43.913  17.583   0.425
54639W        W23002  30.532   6.856  11.123
54640W        W23003  21.745  25.520  14.877
54641W        W23004  19.243  34.582   3.728
54642W        W23005  30.160  17.141  13.958
54643W        W23006  15.089  28.971  13.896
54644W        W23007  24.579  34.010  12.553
54645W        W23008  11.195  26.536   1.831
54646W        W23009   5.372  19.717   4.156
54647W        W23010  20.588  41.310  12.480
54648W        W23011  40.322  34.374  11.996
54649W        W23012  27.947   0.293   3.633
54650W        W23013   6.709  38.548   0.434
54651W        W23014  40.800  39.407  14.933
54652W        W23015   6.723  17.271  11.444
54653W        W23016   9.859  26.067  12.573
54654W        W23017   7.873  39.946  11.928
54655W        W23018  26.088  34.926   4.661
54656W        W23019  38.839  28.652  13.908
54657W        W23020  22.619   3.337  11.432
54658W        W23021  29.430  18.255  13.528
54659W        W23022  42.428  35.441  12.469
54660W        W23023  23.627  25.598   0.806
54661W        W23024  31.005  13.650  14.343
54662W        W23025  31.429  38.507   4.641
54663W        W23026  36.434   5.712   2.667
54664W        W23027  16.617  42.921   2.699
54665W        W23028  36.573  19.729   0.318
54666W        W23029  36.364   2.822  11.088
54667W        W23030  28.129  13.727   1.330
54668W        W23031  42.425   8.162  10.435
54669W        W23032  31.510  31.899   3.203
54670W        W23033  26.137   2.901   0.801
54671W        W23034  32.597   4.770  10.151
54672W        W23035  43.977  28.649   4.150
54673W        W23036  13.348  30.147   0.844
54674W        W23037  20.664  30.425   2.746
54675W        W23038  22.009  16.589  11.088
54676W        W23039  43.797  28.118  14.905
54677W        W23040  23.706  23.092  13.855
54678W        W23041  36.970   7.842  14.462
54679W        W23042  40.307   9.664  14.842
54680W        W23043  28.443  10.234  13.474
54681W        W23044   0.368  16.317  14.841
54682W        W23045   1.956  12.185  12.438
54683W        W23046  35.895   8.705  13.341
54684W        W23047  25.134   5.717  11.507
54685W        W23048   4.772  17.184  13.386
54686W        W23049   3.728  21.095   2.798
54687W        W23050  38.392  11.129   1.696
54688W        W23051  28.465  19.624  12.519
54689W        W23052  31.906   9.753   2.245
54690W        W23053  15.615  13.706   2.238
54691W        W23054  39.359  29.932  12.079
54692W        W23055  27.560  28.139  14.852
54693W        W23056   5.820  40.411   1.801
54694W        W23057   9.787   1.380  12.892
54695W        W23058  11.740   0.272  12.534
54696W        W23059  11.764  38.558  14.473
54697W        W23060  22.245  20.539   3.241
54698W        W23061  28.092  31.944  12.437
54699W        W23062  15.731   4.881   2.266
54700W        W23063  35.549   1.784  14.473
54701W        W23064  42.819  27.965   3.849
54702W        W23065  11.776   5.384   3.701
54703W        W23066  11.625  32.010   4.769
54704W        W23067  25.600  31.464   2.858
54705W        W23068  29.092  21.565  12.557
54706W        W23069  18.217   1.389   3.298
54707W        W23070  35.500   8.220   2.335
54708W        W23071  39.941  22.185   0.852
54709W        W23072  19.751  41.823   0.475
54710W        W23073  20.235  40.445   2.883
54711W        W23074  16.781  13.659  13.812
54712W        W23075  38.021  22.193  10.494
54713W        W23076   6.296   1.306  13.406
54714W        W23077   9.159   0.314   5.246
54715W        W23078  28.462  25.059  13.446
54716W        W23079  22.713  38.962   2.404
54717W        W23080  40.850  19.553  14.314
54718W        W23081  24.196  22.205   0.470
54719W        W23082   5.319  18.167   0.341
54720W        W23083  35.590  12.770  14.900
54721W        W23084  26.498  20.603   4.755
54722W        W23085  11.770   6.427  13.909
54723W        W23086  26.628  11.770   1.743
54724W        W23087  24.991   8.318  11.042
54725W        W23088   4.879  40.869   3.740
54726W        W23089   2.438  44.827  13.940
54727W        W23090  11.707  23.695   1.832
54728W        W23091  44.816  37.400  12.349
54729W        W23092   1.780  20.201  14.870
54730W        W23093   5.919  20.183  12.918
54731W        W23094  35.564   4.720   0.773
54732W        W23095   0.267  21.597   3.746
54733W        W23096  26.577  22.592   3.385
54734W        W23097  37.896  32.972  10.963
54735W        W23098  42.841  44.465   2.784
54736W        W23099   6.803  13.813   3.800
54737W        W23100  42.814   4.864  14.015
54738W        W23101  31.024  24.098  12.060
54739W        W23102  31.626  35.002  13.899
54740W        W23103  24.041  10.701   1.708
54741W        W23104  15.769  41.985  12.017
54742W        W23105  15.812  21.548   4.130
54743W        W23106   7.753   5.729   4.716
54744W        W23107   1.763   1.422  14.031
54745W        W23108  44.834   8.340   3.147
54746W        W23109  10.652   9.277  11.602
54747W        W23110  35.429  21.533  11.471
54748W        W23111   3.882  26.647  11.471
54749W        W23112  36.354   3.292  12.881
54750W        W23113   7.284   6.725  12.435
54751W        W23114  11.765  14.306   2.754
54752W        W23115  18.242  33.079  12.062
54753W        W23116  38.521  22.535   2.314
54754W        W23117  32.125  17.598   0.939
54755W        W23118  21.681   2.732   1.911
54756W        W23119  35.526  22.053   2.280
54757W        W23120  12.218  41.953  10.491
54758W        W23121  12.792  32.954  10.520
54759W        W23122  15.256  29.963   2.747
54760W        W23123  11.836  35.457   4.713
54761W        W23124   8.244  20.709  10.468
54762W        W23125  23.680   8.805  11.441
54763W        W23126  20.089  24.714  12.074
54764W        W23127  28.931   7.892  11.504
54765W        W23128  42.886  43.411  10.489
54766W        W23129  10.845  18.742   4.741
54767W        W23130  28.527  38.888  12.058
54768W        W23131  42.495   7.766   3.750
54769W        W23132  35.390  40.468  13.808
54770W        W23133  27.038  36.492  13.395
54771W        W23134  16.122  18.558   1.231
54772W        W23135  42.513  29.979  11.432
54773W        W23136   8.826   0.477  12.961
54774W        W23137  21.219  39.891  13.501
54775W        W23138   9.156  42.385  12.506
54776W        W23139  35.955   2.409  14.489
54777W        W23140  36.038  10.836   2.359
54778W        W23141  35.518  25.666  12.413
54779W        W23142  28.161  16.606   2.339
54780W        W23143  25.097  15.666  13.916
54781W        W23144  31.141  17.613   0.320
54782W        W23145  21.070  16.765  14.446
54783W        W23146  29.972   9.377   2.248
54784W        W23147  22.688   5.849  14.956
54785W        W23148   8.693  19.250  11.874
54786W        W23149  21.151  39.507  12.512
54787W        W23150   5.820  16.078  12.823
54788W        W23151  23.212   6.685  10.921
54789W        W23152  28.456  26.080  12.371
54790W        W23153   2.747   6.900   0.728
54791W        W23154  38.470  24.131  14.853
54792W        W23155  32.045  17.259   4.284
54793W        W23156  43.867  35.866  10.433
54794W        W23157  44.827  20.744  13.985
54795W        W23158  32.592  16.577   1.210
54796W        W23159   0.980  13.224   2.246
54797W        W23160   8.800   9.747   4.304
54798W        W23161   3.327  22.727   4.275
54799W        W23162  27.473  33.958  12.365
54800W        W23163  33.892   7.407  13.941
54801W        W23164  13.185  39.954  14.005
54802W        W23165  38.856  28.098  10.494
54803W        W23166  33.573  11.738  14.378
54804W        W23167  11.351  28.516   2.277
54805W        W23168  27.093  35.413  11.870
54806W        W23169  17.291  31.086   1.283
54807W        W23170  34.484   3.778  10.498
54808W        W23171  17.134  13.146  12.832
54809W        W23172  40.547  22.630   1.430
54810W        W23173  34.951  11.792  12.017
54811W        W23174  25.111  28.091   2.411
54812W        W23175  18.633  36.993   2.342
54813W        W23176  17.122  24.540  14.445
54814W        W23177  21.211  43.402  10.411
54815W        W23178  23.127  15.115   4.305
54816W        W23179  19.734  27.609  10.571
54817W        W23180  32.405  35.365   1.265
54818W        W23181  39.333  28.052   0.929
54819W        W23182   3.290  22.049   0.942
54820W        W23183  36.550  27.029  10.991
54821W        W23184  23.092  12.183   0.366
54822W        W23185  38.912  22.153   0.823
54823W        W23186  15.260  29.163   4.818
54824W        W23187   7.287   2.375  13.327
54825W        W23188  38.566  12.125  13.366
54826W        W23189  29.593  19.181  12.024
54827W        W23190   7.880  16.207  12.991
54828W        W23191  31.618  19.254  10.894
54829W        W23192   5.290  33.003   3.331
54830W        W23193  44.371  15.772   3.714
54831W        W23194   3.445   3.934   4.116
54832W        W23195  27.626  24.651   0.285
54833W        W23196  17.123   5.232  10.006
54834W        W23197   9.884  29.107   1.279
54835W        W23198  16.668  28.180   2.299
54836W        W23199  22.070  19.644  11.440
54837W        W23200  15.608  37.387   0.754
54838W        W23201  11.338  37.896   2.366
54839W        W23202  24.695  37.981  11.580
54840W        W23203  24.662  36.032  11.421
54841W        W23204  15.149   2.848  12.431
54842W        W23205   7.220  31.990   1.791
54843W        W23206  24.167  40.951   2.761
54844W        W23207  23.998   7.678  13.941
54845W        W23208  17.080  10.304   1.362
54846W        W23209  19.660  42.857   0.732
54847W        W23210  28.556  44.825  14.821
54848W        W23211  14.154   6.291  12.020
54849W        W23212   4.870   3.271   3.183
54850W        W23213  15.125   6.892   3.162
54851W        W23214  31.921   6.844  14.764
54852W        W23215  32.007  31.495   2.350
54853W        W23216  31.095   3.905  14.844
54854W        W23217   5.786  42.438   4.296
54855W        W23218  32.898  14.195  12.556
54856W        W23219  41.922  17.151   2.182
54857W        W23220  33.014  42.821   0.891
54858W        W23221   2.798   5.834  11.011
54859W        W23222  19.098  37.365   0.913
54860W        W23223  32.046   1.247   1.398
54861W        W23224   3.829  14.246  10.561
54862W        W23225  26.626  18.733   1.728
54863W        W23226  26.465  29.148  14.511
54864W        W23227  42.892  33.565   4.684
54865W        W23228  19.741  26.546  14.495
54866W        W23229  28.061  39.383   3.742
54867W        W23230   0.902  37.991   0.403
54868W        W23231  30.093  38.058  12.436
54869W        W23232  33.552   0.372   0.928
54870W        W23233  36.483  16.129  12.435
54871W        W23234  36.477   5.357  14.936
54872W        W23235   9.830  39.887   3.184
54873W        W23236  42.445  42.996  13.413
54874W        W23237  18.059  37.372  13.007
54875W        W23238  35.078   4.881   4.232
54876W        W23239   5.239  15.674  14.833
54877W        W23240  32.088  41.015   3.298
54878W        W23241  26.976  24.085   4.652
54879W        W23242  36.088  34.949   3.746
54880W        W23243  22.656  42.833  13.385
54881W        W23244   3.279   3.770  12.961
54882W        W23245   4.280   7.760  12.470
54883W        W23246  34.588  24.635  10.505
54884W        W23247  30.559  34.923   3.677
54885W        W23248  24.995  12.152   3.843
54886W        W23249  38.358  24.214  11.938
54887W        W23250  32.056  31.430   1.865
54888W        W23251   1.337  41.377  14.294
54889W        W23252  32.529  44.347  10.031
54890W        W23253  42.819  11.251  14.459
54891W        W23254   5.318   9.779   0.928
54892W        W23255   7.715   5.382   0.786
54893W        W23256   2.357  41.954   2.182
54894W        W23257  27.574  32.468  13.377
54895W        W23258  29.440  29.994   0.475
54896W        W23259   8.183  42.847  12.823
54897W        W23260  42.877  26.172  14.411
54898W        W23261  32.411   9.290   0.321
54899W        W23262  39.453   3.349  13.478
54900W        W23263  17.079  24.017  14.450
54901W        W23264  26.584  20.111  14.388
54902W        W23265  26.621  19.670   4.629
54903W        W23266  14.794  26.538   0.248
54904W        W23267  32.629  29.037  13.858
54905W        W23268  44.951  32.896  12.361
54906W        W23269  18.188  37.033   4.179
54907W        W23270   1.908   2.342   4.247
54908W        W23271  15.799  30.433   2.384
54909W        W23272  37.489  35.576  11.550
54910W        W23273   9.162  41.383  11.096
54911W        W23274  41.531   6.856   2.842
54912W        W23275  13.308  24.657  12.469
54913W        W23276   4.722  37.357  12.484
54914W        W23277  34.489  16.752   1.849
54915W        W23278  11.155  17.717  14.308
54916W        W23279  29.091  12.292   3.827
54917W        W23280  11.644  28.544  13.502
54918W        W23281  31.954  20.077  13.485
54919W        W23282  40.965  36.890   1.285
54920W        W23283  10.685  24.984  12.072
54921W        W23284  41.918  22.194   4.830
54922W        W23285   8.359  38.538  11.538
54923W        W23286  20.086  16.811   1.735
54924W        W23287  20.144   3.778  11.588
54925W        W23288   8.221  14.684   0.927
54926W        W23289  25.496  30.643  12.369
54927W        W23290  35.505  27.059  14.995
54928W        W23291   4.239  33.439   4.660
54929W        W23292  27.534  12.622  10.611
54930W        W23293   9.210  37.501   4.606
54931W        W23294  42.485  29.077   3.650
54932W        W23295  15.188  11.649   2.809
54933W        W23296  22.240  16.113   1.388
54934W        W23297  11.302  18.755   3.172
54935W        W23298   8.889   8.179  12.393
54936W        W23299  39.914  13.172   2.831
54937W        W23300  17.067  21.666   3.649
54938W        W23301  13.840  18.241  12.499
54939W        W23302  44.380  35.529   5.665
54940W        W23303  20.735  22.172   1.242
54941W        W23304   0.958  44.471  14.773
54942W        W23305   5.307  28.037   3.744
54943W        W23306   9.779  22.626   4.116
54944W        W23307  32.400  25.217  13.393
54945W        W23308  31.118  35.600  11.515
54946W        W23309  30.485  18.093   2.724
54947W        W23310   4.726  29.448  14.997
54948W        W23311  40.947   5.258   2.308
54949W        W23312   9.236  17.767  12.026
54950W        W23313  32.997  19.122  11.106
54951W        W23314  21.613  25.549   2.742
54952W        W23315  28.991  16.699  13.330
54953W        W23316  39.430  25.523   4.621
54954W        W23317  42.921   5.828   1.282
54955W        W23318  14.631  26.202  13.004
54956W        W23319  32.115  19.044  12.441
54957W        W23320  12.772  40.871  10.569
54958W        W23321  39.869  13.321   2.224
54959W        W23322   1.439   9.689  11.969
54960W        W23323  11.224  31.457  14.370
54961W        W23324  19.535  17.263   3.193
54962W        W23325  23.084  22.739  12.862
54963W        W23326  16.228  17.706   1.848
54964W        W23327  13.701  11.672  13.508
54965W        W23328  33.549  30.632   1.716
54966W        W23329   6.212   5.929  11.475
54967W        W23330  10.867   9.883   1.830
54968W        W23331  31.945  17.659   2.670
54969W        W23332  24.132  21.261   0.891
54970W        W23333   4.392  29.997   4.638
54971W        W23334  43.896   1.837   2.678
54972W        W23335   4.325  27.011   2.688
54973W        W23336  18.109   8.192   2.305
54974W        W23337  43.976   6.805   4.343
54975W        W23338  26.606  38.359   2.225
54976W        W23339  36.951   0.919   0.934
54977W        W23340  23.511  16.288  13.893
54978W        W23341  44.439  34.073   4.774
54979W        W23342  27.152  13.186   5.659
54980W        W23343  39.549  32.536  13.836
54981W        W23344   0.262  24.602   2.389
54982W        W23345   4.885  31.585  12.398
54983W        W23346  14.699  44.408   0.944
54984W        W23347  15.580  43.932   3.635
54985W        W23348   2.395   4.436   0.738
54986W        W23349  11.733  28.649  11.057
54987W        W23350  26.029  11.165   3.840
54988W        W23351  15.689   0.883  10.526
54989W        W23352  18.649  35.028  10.966
54990W        W23353   2.389  27.644  13.959
54991W        W23354  34.068   5.350   1.743
54992W        W23355  18.549  26.484  10.015
54993W        W23356  15.585  30.420   4.676
54994W        W23357  12.644   0.765  14.514
54995W        W23358  31.618  26.070   2.724
54996W        W23359  17.756  32.885  11.051
54997W        W23360  21.245  23.510  13.992
54998W        W23361  22.195  29.565   3.728
54999W        W23362  24.530   9.154   0.290
55000W        W23363  35.368  29.497  11.978
55001W        W23364  30.081  24.134   4.732
55002W        W23365  21.041  25.686   1.917
55003W        W23366  27.691  13.230   2.693
55004W        W23367   1.849  43.007  11.095
55005W        W23368  43.487  42.445   1.441
55006W        W23369  32.913  23.241  12.525
55007W        W23370  35.512  11.711  10.412
55008W        W23371  30.000   0.965  12.418
55009W        W23372  40.964   0.891  11.458
55010W        W23373  10.234  15.244  10.907
55011W        W23374  11.706   7.782  13.992
55012W        W23375  34.369  22.083  14.347
55013W        W23376  14.592   9.337   1.929
55014W        W23377  29.525   3.285  13.794
55015W        W23378  40.867  21.228   0.781
55016W        W23379   7.891  11.225   1.342
55017W        W23380  13.653   5.208  12.846
55018W        W23381  24.597   4.703   3.251
55019W        W23382  10.211  28.037  11.413
55020W        W23383  44.333  23.695  10.030
55021W        W23384   5.805  23.140  12.032
55022W        W23385  40.002  33.905  11.453
55023W        W23386  43.447   5.701   0.339
55024W        W23387  17.256  24.495   3.175
55025W        W23388  11.350   3.453   1.927
55026W        W23389  34.389  39.531   2.388
55027W        W23390  30.025   7.713  13.053
55028W        W23391  43.280  38.911   0.840
55029W        W23392  33.008  30.951   1.844
55030W        W23393  20.697  33.895   3.670
55031W        W23394   3.739  17.653   4.286
55032W        W23395   4.713  31.945   4.138
55033W        W23396  22.039  30.110   0.333
55034W        W23397  44.342  17.589   4.274
55035W        W23398  10.812  34.055   3.662
55036W        W23399  15.158  16.200   4.604
55037W        W23400  33.104  39.017  11.006
55038W        W23401  38.466  24.077  14.280
55039W        W23402  31.013  13.105  12.408
55040W        W23403  21.541  24.994  11.458
55041W        W23404  15.197  20.035   4.325
55042W        W23405  17.138  42.881   0.338
55043W        W23406  33.006  31.953  11.998
55044W        W23407  16.158  35.993  10.484
55045W        W23408  40.353  36.884  13.944
55046W        W23409  41.298  21.606  10.926
55047W        W23410  16.190  19.116  13.411
55048W        W23411  34.941   3.939  13.469
55049W        W23412  34.888   8.403   1.878
55050W        W23413   5.197   7.770  10.922
55051W        W23414  12.683  36.537   1.294
55052W        W23415  41.395  15.173  14.978
55053W        W23416  21.055  10.640   3.182
55054W        W23417  15.680  34.949   5.201
55055W        W23418  25.541  26.099  10.582
55056W        W23419  36.555  22.173   1.840
55057W        W23420   7.761   9.183  14.400
55058W        W23421  40.825  17.714  12.005
55059W        W23422   8.763   2.296   4.603
55060W        W23423  40.032  29.518  12.479
55061W        W23424  17.626  20.696  14.347
55062W        W23425  30.582  30.028  13.812
55063W        W23426  32.585  38.419   1.437
55064W        W23427   5.699  24.065   0.945
55065W        W23428  44.312  38.853  12.502
55066W        W23429  37.984  34.934  14.505
55067W        W23430  17.215   3.747   2.787
55068W        W23431  12.298   8.253  10.407
55069W        W23432   6.421  14.737   2.218
55070W        W23433  27.675   2.251   4.198
55071W        W23434  19.538  17.624   2.401
55072W        W23435  34.946  31.153  12.982
55073W        W23436   6.748  32.029  12.077
55074W        W23437  11.190  17.187  10.982
55075W        W23438   9.704  34.501   3.817
55076W        W23439   1.240   8.368   0.266
55077W        W23440   6.871  44.791   2.290
55078W        W23441  36.974   5.206   4.709
55079W        W23442  14.643  20.220   1.290
55080W        W23443   6.685  43.955   1.932
55081W        W23444  11.171  22.236   0.804
55082W        W23445  36.421  28.960  11.560
55083W        W23446  34.428  16.075   0.409
55084W        W23447   9.773  14.299   0.923
55085W        W23448   4.214  43.333   0.396
55086W        W23449  22.695  18.225  12.507
55087W        W23450  36.989  26.005   3.365
55088W        W23451  31.918  40.893  13.875
55089W        W23452  29.645  43.300   2.343
55090W        W23453  16.137   8.223  12.887
55091W        W23454  14.718  44.314  12.896
55092W        W23455  40.044  42.482   1.316
55093W        W23456  18.678  40.390   5.305
55094W        W23457  19.613  41.941   3.244
55095W        W23458   0.922  40.811   4.759
55096W        W23459  35.446  42.778  12.370
55097W        W23460  21.583  24.169  12.403
55098W        W23461  37.365  29.518  13.064
55099W        W23462  33.473  29.477   1.249
55100W        W23463  24.119  38.977   0.835
55101W        W23464  39.857   6.827  10.439
55102W        W23465  27.614  22.010  13.548
55103W        W23466  42.444  17.111  11.534
55104W        W23467   1.285  31.604   4.256
55105W        W23468  30.140  16.188   3.287
55106W        W23469   5.719  40.477   2.391
55107W        W23470  15.815  28.097   2.724
55108W        W23471  44.877  41.394   1.778
55109W        W23472  11.142  17.083   1.795
55110W        W23473  31.403  35.499  10.484
55111W        W23474  37.010  26.601   4.126
55112W        W23475  33.418   5.262  12.893
55113W        W23476   0.311  35.020   3.801
55114W        W23477  12.646  41.384   3.710
55115W        W23478  38.971  34.057   2.283
55116W        W23479  31.129  42.438   3.175
55117W        W23480  43.434  18.568  12.923
55118W        W23481  29.548  16.204  14.829
55119W        W23482  23.036  16.219  12.426
55120W        W23483  36.072  20.028   3.204
55121W        W23484  36.472   8.187   0.765
55122W        W23485  13.335  39.051   3.807
55123W        W23486  22.671   8.701  14.886
55124W        W23487  20.045  35.053  10.426
55125W        W23488   3.455  30.017   0.360
55126W        W23489  33.965  11.822  12.955
55127W        W23490  22.251  36.860  11.435
55128W        W23491  14.280  38.533  11.507
55129W        W23492   0.381   8.702   0.426
55130W        W23493  12.341  35.529  14.869
55131W        W23494  41.798  43.807  10.424
55132W        W23495  28.123  34.057   2.342
55133W        W23496   9.766  22.188  11.042
55134W        W23497  10.378  42.405   0.289
55135W        W23498   6.847  40.529  10.908
55136W        W23499  26.491  20.120   1.210
55137W        W23500   9.728  40.802   1.786
55138W        W23501  30.917  36.081   0.440
55139W        W23502  33.385   8.303  12.949
55140W        W23503   9.353  40.501   1.758
55141W        W23504  18.164   5.805  13.433
55142W        W23505  11.220  20.544   4.602
55143W        W23506  35.088   8.217  11.128
55144W        W23507  36.590  31.478   3.848
55145W        W23508  23.157   1.941   3.228
55146W        W23509  21.751  33.480  10.948
55147W        W23510  15.620  29.076   4.645
55148W        W23511  18.064  36.054  12.991
55149W        W23512  33.939   1.466   2.412
55150W        W23513  28.591  42.940   4.328
55151W        W23514  40.316  22.122  13.432
55152W        W23515   3.397   4.303   1.779
55153W        W23516  13.660  26.958   4.265
55154W        W23517  12.282  23.199   4.134
55155W        W23518  37.070   4.806   2.237
55156W        W23519  30.470  11.656   1.694
55157W        W23520   1.797  38.972   4.632
55158W        W23521   2.370  32.980  14.381
55159W        W23522  20.130  12.822   0.320
55160W        W23523  18.215  31.991   4.318
55161W        W23524   6.357  32.971   4.157
55162W        W23525   3.420  20.692   4.335
55163W        W23526   4.700  12.141   0.326
55164W        W23527  15.727  26.667   0.476
55165W        W23528  37.363  26.124  12.472
55166W        W23529  39.821  36.852   0.875
55167W        W23530   3.882  17.694  10.548
55168W        W23531  36.924  33.974  11.866
55169W        W23532  42.015  32.629  13.832
55170W        W23533   9.862  28.082  14.825
55171W        W23534  13.757  40.415  13.848
55172W        W23535  27.612  13.159  14.008
55173W        W23536   2.735  35.931  12.380
55174W        W23537   2.394  43.394   1.309
55175W        W23538  11.642  13.178  13.810
55176W        W23539  37.575  32.520   2.229
55177W        W23540   4.284  39.535   0.854
55178W        W23541  42.865  32.965   1.776
55179W        W23542  10.639  21.577  13.926
55180W        W23543  12.694   8.264  11.601
55181W        W23544  29.559  20.101   4.599
55182W        W23545   0.985  40.005  13.004
55183W        W23546  27.596   3.412  14.387
55184W        W23547  16.293  37.968   2.673
55185W        W23548   5.721   8.852   3.677
55186W        W23549  21.194  31.900  11.600
55187W        W23550  26.043  16.074  14.298
55188W        W23551  14.595  14.719  13.395
55189W        W23552  23.711  19.076  10.589
55190W        W23553   6.345  43.968  14.394
55191W        W23554  14.295  10.840   4.837
55192W        W23555  27.685  19.042  12.392
55193W        W23556  23.715  40.974   2.751
55194W        W23557  10.355  27.147   3.855
55195W        W23558  30.611  22.049  14.795
55196W        W23559  37.576  21.591  11.087
55197W        W23560  22.169  31.536  13.792
55198W        W23561  22.233   7.857  14.995
55199W        W23562  11.720  25.491   0.806
55200W        W23563  34.097  16.678  11.920
55201W        W23564  32.450  37.345   1.373
55202W        W23565  22.213  29.001  12.970
55203W        W23566  26.120  13.826   1.769
55204W        W23567  28.028   1.292  10.944
55205W        W23568  35.018  35.917  10.493
55206W        W23569  44.360  34.462  11.602
55207W        W23570  31.482  23.201  11.423
55208W        W23571  37.526  28.611   1.373
55209W        W23572  31.519  43.434   2.293
55210W        W23573  42.482   0.775  10.481
55211W        W23574  22.033  12.819   3.664
55212W        W23575  40.921  14.126  11.009
55213W        W23576  39.465  13.690   2.212
55214W        W23577  11.321  19.173   4.254
55215W        W23578   3.715   2.311   1.299
55216W        W23579   7.768  24.162  11.420
55217W        W23580  14.147  12.361   4.791
55218W        W23581   1.927   7.697  11.573
55219W        W23582  43.888  12.639   1.377
55220W        W23583  20.583  41.895   4.139
55221W        W23584   3.388   6.790   1.340
55222W        W23585  38.361  22.200  11.568
55223W        W23586  43.294   4.780  13.309
55224W        W23587  22.656  11.781   3.198
55225W        W23588   7.372  24.642  14.824
55226W        W23589  39.051  12.685   2.351
55227W        W23590  22.203  12.736   4.812
55228W        W23591   1.317  33.021   0.296
55229W        W23592  40.052  27.088  10.446
55230W        W23593   7.768  33.432  12.346
55231W        W23594   9.651  42.937  13.537
55232W        W23595  16.628  19.052  12.451
55233W        W23596  44.426  27.606   3.171
55234W        W23597   7.843   3.273   2.250
55235W        W23598  22.519  39.527  13.377
55236W        W23599  16.693  19.644  13.313
55237W        W23600   9.282  13.668  14.789
55238W        W23601  25.521   9.364  14.945
55239W        W23602   9.368   8.282   4.809
55240W        W23603  26.654  12.634   2.812
55241W        W23604  33.546  39.489   2.667
55242W        W23605  21.225  10.173   0.424
55243W        W23606  34.928  29.620  10.489
55244W        W23607  39.997  41.014   2.825
55245W        W23608  18.616   0.953   4.188
55246W        W23609  17.073   7.810  14.972
55247W        W23610  39.525  33.526   0.871
55248W        W23611  38.004  13.163   1.761
55249W        W23612  11.283  33.016  14.996
55250W        W23613  19.170  40.345   3.333
55251W        W23614  19.284  16.248  14.975
55252W        W23615  14.642  33.439  10.967
55253W        W23616  31.494  27.120   4.229
55254W        W23617  14.744  31.426   0.953
55255W        W23618  27.656   2.277  13.962
55256W        W23619  16.723  12.218   1.844
55257W        W23620  39.509  17.616  11.096
55258W        W23621  27.181  10.342  11.104
55259W        W23622   5.305  24.591   0.283
55260W        W23623   8.197  23.178   4.240
55261W        W23624   5.413  12.278  12.937
55262W        W23625  24.722  19.714   3.661
55263W        W23626  10.860  17.778  14.367
55264W        W23627  14.184   7.729  14.447
55265W        W23628   5.304  27.114   0.888
55266W        W23629  15.771  35.016  11.973
55267W        W23630   6.379  41.372  11.470
55268W        W23631  28.097  25.192   3.146
55269W        W23632  15.206   8.374   2.755
55270W        W23633  30.936  31.577   0.436
55271W        W23634   6.735  43.512  10.614
55272W        W23635  22.511  26.045  13.503
55273W        W23636  17.180   4.408  11.586
55274W        W23637  14.178  31.091   0.266
55275W        W23638  25.120  25.698   3.228
55276W        W23639  18.674   9.699   4.321
55277W        W23640  29.970   8.784   2.335
55278W        W23641  38.367  37.543  11.876
55279W        W23642  34.389  39.808   1.252
55280W        W23643   5.365  41.854  14.953
55281W        W23644  14.738  27.590   3.325
55282W        W23645  42.948  21.662  13.447
55283W        W23646  17.795  20.102   3.825
55284W        W23647  35.099  25.209   0.292
55285W        W23648  30.505   3.906  14.337
55286W        W23649  18.726  43.485   4.720
55287W        W23650   1.412  39.060   2.303
55288W        W23651  29.997  18.157  12.063
55289W        W23652  11.287  32.978   0.810
55290W        W23653  43.836  41.367  12.409
55291W        W23654   6.727  18.222   3.713
55292W        W23655  40.913  17.656   1.438
55293W        W23656  13.776  26.087   0.887
55294W        W23657   0.782  10.287  12.482
55295W        W23658  23.723  25.695  14.901
55296W        W23659  23.192  41.903  10.951
55297W        W23660   2.251  32.895   1.323
55298W        W23661  11.294  14.621  12.359
55299W        W23662  20.675  39.827  11.442
55300W        W23663  31.577  25.190  10.960
55301W        W23664  23.224  35.408  14.484
55302W        W23665  15.679   1.758  11.902
55303W        W23666  31.119  43.879   1.396
55304W        W23667  36.379  15.653   2.305
55305W        W23668  17.650   8.217  13.465
55306W        W23669  20.662  14.709   1.254
55307W        W23670  28.645   9.307  14.984
55308W        W23671   5.347  11.710  14.481
55309W        W23672   7.832  42.833   4.227
55310W        W23673  26.620  31.548   0.740
55311W        W23674   9.387   2.772   0.794
55312W        W23675   3.846  31.452   1.895
55313W        W23676  36.577  15.614  12.378
55314W        W23677  23.051  22.675   1.396
55315W        W23678  38.915  16.735  12.056
55316W        W23679  34.527  23.619  12.388
55317W        W23680  13.136  37.881   2.351
55318W        W23681  26.584  23.558   1.321
55319W        W23682   8.383  40.457   0.937
55320W        W23683  11.626   9.767   3.828
55321W        W23684  12.668  36.015   3.198
55322W        W23685  34.999  37.397  14.320
55323W        W23686   3.343  30.040  13.425
55324W        W23687   3.746  29.097   1.304
55325W        W23688   1.851  10.729   2.900
55326W        W23689  21.074  16.089  13.024
55327W        W23690   9.323  35.542   1.713
55328W        W23691  19.765  28.116  13.029
55329W        W23692   2.246  39.398  12.561
55330W        W23693   3.282  23.681  13.043
55331W        W23694  26.137  15.132  13.400
55332W        W23695  33.553  38.824   4.631
55333W        W23696  43.015  18.757   1.816
55334W        W23697  20.038   5.217   3.770
55335W        W23698  40.536   3.454   2.190
55336W        W23699  38.053  33.126   2.875
55337W        W23700  33.081   9.731   2.412
55338W        W23701  17.590  22.095   0.836
55339W        W23702  12.208   3.904  14.879
55340W        W23703  34.513  31.115   1.753
55341W        W23704   6.257  40.941  11.929
55342W        W23705  11.362  33.400   2.305
55343W        W23706  38.432  36.521   1.408
55344W        W23707  22.233  24.054   3.658
55345W        W23708   9.166  38.914   2.842
55346W        W23709  26.654  31.504   1.806
55347W        W23710  10.321  24.628   4.726
55348W        W23711  11.325  29.134  14.337
55349W        W23712   0.468  37.527  10.902
55350W        W23713  40.807   0.372   1.406
55351W        W23714  40.359  39.037  12.959
55352W        W23715  18.114  42.925   2.726
55353W        W23716  17.161  23.144  13.975
55354W        W23717  13.334   9.651   4.143
55355W        W23718  17.126  14.268  11.049
55356W        W23719   5.433   6.885  11.601
55357W        W23720   7.702   1.835  12.028
55358W        W23721  17.721  40.871  10.974
55359W        W23722  33.004  38.905   2.835
55360W        W23723   3.766   9.819   4.201
55361W        W23724  42.948  23.732   4.294
55362W        W23725  29.994  44.376   2.773
55363W        W23726  38.526   3.407   0.412
55364W        W23727  38.438  44.260   0.290
55365W        W23728   6.809   6.371  10.582
55366W        W23729  36.562  26.095  12.951
55367W        W23730  39.818  16.792   4.597
55368W        W23731  42.337   3.429   1.302
55369W        W23732  17.689   3.885   2.305
55370W        W23733  16.310   6.682  10.480
55371W        W23734  15.754  36.486  13.439
55372W        W23735  28.113  14.786   4.632
55373W        W23736  43.897  13.660  13.528
55374W        W23737  10.782   4.262  14.383
55375W        W23738  10.768  11.361  11.964
55376W        W23739  18.708  41.468  14.905
55377W        W23740  26.102  26.540  14.389
55378W        W23741  28.019  14.258   3.294
55379W        W23742  22.169  30.088  11.386
55380W        W23743  22.148  10.240   0.870
55381W        W23744  20.675  29.634  11.950
55382W        W23745  31.139  35.432   4.344
55383W        W23746  13.209  36.419  13.846
55384W        W23747  11.272   5.330  11.564
55385W        W23748  31.076  16.299  14.834
55386W        W23749  12.845   7.185  13.313
55387W        W23750  31.550  34.407  14.855
55388W        W23751  15.178   6.293   4.671
55389W        W23752  11.628   1.268   0.335
55390W        W23753  43.974  15.329   1.290
55391W        W23754  19.726   9.348   2.687
55392W        W23755  20.246  11.843  12.367
55393W        W23756   1.879  14.785   1.450
55394W        W23757   4.897  13.219  13.064
55395W        W23758  32.101  33.940  13.902
55396W        W23759   5.856  30.497   3.675
55397W        W23760  30.659   7.285   2.303
55398W        W23761  16.670  32.454   3.311
55399W        W23762  38.859  37.007  10.458
55400W        W23763   2.845  16.685  10.588
55401W        W23764  23.122  27.577   3.668
55402W        W23765   6.267  21.613   3.741
55403W        W23766  40.859  31.412  11.485
55404W        W23767  33.622  17.625   0.453
55405W        W23768  27.627  10.374  13.450
55406W        W23769  23.118  18.168   0.915
55407W        W23770  43.446  40.320   2.202
55408W        W23771   8.670  40.982  10.624
55409W        W23772  33.907  42.939   1.389
55410W        W23773  38.375  19.128  12.833
55411W        W23774  15.314  19.591  12.065
55412W        W23775  44.892  13.192  14.906
55413W        W23776  14.665  15.612   2.753
55414W        W23777  44.907  21.653   2.840
55415W        W23778  28.588  16.609  13.898
55416W        W23779  29.499  27.622   0.383
55417W        W23780  36.075  40.862   1.924
55418W        W23781  41.328  24.578  13.966
55419W        W23782  28.049  26.153  10.507
55420W        W23783  15.317  43.786  11.559
55421W        W23784  20.232  44.815  11.612
55422W        W23785  33.936  34.009  13.038
55423W        W23786  31.001  30.037   0.743
55424W        W23787  22.647  35.928  14.446
55425W        W23788  41.512  39.356  13.892
55426W        W23789  22.229  40.427  13.439
55427W        W23790  22.523  42.417  10.899
55428W        W23791  11.238  30.658  14.891
55429W        W23792  21.206  18.632  11.951
55430W        W23793  29.095  43.492  11.397
55431W        W23794   3.790  22.628   4.308
55432W        W23795  39.880  30.977   3.648
55433W        W23796  32.442  21.534  14.308
55434W        W23797  34.603  20.201  14.312
55435W        W23798  28.501  13.728   1.359
55436W        W23799  43.906   5.293   1.917
55437W        W23800   3.309  40.896   0.834
55438W        W23801  13.318  39.470   4.601
55439W        W23802   4.743  13.135  11.091
55440W        W23803   7.199   9.836   4.327
55441W        W23804   1.389  41.338  11.041
55442W        W23805  27.967  22.580   4.623
55443W        W23806  10.683  40.489   4.724
55444W        W23807  19.693   3.881   2.236
55445W        W23808   6.695  12.203   2.319
55446W        W23809  28.001  33.899  13.832
55447W        W23810  12.727  28.109  10.473
55448W        W23811   7.715   3.819   3.340
55449W        W23812  16.572  38.977  12.394
55450W        W23813  25.713  24.152   4.655
55451W        W23814   8.659  32.613  10.449
55452W        W23815  23.708   1.791  10.956
55453W        W23816   2.907  22.035  10.905
55454W        W23817  23.014   1.461  10.443
55455W        W23818  26.192   5.691   3.287
55456W        W23819  29.611  18.710  14.368
55457W        W23820   3.441  39.382  13.401
55458W        W23821  35.920  38.052   1.800
55459W        W23822  34.418  44.310  10.892
55460W        W23823  11.324   9.872   4.667
55461W        W23824   5.697  41.955  12.059
55462W        W23825  37.516  21.644   2.211
55463W        W23826   5.313  44.797  10.981
55464W        W23827  36.028  13.781  11.396
55465W        W23828   3.806   8.226  12.868
55466W        W23829   3.226   2.835  14.805
55467W        W23830  30.498  18.673  12.990
55468W        W23831  15.722  31.410   0.378
55469W        W23832  39.897  41.312  12.537
55470W        W23833  36.045  41.377   2.311
55471W        W23834  29.427  42.287   2.799
55472W        W23835  25.632   3.791   1.724
55473W        W23836  13.776  18.183  10.991
55474W        W23837  26.510  12.855   4.224
55475W        W23838  25.011  23.718  13.330
55476W        W23839  38.520  28.623   1.763
55477W        W23840  26.180  16.686   4.144
55478W        W23841  39.026  29.526  14.485
55479W        W23842  28.449  25.055   3.286
55480W        W23843  37.044  32.951   4.332
55481W        W23844  35.869  27.168   1.762
55482W        W23845  42.846  12.797  14.786
55483W        W23846   1.769  18.178  14.890
55484W        W23847   2.255   4.767   2.341
55485W        W23848  26.580  38.035  12.405
55486W        W23849  20.683  43.857   4.755
55487W        W23850  28.968  28.170   0.800
55488W        W23851  26.124   5.238   2.705
55489W        W23852  20.255  31.046  14.370
55490W        W23853  13.794   8.182  10.525
55491W        W23854  30.550   5.257   1.430
55492W        W23855  32.946  42.286   2.381
55493W        W23856   2.828  43.492   4.159
55494W        W23857  32.945  42.417   2.893
55495W        W23858  18.149  32.027   1.336
55496W        W23859  24.026  33.580   3.311
55497W        W23860  35.434  28.018  12.031
55498W        W23861   9.294  25.122  11.531
55499W        W23862   6.399   7.365  12.874
55500W        W23863  22.516  25.036  11.406
55501W        W23864  25.089  40.967   3.647
55502W        W23865  13.149  41.306  14.443
55503W        W23866   6.286  25.168  10.992
55504W        W23867   7.759  18.760   1.772
55505W        W23868   7.367  33.529  11.970
55506W        W23869  17.131  23.158   1.721
55507W        W23870  18.672  30.961  11.990
55508W        W23871  23.055  10.335   4.156
55509W        W23872  13.784   2.428   1.815
55510W        W23873  33.513  13.210   4.280
55511W        W23874  37.470  44.843   1.331
55512W        W23875  36.375   2.443   2.414
55513W        W23876  29.974   4.786  12.950
55514W        W23877  42.454   5.289   4.836
55515W        W23878  13.155  22.502   0.416
55516W        W23879   7.345  31.126  10.617
55517W        W23880   1.877  14.213   4.837
55518W        W23881  26.039  27.089   2.249
55519W        W23882  20.255  14.698  14.882
55520W        W23883   2.882  19.212   1.426
55521W        W23884  35.367   2.827  11.889
55522W        W23885  23.131   9.348   1.900
55523W        W23886  43.462  39.848   4.794
55524W        W23887  13.840  13.309  14.446
55525W        W23888   1.433   7.763  14.832
55526W        W23889  21.670  42.017   2.332
55527W        W23890  42.978  17.093  13.885
55528W        W23891  13.183  44.295  12.563
55529W        W23892  28.112   2.785  14.030
55530W        W23893   0.860  41.838  12.354
55531W        W23894  10.146  22.098  10.957
55532W        W23895  12.282  30.450   0.913
55533W        W23896  27.451  34.384  11.566
55534W        W23897  34.865   1.813   4.706
55535W        W23898  26.991  28.097  14.481
55536W        W23899  20.710  17.597  10.583
55537W        W23900  24.216  13.248  10.970
55538W        W23901   9.213  29.141   4.272
55539W        W23902   7.873  18.202  10.554
55540W        W23903  38.479  10.743   4.748
55541W        W23904  27.000  41.368  14.304
55542W        W23905  29.515   4.247   0.946
55543W        W23906  40.868  38.855  14.999
55544W        W23907  36.511  17.728  11.398
55545W        W23908  14.689  33.062  11.036
55546W        W23909  38.369  13.320  10.999
55547W        W23910  17.597   0.341   2.254
55548W        W23911  15.718  10.771   1.694
55549W        W23912  35.867  16.278  11.987
55550W        W23913   3.749  42.961  13.924
55551W        W23914  10.878  35.511   4.829
55552W        W23915   1.341  24.546  14.837
55553W        W23916   0.347  10.844  14.358
55554W        W23917  26.177  42.301   0.279
55555W        W23918  27.047   7.245  14.764
55556W        W23919  36.938  39.381  12.835
55557W        W23920   3.791  32.909   3.203
55558W        W23921  28.007  19.703  14.388
55559W        W23922  37.033  30.517  11.598
55560W        W23923  34.549   7.755   4.145
55561W        W23924  16.273  43.336  13.315
55562W        W23925  35.969  25.697   2.886
55563W        W23926   8.227  11.761  14.787
55564W        W23927  44.850   7.337  11.876
55565W        W23928  11.153  11.845   0.792
55566W        W23929   3.759  27.067  10.412
55567W        W23930   7.210  41.469   2.326
55568W        W23931  41.998  27.572  11.103
55569W        W23932   1.814  35.430  11.587
55570W        W23933  28.960  15.164   5.729
55571W        W23934   8.700   4.889  12.355
55572W        W23935  17.720  30.488   2.371
55573W        W23936  31.898  20.724   4.159
55574W        W23937   7.300  19.209   1.429
55575W        W23938  11.651  37.546   0.806
55576W        W23939   2.334  24.706   1.426
55577W        W23940  38.832  25.101  13.874
55578W        W23941  32.559  18.758  11.879
55579W        W23942   0.301  32.020  12.486
55580W        W23943   9.710  35.577   3.152
55581W        W23944   7.874  35.042  12.987
55582W        W23945  24.174  40.486   3.220
55583W        W23946  19.554  22.577  13.348
55584W        W23947  36.024  26.653  11.075
55585W        W23948   8.328  13.769   0.471
55586W        W23949  27.476  44.759   1.824
55587W        W23950  34.540  19.621   2.232
55588W        W23951   2.799   4.704  13.318
55589W        W23952  42.841  27.959   2.337
55590W        W23953  29.624  41.895   4.733
55591W        W23954  14.599   2.319   1.922
55592W        W23955  21.117  28.059   3.791
55593W        W23956  41.940  33.476  12.846
55594W        W23957  19.230  19.550  12.473
55595W        W23958  12.766  33.569   4.723
55596W        W23959  30.600   4.934  11.393
55597W        W23960  34.446  18.708  11.882
55598W        W23961  30.029  12.135  14.961
55599W        W23962  20.068  30.025  12.399
55600W        W23963  21.587  33.457  12.948
55601W        W23964  16.782  18.785   3.670
55602W        W23965   8.883   4.733   4.239
55603W        W23966  43.908   8.851  13.316
55604W        W23967  27.967   9.792  11.999
55605W        W23968  26.049  32.983  10.473
55606W        W23969  35.908   9.771  14.345
55607W        W23970   7.827  23.734   0.414
55608W        W23971  36.881  19.237   3.174
55609W        W23972   8.212  14.113  10.534
55610W        W23973   8.218  17.639  12.536
55611W        W23974  41.425   4.938  13.052
55612W        W23975  37.489  20.065   4.345
55613W        W23976  29.037  40.509   4.814
55614W        W23977  40.512  14.591  13.003
55615W        W23978   7.201   8.807   2.398
55616W        W23979   5.254  35.467   0.892
55617W        W23980   3.373  32.637   2.849
55618W        W23981  25.973   6.885  13.887
55619W        W23982  44.414   0.982   4.198
55620W        W23983  30.073  18.610   0.734
55621W        W23984  20.258   5.819  12.951
55622W        W23985  27.179  26.613   1.763
55623W        W23986   8.215   1.361  13.000
55624W        W23987   6.686   1.456  14.981
55625W        W23988  12.351  40.886  12.439
55626W        W23989  18.167  41.813   4.209
55627W        W23990  10.290  23.524  13.908
55628W        W23991   2.399  33.433  10.160
55629W        W23992   9.742  37.058   2.412
55630W        W23993  31.612  33.474   0.361
55631W        W23994  27.988  24.034   2.875
55632W        W23995  23.006  19.755  12.388
55633W        W23996  43.781  44.998  12.517
55634W        W23997  12.700  13.161   4.683
55635W        W23998  37.901  31.066   3.755
55636W        W23999   4.741  17.664   0.845
55637W        W24000   0.846  32.102  10.518
55638W        W24001  35.514  33.034  12.512
55639W        W24002  43.335  24.486  10.932
55640W        W24003  15.601  13.634  13.324
55641W        W24004  23.062  26.503  12.843
55642W        W24005  14.632  44.360  13.881
55643W        W24006  27.062  19.622  13.030
55644W        W24007  13.622  17.565   5.799
55645W        W24008  11.252  11.338   2.837
55646W        W24009   1.761   6.695  13.374
55647W        W24010  17.274  27.589   1.702
55648W        W24011  21.706   9.889   4.615
55649W        W24012   3.389  32.044  12.043
55650W        W24013  41.919  25.096  11.908
55651W        W24014  44.785  15.250   0.812
55652W        W24015  22.733   0.267   1.883
55653W        W24016  28.567  28.981   0.935
55654W        W24017  25.029  26.179   2.210
55655W        W24018   8.361  17.620  10.634
55656W        W24019  30.591  15.300   1.935
55657W        W24020  21.167  31.524  14.900
55658W        W24021  26.594  27.649   4.284
55659W        W24022  26.544   8.229   1.296
55660W        W24023  36.943   5.411  10.491
55661W        W24024  32.112  26.158   3.320
55662W        W24025  37.414  27.942   0.806
55663W        W24026  44.356  22.079   0.773
55664W        W24027  13.231  13.754   2.849
55665W        W24028   2.801  22.582  13.328
55666W        W24029  10.298  26.172   1.438
55667W        W24030  12.768   0.256   2.205
55668W        W24031  40.305  16.307  10.970
55669W        W24032  22.653  39.848  12.967
55670W        W24033  41.432  18.055   4.173
55671W        W24034  28.180   2.872  12.086
55672W        W24035  33.973  41.314  10.561
55673W        W24036   6.865  27.660  12.992
55674W        W24037  27.152  17.622  14.786
55675W        W24038  10.157   0.363  11.913
55676W        W24039   7.196   6.783  10.569
55677W        W24040  36.939  10.331  14.369
55678W        W24041  43.342  33.479  11.571
55679W        W24042  11.354  40.837   0.744
55680W        W24043  21.752   4.364   2.184
55681W        W24044  37.944  34.017   0.772
55682W        W24045  21.184  10.351   1.894
55683W        W24046  21.606  11.306   3.843
55684W        W24047  37.866  38.047   3.316
55685W        W24048  19.194  16.602   1.366
55686W        W24049  42.865  18.785  13.315
55687W        W24050  24.031  33.076  11.912
55688W        W24051  20.144   6.700   1.283
55689W        W24052  26.063  21.150  12.074
55690W        W24053  32.463   3.456   3.796
55691W        W24054  12.124  30.535   1.432
55692W        W24055   8.893   3.438  13.441
55693W        W24056  11.732  26.476  10.599
55694W        W24057  10.221  36.455  13.487
55695W        W24058  25.566   9.222  11.064
55696W        W24059  24.535  20.170   4.712
55697W        W24060  20.164   8.853   4.330
55698W        W24061  42.808  30.576   2.399
55699W        W24062   5.263   8.179  14.882
55700W        W24063  27.515   4.405  12.076
55701W        W24064  23.558   2.756   0.291
55702W        W24065  24.052  21.232  10.527
55703W        W24066   1.364  18.683  12.381
55704W        W24067  39.827  28.137  13.475
55705W        W24068  34.540  17.653  11.016
55706W        W24069  22.594  20.739  14.932
55707W        W24070  44.800  31.534  11.999
55708W        W24071  15.180  27.087   4.718
55709W        W24072  38.507   0.820  12.887
55710W        W24073   2.388  36.365  12.079
55711W        W24074  18.164  23.544   0.369
55712W        W24075   3.328  30.923   5.110
55713W        W24076  19.260   8.246   3.701
55714W        W24077  29.564  43.815  10.407
55715W        W24078  12.841  42.017   4.614
55716W        W24079  41.913  14.796  11.434
55717W        W24080  30.645  34.087  14.998
55718W        W24081  24.617  24.223   2.320
55719W        W24082  29.487  15.736  10.986
55720W        W24083  28.929  10.369   4.732
55721W        W24084  13.678  29.010  12.845
55722W        W24085  16.111  18.106   5.603
55723W        W24086  36.854  29.128   2.230
55724W        W24087  29.467  15.631  14.290
55725W        W24088  29.489   1.410  10.601
55726W        W24089   4.935   8.824  11.576
55727W        W24090  39.560  15.681   1.931
55728W        W24091   7.306  15.312   2.255
55729W        W24092   3.239  19.773  12.494
55730W        W24093   1.968  25.078  13.456
55731W        W24094  11.367   7.738  11.099
55732W        W24095   6.923  33.908   1.808
55733W        W24096  21.555  37.430   1.731
55734W        W24097  26.633   6.224   3.671
55735W        W24098   4.297  11.138  14.319
55736W        W24099  19.769   0.299  10.054
55737W        W24100  39.510  25.536  13.486
55738W        W24101  13.842  11.727   0.322
55739W        W24102  18.719   7.723  14.870
55740W        W24103  34.962  31.638  13.507
55741W        W24104   2.367  18.187   0.744
55742W        W24105  31.123  38.835  12.565
55743W        W24106  26.195  39.007   1.768
55744W        W24107  16.697  11.251   4.216
55745W        W24108  22.732  12.800   4.224
55746W        W24109  10.658   1.933   1.812
55747W        W24110   5.740   4.754   0.871
55748W        W24111  17.107   8.824  13.370
55749W        W24112  41.295  44.495   0.783
55750W        W24113  32.933  19.641  14.504
55751W        W24114  41.517  44.927  14.492
55752W        W24115  20.266  33.011  13.384
55753W        W24116  19.236  22.591   3.811
55754W        W24117  16.630  41.326   4.707
55755W        W24118  21.591  23.180  14.302
55756W        W24119  13.285   3.824   0.479
55757W        W24120  16.665  13.749  14.828
55758W        W24121  28.974  25.158  14.772
55759W        W24122  34.412  10.744   3.839
55760W        W24123  19.096   8.691  13.871
55761W        W24124   9.736   6.802  12.414
55762W        W24125  33.571  20.244   0.259
55763W        W24126  13.249  20.114  11.881
55764W        W24127  16.689  35.590  13.930
55765W        W24128   3.427  42.457   3.798
55766W        W24129   9.276   4.849  11.393
55767W        W24130  12.146   9.750  10.980
55768W        W24131   4.205   1.893   3.175
55769W        W24132  31.137  44.451   1.419
55770W        W24133  27.960  16.226  11.434
55771W        W24134  30.462  39.399  10.619
55772W        W24135   6.267  41.485   0.902
55773W        W24136  29.010   1.965   2.773
55774W        W24137  10.273  17.065   0.919
55775W        W24138  37.450  30.056   0.888
55776W        W24139  37.049  38.885   2.714
55777W        W24140  30.006  10.165   1.389
55778W        W24141  43.409  12.759  11.379
55779W        W24142  24.658  34.592   2.181
55780W        W24143  39.505  38.874   3.841
55781W        W24144  44.473  43.808  10.919
55782W        W24145  24.559   6.715  12.399
55783W        W24146  29.116  15.693   9.931
55784W        W24147  33.966  43.516   2.709
55785W        W24148  26.517   7.726   1.773
55786W        W24149  20.155  23.700  13.421
55787W        W24150  15.587  19.694   3.199
55788W        W24151  16.119  10.207  12.392
55789W        W24152  29.161  15.655  13.881
55790W        W24153  24.603  33.104   0.885
55791W        W24154  33.045  34.427   0.446
55792W        W24155  17.667  24.106  11.434
55793W        W24156  17.102   0.973   4.349
55794W        W24157  38.426   2.322  14.827
55795W        W24158  28.458  10.865  12.385
55796W        W24159   8.658  25.041  13.492
55797W        W24160   5.816  25.668  14.307
55798W        W24161  10.378  14.298  13.041
55799W        W24162   0.481  40.889   2.417
55800W        W24163  33.928  14.761   4.280
55801W        W24164  32.032  13.762  14.809
55802W        W24165  34.410  21.611  10.461
55803W        W24166  36.037  35.559   1.289
55804W        W24167  37.579  34.378  14.018
55805W        W24168  18.642  33.589  12.520
55806W        W24169  20.222   2.345   1.276
55807W        W24170   4.317   9.174   0.854
55808W        W24171  18.559  16.740   3.156
55809W        W24172  10.178  36.526  13.927
55810W        W24173  40.009  14.647  12.032
55811W        W24174  15.193  42.969   4.710
55812W        W24175   9.676  27.997   3.305
55813W        W24176  33.928  14.700   4.667
55814W        W24177  44.430  28.501  11.032
55815W        W24178  29.453  43.984   1.878
55816W        W24179  36.046  19.058   4.129
55817W        W24180  20.058  39.037   0.785
55818W        W24181   3.359   3.723   3.269
55819W        W24182  41.827   5.260   4.288
55820W        W24183  38.820  29.516  10.906
55821W        W24184   1.463   7.903  14.009
55822W        W24185  38.857  31.572  14.480
55823W        W24186  11.291   9.667  11.971
55824W        W24187  28.156   5.270   0.854
55825W        W24188  44.978   9.699  14.351
55826W        W24189  17.078  29.976   1.239
55827W        W24190   4.211  30.135  12.949
55828W        W24191  32.036  37.336  14.764
55829W        W24192  15.580  26.598  11.862
55830W        W24193  43.942  11.156   4.147
55831W        W24194   0.488  19.571   0.419
55832W        W24195  24.112   6.411   4.158
55833W        W24196   7.857   3.855   2.715
55834W        W24197  12.613  23.518  13.466
55835W        W24198  21.136  17.111   1.921
55836W        W24199  42.477   5.828  11.532
55837W        W24200  28.644  37.896  11.075
55838W        W24201  41.811  26.697   1.416
55839W        W24202  19.620  30.011   1.266
55840W        W24203   0.381  36.069   4.611
55841W        W24204  30.426  36.402   0.913
55842W        W24205  13.795  11.370   1.785
55843W        W24206  43.767  15.303   0.761
55844W        W24207  20.679  24.225  12.022
55845W        W24208  19.108  26.963  12.553
55846W        W24209  25.204  17.140  13.400
55847W        W24210  41.838   0.866   1.752
55848W        W24211  44.792  32.142   2.373
55849W        W24212  34.589  22.053   1.269
55850W        W24213  20.253  34.517  11.575
55851W        W24214  24.165   6.358  13.912
55852W        W24215  11.194  11.652  14.822
55853W        W24216  29.595  15.101  14.995
55854W        W24217  26.045  24.588  12.962
55855W        W24218  12.746   6.784   5.111
55856W        W24219  12.643  18.729  13.408
55857W        W24220  34.996   9.647   3.373
55858W        W24221  19.662  22.237  13.896
55859W        W24222  17.606  43.434   2.740
55860W        W24223   0.327  23.734  10.131
55861W        W24224  44.420   1.752   1.216
55862W        W24225  33.031  38.427   0.874
55863W        W24226  32.489  13.711   2.890
55864W        W24227  27.166   6.238  12.546
55865W        W24228  29.595  40.502   4.132
55866W        W24229  35.962  23.194   2.278
55867W        W24230   9.250  13.761  12.859
55868W        W24231  14.802  25.709   3.706
55869W        W24232   2.250  33.101   3.315
55870W        W24233  22.712  41.898  10.462
55871W        W24234  25.646  31.046   4.807
55872W        W24235  29.004  34.399  12.368
55873W        W24236   3.836  35.574  14.434
55874W        W24237   9.341  29.532  11.972
55875W        W24238  41.454  38.832  13.484
55876W        W24239  43.375  34.957  10.081
55877W        W24240  28.113  19.064   3.331
55878W        W24241  33.608   5.881   4.775
55879W        W24242   0.316   9.844  12.428
55880W        W24243  14.728  26.560   4.617
55881W        W24244  26.692  41.945  10.578
55882W        W24245   1.453   0.446   3.258
55883W        W24246  37.463  12.616  14.877
55884W        W24247   6.394  40.465  13.853
55885W        W24248   8.160   6.898   3.310
55886W        W24249  30.988  26.982   3.780
55887W        W24250  11.646  21.139   2.217
55888W        W24251   6.791  38.017  12.896
55889W        W24252  31.123  24.698   4.310
55890W        W24253  23.685  21.119  10.565
55891W        W24254  40.830  17.639  10.545
55892W        W24255  40.874  42.865   3.720
55893W        W24256  37.552  33.579   3.845
55894W        W24257  40.997  13.805   2.405
55895W        W24258  24.489  14.136   3.269
55896W        W24259   9.173   5.381   0.953
55897W        W24260   3.252  35.415   2.248
55898W        W24261  44.960  15.158   2.815
55899W        W24262  43.816   4.765  12.474
55900W        W24263  32.905  10.333   1.791
55901W        W24264  44.803  36.500   0.873
55902W        W24265   4.827  33.459  13.852
55903W        W24266  18.712  14.791   1.731
55904W        W24267  30.049  13.297  10.593
55905W        W24268  11.221  29.095  12.559
55906W        W24269  26.109  35.040   3.364
55907W        W24270  27.061   6.761   2.408
55908W        W24271   5.697  38.040  11.392
55909W        W24272   0.958  40.351  10.582
55910W        W24273  35.938   2.839   0.813
55911W        W24274  30.531  36.922  14.831
55912W        W24275  15.580  20.221   1.395
55913W        W24276  15.620  41.433  13.368
55914W        W24277  39.994  36.391   1.903
55915W        W24278  19.257  25.980   2.330
55916W        W24279   3.875   5.807  12.948
55917W        W24280  36.020  15.324  11.073
55918W        W24281  12.785  31.529   4.694
55919W        W24282  12.353   4.854  13.453
55920W        W24283  26.986  38.568   4.813
55921W        W24284  31.543   9.860   3.211
55922W        W24285   4.436  19.697  10.927
55923W        W24286  19.695   0.957  14.928
55924W        W24287  13.110  21.535  13.957
55925W        W24288   1.479  10.163  11.510
55926W        W24289  44.274  25.024  13.817
55927W        W24290  28.941  37.989  14.982
55928W        W24291  11.358  34.518   0.938
55929W        W24292  26.521  18.777   3.324
55930W        W24293  17.708   1.384   2.295
55931W        W24294   6.387  24.039   3.859
55932W        W24295  17.125  25.138  13.387
55933W        W24296  16.656   0.903  12.354
55934W        W24297   7.783  21.667   1.882
55935W        W24298  41.436  24.020   3.861
55936W        W24299  44.458   7.800   1.872
55937W        W24300  26.041   8.191  12.058
55938W        W24301  28.564  38.933  12.529
55939W        W24302   0.354  36.053  12.018
55940W        W24303  41.800  38.515  11.424
55941W        W24304  40.332  42.005  11.523
55942W        W24305  28.010  43.402  11.465
55943W        W24306   4.893  37.849  11.591
55944W        W24307  13.235  13.770   0.249
55945W        W24308   9.675  13.839  12.952
55946W        W24309  20.651  35.413   1.430
55947W        W24310   0.834  33.485  13.445
55948W        W24311  24.123  26.470   2.817
55949W        W24312   1.790  22.101   1.253
55950W        W24313  42.950   2.308  14.482
55951W        W24314  14.135  10.206  14.371
55952W        W24315  34.446  35.106  11.951
55953W        W24316  28.999  31.456   4.193
55954W        W24317  19.745  24.653  13.472
55955W        W24318   7.186  32.502  10.934
55956W        W24319  15.748  40.946   2.363
55957W        W24320  42.996  19.571   1.784
55958W        W24321   1.816  34.390  12.555
55959W        W24322  27.598  16.632  11.978
55960W        W24323  24.507  26.030  10.946
55961W        W24324  14.812  22.603  12.495
55962W        W24325  37.839  16.265  14.353
55963W        W24326  17.695   2.446   4.276
55964W        W24327  30.084  13.819   2.668
55965W        W24328  18.689  14.206  13.530
55966W        W24329  35.107  13.153   1.775
55967W        W24330  15.794  13.735  11.551
55968W        W24331  42.461  14.620  14.006
55969W        W24332  17.735  13.807   2.241
55970W        W24333   0.925  24.098   0.775
55971W        W24334  26.569  43.807  14.349
55972W        W24335  38.955   2.813   0.417
55973W        W24336   2.369  13.213  13.974
55974W        W24337  11.665  39.059  10.116
55975W        W24338   0.308  37.084  11.604
55976W        W24339   4.307   8.842   1.244
55977W        W24340  29.470  29.657   1.331
55978W        W24341  14.151  32.566   0.484
55979W        W24342  32.609  42.981   1.346
55980W        W24343  27.035  16.713  14.452
55981W        W24344  20.688  12.123  11.898
55982W        W24345  23.612  31.080  10.933
55983W        W24346  16.734  35.886   4.192
55984W        W24347   0.463  37.082  11.036
55985W        W24348   6.708  18.275   4.681
55986W        W24349  26.116   8.178  10.604
55987W        W24350  14.248  33.118  10.088
55988W        W24351  16.076  18.174  13.440
55989W        W24352  11.694   4.204  11.559
55990W        W24353  42.933  37.056  13.500
55991W        W24354  36.092  10.647  10.947
55992W        W24355   2.748  28.053   1.411
55993W        W24356  27.124  20.195  12.574
55994W        W24357  11.319  44.996   1.893
55995W        W24358  32.986  28.471   5.211
55996W        W24359   2.915  16.289   4.331
55997W        W24360  23.657  29.954   3.168
55998W        W24361   1.740  25.481   0.857
55999W        W24362  22.663  35.366   1.296
56000W        W24363  42.420  16.666  14.802
56001W        W24364  27.488   2.254  12.922
56002W        W24365  21.190   7.174   3.779
56003W        W24366  19.165  28.106   0.379
56004W        W24367  34.932  32.928  14.759
56005W        W24368  41.835  11.269   2.842
56006W        W24369   2.888  29.934  13.467
56007W        W24370  31.145   8.386   0.773
56008W        W24371  26.534  28.997   0.256
56009W        W24372  14.750  21.061   2.257
56010W        W24373  38.058  30.624  11.909
56011W        W24374  28.573  23.558  12.860
56012W        W24375  21.018  43.283   2.234
56013W        W24376   9.205  30.066   4.220
56014W        W24377  16.765  14.216   4.835
56015W        W24378  17.120  24.172  11.489
56016W        W24379  43.776  36.916   3.667
56017W        W24380  38.389  11.272  12.840
56018W        W24381   5.240  44.258  11.955
56019W        W24382  37.434  42.031   5.227
56020W        W24383  31.456  17.167   3.314
56021W        W24384  17.125  44.836   0.378
56022W        W24385  11.669  36.386   0.811
56023W        W24386  19.708  33.098   2.313
56024W        W24387   5.241  11.190   0.305
56025W        W24388  27.494  26.109   1.326
56026W        W24389  15.819  21.609   1.426
56027W        W24390   0.437  17.098   1.236
56028W        W24391  19.081  22.198  13.974
56029W        W24392  21.645   0.861  13.794
56030W        W24393  10.671  15.725   1.740
56031W        W24394  26.197  37.886  11.543
56032W        W24395  42.779  12.338   0.932
56033W        W24396   6.825  23.099  11.016
56034W        W24397  12.196   5.414  14.992
56035W        W24398   5.310  21.105   3.700
56036W        W24399  19.059   6.891  12.028
56037W        W24400   4.361  29.563   4.678
56038W        W24401  17.197   5.312  12.481
56039W        W24402   0.328  43.492  14.874
56040W        W24403  27.191   0.891  12.459
56041W        W24404   8.712   1.281  12.833
56042W        W24405  27.018  24.986   2.781
56043W        W24406  15.151  12.684  13.957
56044W        W24407  42.418  18.783  13.989
56045W        W24408  37.540  33.012   0.824
56046W        W24409   2.319  34.937   1.417
56047W        W24410  36.474  34.041  13.483
56048W        W24411  20.670  15.635   4.835
56049W        W24412  35.461   8.314  13.948
56050W        W24413   1.930   1.841   1.713
56051W        W24414  44.817  18.580   2.671
56052W        W24415   9.166   7.324  12.364
56053W        W24416  36.451   5.276   3.340
56054W        W24417   8.890  19.760  10.562
56055W        W24418  29.040  25.471  14.848
56056W        W24419  21.587  36.957  12.920
56057W        W24420   3.262   0.491  14.985
56058W        W24421  10.727  40.520  11.964
56059W        W24422  34.046  23.733  12.839
56060W        W24423  19.113  29.068  10.948
56061W        W24424  18.217  22.650  13.504
56062W        W24425  40.937  16.707  13.802
56063W        W24426  40.831   9.770  11.112
56064W        W24427   4.420  27.506   1.797
56065W        W24428  23.641  31.098  13.316
56066W        W24429  24.137  40.440   0.799
56067W        W24430  41.840  34.524   5.238
56068W        W24431  42.363  20.589  12.440
56069W        W24432  13.765  19.066  12.919
56070W        W24433  14.750   0.368  11.098
56071W        W24434  26.591  27.667   2.295
56072W        W24435  30.073  29.536  13.330
56073W        W24436  39.945  27.076   3.258
56074W        W24437  14.191  13.694   0.424
56075W        W24438  17.753   7.386   0.433
56076W        W24439  28.957  38.028  12.860
56077W        W24440  14.215  26.622   2.315
56078W        W24441   4.892   9.192   2.816
56079W        W24442   0.307  30.142   2.414
56080W        W24443  14.656   8.169  10.560
56081W        W24444  43.405  33.014  11.442
56082W        W24445  39.062  11.856  13.054
56083W        W24446  21.066  35.936  11.374
56084W        W24447  43.909  35.409  13.865
56085W        W24448  43.987  30.909   1.360
56086W        W24449  40.347  32.495  10.434
56087W        W24450   3.818   4.299   4.167
56088W        W24451  35.456  30.134   3.656
56089W        W24452   1.374  16.117  11.044
56090W        W24453  41.005  13.112  12.369
56091W        W24454  13.689   3.328   3.252
56092W        W24455  26.043  16.079  12.494
56093W        W24456  29.111  21.607   1.443
56094W        W24457  43.384  24.115  11.930
56095W        W24458  34.553  38.998   2.287
56096W        W24459  10.644  32.418  10.429
56097W        W24460  39.355  31.417   3.189
56098W        W24461  14.298  22.579  11.582
56099W        W24462  44.278  25.993  11.584
56100W        W24463  17.650   6.891  14.284
56101W        W24464   2.888  37.384  11.455
56102W        W24465   5.342  22.542  11.052
56103W        W24466   3.326  27.167  13.383
56104W        W24467  31.091  36.514  12.006
56105W        W24468   3.357  36.536  14.005
56106W        W24469  11.625  33.612   3.280
56107W        W24470  12.738  36.872  12.889
56108W        W24471  12.828  30.958  12.560
56109W        W24472  20.718  32.007  10.609
56110W        W24473   3.889   6.685  10.612
56111W        W24474  14.330   8.364   1.315
56112W        W24475   4.898  16.703  14.927
56113W        W24476  25.499   3.828  11.971
56114W        W24477  42.905  12.310   2.239
56115W        W24478  12.227  13.221  12.348
56116W        W24479  43.890  32.634   3.251
56117W        W24480  14.775   6.869   1.327
56118W        W24481  26.551  27.008  14.445
56119W        W24482  32.115  44.396  12.950
56120W        W24483  29.628   2.421  12.418
56121W        W24484  32.559  11.709   1.714
56122W        W24485  41.818  31.909  12.923
56123W        W24486  16.085  18.150  11.410
56124W        W24487  13.320  32.979   4.227
56125W        W24488  28.679   5.227   4.835
56126W        W24489  29.633  30.092   1.846
56127W        W24490  39.046  16.706  10.423
56128W        W24491   8.243  43.310   2.180
56129W        W24492  43.428  10.273  13.923
56130W        W24493  20.724  28.482  10.930
56131W        W24494  34.913   5.312   1.405
56132W        W24495  34.466   6.266  11.900
56133W        W24496   7.189  17.722   2.279
56134W        W24497  19.195  42.849  14.794
56135W        W24498  19.700  21.031   1.916
56136W        W24499  12.236  15.163  10.524
56137W        W24500  39.855  44.323   1.388
56138W        W24501  31.438  26.492   3.319
56139W        W24502  43.341   9.849   0.770
56140W        W24503   8.807   5.840   0.952
56141W        W24504  31.919  28.661  11.396
56142W        W24505  40.446   5.709   1.855
56143W        W24506  23.514  17.119   1.279
56144W        W24507  33.933  44.462   5.715
56145W        W24508  20.733  16.666   0.729
56146W        W24509  19.279  39.530  10.484
56147W        W24510  32.545  30.054  13.495
56148W        W24511  38.462  41.893   1.862
56149W        W24512   1.295  10.153  13.355
56150W        W24513   8.662  10.319  11.492
56151W        W24514  28.011  30.967   3.830
56152W        W24515  42.782  23.142  13.484
56153W        W24516   1.290  22.021  11.491
56154W        W24517   6.381  43.800   4.263
56155W        W24518  34.425  11.733   2.844
56156W        W24519  29.512  33.411  10.421
56157W        W24520   3.734   2.876  12.873
56158W        W24521  10.334  20.129  13.844
56159W        W24522  13.192  41.331   4.812
56160W        W24523  11.133  28.531   4.318
56161W        W24524  19.772  27.020   4.276
56162W        W24525  11.330  35.485   0.840
56163W        W24526   3.739  42.020  13.932
56164W        W24527   3.362  19.143  10.435
56165W        W24528  28.165  23.994   0.801
56166W        W24529  16.667  41.029   0.907
56167W        W24530  33.626   7.207   4.711
56168W        W24531  19.126  10.186  11.423
56169W        W24532  25.098  23.184  14.295
56170W        W24533  16.279  41.509   3.274
56171W        W24534   1.245  20.176   0.449
56172W        W24535  14.185  32.925   4.195
56173W        W24536  39.818   3.327  11.037
56174W        W24537  14.664  19.548  14.962
56175W        W24538   1.323   7.743  10.535
56176W        W24539   3.802  43.802  13.002
56177W        W24540  32.979  21.116   9.974
56178W        W24541  14.259  18.056   3.156
56179W        W24542  23.711  41.893  13.415
56180W        W24543  40.526  28.063  10.584
56181W        W24544   0.317   4.299  14.930
56182W        W24545   3.734  29.594  13.885
56183W        W24546  37.440  20.541   2.810
56184W        W24547  28.063  20.756   3.855
56185W        W24548  36.901  11.841   1.705
56186W        W24549   1.779  31.593   2.295
56187W        W24550  26.092  28.182  14.808
56188W        W24551  24.628  13.793  14.957
56189W        W24552  34.522   8.733  11.120
56190W        W24553   8.192  42.887   4.145
56191W        W24554  14.782   5.416  10.895
56192W        W24555  24.492  38.028  13.983
56193W        W24556  16.604   7.812   0.874
56194W        W24557   6.323  42.953   1.450
56195W        W24558  25.160   3.395  12.550
56196W        W24559  27.674  24.608   2.314
56197W        W24560  22.171  40.401   1.333
56198W        W24561   2.279  30.482   5.226
56199W        W24562   7.200   9.330   2.412
56200W        W24563  10.151  30.478   1.815
56201W        W24564  27.131  41.834   1.759
56202W        W24565  26.159  28.106  13.910
56203W        W24566  12.188   8.372   3.677
56204W        W24567  22.647  10.692  14.412
56205W        W24568  33.534  30.620   0.352
56206W        W24569  34.058  34.549   3.168
56207W        W24570  10.859  12.271   1.338
56208W        W24571   6.263  18.138  12.017
56209W        W24572   7.756  25.148   3.203
56210W        W24573  13.113   4.743   2.385
56211W        W24574  22.144   7.252  14.856
56212W        W24575  39.845  13.742  12.045
56213W        W24576  36.538  25.588   4.613
56214W        W24577  38.968  26.512  12.359
56215W        W24578  21.580  38.932  11.550
56216W        W24579  24.593  10.347   1.378
56217W        W24580  32.111  29.559   1.832
56218W        W24581   7.194  38.955   4.809
56219W        W24582  28.165  13.187  13.864
56220W        W24583  44.928  27.550   4.746
56221W        W24584  41.804  32.138  10.978
56222W        W24585   8.254   5.762   2.868
56223W        W24586  42.523  30.507  14.022
56224W        W24587  25.594   5.388   4.303
56225W        W24588  10.865  19.218  14.467
56226W        W24589  25.615  23.133  10.510
56227W        W24590   0.819  24.573  11.583
56228W        W24591  13.723  17.671  14.761
56229W        W24592   2.772  38.007   4.765
56230W        W24593  22.537  16.662  10.551
56231W        W24594  24.688  17.300   4.183
56232W        W24595  34.960   7.303  12.509
56233W        W24596  15.094  27.052  12.413
56234W        W24597  26.998  12.167   2.254
56235W        W24598  32.934   2.247  14.853
56236W        W24599   1.853  25.561   1.759
56237W        W24600  13.712  40.524   1.918
56238W        W24601  24.600  38.015   0.798
56239W        W24602  14.649  41.536   3.340
56240W        W24603  42.032  17.738  13.405
56241W        W24604  10.146  11.777  11.969
56242W        W24605  36.367  10.688   4.211
56243W        W24606   1.295  19.533   0.757
56244W        W24607  14.710  21.201  13.511
56245W        W24608   0.749  30.538   2.745
56246W        W24609  21.545   2.388   0.936
56247W        W24610  18.218   7.679   1.347
56248W        W24611  21.677   4.854  10.599
56249W        W24612   2.957  22.051  10.638
56250W        W24613  32.139   0.838  14.287
56251W        W24614  24.221  10.667  14.924
56252W        W24615  17.674  16.615  12.074
56253W        W24616  34.604  31.527  14.760
56254W        W24617  14.663  16.203   4.836
56255W        W24618  28.533  20.131   2.722
56256W        W24619  24.621  29.519  12.517
56257W        W24620  15.752  16.588  11.470
56258W        W24621  12.771   5.767  14.399
56259W        W24622  44.288   6.240   1.355
56260W        W24623  11.158  13.154   0.788
56261W        W24624  21.018  25.076  10.003
56262W        W24625  43.348   2.261   0.912
56263W        W24626  32.131  43.946   5.695
56264W        W24627   2.957   6.852   4.671
56265W        W24628  14.276  13.681  13.378
56266W        W24629  32.109  14.645   1.292
56267W        W24630   5.389   3.244  14.920
56268W        W24631  31.070   8.182  11.988
56269W        W24632   9.792  36.485  14.458
56270W        W24633  30.956   4.864  11.400
56271W        W24634  39.357  44.451  14.354
56272W        W24635  12.833  12.235  11.414
56273W        W24636  19.282  35.877  13.355
56274W        W24637  11.766  44.834   1.713
56275W        W24638  31.004  32.581   4.784
56276W        W24639  40.411  16.619  10.897
56277W        W24640   2.893  21.075  10.154
56278W        W24641   7.201  23.727   3.729
56279W        W24642  16.659  40.799   2.419
56280W        W24643  22.178  24.030   4.183
56281W        W24644  42.931  44.893   0.467
56282W        W24645  13.336   1.808   1.230
56283W        W24646  31.002  25.547   1.293
56284W        W24647  18.606  34.019  13.518
56285W        W24648  25.559  33.443   3.161
56286W        W24649   3.786  32.100   0.953
56287W        W24650  43.921  21.042   3.251
56288W        W24651   3.441  13.610   2.806
56289W        W24652  22.077  25.587  11.530
56290W        W24653   8.895  30.473   4.805
56291W        W24654  44.451  34.020   2.855
56292W        W24655  14.176  44.919  11.397
56293W        W24656  20.529  34.612  14.458
56294W        W24657   2.866  36.506   1.427
56295W        W24658  21.526  13.839   4.212
56296W        W24659   4.368   7.796   0.270
56297W        W24660  19.272   3.441   0.807
56298W        W24661  17.237  38.982   1.854
56299W        W24662   1.277   6.219  12.369
56300W        W24663  22.208  41.451   4.604
56301W        W24664   8.293  44.852   1.913
56302W        W24665  31.501  18.170   4.259
56303W        W24666   7.325  40.863   1.738
56304W        W24667  32.480  30.560  11.928
56305W        W24668  31.006  15.180  12.369
56306W        W24669  39.525  16.153  10.887
56307W        W24670  32.543  42.407   3.315
56308W        W24671   2.438  16.691  13.832
56309W        W24672  33.478  26.162  14.901
56310W        W24673  15.762  31.026  14.808
56311W        W24674  15.104  39.546   4.212
56312W        W24675  23.120   5.388   2.401
56313W        W24676  26.654  17.071  13.014
56314W        W24677  35.020  39.325  13.390
56315W        W24678   0.278  31.007  14.319
56316W        W24679  35.432  29.526   4.217
56317W        W24680  32.450  19.088   0.959
56318W        W24681  43.896  13.611   3.809
56319W        W24682  35.449   5.293  13.548
56320W        W24683   0.431  43.509  13.359
56321W        W24684  40.026  34.509   4.231
56322W        W24685  17.094  42.316  11.991
56323W        W24686  26.676  24.113   2.362
56324W        W24687  13.748  18.193   5.605
56325W        W24688  38.436  14.729  10.478
56326W        W24689  40.813  29.428   2.297
56327W        W24690  37.337  40.913  11.504
56328W        W24691  37.849  10.751   1.765
56329W        W24692  31.452  18.548  14.988
56330W        W24693  38.040  36.876   2.296
56331W        W24694  15.611  20.028   2.332
56332W        W24695   6.770  13.615  14.999
56333W        W24696  35.924  24.551  12.435
56334W        W24697   6.352   4.884  12.467
56335W        W24698  34.537  37.375  12.007
56336W        W24699  42.284  26.006   1.842
56337W        W24700   2.859  31.124   0.247
56338W        W24701  23.119  23.011   0.356
56339W        W24702  17.081  10.341  11.439
56340W        W24703  11.235   4.824   0.297
56341W        W24704  32.490  32.397  10.438
56342W        W24705   9.340  30.618  10.953
56343W        W24706  44.770  11.697  12.026
56344W        W24707  16.139   5.926  14.284
56345W        W24708  37.486  15.143  11.058
56346W        W24709  35.396  16.262   2.875
56347W        W24710   9.644  39.448   2.708
56348W        W24711  24.099  43.011  11.480
56349W        W24712  34.378  24.998  14.302
56350W        W24713  27.518   2.890  10.898
56351W        W24714  42.973  34.010   1.372
56352W        W24715  32.914  23.555  10.455
56353W        W24716  28.577   9.322  14.355
56354W        W24717  24.986  15.113   2.406
56355W        W24718  24.524  41.353  13.063
56356W        W24719  31.017   1.237   1.407
56357W        W24720  41.488  36.399   3.763
56358W        W24721  15.306   2.247   0.269
56359W        W24722   6.396  10.376  13.864
56360W        W24723  43.866  12.631   4.198
56361W        W24724  17.256   5.703  14.315
56362W        W24725  42.993  30.622   4.819
56363W        W24726   6.359   0.426   2.663
56364W        W24727  42.000  37.888  11.880
56365W        W24728  13.297  30.490   1.884
56366W        W24729  27.993  38.021  14.805
56367W        W24730  23.498   0.862  12.915
56368W        W24731  13.339  24.001  11.386
56369W        W24732  25.490   6.848  10.908
56370W        W24733  27.089  15.104   1.265
56371W        W24734  37.968  33.998   1.290
56372W        W24735   6.350  38.885  13.313
56373W        W24736  14.816  31.010   1.403
56374W        W24737  16.104  18.122  11.914
56375W        W24738  42.511  17.085   1.372
56376W        W24739   2.747   2.331   1.867
56377W        W24740   4.404  17.134   1.323
56378W        W24741  39.953  27.551  13.377
56379W        W24742  13.327  24.715   4.320
56380W        W24743  44.919  24.482   4.146
56381W        W24744  24.625  25.702   3.147
56382W        W24745  40.948  17.133  11.021
56383W        W24746  43.402  44.430  13.437
56384W        W24747   6.848  20.087   0.411
56385W        W24748   2.269  35.032  10.478
56386W        W24749  16.214  23.240   2.355
56387W        W24750  13.653  28.546  13.894
56388W        W24751  18.217  26.008   2.293
56389W        W24752  40.819   7.911   4.708
56390W        W24753  31.109   3.288  13.335
56391W        W24754  41.355   4.899   3.722
56392W        W24755  24.720  39.002  14.340
56393W        W24756   6.387  32.636   2.724
56394W        W24757  15.618  24.635  13.003
56395W        W24758  14.122  21.582  14.340
56396W        W24759   2.329  17.075   4.263
56397W        W24760  28.480  36.466  11.373
56398W        W24761  23.676  41.983  12.454
56399W        W24762  41.387  22.197   1.223
56400W        W24763  18.689  17.142   3.165
56401W        W24764   8.187  18.631  12.351
56402W        W24765  16.638  21.669  10.643
56403W        W24766  23.711  24.708  14.466
56404W        W24767   3.885   2.422   0.280
56405W        W24768  34.038  11.198   0.291
56406W        W24769  34.871  14.835   1.296
56407W        W24770   0.464  11.358  10.947
56408W        W24771  22.218  19.123   3.279
56409W        W24772  34.490  17.184  13.850
56410W        W24773  29.544  32.554  13.383
56411W        W24774  30.480  11.258   1.349
56412W        W24775  25.964  14.095  12.438
56413W        W24776  43.289   2.838   2.332
56414W        W24777  20.183   8.770   1.701
56415W        W24778  12.715  43.936   0.266
56416W        W24779   0.481   9.848   3.774
56417W        W24780  26.576  28.490  11.470
56418W        W24781  16.187  19.269  10.482
56419W        W24782  10.656  10.829  14.438
56420W        W24783  12.837  39.528   4.639
56421W        W24784  20.063  14.707   3.698
56422W        W24785   7.202  35.031  10.457
56423W        W24786  16.756  32.501  11.104
56424W        W24787  14.794   4.274   4.191
56425W        W24788  20.757  16.139  10.953
56426W        W24789  12.625  12.659  13.348
56427W        W24790  17.134  42.420   4.662
56428W        W24791  12.785   3.385  13.971
56429W        W24792  22.034  28.445  14.813
56430W        W24793  29.538  36.429  11.466
56431W        W24794   2.746  39.975  12.471
56432W        W24795  10.785  41.950   2.362
56433W        W24796  17.725  34.909  11.921
56434W        W24797  19.229  10.271   1.709
56435W        W24798  37.879   9.386   3.664
56436W        W24799   9.221  13.300  12.532
56437W        W24800  24.541   8.893   2.869
56438W        W24801  36.088  25.077   4.677
56439W        W24802  41.988  35.551   3.727
56440W        W24803  34.594   6.293  13.021
56441W        W24804  39.840  33.978   1.879
56442W        W24805   6.204  36.096  13.416
56443W        W24806  21.236  41.318  11.455
56444W        W24807  11.135  17.761   2.778
56445W        W24808   9.654  39.335   2.309
56446W        W24809  39.412   1.296   0.439
56447W        W24810  12.150  40.341  14.001
56448W        W24811   2.934  10.632   4.730
56449W        W24812  13.127  15.272  11.443
56450W        W24813  43.871  30.454  12.043
56451W        W24814  35.601  37.983  14.351
56452W        W24815  40.815  11.784   0.382
56453W        W24816  12.305  20.262  11.401
56454W        W24817  36.483  29.616  13.908
56455W        W24818   8.814  40.535  13.917
56456W        W24819   0.919  20.557  14.904
56457W        W24820  28.057  19.214   2.196
56458W        W24821  21.231   1.404   5.147
56459W        W24822  30.613  29.550  10.161
56460W        W24823  33.549  28.971  11.999
56461W        W24824  13.612  24.508  13.874
56462W        W24825  15.610  11.137   9.957
56463W        W24826  33.529   0.988  11.944
56464W        W24827  19.099   5.270  12.522
56465W        W24828  43.480  25.635   3.703
56466W        W24829  19.638   6.690   4.606
56467W        W24830  22.617  24.715   0.433
56468W        W24831  38.938   8.173   3.380
56469W        W24832  40.519  34.547  10.453
56470W        W24833  11.254   0.385   3.710
56471W        W24834  28.465   6.701  12.355
56472W        W24835  14.107  14.203   0.858
56473W        W24836   4.223  20.040  11.595
56474W        W24837  18.726  29.486   4.129
56475W        W24838   4.928  44.891   2.337
56476W        W24839  36.903  43.494   3.299
56477W        W24840  36.423   9.694  14.780
56478W        W24841  20.722   3.909  14.457
56479W        W24842  36.853   7.752  13.983
56480W        W24843  25.002  44.378   0.339
56481W        W24844  20.744   2.966   2.821
56482W        W24845  41.895  11.229   4.174
56483W        W24846  41.373  24.671  14.845
56484W        W24847  28.587  13.208  13.432
56485W        W24848  24.119   7.883  14.476
56486W        W24849  39.898  23.536  11.008
56487W        W24850  37.930   5.312   3.317
56488W        W24851  15.176  36.962  13.360
56489W        W24852   9.303  21.216  14.974
56490W        W24853   4.205  27.142   1.433
56491W        W24854  41.407  43.468   3.267
56492W        W24855  36.523  14.161  13.962
56493W        W24856  33.414  30.466   2.840
56494W        W24857   6.367  41.450   2.317
56495W        W24858  13.605  24.569   3.787
56496W        W24859  32.099  14.153   4.832
56497W        W24860  39.001  13.670   5.319
56498W        W24861   2.347  17.700   1.290
56499W        W24862  19.204  14.175   3.165
56500W        W24863  11.687  13.190   3.377
56501W        W24864   3.713   4.746  13.362
56502W        W24865  13.117   0.381  13.866
56503W        W24866  10.798  20.192   0.949
56504W        W24867  29.463  28.101  13.427
56505W        W24868  22.216  15.102   4.259
56506W        W24869  23.491   6.737   1.828
56507W        W24870  43.945  34.113   2.330
56508W        W24871  37.573  25.131   9.987
56509W        W24872  29.158  25.663   4.726
56510W        W24873  10.319  17.139  11.980
56511W        W24874  26.081   0.822  12.832
56512W        W24875   9.337  40.897   0.771
56513W        W24876  41.312  29.994  11.075
56514W        W24877   9.718   5.382  13.536
56515W        W24878  27.581  22.064   1.383
56516W        W24879  10.818  20.751   4.192
56517W        W24880  21.581   2.241  14.509
56518W        W24881   2.283  13.136   1.908
56519W        W24882  10.327  35.428  10.636
56520W        W24883   4.759   7.803   1.906
56521W        W24884  31.115  22.025   1.794
56522W        W24885  11.662  41.486   3.278
56523W        W24886  33.541  31.903   3.802
56524W        W24887  18.135  28.502   4.236
56525W        W24888  44.270  30.940  11.101
56526W        W24889  32.069  43.918   0.380
56527W        W24890  16.587  35.468   0.464
56528W        W24891  32.449  38.561   3.729
56529W        W24892   4.406  14.221   4.170
56530W        W24893   6.745  19.266  11.023
56531W        W24894  34.521   7.370  11.602
56532W        W24895  41.324  15.739  11.382
56533W        W24896  42.363  14.608  14.326
56534W        W24897  25.131  42.397   2.360
56535W        W24898  15.749   6.232  11.474
56536W        W24899   4.749   9.337   0.280
56537W        W24900  40.043  27.491  13.805
56538W        W24901   3.913  32.629   4.641
56539W        W24902  25.125   6.889   2.348
56540W        W24903   3.227  39.966   1.729
56541W        W24904  29.072   7.722  14.482
56542W        W24905  17.759  18.558  13.869
56543W        W24906  22.683   1.741   3.718
56544W        W24907  10.144  19.274   3.829
56545W        W24908  42.493  39.815   2.294
56546W        W24909  25.027   4.807  13.794
56547W        W24910  36.944   8.825  12.058
56548W        W24911   9.172  29.162   2.192
56549W        W24912  44.463  33.444  14.769
56550W        W24913  40.971   6.360   1.795
56551W        W24914  11.798  21.176  13.526
56552W        W24915  27.980  38.075  14.417
56553W        W24916  30.082  39.472  12.449
56554W        W24917  16.574  16.778  11.912
56555W        W24918   1.273  35.988   0.289
56556W        W24919  41.359  28.132  12.913
56557W        W24920   0.781  19.160  12.382
56558W        W24921   0.892  25.052   1.826
56559W        W24922  28.672  16.086   0.460
56560W        W24923  14.713   2.253   4.293
56561W        W24924  41.968  44.825   3.207
56562W        W24925  43.967  25.991  12.369
56563W        W24926  36.393  38.379  13.905
56564W        W24927  29.093   0.810   2.322
56565W        W24928  25.596  32.102  10.937
56566W        W24929  25.512  30.654   1.830
56567W        W24930  26.576  39.552   1.248
56568W        W24931  33.497  14.334   2.766
56569W        W24932  14.596  11.188   2.687
56570W        W24933  16.145  33.004  14.295
56571W        W24934   1.377  29.562  14.830
56572W        W24935  18.199  40.341   0.903
56573W        W24936  31.120  16.702   1.902
56574W        W24937  20.136  36.360   1.327
56575W        W24938  27.084  16.624   0.758
56576W        W24939  35.374  44.494   1.362
56577W        W24940  30.475  41.332  14.933
56578W        W24941  16.089  30.964   2.854
56579W        W24942  16.156   4.852  11.975
56580W        W24943  25.044  22.744   3.787
56581W        W24944  17.101   9.851   2.240
56582W        W24945  34.575  34.383   0.467
56583W        W24946  23.193  19.219   4.809
56584W        W24947  24.027  33.084  11.463
56585W        W24948  28.462  15.725   4.754
56586W        W24949   2.349  38.067  14.436
56587W        W24950  40.520  13.799   2.773
56588W        W24951  25.671  25.487  14.478
56589W        W24952  13.626  37.966   3.365
56590W        W24953   7.307  43.404   2.378
56591W        W24954  22.714   7.882   4.772
56592W        W24955   1.371  13.220  12.345
56593W        W24956   8.276  28.058  14.288
56594W        W24957  13.343  14.690   1.319
56595W        W24958  23.680  27.075   1.802
56596W        W24959  17.125  18.096   0.383
56597W        W24960  24.075  41.312   2.673
56598W        W24961  27.496   8.328  10.419
56599W        W24962  43.782  29.446  12.341
56600W        W24963  43.488  12.233  14.515
56601W        W24964  33.014  16.698   4.627
56602W        W24965  27.958   2.727  14.280
56603W        W24966  10.878  21.120  14.871
56604W        W24967  19.159   9.393   2.371
56605W        W24968  24.479  18.202   0.392
56606W        W24969   9.760  21.726  12.489
56607W        W24970   6.233  14.685   1.399
56608W        W24971  11.791  11.684  11.118
56609W        W24972  34.453   5.749   2.265
56610W        W24973  15.814  27.038  11.578
56611W        W24974   1.813   8.267   4.627
56612W        W24975  17.160   6.771  10.490
56613W        W24976  29.526  34.937  14.014
56614W        W24977  23.602  36.904  13.896
56615W        W24978   4.305  26.590   2.349
56616W        W24979  19.190  27.691   0.331
56617W        W24980  24.010  27.646   4.712
56618W        W24981  19.097  10.719   0.797
56619W        W24982  26.080   7.844   4.710
56620W        W24983  40.890  36.349  12.390
56621W        W24984  43.404  43.894   0.799
56622W        W24985  44.316  18.789  12.486
56623W        W24986  29.426   2.853   0.294
56624W        W24987   7.691   1.450  10.533
56625W        W24988  41.837  28.623   0.902
56626W        W24989  21.645  35.871   3.630
56627W        W24990  21.574   2.250  11.898
56628W        W24991   2.783  42.892  11.931
56629W        W24992   1.277  36.470  14.508
56630W        W24993  17.306  40.896   4.798
56631W        W24994   6.400   0.754   3.658
56632W        W24995  16.131  17.242  13.825
56633W        W24996  33.109  21.663  11.986
56634W        W24997  11.278  34.939  14.832
56635W        W24998  31.896  28.004   1.347
56636W        W24999  32.139  41.956   5.198
56637W        W25000   1.342  10.764   1.885
56638W        W25001  39.814  39.545   1.324
56639W        W25002  41.309  37.867  14.313
56640W        W25003   6.680   3.292   3.227
56641W        W25004  38.911  36.456   0.935
56642W        W25005  15.153  32.600   0.479
56643W        W25006  22.185  24.204  13.935
56644W        W25007   8.833  21.171  12.928
56645W        W25008  29.072  14.634  13.309
56646W        W25009  24.195  41.913   4.821
56647W        W25010  35.047  35.378  12.369
56648W        W25011  25.656  33.002  13.045
56649W        W25012  22.701  30.558   5.172
56650W        W25013  17.133  39.039  14.407
56651W        W25014  27.094  15.724  14.982
56652W        W25015  18.771  40.311  14.395
56653W        W25016  40.388  30.059  12.444
56654W        W25017  30.994  23.638   1.440
56655W        W25018  34.494  43.343   3.808
56656W        W25019  34.539  27.138  11.890
56657W        W25020  23.500  17.304  12.463
56658W        W25021  17.078  43.020   1.227
56659W        W25022   5.334  42.777  13.016
56660W        W25023   8.289  28.545  13.438
56661W        W25024  18.081  44.891   9.440
56662W        W25025  33.514  29.993  14.815
56663W        W25026  29.014   5.224   2.220
56664W        W25027  38.011  26.962  12.841
56665W        W25028  20.041   9.276  13.858
56666W        W25029  31.412  31.904   3.641
56667W        W25030  27.575  15.136  10.549
56668W        W25031   4.240   9.774  14.858
56669W        W25032  35.358  29.669  12.843
56670W        W25033  12.622  17.138  12.414
56671W        W25034  40.371   5.798   3.238
56672W        W25035  21.696  13.661  11.496
56673W        W25036   2.730   3.943  10.592
56674W        W25037  18.267  42.837  12.087
56675W        W25038  39.508  35.966   3.766
56676W        W25039  19.726   5.390  11.407
56677W        W25040   2.245  22.682  13.497
56678W        W25041  33.412   7.222  10.505
56679W        W25042  20.095  13.348   1.856
56680W        W25043   9.714  17.725  14.461
56681W        W25044  29.657  28.107   0.262
56682W        W25045  44.476  37.396  10.474
56683W        W25046  39.989   1.975  12.572
56684W        W25047   8.349  16.772  10.903
56685W        W25048  11.834   1.275  12.415
56686W        W25049   1.856  22.668   4.601
56687W        W25050  34.092  15.733  13.931
56688W        W25051  35.580  28.602   2.232
56689W        W25052  26.476  24.105   3.693
56690W        W25053  35.398   0.945   4.314
56691W        W25054   3.334   4.435   4.607
56692W        W25055  42.518  32.556   3.739
56693W        W25056  16.687  27.651  12.550
56694W        W25057  43.431   6.219  12.898
56695W        W25058  28.971  16.232  14.502
56696W        W25059  40.337  12.189  11.904
56697W        W25060  26.651  33.092  11.071
56698W        W25061  14.713  18.266  14.761
56699W        W25062  41.459  23.024  12.969
56700W        W25063   7.903  27.042  14.394
56701W        W25064  26.149   6.356   1.436
56702W        W25065  27.958  42.523  13.465
56703W        W25066  19.717  41.421  10.487
56704W        W25067  20.095   6.316  12.381
56705W        W25068  19.186  28.066  11.528
56706W        W25069  13.247  21.732  14.485
56707W        W25070   5.727  37.380   2.400
56708W        W25071  29.955  22.555   1.337
56709W        W25072  11.279  28.126   3.703
56710W        W25073  38.040  40.898   3.302
56711W        W25074  19.599  18.231   0.257
56712W        W25075  21.054  27.044   0.362
56713W        W25076  41.926  12.326   2.841
56714W        W25077  36.508  13.349   2.787
56715W        W25078  44.353  10.769  10.560
56716W        W25079  14.745  38.420   1.363
56717W        W25080  41.303   7.755   0.894
56718W        W25081  15.280  33.988   1.447
56719W        W25082  22.217  21.166  14.948
56720W        W25083  44.380  38.509  10.130
56721W        W25084  35.988  11.656   3.647
56722W        W25085   3.386  14.828  14.302
56723W        W25086  17.212  22.668   4.617
56724W        W25087   7.323  40.505  14.008
56725W        W25088  27.490  39.933  12.467
56726W        W25089  17.227  26.180  12.824
56727W        W25090  29.539  40.392   2.343
56728W        W25091   6.741  20.631   3.691
56729W        W25092   7.718  37.029  11.416
56730W        W25093  38.492  24.716  11.408
56731W        W25094  12.683   6.838   0.294
56732W        W25095   9.815   9.842  12.037
56733W        W25096  26.167   3.922  11.975
56734W        W25097  25.040  36.045   0.936
56735W        W25098  24.603   1.821  10.939
56736W        W25099   6.841  11.133  14.026
56737W        W25100  14.648   2.425   2.799
56738W        W25101  24.099   8.740  12.051
56739W        W25102  28.020  11.769  10.470
56740W        W25103  43.377  37.450   1.227
56741W        W25104   4.698   2.314   0.801
56742W        W25105  43.890   3.862   3.188
56743W        W25106  24.170  40.504   0.396
56744W        W25107  15.192  25.667   2.864
56745W        W25108   1.254  39.399   0.474
56746W        W25109  41.018  14.804  11.490
56747W        W25110   8.365   7.280   3.240
56748W        W25111  15.692   5.377  12.569
56749W        W25112  14.760  22.551  11.069
56750W        W25113   2.758  15.649   2.415
56751W        W25114  16.237   8.710  12.984
56752W        W25115  10.368  35.556  11.006
56753W        W25116  15.193  39.476  10.472
56754W        W25117  18.157   3.355   3.863
56755W        W25118  35.449  32.483  10.468
56756W        W25119  21.047  22.680  12.455
56757W        W25120  42.924  44.778  10.425
56758W        W25121  12.204  17.790  13.007
56759W        W25122  32.633  35.507  11.521
56760W        W25123   5.847   4.723   4.166
56761W        W25124  36.492  23.579   2.306
56762W        W25125   7.708  44.471   1.307
56763W        W25126  29.531   4.937  10.946
56764W        W25127  10.845   0.875  11.555
56765W        W25128  31.040  37.980   4.624
56766W        W25129  15.750  29.933   3.818
56767W        W25130  44.312  16.582   4.817
56768W        W25131  11.822  25.690   0.370
56769W        W25132   4.930  16.650   2.302
56770W        W25133  27.557   9.217  13.411
56771W        W25134   2.835  39.885  13.464
56772W        W25135  37.524  15.618   4.610
56773W        W25136  22.997   1.369   3.309
56774W        W25137  33.619  36.431   3.632
56775W        W25138  20.646  28.102   4.256
56776W        W25139  30.636  40.418   4.714
56777W        W25140   3.405  14.282  11.897
56778W        W25141  29.929  43.408   0.799
56779W        W25142  20.567  22.095   4.616
56780W        W25143  28.125  23.989  13.333
56781W        W25144  27.104  42.446  11.945
56782W        W25145  15.302  25.218  12.067
56783W        W25146   0.365  32.489   2.371
56784W        W25147   3.812   5.274  12.990
56785W        W25148  10.203   8.659   4.236
56786W        W25149  16.212  10.171  14.965
56787W        W25150  44.316  17.105  10.493
56788W        W25151  33.915  23.174  12.555
56789W        W25152  31.117  38.864  10.599
56790W        W25153  36.891  12.659  12.352
56791W        W25154  29.462  40.802  10.406
56792W        W25155  32.134   1.883   4.703
56793W        W25156  32.976   5.904   0.277
56794W        W25157  30.458  42.843  11.969
56795W        W25158  16.808  37.958  11.407
56796W        W25159  23.682   2.335  13.869
56797W        W25160  16.743   0.366   0.817
56798W        W25161  27.002   2.785   1.265
56799W        W25162  28.650  28.086   4.346
56800W        W25163  37.476  38.052   0.344
56801W        W25164  44.767  19.687  11.507
56802W        W25165  12.360  11.231  13.484
56803W        W25166  10.804  18.059   4.667
56804W        W25167   5.888  13.682   3.695
56805W        W25168  21.657  27.455  13.856
56806W        W25169  23.155  17.148   1.234
56807W        W25170  22.606  24.674  13.413
56808W        W25171   7.748  11.699   0.810
56809W        W25172   1.852   0.836  11.862
56810W        W25173  26.675  31.041  14.845
56811W        W25174   7.905  36.042  14.313
56812W        W25175   8.296   8.206   0.831
56813W        W25176   2.358   6.193  10.521
56814W        W25177  39.878  29.576  13.427
56815W        W25178   6.322  15.778   4.349
56816W        W25179   0.818   8.701  11.540
56817W        W25180  39.946  24.003  13.927
56818W        W25181   5.916  11.307  12.341
56819W        W25182  17.149  43.307  12.911
56820W        W25183  33.381  12.733  13.041
56821W        W25184  37.554  28.626  10.963
56822W        W25185  42.387  20.624   3.379
56823W        W25186   8.834  19.641   1.395
56824W        W25187  39.831  40.014  12.460
56825W        W25188  31.119  13.735  12.363
56826W        W25189  43.508  32.927   0.769
56827W        W25190   0.414  13.621   3.386
56828W        W25191  30.577  26.060  13.022
56829W        W25192  39.825  10.307  11.394
56830W        W25193  35.901  19.615  13.415
56831W        W25194  41.514   8.210   1.865
56832W        W25195   4.331  20.185   4.191
56833W        W25196  26.612   2.808  11.934
56834W        W25197   4.289  32.895  12.001
56835W        W25198  43.398   8.404   2.335
56836W        W25199  42.522  36.043  11.494
56837W        W25200  33.446  12.723  13.879
56838W        W25201  33.947   3.242   2.876
56839W        W25202  29.594   9.863  10.948
56840W        W25203  31.587  41.812  13.491
56841W        W25204  23.497  35.945   3.671
56842W        W25205  19.556  21.085  13.052
56843W        W25206  36.890  20.724  11.428
56844W        W25207   5.431   4.243  11.073
56845W        W25208  35.390  11.775   2.207
56846W        W25209  42.481  22.745   4.321
56847W        W25210  27.579  43.480  13.984
56848W        W25211  25.091  18.606   3.800
56849W        W25212   0.944  39.967  13.937
56850W        W25213   0.929   3.931  13.979
56851W        W25214   9.766  19.284   0.290
56852W        W25215   8.352  27.525  11.547
56853W        W25216  15.784  22.586  11.528
56854W        W25217  43.961   8.338   4.756
56855W        W25218  19.719  30.024  12.441
56856W        W25219  27.084  26.607  13.915
56857W        W25220  39.345  17.800  14.319
56858W        W25221  28.161  16.740   0.252
56859W        W25222  19.257  10.249  14.843
56860W        W25223   8.285  41.903   1.926
56861W        W25224  38.913   0.440   0.929
56862W        W25225  21.590  23.698   4.747
56863W        W25226   9.165  34.552  14.860
56864W        W25227  36.521  34.517  10.518
56865W        W25228  36.501   7.744  11.503
56866W        W25229   5.352  42.015   1.863
56867W        W25230  33.469  42.514   4.758
56868W        W25231   7.819  14.206  13.358
56869W        W25232   8.694  11.716   5.258
56870W        W25233  17.076  43.902   4.238
56871W        W25234   6.262  14.268   5.313
56872W        W25235  11.308  10.703  11.097
56873W        W25236  40.315  24.078   2.813
56874W        W25237  38.493  22.163   1.786
56875W        W25238  28.137  34.380   2.685
56876W        W25239  40.314  33.943   2.417
56877W        W25240  24.523  28.664   1.272
56878W        W25241  24.513  43.969   3.387
56879W        W25242  41.409  40.400  13.511
56880W        W25243  28.441  14.811   5.281
56881W        W25244  15.590  35.468  14.278
56882W        W25245  20.680   6.814  11.557
56883W        W25246  30.035  26.550  11.544
56884W        W25247  34.922  21.695   2.811
56885W        W25248  20.593  16.654  10.888
56886W        W25249  38.034   9.174   2.189
56887W        W25250  29.048  14.712   5.139
56888W        W25251  33.921   9.690   2.252
56889W        W25252  30.053  39.922  12.980
56890W        W25253  26.644  24.207   5.229
56891W        W25254  29.972  26.080   1.860
56892W        W25255  18.292  10.867   3.741
56893W        W25256   7.179  23.228  14.869
56894W        W25257  31.960  41.297  10.123
56895W        W25258   8.166  25.039   4.165
56896W        W25259  28.126   7.283   4.624
56897W        W25260  29.929   7.309  12.885
56898W        W25261  23.016  40.964  13.420
56899W        W25262   4.438  11.647   2.853
56900W        W25263   5.839  12.349  13.401
56901W        W25264  36.035  43.433  11.491
56902W        W25265  31.533  19.545   2.266
56903W        W25266  44.765  20.249  14.437
56904W        W25267  20.201   8.667  14.991
56905W        W25268   5.746   4.325  12.928
56906W        W25269  18.634  21.683   1.451
56907W        W25270  41.470  20.089  14.278
56908W        W25271   3.406  10.326  14.390
56909W        W25272  29.075  12.803  10.609
56910W        W25273  31.075  13.813  12.042
56911W        W25274   6.914   6.226   4.647
56912W        W25275  10.200  34.034  10.961
56913W        W25276   0.810   1.372   2.875
56914W        W25277  22.545  11.711  13.856
56915W        W25278   5.234   5.716  11.868
56916W        W25279  23.061  42.786  11.046
56917W        W25280  10.729  18.756  12.384
56918W        W25281   0.896  39.022   3.803
56919W        W25282  42.793   8.311   2.758
56920W        W25283  12.299  18.608   2.318
56921W        W25284  18.567   3.276   4.324
56922W        W25285  32.896   2.754  14.791
56923W        W25286  33.043  44.967   5.277
56924W        W25287  30.624   4.805   0.839
56925W        W25288  36.971  29.493  11.867
56926W        W25289  12.694  17.245  13.400
56927W        W25290  15.296  35.044   3.248
56928W        W25291  18.669   7.820   1.239
56929W        W25292  30.512   1.868   3.317
56930W        W25293  29.930   3.397  14.344
56931W        W25294  43.427  38.478  10.091
56932W        W25295   8.750  26.086  14.930
56933W        W25296  35.358   5.813  12.091
56934W        W25297  30.956  39.984  12.463
56935W        W25298  43.404  40.403  14.890
56936W        W25299  43.793  15.315  11.113
56937W        W25300  37.493  40.995  10.518
56938W        W25301  10.346  12.714   0.467
56939W        W25302  27.135  22.186   0.398
56940W        W25303  29.442  24.589   3.642
56941W        W25304  33.035  44.503   9.620
56942W        W25305  35.370  41.994   3.291
56943W        W25306  31.064  24.998   3.352
56944W        W25307   0.945  17.067  13.890
56945W        W25308  36.493  40.462   4.810
56946W        W25309  31.079  40.919   3.713
56947W        W25310  34.590  15.308   4.254
56948W        W25311   8.723  44.358  10.564
56949W        W25312  44.344   0.280  14.830
56950W        W25313  18.681  32.027  11.904
56951W        W25314  35.408  27.559   4.174
56952W        W25315  31.516   4.890   1.869
56953W        W25316  32.453  17.732   0.296
56954W        W25317   5.870  43.818   0.885
56955W        W25318  43.828  29.115   4.807
56956W        W25319  42.282   6.872  14.844
56957W        W25320   8.344  45.000   2.896
56958W        W25321  36.890  38.373   4.789
56959W        W25322  23.092  36.011   4.138
56960W        W25323  25.644  12.309   0.301
56961W        W25324  17.104   1.752  12.549
56962W        W25325  21.227   4.314  14.510
56963W        W25326  38.544   5.711   3.380
56964W        W25327  34.419   8.161   1.307
56965W        W25328   3.875  31.537  11.895
56966W        W25329  19.149  19.044  14.997
56967W        W25330  23.155  10.698   2.895
56968W        W25331   8.818  35.910   1.294
56969W        W25332  10.237  44.299  14.968
56970W        W25333  12.129  26.196   1.907
56971W        W25334  15.749  33.119   3.369
56972W        W25335  41.877  36.986   3.731
56973W        W25336  24.708  12.641   4.297
56974W        W25337  44.824  12.771   4.631
56975W        W25338  44.342   7.763  11.907
56976W        W25339   4.319   3.829   4.120
56977W        W25340  43.384   5.278   3.669
56978W        W25341  43.013  41.897  11.602
56979W        W25342  25.215   1.449  13.437
56980W        W25343  30.007  12.634  11.910
56981W        W25344  18.750  37.007   4.676
56982W        W25345  17.592  37.032   2.683
56983W        W25346  21.089  20.203   3.282
56984W        W25347  14.277  43.987  13.064
56985W        W25348  12.765  24.056  13.970
56986W        W25349  13.178  30.145   3.332
56987W        W25350  33.096   5.337  13.018
56988W        W25351  35.455  25.502  12.005
56989W        W25352  26.186  18.625  13.510
56990W        W25353  21.604  43.897   0.832
56991W        W25354  21.090  29.439  13.344
56992W        W25355  18.774  30.479   3.285
56993W        W25356  15.685  42.857   1.804
56994W        W25357  14.649   4.362   1.890
56995W        W25358   0.936  29.064   0.805
56996W        W25359  32.062  42.865   3.264
56997W        W25360  30.619  41.042   1.752
56998W        W25361  11.863  23.730  12.363
56999W        W25362  12.267  24.175   0.764
57000W        W25363  29.580  19.188  12.342
57001W        W25364  29.600  42.316   3.298
57002W        W25365  21.063  34.376   2.711
57003W        W25366  11.228  39.901  13.995
57004W        W25367  43.380   6.858  14.484
57005W        W25368  12.642   4.261   0.319
57006W        W25369  18.714  30.909  14.357
57007W        W25370  20.633  11.806   1.434
57008W        W25371  23.701  34.111   1.835
57009W        W25372  33.476  35.947   0.406
57010W        W25373   2.341  19.066  12.858
57011W        W25374  39.548   1.948   5.108
57012W        W25375   8.379  11.817   4.716
57013W        W25376  34.936   5.295  10.604
57014W        W25377  15.731  33.433  11.906
57015W        W25378  14.311  14.775  12.413
57016W        W25379  18.245   3.458  11.506
57017W        W25380  13.302  14.738  10.439
57018W        W25381   3.822  10.254  13.467
57019W        W25382  36.485  40.042  10.478
57020W        W25383  13.685  22.200   3.826
57021W        W25384   5.333  39.908  10.510
57022W        W25385  11.194  42.290   2.831
57023W        W25386  27.513  19.702   1.256
57024W        W25387  12.663  26.033   1.779
57025W        W25388  16.108   1.847   4.705
57026W        W25389  27.196   8.348  12.034
57027W        W25390   8.170  27.490  14.899
57028W        W25391  28.614  43.482  11.565
57029W        W25392   0.467  34.422   1.338
57030W        W25393  21.651   4.422   1.231
57031W        W25394  13.636   4.213  14.500
57032W        W25395  39.540  34.449   2.895
57033W        W25396  16.634   8.714  14.897
57034W        W25397  10.650  26.657   1.783
57035W        W25398  26.138  15.670   4.343
57036W        W25399  38.466   4.845  13.057
57037W        W25400  33.568   9.149   3.255
57038W        W25401  33.013  16.798  12.495
57039W        W25402  35.598  36.940   1.244
57040W        W25403   9.221  40.032  12.894
57041W        W25404  37.061  13.327  13.531
57042W        W25405   3.846  14.173  13.888
57043W        W25406   2.768   4.411   2.201
57044W        W25407  23.157   4.425  10.615
57045W        W25408  43.442  18.132  10.410
57046W        W25409  18.134  15.196   3.820
57047W        W25410  37.377  35.450  10.447
57048W        W25411  20.572  43.976  14.895
57049W        W25412   8.240  21.211   4.184
57050W        W25413  11.812  25.050   2.354
57051W        W25414  26.151  20.682  12.993
57052W        W25415  37.369  15.210  13.064
57053W        W25416  19.775  33.607   2.194
57054W        W25417  25.643  15.195  14.444
57055W        W25418  11.819  23.635  10.415
57056W        W25419   7.703  43.771  12.404
57057W        W25420  22.009  42.890  11.386
57058W        W25421  16.184  11.247  11.386
57059W        W25422   0.769  40.548   3.335
57060W        W25423  30.149  41.905   4.621
57061W        W25424  21.519   7.339   2.279
57062W        W25425   8.775  29.471   3.658
57063W        W25426  17.184  19.215   3.840
57064W        W25427  40.374  17.190   3.738
57065W        W25428   6.423  37.064   1.763
57066W        W25429  27.110  42.423   0.334
57067W        W25430  30.099  41.441  14.858
57068W        W25431  27.060  26.057  14.030
57069W        W25432   7.386  39.470   0.922
57070W        W25433  14.329  28.140  11.921
57071W        W25434  40.495  16.673  14.420
57072W        W25435  42.882  44.900   2.869
57073W        W25436  17.608  21.757  14.859
57074W        W25437  35.429  34.960  13.962
57075W        W25438   0.902  23.230  14.455
57076W        W25439  13.621   3.439  12.487
57077W        W25440  33.524  18.761   4.810
57078W        W25441   0.260  35.869   9.999
57079W        W25442  35.882  13.779  12.898
57080W        W25443  21.217  25.185  14.498
57081W        W25444  16.151   5.237   1.383
57082W        W25445  37.968  22.018   1.260
57083W        W25446   7.816  26.958   1.310
57084W        W25447   3.787  22.999  14.376
57085W        W25448  16.202  43.835   3.668
57086W        W25449  15.727  12.227  11.561
57087W        W25450  17.270  41.436   0.861
57088W        W25451  37.830  26.995  14.914
57089W        W25452  43.012  21.733   4.830
57090W        W25453  39.831  21.609   3.849
57091W        W25454  13.752  37.413  10.438
57092W        W25455  23.719  35.865  13.004
57093W        W25456   9.378  11.801  11.936
57094W        W25457  19.658  16.142  14.352
57095W        W25458  27.976  11.153  14.979
57096W        W25459  23.102   2.764   0.420
57097W        W25460   7.188  11.713  11.454
57098W        W25461  30.576   8.293   3.220
57099W        W25462   4.403  28.016  13.874
57100W        W25463  16.616  10.754   0.947
57101W        W25464  16.619  30.955  11.034
57102W        W25465  44.454  17.763   5.086
57103W        W25466  11.784   8.784   3.775
57104W        W25467  16.273   8.824  13.845
57105W        W25468  40.969  33.587  11.054
57106W        W25469  43.005   5.346  12.381
57107W        W25470   2.249  16.764   4.746
57108W        W25471  11.276  44.878  11.902
57109W        W25472  35.396  10.293   4.238
57110W        W25473  26.461  31.990  13.539
57111W        W25474  12.331  20.087   2.228
57112W        W25475  11.237  35.521   4.327
57113W        W25476  26.507  33.880   3.851
57114W        W25477  28.057  38.973   5.145
57115W        W25478  10.674  38.393  10.521
57116W        W25479  12.270  31.108   1.325
57117W        W25480  32.423   2.319   9.999
57118W        W25481  44.377  23.520   1.844
57119W        W25482   2.465  42.318   0.826
57120W        W25483  26.058   2.427   0.754
57121W        W25484  30.475  26.574   2.272
57122W        W25485  11.715  28.629   4.723
57123W        W25486  30.424  38.543  12.352
57124W        W25487  18.699  37.391  12.949
57125W        W25488  40.520   5.769  11.393
57126W        W25489  35.566  23.559   3.835
57127W        W25490  44.308  34.550   3.347
57128W        W25491  23.015  27.656   0.903
57129W        W25492  26.698  11.369  12.888
57130W        W25493  13.773   8.847  13.359
57131W        W25494  36.934  32.469   3.184
57132W        W25495  29.603  29.545  13.510
57133W        W25496  28.565  18.165   0.896
57134W        W25497  11.692  13.660  11.954
57135W        W25498  40.354   5.851   2.825
57136W        W25499  15.807  29.947   1.833
57137W        W25500  39.832  31.061   2.694
57138W        W25501   0.347   2.780  12.462
57139W        W25502   9.196  20.084   0.801
57140W        W25503  32.059  34.901  12.995
57141W        W25504   6.921  27.646   3.650
57142W        W25505   8.763  10.846  14.975
57143W        W25506  43.768  41.931  10.908
57144W        W25507  31.964  30.106   2.265
57145W        W25508   8.355  20.758   0.961
57146W        W25509  28.001   4.869  11.922
57147W        W25510  11.830   5.862  13.043
57148W        W25511   2.937  14.629  10.947
57149W        W25512  24.579  30.095  10.412
57150W        W25513  20.658   9.181   0.412
57151W        W25514   1.271  43.930   4.163
57152W        W25515  14.304  36.371  14.891
57153W        W25516  37.357  23.627  11.562
57154W        W25517  10.158  40.403   0.777
57155W        W25518  31.913  32.916   0.450
57156W        W25519  24.220   9.207  11.004
57157W        W25520  10.371  37.481  12.929
57158W        W25521  39.889  41.971   0.823
57159W        W25522  21.104   3.322  13.318
57160W        W25523  30.154   1.282  12.873
57161W        W25524  31.144  39.498  14.338
57162W        W25525  24.213  36.880  13.534
57163W        W25526  43.873  44.401   4.252
57164W        W25527   5.326  16.100  14.016
57165W        W25528  18.177   6.769  13.308
57166W        W25529  19.268  33.594   3.860
57167W        W25530  24.594  22.249  11.547
57168W        W25531  19.759  27.018  12.017
57169W        W25532  19.544  22.108  11.992
57170W        W25533  15.144   5.251  11.574
57171W        W25534  27.960  36.884   3.214
57172W        W25535  34.442  28.606   3.639
57173W        W25536  39.368  15.272   3.867
57174W        W25537  20.729  30.482   4.343
57175W        W25538  29.924   7.757  11.494
57176W        W25539   2.433  26.028  13.946
57177W        W25540   1.415  43.429   4.646
57178W        W25541  33.022  20.216  13.008
57179W        W25542   3.716  11.339   3.700
57180W        W25543  15.286  13.823   1.828
57181W        W25544  12.225  10.344   0.837
57182W        W25545  10.646   4.726  13.849
57183W        W25546   5.370   4.844   1.285
57184W        W25547  16.635  20.636   4.294
57185W        W25548  14.798  15.743  11.474
57186W        W25549  13.239  29.165   3.789
57187W        W25550   2.930  12.221  10.509
57188W        W25551   5.417   8.893  13.543
57189W        W25552  11.836  16.768  12.078
57190W        W25553  22.078  44.807   0.244
57191W        W25554  43.980  19.682  13.972
57192W        W25555  12.611  24.523  13.334
57193W        W25556  30.437   2.789  13.853
57194W        W25557   1.948  27.109   4.765
57195W        W25558  44.330   5.204   2.725
57196W        W25559  29.925  32.400   0.834
57197W        W25560  32.030  13.333   5.153
57198W        W25561  33.437  22.610   3.318
57199W        W25562  42.827  35.367   5.675
57200W        W25563  23.538  37.455  14.887
57201W        W25564   5.721   1.299  11.075
57202W        W25565  13.789  27.597  10.977
57203W        W25566  28.127  20.185   3.249
57204W        W25567  39.065  40.305  11.451
57205W        W25568   8.698  28.482   0.252
57206W        W25569  22.643  25.557  11.585
57207W        W25570  23.205  21.137  11.522
57208W        W25571   6.269  32.517  13.407
57209W        W25572  10.642  27.449  12.567
57210W        W25573   3.850  19.728   9.961
57211W        W25574  37.878  15.112  11.099
57212W        W25575  30.645  33.447   3.720
57213W        W25576  37.355  43.327  11.498
57214W        W25577  44.840  44.869   4.130
57215W        W25578   9.861   9.666   3.387
57216W        W25579  44.483  34.947  14.431
57217W        W25580  41.293  21.609  11.938
57218W        W25581  18.728   3.282  12.395
57219W        W25582  13.128  33.433   0.372
57220W        W25583  22.612  10.269   2.360
57221W        W25584   3.285   0.388   4.169
57222W        W25585  12.764  35.025   3.730
57223W        W25586   2.347  13.281   3.720
57224W        W25587  40.501  39.033  12.056
57225W        W25588  10.797  29.567  11.986
57226W        W25589  23.062   8.854   0.820
57227W        W25590  34.441   3.231  14.905
57228W        W25591  26.070  29.453   3.252
57229W        W25592   3.712  38.538  14.861
57230W        W25593  14.156  18.628   5.212
57231W        W25594  38.548  27.653   1.253
57232W        W25595  27.632   8.735  12.077
57233W        W25596  44.977  23.007  10.960
57234W        W25597  19.742  27.667  13.898
57235W        W25598   1.363  37.370   3.803
57236W        W25599  26.108  22.198  12.384
57237W        W25600  14.173  44.293   3.633
57238W        W25601   2.742   3.765   1.818
57239W        W25602   1.807   0.327   1.708
57240W        W25603   7.365  31.948  11.612
57241W        W25604  43.776  17.202  14.849
57242W        W25605  22.541  36.881  11.121
57243W        W25606  36.459  44.464   1.303
57244W        W25607   0.468  13.639  11.895
57245W        W25608  32.101  28.164  13.792
57246W        W25609   3.883  15.803  13.517
57247W        W25610  32.509  16.660   0.246
57248W        W25611  39.436  30.082   0.461
57249W        W25612  12.643  27.042  10.617
57250W        W25613  30.486  26.194   1.933
57251W        W25614  16.627  31.038  13.406
57252W        W25615  13.735  10.304   1.231
57253W        W25616   7.333  44.812  14.497
57254W        W25617   6.408   9.155  13.927
57255W        W25618  27.013  39.485   3.156
57256W        W25619   3.379  29.457   1.750
57257W        W25620   0.378  30.607   0.332
57258W        W25621   7.739   4.375  13.510
57259W        W25622  38.346  40.826   1.805
57260W        W25623  36.941   9.305  14.276
57261W        W25624  27.004  22.066   4.674
57262W        W25625  10.234  41.357  11.934
57263W        W25626  30.615   7.828  12.988
57264W        W25627   4.922   8.704  10.153
57265W        W25628  35.861  27.967   4.351
57266W        W25629  38.886  26.690   2.799
57267W        W25630  24.595  23.511  14.342
57268W        W25631  38.470  34.940   1.331
57269W        W25632  33.412  10.714  12.951
57270W        W25633  18.573  19.614  10.634
57271W        W25634  38.566  26.024  13.534
57272W        W25635  12.784   1.345   2.348
57273W        W25636  22.233  22.159   1.876
57274W        W25637  27.684   7.705  14.307
57275W        W25638  13.654  24.116  13.434
57276W        W25639  20.270  43.970  10.894
57277W        W25640  41.876  41.833   4.174
57278W        W25641  13.673  28.650  14.452
57279W        W25642  26.030  27.084   4.136
57280W        W25643   2.912  31.900   0.836
57281W        W25644  34.972  22.553   2.311
57282W        W25645  26.471   4.406   0.960
57283W        W25646   9.815  10.166   5.133
57284W        W25647  39.985   7.803   1.387
57285W        W25648  30.979   8.271   4.694
57286W        W25649  18.708  31.093   2.681
57287W        W25650  15.755  11.233  14.959
57288W        W25651  36.548  14.829   3.817
57289W        W25652  31.630  33.919   0.774
57290W        W25653  24.585  17.557   4.606
57291W        W25654  24.200  10.842   0.788
57292W        W25655  25.498  44.873   0.341
57293W        W25656  26.514  16.582  13.961
57294W        W25657  36.510  30.089   3.631
57295W        W25658  44.888  17.623  11.410
57296W        W25659  35.489   5.241  11.410
57297W        W25660   0.845  22.562  10.911
57298W        W25661   6.781  12.669   4.629
57299W        W25662  10.871  13.139  10.508
57300W        W25663  39.987  24.058  11.386
57301W        W25664   6.390  23.706   3.247
57302W        W25665   0.804  35.457  13.506
57303W        W25666  14.636  32.071  13.056
57304W        W25667  31.993  17.582   2.280
57305W        W25668  43.950  29.620  11.089
57306W        W25669   8.401  17.591  11.538
57307W        W25670   2.457  31.559  11.433
57308W        W25671  17.096  27.173   1.728
57309W        W25672  37.407  11.754   1.886
57310W        W25673   9.188  17.206   4.284
57311W        W25674  44.360  11.766   3.641
57312W        W25675   1.875  30.126  11.993
57313W        W25676  12.791  42.352  13.046
57314W        W25677  16.279  42.293  14.302
57315W        W25678   8.388  16.671   1.348
57316W        W25679   9.366   8.713  14.972
57317W        W25680  38.461  22.725  14.454
57318W        W25681  18.112  23.617   1.366
57319W        W25682  31.523  35.105   4.605
57320W        W25683   1.746   9.678   1.248
57321W        W25684  44.894  38.916  11.968
57322W        W25685  37.850  30.421   0.864
57323W        W25686  38.349  43.808   0.383
57324W        W25687  23.554   6.268   0.420
57325W        W25688   0.775  22.013  11.907
57326W        W25689   4.277  42.001   0.740
57327W        W25690   8.312  17.570   4.786
57328W        W25691   7.347  30.516  13.970
57329W        W25692  20.617  30.466   0.352
57330W        W25693  39.501  33.011  14.489
57331W        W25694  16.609  27.554  12.019
57332W        W25695  15.159  39.358   0.791
57333W        W25696  30.643  37.376  14.821
57334W        W25697  19.079  19.686   0.294
57335W        W25698  42.819   8.380   2.316
57336W        W25699  39.331  33.606   1.803
57337W        W25700  28.572  32.889   3.241
57338W        W25701  23.615   7.243  10.985
57339W        W25702   9.708  11.626  11.527
57340W        W25703  15.633  42.842   4.123
57341W        W25704  43.515  35.471  14.288
57342W        W25705  36.871  30.454   0.783
57343W        W25706  20.088  44.879  11.003
57344W        W25707  13.220   3.229  13.432
57345W        W25708  11.367   6.698  10.466
57346W        W25709  25.993  21.615  12.560
57347W        W25710  43.441  13.179   0.340
57348W        W25711   3.443  34.565   4.826
57349W        W25712  14.742  35.083  11.587
57350W        W25713   1.360  25.524  10.410
57351W        W25714  12.168  27.074  13.509
57352W        W25715  26.493  23.068   1.317
57353W        W25716  19.537  38.352  13.994
57354W        W25717  28.550  29.077  14.411
57355W        W25718   7.840  27.109   3.381
57356W        W25719  42.890  33.404   2.233
57357W        W25720  17.713  22.209   3.360
57358W        W25721  43.310  18.567   3.850
57359W        W25722   5.809  35.569   2.793
57360W        W25723  25.021   0.968  10.961
57361W        W25724  10.859  43.290  12.868
57362W        W25725   4.759  35.501  14.440
57363W        W25726   4.309  16.226  10.513
57364W        W25727  31.952   5.369   3.378
57365W        W25728   3.368   0.949   0.350
57366W        W25729  25.199  25.100  12.043
57367W        W25730  16.625  33.996  10.542
57368W        W25731  17.612  35.109   2.773
57369W        W25732  15.136  30.911   2.888
57370W        W25733  23.705  44.796  10.459
57371W        W25734   9.223  20.613  11.867
57372W        W25735  26.005  33.391   1.819
57373W        W25736  18.248  26.955   2.788
57374W        W25737   4.805  38.407  12.898
57375W        W25738  23.567  28.045  11.935
57376W        W25739   0.898  17.735   2.403
57377W        W25740  11.301  43.850  14.826
57378W        W25741  42.025  36.874  10.908
57379W        W25742  21.735   8.865   3.743
57380W        W25743  36.519  24.593  11.607
57381W        W25744   6.340  42.300  11.464
57382W        W25745  29.434  43.343  14.991
57383W        W25746  43.347  40.800  10.942
57384W        W25747   9.198   7.701  12.944
57385W        W25748   1.854  11.146   3.356
57386W        W25749  30.544   4.877   0.258
57387W        W25750  30.532   8.191  10.926
57388W        W25751  18.615  26.675   3.273
57389W        W25752  40.532   0.313  12.993
57390W        W25753  43.316  35.984   2.336
57391W        W25754  17.739  19.202  14.396
57392W        W25755   0.296  20.690   2.707
57393W        W25756  42.799  35.053  10.919
57394W        W25757  22.158  21.160  11.888
57395W        W25758  31.903  12.737  14.029
57396W        W25759  12.162   3.414  14.934
57397W        W25760  32.903  26.578   0.935
57398W        W25761  39.018  31.949   4.799
57399W        W25762   9.190   0.252  12.933
57400W        W25763  22.631  38.385  13.909
57401W        W25764  40.428  39.531  13.488
57402W        W25765  10.763   5.786  14.868
57403W        W25766  13.757  35.363   0.465
57404W        W25767  43.842  28.122   4.286
57405W        W25768  16.570  29.447  11.076
57406W        W25769  22.174  31.081  12.368
57407W        W25770  18.093   8.172  14.855
57408W        W25771   8.225  39.451  10.926
57409W        W25772  23.640  39.913   2.404
57410W        W25773  33.978   0.371   0.243
57411W        W25774  42.873  21.628   1.909
57412W        W25775  25.032   0.488  12.058
57413W        W25776   2.921   6.913   3.242
57414W        W25777  31.958   2.963  12.465
57415W        W25778  13.343   6.297   4.604
57416W        W25779  31.102   1.860   1.265
57417W        W25780   7.344   8.243  11.944
57418W        W25781  28.950  38.567  12.574
57419W        W25782  25.543  26.159   2.198
57420W        W25783  43.998  16.666   4.146
57421W        W25784  12.831  11.804  12.923
57422W        W25785  22.161   0.930  13.822
57423W        W25786   8.296   7.896   2.706
57424W        W25787  20.648  26.498  12.045
57425W        W25788  30.569  17.592  11.600
57426W        W25789   0.475  18.713  13.424
57427W        W25790  21.680   8.253   2.378
57428W        W25791  15.292  21.695  12.562
57429W        W25792  14.257  18.212   0.826
57430W        W25793  11.741   2.404   2.385
57431W        W25794   1.263   8.176   2.802
57432W        W25795   5.312  15.610  11.088
57433W        W25796  33.081  40.005  13.483
57434W        W25797   5.812  17.559  11.935
57435W        W25798  41.998  37.343  13.537
57436W        W25799  22.694  26.984   0.762
57437W        W25800   0.485   6.198  10.981
57438W        W25801  23.989  38.003   0.459
57439W        W25802  32.940  12.746  13.368
57440W        W25803   3.808   0.808   1.404
57441W        W25804  38.484   1.847  12.996
57442W        W25805  21.118  33.400   1.446
57443W        W25806  10.235  36.972  13.347
57444W        W25807  22.622  15.820   1.415
57445W        W25808   9.687  30.517  11.404
57446W        W25809  44.439  27.023  14.823
57447W        W25810  37.018  24.679   4.235
57448W        W25811   6.181  23.616  13.029
57449W        W25812  37.870  20.607   0.423
57450W        W25813  24.975  35.455   1.776
57451W        W25814  24.539  38.832   4.265
57452W        W25815  20.239  25.546   4.128
57453W        W25816  25.093  43.457   0.827
57454W        W25817  22.153   4.317   3.811
57455W        W25818  37.485  35.032  13.840
57456W        W25819  16.218  24.101  13.935
57457W        W25820  36.440  31.009   3.295
57458W        W25821  42.343  32.477   3.260
57459W        W25822  34.075  33.566  12.997
57460W        W25823  28.564  33.045   0.389
57461W        W25824  12.283   8.737  12.436
57462W        W25825  27.492   1.753  14.938
57463W        W25826   2.309  36.041  11.546
57464W        W25827  14.266  23.005   1.722
57465W        W25828  12.791  17.184   0.426
57466W        W25829  30.014   8.307   3.650
57467W        W25830  26.559  17.629  12.063
57468W        W25831  25.214  31.984   4.121
57469W        W25832  31.582  29.579   1.883
57470W        W25833   2.434  19.665  14.968
57471W        W25834  26.700   7.903   3.179
57472W        W25835  31.463  24.183   1.784
57473W        W25836   4.914  32.399   4.250
57474W        W25837  29.128  39.443   2.850
57475W        W25838  27.498   0.763  14.438
57476W        W25839   9.336   2.346   2.379
57477W        W25840  33.926  39.042  11.424
57478W        W25841  19.171  26.634   1.796
57479W        W25842  24.484  10.338  11.940
57480W        W25843  20.083   9.229   1.447
57481W        W25844  39.324   2.320   0.310
57482W        W25845   0.856  12.843   3.158
57483W        W25846  40.414  23.167  13.373
57484W        W25847  26.113  27.196   1.753
57485W        W25848  12.623   9.665  11.015
57486W        W25849   2.933   7.850   3.776
57487W        W25850  37.348   5.908   2.874
57488W        W25851  12.216  15.202   0.815
57489W        W25852  44.446  17.569  11.471
57490W        W25853   2.923  28.452   3.805
57491W        W25854  18.599  42.318   5.245
57492W        W25855  18.270  37.350  13.856
57493W        W25856  40.470  33.881   0.339
57494W        W25857  44.863   2.794  10.585
57495W        W25858  34.602  44.950   5.718
57496W        W25859  14.118  17.602  14.286
57497W        W25860   3.729  41.426   5.186
57498W        W25861  25.583   3.290   2.741
57499W        W25862   0.844  19.116   2.266
57500W        W25863  42.783  26.554  11.521
57501W        W25864  16.307  29.605   4.201
57502W        W25865  40.344  31.078  10.470
57503W        W25866  42.829  16.569  11.438
57504W        W25867   6.384  24.174   5.299
57505W        W25868  13.135  31.907   4.640
57506W        W25869  18.120  34.894   2.406
57507W        W25870  34.101  36.475   3.267
57508W        W25871  30.968  12.619  13.471
57509W        W25872   8.309  23.594   4.229
57510W        W25873  15.709  10.370  12.546
57511W        W25874  20.528  26.002  13.519
57512W        W25875   8.820  43.940  13.847
57513W        W25876  13.166  15.277  13.342
57514W        W25877  18.641  34.606   4.137
57515W        W25878  35.912  20.736  10.956
57516W        W25879  29.479  25.505  14.388
57517W        W25880  44.762  17.086   4.633
57518W        W25881  32.143  30.502   1.317
57519W        W25882  28.460  16.249   4.747
57520W        W25883  37.507  13.106   1.821
57521W        W25884  25.598  19.111  10.438
57522W        W25885  28.438  37.905  11.453
57523W        W25886  23.498   7.284  10.571
57524W        W25887   4.911  25.546  12.504
57525W        W25888  13.630  12.230   3.867
57526W        W25889  23.712  43.476   3.340
57527W        W25890  29.480  37.070  10.890
57528W        W25891  43.949  40.373   3.307
57529W        W25892  40.926   8.737  11.072
57530W        W25893  12.616  30.138   1.313
57531W        W25894  38.467  33.020   2.183
57532W        W25895  20.104  41.486  13.901
57533W        W25896  26.182  10.336   3.375
57534W        W25897  22.724   6.905   3.673
57535W        W25898   2.252  18.789   2.767
57536W        W25899   8.270  32.034   5.098
57537W        W25900   3.837  17.719   1.217
57538W        W25901  25.206  25.507   1.371
57539W        W25902  43.769  24.996   4.744
57540W        W25903  13.137  10.325  11.573
57541W        W25904   6.400  20.176   4.173
57542W        W25905   2.776  42.891  12.443
57543W        W25906   7.362  26.169  14.854
57544W        W25907  28.181  17.283   4.245
57545W        W25908  21.515   6.895   0.878
57546W        W25909  13.233  11.770   2.810
57547W        W25910  19.780  19.546   3.860
57548W        W25911   9.762  27.484   2.197
57549W        W25912  19.733   0.411   0.282
57550W        W25913  25.179  22.523   0.779
57551W        W25914  10.689  15.608  11.549
57552W        W25915  11.264  28.602  14.466
57553W        W25916  28.155   8.849  10.944
57554W        W25917  41.389  24.055   0.767
57555W        W25918  36.451   3.409   5.130
57556W        W25919  14.282  20.088   1.814
57557W        W25920  33.582  29.635   2.843
57558W        W25921  27.052   6.270   2.283
57559W        W25922  37.954  10.279  14.888
57560W        W25923   1.904   8.877   0.817
57561W        W25924  44.954  37.337   0.349
57562W        W25925  27.538  42.351  13.534
57563W        W25926  13.317  11.746  12.527
57564W        W25927  35.882  27.069  13.825
57565W        W25928  39.810   1.803   1.382
57566W        W25929  24.128  23.706   2.664
57567W        W25930   0.255  11.221  11.914
57568W        W25931   3.913   6.766  13.884
57569W        W25932  33.120  31.092  12.476
57570W        W25933  18.790  18.753   1.447
57571W        W25934  16.738  35.008  13.307
57572W        W25935   6.320  30.003   4.757
57573W        W25936   0.808  22.022   4.791
57574W        W25937  38.917  18.171   4.755
57575W        W25938   6.358   0.445  10.433
57576W        W25939  34.086  22.178  14.454
57577W        W25940  38.837  32.545   1.408
57578W        W25941  41.955  37.949  10.143
57579W        W25942  34.025  41.813  10.572
57580W        W25943  19.257  14.606  12.387
57581W        W25944   8.327   7.222   1.769
57582W        W25945  36.995   3.907   3.796
57583W        W25946  11.198  34.534   1.225
57584W        W25947  35.510  36.363   4.177
57585W        W25948   6.209  27.141   1.791
57586W        W25949  15.157  15.581   3.693
57587W        W25950  14.614  26.074   2.246
57588W        W25951  41.313   0.742   3.251
57589W        W25952  24.692  15.596  11.874
57590W        W25953  35.404  25.160  12.447
57591W        W25954  42.304  38.417  11.537
57592W        W25955  24.484  16.128  12.982
57593W        W25956   3.379   0.975   3.779
57594W        W25957  38.339   9.805   9.607
57595W        W25958  44.862   8.283  13.507
57596W        W25959   1.415  14.772   2.302
57597W        W25960  26.968  14.678  14.825
57598W        W25961  36.360  11.180   9.460
57599W        W25962  38.409  42.983  14.471
57600W        W25963  16.108  16.737   4.231
57601W        W25964  20.267   9.308  12.035
57602W        W25965  33.517   9.697  11.012
57603W        W25966  33.584   3.357   0.755
57604W        W25967  35.912  44.303   4.649
57605W        W25968   6.427   1.866  14.346
57606W        W25969  24.196   3.419   5.292
57607W        W25970  22.742   4.726  12.407
57608W        W25971  28.984  26.495   4.603
57609W        W25972  39.494   7.344  11.113
57610W        W25973  34.402  31.618  11.998
57611W        W25974  17.104  21.177   3.192
57612W        W25975  32.592   5.237   3.299
57613W        W25976  13.255   4.437  12.544
57614W        W25977  25.522   1.812   0.958
57615W        W25978  23.199  22.013  12.936
57616W        W25979   7.714   0.483  10.473
57617W        W25980  22.642  11.812  11.481
57618W        W25981  18.675   9.794  12.089
57619W        W25982  33.104  34.997   1.259
57620W        W25983  40.518   0.428   0.818
57621W        W25984   3.721  21.146   3.211
57622W        W25985  13.671   3.891  12.073
57623W        W25986  24.204  10.830  13.371
57624W        W25987  39.954  43.480   0.860
57625W        W25988  35.383  14.253   0.265
57626W        W25989   2.403  36.932   3.866
57627W        W25990  41.949  13.675   1.770
57628W        W25991   5.425  40.005  12.395
57629W        W25992  34.919  27.545   1.814
57630W        W25993  16.275  22.505  12.986
57631W        W25994  28.609  33.100  13.364
57632W        W25995   4.346  19.745  14.982
57633W        W25996  35.556  42.438   0.845
57634W        W25997  12.803   5.704  10.484
57635W        W25998   2.947  27.096  14.780
57636W        W25999  35.918   9.795   3.336
57637W        W26000   0.457  41.902  12.511
57638W        W26001  33.109  29.133  11.440
57639W        W26002   9.878   0.268   1.856
57640W        W26003  37.067  14.329  14.425
57641W        W26004  28.031  35.564  13.799
57642W        W26005  23.175  41.293   2.196
57643W        W26006  15.674  25.999  12.440
57644W        W26007  17.245  18.186  14.775
57645W        W26008   1.780   0.464   1.332
57646W        W26009  36.456  11.262   5.722
57647W        W26010  24.685  15.753  12.433
57648W        W26011  31.463   9.646  13.402
57649W        W26012  25.211  31.538  11.871
57650W        W26013   9.339  32.971   4.193
57651W        W26014  22.040  23.001   2.734
57652W        W26015   8.339  12.633  11.587
57653W        W26016  13.142  29.049  11.983
57654W        W26017  32.478   6.268  11.051
57655W        W26018  41.004  26.055   1.327
57656W        W26019  23.087  39.318   4.644
57657W        W26020  19.706  42.972   1.240
57658W        W26021  37.579  10.176  14.430
57659W        W26022  44.905  33.103  13.313
57660W        W26023  19.646  22.536  13.021
57661W        W26024  17.680  31.987  11.910
57662W        W26025  28.035   9.348  11.957
57663W        W26026  25.501  31.979   4.681
57664W        W26027   1.443  38.353   1.381
57665W        W26028   5.877  38.336   4.754
57666W        W26029  12.208   8.191   3.307
57667W        W26030  22.240  34.605  13.531
57668W        W26031  25.538  15.586   3.800
57669W        W26032  23.114  13.643   1.748
57670W        W26033  10.744  30.451   4.750
57671W        W26034  35.880  30.960  14.818
57672W        W26035   1.951  13.802  10.417
57673W        W26036   7.248  30.031  15.000
57674W        W26037   3.900  16.649  12.436
57675W        W26038  35.956  29.668  13.799
57676W        W26039  20.233   4.288   2.738
57677W        W26040  41.893  36.097   1.744
57678W        W26041  39.315  35.573  10.538
57679W        W26042  17.771   1.424   3.147
57680W        W26043  36.425  15.168  14.026
57681W        W26044   2.918   5.386  13.536
57682W        W26045  12.617   5.855   0.779
57683W        W26046  28.478   6.378  13.398
57684W        W26047  13.152   2.378   5.108
57685W        W26048  38.518  14.672   3.277
57686W        W26049  32.552  43.977   1.415
57687W        W26050  44.761  24.075  11.891
57688W        W26051  22.723  23.022  12.572
57689W        W26052  30.552   0.305  14.509
57690W        W26053  31.508   8.271   2.765
57691W        W26054  43.313  40.490   0.826
57692W        W26055   9.340  33.104   2.766
57693W        W26056   3.430  19.162  12.526
57694W        W26057  35.870  16.569  12.972
57695W        W26058  27.457  37.979   2.693
57696W        W26059  12.626  16.160   2.259
57697W        W26060  12.832  38.382   3.242
57698W        W26061   6.921   3.805  14.889
57699W        W26062  19.210   5.367   1.778
57700W        W26063  14.741  42.944   4.214
57701W        W26064  37.069  37.014   4.354
57702W        W26065  14.254   4.730   2.701
57703W        W26066  18.764  11.171   4.713
57704W        W26067   3.905  19.537  11.985
57705W        W26068  34.569  42.351   1.254
57706W        W26069  20.193   3.435  13.416
57707W        W26070  26.517  15.725  10.424
57708W        W26071  31.037  23.078  12.841
57709W        W26072   6.865  40.349  12.436
57710W        W26073  39.384  19.623   1.852
57711W        W26074  23.013  27.967  14.786
57712W        W26075  28.470  32.901   4.325
57713W        W26076  30.414  40.401   4.191
57714W        W26077  37.833  19.551  14.484
57715W        W26078  32.916  30.078  12.096
57716W        W26079   9.850  28.105   2.230
57717W        W26080  34.463   3.836  11.930
57718W        W26081  17.295   5.877  11.893
57719W        W26082  16.226  29.078   2.752
57720W        W26083   8.258  28.575   4.258
57721W        W26084  44.941  11.195  12.033
57722W        W26085   0.801  38.554  13.022
57723W        W26086  37.944   5.282   1.244
57724W        W26087   8.271  19.237  14.968
57725W        W26088  31.125  35.042   1.702
57726W        W26089  13.830  14.246   2.407
57727W        W26090  18.626  41.434  10.554
57728W        W26091  19.133  15.816  14.446
57729W        W26092  40.004  41.915  14.784
57730W        W26093  28.604   1.942   4.675
57731W        W26094  20.117  43.922   0.326
57732W        W26095  35.428  13.337   2.324
57733W        W26096   2.964  36.366   1.743
57734W        W26097  17.739  30.542  11.589
57735W        W26098  37.040   9.199  10.458
57736W        W26099  43.916   4.752   1.798
57737W        W26100  30.135  13.243   4.698
57738W        W26101   9.656  25.132  13.855
57739W        W26102  44.945  35.873  11.870
57740W        W26103  36.004  29.051  14.294
57741W        W26104  12.801  22.517   4.179
57742W        W26105  20.172  14.248   0.949
57743W        W26106   8.704  29.445  11.070
57744W        W26107  33.937  11.652  10.983
57745W        W26108  26.203   3.396  12.398
57746W        W26109  20.162   7.791  14.861
57747W        W26110   0.827  31.593   3.280
57748W        W26111  21.156  43.833  11.566
57749W        W26112  19.668   0.783  13.824
57750W        W26113  22.013  30.978   2.294
57751W        W26114   2.351   2.784   0.897
57752W        W26115   1.414  20.748   1.723
57753W        W26116  32.568  13.613   2.285
57754W        W26117  17.567  41.972   3.705
57755W        W26118  16.716  34.482  11.568
57756W        W26119  33.078  40.998  14.767
57757W        W26120  34.079   1.844  10.491
57758W        W26121  31.402  20.617  13.487
57759W        W26122  14.141  20.607  10.911
57760W        W26123  21.233  25.614  12.073
57761W        W26124   0.381  14.204  12.094
57762W        W26125  16.248  33.390  13.828
57763W        W26126  34.547   1.380   5.165
57764W        W26127  11.158   3.956   2.775
57765W        W26128  14.801   7.717   1.749
57766W        W26129  37.894  11.213  12.968
57767W        W26130  41.428  27.554   0.830
57768W        W26131   3.924  35.906  14.411
57769W        W26132  19.042  41.849   2.319
57770W        W26133   4.701   1.769   0.925
57771W        W26134   4.808  23.697  12.088
57772W        W26135  34.455  19.561   4.640
57773W        W26136  28.493  21.260  12.846
57774W        W26137  41.011  12.196   3.670
57775W        W26138  29.025  34.580   3.852
57776W        W26139  28.008  35.493  12.061
57777W        W26140  31.982  35.383  14.309
57778W        W26141  41.854   3.374  14.822
57779W        W26142  18.120  15.172   2.411
57780W        W26143   3.327  17.605   0.916
57781W        W26144  14.674  16.573   0.482
57782W        W26145  25.996   1.754   0.369
57783W        W26146  22.186   3.426  11.433
57784W        W26147   4.939   8.872  11.880
57785W        W26148   1.452  10.199  11.986
57786W        W26149  12.772  25.129  14.475
57787W        W26150  27.608  28.940   3.336
57788W        W26151  28.941  18.566   1.932
57789W        W26152  13.158  11.186  14.841
57790W        W26153  10.808   4.250  12.971
57791W        W26154  13.249  39.353   2.849
57792W        W26155  11.262  36.499   2.698
57793W        W26156  20.107  30.477  14.972
57794W        W26157  12.659  35.382  13.914
57795W        W26158   4.944  33.987  11.045
57796W        W26159  32.541   7.744  11.113
57797W        W26160  20.654   9.335   0.814
57798W        W26161  22.227  28.612  11.037
57799W        W26162   3.281  12.274  13.985
57800W        W26163  29.606  39.849  13.404
57801W        W26164  14.757  36.858   4.264
57802W        W26165   1.335  12.291  12.013
57803W        W26166  41.444   5.806   4.278
57804W        W26167  15.153  21.605  11.898
57805W        W26168  31.927  13.220   0.435
57806W        W26169  32.463   3.727   3.235
57807W        W26170  44.927  34.576   1.299
57808W        W26171  20.631  18.730  10.520
57809W        W26172  18.115  26.080  12.049
57810W        W26173  15.625  24.519   1.249
57811W        W26174   8.689  22.526   0.393
57812W        W26175  13.623  14.700   1.781
57813W        W26176   6.831  14.688  14.793
57814W        W26177  41.850  25.558  13.962
57815W        W26178  25.538  35.965   4.752
57816W        W26179  38.011  21.631  14.461
57817W        W26180  38.933  12.344   4.619
57818W        W26181  11.247   3.838  13.813
57819W        W26182  15.087   8.770  14.423
57820W        W26183  28.003   8.715   5.182
57821W        W26184  33.522   7.753   4.298
57822W        W26185  25.504  32.938   3.353
57823W        W26186  10.223  26.097  14.378
57824W        W26187  39.062  21.525   1.400
57825W        W26188   0.254  15.818   2.683
57826W        W26189  23.023  13.263   0.925
57827W        W26190  17.780  16.254  13.853
57828W        W26191   5.838  13.674   2.875
57829W        W26192  14.305  32.017  14.490
57830W        W26193   9.733   5.262  10.446
57831W        W26194  23.683   3.232  14.370
57832W        W26195   6.317  24.566   1.910
57833W        W26196  39.968  10.697  12.947
57834W        W26197  11.638  42.388   1.879
57835W        W26198  11.690  12.754   3.379
57836W        W26199  13.312   9.802  13.823
57837W        W26200   1.287  24.664  11.053
57838W        W26201  15.768  10.790   4.607
57839W        W26202  38.822   7.417  11.375
57840W        W26203  19.605   4.900   3.774
57841W        W26204  26.997  27.617   4.267
57842W        W26205  30.559  21.021   3.383
57843W        W26206  28.624  27.991   3.167
57844W        W26207  42.395  34.560   2.722
57845W        W26208  43.319  24.698  10.534
57846W        W26209   3.352  36.987   2.209
57847W        W26210  28.966  39.408  11.052
57848W        W26211   3.386  34.873  10.924
57849W        W26212  36.969  15.776  14.938
57850W        W26213   2.880  18.215  12.403
57851W        W26214  25.087  42.513  13.471
57852W        W26215   9.882  34.501  11.942
57853W        W26216  22.568   6.822  13.409
57854W        W26217  11.758  13.338  14.458
57855W        W26218  34.441  12.135  14.954
57856W        W26219   0.312   7.817   0.463
57857W        W26220  33.564   2.963  11.868
57858W        W26221   6.896  28.163   3.279
57859W        W26222  14.713  39.959  12.357
57860W        W26223   6.730  36.066   1.442
57861W        W26224  15.792  19.636  10.412
57862W        W26225  30.422  35.904  10.409
57863W        W26226   3.410  39.360  12.867
57864W        W26227  39.824  11.717  12.578
57865W        W26228  16.609  31.966   5.238
57866W        W26229   3.827  25.111  11.537
57867W        W26230  23.670  26.035   1.814
57868W        W26231   6.193   6.314  13.034
57869W        W26232  38.015  38.014   0.471
57870W        W26233  10.768  35.420   3.206
57871W        W26234  44.844   3.890   3.175
57872W        W26235  40.838   1.935   4.348
57873W        W26236   9.776  42.370  14.892
57874W        W26237  25.214  28.988  12.085
57875W        W26238  11.722  23.724  13.326
57876W        W26239   1.257  10.218   3.386
57877W        W26240  37.987  38.920  11.449
57878W        W26241  33.040  35.582  10.417
57879W        W26242  22.552   9.645   0.801
57880W        W26243  25.069  18.681   1.893
57881W        W26244  34.872  25.687  11.987
57882W        W26245  24.672  31.102   4.206
57883W        W26246   8.188  11.621   3.856
57884W        W26247  18.643  15.680   0.428
57885W        W26248   6.847   2.468  14.794
57886W        W26249  35.089  34.552  12.480
57887W        W26250   6.733  36.061  14.441
57888W        W26251   1.361   1.832   0.408
57889W        W26252  16.580  30.538   2.418
57890W        W26253  26.135   1.367   3.703
57891W        W26254   4.881  23.105  14.020
57892W        W26255  24.051  30.571   2.774
57893W        W26256   1.344  36.580  11.612
57894W        W26257   8.868  33.574   0.944
57895W        W26258  17.143   7.335  13.314
57896W        W26259   6.686   4.331  10.956
57897W        W26260  31.150  37.450   5.312
57898W        W26261  39.434   9.258   4.275
57899W        W26262  43.000  17.616  12.548
57900W        W26263   2.401  29.998  10.898
57901W        W26264  44.977  43.944   3.330
57902W        W26265  28.610  41.323  11.885
57903W        W26266  12.186  24.188   3.658
57904W        W26267  20.766   1.952  12.469
57905W        W26268   6.835  44.385  12.349
57906W        W26269  40.498  38.040   2.249
57907W        W26270  24.997   7.788  11.018
57908W        W26271   8.774  44.828   2.685
57909W        W26272  22.030  36.880   3.702
57910W        W26273  44.351  23.168  10.569
57911W        W26274  38.555   7.883  12.887
57912W        W26275   9.797  44.453  10.612
57913W        W26276  39.028  16.705   3.835
57914W        W26277  42.494  38.411  11.889
57915W        W26278   0.457  12.751   4.297
57916W        W26279  28.465  28.570  10.592
57917W        W26280  36.478  31.590  14.886
57918W        W26281   1.907  44.352   9.556
57919W        W26282  35.058  39.020  12.360
57920W        W26283  44.792  14.131   3.738
57921W        W26284  24.015  26.703   3.156
57922W        W26285   5.859  24.219  11.874
57923W        W26286  35.514  22.629   4.711
57924W        W26287  42.385  20.209   3.817
57925W        W26288  38.496   1.767   0.454
57926W        W26289  41.983  34.889  13.385
57927W        W26290   1.460   7.411   2.713
57928W        W26291  24.564  27.101   1.344
57929W        W26292  38.364  26.683  13.815
57930W        W26293  25.025  40.893  13.468
57931W        W26294  12.183  41.495  14.437
57932W        W26295  27.679   1.822  10.487
57933W        W26296  43.486  34.452  10.069
57934W        W26297  25.996   1.386   1.379
57935W        W26298  27.963   6.782  12.471
57936W        W26299  14.621   5.351   1.441
57937W        W26300  40.817  32.978   4.700
57938W        W26301  29.093   3.876   0.360
57939W        W26302  41.822  42.449  13.345
57940W        W26303  36.013  11.847  14.491
57941W        W26304  22.091  31.567  11.527
57942W        W26305  38.861  37.018   0.270
57943W        W26306  30.515  41.481  14.413
57944W        W26307  21.675  44.391   2.351
57945W        W26308  12.116  31.426  14.012
57946W        W26309  34.378  25.974   1.736
57947W        W26310  19.715  25.584  11.065
57948W        W26311  35.953   6.261  11.862
57949W        W26312  11.657  10.750  14.288
57950W        W26313  37.864  44.465  13.019
57951W        W26314  35.100  25.003   5.283
57952W        W26315   9.796  12.337  14.795
57953W        W26316  33.479  36.900   4.768
57954W        W26317   2.796  37.340   3.346
57955W        W26318   5.713  23.009  13.424
57956W        W26319  43.886  17.588   1.327
57957W        W26320  19.538   8.860   0.901
57958W        W26321  10.206  38.880  13.029
57959W        W26322   6.896  38.915  12.471
57960W        W26323  33.492  37.461   0.888
57961W        W26324  18.632   0.927  11.079
57962W        W26325  39.984  17.697  14.841
57963W        W26326   6.811  14.774  14.430
57964W        W26327  39.854   4.850  12.942
57965W        W26328   6.229  36.350   4.761
57966W        W26329  20.114  20.067  13.934
57967W        W26330  18.743  44.358  12.528
57968W        W26331   3.869   7.261  11.521
57969W        W26332  36.577  19.186   2.886
57970W        W26333  27.514  15.695  14.798
57971W        W26334  19.156  38.827  12.846
57972W        W26335  39.039  16.085   2.367
57973W        W26336  35.401  24.220  14.399
57974W        W26337  23.503  25.105  11.592
57975W        W26338   8.822  40.035   1.410
57976W        W26339   2.770  44.399  13.061
57977W        W26340  31.471  43.009   2.686
57978W        W26341  42.832  27.162  14.995
57979W        W26342  23.003  24.088   1.906
57980W        W26343  17.068   6.849  12.064
57981W        W26344  17.091  41.465   2.680
57982W        W26345  24.521  20.081  10.899
57983W        W26346   5.362  21.135  12.544
57984W        W26347  37.572  27.185  13.935
57985W        W26348  40.008  26.154  13.044
57986W        W26349  20.039   7.215  10.923
57987W        W26350  29.508  35.873   2.897
57988W        W26351   7.859  42.778   3.385
57989W        W26352   5.271  33.051  11.575
57990W        W26353  38.980  13.340   5.651
57991W        W26354  27.467  35.899   2.387
57992W        W26355  35.867  15.720   3.328
57993W        W26356   7.312  28.651   4.775
57994W        W26357   3.322  26.651  13.058
57995W        W26358   7.249  38.067   4.784
57996W        W26359  26.495  11.284   2.191
57997W        W26360  31.458  39.983  14.793
57998W        W26361  17.734  13.748   4.351
57999W        W26362  17.099  24.160  10.904
58000W        W26363  25.622  29.125   3.260
58001W        W26364  22.614  33.974  12.834
58002W        W26365  24.653  32.979   3.664
58003W        W26366  17.166  23.186  14.503
58004W        W26367  42.374  41.804  13.422
58005W        W26368   9.794   2.805  14.843
58006W        W26369   6.749  13.761   3.322
58007W        W26370  23.056  19.676   4.660
58008W        W26371  38.951   9.245   3.268
58009W        W26372  39.883  44.477  13.469
58010W        W26373   1.275  39.548  10.404
58011W        W26374  33.561  29.548   4.119
58012W        W26375   5.833  26.617   0.259
58013W        W26376  27.149  31.139  13.954
58014W        W26377  26.031  32.020   3.247
58015W        W26378  21.703  13.672  14.834
58016W        W26379  26.575  23.225  14.301
58017W        W26380  31.562  19.102  10.515
58018W        W26381  21.210   3.773   4.270
58019W        W26382  42.953  44.847   4.660
58020W        W26383  28.634  27.655  10.534
58021W        W26384  41.889  12.670  11.535
58022W        W26385  22.061  25.561  13.496
58023W        W26386  29.019  30.933   2.865
58024W        W26387  33.883  44.491   0.895
58025W        W26388   9.719  36.993  13.032
58026W        W26389  15.736  23.611   0.294
58027W        W26390  35.965  35.903  10.916
58028W        W26391  26.162  34.098  12.543
58029W        W26392  13.613  23.118  12.918
58030W        W26393  19.772  39.045  14.396
58031W        W26394  12.750   7.261  14.963
58032W        W26395  34.002  38.995  13.808
58033W        W26396  30.953   3.222  12.515
58034W        W26397   7.408  10.145   0.872
58035W        W26398  27.167   1.330  13.889
58036W        W26399  18.255  29.000   3.704
58037W        W26400  42.474  29.043   1.267
58038W        W26401  18.582  34.074   3.745
58039W        W26402  23.155  34.947   0.965
58040W        W26403  20.762  39.354  11.985
58041W        W26404   0.879  33.513   3.871
58042W        W26405   2.747  22.638   2.303
58043W        W26406  25.621  34.962   1.318
58044W        W26407  31.520   3.370   4.284
58045W        W26408  28.438  44.830   4.837
58046W        W26409   2.468  12.334  13.516
58047W        W26410  20.178  27.109  12.017
58048W        W26411  16.803  13.183  14.759
58049W        W26412  30.991  16.765  10.910
58050W        W26413   7.215  12.705  13.816
58051W        W26414   6.699   3.711  11.860
58052W        W26415  15.181  27.940   2.221
58053W        W26416  40.975  29.433   4.197
58054W        W26417  39.445  13.265  11.928
58055W        W26418   0.804  20.062  10.468
58056W        W26419  21.031  15.137   3.322
58057W        W26420  25.700   4.861  11.442
58058W        W26421  36.350  44.887  13.495
58059W        W26422   9.163  23.114   3.218
58060W        W26423  35.961  27.063   3.270
58061W        W26424  42.967  18.243   3.174
58062W        W26425   0.964  32.032   4.613
58063W        W26426   7.831   1.811   0.739
58064W        W26427  42.330  34.981  10.993
58065W        W26428  33.893  42.943  12.910
58066W        W26429   0.906  14.663  13.953
58067W        W26430  22.598   8.713   3.695
58068W        W26431  34.540  42.499   4.315
58069W        W26432  16.577  30.986   1.336
58070W        W26433  26.527   1.392   2.201
58071W        W26434   4.355   2.808  14.973
58072W        W26435  41.991   4.330  11.064
58073W        W26436  35.375  22.246   0.963
58074W        W26437  16.751  26.080  13.387
58075W        W26438  28.101  15.733   4.153
58076W        W26439  44.422  19.221  14.348
58077W        W26440  16.760  26.002   4.236
58078W        W26441  29.546  38.880   2.758
58079W        W26442   9.306   9.391   1.416
58080W        W26443   8.388  36.995   0.313
58081W        W26444  10.778   2.385  13.503
58082W        W26445  20.115   5.239   1.701
58083W        W26446  27.482   3.945   1.302
58084W        W26447  23.019  15.647   3.356
58085W        W26448   8.236   1.885  11.040
58086W        W26449  22.515  39.823   1.370
58087W        W26450   9.821  29.502  13.915
58088W        W26451  15.103  19.145   5.711
58089W        W26452  34.082  22.143  11.398
58090W        W26453  20.769  11.697  11.962
58091W        W26454   9.820  24.177   2.687
58092W        W26455  30.913  24.146  10.645
58093W        W26456   1.811   7.748  11.104
58094W        W26457  40.996  26.673   1.289
58095W        W26458  25.115  31.507   1.829
58096W        W26459  34.590  10.676  11.967
58097W        W26460  25.162  23.154  14.934
58098W        W26461   3.737   6.761   3.809
58099W        W26462   5.875  33.380   3.160
58100W        W26463   0.379  14.588  14.001
58101W        W26464   3.431  23.072   2.866
58102W        W26465  12.727  40.387   1.802
58103W        W26466  43.942   6.695   2.417
58104W        W26467  38.019  27.672  14.952
58105W        W26468   6.420  31.985  12.865
58106W        W26469   7.769  19.646   4.617
58107W        W26470  31.498  11.850  11.374
58108W        W26471  38.074  11.687   1.326
58109W        W26472  32.396  33.528  11.932
58110W        W26473  24.503  11.775   4.291
58111W        W26474  32.015  39.524   4.762
58112W        W26475  18.666  12.722  14.293
58113W        W26476  27.151   8.172  12.967
58114W        W26477  40.917  37.086  14.797
58115W        W26478  44.346   2.302   3.377
58116W        W26479   8.737  11.222  10.596
58117W        W26480  18.167  39.999   3.668
58118W        W26481  35.865  24.020   0.764
58119W        W26482  41.474  24.045   4.325
58120W        W26483  29.497  28.460   4.348
58121W        W26484   6.312  44.756   4.333
58122W        W26485   3.814  13.123   4.722
58123W        W26486  25.206  31.415   1.400
58124W        W26487  29.466  39.006   1.932
58125W        W26488   6.748  23.527   2.694
58126W        W26489   0.271  14.689  10.470
58127W        W26490  14.095  32.079  11.903
58128W        W26491  43.278  41.401   4.186
58129W        W26492  10.233  32.421  11.502
58130W        W26493  15.706  11.189  14.464
58131W        W26494  28.935   4.854   2.812
58132W        W26495  20.756  27.145  13.829
58133W        W26496  17.237   3.299  13.804
58134W        W26497  22.072  12.302   4.697
58135W        W26498  22.558  36.511  12.960
58136W        W26499  44.499  43.886  14.867
58137W        W26500  17.130  31.580  13.351
58138W        W26501   3.417  18.702  12.018
58139W        W26502  33.601  23.163  11.426
58140W        W26503  11.154  40.465   3.753
58141W        W26504  10.825  33.958  10.946
58142W        W26505  44.767  16.643   3.644
58143W        W26506  39.967  32.504  12.923
58144W        W26507   9.229   3.893  14.873
58145W        W26508  30.004  31.066   2.386
58146W        W26509  23.066  16.694  10.586
58147W        W26510  14.270  42.523  10.523
58148W        W26511  38.006  29.012   2.801
58149W        W26512  16.115   8.292   2.697
58150W        W26513  21.069  25.015   1.232
58151W        W26514   3.953  12.168   0.395
58152W        W26515  36.011   6.329  12.362
58153W        W26516   8.722  37.370  11.962
58154W        W26517  21.085  27.945  13.499
58155W        W26518   4.897  29.925   0.311
58156W        W26519  39.329  40.462  12.398
58157W        W26520   1.265  35.499   0.426
58158W        W26521   8.815  20.211  11.494
58159W        W26522   5.896  28.068  13.808
58160W        W26523  16.192  35.525  14.433
58161W        W26524   2.239  24.490  10.117
58162W        W26525  36.440  39.000  12.525
58163W        W26526   1.812  14.766  12.543
58164W        W26527  25.580   4.878   2.319
58165W        W26528  15.136   6.188  12.402
58166W        W26529   7.717   4.392  13.057
58167W        W26530  43.287  38.882  13.471
58168W        W26531  43.358  39.901   4.152
58169W        W26532  33.033  24.987   1.271
58170W        W26533  38.429  32.057  14.913
58171W        W26534  41.850  23.149  11.886
58172W        W26535  40.458  25.185  12.885
58173W        W26536  34.576  37.356   4.168
58174W        W26537  23.510   3.389   2.782
58175W        W26538  17.671  21.719   1.898
58176W        W26539  25.083   1.424   4.687
58177W        W26540  23.598  16.599   4.113
58178W        W26541  22.025  17.198  12.867
58179W        W26542  29.655  19.641  10.432
58180W        W26543  19.748   2.829  13.972
58181W        W26544   2.837  21.247  11.444
58182W        W26545  33.953  24.062   4.221
58183W        W26546  11.670  43.272  13.400
58184W        W26547   0.845   2.450   2.827
58185W        W26548   8.694   9.226   1.826
58186W        W26549  19.214  17.224  13.544
58187W        W26550  44.299  35.586  11.543
58188W        W26551  21.694   0.334  13.828
58189W        W26552  16.587   7.787   3.834
58190W        W26553   0.429  24.140   5.736
58191W        W26554  15.705   9.365   3.374
58192W        W26555  35.010   9.710   0.890
58193W        W26556  40.379   8.191   2.198
58194W        W26557  28.640   1.280  14.314
58195W        W26558  44.775   5.749   4.319
58196W        W26559   8.370  16.570  13.029
58197W        W26560   5.875  11.300   2.703
58198W        W26561  14.103  20.085   3.789
58199W        W26562  24.670  17.592   3.371
58200W        W26563   3.946  13.300  12.343
58201W        W26564  27.969   9.183  12.860
58202W        W26565  39.039  38.558  11.604
58203W        W26566  30.127  25.044  10.955
58204W        W26567  23.223  29.443   0.799
58205W        W26568  11.330  15.157  10.931
58206W        W26569  19.693   5.835  13.041
58207W        W26570  30.024  28.572   4.303
58208W        W26571  43.817  42.407   0.376
58209W        W26572  29.034  18.728   2.198
58210W        W26573  13.233   9.716  10.449
58211W        W26574  37.547  37.565  12.027
58212W        W26575   7.744  13.696  11.099
58213W        W26576  42.484  20.717  10.540
58214W        W26577  32.486  20.674  12.992
58215W        W26578  22.088  13.802   3.712
58216W        W26579   8.177   4.703  13.907
58217W        W26580  35.526  10.193  14.816
58218W        W26581  18.184  40.509   3.668
58219W        W26582  38.427  14.323  10.958
58220W        W26583   8.800  40.857   3.698
58221W        W26584  44.307  39.899  12.539
58222W        W26585  27.031  17.082   0.368
58223W        W26586  41.383   9.206   3.374
58224W        W26587   4.301  15.100  12.926
58225W        W26588  25.488  26.119  13.481
58226W        W26589   9.242  30.545  11.423
58227W        W26590  39.369  43.879  12.915
58228W        W26591  31.085  16.083   1.334
58229W        W26592  11.198  24.011  10.504
58230W        W26593  37.412  22.550   3.649
58231W        W26594  11.710  38.528  11.475
58232W        W26595  36.575  27.163   3.703
58233W        W26596   9.670  23.066   4.780
58234W        W26597   3.305   1.296   2.723
58235W        W26598  18.075  43.765   0.405
58236W        W26599  24.661  36.949  14.375
58237W        W26600   4.355  41.511  12.440
58238W        W26601  18.595  39.866   1.889
58239W        W26602   1.837  28.518   4.273
58240W        W26603  13.696  19.630   3.222
58241W        W26604  19.241  19.607   3.204
58242W        W26605  30.073  32.519  14.515
58243W        W26606   7.850  29.653  14.900
58244W        W26607  23.058  16.693  11.575
58245W        W26608  24.528  33.093   1.766
58246W        W26609   6.734  24.583  12.569
58247W        W26610   6.251  38.848   0.927
58248W        W26611  43.277  26.092  11.037
58249W        W26612  18.280  36.913  11.915
58250W        W26613   1.305  18.760  13.351
58251W        W26614   9.849  13.122  13.873
58252W        W26615  21.756  34.085   2.303
58253W        W26616  36.883  32.592  10.972
58254W        W26617  10.189  34.972  13.404
58255W        W26618  17.644  43.910  12.352
58256W        W26619  42.969  39.317   2.728
58257W        W26620  26.621  12.711   4.753
58258W        W26621  29.652  23.204   0.787
58259W        W26622   9.173   0.946   4.597
58260W        W26623  34.973   7.308   3.799
58261W        W26624   8.290  23.702  12.945
58262W        W26625   8.248  36.922   0.925
58263W        W26626  38.537   3.255  10.946
58264W        W26627   2.438  29.962  13.948
58265W        W26628   6.878  25.648   3.720
58266W        W26629  31.624  32.963   1.373
58267W        W26630  26.683  30.070   2.768
58268W        W26631  25.512   5.831   1.865
58269W        W26632   3.435   0.491   3.804
58270W        W26633   2.266  40.916   2.261
58271W        W26634   8.278   3.414   2.399
58272W        W26635  10.172   5.286   3.214
58273W        W26636  22.650  37.444   1.833
58274W        W26637  36.384  28.489   4.333
58275W        W26638   9.167   3.258   2.841
58276W        W26639  22.188  43.330   2.813
58277W        W26640  35.980  43.505   1.415
58278W        W26641  11.826  27.008   3.173
58279W        W26642  40.031  32.982   2.698
58280W        W26643  37.984  32.499  14.910
58281W        W26644  23.058   3.863  14.783
58282W        W26645  21.068  11.714   0.265
58283W        W26646  25.044   3.775  10.577
58284W        W26647  31.453   0.921   5.192
58285W        W26648  37.365  14.116  14.969
58286W        W26649  23.073  22.101  11.592
58287W        W26650  36.955  14.295   3.176
58288W        W26651  31.632  16.292   4.199
58289W        W26652  43.824  38.049   9.653
58290W        W26653  38.057  27.180   2.817
58291W        W26654   4.851  32.037  11.529
58292W        W26655   8.829  28.449   2.411
58293W        W26656   7.237  34.373   1.431
58294W        W26657   8.361  40.918  14.319
58295W        W26658  39.369   3.719   3.682
58296W        W26659  41.029   4.388  11.107
58297W        W26660  23.179  10.211  12.435
58298W        W26661  12.755   7.316  10.423
58299W        W26662  37.380  42.300   2.704
58300W        W26663   9.772   9.670  11.469
58301W        W26664  26.991  16.154  10.136
58302W        W26665   7.834   9.154  11.866
58303W        W26666  44.338  31.582   3.833
58304W        W26667  40.045   4.219  11.520
58305W        W26668   1.427   7.291  11.597
58306W        W26669  26.640  19.244   3.337
58307W        W26670  19.577   7.198  10.556
58308W        W26671  22.240  34.966  12.477
58309W        W26672  42.497  34.415  12.340
58310W        W26673  23.201  16.683   2.668
58311W        W26674  27.599   7.669  10.996
58312W        W26675  39.935  42.812   2.693
58313W        W26676  40.800  21.039  14.976
58314W        W26677   9.689  13.831   0.874
58315W        W26678  29.110  13.633   0.305
58316W        W26679  27.026  42.987  10.965
58317W        W26680  23.504   4.431   3.769
58318W        W26681  20.126  44.397  12.407
58319W        W26682  41.842  19.698  11.062
58320W        W26683  28.007  29.937   2.349
58321W        W26684  43.292  31.080  14.315
58322W        W26685   3.294  20.555   3.170
58323W        W26686  18.747  42.520  12.474
58324W        W26687   9.769  11.782   3.867
58325W        W26688  29.439  15.602  10.083
58326W        W26689  12.122  22.009  14.443
58327W        W26690   9.763   1.868   1.792
58328W        W26691  33.440  31.531   3.241
58329W        W26692   3.315  20.703   1.247
58330W        W26693  18.087  44.764   5.191
58331W        W26694   7.703  29.493  10.992
58332W        W26695  12.146  30.042  13.417
58333W        W26696  33.116  39.540   1.718
58334W        W26697  35.063  26.632   3.376
58335W        W26698   0.411  38.444  12.414
58336W        W26699  41.357  44.887   2.822
58337W        W26700   8.392   9.839   4.600
58338W        W26701  14.338  41.955   2.857
58339W        W26702   0.332  20.569   2.185
58340W        W26703  27.044   3.293  13.342
58341W        W26704  30.419  25.624   5.238
58342W        W26705  10.698   2.390   4.704
58343W        W26706  39.531  24.564   1.744
58344W        W26707  44.382  17.673   0.931
58345W        W26708  21.155  21.065   2.363
58346W        W26709  12.140   4.926   1.230
58347W        W26710  24.042  14.271  11.450
58348W        W26711   1.260  37.463  13.868
58349W        W26712   4.823  41.454  13.322
58350W        W26713  25.619   9.209   1.413
58351W        W26714  34.057  35.024   4.665
58352W        W26715  15.170  24.621  11.483
58353W        W26716  23.670  30.924  13.934
58354W        W26717  32.523  28.100  14.959
58355W        W26718  26.995  26.983  12.532
58356W        W26719  25.152  27.057  14.490
58357W        W26720   9.679  30.455   0.911
58358W        W26721  30.454   9.366  13.860
58359W        W26722  40.494  38.348  12.062
58360W        W26723  31.431   8.677   2.748
58361W        W26724   2.381   3.242   0.936
58362W        W26725  16.093  38.339  12.571
58363W        W26726  22.737  20.748   3.177
58364W        W26727  35.994  40.446  11.052
58365W        W26728  31.440  18.210  12.093
58366W        W26729  17.252   8.726   4.737
58367W        W26730  22.708  13.288   9.972
58368W        W26731  23.732  24.506   2.306
58369W        W26732  14.602   9.684   4.807
58370W        W26733  28.004   6.293   3.326
58371W        W26734  16.177  16.788  11.044
58372W        W26735  29.067  22.737  13.792
58373W        W26736   3.418  38.479  14.012
58374W        W26737   5.402  23.686   3.240
58375W        W26738  18.614  20.722   2.363
58376W        W26739  20.624  15.619  11.583
58377W        W26740  41.318  26.048  11.426
58378W        W26741  11.264   1.955   0.257
58379W        W26742  31.913  26.206  12.058
58380W        W26743  35.508  13.697  10.527
58381W        W26744  40.050  12.348   1.900
58382W        W26745  42.939  28.089  12.866
58383W        W26746  15.609  26.651  12.350
58384W        W26747   5.931  13.826  13.913
58385W        W26748   9.228  20.163   1.909
58386W        W26749   3.292  29.454  10.898
58387W        W26750   7.240  20.247  11.948
58388W        W26751  42.491  17.136  13.519
58389W        W26752  12.338  10.332  12.032
58390W        W26753  29.943  14.202   0.284
58391W        W26754  41.976  10.737  11.452
58392W        W26755   3.300   2.410   2.877
58393W        W26756  31.640  25.608   1.694
58394W        W26757  28.121   2.300   1.919
58395W        W26758   9.661  27.991  11.076
58396W        W26759   1.837  21.153   4.599
58397W        W26760  11.805  34.892   3.629
58398W        W26761   3.873  22.131   1.355
58399W        W26762  15.651  25.053   0.775
58400W        W26763  30.134  17.145  12.350
58401W        W26764   4.444  30.535   3.190
58402W        W26765  38.859  21.177   3.188
58403W        W26766  33.615  12.638   3.172
58404W        W26767  19.162  34.030   3.634
58405W        W26768  11.767  15.662   4.338
58406W        W26769  24.526  38.501   0.876
58407W        W26770  17.653  38.570   2.187
58408W        W26771  35.455  28.074   3.725
58409W        W26772  20.699  42.453  12.992
58410W        W26773  31.090   0.980  11.384
58411W        W26774  16.718  35.861  10.894
58412W        W26775   0.976  19.250  14.961
58413W        W26776  14.789  28.480  14.975
58414W        W26777  31.930  32.123  11.475
58415W        W26778   6.915   2.263   4.264
58416W        W26779  25.620  42.397  13.521
58417W        W26780  14.276  10.218   1.384
58418W        W26781   7.250  22.146  12.419
58419W        W26782  21.743  35.862   1.356
58420W        W26783   6.847  16.756  12.062
58421W        W26784  41.395  23.655  13.917
58422W        W26785  38.029  35.560  11.604
58423W        W26786  29.092  44.464  11.529
58424W        W26787  34.551  41.425   1.854
58425W        W26788   3.723  35.444  12.405
58426W        W26789   3.768  20.053  14.380
58427W        W26790  33.571  29.491   4.669
58428W        W26791  21.124   9.282  12.421
58429W        W26792  25.568  21.187  12.058
58430W        W26793  23.629  40.314   3.344
58431W        W26794  19.756  44.261   0.340
58432W        W26795  44.465  11.682   5.211
58433W        W26796  29.166   4.335   3.356
58434W        W26797  26.000  11.217  14.023
58435W        W26798  29.477  16.765   3.629
58436W        W26799  16.585  37.852   1.411
58437W        W26800  42.374   1.364  12.029
58438W        W26801  19.240  27.669   3.758
58439W        W26802  36.088  23.997   5.106
58440W        W26803  32.141   8.268  10.601
58441W        W26804   5.249   8.805  11.916
58442W        W26805  44.467   6.913  10.521
58443W        W26806  39.501  43.512   0.252
58444W        W26807  12.218  35.519  13.499
58445W        W26808  14.118  40.524   3.284
58446W        W26809  44.769  22.720   3.279
58447W        W26810  33.954  41.904   2.664
58448W        W26811  26.665   4.377  11.017
58449W        W26812  12.124   1.754   1.298
58450W        W26813  11.647  30.047   0.254
58451W        W26814  13.340  18.750   4.745
58452W        W26815  37.468  22.541   2.386
58453W        W26816  39.371   1.957  14.359
58454W        W26817  39.553  25.063  12.915
58455W        W26818   4.716  10.754  12.082
58456W        W26819  13.260  27.985   3.232
58457W        W26820  26.481  32.462   2.795
58458W        W26821   1.441  41.011  13.863
58459W        W26822   8.811  35.877   3.321
58460W        W26823  32.133  38.074   1.912
58461W        W26824  27.024  16.159  14.935
58462W        W26825   7.401  11.151  12.966
58463W        W26826   0.791   6.349   4.776
58464W        W26827  21.570   5.324  13.375
58465W        W26828  30.592  14.180   2.847
58466W        W26829  37.436   9.886  11.492
58467W        W26830   0.405  39.988   1.725
58468W        W26831  32.526  34.495   2.270
58469W        W26832  38.897   4.726  12.439
58470W        W26833  26.473  28.589   3.759
58471W        W26834   1.849  36.015  12.475
58472W        W26835  34.392  17.171   0.831
58473W        W26836   1.817  44.811   5.295
58474W        W26837  27.683  26.118   3.834
58475W        W26838  10.856  34.980  11.072
58476W        W26839   4.704  21.089  12.572
58477W        W26840  20.206  28.140  10.103
58478W        W26841  21.651  10.734  10.896
58479W        W26842   8.886  25.983  11.612
58480W        W26843  41.860  13.314  12.357
58481W        W26844  15.236  32.913  14.938
58482W        W26845  11.132   0.977  13.049
58483W        W26846  33.011   5.906  12.422
58484W        W26847  44.954  11.659  14.780
58485W        W26848  43.014  10.340  10.463
58486W        W26849  24.525   2.788  11.055
58487W        W26850  44.303  30.107  10.587
58488W        W26851  36.371   8.877  11.484
58489W        W26852  11.695  41.036   1.883
58490W        W26853   4.332  10.726   3.785
58491W        W26854  22.734  22.071   4.789
58492W        W26855  21.188  42.029   0.461
58493W        W26856  22.543  24.112   4.699
58494W        W26857  35.493  36.052  12.908
58495W        W26858  26.547  25.548  11.612
58496W        W26859   1.407  39.512   0.889
58497W        W26860  17.109  17.073  14.829
58498W        W26861   0.376  23.710  13.971
58499W        W26862   2.460  23.995   3.744
58500W        W26863  41.518  16.171  13.414
58501W        W26864   1.313  26.081   3.270
58502W        W26865   6.702  37.901   3.183
58503W        W26866  29.099  10.383  14.282
58504W        W26867  25.597  42.782   0.446
58505W        W26868   8.658  11.371  11.400
58506W        W26869  35.594   1.470   1.258
58507W        W26870  22.074  18.753   0.786
58508W        W26871   8.858  31.523   1.278
58509W        W26872  12.810   2.911   0.340
58510W        W26873  10.271  11.241   4.628
58511W        W26874  27.465  12.836  10.083
58512W        W26875  30.573   7.893  11.982
58513W        W26876   5.313   3.276  14.474
58514W        W26877  41.329  32.934  12.527
58515W        W26878  16.788  35.506  12.999
58516W        W26879  36.901  17.739  13.930
58517W        W26880  36.001   8.237  11.434
58518W        W26881  23.519  35.376   0.460
58519W        W26882   2.435  16.783   0.939
58520W        W26883  16.588  34.478  11.040
58521W        W26884  27.497   1.301  13.510
58522W        W26885   9.656  34.401   4.143
58523W        W26886  27.993  39.811  10.637
58524W        W26887  38.385  28.485  14.942
58525W        W26888  21.515  30.130   4.335
58526W        W26889  28.586  37.410   2.724
58527W        W26890   9.179  10.739   3.238
58528W        W26891  38.350  38.031  12.053
58529W        W26892  41.905   1.371   1.450
58530W        W26893  11.782  26.048   4.685
58531W        W26894  20.722  25.678  14.327
58532W        W26895  40.870   4.943   0.808
58533W        W26896   3.290  43.993   5.205
58534W        W26897   9.278  27.587   1.795
58535W        W26898   0.834  36.044   5.141
58536W        W26899  32.537   3.812   3.672
58537W        W26900  13.805  20.534   3.326
58538W        W26901  10.667  17.771  12.838
58539W        W26902   1.876  19.047   1.799
58540W        W26903  28.631  20.179  10.974
58541W        W26904  29.521  34.559  14.377
58542W        W26905   1.879  13.259  14.390
58543W        W26906  23.018  30.143  10.901
58544W        W26907   3.945   4.791  11.422
58545W        W26908  21.165  28.930   1.361
58546W        W26909  43.350  41.316   2.415
58547W        W26910  12.648  40.932   4.667
58548W        W26911   0.802  15.300   2.189
58549W        W26912  14.757  14.677  14.904
58550W        W26913  17.211  43.924  13.390
58551W        W26914   3.757   8.849   2.695
58552W        W26915  44.404  23.209   5.138
58553W        W26916  12.181  18.122   4.640
58554W        W26917   5.358   7.678   2.824
58555W        W26918  39.944  41.789  11.382
58556W        W26919  44.340   4.718  10.512
58557W        W26920  24.009  34.908  11.991
58558W        W26921  42.373   4.832   1.314
58559W        W26922  41.507  22.241  12.092
58560W        W26923   9.384  23.489  11.577
58561W        W26924  30.574  41.334   3.831
58562W        W26925   1.414  12.203  13.865
58563W        W26926   2.332  21.584  10.964
58564W        W26927   0.334  43.457  14.316
58565W        W26928  18.172  37.527  11.420
58566W        W26929  37.519  26.542  14.492
58567W        W26930  11.327  26.030   2.785
58568W        W26931  33.605  28.534  12.547
58569W        W26932   8.869  38.827  11.501
58570W        W26933   0.445  24.501   0.264
58571W        W26934  40.428  19.652  10.965
58572W        W26935  30.126   5.244   4.299
58573W        W26936  31.449   7.178   3.678
58574W        W26937  43.301  20.185  13.936
58575W        W26938  33.476  32.496  12.049
58576W        W26939  25.632  36.011  10.631
58577W        W26940  39.542  13.186  10.987
58578W        W26941  35.574  39.466   0.338
58579W        W26942  10.235  10.378   3.867
58580W        W26943  27.174  27.457   3.854
58581W        W26944  44.490  38.451   5.085
58582W        W26945  17.195   1.346   0.965
58583W        W26946  28.094  28.955  11.115
58584W        W26947  43.019  35.896  14.422
58585W        W26948  10.872   9.245   2.712
58586W        W26949  32.561  36.528   1.306
58587W        W26950  42.785  32.433   3.652
58588W        W26951  28.553  38.511   4.150
58589W        W26952  17.142  12.794  12.551
58590W        W26953  23.007  24.993   1.697
58591W        W26954  39.543  40.837   2.841
58592W        W26955  30.563   8.699   2.363
58593W        W26956  22.508  22.632   3.357
58594W        W26957  30.942  29.456   2.256
58595W        W26958  13.146  43.945   0.341
58596W        W26959  21.019   9.345   3.295
58597W        W26960  34.371   0.890   2.183
58598W        W26961  38.418  41.400   4.185
58599W        W26962  29.638  28.040   1.752
58600W        W26963  18.608   1.967  13.881
58601W        W26964  19.114  23.028   1.417
58602W        W26965  31.104  36.024   3.646
58603W        W26966  20.601  37.432   1.694
58604W        W26967  12.266   9.691   4.802
58605W        W26968  26.198  25.148   0.773
58606W        W26969  33.897  31.620   2.415
58607W        W26970  31.906  13.637   0.400
58608W        W26971  30.103  27.119   4.597
58609W        W26972  22.509  29.073  13.062
58610W        W26973  21.657  11.737   2.669
58611W        W26974  44.299  33.516  10.423
58612W        W26975  17.195  40.949  12.563
58613W        W26976  29.101  34.014  11.577
58614W        W26977  26.966  35.453   0.263
58615W        W26978   0.377  15.164   0.920
58616W        W26979   9.722  24.633  12.826
58617W        W26980  27.510  10.654   3.832
58618W        W26981  17.306  44.376   1.840
58619W        W26982  20.576  23.172   3.208
58620W        W26983  43.427   7.356   2.762
58621W        W26984  19.651  26.507   5.236
58622W        W26985   0.956  38.335  11.569
58623W        W26986   5.709  21.041   3.210
58624W        W26987   8.730  19.268  13.500
58625W        W26988  36.580   0.771  10.932
58626W        W26989  32.913  13.208  10.960
58627W        W26990  41.498  26.101  14.361
58628W        W26991  40.303   5.208   3.855
58629W        W26992  23.069  37.410   0.931
58630W        W26993  35.536  13.196  11.537
58631W        W26994  30.938   8.365   1.448
58632W        W26995  37.441   3.230  12.486
58633W        W26996   3.858   5.433   2.859
58634W        W26997  23.592  36.553   4.687
58635W        W26998  11.256   1.941  11.378
58636W        W26999  13.275  37.559   1.369
58637W        W27000  37.855  38.070  14.796
58638W        W27001  35.869  23.187  12.004
58639W        W27002   9.749  15.283   2.763
58640W        W27003  18.598  33.435  13.019
58641W        W27004  39.529  21.143   2.710
58642W        W27005  14.129   0.467   0.793
58643W        W27006  15.313  43.367   1.783
58644W        W27007  41.474  42.394  14.930
58645W        W27008  27.106  44.003  10.429
58646W        W27009  19.176   9.800   0.854
58647W        W27010  34.571  21.063   4.803
58648W        W27011  29.938  27.474   4.801
58649W        W27012  11.729  29.625  12.908
58650W        W27013  29.103  11.694  10.579
58651W        W27014  30.150  19.184  13.025
58652W        W27015  38.417  42.359   0.298
58653W        W27016  15.719  42.306  12.937
58654W        W27017  28.978  41.500  13.417
58655W        W27018  27.499  22.602   4.710
58656W        W27019  29.617  31.570   4.179
58657W        W27020  24.490   5.764  10.993
58658W        W27021  44.312  20.735   4.716
58659W        W27022  42.907  16.268  14.373
58660W        W27023  18.783  10.161   0.288
58661W        W27024   6.745  22.684  11.584
58662W        W27025   7.865  27.062   1.800
58663W        W27026   5.919  25.574  13.531
58664W        W27027  16.568  36.981   0.757
58665W        W27028  19.780   4.412  10.128
58666W        W27029  39.885  42.332   0.401
58667W        W27030  27.177   4.297   2.336
58668W        W27031  38.340   9.223   0.455
58669W        W27032   1.904  20.708  13.790
58670W        W27033  12.270  42.831   2.355
58671W        W27034  13.709  22.098   1.784
58672W        W27035  27.107  37.455  14.294
58673W        W27036  38.340  38.951   0.399
58674W        W27037   8.858  21.641   1.255
58675W        W27038   2.894  36.379   0.417
58676W        W27039  37.946   4.316   4.692
58677W        W27040   4.359  27.494   4.183
58678W        W27041  27.991  29.085  12.087
58679W        W27042  31.546  17.132  12.349
58680W        W27043  13.612  31.635   1.421
58681W        W27044  24.990  35.426  14.284
58682W        W27045  39.356  38.439   3.741
58683W        W27046  39.970  35.467  14.492
58684W        W27047  18.605   8.678   0.285
58685W        W27048  11.283  21.666  13.837
58686W        W27049   1.291  23.508  12.504
58687W        W27050  15.778  33.054  10.038
58688W        W27051  24.642  11.747   4.690
58689W        W27052  25.497  35.000  12.862
58690W        W27053  30.519  32.554   1.237
58691W        W27054  10.154   0.337   2.750
58692W        W27055   3.950  10.694   0.290
58693W        W27056  36.540  15.305  14.951
58694W        W27057  29.921  30.040  11.864
58695W        W27058  38.851  16.077   4.235
58696W        W27059  24.624  43.956  10.964
58697W        W27060  41.926  41.465   4.234
58698W        W27061  38.353  44.412  12.452
58699W        W27062  32.633  20.198   0.798
58700W        W27063  12.851  10.652  14.337
58701W        W27064  40.845  27.987   3.347
58702W        W27065  25.524  42.320  10.530
58703W        W27066  34.975  30.037  12.543
58704W        W27067  27.988  23.551  10.976
58705W        W27068  33.928  36.860   2.742
58706W        W27069  24.060   6.371  12.547
58707W        W27070  12.220   1.483   2.192
58708W        W27071  31.136  20.679   0.817
58709W        W27072  30.001   2.962  10.473
58710W        W27073   7.258  26.043   1.331
58711W        W27074   0.940   7.706  13.875
58712W        W27075  31.430   7.668   0.757
58713W        W27076  28.624  39.424  14.481
58714W        W27077  18.241  41.505   4.333
58715W        W27078  26.066  11.164  12.845
58716W        W27079  15.153  41.884  13.482
58717W        W27080  31.545   4.388  14.850
58718W        W27081  38.359  39.375  13.390
58719W        W27082  31.923  14.216   2.691
58720W        W27083  25.553  27.652   3.790
58721W        W27084  41.960  40.017  10.403
58722W        W27085   1.383  18.596  11.530
58723W        W27086  41.974  40.517   2.354
58724W        W27087  12.826  33.577   1.325
58725W        W27088  33.427  16.207   1.369
58726W        W27089  29.455   3.804  10.630
58727W        W27090  12.805  26.656   4.354
58728W        W27091  27.012  34.894   4.305
58729W        W27092  10.274  42.438   3.200
58730W        W27093   7.407  21.716  12.431
58731W        W27094  39.483  17.720   3.361
58732W        W27095  44.877  26.681   3.791
58733W        W27096   2.763   7.849  11.508
58734W        W27097  11.822  23.094  10.467
58735W        W27098  42.935  41.854  10.437
58736W        W27099   4.789  33.565  14.414
58737W        W27100  39.857  20.265  11.939
58738W        W27101  36.886  30.054   3.724
58739W        W27102  36.939   0.474  10.964
58740W        W27103  22.188  21.612  14.907
58741W        W27104   3.257   5.218   4.781
58742W        W27105  25.682  35.441  13.999
58743W        W27106  14.779   2.830  12.840
58744W        W27107  42.508  34.568   0.408
58745W        W27108   1.851  24.595   2.823
58746W        W27109  38.404  14.166  14.964
58747W        W27110  23.718  19.280  11.549
58748W        W27111  23.679  28.574   0.820
58749W        W27112   3.759  12.245   3.310
58750W        W27113  38.036  25.169   0.354
58751W        W27114  22.159  11.198  12.427
58752W        W27115  39.487  25.566  14.810
58753W        W27116  37.932  36.402  14.294
58754W        W27117  34.037  11.271  13.998
58755W        W27118   1.873  21.553   3.800
58756W        W27119  31.589  40.889   3.637
58757W        W27120  31.979   0.931   4.830
58758W        W27121  22.099  36.373  12.940
58759W        W27122  13.716  24.075  11.026
58760W        W27123  39.923  11.245  12.944
58761W        W27124  44.475  42.902   3.250
58762W        W27125  19.261  21.610   2.883
58763W        W27126   7.401  30.109   3.182
58764W        W27127  44.869  16.085   2.262
58765W        W27128   1.381  21.063  11.127
58766W        W27129   1.360  20.681  11.090
58767W        W27130  27.462  42.302   4.177
58768W        W27131  39.396  26.107   3.682
58769W        W27132  24.110   4.864  12.413
58770W        W27133  44.292   6.290  10.571
58771W        W27134  21.204   7.280   1.289
58772W        W27135  40.000  18.656   4.272
58773W        W27136  39.921  26.620  13.030
58774W        W27137   6.332  22.573  11.932
58775W        W27138   5.424  17.130   0.752
58776W        W27139  37.885   1.834   4.219
58777W        W27140  37.573  11.768   4.267
58778W        W27141  18.086  44.984  14.888
58779W        W27142  21.754  38.916  13.522
58780W        W27143  33.482  13.818  10.093
58781W        W27144  37.343  44.275   2.334
58782W        W27145  41.854  24.011   0.878
58783W        W27146  38.964  41.322  12.374
58784W        W27147  15.157  36.861  10.606
58785W        W27148  32.492   6.259  14.032
58786W        W27149  33.994  32.542   1.725
58787W        W27150  15.242  40.398   2.709
58788W        W27151   3.383  38.057  10.940
58789W        W27152  24.544  39.918   4.636
58790W        W27153  26.069   0.919   4.704
58791W        W27154  20.584  33.925   4.772
58792W        W27155  19.745  30.413  11.038
58793W        W27156  25.562  18.051   2.699
58794W        W27157  15.746   8.800   3.738
58795W        W27158  40.033  44.760   0.250
58796W        W27159  35.881   0.467   4.766
58797W        W27160  18.591  20.257  12.384
58798W        W27161  41.378  18.133  11.051
58799W        W27162  43.307  25.128   0.926
58800W        W27163  23.578  24.162  11.472
58801W        W27164  37.876  40.042  13.910
58802W        W27165   9.669   8.692   2.350
58803W        W27166  29.484  20.061   1.280
58804W        W27167  33.437   6.237   0.326
58805W        W27168  22.516   8.200   3.372
58806W        W27169   7.182  19.655  14.795
58807W        W27170  38.327   8.327   3.299
58808W        W27171  34.598  35.080  10.622
58809W        W27172  40.797  28.148   1.299
58810W        W27173  39.981  37.930  13.500
58811W        W27174  27.970  34.555  14.456
58812W        W27175  29.026   1.386   0.762
58813W        W27176  12.277  26.207   0.794
58814W        W27177  27.942  33.895  13.054
58815W        W27178  41.329  19.720  13.535
58816W        W27179  31.489  36.950  14.949
58817W        W27180   9.229  38.971  13.064
58818W        W27181  21.111  43.982  10.149
58819W        W27182  30.139  42.856   9.919
58820W        W27183  37.021  39.901  11.442
58821W        W27184  34.399  40.497   0.413
58822W        W27185  25.000  16.097   2.307
58823W        W27186  37.561   6.401   0.859
58824W        W27187   5.361   3.264   3.354
58825W        W27188  35.505  17.789  10.473
58826W        W27189  17.097  22.226   4.263
58827W        W27190  35.527  13.270  10.512
58828W        W27191  33.406  39.348   4.695
58829W        W27192  36.360  18.752   0.345
58830W        W27193  39.359   9.205  13.873
58831W        W27194  30.047  36.096  14.816
58832W        W27195   6.754   2.927   0.339
58833W        W27196  40.487  42.829   5.300
58834W        W27197  23.013  38.343  12.450
58835W        W27198  23.614  22.136  13.951
58836W        W27199  18.259  15.698   0.735
58837W        W27200  23.040  35.885   0.479
58838W        W27201   8.331   5.887  14.952
58839W        W27202  25.043  24.649  12.945
58840W        W27203  20.197  28.047  11.123
58841W        W27204   0.336  20.591  14.380
58842W        W27205  19.777  33.949  12.885
58843W        W27206  18.128   6.910  11.917
58844W        W27207  17.206  14.336  12.081
58845W        W27208  23.526  28.977  13.366
58846W        W27209  44.371  14.218  10.438
58847W        W27210   1.841  44.310   3.182
58848W        W27211  44.345   9.198   3.306
58849W        W27212   4.730  10.701  13.818
58850W        W27213   7.882  29.171   2.264
58851W        W27214  19.660   4.874  11.954
58852W        W27215   9.284  30.913  12.073
58853W        W27216   2.834  14.168   3.202
58854W        W27217   5.737  41.420   4.208
58855W        W27218   9.269  20.260   4.179
58856W        W27219  28.114  20.732  12.521
58857W        W27220   3.717  26.171  12.893
58858W        W27221  22.600  42.466   3.247
58859W        W27222  44.909  42.906   0.417
58860W        W27223  34.464  36.483  12.461
58861W        W27224  41.416  29.596  11.374
58862W        W27225  22.127  13.799   0.476
58863W        W27226  42.417   0.927   2.797
58864W        W27227  36.440  33.528   1.361
58865W        W27228   5.393  22.719   1.845
58866W        W27229  18.273   5.245   0.833
58867W        W27230  38.350  14.735   4.341
58868W        W27231  16.744  33.511  14.355
58869W        W27232  40.485  13.203  11.474
58870W        W27233  37.916  28.460   0.460
58871W        W27234   4.929  40.459  13.425
58872W        W27235   1.901   7.871  10.593
58873W        W27236  25.104  24.985   2.662
58874W        W27237  21.586   0.822  10.607
58875W        W27238   1.381  35.484   3.784
58876W        W27239   1.438  40.967   3.345
58877W        W27240  17.137  28.017  12.894
58878W        W27241  32.960  18.151  12.898
58879W        W27242  34.565  10.656  13.968
58880W        W27243  14.337  26.011  13.019
58881W        W27244   4.812  31.585  12.922
58882W        W27245  10.775  23.497  14.976
58883W        W27246   6.203   0.930  10.409
58884W        W27247  21.242  38.466   4.249
58885W        W27248   6.745   5.852   4.190
58886W        W27249  10.355  30.428  12.536
58887W        W27250  34.051  17.203  13.873
58888W        W27251   4.879  10.823   3.153
58889W        W27252  42.826  38.539   2.326
58890W        W27253  38.035  29.648   0.770
58891W        W27254  42.421   4.851  11.419
58892W        W27255  20.081  41.354   5.138
58893W        W27256  20.222  16.087  14.799
58894W        W27257  35.578  44.459  13.023
58895W        W27258  21.022  32.458   0.738
58896W        W27259  22.037  22.046   4.312
58897W        W27260  44.403  44.449  10.509
58898W        W27261  30.457  33.609   0.414
58899W        W27262  17.294  37.963   4.648
58900W        W27263  17.588  23.062   1.302
58901W        W27264  32.630  20.717  12.556
58902W        W27265  20.171   5.360  13.405
58903W        W27266  35.102  27.689   0.387
58904W        W27267  20.103   9.372   3.256
58905W        W27268  10.787  14.154   2.736
58906W        W27269  13.796  31.410   0.290
58907W        W27270  26.556  33.604   2.268
58908W        W27271   4.762  25.187   4.647
58909W        W27272  44.341  16.164  12.861
58910W        W27273  14.807   4.392  13.015
58911W        W27274  22.695  22.653   1.306
58912W        W27275  28.582  27.161  12.422
58913W        W27276  33.013  38.020   4.806
58914W        W27277  37.451   6.752   3.712
58915W        W27278  39.533  11.250   5.161
58916W        W27279  26.584  24.498  11.069
58917W        W27280  33.469  26.103  13.816
58918W        W27281  14.285  44.847  10.921
58919W        W27282   1.411  35.022   0.846
58920W        W27283  42.525   2.962  14.958
58921W        W27284  23.175  32.584   4.345
58922W        W27285  21.644   1.287   2.889
58923W        W27286  40.993   6.200   2.811
58924W        W27287  43.999  34.384  13.843
58925W        W27288  11.636   3.280   3.866
58926W        W27289   0.908  35.587  12.478
58927W        W27290  37.930  30.418  11.523
58928W        W27291   0.344   8.838   0.959
58929W        W27292  35.946  33.552   2.332
58930W        W27293  35.868  17.299   0.775
58931W        W27294  31.067  23.539   4.263
58932W        W27295  43.355  28.499  13.826
58933W        W27296   2.357  11.770  10.485
58934W        W27297  22.236  35.542  11.988
58935W        W27298   8.176  14.600   3.802
58936W        W27299  42.413  11.652   4.800
58937W        W27300  31.477   7.266   0.939
58938W        W27301  35.561   9.755  12.997
58939W        W27302  37.344  39.946  10.065
58940W        W27303  12.674  37.997  13.866
58941W        W27304   6.296  42.931   5.112
58942W        W27305  42.851  16.266  12.988
58943W        W27306  38.412   4.317   4.281
58944W        W27307   4.801  17.236   0.384
58945W        W27308  25.199  36.891   4.186
58946W        W27309  26.184  33.514  13.829
58947W        W27310  30.994   3.444   5.292
58948W        W27311   3.310  35.545  13.406
58949W        W27312  40.460  32.513  11.984
58950W        W27313  32.022   1.249  14.285
58951W        W27314  32.589   8.396  12.348
58952W        W27315   1.926   1.475   2.723
58953W        W27316   4.331  20.564   0.304
58954W        W27317  31.456  42.915  13.902
58955W        W27318  25.177  22.541   2.347
58956W        W27319   5.828  22.109  14.398
58957W        W27320  35.523  43.783   1.717
58958W        W27321  34.529  41.414   4.661
58959W        W27322  42.405  28.670   4.283
58960W        W27323  16.801  26.073   0.892
58961W        W27324  18.647  36.868  13.916
58962W        W27325  35.095   3.802  11.123
58963W        W27326  31.936  41.380   2.349
58964W        W27327  13.787   2.232  14.450
58965W        W27328  20.554   7.294   0.246
58966W        W27329  16.584   7.812  13.327
58967W        W27330  36.534  34.025   0.915
58968W        W27331  34.006  43.289   0.760
58969W        W27332   2.243  25.179  10.063
58970W        W27333  23.057   3.813  14.397
58971W        W27334  39.831  23.634  11.543
58972W        W27335  33.450  35.862  11.423
58973W        W27336  36.912  43.888  11.392
58974W        W27337  11.252  18.243   0.330
58975W        W27338  26.697  22.222   3.149
58976W        W27339   1.320   0.904  11.516
58977W        W27340   8.848  13.730  12.945
58978W        W27341  35.444  18.231  11.999
58979W        W27342  40.523  26.638  14.825
58980W        W27343  25.546  26.647   4.255
58981W        W27344   8.798  26.160   3.853
58982W        W27345  27.624  15.286  14.861
58983W        W27346   3.872  31.619  10.576
58984W        W27347  30.982  32.898  10.909
58985W        W27348  40.492   8.335  14.381
58986W        W27349  33.878  34.980   0.852
58987W        W27350  12.149  30.087  13.921
58988W        W27351   9.767  32.431   2.822
58989W        W27352  22.102  17.192   0.963
58990W        W27353  19.766   3.260  14.370
58991W        W27354  36.984  13.239  12.501
58992W        W27355   1.420  35.070  12.923
58993W        W27356  27.965   6.696  10.562
58994W        W27357  23.650  44.008   3.304
58995W        W27358   0.869  10.205   4.163
58996W        W27359   2.399  39.408   1.227
58997W        W27360   6.291  27.682  12.528
58998W        W27361  16.726   1.960  11.978
58999W        W27362  38.873  19.570  12.520
59000W        W27363  24.209  21.625   4.288
59001W        W27364  38.995  22.076   1.379
59002W        W27365  16.194  39.854   3.195
59003W        W27366  24.982  30.980   5.247
59004W        W27367  38.552  24.011   4.827
59005W        W27368  32.551   0.337  11.025
59006W        W27369  32.449  19.701   1.743
59007W        W27370  34.032  44.884   5.205
59008W        W27371  19.736  43.881  11.429
59009W        W27372  26.013  31.930   2.736
59010W        W27373  25.084  26.114  14.442
59011W        W27374  20.043  23.095   4.264
59012W        W27375  16.630  15.741   3.637
59013W        W27376  19.079  39.364   4.696
59014W        W27377  15.084  25.676  12.935
59015W        W27378  40.849  37.580   0.754
59016W        W27379   2.437  13.199   0.340
59017W        W27380  44.372  13.224  13.793
59018W        W27381   7.875  11.847   3.343
59019W        W27382   6.181   9.803  13.866
59020W        W27383  16.200  36.518   4.348
59021W        W27384   7.373  24.168  11.980
59022W        W27385  39.894  18.663   2.237
59023W        W27386  21.604  37.020   1.272
59024W        W27387  24.182   1.846   4.237
59025W        W27388  12.353  43.497   1.301
59026W        W27389  12.306  15.149  13.004
59027W        W27390  18.592  39.839   4.617
59028W        W27391   4.825  29.643  12.886
59029W        W27392  11.294  40.389  12.040
59030W        W27393  41.430   5.698   0.394
59031W        W27394   5.273   3.790  14.859
59032W        W27395  31.570  11.363   2.721
59033W        W27396  24.076  30.949  11.558
59034W        W27397  24.619  18.100   4.668
59035W        W27398  24.662  11.864   0.395
59036W        W27399  23.113  24.605  14.027
59037W        W27400   6.413  26.183  14.508
59038W        W27401   8.370  41.798   2.673
59039W        W27402  28.995  40.810   2.351
59040W        W27403   2.845  22.685  10.105
59041W        W27404  26.623  29.627   2.369
59042W        W27405  14.596   2.810  13.950
59043W        W27406  18.745  13.124  13.479
59044W        W27407   0.753  25.163   0.956
59045W        W27408  39.450  35.537  11.998
59046W        W27409  11.300  43.928   0.841
59047W        W27410   6.818  16.271  10.566
59048W        W27411  25.574  18.087   3.713
59049W        W27412   2.300  32.405  11.448
59050W        W27413  33.491  30.158  11.034
59051W        W27414  31.521  25.091  12.926
59052W        W27415  41.454  17.568   0.273
59053W        W27416  44.755   0.394   0.737
59054W        W27417   8.350  36.482   4.166
59055W        W27418   9.694  10.218   3.635
59056W        W27419   5.823  28.092  10.447
59057W        W27420  38.982  15.689   0.730
59058W        W27421   5.793  18.772   1.409
59059W        W27422  29.614  43.442  10.942
59060W        W27423  12.175  33.130  14.911
59061W        W27424  10.789   8.790   4.827
59062W        W27425  40.893  11.288   4.783
59063W        W27426  37.432  12.785  13.797
59064W        W27427   6.856  15.291  12.995
59065W        W27428  29.127   1.451   2.325
59066W        W27429  39.904  14.600   2.666
59067W        W27430  10.164   9.736  13.323
59068W        W27431  40.890  12.732   1.721
59069W        W27432  10.291  29.100  11.492
59070W        W27433  40.547  26.582   2.694
59071W        W27434  33.556  28.501  10.153
59072W        W27435   9.835  42.518  13.445
59073W        W27436  35.592  30.995  10.889
59074W        W27437  19.728  26.565  12.072
59075W        W27438   2.877  43.408  11.407
59076W        W27439  26.641  11.693  14.865
59077W        W27440  21.110   7.801   3.310
59078W        W27441  13.231  43.373  12.356
59079W        W27442   2.385  38.395  11.023
59080W        W27443  19.235  40.876  11.001
59081W        W27444  22.523  20.269   3.153
59082W        W27445  20.566  42.471   1.371
59083W        W27446  27.655  10.873  14.395
59084W        W27447  30.539  28.124  10.421
59085W        W27448  33.123  12.663   0.455
59086W        W27449  43.856   6.263   3.208
59087W        W27450  15.159  43.951   4.811
59088W        W27451  30.478  32.392  12.937
59089W        W27452  19.134  41.472   4.758
59090W        W27453  44.415  37.868   2.877
59091W        W27454  20.636  44.964  14.795
59092W        W27455  10.358   4.383  14.898
59093W        W27456   3.948  18.590  14.348
59094W        W27457  21.739  23.734  10.550
59095W        W27458  20.570  15.256   1.262
59096W        W27459  19.135  25.000  12.366
59097W        W27460  40.325   6.786  10.640
59098W        W27461  29.042  29.612   2.711
59099W        W27462  34.898  11.221  12.524
59100W        W27463  27.578  15.174  13.379
59101W        W27464   3.839  13.635   4.671
59102W        W27465   0.475  20.699   0.291
59103W        W27466  35.075  37.365  13.827
59104W        W27467  10.813  31.900  12.552
59105W        W27468  41.485  22.149  12.476
59106W        W27469  24.230   3.443  14.320
59107W        W27470   2.910  10.871  12.047
59108W        W27471  37.394  40.868  12.973
59109W        W27472  21.248  10.832  13.425
59110W        W27473  23.036   5.722  13.856
59111W        W27474  17.655  20.691   3.345
59112W        W27475   8.884  25.146  11.376
59113W        W27476  36.870   6.915  14.031
59114W        W27477   3.236   0.306   0.782
59115W        W27478   4.292   0.398  11.982
59116W        W27479  30.605  25.682   4.670
59117W        W27480  32.600  12.142  11.020
59118W        W27481  20.761  14.149  10.472
59119W        W27482  41.989  16.310  13.353
59120W        W27483  41.487  31.580   1.317
59121W        W27484  15.637  11.726   5.086
59122W        W27485   9.283  12.148  10.495
59123W        W27486  43.982  43.796   3.222
59124W        W27487  27.946  11.625   4.625
59125W        W27488  38.954   1.866   4.739
59126W        W27489  18.687   8.876  10.046
59127W        W27490  12.241  16.721  14.986
59128W        W27491   7.887  27.183   2.696
59129W        W27492   2.295  44.438  11.510
59130W        W27493   7.315  26.697   4.650
59131W        W27494   6.350  28.577   2.878
59132W        W27495  31.502   8.399   3.843
59133W        W27496  29.602  13.819  11.437
59134W        W27497  32.439  36.874   3.243
59135W        W27498  22.505  26.641   3.218
59136W        W27499  12.268   8.784   0.445
59137W        W27500   5.354  27.168   1.931
59138W        W27501  40.886  23.642   3.825
59139W        W27502  40.303   6.902  11.984
59140W        W27503   4.901   2.924  14.451
59141W        W27504   6.798  33.970  12.984
59142W        W27505  37.837  43.968  13.049
59143W        W27506  13.764   8.669   1.760
59144W        W27507  26.513  42.934  14.376
59145W        W27508  33.106   4.714   2.805
59146W        W27509  16.759  15.701  10.032
59147W        W27510  35.400  35.975   4.271
59148W        W27511  19.144  42.991   2.848
59149W        W27512  22.046   9.831   1.363
59150W        W27513  43.378  43.345   0.780
59151W        W27514  34.604  40.425   1.754
59152W        W27515  24.654  13.174  12.045
59153W        W27516  34.423   4.770  14.927
59154W        W27517   0.314  19.615   2.416
59155W        W27518  19.281   4.746   3.320
59156W        W27519  27.666   9.381   0.861
59157W        W27520   0.966  42.864   1.718
59158W        W27521  27.639  31.936   5.293
59159W        W27522  28.930  33.909   4.649
59160W        W27523   3.831   2.427  12.531
59161W        W27524   5.812   9.214  11.069
59162W        W27525   7.800  11.242   0.258
59163W        W27526  33.407  34.410  12.546
59164W        W27527   7.775   8.185   3.836
59165W        W27528  22.562  43.834   1.326
59166W        W27529  28.583  13.775   5.678
59167W        W27530  41.929  38.017   4.794
59168W        W27531  38.540  19.633  10.968
59169W        W27532  37.467  34.442  12.486
59170W        W27533   3.926  38.348  12.339
59171W        W27534   9.881  34.033   4.342
59172W        W27535  42.479  18.546   0.342
59173W        W27536  41.869  37.917   0.398
59174W        W27537  25.696  20.082  14.789
59175W        W27538   8.669  40.400  10.602
59176W        W27539   3.884  42.361  13.825
59177W        W27540  20.740   6.874  14.436
59178W        W27541  20.053  36.523  12.935
59179W        W27542  21.648  20.649   0.340
59180W        W27543   9.326  15.604   3.736
59181W        W27544  37.440  21.564   0.785
59182W        W27545  38.041  11.803   4.130
59183W        W27546  30.569  32.030   9.933
59184W        W27547  44.358  36.973   1.853
59185W        W27548  23.628  20.154   1.404
59186W        W27549   9.358   7.370  10.603
59187W        W27550  32.553   6.223  14.818
59188W        W27551  24.075  32.908   3.808
59189W        W27552  31.641  16.591   1.278
59190W        W27553   4.348  18.273  10.491
59191W        W27554  24.692  44.370   0.753
59192W        W27555  18.628  41.897  11.055
59193W        W27556  17.718  43.941   5.698
59194W        W27557  24.661  35.574   1.354
59195W        W27558  11.308  40.907  11.875
59196W        W27559  19.679  11.277   0.356
59197W        W27560  10.860  43.855  13.019
59198W        W27561  20.678  24.495   4.224
59199W        W27562   3.335  38.429   0.328
59200W        W27563  21.724   6.214   0.345
59201W        W27564  30.512  25.634  11.407
59202W        W27565  18.614   7.887  11.042
59203W        W27566  11.131  33.919  13.368
59204W        W27567  26.207   1.749  14.278
59205W        W27568  44.297  40.318  10.968
59206W        W27569  35.060  25.569  14.842
59207W        W27570  29.087  27.168  14.516
59208W        W27571  41.466  23.609  12.973
59209W        W27572   8.794  42.457  13.530
59210W        W27573  28.172   0.987  13.969
59211W        W27574   5.258  23.570   2.829
59212W        W27575  25.089  32.547  13.849
59213W        W27576  23.049  19.108   2.272
59214W        W27577   4.401   9.307  13.058
59215W        W27578  15.639   4.434   9.580
59216W        W27579  44.331  44.895  10.505
59217W        W27580  37.485  38.356   0.361
59218W        W27581  35.944  36.437   4.205
59219W        W27582  25.596   2.368  12.874
59220W        W27583  29.097  18.630  12.859
59221W        W27584  24.601  41.295  13.968
59222W        W27585  19.750  19.571  13.313
59223W        W27586  34.570  31.049  10.631
59224W        W27587  16.165  17.130  10.422
59225W        W27588  19.736  44.293   5.102
59226W        W27589  10.867   4.436   3.630
59227W        W27590  36.043  37.500   4.139
59228W        W27591   7.906  16.638  10.926
59229W        W27592  30.625  20.690   3.187
59230W        W27593  27.499  13.722  12.916
59231W        W27594  29.988   6.224  11.111
59232W        W27595  13.830   8.705  12.026
59233W        W27596   4.373   9.803   1.792
59234W        W27597   4.891  26.675  12.013
59235W        W27598  13.105   3.897  14.885
59236W        W27599  33.094  39.530  10.985
59237W        W27600  39.446   1.831  11.509
59238W        W27601  11.857   2.466   0.256
59239W        W27602  10.832  22.554  10.539
59240W        W27603  41.504  30.567   0.392
59241W        W27604  34.515  19.543  12.045
59242W        W27605   1.479   9.657  10.980
59243W        W27606   8.336  29.566   3.262
59244W        W27607  22.251  23.158   3.774
59245W        W27608  15.133  32.461  13.402
59246W        W27609  14.183  19.237   1.399
59247W        W27610  13.254  44.498   0.346
59248W        W27611  38.857  20.153   0.274
59249W        W27612  14.339  14.777   1.357
59250W        W27613  19.235  21.262   1.822
59251W        W27614  42.403  20.619  14.827
59252W        W27615  39.066   2.854   1.210
59253W        W27616  34.610  37.062   2.881
59254W        W27617  10.859  18.269   3.149
59255W        W27618  17.656  10.285   2.740
59256W        W27619  14.167  30.475  13.795
59257W        W27620  39.963   9.230  10.976
59258W        W27621  35.077   5.226   1.818
59259W        W27622  20.084  17.182   1.932
59260W        W27623   4.831  34.585  12.069
59261W        W27624  26.647  16.141   0.468
59262W        W27625   7.680   7.300   3.681
59263W        W27626  14.767  30.999   0.451
59264W        W27627  33.529  28.481  11.963
59265W        W27628  14.761  33.407  12.576
59266W        W27629   6.330  27.091   3.754
59267W        W27630   5.748  32.037   4.279
59268W        W27631   2.888  30.649   2.671
59269W        W27632  33.129  25.190  11.392
59270W        W27633  19.672  28.658  13.810
59271W        W27634  37.963  29.534   3.336
59272W        W27635   6.767   8.353   1.892
59273W        W27636  18.715  11.250   1.826
59274W        W27637  18.732  20.603  14.873
59275W        W27638  25.481  37.472  13.486
59276W        W27639  38.379  31.905   3.855
59277W        W27640   7.398  33.392   1.409
59278W        W27641  31.940  30.624   2.418
59279W        W27642  31.469  42.999   1.254
59280W        W27643  36.867  21.680  10.927
59281W        W27644  11.162  18.165   1.391
59282W        W27645   3.396   7.279  14.380
59283W        W27646   1.349  33.952   1.880
59284W        W27647  39.003  26.079  12.368
59285W        W27648  27.519  25.025  12.533
59286W        W27649  21.662  44.360   4.751
59287W        W27650  41.407  42.018   3.853
59288W        W27651  36.037  13.703  12.036
59289W        W27652  35.941  44.000  11.461
59290W        W27653  12.123   9.830   0.789
59291W        W27654   0.831   2.831  14.317
59292W        W27655  15.782  25.543  11.436
59293W        W27656  28.565  41.008   2.337
59294W        W27657  36.917  13.723   0.821
59295W        W27658   4.386  28.126  14.978
59296W        W27659  34.001  14.596   2.227
59297W        W27660  37.433  21.091  13.051
59298W        W27661  10.288  39.025   5.145
59299W        W27662  20.756  23.646  14.452
59300W        W27663   2.419  36.845  10.612
59301W        W27664  26.555  37.457   0.833
59302W        W27665  20.236  18.289   0.819
59303W        W27666  27.498  12.794  13.535
59304W        W27667  40.829  43.830   4.636
59305W        W27668  24.170   1.373   0.290
59306W        W27669  19.687  41.517   0.350
59307W        W27670  44.761  17.304  12.857
59308W        W27671   3.835  19.051  14.015
59309W        W27672   4.310  14.165  13.422
59310W        W27673  18.255   1.780   0.947
59311W        W27674  16.244  20.632   4.113
59312W        W27675  37.499  11.742   3.307
59313W        W27676  21.211   1.907   1.799
59314W        W27677  40.378  35.999  13.488
59315W        W27678  43.494  10.637  10.953
59316W        W27679  21.235  42.344   1.803
59317W        W27680   7.240  22.567   0.249
59318W        W27681  28.958  13.271   1.928
59319W        W27682  33.104  25.199   4.758
59320W        W27683  24.074  25.000   5.112
59321W        W27684   8.397  25.136  11.372
59322W        W27685  36.525  16.595   3.326
59323W        W27686  39.450  21.623   3.730
59324W        W27687  39.544   9.250   2.865
59325W        W27688  21.553  34.077   2.899
59326W        W27689  14.179  30.498  11.111
59327W        W27690  33.939  43.918   0.873
59328W        W27691  43.015  42.001   5.220
59329W        W27692  31.081  33.965   2.268
59330W        W27693  41.825  15.586  14.030
59331W        W27694  22.007   6.243   2.873
59332W        W27695  30.549  24.543  13.062
59333W        W27696  44.881   7.667   2.755
59334W        W27697  24.574  33.387   2.362
59335W        W27698  19.249  42.923   1.922
59336W        W27699  36.856  36.549  13.416
59337W        W27700  26.673  16.294   3.820
59338W        W27701  23.145  42.800   4.166
59339W        W27702  38.496   6.895  10.448
59340W        W27703  43.434  31.482  10.412
59341W        W27704  16.777   8.251   4.796
59342W        W27705  16.101   9.831  11.004
59343W        W27706  32.021  29.536   5.316
59344W        W27707   8.668   6.404   2.254
59345W        W27708  19.746  15.153   0.346
59346W        W27709  41.530  37.364  13.864
59347W        W27710  35.095   5.310  14.300
59348W        W27711  31.640  15.123   0.939
59349W        W27712   4.332  15.612  12.853
59350W        W27713  23.170  42.465   1.863
59351W        W27714  32.513  19.177  12.080
59352W        W27715   7.667  19.772   2.810
59353W        W27716   3.337  32.523   5.140
59354W        W27717  14.114  21.714  12.520
59355W        W27718  15.750   7.262   0.364
59356W        W27719  14.166  39.818   0.390
59357W        W27720  37.906   0.322   5.121
59358W        W27721  27.050   8.284  12.470
59359W        W27722  32.983  31.560   2.299
59360W        W27723  39.482  18.164  14.015
59361W        W27724  37.047  21.206   4.190
59362W        W27725  25.710  10.762  10.962
59363W        W27726  22.715  33.895  14.005
59364W        W27727   8.199  44.927  12.544
59365W        W27728  21.126   2.731   0.876
59366W        W27729  12.218  41.343  13.524
59367W        W27730   4.287  44.269   0.815
59368W        W27731  11.720  29.966  12.388
59369W        W27732  22.630  22.035   0.258
59370W        W27733   3.311  12.356   3.674
59371W        W27734   8.889  41.334   1.828
59372W        W27735  13.620  36.552   2.305
59373W        W27736  25.170  30.579  11.115
59374W        W27737  23.494  31.556   3.762
59375W        W27738  32.516   9.195   3.212
59376W        W27739  26.115  29.121   4.689
59377W        W27740  44.448  44.262   1.355
59378W        W27741  16.586  17.230  11.437
59379W        W27742  19.197  32.923   0.339
59380W        W27743  33.944  13.717  12.891
59381W        W27744  21.078  27.172  10.419
59382W        W27745  35.982  38.356  10.510
59383W        W27746  20.134  25.698   3.305
59384W        W27747   8.402   3.278  10.551
59385W        W27748  42.906  13.636  13.032
59386W        W27749  37.899  39.326   3.189
59387W        W27750   1.433   4.371  13.408
59388W        W27751  12.329   7.683   2.245
59389W        W27752  34.476  15.191   3.739
59390W        W27753  43.462  29.465   4.330
59391W        W27754  16.749  38.036  10.454
59392W        W27755  11.230   7.679   3.241
59393W        W27756  26.525  40.023  10.566
59394W        W27757  18.236  24.082  13.474
59395W        W27758   0.364  21.034  11.862
59396W        W27759  10.234   5.238  12.007
59397W        W27760  19.638  26.134  12.432
59398W        W27761   1.947  18.646   5.315
59399W        W27762  16.769  20.031  12.463
59400W        W27763  32.560  32.516   4.804
59401W        W27764  19.040  28.674   3.771
59402W        W27765  43.923   1.905   3.338
59403W        W27766  23.034  42.411  13.485
59404W        W27767  17.257   7.768   4.687
59405W        W27768   5.213  25.713  10.567
59406W        W27769  28.652   0.752  12.083
59407W        W27770  35.888  15.591  13.323
59408W        W27771  44.389  17.071   2.365
59409W        W27772  15.671  38.485   2.804
59410W        W27773  30.068  40.443  14.343
59411W        W27774  31.052  19.123  11.012
59412W        W27775   8.749  24.048  13.833
59413W        W27776  44.784   2.308   4.785
59414W        W27777  38.420  35.090   2.744
59415W        W27778   1.331   4.731   0.277
59416W        W27779   1.267  27.089  14.490
59417W        W27780  28.987  19.567   1.748
59418W        W27781  44.494  27.941  10.615
59419W        W27782  38.346  35.925  12.938
59420W        W27783  41.019  10.849  11.105
59421W        W27784   2.343  36.021  13.886
59422W        W27785   4.407   5.900  14.791
59423W        W27786  24.142  31.428   1.349
59424W        W27787  26.965  32.451  14.338
59425W        W27788   4.763  41.400   3.778
59426W        W27789   8.666  27.503   0.368
59427W        W27790  42.979   2.441   0.744
59428W        W27791   0.852  30.990  12.417
59429W        W27792  41.812  26.982   4.813
59430W        W27793  24.684   1.246  11.483
59431W        W27794  32.503  31.074  14.422
59432W        W27795  43.858   7.784   2.742
59433W        W27796   1.802  26.192  12.838
59434W        W27797   5.770  44.358   2.216
59435W        W27798  32.115  33.908   4.176
59436W        W27799  27.982  14.263  14.390
59437W        W27800  44.874  15.601  14.417
59438W        W27801  30.982  23.704  13.420
59439W        W27802   9.169  13.191   0.278
59440W        W27803  38.404  26.958  14.966
59441W        W27804  44.456   0.369   0.401
59442W        W27805  24.997  38.053  10.935
59443W        W27806   7.870  12.134  14.931
59444W        W27807  12.636  43.855   4.678
59445W        W27808  38.906  39.885  14.829
59446W        W27809  18.060   3.884  13.860
59447W        W27810  18.716   6.772   3.358
59448W        W27811  39.025  11.257   2.362
59449W        W27812  34.037  41.917   2.208
59450W        W27813  13.211  11.213  12.388
59451W        W27814  33.623  14.632  11.562
59452W        W27815  19.165   2.839  12.489
59453W        W27816  43.466  21.617   1.908
59454W        W27817   1.836  27.684   2.392
59455W        W27818  42.939  41.390  11.458
59456W        W27819  40.319  41.842  12.386
59457W        W27820  30.002  21.621  14.286
59458W        W27821  22.204  30.107  13.971
59459W        W27822  18.614   8.300   2.778
59460W        W27823  42.437  33.403   2.708
59461W        W27824  22.034  23.136  14.419
59462W        W27825  25.579  29.612  12.544
59463W        W27826  43.001  11.637  13.821
59464W        W27827   9.160   4.327  10.980
59465W        W27828  36.879  20.028  12.466
59466W        W27829  24.685   2.938   2.765
59467W        W27830  15.214   4.224  13.309
59468W        W27831  25.618  31.434  11.481
59469W        W27832  17.643   9.719  12.856
59470W        W27833   5.348  43.324   1.268
59471W        W27834  43.877  31.046  12.423
59472W        W27835  30.138  38.498  12.946
59473W        W27836   0.290  42.460  10.596
59474W        W27837  19.048   1.887   2.899
59475W        W27838   2.311  25.516   9.598
59476W        W27839  41.394  17.268  10.893
59477W        W27840  10.792  19.574   2.260
59478W        W27841  12.818  30.422   2.888
59479W        W27842  18.617  15.708  12.885
59480W        W27843   2.465  20.534  13.042
59481W        W27844  30.614   6.892   4.792
59482W        W27845  42.917   5.416  13.936
59483W        W27846  37.024  29.653  14.336
59484W        W27847  17.604   3.836   2.736
59485W        W27848  24.554  25.172   2.221
59486W        W27849  11.702  31.052  13.310
59487W        W27850   7.330  22.614  12.508
59488W        W27851  25.212  26.971  10.571
59489W        W27852  22.227  23.170  11.426
59490W        W27853   8.315   0.871  14.374
59491W        W27854  10.731  19.040   0.356
59492W        W27855  14.296  17.295   2.349
59493W        W27856   3.301  37.072  14.430
59494W        W27857  21.199  31.498   3.772
59495W        W27858  14.656  27.019   1.836
59496W        W27859  24.482  25.695   2.417
59497W        W27860  35.013  19.277   3.730
59498W        W27861  20.096   4.801   4.606
59499W        W27862  23.112   9.662  14.353
59500W        W27863  36.890  29.551   2.417
59501W        W27864  44.897   0.319  11.950
59502W        W27865  10.347  12.845   5.202
59503W        W27866  34.008   1.325  14.766
59504W        W27867  39.487  37.983   4.145
59505W        W27868   3.220  23.087   0.247
59506W        W27869  30.070  23.706  11.888
59507W        W27870  36.867  16.208   0.811
59508W        W27871  31.638  15.586   3.859
59509W        W27872  25.710  36.381  12.042
59510W        W27873  18.074  28.186   1.438
59511W        W27874  13.342   9.357  10.931
59512W        W27875  39.364   0.900  10.426
59513W        W27876  18.295  44.896   1.915
59514W        W27877  40.427   7.254   3.649
59515W        W27878  30.098  29.433  11.505
59516W        W27879   8.170  35.404   3.696
59517W        W27880  24.145  39.363  11.953
59518W        W27881  41.969  10.326  12.004
59519W        W27882  26.137  32.527   2.884
59520W        W27883  35.399   8.227  11.944
59521W        W27884   5.220  43.935   9.654
59522W        W27885  14.642  44.004  14.346
59523W        W27886   6.710   3.224  12.866
59524W        W27887   1.420   9.671   3.735
59525W        W27888   2.734  20.676   2.900
59526W        W27889   1.803  13.725   0.765
59527W        W27890  30.615  43.351  14.383
59528W        W27891  18.255  40.994   1.934
59529W        W27892  14.109  11.622   1.419
59530W        W27893  27.196  18.591   2.803
59531W        W27894  21.678  41.309   1.846
59532W        W27895   2.863  23.051  11.609
59533W        W27896  22.719  30.986  10.522
59534W        W27897  30.045  33.476  12.454
59535W        W27898  27.638  42.820  13.795
59536W        W27899  12.762   8.716  13.931
59537W        W27900  21.152  10.294  14.791
59538W        W27901   4.727  10.326  11.992
59539W        W27902  22.213  25.614   3.749
59540W        W27903  16.181   8.786  14.785
59541W        W27904  32.537  43.414  10.887
59542W        W27905  21.587  29.942   1.741
59543W        W27906  11.825  40.318   1.881
59544W        W27907   8.883  38.947  12.051
59545W        W27908  38.953  32.970   3.767
59546W        W27909   5.732   9.660   0.946
59547W        W27910  36.432   9.325  11.454
59548W        W27911  26.535   6.774   4.250
59549W        W27912  35.367  22.592  12.568
59550W        W27913  13.739  28.976  11.044
59551W        W27914  12.763  38.933   4.757
59552W        W27915  12.157  31.546  11.585
59553W        W27916  27.085  11.713   2.348
59554W        W27917  28.610  39.480   2.767
59555W        W27918  38.431  17.183  14.790
59556W        W27919  12.170  34.005   2.757
59557W        W27920  30.964  36.404  12.356
59558W        W27921  17.082  30.579  11.587
59559W        W27922  25.213  27.668  12.088
59560W        W27923   1.358  21.652   3.800
59561W        W27924  22.055   6.373  13.064
59562W        W27925  10.197  24.485  14.759
59563W        W27926  39.337  36.074   3.375
59564W        W27927   4.448   5.288   2.817
59565W        W27928  34.874  19.067   2.228
59566W        W27929  28.018  31.973  14.283
59567W        W27930  38.514  27.121   0.384
59568W        W27931  32.484  13.737  13.420
59569W        W27932  37.542  42.364   1.796
59570W        W27933  19.255  22.043   2.709
59571W        W27934  19.126  31.020   0.926
59572W        W27935   8.804   6.205   0.414
59573W        W27936   4.944  17.788   4.136
59574W        W27937  24.562  35.413  12.096
59575W        W27938   9.267  33.393   4.167
59576W        W27939   9.776  20.104  11.058
59577W        W27940   5.310  27.095  13.482
59578W        W27941   3.288  21.649  12.914
59579W        W27942  12.691   2.470  14.344
59580W        W27943   3.315  26.029  11.110
59581W        W27944  23.593  41.409   4.783
59582W        W27945  27.111  35.455  11.518
59583W        W27946  24.590  39.994   0.955
59584W        W27947  10.643   5.706  10.891
59585W        W27948  22.197  30.519  13.453
59586W        W27949  34.410  44.445  14.318
59587W        W27950  38.017   1.464  14.459
59588W        W27951  38.859  26.180  11.377
59589W        W27952  21.166  10.165  10.959
59590W        W27953  44.414  21.090   4.823
59591W        W27954  24.680  22.515   1.831
59592W        W27955  33.507   5.253  10.578
59593W        W27956   8.773  27.685  10.617
59594W        W27957  22.138   1.915  10.420
59595W        W27958  36.035  29.444  11.036
59596W        W27959   4.865  29.644   0.436
59597W        W27960   6.257  35.854  11.605
59598W        W27961  18.056  43.813  10.628
59599W        W27962  34.458  24.568   4.722
59600W        W27963  26.143   2.885   0.394
59601W        W27964   7.901   7.822   2.291
59602W        W27965  23.709  44.866  13.535
59603W        W27966   1.799  33.073   2.793
59604W        W27967  14.324  27.588   4.781
59605W        W27968  27.047   7.702  12.874
59606W        W27969  25.589  44.355  12.448
59607W        W27970  30.563  29.943  10.416
59608W        W27971  38.382  16.769  11.111
59609W        W27972  11.354  10.238  11.965
59610W        W27973  44.455  30.455   4.770
59611W        W27974   8.835  29.143  13.792
59612W        W27975  40.044  41.913   3.673
59613W        W27976  21.730  40.975   4.206
59614W        W27977  19.159  15.284  14.505
59615W        W27978  27.119  21.671  11.569
59616W        W27979   0.411  13.345  11.918
59617W        W27980  40.485   9.319  12.088
59618W        W27981   4.791  33.975   3.230
59619W        W27982  33.978  29.100   1.867
59620W        W27983  31.544  27.490  13.398
59621W        W27984  18.219  39.429  13.540
59622W        W27985  25.996   5.830   1.422
59623W        W27986   0.985  13.349  13.471
59624W        W27987  35.424  17.263  14.853
59625W        W27988  33.417  28.597  11.558
59626W        W27989   7.321   3.217  14.937
59627W        W27990  42.498  27.659   2.738
59628W        W27991  43.944  36.450   4.601
59629W        W27992  31.027   7.718   2.200
59630W        W27993  32.935   7.256  11.540
59631W        W27994  21.172  33.921  10.599
59632W        W27995   5.400  16.569   0.399
59633W        W27996  24.177   4.306  11.515
59634W        W27997  13.183  19.055   2.840
59635W        W27998  43.904  22.619   2.831
59636W        W27999  40.850   0.356   4.651
59637W        W28000  43.409  18.678   1.759
59638W        W28001  16.220  44.373   2.201
59639W        W28002  23.726  13.825   0.369
59640W        W28003  27.197  24.053  12.504
59641W        W28004  24.619  16.680   1.807
59642W        W28005   9.251  40.901  12.077
59643W        W28006  43.805  23.031  10.615
59644W        W28007  35.454  39.040  11.030
59645W        W28008  44.267  24.659   3.744
59646W        W28009  27.117  24.599  10.420
59647W        W28010  24.200  14.225  10.546
59648W        W28011  13.763  16.212  13.053
59649W        W28012  41.876  18.572   4.126
59650W        W28013  14.161  26.209   2.211
59651W        W28014  30.099  26.207  12.864
59652W        W28015   0.277  22.213  12.069
59653W        W28016  11.234   1.812  11.928
59654W        W28017  42.923  33.087  12.938
59655W        W28018  41.877  18.297  11.040
59656W        W28019  34.408  40.965   4.165
59657W        W28020  42.413  18.060  14.848
59658W        W28021  32.120  37.379  12.510
59659W        W28022   3.418  40.357  12.989
59660W        W28023   3.773  18.777   3.762
59661W        W28024  15.306  25.647  14.295
59662W        W28025  40.507  13.277   4.838
59663W        W28026   0.321  25.505   4.187
59664W        W28027  38.073  10.326  10.955
59665W        W28028  12.639  43.008  12.573
59666W        W28029   1.333  27.685   3.661
59667W        W28030  38.887  16.595  14.922
59668W        W28031  17.157  16.750   5.186
59669W        W28032  43.340  38.889  12.916
59670W        W28033  41.470  32.630  13.969
59671W        W28034  27.668   1.281   4.226
59672W        W28035   0.262  39.823  12.442
59673W        W28036  41.946   3.273   0.362
59674W        W28037  42.507   4.344   1.831
59675W        W28038  16.299  34.117   1.240
59676W        W28039  20.183  44.836  10.635
59677W        W28040   4.787  15.771  12.990
59678W        W28041   1.360  43.810  12.506
59679W        W28042   9.387  34.606  13.808
59680W        W28043   2.744  29.665   0.250
59681W        W28044  39.970  29.663  10.579
59682W        W28045  41.861  25.600  12.880
59683W        W28046   8.770  11.336   0.748
59684W        W28047   6.269  16.752   4.673
59685W        W28048  15.277   5.200  12.954
59686W        W28049  28.583   5.234  10.987
59687W        W28050   3.806  29.441  12.852
59688W        W28051  37.350  18.559  13.441
59689W        W28052  22.129   8.266   2.873
59690W        W28053   1.434  12.699   2.830
59691W        W28054  35.500  43.324  12.064
59692W        W28055   2.279  36.899  10.969
59693W        W28056   5.904  11.183  14.438
59694W        W28057  25.205  40.955  12.469
59695W        W28058   6.239  37.569   2.898
59696W        W28059  29.063  41.389   1.230
59697W        W28060  22.032  12.792   4.256
59698W        W28061   8.312  23.071   1.870
59699W        W28062  40.897  12.627  11.374
59700W        W28063  31.544   0.757  14.443
59701W        W28064  10.345  16.103  12.392
59702W        W28065  12.709  32.548  13.956
59703W        W28066  26.638  38.029  14.480
59704W        W28067  39.026  34.442   3.194
59705W        W28068  28.124  28.932  11.579
59706W        W28069  14.303  29.625  14.906
59707W        W28070  41.333   3.948  14.860
59708W        W28071  14.679  37.941   1.884
59709W        W28072   9.866  15.624  12.549
59710W        W28073  25.086  30.634  13.937
59711W        W28074   6.340  40.881   4.669
59712W        W28075   0.924  34.378  11.890
59713W        W28076  14.226  20.547   4.330
59714W        W28077   2.380  37.475  14.395
59715W        W28078  38.958  15.722  11.468
59716W        W28079   0.359  10.753   1.774
59717W        W28080  13.709  26.982  12.929
59718W        W28081  37.839   8.374  11.008
59719W        W28082  25.210  42.911  11.971
59720W        W28083  17.228  33.119   1.910
59721W        W28084  30.051  24.998   1.368
59722W        W28085  39.419   8.654   4.697
59723W        W28086  11.772  35.856   2.204
59724W        W28087   6.785  27.087  10.641
59725W        W28088   0.358  28.586   3.833
59726W        W28089  42.382   2.231  12.541
59727W        W28090  20.050   8.819  10.143
59728W        W28091  32.443  17.158   3.660
59729W        W28092  40.440  40.473  13.918
59730W        W28093  12.680  15.124   1.234
59731W        W28094  17.670  26.148   1.741
59732W        W28095   0.286  35.503  13.946
59733W        W28096   9.284  33.541   3.716
59734W        W28097  10.192  22.226   0.297
59735W        W28098   8.806  26.670   1.264
59736W        W28099  40.337  36.954  14.396
59737W        W28100  41.965  19.624   1.330
59738W        W28101  29.596   2.965  13.392
59739W        W28102  41.001  26.593   4.683
59740W        W28103   1.792  25.213   2.245
59741W        W28104  33.978  17.306  13.393
59742W        W28105  25.190  25.485   3.752
59743W        W28106  12.820  16.672  10.545
59744W        W28107  26.511  18.099  14.399
59745W        W28108  13.255   1.439   1.760
59746W        W28109  36.472  36.370   0.766
59747W        W28110  22.084  31.529  12.006
59748W        W28111   8.664  12.659   4.807
59749W        W28112  20.702   4.832  13.448
59750W        W28113   0.743  17.711  11.591
59751W        W28114  21.176  19.767  12.895
59752W        W28115  44.460   4.816   3.812
59753W        W28116   7.202  41.900   2.310
59754W        W28117  10.287  13.296   3.637
59755W        W28118  33.472   6.793  13.307
59756W        W28119  38.534  17.566  14.845
59757W        W28120  41.922  23.030   0.304
59758W        W28121  41.008  44.495  13.040
59759W        W28122  11.243  17.266   4.231
59760W        W28123  16.135   8.768  13.493
59761W        W28124   6.334  24.675   2.709
59762W        W28125  30.074  32.139   0.294
59763W        W28126   8.285  36.954   4.721
59764W        W28127  17.267  20.158  13.381
59765W        W28128  38.389  36.972   4.247
59766W        W28129  35.386   4.404  14.793
59767W        W28130  41.792  11.263  13.367
59768W        W28131   7.672  32.073   0.966
59769W        W28132   1.448  24.689  12.074
59770W        W28133   1.263  27.027   2.683
59771W        W28134   2.283  18.105   2.872
59772W        W28135  13.607  23.987   2.812
59773W        W28136  13.262  30.151  11.066
59774W        W28137  43.829  33.966  11.053
59775W        W28138  24.520   4.336   2.700
59776W        W28139  28.986  38.978  11.083
59777W        W28140  26.563  22.126   1.800
59778W        W28141  40.416  13.312   3.366
59779W        W28142  30.571  32.108   0.942
59780W        W28143  41.974  43.902  11.025
59781W        W28144  31.604  44.281   2.871
59782W        W28145  26.128  17.607   3.354
59783W        W28146   5.328  44.435  13.447
59784W        W28147  43.438  37.350   1.807
59785W        W28148  11.807   8.378   3.848
59786W        W28149  28.600  16.598  11.381
59787W        W28150   9.680  44.884  10.459
59788W        W28151  40.523  16.697  12.913
59789W        W28152  26.522  33.618   0.437
59790W        W28153   3.234  18.149   2.666
59791W        W28154  16.601  13.627  10.600
59792W        W28155  44.862  17.629  12.095
59793W        W28156  13.745  24.535   1.331
59794W        W28157  17.584  11.180   1.277
59795W        W28158  11.253   4.300  14.774
59796W        W28159  39.046   8.732  10.119
59797W        W28160  28.007   9.873  10.926
59798W        W28161  18.077   9.303   4.653
59799W        W28162  14.827  10.327  11.870
59800W        W28163  18.167   9.739  11.881
59801W        W28164  17.089  37.480   4.219
59802W        W28165   6.198   9.807   0.831
59803W        W28166   8.242  27.615   1.388
59804W        W28167  20.658  42.473   0.905
59805W        W28168  26.985  19.746   4.165
59806W        W28169  37.012  28.065   2.748
59807W        W28170  35.515  43.508   2.854
59808W        W28171   8.164  23.990   4.279
59809W        W28172  10.830   2.400   4.322
59810W        W28173  36.097  29.531  11.379
59811W        W28174  41.004   9.204  11.985
59812W        W28175  36.872  19.750   4.780
59813W        W28176  27.974  43.413  13.972
59814W        W28177  44.376  42.856  12.499
59815W        W28178  16.770   1.973  13.039
59816W        W28179  33.977  23.544   2.664
59817W        W28180  19.724   1.762  12.506
59818W        W28181   5.320  28.654   4.795
59819W        W28182   7.257  31.642   4.694
59820W        W28183  19.239  13.255   3.307
59821W        W28184  16.124  27.973  11.082
59822W        W28185  30.907   1.246   0.805
59823W        W28186  38.362  15.727   4.152
59824W        W28187   6.236  20.032   0.389
59825W        W28188  34.615  19.680  12.839
59826W        W28189  44.936  39.474  12.454
59827W        W28190  40.001  40.306  14.910
59828W        W28191  40.914  24.680  11.883
59829W        W28192  43.954  22.552   4.348
59830W        W28193  26.031  42.854   1.902
59831W        W28194   7.180  14.243   0.406
59832W        W28195  23.529  12.641  11.042
59833W        W28196   9.377  24.586  10.492
59834W        W28197  36.355   6.832   2.387
59835W        W28198  36.552  15.707   4.315
59836W        W28199  23.491  21.750  11.566
59837W        W28200  16.601   5.844   0.912
59838W        W28201  32.540  10.308   3.807
59839W        W28202  24.687  39.946   3.186
59840W        W28203  25.974   9.802   4.348
59841W        W28204  19.657   3.285  14.031
59842W        W28205  32.000  42.820   4.825
59843W        W28206  43.340  40.311   4.246
59844W        W28207  42.914  44.986   2.309
59845W        W28208  23.128  44.414   0.897
59846W        W28209  38.399  42.454  10.984
59847W        W28210  24.224  32.921   0.827
59848W        W28211  36.001  34.370   4.231
59849W        W28212  24.183   4.289   2.360
59850W        W28213   8.314  27.959   3.841
59851W        W28214  40.875  36.488  14.851
59852W        W28215  19.563   9.170  11.089
59853W        W28216   3.216  20.768   1.729
59854W        W28217  18.222  33.056   2.293
59855W        W28218  14.681  38.519   0.383
59856W        W28219  11.293  34.905   4.230
59857W        W28220   2.840  29.521  13.809
59858W        W28221  16.708  12.658  12.918
59859W        W28222  38.455  33.405   0.967
59860W        W28223  19.586  19.094   3.754
59861W        W28224   9.274  20.543  13.950
59862W        W28225  34.430  19.171   1.778
59863W        W28226  28.642  30.601   4.611
59864W        W28227  44.261  41.899   3.667
59865W        W28228   9.273  31.471   3.283
59866W        W28229  34.487  20.679  11.919
59867W        W28230  16.779  35.031   3.763
59868W        W28231  21.137  11.659   1.440
59869W        W28232  25.158  24.111  13.918
59870W        W28233   8.313  22.084  11.858
59871W        W28234  28.628  27.574  13.940
59872W        W28235   0.881  29.508  11.452
59873W        W28236  17.652  12.666   1.379
59874W        W28237  34.986  21.171  11.928
59875W        W28238   4.733  24.558   3.784
59876W        W28239  13.297   5.688   4.283
59877W        W28240   5.284   0.362   1.235
59878W        W28241  43.900  41.371   0.366
59879W        W28242  22.639  15.711  14.823
59880W        W28243  30.973  35.858  13.527
59881W        W28244  19.586   4.222   1.295
59882W        W28245  19.769  44.315   1.735
59883W        W28246   0.768  24.503   1.879
59884W        W28247  42.322  32.000   1.741
59885W        W28248   0.448   9.336   0.420
59886W        W28249  23.079  20.763   0.453
59887W        W28250  13.140  10.255  13.802
59888W        W28251  14.709  41.833  10.408
59889W        W28252  37.380  41.951   2.220
59890W        W28253   3.441  30.584  13.881
59891W        W28254  36.046  23.082   4.158
59892W        W28255  14.113   3.885   2.665
59893W        W28256  31.059  42.929  12.881
59894W        W28257  38.421  36.588  14.958
59895W        W28258  38.962  15.625   0.265
59896W        W28259  34.999  20.605  10.540
59897W        W28260  39.464   0.482   1.868
59898W        W28261  42.474  10.304  13.333
59899W        W28262   7.877  18.673  11.409
59900W        W28263  34.490  32.516   1.420
59901W        W28264   5.737  13.105  13.481
59902W        W28265  25.026   0.874   2.288
59903W        W28266  44.958  18.716  13.417
59904W        W28267   7.315  24.184  12.968
59905W        W28268  22.546  15.259  12.065
59906W        W28269   7.695  28.504   0.894
59907W        W28270  17.192  20.030   4.337
59908W        W28271  41.479  30.656  11.052
59909W        W28272  35.072  19.616  13.946
59910W        W28273  19.061  25.641  14.347
59911W        W28274   1.932  11.718  10.411
59912W        W28275  15.232  10.185   2.729
59913W        W28276   3.347  35.526   3.820
59914W        W28277  21.028   8.229  13.801
59915W        W28278  28.495   8.264   2.689
59916W        W28279  11.156  20.640   2.406
59917W        W28280   9.765  18.135  10.603
59918W        W28281  44.389   9.793   5.151
59919W        W28282  39.047  44.403  10.904
59920W        W28283  33.086  44.797  12.965
59921W        W28284  41.433  36.861  11.961
59922W        W28285  43.792  15.771   3.161
59923W        W28286  32.461  33.451  10.152
59924W        W28287  19.089  21.756   3.181
59925W        W28288   6.283  17.115   2.284
59926W        W28289   5.431   2.892   1.296
59927W        W28290   2.459  23.084  13.497
59928W        W28291  23.670  33.589  13.944
59929W        W28292  40.014  34.867  12.489
59930W        W28293  12.138  12.632   1.415
59931W        W28294  12.135  10.365   3.871
59932W        W28295  20.214  12.315  10.523
59933W        W28296  11.797  40.440  13.538
59934W        W28297  25.174  38.955   4.276
59935W        W28298  14.208  39.523   4.792
59936W        W28299  19.195   3.349   3.204
59937W        W28300   6.825  29.560  14.842
59938W        W28301  32.089  36.419   3.730
59939W        W28302  19.284  37.985   3.229
59940W        W28303  44.290  19.675   0.360
59941W        W28304  33.625  12.737   0.261
59942W        W28305  21.027   0.872   0.470
59943W        W28306  10.353  31.530  10.971
59944W        W28307  14.115  15.258  14.912
59945W        W28308   9.179   2.938   1.450
59946W        W28309   6.740  42.904  11.033
59947W        W28310   8.197  35.879   2.842
59948W        W28311  17.747  20.564   4.672
59949W        W28312  44.785  29.577   3.689
59950W        W28313   2.262  19.594  14.377
59951W        W28314  28.929   0.797   3.710
59952W        W28315  13.248  18.104  11.599
59953W        W28316  32.101  15.810  14.915
59954W        W28317   2.922   8.727   1.224
59955W        W28318   4.224  13.333  10.416
59956W        W28319  14.201  37.499   0.890
59957W        W28320  22.221  20.626   3.732
59958W        W28321  28.598  18.745   3.790
59959W        W28322  10.141  24.630   1.747
59960W        W28323  44.325  21.744   2.381
59961W        W28324  14.115  21.531   1.431
59962W        W28325  37.850  41.462   3.819
59963W        W28326  28.147  44.338  11.120
59964W        W28327   5.293  43.351   0.962
59965W        W28328  42.994  23.503   2.689
59966W        W28329  23.697  32.012  14.010
59967W        W28330  13.794  37.841   2.856
59968W        W28331  26.523  37.520   1.839
59969W        W28332  44.964  31.988   3.836
59970W        W28333  42.446   6.906   0.272
59971W        W28334  33.584  14.325   1.908
59972W        W28335  42.870   9.656   3.180
59973W        W28336   9.755  28.600   3.194
59974W        W28337  25.494   9.689   0.332
59975W        W28338  26.496  13.632   4.146
59976W        W28339  35.938  25.649   3.229
59977W        W28340   4.773   2.377   9.971
59978W        W28341  28.449   2.408   4.150
59979W        W28342  17.112  24.142   3.853
59980W        W28343  24.101  19.557  12.407
59981W        W28344  20.076   3.269  11.540
59982W        W28345   5.720  11.719  13.025
59983W        W28346  29.630  26.682  13.465
59984W        W28347   1.453   8.774  14.378
59985W        W28348   6.244  30.971  12.471
59986W        W28349   2.268  22.599  14.310
59987W        W28350  16.181  19.608  11.931
59988W        W28351  40.400   7.231   0.801
59989W        W28352  26.038  24.688   2.754
59990W        W28353  29.017  17.301   3.184
59991W        W28354  13.238   3.266  14.873
59992W        W28355  39.494  41.953   1.214
59993W        W28356   2.849  17.206  10.978
59994W        W28357   3.832  32.570  11.591
59995W        W28358  27.133   8.774  13.408
59996W        W28359  22.123  18.581  12.498
59997W        W28360  31.586   6.269   2.385
59998W        W28361  22.144  26.018   0.362
59999W        W28362   1.826  37.944   3.313
60000W        W28363  25.083   0.444   2.407
60001W        W28364  33.882  42.885   3.722
60002W        W28365   4.849  10.163  13.447
60003W        W28366   1.819  28.462   3.739
60004W        W28367  27.973   3.802  12.850
60005W        W28368  18.566  14.646  12.440
60006W        W28369  43.999   3.917   4.673
60007W        W28370  39.855  16.317  10.488
60008W        W28371  44.381  35.550   2.214
60009W        W28372  32.430  23.184  13.824
60010W        W28373  41.313  10.142  10.938
60011W        W28374  22.040  31.947  11.975
60012W        W28375  40.379  18.105  12.556
60013W        W28376  14.706  24.488   3.166
60014W        W28377   2.741   0.842  11.449
60015W        W28378  44.311  26.969   3.179
60016W        W28379  25.187  39.462   2.671
60017W        W28380  35.472   8.304  14.377
60018W        W28381  19.646  25.694   4.267
60019W        W28382   1.909  38.858  11.903
60020W        W28383  11.216  29.051  13.889
60021W        W28384  19.252  13.249   0.742
60022W        W28385  43.475  35.568   2.780
60023W        W28386  39.330  17.284   0.932
60024W        W28387  33.541  38.404  13.436
60025W        W28388  35.990  22.242   4.778
60026W        W28389   7.299  17.742   1.444
60027W        W28390  30.526  39.489   4.694
60028W        W28391  11.299  21.229   1.382
60029W        W28392  38.845  24.013  13.506
60030W        W28393  10.805  30.617  11.371
60031W        W28394   8.251  14.713   4.314
60032W        W28395  44.385  12.844  12.846
60033W        W28396  21.096  16.215  11.902
60034W        W28397  33.396  29.662  14.031
60035W        W28398  40.516  35.563  10.535
60036W        W28399  19.573   3.407   1.269
60037W        W28400  10.850  41.862   3.854
60038W        W28401  18.598  40.984  13.883
60039W        W28402   0.897   9.781   2.804
60040W        W28403   7.228   7.304  13.506
60041W        W28404  43.483  39.950   1.736
60042W        W28405  26.003  19.279  10.555
60043W        W28406  42.920  41.975  11.881
60044W        W28407  25.192   7.884  14.029
60045W        W28408  36.415  18.158  11.584
60046W        W28409  37.433  24.633  14.829
60047W        W28410   2.311  16.232  11.507
60048W        W28411   6.297  36.424   1.262
60049W        W28412  34.092  16.800   3.358
60050W        W28413   1.781  43.009  13.441
60051W        W28414  29.079  16.636   2.349
60052W        W28415  42.912  19.759  11.856
60053W        W28416  10.291   2.787   2.377
60054W        W28417  12.166  33.058   2.256
60055W        W28418  22.038  39.353   3.218
60056W        W28419  15.616   9.873  12.923
60057W        W28420  43.926  41.915   4.828
60058W        W28421   6.771  33.875   3.676
60059W        W28422  41.810  14.764   2.856
60060W        W28423  30.069  16.226   0.809
60061W        W28424  20.606  11.697   4.114
60062W        W28425   4.770  43.013  14.382
60063W        W28426   2.889  38.349   0.256
60064W        W28427  12.825  24.167  14.351
60065W        W28428  13.767   6.196   4.313
60066W        W28429  28.475  27.018  13.326
60067W        W28430  24.714  22.181  14.397
60068W        W28431  19.049  22.047   4.774
60069W        W28432  28.077  40.406  13.452
60070W        W28433   7.731  19.630  13.336
60071W        W28434  40.442  21.248  13.382
60072W        W28435  38.857  22.034   4.116
60073W        W28436   9.842  10.253  13.999
60074W        W28437  32.481  16.172  11.088
60075W        W28438  28.124  12.206   1.836
60076W        W28439  34.529  26.955  10.516
60077W        W28440  26.579  31.095   3.335
60078W        W28441  35.370   7.209  13.806
60079W        W28442   2.350   5.911   0.873
60080W        W28443   1.470  22.518  13.491
60081W        W28444  43.482   3.713   1.694
60082W        W28445  32.123  25.198   1.346
60083W        W28446  14.294  19.202  14.870
60084W        W28447  18.741  37.004  11.528
60085W        W28448  15.214  17.755   3.318
60086W        W28449  29.999   6.853   4.757
60087W        W28450  40.476  44.983   4.271
60088W        W28451  25.198   9.150  10.470
60089W        W28452  29.662  38.387   3.243
60090W        W28453   1.414  37.012   1.737
60091W        W28454  19.070  42.301   3.810
60092W        W28455  44.295  15.679   3.192
60093W        W28456  14.725  39.504   1.258
60094W        W28457  21.017  33.490  10.534
60095W        W28458  15.687  39.491   4.147
60096W        W28459  22.556  43.875  14.387
60097W        W28460  16.632  31.451  10.595
60098W        W28461  36.542  30.583  12.533
60099W        W28462  28.959  33.464   3.641
60100W        W28463  24.189  44.868   1.321
60101W        W28464   5.729  13.351   0.760
60102W        W28465  22.010  12.648  13.812
60103W        W28466   6.687  30.595  13.473
60104W        W28467  39.942  34.608   2.667
60105W        W28468  17.614  40.352  11.590
60106W        W28469  12.622  25.616  11.612
60107W        W28470  44.477  30.571   0.849
60108W        W28471  28.137  31.608   2.752
60109W        W28472  20.717  17.270  11.859
60110W        W28473   2.347  42.980   0.362
60111W        W28474  15.709   9.300  11.109
60112W        W28475  34.485   6.802  10.902
60113W        W28476   1.268   5.893   1.432
60114W        W28477  24.499  13.714   2.900
60115W        W28478  27.096  13.623   1.411
60116W        W28479  19.580  20.256   2.220
60117W        W28480  16.201  25.592   1.261
60118W        W28481  13.130   0.393   4.202
60119W        W28482  33.127  23.503   4.611
60120W        W28483   1.906  10.743  14.484
60121W        W28484  14.654   3.411   5.097
60122W        W28485  22.586  37.389  14.363
60123W        W28486  44.921  14.756  10.974
60124W        W28487   2.877  41.995  12.965
60125W        W28488   5.372   5.805   1.717
60126W        W28489  20.227  43.454  14.356
60127W        W28490   8.232  29.989  12.417
60128W        W28491  24.694   0.318   2.281
60129W        W28492  18.552  34.435  11.031
60130W        W28493  14.692  12.213  12.382
60131W        W28494  38.416  20.043  13.405
60132W        W28495  22.634  41.043   3.866
60133W        W28496  29.101  42.855  10.160
60134W        W28497  22.634   1.300   1.929
60135W        W28498  11.835  10.867   2.368
60136W        W28499   1.407  28.667  10.903
60137W        W28500   4.793   7.179  10.572
60138W        W28501  20.527  22.735   3.350
60139W        W28502  30.932   2.885  13.828
60140W        W28503  35.536  32.602  12.823
60141W        W28504  14.115  20.578   1.721
60142W        W28505   2.287  12.178  11.609
60143W        W28506  11.263  33.564  11.880
60144W        W28507  37.006  28.544  11.116
60145W        W28508  36.486  29.125   3.660
60146W        W28509  38.457  32.097  11.883
60147W        W28510   3.824  16.193   3.281
60148W        W28511  11.842  33.609  14.797
60149W        W28512  35.109  21.634   3.818
60150W        W28513  33.493  11.637   4.317
60151W        W28514  36.977  25.553   4.807
60152W        W28515  24.005  20.674   3.774
60153W        W28516   0.777   1.813   9.981
60154W        W28517  24.115   3.268   1.320
60155W        W28518  21.629  15.103  13.317
60156W        W28519  40.368   6.327   2.241
60157W        W28520  24.563  43.467   0.960
60158W        W28521   2.811  10.175   0.329
60159W        W28522  44.466  30.547   4.172
60160W        W28523  29.067  27.970   0.249
60161W        W28524  32.935   7.328   3.654
60162W        W28525   4.714   6.800  12.360
60163W        W28526   8.335  37.002   3.173
60164W        W28527  41.002  14.652   4.298
60165W        W28528  26.478  21.186   1.751
60166W        W28529  29.017  22.578  12.089
60167W        W28530   6.776  25.626  11.442
60168W        W28531  33.011  17.216  14.897
60169W        W28532  27.054  28.588   1.881
60170W        W28533  11.845   8.273  12.573
60171W        W28534  29.072  40.980   1.333
60172W        W28535  30.979  37.860   2.687
60173W        W28536  25.141  44.394   3.170
60174W        W28537  22.117  11.168  14.992
60175W        W28538  42.947   6.418  13.520
60176W        W28539  38.427   2.422  13.826
60177W        W28540  30.642   8.772   2.711
60178W        W28541  14.156  19.282   0.359
60179W        W28542  36.469   8.326  12.886
60180W        W28543  36.003   4.729  13.546
60181W        W28544  20.211  41.303  12.863
60182W        W28545   9.825  43.430   0.846
60183W        W28546  22.636  10.845  13.819
60184W        W28547   5.330   4.288   3.809
60185W        W28548   8.811   3.834   4.655
60186W        W28549  23.658  34.554   4.227
60187W        W28550  14.300   0.968   0.447
60188W        W28551  32.453  35.359  13.388
60189W        W28552  36.943  19.209   4.157
60190W        W28553  19.267   6.302  12.033
60191W        W28554  18.213   2.733   3.332
60192W        W28555  13.719   2.251  13.326
60193W        W28556  15.670  26.663   3.260
60194W        W28557  14.736   4.849   4.786
60195W        W28558  11.142  11.851   2.275
60196W        W28559  26.135  31.556   1.235
60197W        W28560  44.984   4.769   2.683
60198W        W28561   9.742  29.434   2.382
60199W        W28562   1.285  14.260   3.863
60200W        W28563  26.107  24.707  13.884
60201W        W28564  14.706  30.509   5.274
60202W        W28565   6.406  14.166  11.995
60203W        W28566  38.501  15.585  13.946
60204W        W28567  26.597  17.110   4.815
60205W        W28568  20.047   6.910   0.246
60206W        W28569  18.164   3.380   0.293
60207W        W28570  11.180  42.809  11.996
60208W        W28571  16.254   7.816   4.321
60209W        W28572  38.420  11.298  12.517
60210W        W28573  11.708   1.482  14.376
60211W        W28574  19.059  20.615   2.204
60212W        W28575  13.826  23.997   3.708
60213W        W28576   1.764   5.750   3.327
60214W        W28577   5.205  38.937  13.392
60215W        W28578   3.297  39.932  10.457
60216W        W28579  18.216  35.586   0.883
60217W        W28580   4.338  12.123   3.190
60218W        W28581  14.323  28.105  13.044
60219W        W28582   7.805   2.239  12.877
60220W        W28583  39.859  14.237  14.803
60221W        W28584  44.815  33.530  11.389
60222W        W28585  24.078  23.240   1.377
60223W        W28586  38.989  10.794   0.349
60224W        W28587  34.958  20.274  13.004
60225W        W28588  43.315  11.283  14.844
60226W        W28589  11.366  24.102  13.967
60227W        W28590  15.103  30.636  13.458
60228W        W28591  10.786   3.751  13.485
60229W        W28592  39.968   2.358  11.897
60230W        W28593  10.237  33.107  11.900
60231W        W28594  18.651  34.397  12.458
60232W        W28595  42.805   6.268   4.278
60233W        W28596  42.405  39.553  12.994
60234W        W28597   2.804   3.774   2.829
60235W        W28598  40.479  37.047   3.664
60236W        W28599  18.292   8.200   4.693
60237W        W28600   4.795  30.441  10.528
60238W        W28601  36.396  44.776   0.953
60239W        W28602  13.717  41.451  14.965
60240W        W28603  27.640  40.448  14.479
60241W        W28604  23.096  36.845   4.322
60242W        W28605  22.243  31.547   3.250
60243W        W28606  41.920  24.979   2.805
60244W        W28607  25.709   0.898  11.000
60245W        W28608  26.956   6.321   2.833
60246W        W28609  43.781   6.253  12.363
60247W        W28610  29.969   3.251   0.929
60248W        W28611  24.654  38.490   4.690
60249W        W28612  32.505  44.381  13.004
60250W        W28613  39.843  36.365   0.966
60251W        W28614  42.873   3.423  14.784
60252W        W28615  35.040  28.496  14.903
60253W        W28616  15.219  36.396  11.077
60254W        W28617  26.150  24.601  12.411
60255W        W28618   5.713  33.907  10.487
60256W        W28619  10.669   8.239  13.927
60257W        W28620  30.645  29.663  11.420
60258W        W28621  32.956  27.021   0.404
60259W        W28622   1.883   2.279  14.875
60260W        W28623  21.737   0.926   2.297
60261W        W28624  22.223  25.206   0.263
60262W        W28625  19.655   4.941   0.830
60263W        W28626  23.600   8.374  11.930
60264W        W28627   2.878  14.325  11.110
60265W        W28628  24.628  16.705  13.337
60266W        W28629  44.377  40.920  13.346
60267W        W28630  41.432  39.338   4.658
60268W        W28631  23.088  30.605   4.692
60269W        W28632   2.948  41.840   4.213
60270W        W28633  23.062   6.894  11.464
60271W        W28634   5.916  36.000   2.822
60272W        W28635   9.781   3.220   1.888
60273W        W28636  15.624  35.583   0.410
60274W        W28637  12.714  41.294   3.251
60275W        W28638  41.364   5.354   1.276
60276W        W28639  16.735  18.551   0.903
60277W        W28640   6.906  26.174  14.926
60278W        W28641   9.343  38.477   0.796
60279W        W28642  24.708  44.006  11.436
60280W        W28643  18.739  30.126  12.079
60281W        W28644   1.476  28.136   3.736
60282W        W28645  17.257  41.300  12.974
60283W        W28646  28.497  37.087  13.989
60284W        W28647  23.715  35.063  13.492
60285W        W28648  14.676  23.011   1.793
60286W        W28649  16.789  37.883  11.901
60287W        W28650  31.914  25.091  13.419
60288W        W28651  14.300   0.491  11.607
60289W        W28652  11.242  39.986   3.645
60290W        W28653  10.331   0.932  13.054
60291W        W28654  22.609  39.551   2.355
60292W        W28655  34.096  43.516  10.918
60293W        W28656  11.161  43.427   0.755
60294W        W28657  34.542   9.842  10.996
60295W        W28658  44.892  41.848   2.677
60296W        W28659  39.382  26.570   1.375
60297W        W28660  17.637  26.008   0.922
60298W        W28661  39.551  38.051   0.291
60299W        W28662  23.148   0.788   4.614
60300W        W28663  23.119   7.409  11.412
60301W        W28664  11.726  22.648  15.000
60302W        W28665  14.098  27.998  13.340
60303W        W28666   4.286  29.431   3.195
60304W        W28667  20.111  30.085  13.505
60305W        W28668  38.851  27.084   1.790
60306W        W28669   8.212  42.874  11.966
60307W        W28670  18.746  29.082  10.424
60308W        W28671  36.030  37.078   0.455
60309W        W28672  34.518  30.946   0.749
60310W        W28673  33.131  28.518   2.372
60311W        W28674  22.536  20.578  10.581
60312W        W28675   1.775  28.181   0.863
60313W        W28676  40.440  34.038  11.421
60314W        W28677  41.493  22.502   2.774
60315W        W28678  13.319  18.231  10.601
60316W        W28679  15.103  19.114  14.369
60317W        W28680  29.597  44.285   0.245
60318W        W28681  42.833  15.196   2.722
60319W        W28682   6.812  17.563  13.017
60320W        W28683  34.507  22.534   3.169
60321W        W28684   6.718  30.471   0.785
60322W        W28685  31.460  31.478  11.481
60323W        W28686  26.599  33.565  11.063
60324W        W28687  14.111  44.302  14.773
60325W        W28688   1.269  34.505   4.836
60326W        W28689   9.805  19.073  14.972
60327W        W28690  17.685  37.017  11.390
60328W        W28691  42.493  35.568   9.520
60329W        W28692  16.728   0.361   4.200
60330W        W28693  26.616  33.938   4.726
60331W        W28694  10.247  42.019  11.519
60332W        W28695   8.170  25.079   4.765
60333W        W28696   8.258   7.904  13.428
60334W        W28697  29.614  37.082   4.178
60335W        W28698  17.173  13.340  10.981
60336W        W28699  15.823  24.148   2.901
60337W        W28700  10.872  44.771  11.087
60338W        W28701   3.238   4.285   1.303
60339W        W28702  15.127  30.628   4.680
60340W        W28703  20.633   3.872   4.148
60341W        W28704   5.782  20.043   1.815
60342W        W28705  21.680  10.360   2.330
60343W        W28706  10.685   6.327   1.856
60344W        W28707   1.974   0.440   3.711
60345W        W28708  18.609  15.782  11.918
60346W        W28709  35.578  40.898   2.238
60347W        W28710  10.741  15.194  13.894
60348W        W28711  41.397  38.332  14.349
60349W        W28712  40.901  22.237  14.455
60350W        W28713   1.337  14.118  12.580
60351W        W28714  32.894  13.313  11.880
60352W        W28715  18.110   4.431   3.661
60353W        W28716  19.777  11.267  10.565
60354W        W28717   0.471  21.113  10.104
60355W        W28718  40.519  23.709   3.230
60356W        W28719  30.465  30.457  14.871
60357W        W28720   8.221  25.104  14.394
60358W        W28721  28.989  32.456   1.746
60359W        W28722  29.011   2.840   0.247
60360W        W28723  41.906  16.585   2.901
60361W        W28724  25.199  37.087   0.420
60362W        W28725  10.335   9.230   2.318
60363W        W28726   1.366  29.992  12.579
60364W        W28727   6.690  32.552   2.703
60365W        W28728  28.438  36.590   4.670
60366W        W28729  12.121  28.602   1.281
60367W        W28730  17.621  26.700   1.239
60368W        W28731   4.711  29.007   4.179
60369W        W28732  31.931  37.056   0.812
60370W        W28733  18.222  18.765  10.922
60371W        W28734   0.410  43.996  12.025
60372W        W28735  27.610   3.737   4.658
60373W        W28736  35.969   2.329  11.906
60374W        W28737   6.371   2.916  13.977
60375W        W28738   7.756   1.435  14.466
60376W        W28739  23.611  30.517  12.057
60377W        W28740  17.063  34.503   3.240
60378W        W28741   4.788  23.555   0.891
60379W        W28742  20.174  19.211  11.402
60380W        W28743  17.571  30.456   3.856
60381W        W28744  42.460  31.103  13.996
60382W        W28745  34.391   3.453  10.517
60383W        W28746  27.665  29.499  14.998
60384W        W28747  11.180  25.985   4.156
60385W        W28748  25.629  44.331   5.264
60386W        W28749  35.469   0.461  10.553
60387W        W28750  18.242  40.431  14.328
60388W        W28751  30.477  15.088  11.969
60389W        W28752  35.456  21.635  10.564
60390W        W28753  27.615  35.093  13.341
60391W        W28754  39.433  20.206   0.470
60392W        W28755  22.651   4.864   0.442
60393W        W28756  15.653  33.564   1.786
60394W        W28757  21.107  32.900  13.453
60395W        W28758  24.181  20.700   2.335
60396W        W28759  33.558  40.370   4.209
60397W        W28760  37.534   2.747   3.216
60398W        W28761   6.908  10.285   0.962
60399W        W28762  35.040   2.962   1.254
60400W        W28763  20.247  24.483   4.771
60401W        W28764  16.265  28.576  14.982
60402W        W28765  25.572  23.984  14.933
60403W        W28766  26.118  37.346   3.173
60404W        W28767  15.717  16.676   0.397
60405W        W28768  43.865  44.485   3.697
60406W        W28769  38.028  37.537   3.280
60407W        W28770   6.839  41.948   4.139
60408W        W28771   3.333  40.524   0.253
60409W        W28772   8.794  33.936   1.872
60410W        W28773  10.343   2.441   2.204
60411W        W28774  38.063  24.612   4.694
60412W        W28775   4.824  32.621  10.481
60413W        W28776  17.673  23.709  14.986
60414W        W28777  22.121  35.015   4.692
60415W        W28778  16.284  25.649  13.812
60416W        W28779  26.994  17.204   4.802
60417W        W28780  44.858  22.648   4.695
60418W        W28781  16.086  35.955  13.817
60419W        W28782  18.700  34.017  11.470
60420W        W28783  23.713   7.178   0.283
60421W        W28784   5.817  39.388  12.094
60422W        W28785  37.018  30.488   4.828
60423W        W28786  18.649   0.407   2.201
60424W        W28787  26.494  29.609   2.779
60425W        W28788   9.789  23.621  12.468
60426W        W28789  22.719  41.509  11.400
60427W        W28790  23.106  35.552   1.256
60428W        W28791  23.495  28.469  13.533
60429W        W28792  20.240  24.147   4.236
60430W        W28793  31.964  19.148   1.934
60431W        W28794  38.914  13.301   4.307
60432W        W28795  11.261  42.391   3.815
60433W        W28796  41.535  21.199   9.941
60434W        W28797   4.830   9.824  11.059
60435W        W28798  44.823  31.522  13.040
60436W        W28799  27.566  25.567   2.794
60437W        W28800  40.013   0.459   4.752
60438W        W28801  22.626  44.354   1.275
60439W        W28802  18.774  16.132   4.159
60440W        W28803  17.782  28.072   0.789
60441W        W28804   7.380  27.191  14.838
60442W        W28805  13.685   0.886  13.932
60443W        W28806  25.583  33.994  10.597
60444W        W28807  26.626  22.738   2.179
60445W        W28808  16.145   3.382   3.788
60446W        W28809  36.063   1.805  10.428
60447W        W28810  16.261   4.920  13.056
60448W        W28811  26.681  36.987   5.199
60449W        W28812   9.690   9.293   0.921
60450W        W28813   0.876  28.047   4.333
60451W        W28814  21.032   2.251   0.396
60452W        W28815   4.805   0.270   4.278
60453W        W28816   9.677  11.858  14.937
60454W        W28817  42.907  37.455   4.167
60455W        W28818   2.335  43.331  11.458
60456W        W28819  29.542  38.431  14.358
60457W        W28820  27.608  27.070  11.527
60458W        W28821  35.532  37.470  12.047
60459W        W28822  16.625  38.881   2.774
60460W        W28823   5.289  30.132  14.945
60461W        W28824  40.378  43.351   4.764
60462W        W28825  25.131  30.569   2.734
60463W        W28826   4.346   0.392   3.304
60464W        W28827  37.339   2.767  14.819
60465W        W28828   4.938  44.757  13.418
60466W        W28829   5.387   4.796  11.051
60467W        W28830  25.144  39.973  13.453
60468W        W28831  26.577  18.280  11.598
60469W        W28832   4.704  38.926   5.312
60470W        W28833  38.378  10.793  10.550
60471W        W28834  24.566   3.769   1.227
60472W        W28835  37.001  21.065  12.896
60473W        W28836  27.496  26.039  12.829
60474W        W28837   9.228  28.622   1.273
60475W        W28838  42.462  24.109  14.293
60476W        W28839   4.750   6.702  12.921
60477W        W28840   7.406  35.406   1.852
60478W        W28841  27.114  44.451  12.077
60479W        W28842  39.908   7.260  13.392
60480W        W28843   4.270   2.948   2.194
60481W        W28844  15.266   9.691   1.714
60482W        W28845  29.556  12.687   0.937
60483W        W28846  17.770  24.059   2.233
60484W        W28847   2.429  27.185   4.202
60485W        W28848  36.058  13.166  14.875
60486W        W28849   5.812  12.642  11.087
60487W        W28850  43.318  38.053  13.434
60488W        W28851  34.494  23.496   1.761
60489W        W28852  32.455  27.153  14.953
60490W        W28853   9.803  16.673   4.678
60491W        W28854   5.723  21.716   1.306
60492W        W28855  36.377  40.546   1.397
60493W        W28856  14.322   2.432  14.277
60494W        W28857  35.856   4.816  11.549
60495W        W28858  19.039   1.949   0.484
60496W        W28859  39.512  34.071   0.803
60497W        W28860  12.275   7.309   3.292
60498W        W28861  17.144   0.847   0.858
60499W        W28862  42.988  11.227   3.310
60500W        W28863  37.875  42.949  11.060
60501W        W28864   1.961  36.023   3.281
60502W        W28865  15.110  12.153  14.796
60503W        W28866  21.155  22.729   5.177
60504W        W28867   6.867  12.818  13.348
60505W        W28868  15.737  38.334   3.629
60506W        W28869  23.682  36.392  14.286
60507W        W28870   6.225  23.609   4.152
60508W        W28871  31.435  14.096  12.034
60509W        W28872  18.743  33.912   0.762
60510W        W28873  43.392  26.590   3.147
60511W        W28874  18.630  36.023   0.886
60512W        W28875  32.500  21.586   1.442
60513W        W28876  32.890   9.699   0.373
60514W        W28877  39.344  24.533  14.945
60515W        W28878  30.978  29.615  12.088
60516W        W28879  38.517  40.334  12.485
60517W        W28880  23.633  34.568  11.875
60518W        W28881  22.606  42.317  13.960
60519W        W28882   7.742  44.851   3.739
60520W        W28883  40.390  25.537  11.923
60521W        W28884   0.879  11.351  12.061
60522W        W28885  42.817  20.073  14.986
60523W        W28886  36.944   8.254   1.793
60524W        W28887  19.277  40.465   2.776
60525W        W28888  11.843  13.644  13.984
60526W        W28889  16.258   3.429  14.447
60527W        W28890  22.688   2.300   4.243
60528W        W28891  24.558  12.769  14.350
60529W        W28892  18.600  27.691   4.350
60530W        W28893  25.162  13.135   0.449
60531W        W28894   9.345  15.619  13.827
60532W        W28895  35.591   3.812   0.918
60533W        W28896  39.884  44.474  10.634
60534W        W28897  23.711   7.319   3.186
60535W        W28898  21.608  26.470  12.825
60536W        W28899   3.748   9.385  13.966
60537W        W28900   9.233   3.917   0.842
60538W        W28901  29.475  38.992  14.465
60539W        W28902  24.989   2.956   2.839
60540W        W28903  30.025  32.899  13.961
60541W        W28904  42.425  21.642   1.706
60542W        W28905  33.933   9.362  11.893
60543W        W28906  22.131  40.360  11.432
60544W        W28907  29.059  23.235  10.974
60545W        W28908  36.998  28.147  13.425
60546W        W28909   7.850   7.714   0.408
60547W        W28910  37.547  31.623   2.277
60548W        W28911  17.654  17.801   9.922
60549W        W28912   2.417  13.186  11.116
60550W        W28913   3.420  22.560  10.151
60551W        W28914  39.871  44.882  14.874
60552W        W28915  29.575  30.109   5.638
60553W        W28916  40.341   4.914   1.721
60554W        W28917  41.408  10.722   0.411
60555W        W28918  42.906  42.472  14.930
60556W        W28919  21.543  10.363  13.823
60557W        W28920   3.863  16.641   3.662
60558W        W28921   7.223  13.246  13.492
60559W        W28922  43.369  43.935  12.857
60560W        W28923  27.638  34.880  11.455
60561W        W28924  44.319  36.867  11.472
60562W        W28925  34.005  39.372  14.501
60563W        W28926   4.450  12.181  11.863
60564W        W28927   6.921  15.664  13.986
60565W        W28928  21.060  27.451   2.295
60566W        W28929  36.036  13.175   1.880
60567W        W28930  35.101   2.398   4.717
60568W        W28931   2.440  23.007   4.626
60569W        W28932  12.342  30.502   4.149
60570W        W28933  14.326  44.991   3.280
60571W        W28934  23.182  35.546  12.524
60572W        W28935  39.024  41.412   3.645
60573W        W28936  39.350   3.395   4.235
60574W        W28937   6.378   6.791   2.725
60575W        W28938  20.582  34.103   3.256
60576W        W28939  20.253  20.752   3.382
60577W        W28940  15.632  33.511  12.415
60578W        W28941  28.088  42.833  14.005
60579W        W28942  19.256   5.406  11.047
60580W        W28943   6.316  36.008  12.831
60581W        W28944   6.184   5.282   2.873
60582W        W28945  25.058  19.636   3.822
60583W        W28946  22.999  35.535   2.182
60584W        W28947  24.044  11.193   2.239
60585W        W28948  18.283  41.004   4.213
60586W        W28949   7.405  29.449   1.390
60587W        W28950  16.252  26.006   0.419
60588W        W28951  37.443  43.882  10.572
60589W        W28952  34.058  31.987   0.267
60590W        W28953  43.352   8.332  12.494
60591W        W28954  22.057   7.349   1.762
60592W        W28955  37.845  16.748  13.459
60593W        W28956   7.729  44.259  13.946
60594W        W28957  24.124  13.727  14.374
60595W        W28958  18.605  33.398   2.800
60596W        W28959  35.558  16.146   4.214
60597W        W28960  25.530  38.364   3.843
60598W        W28961   1.474  20.645   3.685
60599W        W28962  33.534   1.445   5.650
60600W        W28963   0.358  37.970   1.919
60601W        W28964  16.812  21.566  11.571
60602W        W28965  10.730  27.142  11.009
60603W        W28966  43.982  12.236  12.093
60604W        W28967  11.236   8.199  13.040
60605W        W28968  41.916  22.145  12.468
60606W        W28969  22.223  21.054   0.903
60607W        W28970   7.231  29.956   1.870
60608W        W28971  42.938  36.531  11.466
60609W        W28972  13.747  29.983  10.993
60610W        W28973   5.924   0.843  12.970
60611W        W28974  22.638  11.325   1.901
60612W        W28975  29.000   3.389  12.580
60613W        W28976  14.243  41.820   1.304
60614W        W28977  23.218  32.926  11.000
60615W        W28978   7.389  36.419   1.731
60616W        W28979  19.118  22.682  13.480
60617W        W28980  31.927  17.723  13.348
60618W        W28981  10.701   5.384   1.218
60619W        W28982  29.927  37.382  13.496
60620W        W28983  13.153  17.737  14.356
60621W        W28984  41.996  25.626   0.275
60622W        W28985  12.799   8.861   2.272
60623W        W28986  27.547  17.775  14.874
60624W        W28987   0.964   8.687   0.464
60625W        W28988  15.659  38.571  10.479
60626W        W28989  37.995  17.300  13.887
60627W        W28990   3.807  35.040   3.155
60628W        W28991  42.340   6.205   1.322
60629W        W28992  13.333   0.422   1.211
60630W        W28993  21.589  17.093  13.384
60631W        W28994  16.648  20.259   4.266
60632W        W28995  13.347  34.606   1.791
60633W        W28996  36.490  26.052   4.693
60634W        W28997  30.448  13.843  13.375
60635W        W28998  38.930  27.509   9.939
60636W        W28999  29.138  38.355   4.776
60637W        W29000   6.912  35.582  13.521
60638W        W29001  28.962  27.071   1.917
60639W        W29002  14.178  38.955  13.461
60640W        W29003  44.004  34.441  12.932
60641W        W29004   5.245  37.539   3.376
60642W        W29005  23.499  36.041  13.950
60643W        W29006  36.975  42.944  13.319
60644W        W29007  42.320  26.995   1.799
60645W        W29008  13.117   9.357  11.465
60646W        W29009  11.303  13.257   0.452
60647W        W29010  27.474  14.751   5.143
60648W        W29011  16.640  32.409   0.398
60649W        W29012  16.738  30.144  12.037
60650W        W29013  40.808  35.892  12.452
60651W        W29014  18.140  42.980  12.565
60652W        W29015  36.985  16.684  10.557
60653W        W29016  23.510  34.564  14.796
60654W        W29017  12.723  41.954   0.318
60655W        W29018  23.583  18.128  13.533
60656W        W29019   6.196  14.113  12.475
60657W        W29020   7.330  30.160   2.345
60658W        W29021  34.996  14.152   2.790
60659W        W29022  26.003  42.886  14.786
60660W        W29023  35.479   8.898   2.699
60661W        W29024  13.229  14.608  12.930
60662W        W29025  43.987  11.861   1.229
60663W        W29026  13.196  44.354  12.923
60664W        W29027  30.008  24.991   0.338
60665W        W29028  19.660  26.578   0.834
60666W        W29029  41.360  25.985   3.728
60667W        W29030  25.023  23.106  10.450
60668W        W29031  28.060  36.468  12.432
60669W        W29032   6.737  30.146  11.091
60670W        W29033   6.318  19.284  12.042
60671W        W29034   9.803  25.527   0.248
60672W        W29035  41.956   7.859   4.300
60673W        W29036  40.496   9.263   4.147
60674W        W29037  17.286  25.555   0.480
60675W        W29038  39.331  41.492  13.499
60676W        W29039  25.469  29.009   2.818
60677W        W29040   0.819   7.369  11.440
60678W        W29041   6.375  25.075   3.259
60679W        W29042  17.637  19.629  11.920
60680W        W29043  26.971  39.449   1.700
60681W        W29044  39.834  36.552   1.377
60682W        W29045  13.306   2.808  12.869
60683W        W29046  21.262  36.950  12.953
60684W        W29047  35.023  26.676   1.849
60685W        W29048  41.940  19.780  14.395
60686W        W29049  12.330  34.068   2.220
60687W        W29050   1.741  31.463   3.354
60688W        W29051  40.998   6.901   0.730
60689W        W29052  32.527  36.585   3.317
60690W        W29053  17.702  15.117  13.434
60691W        W29054  39.809  40.519  11.537
60692W        W29055   1.364   4.364  11.597
60693W        W29056  37.927   1.801   2.748
60694W        W29057  28.175  25.688   4.804
60695W        W29058  43.516  37.517  12.090
60696W        W29059   3.923   1.259  11.479
60697W        W29060  14.640  36.053   4.771
60698W        W29061   1.460  36.556  13.889
60699W        W29062  33.525   5.784   2.884
60700W        W29063   2.260  27.994  12.871
60701W        W29064  21.523  31.638   1.255
60702W        W29065  30.043  24.080  13.347
60703W        W29066   3.305  11.743   1.932
60704W        W29067  20.758   3.418   3.355
60705W        W29068  34.550  44.479   2.677
60706W        W29069  21.518   5.306  11.938
60707W        W29070  36.530  36.943   3.292
60708W        W29071  12.295   1.818   0.961
60709W        W29072  25.669  26.129   1.301
60710W        W29073  16.107   7.230   1.318
60711W        W29074  16.624  43.466  13.849
60712W        W29075  12.129  28.112  14.369
60713W        W29076  25.530  24.023   1.398
60714W        W29077   7.863  38.949  13.535
60715W        W29078   3.219  44.394   2.684
60716W        W29079  34.018   6.428  10.054
60717W        W29080  20.580  27.465   4.652
60718W        W29081   0.451  17.090   4.830
60719W        W29082   1.921   6.389   2.398
60720W        W29083  15.720  17.623  12.935
60721W        W29084  24.005  32.087   2.861
60722W        W29085  35.978  40.392  10.552
60723W        W29086   3.246  14.741  14.828
60724W        W29087  27.583  19.265   0.929
60725W        W29088  16.222  35.538   4.158
60726W        W29089  40.540  43.783  10.645
60727W        W29090  21.615   1.482   4.320
60728W        W29091  28.182  13.602  10.561
60729W        W29092  35.903  23.226  13.442
60730W        W29093   6.264  39.508   4.158
60731W        W29094  41.298  17.570  13.873
60732W        W29095  10.340  23.515   3.771
60733W        W29096  42.004  18.656   3.776
60734W        W29097  17.700  25.023  12.534
60735W        W29098   9.193  44.913   2.688
60736W        W29099   9.315  16.129   4.241
60737W        W29100  23.186  15.666  12.971
60738W        W29101  23.675  42.997   0.863
60739W        W29102  11.670  19.104   4.259
60740W        W29103  11.722  25.504  12.466
60741W        W29104  24.224  20.174  14.420
60742W        W29105   2.910  11.221   3.153
60743W        W29106  16.145  31.977  13.842
60744W        W29107  42.793  43.843  11.398
60745W        W29108   2.742   5.744   0.899
60746W        W29109  20.102   2.836  14.917
60747W        W29110  39.542  29.946   2.736
60748W        W29111  20.212  12.833  10.601
60749W        W29112  12.656   5.803  14.981
60750W        W29113  38.459  16.623  12.540
60751W        W29114  23.555  44.461  12.983
60752W        W29115  43.416  27.181   4.324
60753W        W29116  18.103  38.375  10.935
60754W        W29117  37.367  24.215   3.228
60755W        W29118  30.467  10.222  12.561
60756W        W29119   5.829  37.373  10.573
60757W        W29120  27.640  26.634  10.590
60758W        W29121  37.043  40.052   2.821
60759W        W29122   8.209   4.303  10.887
60760W        W29123  18.185   2.245  14.011
60761W        W29124  41.335  26.590  14.326
60762W        W29125  28.006  10.149   1.433
60763W        W29126  42.326  14.100   2.769
60764W        W29127  33.403  14.765   3.771
60765W        W29128  34.379  41.905  10.614
60766W        W29129  11.139  41.473  12.911
60767W        W29130  16.674   2.328   0.855
60768W        W29131  30.499  17.175   0.759
60769W        W29132  36.923  22.088   3.656
60770W        W29133  15.094   9.879   1.236
60771W        W29134  36.961  28.179  11.434
60772W        W29135  18.206  44.381  10.016
60773W        W29136   9.664   1.962   1.291
60774W        W29137  10.216  28.550   2.414
60775W        W29138  44.883  23.205   0.778
60776W        W29139  18.066  10.860   4.687
60777W        W29140  40.003  23.030  14.760
60778W        W29141  18.233  17.721   2.322
60779W        W29142  23.670  36.915   3.350
60780W        W29143  38.407  23.576   3.159
60781W        W29144   3.324  29.656  14.324
60782W        W29145  15.709   7.174   1.384
60783W        W29146   8.245  14.820  13.456
60784W        W29147   7.349  33.483   3.286
60785W        W29148  14.246  38.066   4.675
60786W        W29149   3.257   7.262   2.413
60787W        W29150  11.338  41.030   4.342
60788W        W29151  25.965  15.234   2.252
60789W        W29152  40.533  30.040   1.850
60790W        W29153   3.364   6.813   3.846
60791W        W29154  12.355  18.630   2.795
60792W        W29155   7.370  24.662  13.972
60793W        W29156  13.822  16.695   2.691
60794W        W29157  15.096  37.525  14.290
60795W        W29158  20.241  39.981  11.555
60796W        W29159   0.424  40.411  12.886
60797W        W29160  36.350  32.500  10.484
60798W        W29161  42.907  11.763  11.978
60799W        W29162  35.075  41.875   1.906
60800W        W29163  33.973  29.488   3.302
60801W        W29164  27.031  13.283  12.854
60802W        W29165  38.977  41.434  10.575
60803W        W29166  28.080   8.750   2.865
60804W        W29167  41.810  18.250  13.526
60805W        W29168  21.742   2.406   3.196
60806W        W29169  17.602  20.674   1.860
60807W        W29170  14.176   4.899  11.403
60808W        W29171  19.560  16.608  13.905
60809W        W29172  30.505  37.397  12.827
60810W        W29173  40.416  27.461  11.547
60811W        W29174  26.610  35.498  10.954
60812W        W29175  14.267  21.244  13.058
60813W        W29176  37.020  20.118   2.824
60814W        W29177   8.727   1.270   2.767
60815W        W29178  15.119   1.273  11.531
60816W        W29179  33.422  44.966  11.593
60817W        W29180  42.847  26.687   4.822
60818W        W29181  21.215  15.292   0.809
60819W        W29182  26.614  26.645   1.451
60820W        W29183  39.977  43.951   4.619
60821W        W29184  42.959   7.222  11.913
60822W        W29185  24.195   5.690   2.842
60823W        W29186  35.885   4.449   4.608
60824W        W29187  12.271  39.049  14.765
60825W        W29188  14.636   6.306   4.616
60826W        W29189  30.990  43.379   3.181
60827W        W29190  12.729  20.670   3.245
60828W        W29191  28.486  16.753  13.474
60829W        W29192  15.166  34.543  11.547
60830W        W29193  35.527  18.111   1.859
60831W        W29194   8.800  36.542   4.750
60832W        W29195  43.459  34.540   2.240
60833W        W29196  27.506  28.512   1.266
60834W        W29197  15.712   8.727  12.443
60835W        W29198  41.887  32.062   3.154
60836W        W29199   1.479  30.139  14.475
60837W        W29200   9.756  40.454  13.476
60838W        W29201   5.207  38.401   0.432
60839W        W29202  38.972  18.633  10.027
60840W        W29203   4.273  25.558   0.776
60841W        W29204   6.681  28.651   2.226
60842W        W29205   4.258  34.513  14.983
60843W        W29206  15.797  43.926  10.161
60844W        W29207   9.373   0.442   1.412
60845W        W29208  14.593  28.056  11.561
60846W        W29209  13.260  22.707   5.104
60847W        W29210  38.010  40.447  13.993
60848W        W29211   7.410   7.392   2.799
60849W        W29212  12.256  40.458   3.328
60850W        W29213  37.005  44.952   0.297
60851W        W29214  10.687  37.522  10.629
60852W        W29215  43.410   5.245   0.836
60853W        W29216   8.762  42.486  11.918
60854W        W29217  42.483  26.955   3.313
60855W        W29218  25.548  39.010   3.307
60856W        W29219   5.890  26.130  10.493
60857W        W29220  26.204  43.270  11.406
60858W        W29221  25.177  30.928  14.803
60859W        W29222  12.737  27.674   0.936
60860W        W29223   4.750  18.062  11.034
60861W        W29224   2.363  21.025   3.777
60862W        W29225  25.624  31.026   4.276
60863W        W29226  12.323  34.109   1.845
60864W        W29227  37.389  23.028  10.979
60865W        W29228   0.355   1.334  10.514
60866W        W29229  19.608   0.489  12.494
60867W        W29230  16.802  12.639  13.484
60868W        W29231  28.678  11.224   1.854
60869W        W29232  24.155   1.478  11.601
60870W        W29233  41.998  28.486  12.062
60871W        W29234  22.700  16.215  11.114
60872W        W29235   6.315  32.391  11.484
60873W        W29236  28.524   6.308  10.462
60874W        W29237   5.381  14.277   0.423
60875W        W29238   0.308  35.930  10.440
60876W        W29239  36.378  21.580  12.945
60877W        W29240  29.577  30.076  11.459
60878W        W29241  21.111  28.119   1.255
60879W        W29242  13.659  29.144   1.227
60880W        W29243  16.807  41.999  13.917
60881W        W29244  17.279  29.156   4.197
60882W        W29245  25.663  26.098  12.398
60883W        W29246  29.137  41.998  10.591
60884W        W29247  11.194  10.715  13.509
60885W        W29248  11.290   8.404   1.374
60886W        W29249  37.838  30.574   2.286
60887W        W29250  18.271  36.349   1.234
60888W        W29251  37.997  37.435   4.171
60889W        W29252  13.351   5.341   1.759
60890W        W29253  28.585  37.895  11.973
60891W        W29254  25.159  11.807  14.425
60892W        W29255  41.533  33.391   0.914
60893W        W29256   8.744   2.933  13.897
60894W        W29257  34.614  11.816  11.104
60895W        W29258  29.446   7.242  14.498
60896W        W29259  31.642  17.791  14.917
60897W        W29260   6.688  26.548  10.903
60898W        W29261  44.498  15.125  10.409
60899W        W29262  16.647   8.388   1.401
60900W        W29263  42.802  18.191   1.901
60901W        W29264  30.155  24.090  13.007
60902W        W29265  26.123  23.166  13.985
60903W        W29266  20.608  36.590   4.159
60904W        W29267  34.998  23.164  11.874
60905W        W29268   6.750  28.640   0.850
60906W        W29269  33.416   2.758   3.816
60907W        W29270  30.562  17.614   1.415
60908W        W29271  20.047  35.862   1.338
60909W        W29272  13.620   0.395  12.900
60910W        W29273  43.961  22.115   2.247
60911W        W29274   2.748  27.641   3.712
60912W        W29275   2.938  29.474   4.613
60913W        W29276  20.625   4.245  10.519
60914W        W29277   4.732   5.912   0.412
60915W        W29278  13.266  35.888  13.035
60916W        W29279  32.141   3.430   4.194
60917W        W29280  24.223  43.931   3.358
60918W        W29281  36.403  29.579   4.829
60919W        W29282   3.303  41.419   2.711
60920W        W29283  37.891  18.759   0.905
60921W        W29284  39.046  41.942  10.528
60922W        W29285   6.836   9.163   4.134
60923W        W29286  16.730  15.246  10.488
60924W        W29287  35.044   0.935  11.493
60925W        W29288  26.646  33.071  13.406
60926W        W29289  21.619   1.921   5.126
60927W        W29290  41.862  38.029   2.230
60928W        W29291  14.319  13.319  14.448
60929W        W29292  30.507  40.002  13.424
60930W        W29293   4.326   0.940  12.855
60931W        W29294  20.044  43.018  12.401
60932W        W29295  18.105  39.335   4.667
60933W        W29296  31.644  40.463   2.891
60934W        W29297  43.837  39.519  13.342
60935W        W29298   9.680  34.956   3.727
60936W        W29299   6.907  13.142  10.943
60937W        W29300   4.272  15.808  10.949
60938W        W29301  24.081   7.866  12.404
60939W        W29302  16.141   4.704  11.481
60940W        W29303   4.215  44.977   0.477
60941W        W29304  34.081  35.581   3.343
60942W        W29305  25.216   2.456   0.853
60943W        W29306  17.781  25.558   4.235
60944W        W29307   4.332  31.545   1.441
60945W        W29308  22.731  20.545  14.301
60946W        W29309  23.086  38.401   1.860
60947W        W29310  41.408  36.912  11.103
60948W        W29311  18.547  21.147   3.259
60949W        W29312  19.743  36.472   2.686
60950W        W29313  29.461   6.912  14.919
60951W        W29314   9.374  34.982   4.762
60952W        W29315  12.782  21.519  14.923
60953W        W29316  37.420  29.446  14.925
60954W        W29317  36.967  23.501   4.738
60955W        W29318   9.193  22.707   4.824
60956W        W29319  37.857   9.856   5.083
60957W        W29320  13.196  36.992   2.197
60958W        W29321  11.662  13.844   0.302
60959W        W29322  23.992   1.795  12.028
60960W        W29323   3.411  27.186   1.768
60961W        W29324  19.634  31.010   2.712
60962W        W29325  17.641  43.875   3.372
60963W        W29326  41.377  33.950  14.448
60964W        W29327  16.670  25.625  14.457
60965W        W29328  16.282  38.960   2.251
60966W        W29329  33.438  12.770   9.983
60967W        W29330  28.566   9.392  13.875
60968W        W29331  32.980  26.641  12.882
60969W        W29332  19.764  25.147   1.412
60970W        W29333  27.156   7.904   2.362
60971W        W29334   7.300  38.398   4.627
60972W        W29335  21.515   4.816  14.306
60973W        W29336  26.582   8.805   0.341
60974W        W29337   0.795  35.509   4.191
60975W        W29338  20.564  19.085  11.451
60976W        W29339  10.384  22.074  10.090
60977W        W29340  16.725  43.785   4.710
60978W        W29341  17.239  11.191   2.255
60979W        W29342  14.298  28.964   3.209
60980W        W29343  36.893  29.100  13.794
60981W        W29344  31.965   7.302  12.830
60982W        W29345  42.987   0.941   1.252
60983W        W29346  14.676  33.478   1.258
60984W        W29347  38.460  20.617   2.188
60985W        W29348  17.078  43.971  12.532
60986W        W29349  24.544   8.696   2.194
60987W        W29350   5.250   9.848  10.541
60988W        W29351  42.846  18.141  12.047
60989W        W29352  33.979  16.082  11.887
60990W        W29353  39.461  18.555   1.902
60991W        W29354  17.090  25.150  10.950
60992W        W29355  29.094   9.353   4.819
60993W        W29356   4.788  26.569  12.906
60994W        W29357  37.557   1.430   2.763
60995W        W29358  21.756  39.505   3.339
60996W        W29359   8.205  31.632   1.790
60997W        W29360  30.096  23.180  10.998
60998W        W29361  41.921  21.704  11.999
60999W        W29362  12.690  37.064  10.894
61000W        W29363  37.074   4.296   1.827
61001W        W29364  13.199   0.789   2.860
61002W        W29365   5.390  39.808   1.245
61003W        W29366  16.640  17.073   4.149
61004W        W29367  25.484  34.537  14.784
61005W        W29368  27.966   2.338  13.796
61006W        W29369  35.947  29.475  14.865
61007W        W29370  33.924   8.379  11.380
61008W        W29371   8.866  38.953   0.433
61009W        W29372   0.309  22.673   0.831
61010W        W29373   9.706  31.561  14.364
61011W        W29374  29.033   6.721  14.358
61012W        W29375  25.521  35.046   0.274
61013W        W29376  11.644  24.047  12.431
61014W        W29377  33.539   2.844   4.804
61015W        W29378  40.481   9.337  12.420
61016W        W29379  38.834   1.331   4.725
61017W        W29380  26.539  42.792   0.728
61018W        W29381  17.119  35.060  14.305
61019W        W29382  30.101   9.188  12.844
61020W        W29383  37.350   8.711  10.640
61021W        W29384  12.837  20.222   3.364
61022W        W29385  17.629   8.754   2.711
61023W        W29386  25.056  44.799   3.651
61024W        W29387   5.879  41.000   1.308
61025W        W29388  38.025  26.011   1.262
61026W        W29389  20.202  10.775  10.530
61027W        W29390  21.594   4.928   0.466
61028W        W29391  28.497  33.124   0.795
61029W        W29392  16.700   2.910   0.809
61030W        W29393  26.121  34.383   0.885
61031W        W29394  22.579  30.421   4.778
61032W        W29395   8.315  21.606  13.858
61033W        W29396  26.662  24.033  11.063
61034W        W29397  42.800   8.204  10.923
61035W        W29398  33.990  27.121  11.083
61036W        W29399  25.100  38.064   2.193
61037W        W29400   6.261  41.991   1.249
61038W        W29401  27.115   0.878   2.375
61039W        W29402  28.017  14.835  11.990
61040W        W29403   0.409  26.694   4.258
61041W        W29404  19.181  36.514  13.912
61042W        W29405  30.142  25.536  14.011
61043W        W29406  42.025   0.416   2.734
61044W        W29407   9.394  35.058   4.344
61045W        W29408  35.011  27.045   1.215
61046W        W29409   8.895  25.213  14.008
61047W        W29410  28.078  33.562   1.397
61048W        W29411  10.804  24.075   3.817
61049W        W29412  27.586  44.891   0.356
61050W        W29413  39.315  12.181   0.857
61051W        W29414  42.294   3.823  14.503
61052W        W29415  34.570  11.765   4.671
61053W        W29416  42.441  24.145  12.530
61054W        W29417  27.974  22.660   4.165
61055W        W29418  38.010   3.891   0.759
61056W        W29419   6.273  41.796   4.228
61057W        W29420   1.738  34.408  13.055
61058W        W29421  13.752  30.117   2.729
61059W        W29422  19.760   0.945  10.933
61060W        W29423  36.532  14.192   9.957
61061W        W29424   0.356   6.839  11.031
61062W        W29425   9.717  20.113   4.198
61063W        W29426  22.517  17.635   1.873
61064W        W29427   2.412  12.651   1.211
61065W        W29428  32.981  24.489   4.188
61066W        W29429  26.134  44.004  14.025
61067W        W29430   4.792  40.000  11.466
61068W        W29431  36.430  13.122  13.373
61069W        W29432   8.380  25.999  14.485
61070W        W29433  37.425  27.570  10.573
61071W        W29434  40.517  41.370  10.020
61072W        W29435  32.394  28.474  13.846
61073W        W29436   0.842  42.298  11.423
61074W        W29437  34.453   5.719  11.112
61075W        W29438  36.385   2.307  11.050
61076W        W29439   7.835  15.622  13.832
61077W        W29440  19.148  31.051  10.613
61078W        W29441  37.388  25.710  12.433
61079W        W29442  37.052  25.092  12.501
61080W        W29443  38.828  21.214   4.261
61081W        W29444  32.070  18.135   2.901
61082W        W29445  41.514  24.113  13.349
61083W        W29446  25.014  31.128   4.156
61084W        W29447  44.311  34.000   0.246
61085W        W29448  30.079  39.005  14.879
61086W        W29449  26.702  40.334  12.506
61087W        W29450  25.996  41.501  11.005
61088W        W29451   5.224  16.722  13.929
61089W        W29452  24.615   4.286  13.824
61090W        W29453  22.114  19.158   0.435
61091W        W29454  13.731   9.374   3.264
61092W        W29455  32.413  30.135  11.583
61093W        W29456  30.617  20.534   1.414
61094W        W29457  10.799  33.978  12.395
61095W        W29458  34.014  35.952   3.724
61096W        W29459  33.558  25.145   3.730
61097W        W29460   7.765  25.198   2.219
61098W        W29461  30.627  17.274   2.784
61099W        W29462  38.434   9.847  12.443
61100W        W29463   6.898  36.000   3.296
61101W        W29464  15.138  32.092   2.290
61102W        W29465  19.195  43.428   3.294
61103W        W29466  18.641  23.103  11.088
61104W        W29467  16.673  41.041   4.621
61105W        W29468  15.813  14.801  11.000
61106W        W29469   3.332  28.059  14.327
61107W        W29470  10.374  33.385   3.763
61108W        W29471  26.664  30.091   2.388
61109W        W29472  11.129   3.951  10.418
61110W        W29473  11.791   6.775  12.508
61111W        W29474  35.499  17.602   0.794
61112W        W29475  28.494  24.608  13.943
61113W        W29476  24.016  18.164  13.796
61114W        W29477  20.588   6.917  10.466
61115W        W29478  11.142  40.304   3.190
61116W        W29479   5.293   8.768   3.269
61117W        W29480   2.837  33.580   0.915
61118W        W29481  23.085  19.614  14.807
61119W        W29482  21.548   6.423   2.669
61120W        W29483  16.088  34.040   3.774
61121W        W29484  16.302  34.588   3.252
61122W        W29485  34.866  32.448  10.959
61123W        W29486  22.035  44.352  14.003
61124W        W29487  36.534  17.611  12.439
61125W        W29488  32.975   7.898   0.464
61126W        W29489  29.583  27.069  11.497
61127W        W29490   4.259   5.347  12.579
61128W        W29491  10.825  41.947  10.530
61129W        W29492  13.664  26.159  11.609
61130W        W29493  38.951  28.945  12.405
61131W        W29494  25.506   0.801   5.264
61132W        W29495  34.932  43.439  11.882
61133W        W29496  11.689   7.669   3.863
61134W        W29497  15.216  17.736   4.765
61135W        W29498  33.098  42.356   3.371
61136W        W29499  41.795   5.762  12.416
61137W        W29500  33.535   3.378   0.350
61138W        W29501  13.297  20.074  14.832
61139W        W29502  10.374  26.126   0.747
61140W        W29503  15.094  11.185   3.243
61141W        W29504  38.379  24.601  13.523
61142W        W29505  43.964   3.305   4.137
61143W        W29506  33.939   8.854  10.474
61144W        W29507  25.162  10.299  14.903
61145W        W29508  29.060  17.139  11.948
61146W        W29509  11.687  19.122  12.506
61147W        W29510  28.654  19.221  11.572
61148W        W29511  10.671   9.747   4.158
61149W        W29512  33.086  14.305  14.389
61150W        W29513   5.849  23.684   2.901
61151W        W29514  15.108   9.282   3.785
61152W        W29515  30.977   7.677   0.746
61153W        W29516   6.258  32.916   2.814
61154W        W29517  42.824  10.691   2.730
61155W        W29518   4.345  27.582  10.520
61156W        W29519  24.981  26.070   0.400
61157W        W29520  14.129  12.168  12.974
61158W        W29521   9.198  16.264   4.672
61159W        W29522  36.515  25.671  12.345
61160W        W29523  17.144  12.156   3.700
61161W        W29524  17.184  39.044   3.374
61162W        W29525  42.311  23.687  12.390
61163W        W29526  36.504  14.217   5.203
61164W        W29527   2.258  22.673   2.210
61165W        W29528  10.160  27.597   1.257
61166W        W29529  39.513  34.954  10.986
61167W        W29530  11.647   4.859   3.266
61168W        W29531  40.450  15.782   2.367
61169W        W29532  21.563  12.821   1.920
61170W        W29533   5.431   4.792  11.433
61171W        W29534   9.349   3.882  11.473
61172W        W29535   9.227   5.753  13.484
61173W        W29536  28.998  23.997  11.967
61174W        W29537  43.331  41.917  13.407
61175W        W29538   1.403  23.063  12.950
61176W        W29539   2.366  17.576  13.468
61177W        W29540   5.282  41.388   1.712
61178W        W29541  20.743  20.637   1.741
61179W        W29542  34.400  43.270   4.308
61180W        W29543   7.259  33.498  14.300
61181W        W29544   0.934  27.623   4.640
61182W        W29545  25.497  35.057  14.854
61183W        W29546  42.928   8.201   0.243
61184W        W29547  38.020  40.912   1.224
61185W        W29548  32.998   6.365  10.623
61186W        W29549  21.742  40.979  12.558
61187W        W29550  27.549  29.090  13.800
61188W        W29551  40.505  10.723   0.290
61189W        W29552  15.684  34.029   1.396
61190W        W29553   2.844  15.292   1.421
61191W        W29554   6.232  42.382   1.808
61192W        W29555  20.105  15.579   0.836
61193W        W29556  32.118  26.069   1.308
61194W        W29557  30.925   2.925  10.468
61195W        W29558   5.726   8.826  11.553
61196W        W29559  43.319  20.252  10.563
61197W        W29560  14.324  26.138  12.011
61198W        W29561  11.275  24.075  11.432
61199W        W29562  40.444  38.542  10.918
61200W        W29563   7.342  27.581   2.238
61201W        W29564  18.616  34.017  12.418
61202W        W29565  12.691   2.338  12.572
61203W        W29566  16.252  21.562  11.992
61204W        W29567   3.418   5.705   4.674
61205W        W29568  11.173  25.609   4.660
61206W        W29569   6.696  22.055  12.000
61207W        W29570   4.783  30.558   1.902
61208W        W29571   0.746  24.015   5.714
61209W        W29572  28.651  13.124  14.461
61210W        W29573  19.247  37.504  12.510
61211W        W29574   2.376  31.600   3.189
61212W        W29575  43.272  10.785   0.757
61213W        W29576  34.113   2.419  13.825
61214W        W29577  21.154   5.811  10.918
61215W        W29578  25.492   7.416   2.770
61216W        W29579  40.426  14.791   4.316
61217W        W29580  30.431   7.291   4.313
61218W        W29581   5.308  36.995   2.690
61219W        W29582  42.857   1.915  14.825
61220W        W29583   2.792  20.098   1.778
61221W        W29584  41.967  28.979  11.946
61222W        W29585  23.043  31.613  13.969
61223W        W29586   7.724   8.684  12.559
61224W        W29587  25.114   8.407   1.240
61225W        W29588  29.117  19.654  12.531
61226W        W29589  30.646  23.144   1.421
61227W        W29590  25.995  36.405  14.507
61228W        W29591  25.681  20.523   4.281
61229W        W29592   8.313  21.060   3.791
61230W        W29593  29.522   5.830  11.884
61231W        W29594   4.900  26.485   5.176
61232W        W29595  21.200   8.869   2.817
61233W        W29596   6.752  36.476   0.829
61234W        W29597  42.372  33.952   0.894
61235W        W29598  22.062   8.277  12.346
61236W        W29599  33.451   1.259   4.206
61237W        W29600  38.462  17.678  10.567
61238W        W29601  22.649   8.854  10.634
61239W        W29602  26.536  27.680  10.450
61240W        W29603   9.228  27.961   2.687
61241W        W29604  12.252  44.798  11.606
61242W        W29605  37.467  27.120  14.844
61243W        W29606  10.282   4.305  14.292
61244W        W29607   3.888  17.787   1.882
61245W        W29608  24.034  17.592  10.489
61246W        W29609  20.555  35.397   1.908
61247W        W29610  10.638  33.456  11.073
61248W        W29611  38.516  40.434  13.484
61249W        W29612  21.100  37.443   5.146
61250W        W29613  22.653  19.040  10.601
61251W        W29614  30.486  15.240   1.374
61252W        W29615   4.342   8.162   4.772
61253W        W29616   5.687  44.960   4.200
61254W        W29617  42.870  20.108  14.433
61255W        W29618  19.142  41.368   5.291
61256W        W29619  27.946  16.630  14.358
61257W        W29620  10.322  10.309  12.898
61258W        W29621  13.809   1.734   3.312
61259W        W29622  41.328  35.006  13.543
61260W        W29623  30.992  23.578  11.407
61261W        W29624  38.427  16.802  10.516
61262W        W29625  27.995  32.626   2.750
61263W        W29626   5.833   2.872  11.594
61264W        W29627  18.598  17.186   2.682
61265W        W29628  18.095  26.014  14.872
61266W        W29629  35.882   9.235  14.768
61267W        W29630  12.266  14.142   3.860
61268W        W29631  28.454  34.884   1.406
61269W        W29632  13.841  41.020   4.748
61270W        W29633  25.652  13.166  13.534
61271W        W29634  15.086   1.304  10.996
61272W        W29635   7.209  41.460  12.550
61273W        W29636  35.931  39.021   1.409
61274W        W29637  43.810  14.206  10.413
61275W        W29638  30.440   3.291  14.440
61276W        W29639  43.469  15.723  13.813
61277W        W29640  21.191   8.842   0.947
61278W        W29641  37.909   1.858  13.373
61279W        W29642  19.723  38.521   3.731
61280W        W29643   2.913  23.049  14.376
61281W        W29644   4.409  39.498   1.794
61282W        W29645   6.688  24.543   1.886
61283W        W29646  37.358  22.604   0.454
61284W        W29647  44.348  32.403  14.887
61285W        W29648  30.425  17.258  10.957
61286W        W29649  36.011  35.503   2.824
61287W        W29650   3.832  32.453  12.515
61288W        W29651  15.756  21.061  10.940
61289W        W29652  22.158   9.264   3.183
61290W        W29653  11.156   9.710  12.914
61291W        W29654  21.601  38.485  13.372
61292W        W29655  39.053  14.825   2.672
61293W        W29656  34.384   6.337   1.422
61294W        W29657  12.750   7.690  12.361
61295W        W29658  14.277  25.668  13.879
61296W        W29659  10.825  13.217   3.184
61297W        W29660  32.982  29.163  10.424
61298W        W29661  16.605  30.986   0.346
61299W        W29662   3.767  20.070  12.491
61300W        W29663  33.551  37.053  13.372
61301W        W29664  28.069  27.464  14.341
61302W        W29665  27.068  41.041  14.820
61303W        W29666   4.422   9.669  11.582
61304W        W29667  43.821  34.064  11.883
61305W        W29668  44.832  24.567   0.765
61306W        W29669   4.901  21.174  14.458
61307W        W29670   5.847  38.880  14.437
61308W        W29671   2.940  20.093   0.938
61309W        W29672  31.485  43.402   4.336
61310W        W29673  33.470  14.781  14.825
61311W        W29674  12.715   7.787   1.446
61312W        W29675  18.615  29.999  12.570
61313W        W29676  32.026   4.850  12.391
61314W        W29677   2.264  15.277   1.249
61315W        W29678  30.916   1.360  10.614
61316W        W29679  14.721  18.731  11.611
61317W        W29680  29.066  26.641  12.518
61318W        W29681  42.424  14.214   3.757
61319W        W29682  32.392  39.061  12.545
61320W        W29683  21.514   2.277   0.292
61321W        W29684  44.905  34.025  14.866
61322W        W29685  44.350   5.242  13.061
61323W        W29686  16.654  18.702   0.335
61324W        W29687  38.513   5.397   3.637
61325W        W29688  34.993  15.309  11.124
61326W        W29689  18.777  36.931  12.075
61327W        W29690  30.530  30.518   0.758
61328W        W29691   7.321  39.843   3.804
61329W        W29692  39.366  18.129   3.660
61330W        W29693  23.572  43.872   4.603
61331W        W29694   9.380   0.351  14.333
61332W        W29695  36.034   5.917   3.815
61333W        W29696  25.197  16.220   4.732
61334W        W29697   0.455  22.747  11.965
61335W        W29698  30.068   2.806  13.029
61336W        W29699  14.699  22.073   1.408
61337W        W29700  32.473  16.628  14.451
61338W        W29701   6.715   0.367   1.804
61339W        W29702  36.955  39.884  11.883
61340W        W29703   5.728  43.495   3.647
61341W        W29704  18.752  34.965   2.877
61342W        W29705  28.499  40.345   2.316
61343W        W29706  23.578   6.906   2.328
61344W        W29707  44.991  17.639   0.292
61345W        W29708   3.908  32.627   1.763
61346W        W29709   6.234  12.838  13.498
61347W        W29710  35.420  16.302   2.351
61348W        W29711  12.142  44.481   4.252
61349W        W29712  35.988  23.534   3.657
61350W        W29713  27.986   1.959  13.876
61351W        W29714   9.163  23.206   2.755
61352W        W29715  43.302  23.120   0.862
61353W        W29716   9.351  18.057   4.175
61354W        W29717   6.921  13.153   1.825
61355W        W29718   8.744  35.985   2.781
61356W        W29719   2.233   1.836  12.049
61357W        W29720  25.045  25.068   1.272
61358W        W29721  15.176  40.373   1.806
61359W        W29722  22.208  38.481  11.888
61360W        W29723  10.805  28.186   2.680
61361W        W29724  24.983  16.273  10.404
61362W        W29725  10.264  33.592  14.335
61363W        W29726  41.510  41.341   1.392
61364W        W29727  20.088  32.091  11.514
61365W        W29728   6.401  39.319  14.905
61366W        W29729   7.809  18.698   1.322
61367W        W29730  21.527  28.143   0.763
61368W        W29731  42.946  25.211   1.356
61369W        W29732  18.090   8.362  10.593
61370W        W29733   2.835   2.726  13.337
61371W        W29734  18.734   4.419   0.766
61372W        W29735  27.552  29.927   4.602
61373W        W29736  30.634  23.027  10.924
61374W        W29737  34.420  10.691  13.480
61375W        W29738  19.718  19.708   1.732
61376W        W29739  24.486  17.786  14.394
61377W        W29740  18.773  29.993   1.435
61378W        W29741  34.909   6.727   3.309
61379W        W29742  20.748  27.048   3.725
61380W        W29743   3.259  19.596   3.170
61381W        W29744   5.930  37.835   0.912
61382W        W29745  10.286  21.748  10.607
61383W        W29746  31.926  32.409   3.695
61384W        W29747   4.735   4.278   4.199
61385W        W29748  34.097  26.547  14.504
61386W        W29749  16.666  16.184  12.390
61387W        W29750   7.873  42.849  12.066
61388W        W29751  22.628   3.410   2.394
61389W        W29752  22.043  28.446  10.426
61390W        W29753  39.956   1.954   4.151
61391W        W29754   1.283  32.932   2.394
61392W        W29755  23.533  35.966  11.004
61393W        W29756  22.560  33.875  12.480
61394W        W29757   7.190   4.914   4.198
61395W        W29758  29.984  31.448  11.012
61396W        W29759  29.579  25.028   5.088
61397W        W29760   8.707  28.624  10.916
61398W        W29761  26.471  20.239   2.261
61399W        W29762  40.887  20.719  13.477
61400W        W29763  36.987  16.235  13.881
61401W        W29764  31.479  27.996  11.482
61402W        W29765  44.776  12.813  14.416
61403W        W29766  14.103  43.942   3.195
61404W        W29767  13.721   4.208   0.791
61405W        W29768  26.525   9.326  11.966
61406W        W29769  41.924  42.865  14.796
61407W        W29770   9.297  34.908  12.090
61408W        W29771  12.828  34.530   2.382
61409W        W29772  12.765   1.842   0.285
61410W        W29773  21.225   1.391   0.930
61411W        W29774   3.753  15.768   4.228
61412W        W29775  17.618  26.657  13.881
61413W        W29776  20.568   1.828   2.307
61414W        W29777  19.656  26.174  14.018
61415W        W29778  28.592  10.683   2.263
61416W        W29779  40.969  38.847   3.205
61417W        W29780  16.318  19.587  14.856
61418W        W29781  29.602  38.448   2.731
61419W        W29782  26.206  14.264  11.992
61420W        W29783   5.710  10.380   4.805
61421W        W29784  12.214  39.519  11.102
61422W        W29785   5.784  43.866   3.651
61423W        W29786  44.317  27.459   4.783
61424W        W29787   9.200  32.486  10.569
61425W        W29788  24.509  26.611   1.377
61426W        W29789  36.013  29.996  12.015
61427W        W29790   9.273   9.263  11.937
61428W        W29791  30.039  28.538   1.233
61429W        W29792  15.275   7.315   4.819
61430W        W29793  40.951   6.368   4.804
61431W        W29794   1.342   3.820   4.273
61432W        W29795  15.717  25.669   1.441
61433W        W29796  31.035  42.468  14.442
61434W        W29797  36.963  16.126   0.379
61435W        W29798  39.436  31.476   4.671
61436W        W29799   5.838  23.706   4.158
61437W        W29800  22.682  33.545  14.407
61438W        W29801  20.107  24.054  11.991
61439W        W29802  42.918  16.599  13.799
61440W        W29803  20.574  34.510   2.750
61441W        W29804  31.142  22.206   3.167
61442W        W29805   9.755  32.065  11.421
61443W        W29806   0.277  29.024   2.739
61444W        W29807  42.492  42.282  12.063
61445W        W29808   6.417  13.814  10.903
61446W        W29809  12.184  13.260   3.384
61447W        W29810  29.097  31.911  11.402
61448W        W29811   7.326  24.185   3.328
61449W        W29812  30.992  16.802  13.424
61450W        W29813  15.819  13.704   1.858
61451W        W29814  43.438  20.093  13.375
61452W        W29815  31.898   7.318  11.477
61453W        W29816  14.172   6.728   1.338
61454W        W29817  10.329   4.841  12.838
61455W        W29818   2.800  37.009   1.268
61456W        W29819  42.407  44.813   0.281
61457W        W29820  43.390  15.749  10.632
61458W        W29821  33.482  17.673  13.463
61459W        W29822  42.940  25.167  10.580
61460W        W29823  26.478   2.925   4.838
61461W        W29824  25.168   8.163   4.336
61462W        W29825  12.841  22.048  14.962
61463W        W29826   5.743  41.837   1.723
61464W        W29827  27.172  20.617  14.328
61465W        W29828  24.556  16.163   0.831
61466W        W29829   9.647  11.322  14.953
61467W        W29830  29.000  30.477   2.250
61468W        W29831  36.878  37.502   0.358
61469W        W29832   9.276  15.610   4.646
61470W        W29833  33.513  16.615  14.391
61471W        W29834  11.676   5.866  14.357
61472W        W29835  38.564  11.269   4.785
61473W        W29836  17.718  38.869  13.313
61474W        W29837  38.876   2.955  10.551
61475W        W29838   0.803  13.704  14.827
61476W        W29839   7.202  20.684   1.228
61477W        W29840  17.760  12.620   3.179
61478W        W29841  14.646   0.763  10.577
61479W        W29842  19.142   5.308  12.083
61480W        W29843   5.432  12.809   3.364
61481W        W29844  42.303   8.292   3.332
61482W        W29845  41.360  38.017  12.966
61483W        W29846  24.520  13.738   0.754
61484W        W29847   4.350   1.456  10.466
61485W        W29848  40.412   0.393  14.984
61486W        W29849  10.678  31.070  13.940
61487W        W29850  25.563   1.467   0.903
61488W        W29851  11.137  16.105  11.891
61489W        W29852   8.900   3.391  12.575
61490W        W29853  18.616   0.478  12.031
61491W        W29854  25.051  38.993  14.412
61492W        W29855  23.490   1.763   3.808
61493W        W29856   9.665  20.075  13.896
61494W        W29857  37.566  25.198  10.627
61495W        W29858  29.500  34.557   1.866
61496W        W29859  24.688  24.678   1.270
61497W        W29860  37.357   3.341  14.321
61498W        W29861  12.653  21.146  13.792
61499W        W29862  43.393  11.669  14.802
61500W        W29863  28.627  36.527   2.798
61501W        W29864  13.209   7.178  14.762
61502W        W29865  35.935  34.909   2.399
61503W        W29866  33.062   7.262  12.365
61504W        W29867  36.979   1.348   1.322
61505W        W29868  42.889  34.992   9.964
61506W        W29869  10.170  43.020  11.896
61507W        W29870  31.511  37.010  13.871
61508W        W29871  12.278  28.485  14.313
61509W        W29872  35.962  13.731  13.972
61510W        W29873  29.608  24.687  14.859
61511W        W29874  18.689  13.215  12.882
61512W        W29875  26.465  36.476   1.750
61513W        W29876  30.030  41.342  12.507
61514W        W29877  33.064  32.604  11.952
61515W        W29878  28.454  25.688  11.517
61516W        W29879  31.980  10.823  14.301
61517W        W29880  40.033  13.330  13.028
61518W        W29881  10.740  25.673   1.237
61519W        W29882  39.358  19.539   4.722
61520W        W29883   8.846  44.910  14.963
61521W        W29884  26.999  36.902  14.343
61522W        W29885   0.953  44.868   1.319
61523W        W29886   4.406  12.749   1.844
61524W        W29887   5.328   2.793  11.544
61525W        W29888   4.213  20.228   2.663
61526W        W29889  41.361  42.809  10.494
61527W        W29890  27.605   0.431   2.745
61528W        W29891  22.506  38.058   0.474
61529W        W29892  19.099  30.571  13.819
61530W        W29893   8.762  39.541   1.415
61531W        W29894  31.020  37.505   3.265
61532W        W29895   5.853  26.485   1.731
61533W        W29896  10.290   7.176  14.490
61534W        W29897  17.120  29.440  14.382
61535W        W29898  11.335   8.713  11.859
61536W        W29899  39.413  25.707  12.499
61537W        W29900  26.667  14.150  12.570
61538W        W29901  29.092  41.986  13.491
61539W        W29902  35.396  44.765   4.769
61540W        W29903  33.567  43.326   4.702
61541W        W29904  16.711  39.017  14.007
61542W        W29905  22.110  14.322  11.525
61543W        W29906  41.471  29.437   2.830
61544W        W29907   2.832  38.974  13.916
61545W        W29908  42.407  11.353  14.849
61546W        W29909   6.204  21.721   0.409
61547W        W29910  23.009  31.929  10.427
61548W        W29911  10.218  24.685  13.508
61549W        W29912  14.823  34.921   3.765
61550W        W29913  28.662   5.917  11.487
61551W        W29914  21.038  34.547   3.162
61552W        W29915  30.516  38.428   3.667
61553W        W29916  24.200  35.375   0.419
61554W        W29917  33.399  37.361   1.765
61555W        W29918  23.074  18.271  11.957
61556W        W29919  27.962  40.531   4.831
61557W        W29920  42.827   6.706   3.647
61558W        W29921  19.221  18.635   3.689
61559W        W29922  15.654  22.150   3.157
61560W        W29923  38.024  10.696  10.507
61561W        W29924  44.990  31.996   0.456
61562W        W29925  29.059  30.966  12.383
61563W        W29926  34.451  20.536  14.447
61564W        W29927  26.638   3.228   3.763
61565W        W29928   6.380  11.197   1.743
61566W        W29929  31.972   0.330   4.694
61567W        W29930   8.336  22.596   1.445
61568W        W29931  13.182  27.652  13.879
61569W        W29932  28.649  20.069  12.847
61570W        W29933  42.993  39.022   1.253
61571W        W29934  18.711  25.198  14.919
61572W        W29935  44.854  36.021   0.454
61573W        W29936  25.675  29.483  13.838
61574W        W29937   0.899  37.860   1.891
61575W        W29938  30.998  26.079   1.232
61576W        W29939  34.369   2.335   3.152
61577W        W29940  21.251  42.497  11.487
61578W        W29941  41.370  44.841   3.804
61579W        W29942  20.671  28.471  10.497
61580W        W29943  20.121  43.399   0.278
61581W        W29944  14.187  37.914  12.007
61582W        W29945  32.486   8.820  11.519
61583W        W29946   6.397  14.690   4.299
61584W        W29947  13.315  24.052  12.915
61585W        W29948   9.169   7.271   4.329
61586W        W29949  24.481  11.787  11.518
61587W        W29950   5.260   0.778   5.262
61588W        W29951  36.553  33.496   1.880
61589W        W29952   3.221  27.638   2.739
61590W        W29953  28.968   4.841  10.428
61591W        W29954  33.096  28.093  14.979
61592W        W29955   7.229  29.038   4.213
61593W        W29956  38.901  41.818  14.989
61594W        W29957  22.511  12.311   3.189
61595W        W29958  28.001  16.790   9.636
61596W        W29959  37.054  33.981   2.743
61597W        W29960  24.110  32.091   5.136
61598W        W29961  25.078  37.900  14.378
61599W        W29962  11.328   4.780  11.125
61600W        W29963  15.704  37.474  14.889
61601W        W29964  44.279  13.694   2.693
61602W        W29965  27.540  14.157   4.179
61603W        W29966  26.625  33.963   5.243
61604W        W29967  22.618  29.465   3.229
61605W        W29968  40.035  11.867  12.078
61606W        W29969   9.385  22.644   0.301
61607W        W29970  31.624  19.729   1.836
61608W        W29971  14.659  33.016  10.626
61609W        W29972  44.862  32.044  10.485
61610W        W29973  37.432  15.596   2.811
61611W        W29974  13.686  39.035   3.770
61612W        W29975  21.588   0.457   2.353
61613W        W29976  18.084  25.634   4.205
61614W        W29977   2.265  15.712   1.920
61615W        W29978  36.482  43.987   1.441
61616W        W29979   1.278  20.642  12.859
61617W        W29980   8.300   9.776  11.483
61618W        W29981  37.081  23.560   1.331
61619W        W29982  30.479  10.690  12.905
61620W        W29983  16.192  23.573   3.768
61621W        W29984  13.653  12.182  14.860
61622W        W29985   2.237  43.512   4.347
61623W        W29986  15.657  24.141   0.784
61624W        W29987  36.559  27.611  14.933
61625W        W29988  27.651  11.210   3.665
61626W        W29989  22.115   4.843   3.809
61627W        W29990  40.903  39.999  10.443
61628W        W29991   5.255  30.940   4.604
61629W        W29992  25.547  21.585   1.416
61630W        W29993  13.776  10.710  12.078
61631W        W29994  44.330   7.723   3.789
61632W        W29995  39.321  11.235   1.349
61633W        W29996  34.866  41.998   0.368
61634W        W29997  34.995  15.725  12.517
61635W        W29998   4.738  36.093  13.320
61636W        W29999   6.919  28.567  13.831
61637W        W30000  11.236  27.113   1.721
61638W        W30001   4.365   5.427   1.229
61639W        W30002  16.075   4.309   4.735
61640W        W30003  30.536  24.606   2.293
61641W        W30004  23.670   7.254  12.943
61642W        W30005  14.341  12.704  11.423
61643W        W30006   3.406  35.064   4.663
61644W        W30007  18.200   9.250  14.366
61645W        W30008   0.296  29.988   4.243
61646W        W30009  12.171  31.090   4.645
61647W        W30010  31.996  40.325   0.967
61648W        W30011  39.874  43.851   3.774
61649W        W30012   8.271  21.209  12.384
61650W        W30013  42.952  35.087   5.168
61651W        W30014  39.056  32.956  13.798
61652W        W30015  45.000  10.174  12.993
61653W        W30016  43.861  41.460   1.328
61654W        W30017   1.269   5.906  12.391
61655W        W30018  37.030  10.138  12.856
61656W        W30019  40.478  28.479   2.226
61657W        W30020   0.400  36.360   9.553
61658W        W30021   6.378   9.284  12.354
61659W        W30022  16.671  40.846  14.373
61660W        W30023  33.123  15.725  13.995
61661W        W30024  18.751  30.999   4.822
61662W        W30025  36.422  23.504   2.794
61663W        W30026  41.023  39.991   3.866
61664W        W30027  16.706  29.170  10.958
61665W        W30028  28.516  33.065   2.399
61666W        W30029  12.713   4.422  13.521
61667W        W30030  27.148   0.410  14.854
61668W        W30031  17.594  10.740   2.369
61669W        W30032   1.951   3.376  13.539
61670W        W30033  16.317  42.427   9.513
61671W        W30034  18.582  30.962  13.364
61672W        W30035  26.515  40.530  13.903
61673W        W30036  35.030   7.357   0.314
61674W        W30037  38.364   7.744  14.978
61675W        W30038  28.562  33.126   1.856
61676W        W30039  12.118   7.904   3.648
61677W        W30040   5.740  16.787  10.920
61678W        W30041  36.997  23.544  12.554
61679W        W30042  18.275  21.721   4.302
61680W        W30043  42.880  20.175  11.529
61681W        W30044  11.366  32.499   0.310
61682W        W30045   4.276   3.341   4.341
61683W        W30046  18.577   8.780  14.514
61684W        W30047  29.172   3.349   0.321
61685W        W30048  38.560  36.504  13.028
61686W        W30049  29.976  22.055  14.303
61687W        W30050  23.221  40.314  13.534
61688W        W30051  31.549   3.318   1.210
61689W        W30052  32.080  23.529   2.779
61690W        W30053  20.181  32.031   2.375
61691W        W30054   2.299   2.392   2.190
61692W        W30055  38.064  40.940  12.026
61693W        W30056   6.343  16.782   1.903
61694W        W30057   2.259  17.740  10.622
61695W        W30058  13.603  27.506   3.637
61696W        W30059  35.372  41.960  11.030
61697W        W30060  14.639   5.698  11.024
61698W        W30061  32.111  42.429   3.277
61699W        W30062   0.304  14.710  13.399
61700W        W30063  14.833  28.981   1.326
61701W        W30064  44.267  39.560   0.271
61702W        W30065  15.086  23.608   4.758
61703W        W30066   6.418  28.438  11.996
61704W        W30067  43.295  20.630  12.544
61705W        W30068  41.406  12.754  14.001
61706W        W30069  21.125  32.472  11.114
61707W        W30070  31.591  21.592  13.019
61708W        W30071  30.961   0.798  13.989
61709W        W30072  18.666  41.335   2.337
61710W        W30073  43.418  26.687   1.831
61711W        W30074  11.768  21.663   0.441
61712W        W30075  41.460  12.690   1.442
61713W        W30076  13.129  34.516   0.872
61714W        W30077   8.246  26.518  13.515
61715W        W30078  31.648  32.918  13.447
61716W        W30079  19.697  43.845   0.896
61717W        W30080  33.524  39.436  14.278
61718W        W30081  25.108  11.757   1.840
61719W        W30082  37.451  42.369   4.813
61720W        W30083  21.219  30.934  10.615
61721W        W30084   5.869  14.695   2.187
61722W        W30085  39.542  41.935  12.471
61723W        W30086  43.870  37.941   2.230
61724W        W30087  29.456  20.631  11.530
61725W        W30088  39.943  36.535   0.333
61726W        W30089  21.045   8.400  12.426
61727W        W30090   8.346  28.526  10.920
61728W        W30091  25.475   0.940  13.817
61729W        W30092  20.116  36.483   2.375
61730W        W30093   7.811  26.023  13.059
61731W        W30094  12.323  14.629   4.720
61732W        W30095  12.332  21.721  14.324
61733W        W30096  24.677  14.605   4.691
61734W        W30097  24.149  44.360   0.400
61735W        W30098  19.262  15.217  14.972
61736W        W30099   7.311  29.467   2.342
61737W        W30100  13.199   9.646   1.272
61738W        W30101   4.930   8.715  12.933
61739W        W30102  31.999  28.074   2.739
61740W        W30103  27.014  43.843  14.967
61741W        W30104  31.012  28.528   2.665
61742W        W30105  19.148  20.659  14.920
61743W        W30106  29.665  40.834   1.299
61744W        W30107  31.583  13.700  11.864
61745W        W30108  10.348  11.664   3.330
61746W        W30109  22.207  17.744  12.349
61747W        W30110   8.333  33.886  11.923
61748W        W30111   1.784  39.492   0.269
61749W        W30112  26.492  34.882   2.192
61750W        W30113   0.248  33.942  10.488
61751W        W30114  16.073  11.690   3.145
61752W        W30115  16.750  36.574   3.729
61753W        W30116  24.041   6.686   3.679
61754W        W30117   8.360  11.370   3.662
61755W        W30118  22.667   9.394   1.300
61756W        W30119   2.306  38.946   5.298
61757W        W30120  42.338  22.682   3.291
61758W        W30121   0.375  29.157   0.392
61759W        W30122  14.237  35.069   2.829
61760W        W30123  12.188  19.154  14.369
61761W        W30124   4.727  29.168  10.447
61762W        W30125  38.427  20.139  10.937
61763W        W30126  27.670  41.040   3.153
61764W        W30127   9.787  44.459   3.802
61765W        W30128  24.589  15.101  13.962
61766W        W30129  22.540  33.563  11.073
61767W        W30130   4.865   9.274  14.888
61768W        W30131  18.635  35.962   1.373
61769W        W30132  37.985  14.704  13.426
61770W        W30133  32.097   2.909   0.263
61771W        W30134  18.278  39.940  11.575
61772W        W30135  11.710  37.918  13.860
61773W        W30136   7.191  23.652   1.741
61774W        W30137  39.992   5.218   0.736
61775W        W30138  37.847   6.262  14.013
61776W        W30139  13.300  14.330  10.113
61777W        W30140  19.179  43.865  11.464
61778W        W30141  23.530  41.926  14.435
61779W        W30142  25.604  26.592  11.034
61780W        W30143   9.308  26.956   0.795
61781W        W30144   2.236  21.049  13.927
61782W        W30145  29.011  28.445  14.293
61783W        W30146  20.666  28.642   4.177
61784W        W30147  23.705  40.347  13.424
61785W        W30148  34.999   2.421   3.239
61786W        W30149  33.470  18.600  11.083
61787W        W30150  36.370  38.051   0.829
61788W        W30151  35.003  39.037  12.922
61789W        W30152   4.741  30.991   0.777
61790W        W30153  27.968  26.076   3.351
61791W        W30154  36.428  32.943  11.606
61792W        W30155  38.010  10.327   3.184
61793W        W30156  42.416   2.741  10.915
61794W        W30157   9.193   9.242  13.918
61795W        W30158  22.691  19.244   0.319
61796W        W30159  20.237  43.515   3.333
61797W        W30160  24.219  37.373  11.421
61798W        W30161  27.449  21.609   3.681
61799W        W30162  20.732  27.181   2.867
61800W        W30163  16.680  26.090  13.872
61801W        W30164  27.996  34.398   1.923
61802W        W30165  13.644  42.353   1.239
61803W        W30166  18.183  10.759   0.428
61804W        W30167  21.732  40.399   0.949
61805W        W30168   8.679  29.611  12.015
61806W        W30169  23.131   3.457   2.823
61807W        W30170  41.925  28.544   4.749
61808W        W30171  39.423   4.924   1.447
61809W        W30172   0.983  23.581  13.962
61810W        W30173  12.200   2.958   0.759
61811W        W30174   6.266   4.894   2.824
61812W        W30175  26.680  10.647   3.650
61813W        W30176   1.386  11.206  14.503
61814W        W30177  42.894   5.903  13.834
61815W        W30178   0.910  25.613  10.519
61816W        W30179  28.459  10.641   4.727
61817W        W30180  17.557  19.724   3.353
61818W        W30181   6.917   1.265  14.362
61819W        W30182  17.777  29.455   2.768
61820W        W30183  31.459  14.210  12.393
61821W        W30184  40.343  44.299  12.056
61822W        W30185   6.689  19.258  13.999
61823W        W30186   3.923  23.056  11.483
61824W        W30187  22.548  23.505  13.495
61825W        W30188   4.427  33.599  13.443
61826W        W30189  10.282  13.777  12.472
61827W        W30190  29.621  41.354   1.439
61828W        W30191   6.782  19.140   3.751
61829W        W30192   1.271  10.797  12.050
61830W        W30193  17.794   2.370   3.734
61831W        W30194  17.715  26.638   4.231
61832W        W30195  40.444  11.155   1.887
61833W        W30196  10.248  31.617  12.958
61834W        W30197   8.233  30.489   3.343
61835W        W30198  43.969   2.232  13.319
61836W        W30199  29.008  32.955  10.495
61837W        W30200  33.976  37.913   2.245
61838W        W30201  22.576   1.876  14.761
61839W        W30202   1.336   8.693   3.835
61840W        W30203   3.829  22.194   4.614
61841W        W30204  38.859  13.649  14.774
61842W        W30205  21.252  23.639  14.455
61843W        W30206  26.522  24.036  12.062
61844W        W30207  20.108   2.880  13.492
61845W        W30208  26.049  15.749  12.443
61846W        W30209   0.814  16.109   4.722
61847W        W30210  31.513   5.241   4.659
61848W        W30211  39.548  35.890   1.231
61849W        W30212  43.280  15.755   1.716
61850W        W30213  27.090   2.259  11.586
61851W        W30214  43.498   9.326  11.951
61852W        W30215  18.729   1.867  14.491
61853W        W30216  16.654   4.878  12.853
61854W        W30217  37.061  17.763   2.237
61855W        W30218  16.133  21.706   3.844
61856W        W30219  20.170  25.135   0.350
61857W        W30220  11.232  43.015  11.061
61858W        W30221  16.114  28.136  13.968
61859W        W30222  11.850  41.364  12.477
61860W        W30223  16.600  24.636  14.276
61861W        W30224  25.063  43.488  14.281
61862W        W30225  12.626  32.090  12.011
61863W        W30226  41.838   5.310   2.662
61864W        W30227  29.566  12.658  14.815
61865W        W30228  10.160  18.211   1.300
61866W        W30229   2.858  41.827  12.425
61867W        W30230  14.290  20.118  11.978
61868W        W30231   3.330  21.603  13.364
61869W        W30232  24.504  30.462  11.488
61870W        W30233  38.926  43.407  14.827
61871W        W30234  28.577  18.738  12.904
61872W        W30235  27.153   5.760   1.874
61873W        W30236  17.234  11.634   2.890
61874W        W30237  28.962   3.249   2.378
61875W        W30238  18.564  11.353   0.440
61876W        W30239   0.442   0.295  12.386
61877W        W30240  38.325  40.403  13.893
61878W        W30241  28.590  23.636   0.380
61879W        W30242  35.959  37.074   4.341
61880W        W30243   2.949  22.670  10.582
61881W        W30244   7.778  16.124   3.742
61882W        W30245  25.665  39.010  10.099
61883W        W30246  39.008  29.973   4.224
61884W        W30247  13.782  31.619   2.195
61885W        W30248  15.290  40.354   4.742
61886W        W30249  35.901  41.316   1.741
61887W        W30250  42.361  18.723  12.419
61888W        W30251  39.539   2.952  12.049
61889W        W30252  20.056  32.960   4.643
61890W        W30253  28.614  43.888  14.981
61891W        W30254   5.689   6.712   2.372
61892W        W30255  17.581  34.917  14.011
61893W        W30256  36.927  12.754  14.510
61894W        W30257  24.129  30.516  14.963
61895W        W30258  28.596   9.864   3.728
61896W        W30259  12.227  29.456  11.080
61897W        W30260  29.649  38.325   4.163
61898W        W30261   7.258  36.468  13.394
61899W        W30262   0.834  16.666  13.409
61900W        W30263  40.022  36.958   2.828
61901W        W30264   7.348  36.505   0.296
61902W        W30265  23.568  39.910  14.855
61903W        W30266  40.913  34.526  11.970
61904W        W30267  23.082  41.417  14.976
61905W        W30268  30.948  37.444  14.837
61906W        W30269   1.313  25.497   4.602
61907W        W30270   8.726  42.776   4.190
61908W        W30271  27.158   8.691  12.032
61909W        W30272  21.214   3.222   4.114
61910W        W30273   3.750  24.519   5.159
61911W        W30274  30.518  32.902  14.511
61912W        W30275  28.584  23.014  11.030
61913W        W30276  38.935  14.644   3.730
61914W        W30277  26.506   7.339   2.723
61915W        W30278  35.919  21.655  11.865
61916W        W30279  22.590  40.542  11.431
61917W        W30280  12.658   6.328   9.552
61918W        W30281  17.158  40.952   1.429
61919W        W30282  16.203  10.859  12.479
61920W        W30283  20.244  28.501  10.443
61921W        W30284  42.876  24.683   2.900
61922W        W30285   6.298   4.341  13.838
61923W        W30286  38.364  32.464  12.521
61924W        W30287  32.477  13.718   4.824
61925W        W30288  33.491  21.128   3.280
61926W        W30289  19.111  39.960  13.446
61927W        W30290  41.462  31.504  14.290
61928W        W30291  41.452  41.411   0.778
61929W        W30292  43.871  20.163   2.227
61930W        W30293  20.164   6.729  11.099
61931W        W30294  26.487  35.107  13.056
61932W        W30295   3.292  18.633   2.823
61933W        W30296  37.075  39.016  14.373
61934W        W30297  19.160  44.943  11.111
61935W        W30298  27.518   7.863   1.859
61936W        W30299  36.013  10.855  13.824
61937W        W30300   8.800  19.672  13.511
61938W        W30301  23.499   0.969  14.348
61939W        W30302  10.185  20.632   4.707
61940W        W30303  39.816  13.132  13.404
61941W        W30304  13.770   1.794  14.820
61942W        W30305  11.128   5.410  10.634
61943W        W30306  18.750  29.438  12.526
61944W        W30307  33.548   9.197   2.820
61945W        W30308   6.850  29.050   4.306
61946W        W30309   3.222   7.739  12.960
61947W        W30310   3.936  43.943  13.507
61948W        W30311   5.354  30.112  10.439
61949W        W30312  31.094  23.568   2.263
61950W        W30313  22.596  17.273   5.159
61951W        W30314  30.968  40.477   3.760
61952W        W30315   2.858  18.127   0.864
61953W        W30316  40.364  23.729   1.413
61954W        W30317  18.546   6.790  12.001
61955W        W30318   3.355  33.004   2.298
61956W        W30319   3.713  37.488   2.886
61957W        W30320  23.069  26.137   2.369
61958W        W30321   0.440   3.358  11.432
61959W        W30322   4.843  21.663   2.233
61960W        W30323  32.034  44.808  13.898
61961W        W30324   2.921  44.493  14.896
61962W        W30325   9.338  37.479  12.921
61963W        W30326  26.046  40.387   4.342
61964W        W30327  18.158  28.534  13.403
61965W        W30328  14.311  17.189  14.506
61966W        W30329   4.410   1.814  11.082
61967W        W30330  20.531  16.619   4.131
61968W        W30331  32.591  31.897   2.807
61969W        W30332  21.136  33.983  14.499
61970W        W30333  19.261  44.769   1.244
61971W        W30334  17.243  19.218  14.514
61972W        W30335  30.472   5.840  12.862
61973W        W30336  21.657   3.924  11.896
61974W        W30337  14.236   7.230  12.480
61975W        W30338  36.567  25.042   4.641
61976W        W30339   8.791  22.104  13.384
61977W        W30340  27.678  32.496   3.686
61978W        W30341  28.941   8.185  11.031
61979W        W30342  16.132  36.843   4.190
61980W        W30343  39.326  29.491   4.748
61981W        W30344  43.290   9.683  12.932
61982W        W30345  15.781   2.416   1.918
61983W        W30346  25.616  34.412   0.773
61984W        W30347  30.474  40.380  10.577
61985W        W30348  40.325  25.108  10.953
61986W        W30349  29.460  10.719  12.902
61987W        W30350  44.434   7.726  10.615
61988W        W30351  43.401  38.358   1.818
61989W        W30352  39.509  30.954  12.061
61990W        W30353  18.230  33.028  14.346
61991W        W30354  26.570  39.846  10.074
61992W        W30355  32.925  28.067  13.826
61993W        W30356  15.139  24.094  13.975
61994W        W30357  44.758  41.819  11.048
61995W        W30358   3.420  20.605   2.717
61996W        W30359  37.913  22.216  11.119
61997W        W30360   1.972  17.130   2.662
61998W        W30361  33.498  25.130   2.888
61999W        W30362   0.803  26.703  12.389
62000W        W30363  31.430  28.588   4.835
62001W        W30364  25.550  42.832  11.091
62002W        W30365  39.007  10.758  13.437
62003W        W30366   4.424   8.895   9.959
62004W        W30367   9.226  40.506  12.032
62005W        W30368  42.315   8.743  12.515
62006W        W30369   4.367   1.856   2.804
62007W        W30370   2.409  22.213   5.194
62008W        W30371  30.913   5.317   0.279
62009W        W30372  26.694  13.762  13.842
62010W        W30373  21.088  15.634  11.942
62011W        W30374  31.481  32.950  10.961
62012W        W30375  21.107   5.782  13.535
62013W        W30376   5.255  20.057  13.330
62014W        W30377  16.258  35.537  10.964
62015W        W30378  41.895  20.573  14.783
62016W        W30379  28.122  41.379  12.002
62017W        W30380  36.929  36.560   4.130
62018W        W30381  13.161  25.627  12.833
62019W        W30382  32.536  41.383  14.477
62020W        W30383  33.515  34.409   1.448
62021W        W30384  13.704  36.531  13.407
62022W        W30385   8.706  37.412  10.974
62023W        W30386  29.042   8.284  13.890
62024W        W30387  12.334  22.199  12.906
62025W        W30388  14.107  23.512   0.343
62026W        W30389  43.968  17.302  12.575
62027W        W30390   8.251  35.891  13.483
62028W        W30391  27.037  33.406   9.921
62029W        W30392   9.860  22.070   1.837
62030W        W30393  14.716  27.948  12.879
62031W        W30394  40.022  14.128  12.569
62032W        W30395  32.635  44.481  11.594
62033W        W30396  36.584  34.909   4.230
62034W        W30397   6.695   6.809  11.555
62035W        W30398  39.025  43.001  12.825
62036W        W30399  24.179  24.157  11.372
62037W        W30400  25.495  35.442  10.546
62038W        W30401  25.076  34.524   1.729
62039W        W30402  22.040  39.930  10.592
62040W        W30403  36.523  20.219   2.318
62041W        W30404   6.712  36.417  11.101
62042W        W30405  18.112   1.909  11.045
62043W        W30406  29.945   8.208   0.306
62044W        W30407  26.182  32.475  12.997
62045W        W30408  15.114   3.895  13.492
62046W        W30409  22.595   1.834   2.337
62047W        W30410   7.840  12.205   3.283
62048W        W30411  34.501  10.189   3.169
62049W        W30412   9.861  10.706  10.633
62050W        W30413   8.824  28.009   3.287
62051W        W30414  19.586  43.913   2.889
62052W        W30415  44.316  44.757   1.914
62053W        W30416   3.854  36.880  11.391
62054W        W30417  29.447  36.023  12.028
62055W        W30418  31.471  37.448  12.907
62056W        W30419  10.702  10.733   1.356
62057W        W30420  11.295  21.697   0.894
62058W        W30421  12.326   4.390  14.805
62059W        W30422  32.909   1.782  12.528
62060W        W30423  43.998  13.681  14.338
62061W        W30424  24.524  12.304   2.366
62062W        W30425  11.693   9.650  14.507
62063W        W30426  21.549  15.606  10.113
62064W        W30427   6.888  17.248  12.404
62065W        W30428  12.789  22.612  12.848
62066W        W30429  30.572  14.795   0.383
62067W        W30430  27.529  15.302  13.797
62068W        W30431  39.890  34.883  13.437
62069W        W30432  20.228  21.648   4.186
62070W        W30433   4.324  16.794   3.260
62071W        W30434  40.047  21.051   1.421
62072W        W30435   0.481  35.053  14.945
62073W        W30436  31.974  23.234  14.938
62074W        W30437   9.888  10.230   0.445
62075W        W30438  16.793   9.798  12.480
62076W        W30439   2.843  13.279   4.720
62077W        W30440  32.470  23.655   2.703
62078W        W30441   1.246  33.597  10.605
62079W        W30442  31.470  22.536   1.736
62080W        W30443  13.829  18.681   4.190
62081W        W30444  32.575   8.710  11.097
62082W        W30445  37.348  25.012   1.802
62083W        W30446   8.810   0.315   2.182
62084W        W30447  37.410  34.042  11.914
62085W        W30448  16.165  24.508   0.820
62086W        W30449  10.228  26.622   0.364
62087W        W30450  22.020  25.533   3.361
62088W        W30451  29.525   4.722   2.294
62089W        W30452   3.413  27.528  11.920
62090W        W30453  12.640  43.772  13.023
62091W        W30454  11.854   7.674   5.265
62092W        W30455  35.982   7.367  11.468
62093W        W30456  41.339  20.069   4.159
62094W        W30457  42.352  11.173  10.425
62095W        W30458  22.215  18.269   4.626
62096W        W30459  24.714  10.145  12.890
62097W        W30460   3.734  40.996  12.850
62098W        W30461  32.111  18.774  10.545
62099W        W30462  16.643   2.250  11.042
62100W        W30463  29.089  34.464   1.867
62101W        W30464  10.854  22.591  13.969
62102W        W30465  31.460   1.858   1.763
62103W        W30466   1.865  39.383  11.990
62104W        W30467  44.313  29.542   0.820
62105W        W30468  36.452   8.688  11.928
62106W        W30469  43.337  40.048  11.938
62107W        W30470  14.130  35.986   4.245
62108W        W30471   5.357  39.400   2.843
62109W        W30472   0.797  34.024  11.565
62110W        W30473  35.453   5.894   4.153
62111W        W30474   7.277  16.222   3.650
62112W        W30475   7.792  42.996  14.287
62113W        W30476   0.296   8.221  13.861
62114W        W30477  43.892  17.780   2.836
62115W        W30478  41.786  16.735   1.440
62116W        W30479  16.287  25.571  11.585
62117W        W30480  14.136  25.622  14.839
62118W        W30481   9.209  33.534   2.336
62119W        W30482  34.600  19.778  14.378
62120W        W30483  38.018   0.372  11.372
62121W        W30484   7.811  21.686  12.838
62122W        W30485  37.569  39.532   2.338
62123W        W30486  17.684   1.273   1.905
62124W        W30487  18.765   9.313   2.678
62125W        W30488   4.729  25.987  14.372
62126W        W30489   8.250   5.301   1.706
62127W        W30490  37.356   4.213   2.337
62128W        W30491  14.824  12.650   9.976
62129W        W30492   3.767   0.753   2.312
62130W        W30493  32.500  31.552   1.898
62131W        W30494  14.616  29.978   0.259
62132W        W30495  21.017  28.007  11.098
62133W        W30496  42.472  11.629  11.475
62134W        W30497  44.442  36.393   4.173
62135W        W30498   2.759  27.945  12.535
62136W        W30499   1.254  37.877  11.025
62137W        W30500  22.202  11.841   2.697
62138W        W30501  42.446  12.771  14.913
62139W        W30502  10.833  25.099  13.455
62140W        W30503  35.565  33.446  14.905
62141W        W30504  29.499  30.045   1.377
62142W        W30505  25.048   4.288  11.107
62143W        W30506  39.815   4.237   2.239
62144W        W30507  11.777  34.921   3.366
62145W        W30508  24.600   0.433  10.544
62146W        W30509  16.312  20.267  14.301
62147W        W30510  31.434   9.210  12.378
62148W        W30511  15.306  29.066  14.846
62149W        W30512   6.747  30.609  10.426
62150W        W30513  11.272  28.608  11.508
62151W        W30514  27.630  16.770   1.437
62152W        W30515  21.033  37.978  10.493
62153W        W30516  23.553  17.088  11.599
62154W        W30517  39.945  13.689  11.437
62155W        W30518  30.575  39.019  12.423
62156W        W30519  36.584  17.788  11.067
62157W        W30520   3.452  22.088   9.564
62158W        W30521  24.569  21.602  13.845
62159W        W30522  41.358  26.157  13.435
62160W        W30523  23.165  37.338   3.819
62161W        W30524  23.553  12.696  11.982
62162W        W30525  14.653  25.154   0.298
62163W        W30526  42.962  14.590   3.228
62164W        W30527  34.045  23.155  11.570
62165W        W30528  30.480  43.507   2.792
62166W        W30529  34.566  19.623  11.594
62167W        W30530  15.720  30.135  10.629
62168W        W30531  11.759  30.635  12.430
62169W        W30532  12.322  11.778  14.853
62170W        W30533  29.030  21.211   2.181
62171W        W30534  38.478  31.535  10.580
62172W        W30535  26.049  30.474   1.839
62173W        W30536  37.459  12.210  12.438
62174W        W30537  40.542  40.030  11.100
62175W        W30538  11.714  25.194   5.194
62176W        W30539  30.636  32.541  12.399
62177W        W30540  13.810  24.200   2.234
62178W        W30541  10.341  14.329  13.465
62179W        W30542   9.644  11.744   1.892
62180W        W30543  31.995   7.825  12.396
62181W        W30544  18.714  43.957   2.740
62182W        W30545   7.292  25.521  13.423
62183W        W30546  40.484  44.975  13.826
62184W        W30547  16.748  44.871   1.268
62185W        W30548  25.055  37.509   3.236
62186W        W30549  35.452  42.891   3.703
62187W        W30550  24.085  32.603  12.942
62188W        W30551  18.635  31.633   2.254
62189W        W30552  42.024  40.529   4.830
62190W        W30553   6.428   8.749   2.852
62191W        W30554  40.441  24.666  13.805
62192W        W30555  37.533  33.510   2.362
62193W        W30556   7.370   3.822   4.806
62194W        W30557   9.752  35.997   0.960
62195W        W30558  34.459  32.902  13.950
62196W        W30559  18.588  31.621  13.986
62197W        W30560  16.641  40.940  14.018
62198W        W30561  38.981   1.374  10.894
62199W        W30562  39.470   8.275   2.828
62200W        W30563  16.680  32.092  12.881
62201W        W30564   8.206  24.626  14.374
62202W        W30565  11.143  20.108  12.391
62203W        W30566  21.155  15.679   3.349
62204W        W30567  11.709  21.529   4.284
62205W        W30568  20.238  33.387   1.343
62206W        W30569  42.356  12.170   4.718
62207W        W30570   4.699  14.194   0.868
62208W        W30571  17.250  18.617   4.787
62209W        W30572  32.893  39.838   3.212
62210W        W30573   1.294  39.451  11.922
62211W        W30574  13.300   8.722   2.758
62212W        W30575  37.961  43.414  11.023
62213W        W30576  36.431  38.916   1.433
62214W        W30577  37.561  19.162  12.976
62215W        W30578  41.974  15.208   1.413
62216W        W30579   0.857  32.049  12.095
62217W        W30580   2.837  36.495   0.871
62218W        W30581  17.701   7.693  10.489
62219W        W30582  25.188  28.095  12.575
62220W        W30583  41.347   6.236  12.909
62221W        W30584  13.814  11.330  13.944
62222W        W30585  25.117  29.945  10.441
62223W        W30586  30.105  36.441  11.457
62224W        W30587   0.379   4.809   1.818
62225W        W30588  20.554  28.065  14.806
62226W        W30589   6.895  29.052  10.462
62227W        W30590  44.363  37.860  13.420
62228W        W30591  30.910  41.442  14.978
62229W        W30592  20.150  22.093   3.341
62230W        W30593  40.022  25.470  14.800
62231W        W30594  18.212  33.904   2.362
62232W        W30595   1.962  43.493   2.322
62233W        W30596   2.854  42.450  14.759
62234W        W30597  29.655   8.788  11.510
62235W        W30598   4.247   4.252   3.234
62236W        W30599  17.190  36.544   3.656
62237W        W30600  37.521  42.344  11.062
62238W        W30601   2.411   2.297  14.431
62239W        W30602  11.163  21.522  14.804
62240W        W30603   3.447  22.727   0.354
62241W        W30604   5.310   0.321  10.610
62242W        W30605  20.089  39.011   0.481
62243W        W30606  13.812  14.260   2.847
62244W        W30607   0.875  31.936  14.385
62245W        W30608  15.672  35.558   1.914
62246W        W30609   4.303   8.386  13.832
62247W        W30610  44.934  17.721  13.474
62248W        W30611  12.338  33.963  11.979
62249W        W30612  15.653  37.056  12.056
62250W        W30613  10.182   9.189   0.401
62251W        W30614  41.485   8.199  14.939
62252W        W30615  31.143   6.380  12.540
62253W        W30616  14.326  30.560   0.770
62254W        W30617   4.890   0.309   4.827
62255W        W30618  30.568  32.113  11.456
62256W        W30619  30.545  39.535   0.270
62257W        W30620  39.350   5.690   3.680
62258W        W30621  20.069  11.766  13.991
62259W        W30622  21.627  30.975  12.083
62260W        W30623   1.762  29.976   0.341
62261W        W30624  44.799  29.081   2.764
62262W        W30625  24.561  25.012   0.822
62263W        W30626  41.473  41.838  13.020
62264W        W30627  15.209  16.312  13.393
62265W        W30628  15.743  16.746   1.801
62266W        W30629  10.635  13.105   3.752
62267W        W30630  33.571  24.643  11.396
62268W        W30631  15.579  17.183  12.862
62269W        W30632  23.557  11.699  11.083
62270W        W30633  15.606  15.211  11.084
62271W        W30634  18.685  41.515  13.442
62272W        W30635  22.193  31.970   1.695
62273W        W30636  10.261   6.808   0.727
62274W        W30637  37.437  41.828  12.373
62275W        W30638   7.858   5.291   2.860
62276W        W30639  42.342  32.545   0.303
62277W        W30640  25.594  35.517  13.469
62278W        W30641   0.892  22.519   1.422
62279W        W30642   2.425   9.265  13.800
62280W        W30643  23.229  19.677  11.993
62281W        W30644  36.884  33.427   4.274
62282W        W30645   0.856  12.152  12.459
62283W        W30646   1.388  10.184  14.780
62284W        W30647  13.239  34.922   1.397
62285W        W30648  14.179  30.100  13.925
62286W        W30649  18.598   8.724   4.140
62287W        W30650   7.193  14.645  11.109
62288W        W30651  37.963  12.817   3.193
62289W        W30652  12.231  42.513   2.751
62290W        W30653  11.245  25.621   0.327
62291W        W30654  36.360  42.780  10.058
62292W        W30655  23.224  29.038   2.369
62293W        W30656  10.717   4.322   1.897
62294W        W30657   5.427  44.928   0.948
62295W        W30658  32.392  36.466  10.483
62296W        W30659  30.985  11.812   3.855
62297W        W30660  26.101   2.853  13.306
62298W        W30661   7.324  28.676  12.854
62299W        W30662  11.147  11.863   0.430
62300W        W30663  34.460  38.419   4.143
62301W        W30664  27.445   1.466  13.851
62302W        W30665  39.528  12.832  14.891
62303W        W30666  38.539  21.114   3.715
62304W        W30667  24.550  34.974  14.444
62305W        W30668  14.757  23.127  14.903
62306W        W30669  22.223   5.770  13.422
62307W        W30670   0.353  41.021  12.036
62308W        W30671  10.846  29.448  11.438
62309W        W30672   2.964  13.124   2.809
62310W        W30673   9.207   9.318   0.451
62311W        W30674   0.373  13.351  13.335
62312W        W30675  22.573  14.665   1.778
62313W        W30676  37.560   3.321   2.333
62314W        W30677   4.446   5.197   0.372
62315W        W30678  20.623  41.947   3.860
62316W        W30679   1.272   2.269   4.280
62317W        W30680  26.094  14.686   1.880
62318W        W30681  21.703  27.964   3.859
62319W        W30682  40.982  10.769  14.807
62320W        W30683  24.487  41.039  12.544
62321W        W30684   7.248  19.538   3.737
62322W        W30685  29.114  21.725  14.918
62323W        W30686  24.649  25.090   0.255
62324W        W30687   8.854   4.306  10.512
62325W        W30688  37.534  27.533   2.839
62326W        W30689  34.556   0.742   3.748
62327W        W30690  39.530  31.042   1.725
62328W        W30691  26.999  10.836   2.720
62329W        W30692  44.949  10.160  12.008
62330W        W30693  24.043  20.247   2.877
62331W        W30694  34.118  25.118   2.231
62332W        W30695   8.251  10.355   1.376
62333W        W30696  23.521  33.056  13.439
62334W        W30697  37.579   2.453   2.391
62335W        W30698  32.055  33.087   4.159
62336W        W30699  18.146  13.129  14.006
62337W        W30700  10.167   8.394   0.913
62338W        W30701  30.958  35.858  12.390
62339W        W30702  18.173  39.462   3.671
62340W        W30703   5.897   7.791   1.877
62341W        W30704  32.986  12.175  13.866
62342W        W30705  20.187  39.834  11.954
62343W        W30706  39.906  11.763  10.507
62344W        W30707  14.717  23.069   2.301
62345W        W30708  36.037   3.859   0.924
62346W        W30709  24.575   2.898   1.398
62347W        W30710   0.806  43.492   3.261
62348W        W30711  26.669  20.749  13.534
62349W        W30712   7.294   3.744  12.483
62350W        W30713  32.955  42.481  11.951
62351W        W30714  25.671  23.640  10.975
62352W        W30715  16.150  16.205  13.347
62353W        W30716  33.537  31.932  11.069
62354W        W30717  30.600  10.842  13.949
62355W        W30718  40.487   9.779  14.460
62356W        W30719   9.204  17.629   1.385
62357W        W30720  22.733  17.224  14.372
62358W        W30721  26.095  33.562  10.975
62359W        W30722  44.947   8.848  14.988
62360W        W30723  31.951  18.676   2.210
62361W        W30724  39.883  27.489  14.357
62362W        W30725  23.022  36.546  12.372
62363W        W30726  39.826  38.929   2.824
62364W        W30727  12.290  42.435  12.063
62365W        W30728   6.858  26.626   4.316
62366W        W30729  33.989   0.933  12.340
62367W        W30730  40.351  31.553   2.859
62368W        W30731  29.996   8.397  12.366
62369W        W30732  41.844  33.592   0.908
62370W        W30733  31.110  14.592   3.232
62371W        W30734  15.101  24.688   1.735
62372W        W30735  36.019  35.500  12.469
62373W        W30736   5.289  44.901   0.326
62374W        W30737  20.608  25.133  13.414
62375W        W30738   9.833  28.047  11.918
62376W        W30739  23.522  27.597   4.765
62377W        W30740   5.831   8.717   1.909
62378W        W30741   1.897  24.510  12.490
62379W        W30742  29.984  39.868   4.145
62380W        W30743  33.073  17.281  14.323
62381W        W30744  20.046   9.805  13.465
62382W        W30745  32.462  20.207   3.634
62383W        W30746  19.057   7.343   3.758
62384W        W30747  35.088  22.042  11.097
62385W        W30748   2.326   6.209  14.024
62386W        W30749  18.138  40.328  13.447
62387W        W30750  32.988  16.568   1.393
62388W        W30751  20.144  11.788  11.408
62389W        W30752   6.859   7.263  13.514
62390W        W30753  36.843  14.830   4.766
62391W        W30754   3.389  37.500   5.252
62392W        W30755  14.607  10.828   0.948
62393W        W30756  14.114   4.292  14.285
62394W        W30757  22.528  11.183   4.164
62395W        W30758  32.535  27.552   4.274
62396W        W30759  19.220  44.948   1.736
62397W        W30760   3.290  15.143  10.908
62398W        W30761  31.129  28.100   3.768
62399W        W30762  37.577   1.252  13.858
62400W        W30763  28.665  12.131  12.828
62401W        W30764  21.099   6.354  13.888
62402W        W30765  40.484  16.228  14.847
62403W        W30766  26.960  39.020   1.815
62404W        W30767  33.412  24.154  14.913
62405W        W30768  35.987   2.797   0.439
62406W        W30769  37.464  40.012  12.900
62407W        W30770  44.907   5.880   3.326
62408W        W30771   8.897   8.212  11.891
62409W        W30772   6.715  29.962  11.494
62410W        W30773  40.048  19.545   1.317
62411W        W30774  14.274   2.749  13.859
62412W        W30775  18.053  34.866   4.693
62413W        W30776   3.288  43.439   4.227
62414W        W30777  13.151  26.092  13.905
62415W        W30778   9.856  36.073   3.340
62416W        W30779   3.249   9.849   0.386
62417W        W30780  10.813   3.772  11.918
62418W        W30781  42.380  36.946  11.056
62419W        W30782  38.508  43.377   0.249
62420W        W30783  20.052  24.644   0.245
62421W        W30784  35.930  22.159  11.607
62422W        W30785  13.307  21.253  13.912
62423W        W30786  33.982  20.202   0.309
62424W        W30787  15.765  21.673   0.325
62425W        W30788  35.038  41.891   3.373
62426W        W30789  18.095  16.659  11.438
62427W        W30790  33.045  44.798  11.044
62428W        W30791  17.126  13.237   4.678
62429W        W30792  12.681  20.637   4.765
62430W        W30793  39.875  16.233   3.226
62431W        W30794   4.799  20.673   0.289
62432W        W30795  35.896   4.265  10.551
62433W        W30796  17.254   6.736   1.739
62434W        W30797   3.771  29.955   3.667
62435W        W30798   9.299  14.223  11.544
62436W        W30799  32.589  10.284   3.309
62437W        W30800  31.975  32.086  10.999
62438W        W30801  43.505  13.796  11.961
62439W        W30802  24.602  41.329  14.900
62440W        W30803  16.757  31.927   2.183
62441W        W30804  27.559  34.615  12.909
62442W        W30805  23.625   8.327   1.273
62443W        W30806  10.772  34.596  13.953
62444W        W30807   6.812  29.138  14.974
62445W        W30808   3.923   5.213  12.449
62446W        W30809   7.291  41.865  11.088
62447W        W30810  19.540  41.956  14.490
62448W        W30811   6.698   7.256   1.794
62449W        W30812  18.243  43.817   9.667
62450W        W30813  37.891  29.524   4.192
62451W        W30814  20.533  40.989   0.411
62452W        W30815  19.647  40.882   0.752
62453W        W30816  27.987  36.960   2.744
62454W        W30817   4.838  42.965   0.742
62455W        W30818  41.491  22.643  14.398
62456W        W30819  21.591  43.839   2.318
62457W        W30820  10.790  13.696  11.557
62458W        W30821   0.900   5.784  13.414
62459W        W30822  27.505  30.644  14.471
62460W        W30823   8.384  27.047   4.644
62461W        W30824   1.445  35.542  12.949
62462W        W30825  29.645  37.407   2.759
62463W        W30826  21.126  34.395   4.293
62464W        W30827  40.811  19.768  12.078
62465W        W30828  30.525  43.384  12.038
62466W        W30829  25.048  11.842  11.862
62467W        W30830  43.785  37.885  10.520
62468W        W30831  24.141  18.662  10.599
62469W        W30832   8.745  21.110  11.912
62470W        W30833  15.587  22.160   1.857
62471W        W30834  30.543  23.212   3.177
62472W        W30835   7.347   5.332  13.543
62473W        W30836  28.455  17.234  10.034
62474W        W30837  37.951  26.589  11.481
62475W        W30838  43.958   9.246  12.060
62476W        W30839  16.275  41.345  12.521
62477W        W30840  32.398   0.337   3.295
62478W        W30841  10.702  13.259   2.893
62479W        W30842  29.170  21.068   1.367
62480W        W30843   2.905  24.081   3.811
62481W        W30844  10.173  16.710  10.890
62482W        W30845  30.448  25.972   0.457
62483W        W30846  26.026  11.253  10.636
62484W        W30847  10.317  19.610  14.460
62485W        W30848  36.543  37.882   1.703
62486W        W30849  35.515   0.940  10.619
62487W        W30850   3.300   2.245   3.267
62488W        W30851  19.053  11.233  14.813
62489W        W30852  38.832  22.664   1.777
62490W        W30853  32.022  15.606  12.564
62491W        W30854  27.687  30.105   3.766
62492W        W30855  43.795   6.854   4.692
62493W        W30856   0.282  32.123   2.179
62494W        W30857  38.450  37.405  10.423
62495W        W30858  10.307  24.554  14.462
62496W        W30859  15.676   7.351  13.412
62497W        W30860  24.632  24.148  12.910
62498W        W30861  29.617  41.294  10.088
62499W        W30862   4.261   5.920   4.220
62500W        W30863  19.711  18.589  10.982
62501W        W30864  18.758  14.121   0.430
62502W        W30865   5.726  14.634   1.364
62503W        W30866  24.128   8.841   1.420
62504W        W30867   8.889  23.175   4.236
62505W        W30868  16.598  33.936  12.913
62506W        W30869  32.542  39.314   1.810
62507W        W30870  33.033  25.673   4.707
62508W        W30871   7.779   7.340  10.584
62509W        W30872   7.195  22.721  10.634
62510W        W30873  42.320  13.211  11.861
62511W        W30874  33.951  35.431   4.655
62512W        W30875  14.210   1.300   1.816
62513W        W30876  40.925  15.789  13.960
62514W        W30877  36.000  41.360  11.529
62515W        W30878  21.133  12.152  10.550
62516W        W30879  16.262  30.630  11.504
62517W        W30880  35.853  31.043  10.425
62518W        W30881  13.846  38.887  12.014
62519W        W30882  18.693  22.166   0.864
62520W        W30883  35.598   9.210   4.694
62521W        W30884  34.385  29.161   4.218
62522W        W30885   8.210  30.091  14.336
62523W        W30886  14.136  29.452   1.720
62524W        W30887   9.694  18.215  10.979
62525W        W30888  43.398  23.701   4.115
62526W        W30889  16.751  10.669  12.510
62527W        W30890  30.591   9.334   2.311
62528W        W30891  29.596   1.937   0.957
62529W        W30892   0.416  33.101   1.386
62530W        W30893  16.727  35.987   0.810
62531W        W30894   6.682  17.307  14.464
62532W        W30895  11.732  23.161  13.987
62533W        W30896  35.930  40.956  14.804
62534W        W30897  17.127   4.743  13.979
62535W        W30898   1.882  17.698   4.221
62536W        W30899  16.759  43.788   3.642
62537W        W30900  30.517  35.018   0.780
62538W        W30901  16.080  21.033   0.761
62539W        W30902   1.388  14.619  14.812
62540W        W30903  30.005  22.537  12.036
62541W        W30904  18.269   9.288   2.297
62542W        W30905  36.378  40.462   2.885
62543W        W30906  27.146   9.685   0.348
62544W        W30907   1.822  43.993   5.198
62545W        W30908  44.926  41.460  14.956
62546W        W30909   8.780  18.058   4.836
62547W        W30910  16.630   8.780  10.539
62548W        W30911  15.780   8.350   2.415
62549W        W30912  11.300  23.732  13.061
62550W        W30913  26.694   7.865   0.397
62551W        W30914  29.451  30.474  12.570
62552W        W30915  38.387  38.462  12.033
62553W        W30916  35.492   6.681   4.154
62554W        W30917   5.865  43.859   1.312
62555W        W30918  34.026  44.361   1.818
62556W        W30919  25.560   1.248   0.384
62557W        W30920  16.686  31.521   1.792
62558W        W30921  44.787  32.019   0.950
62559W        W30922  44.860  38.466  12.404
62560W        W30923  25.656  37.397   1.803
62561W        W30924  11.212  11.784  13.354
62562W        W30925  25.479  14.590   2.806
62563W        W30926  36.583  36.951   2.387
62564W        W30927  26.024  35.001   2.181
62565W        W30928  31.935  15.603   3.348
62566W        W30929   9.306  37.538   2.296
62567W        W30930  21.140  28.489   3.288
62568W        W30931  27.610  35.967  12.883
62569W        W30932  31.596  31.076   9.604
62570W        W30933  44.404  20.721  10.539
62571W        W30934  30.608   1.760  14.889
62572W        W30935  36.846  34.465  13.354
62573W        W30936  16.211   3.408  10.890
62574W        W30937   7.839   5.847   4.155
62575W        W30938   9.254  41.867   1.810
62576W        W30939   5.278  17.111  12.350
62577W        W30940   9.725  18.150  12.361
62578W        W30941  30.090  12.818  12.966
62579W        W30942  30.437  15.150   0.885
62580W        W30943   9.828  30.960  10.907
62581W        W30944  22.086  30.634  14.896
62582W        W30945  30.009  23.601   2.410
62583W        W30946   2.940   6.191  14.423
62584W        W30947  12.220  32.089  14.478
62585W        W30948  44.315   2.750   3.636
62586W        W30949  11.673  19.071   0.768
62587W        W30950  20.671   1.760   3.182
62588W        W30951  29.461  11.200   1.337
62589W        W30952  35.904  39.964  11.100
62590W        W30953  15.636  24.627   2.203
62591W        W30954   5.787  15.319   4.298
62592W        W30955  32.480  41.352   4.342
62593W        W30956  20.107  16.274  12.825
62594W        W30957  35.095  15.676   3.250
62595W        W30958  22.673  37.959   1.434
62596W        W30959  39.349   8.762   0.389
62597W        W30960   0.946   4.254  10.982
62598W        W30961  41.896  14.227   1.893
62599W        W30962   5.896   1.269  11.547
62600W        W30963  23.642   9.833   2.356
62601W        W30964  37.020  32.626   4.653
62602W        W30965   3.395  36.494  12.874
62603W        W30966  36.873  20.540   2.296
62604W        W30967  36.366  28.990   1.876
62605W        W30968  19.641  40.431  10.548
62606W        W30969  26.058   5.326  13.994
62607W        W30970  30.919  44.495  14.898
62608W        W30971  27.459  18.180   3.334
62609W        W30972  38.045   7.193   1.280
62610W        W30973  19.727  32.033   0.258
62611W        W30974  31.034  10.697  10.427
62612W        W30975   4.381  31.039   0.878
62613W        W30976  38.527  28.984  14.936
62614W        W30977   4.763  28.498  13.459
62615W        W30978  24.605  41.476   3.633
62616W        W30979  22.087  17.695  12.026
62617W        W30980  40.526  39.885   3.655
62618W        W30981   4.382   4.268  10.919
62619W        W30982  28.067  24.982   5.108
62620W        W30983  25.155  12.211  13.867
62621W        W30984   1.462  15.729   4.696
62622W        W30985   6.850  10.701   3.678
62623W        W30986  38.497  39.012   3.200
62624W        W30987  42.374  28.591  13.506
62625W        W30988  42.305  39.341  13.345
62626W        W30989  13.605  15.143   4.714
62627W        W30990  35.072  19.090  14.443
62628W        W30991  17.655  42.779   3.204
62629W        W30992  43.014  11.205  14.942
62630W        W30993  14.739   0.913   1.298
62631W        W30994  26.679  43.424  11.608
62632W        W30995  24.182   3.710   4.168
62633W        W30996  27.561  44.304  11.440
62634W        W30997  22.512  43.506  14.379
62635W        W30998   9.760  28.164   2.664
62636W        W30999  30.498   1.392   1.794
62637W        W31000  40.914  44.490   0.441
62638W        W31001  10.738   1.810  13.945
62639W        W31002  11.657  36.975  11.066
62640W        W31003  44.347   2.388  14.440
62641W        W31004  14.593  42.407  13.006
62642W        W31005  30.082  24.230   0.341
62643W        W31006  34.445   1.783   3.269
62644W        W31007  15.718   9.342  11.411
62645W        W31008  11.840  33.604   2.315
62646W        W31009  15.219  36.024   3.285
62647W        W31010  40.514  13.774   4.269
62648W        W31011   4.445  38.379  13.523
62649W        W31012   2.256  25.654   3.726
62650W        W31013   3.236  37.038  12.541
62651W        W31014   9.710  17.080  13.875
62652W        W31015  10.735   3.822   1.237
62653W        W31016  42.329  34.927  14.339
62654W        W31017  35.886  29.169   4.633
62655W        W31018  20.608  22.136  10.969
62656W        W31019  34.550  35.569  13.955
62657W        W31020   5.398  22.113   4.302
62658W        W31021   5.399  38.361  14.834
62659W        W31022  42.004   7.235   4.299
62660W        W31023  41.968  17.648  12.535
62661W        W31024   3.291  27.087   4.329
62662W        W31025  22.563   1.756  10.136
62663W        W31026  43.806   8.381   1.308
62664W        W31027   0.396  44.433  13.418
62665W        W31028  38.524  34.939  13.397
62666W        W31029  21.711  33.901  13.005
62667W        W31030   2.255  38.333   0.274
62668W        W31031  28.603  27.622  13.544
62669W        W31032  22.617  26.118  12.902
62670W        W31033   0.458  40.961   0.407
62671W        W31034  36.497   5.888   2.333
62672W        W31035  15.240  36.542   2.287
62673W        W31036  12.725  24.037   3.744
62674W        W31037  23.181  37.338  11.964
62675W        W31038  15.107  20.713  11.517
62676W        W31039  12.354  44.363   3.178
62677W        W31040  42.779  21.180  11.108
62678W        W31041  17.128  19.651  12.982
62679W        W31042  24.229  28.102   4.790
62680W        W31043  37.442  29.631   4.663
62681W        W31044  19.642  23.235   2.285
62682W        W31045   1.837  13.705   3.827
62683W        W31046  19.578  23.018  14.802
62684W        W31047  23.117   2.833   2.184
62685W        W31048  32.539  18.636  13.459
62686W        W31049  10.786  29.968   4.144
62687W        W31050  21.720  17.304  12.880
62688W        W31051  24.503  11.643   0.772
62689W        W31052  23.713  33.987  11.085
62690W        W31053  19.706  24.112   4.323
62691W        W31054  30.636  27.559   5.657
62692W        W31055   8.340  32.607  12.374
62693W        W31056   3.363  27.170   2.283
62694W        W31057  14.261  37.866   4.209
62695W        W31058   6.361  34.511  12.999
62696W        W31059  32.616   1.293  10.888
62697W        W31060   6.678  44.882  10.454
62698W        W31061  19.284   0.746  14.293
62699W        W31062  22.110   1.348  11.440
62700W        W31063  31.560  15.126   3.799
62701W        W31064   1.455  16.125   4.172
62702W        W31065  20.618  19.096   1.406
62703W        W31066  32.054  30.442  12.476
62704W        W31067  15.735  26.596  10.574
62705W        W31068  23.513  17.596  11.577
62706W        W31069  15.278  41.430   0.857
62707W        W31070  26.053   4.413   3.313
62708W        W31071   8.796  18.785   5.119
62709W        W31072  28.063  27.165   0.353
62710W        W31073   9.792  10.716   4.167
62711W        W31074  30.499  21.543  14.894
62712W        W31075  10.331  24.589   2.903
62713W        W31076  28.110  24.647  13.837
62714W        W31077  25.161  10.868   2.412
62715W        W31078   1.429  12.715  12.542
62716W        W31079  10.216  40.900   4.814
62717W        W31080  33.114  37.375   2.373
62718W        W31081   1.832  35.368   1.697
62719W        W31082  43.831  18.101   2.820
62720W        W31083  30.528  15.272  12.866
62721W        W31084  11.773  39.948  14.483
62722W        W31085  30.080   8.864  13.950
62723W        W31086  26.984  39.371  12.530
62724W        W31087   5.850  37.833  14.403
62725W        W31088  32.125  15.200  12.424
62726W        W31089  29.661  17.228   3.152
62727W        W31090   3.751  25.142   1.919
62728W        W31091  17.764  44.383  14.451
62729W        W31092   8.792  10.244  10.410
62730W        W31093   2.443  14.693  14.310
62731W        W31094   7.282  43.375   4.829
62732W        W31095  21.615   3.821   1.313
62733W        W31096   8.277  21.733  12.530
62734W        W31097  23.708   7.378   1.247
62735W        W31098  17.282  19.140   0.473
62736W        W31099  37.830  13.602   4.616
62737W        W31100  18.112  28.041  14.867
62738W        W31101   5.428  34.072   3.174
62739W        W31102  38.829   5.292   3.820
62740W        W31103  27.056  43.873   2.738
62741W        W31104  11.793  39.325  13.315
62742W        W31105  12.770   3.433  12.454
62743W        W31106  16.227  23.636  14.491
62744W        W31107  29.481  17.656  10.915
62745W        W31108  22.658  22.211  10.097
62746W        W31109  42.009  10.715  10.415
62747W        W31110  12.689   6.354  12.507
62748W        W31111  43.934   1.400  13.423
62749W        W31112  22.023   0.863  13.330
62750W        W31113  44.279  41.895  11.972
62751W        W31114   2.294   1.894   0.775
62752W        W31115  10.378  21.528   0.828
62753W        W31116   7.227  25.514  10.982
62754W        W31117  17.606  18.650   1.891
62755W        W31118  15.285  14.269   2.222
62756W        W31119  38.933   2.260  10.629
62757W        W31120  28.086  28.079  12.950
62758W        W31121   3.842  12.233  14.770
62759W        W31122  14.177  28.106  14.296
62760W        W31123   6.809  20.072  11.419
62761W        W31124  11.631  39.863  12.030
62762W        W31125  16.624  41.889  11.974
62763W        W31126  18.703   6.354   5.222
62764W        W31127  43.866   0.861  10.926
62765W        W31128  33.451   7.239   1.321
62766W        W31129  21.174  21.708  14.344
62767W        W31130   8.245  20.050  14.817
62768W        W31131  16.255  37.961   3.690
62769W        W31132  18.774  26.957  11.462
62770W        W31133  24.195   1.473  14.360
62771W        W31134   3.274  11.712   4.737
62772W        W31135   9.210  11.739  12.482
62773W        W31136   4.750  34.100  14.830
62774W        W31137  21.036  30.004   5.265
62775W        W31138   3.754  11.669   0.827
62776W        W31139  44.387   1.260  12.569
62777W        W31140  11.656   8.804  12.987
62778W        W31141  31.642   0.987   2.716
62779W        W31142   9.372   8.230  10.957
62780W        W31143  32.460  20.242   3.311
62781W        W31144   3.274  10.178  11.584
62782W        W31145  41.994   9.886   3.305
62783W        W31146   9.274  37.561   3.739
62784W        W31147  25.468  43.339   1.728
62785W        W31148   3.239  24.030   2.897
62786W        W31149  16.147  19.775  10.957
62787W        W31150  37.032  20.557  12.433
62788W        W31151  35.541  42.468  13.422
62789W        W31152   0.260   2.732   2.371
62790W        W31153  37.065  11.213   5.084
62791W        W31154   1.247  13.636  14.871
62792W        W31155  24.054  40.497  12.529
62793W        W31156  26.110  15.695   5.217
62794W        W31157  21.198  29.632  13.959
62795W        W31158  38.020  17.637  14.335
62796W        W31159  26.466  41.931   4.172
62797W        W31160   3.808   9.351   4.656
62798W        W31161  11.813  39.918   0.880
62799W        W31162   1.819  11.735  11.491
62800W        W31163   9.869  12.820   1.333
62801W        W31164  21.064  35.044  11.029
62802W        W31165   7.767  15.110   4.632
62803W        W31166  41.391  35.916   3.234
62804W        W31167  10.226  42.429  12.566
62805W        W31168  25.694   6.210   4.773
62806W        W31169  41.443   0.766   3.693
62807W        W31170   7.354   1.428  13.978
62808W        W31171  41.379   8.876  11.977
62809W        W31172  36.374  33.565  12.065
62810W        W31173  10.866  29.530   2.322
62811W        W31174  21.244   7.815   4.263
62812W        W31175  37.439  25.623  10.977
62813W        W31176  13.671   5.773   3.645
62814W        W31177  44.305  33.113  11.387
62815W        W31178  29.023  36.937  11.056
62816W        W31179  36.466  23.710   4.692
62817W        W31180  27.679  26.073  14.879
62818W        W31181  19.119   2.735  11.061
62819W        W31182  42.436  34.524   3.380
62820W        W31183   7.317  36.415   2.773
62821W        W31184   9.261  10.182   1.856
62822W        W31185  12.338  20.657  11.547
62823W        W31186  25.547  31.039  14.994
62824W        W31187  12.685  18.582   4.165
62825W        W31188   0.938  29.539  11.027
62826W        W31189  32.912  10.205   4.739
62827W        W31190  35.485  39.330   0.889
62828W        W31191   8.893  21.702  12.095
62829W        W31192   6.838  21.533   4.768
62830W        W31193   6.218  11.357   0.783
62831W        W31194  38.473   2.815   1.295
62832W        W31195  17.640  19.733  11.509
62833W        W31196   0.891  26.591   0.325
62834W        W31197  12.688  31.489   0.829
62835W        W31198  14.604  38.044  10.525
62836W        W31199  16.804   9.352  10.556
62837W        W31200  11.812  20.222  13.944
62838W        W31201  10.290   0.897  12.567
62839W        W31202  21.537  10.781  12.968
62840W        W31203   5.807   2.363   1.413
62841W        W31204  21.696  40.466   1.277
62842W        W31205  34.482   2.864   4.759
62843W        W31206  30.412  23.615  12.426
62844W        W31207   4.887  14.701  13.974
62845W        W31208  28.467  18.758  14.385
62846W        W31209  31.029  43.980  12.851
62847W        W31210  18.598  43.397  14.889
62848W        W31211  36.521   3.231  11.923
62849W        W31212  11.351  42.976   3.730
62850W        W31213   1.950  43.971  12.879
62851W        W31214  24.581  19.082  10.586
62852W        W31215  38.479   3.882   4.327
62853W        W31216  33.897   5.840   4.350
62854W        W31217  32.393   8.746   4.345
62855W        W31218   3.751  12.786   0.761
62856W        W31219  25.156  39.872   4.740
62857W        W31220  25.210  12.821  13.331
62858W        W31221  38.917  16.732   3.284
62859W        W31222  21.248  36.969   4.606
62860W        W31223   0.494  33.899  14.301
62861W        W31224  27.122  35.019   0.436
62862W        W31225  11.711  12.317  12.487
62863W        W31226  36.488  10.868   4.789
62864W        W31227  35.382  16.660  10.529
62865W        W31228  18.204  44.950  13.477
62866W        W31229  29.651  29.099   5.190
62867W        W31230  10.815  18.672   2.197
62868W        W31231  13.278  22.737   4.115
62869W        W31232  28.088   3.372   1.889
62870W        W31233  32.910  33.495   1.250
62871W        W31234  11.352  18.668  13.355
62872W        W31235  33.599  22.054   2.866
62873W        W31236   0.277   7.337  14.001
62874W        W31237   9.261  38.056  13.466
62875W        W31238  11.244  27.118  13.049
62876W        W31239  42.368  31.021   1.847
62877W        W31240  37.933  44.467  13.957
62878W        W31241  27.182  40.327  11.557
62879W        W31242   0.876  27.163  13.885
62880W        W31243  39.052  41.486   5.295
62881W        W31244   2.268  38.844   0.786
62882W        W31245  15.242  38.037   4.821
62883W        W31246  25.633  32.463   2.318
62884W        W31247  18.180  23.209   1.806
62885W        W31248   9.792  11.197   3.826
62886W        W31249  12.275  36.844   2.839
62887W        W31250  17.239   9.170   2.339
62888W        W31251   4.878   7.351  11.423
62889W        W31252   0.444  29.144   3.288
62890W        W31253  14.307  10.676  10.501
62891W        W31254  36.570   1.394   4.166
62892W        W31255  41.866  24.085  12.402
62893W        W31256  41.536  11.127  13.416
62894W        W31257  25.524  37.346  14.340
62895W        W31258   8.835  42.976  12.824
62896W        W31259  15.129  14.224   1.902
62897W        W31260   4.447   2.910  13.968
62898W        W31261  44.757  43.491   4.309
62899W        W31262  33.089   5.800  12.830
62900W        W31263  29.565  24.681  10.913
62901W        W31264   3.404  29.116  10.984
62902W        W31265  14.269  19.623  13.022
62903W        W31266  10.801  32.477   4.171
62904W        W31267   0.895  41.357  14.430
62905W        W31268  13.164  37.391  11.398
62906W        W31269  27.005  40.978   3.155
62907W        W31270   5.266  26.481   3.239
62908W        W31271  11.721   6.760  13.445
62909W        W31272  16.766  30.982   2.855
62910W        W31273  14.717   0.290  14.806
62911W        W31274   3.725  28.060  12.512
62912W        W31275  18.244   8.196  13.315
62913W        W31276  32.447   6.776   1.250
62914W        W31277  40.371  25.157   4.685
62915W        W31278  32.403  15.155  13.324
62916W        W31279  23.593  28.666   0.366
62917W        W31280  14.160  16.129   3.371
62918W        W31281   4.417  34.542   4.171
62919W        W31282  29.151   5.202  13.955
62920W        W31283  24.674  32.977   1.395
62921W        W31284  33.012  18.150  13.874
62922W        W31285  24.591   2.412  11.879
62923W        W31286  18.643  31.036   3.251
62924W        W31287  20.213  31.919  10.036
62925W        W31288  15.324  37.524   3.154
62926W        W31289  43.426  17.265   2.184
62927W        W31290  23.179  36.582   1.740
62928W        W31291  12.307  29.633   2.799
62929W        W31292  15.706  41.384  14.813
62930W        W31293  34.917  13.734   0.903
62931W        W31294  43.842  26.614  14.810
62932W        W31295  33.958   2.730   4.180
62933W        W31296   0.931  19.780  12.087
62934W        W31297  38.530  16.751   2.852
62935W        W31298  40.948  10.703   3.222
62936W        W31299  29.129   3.799   0.890
62937W        W31300   6.217  29.101  14.389
62938W        W31301  44.459  27.548   2.396
62939W        W31302  15.704  30.514   4.295
62940W        W31303  27.658   9.206   1.275
62941W        W31304   4.426  34.474  10.496
62942W        W31305  31.024  37.384   1.720
62943W        W31306   2.412  32.078   1.779
62944W        W31307   0.976  18.209  13.844
62945W        W31308  16.577  21.260  11.002
62946W        W31309   7.373   1.912  14.498
62947W        W31310  23.679  29.425   2.740
62948W        W31311  31.531  31.949   0.483
62949W        W31312   5.259   9.656  14.347
62950W        W31313  13.747  27.659  14.804
62951W        W31314  11.701  39.361  10.511
62952W        W31315  11.842  39.502   3.259
62953W        W31316   2.397  15.180  13.972
62954W        W31317   2.336  17.232   0.918
62955W        W31318   3.936  36.983   4.212
62956W        W31319  14.811  41.486   2.186
62957W        W31320  29.026  23.680  12.376
62958W        W31321  33.402  16.188  10.614
62959W        W31322  35.571   9.740   2.677
62960W        W31323  28.496   6.335   4.303
62961W        W31324  27.983  37.983   3.305
62962W        W31325  38.360  30.544   1.418
62963W        W31326   8.751  16.187  12.883
62964W        W31327  14.745  27.613   4.637
62965W        W31328  39.544  33.109   2.185
62966W        W31329   2.367  13.154   2.270
62967W        W31330   7.908  21.208  12.436
62968W        W31331  35.081   8.888  12.864
62969W        W31332  22.194  38.518  13.318
62970W        W31333   3.387  39.471   4.338
62971W        W31334  28.479   0.827  12.548
62972W        W31335   9.361   1.452  13.360
62973W        W31336  35.565  39.555  13.324
62974W        W31337  15.177  11.147   1.374
62975W        W31338  35.062   9.395  10.523
62976W        W31339   1.353  13.205   1.858
62977W        W31340  43.362  44.846  13.446
62978W        W31341  24.999  15.661  13.459
62979W        W31342   9.220  40.045   3.639
62980W        W31343  38.957  11.224  14.030
62981W        W31344  15.597  27.446   3.339
62982W        W31345  11.313  29.445  14.451
62983W        W31346  16.239   4.938   5.197
62984W        W31347   6.209  43.364   3.312
62985W        W31348   7.390  27.497  13.992
62986W        W31349   3.270   7.740   4.626
62987W        W31350  31.120  42.947   5.158
62988W        W31351  20.706   3.264   2.744
62989W        W31352  26.061  38.360   1.353
62990W        W31353  24.188  39.384   1.780
62991W        W31354  27.546  31.500   3.380
62992W        W31355   6.847   8.901   2.230
62993W        W31356   1.854  39.489  14.931
62994W        W31357  41.372  24.047   3.368
62995W        W31358  22.101  34.988  10.452
62996W        W31359  37.836  35.598  13.525
62997W        W31360  42.970  24.506  13.049
62998W        W31361  25.519  12.248   2.310
62999W        W31362  30.039  44.260  14.414
63000W        W31363  20.576  23.592  12.894
63001W        W31364  38.542   7.405   3.313
63002W        W31365   9.846  39.424   3.702
63003W        W31366  28.049  25.513   0.771
63004W        W31367   3.391  38.021  12.537
63005W        W31368  21.678   4.369   4.210
63006W        W31369   8.227   3.799   3.186
63007W        W31370  18.216  22.731  12.021
63008W        W31371  41.999  29.169   2.899
63009W        W31372  20.692  31.526   4.769
63010W        W31373  20.133  39.010   4.332
63011W        W31374  38.834  42.409  13.898
63012W        W31375  24.004  32.495  11.571
63013W        W31376  16.198  24.519   4.297
63014W        W31377  16.311  31.012  14.985
63015W        W31378  33.101  29.943  11.463
63016W        W31379   5.356  41.509   3.187
63017W        W31380  24.029   9.264  12.930
63018W        W31381   3.226  16.657  11.377
63019W        W31382  32.480  28.642  12.439
63020W        W31383  18.146   0.953   0.804
63021W        W31384  13.344  25.014  13.514
63022W        W31385  23.229  33.469  12.981
63023W        W31386   5.207  22.579  11.899
63024W        W31387  20.215  15.260  11.419
63025W        W31388   9.863  30.550   2.258
63026W        W31389   9.208  16.085   0.248
63027W        W31390  18.111  21.706   1.926
63028W        W31391  17.767  15.667   4.689
63029W        W31392  15.623  37.831   4.743
63030W        W31393   7.676  20.698   2.356
63031W        W31394  35.434  33.081   0.740
63032W        W31395   0.839  12.782   3.710
63033W        W31396  30.148   2.951   2.409
63034W        W31397   6.772  21.241  11.917
63035W        W31398  24.001  26.637  12.004
63036W        W31399  14.261  35.417   4.607
63037W        W31400  39.512  24.646   1.337
63038W        W31401  33.551  21.129   5.264
63039W        W31402  27.981  40.925   0.900
63040W        W31403  35.932  28.120   0.921
63041W        W31404   1.279   3.887   3.181
63042W        W31405   3.257  25.138   0.439
63043W        W31406  10.161  27.185   2.250
63044W        W31407  26.537   2.383  12.973
63045W        W31408  27.188   8.191  11.094
63046W        W31409  41.404  29.507   3.691
63047W        W31410  22.240  14.161  13.494
63048W        W31411  33.075  16.772   3.664
63049W        W31412  36.993  37.919   3.637
63050W        W31413   8.398  24.687  11.381
63051W        W31414  28.568  14.757   3.827
63052W        W31415  20.749   6.239  13.890
63053W        W31416  12.147  15.211  13.982
63054W        W31417  26.994  40.431  10.463
63055W        W31418  30.425   7.245  11.985
63056W        W31419   6.739  25.006   4.214
63057W        W31420   6.395  26.576  11.498
63058W        W31421  17.111  44.790  14.356
63059W        W31422  17.758   5.694   3.292
63060W        W31423  38.924  18.256  10.529
63061W        W31424  33.401   2.395   1.251
63062W        W31425  37.846  19.109  11.458
63063W        W31426  11.667  40.347   2.217
63064W        W31427  36.576  43.823  14.417
63065W        W31428  42.372  26.149  11.953
63066W        W31429  20.755   9.217  13.816
63067W        W31430  27.451  30.939  14.830
63068W        W31431  42.934   4.924   2.329
63069W        W31432   7.294  37.025   4.318
63070W        W31433  42.478  40.513  12.073
63071W        W31434   9.198  39.877   4.612
63072W        W31435   3.727  16.169   1.432
63073W        W31436  18.735  25.148   0.437
63074W        W31437   5.876  17.105   3.186
63075W        W31438  17.085  25.110   0.878
63076W        W31439   6.255  43.391  14.347
63077W        W31440   8.183   0.411   0.903
63078W        W31441   8.231   6.352  13.943
63079W        W31442  43.765  20.093   3.770
63080W        W31443   0.867   4.420  14.004
63081W        W31444  18.609  43.313  12.928
63082W        W31445  25.193  35.109  10.945
63083W        W31446  29.661  29.549   3.173
63084W        W31447   0.763   4.267  11.994
63085W        W31448  17.581  37.851   0.272
63086W        W31449  40.316  24.592  12.980
63087W        W31450  32.948  44.965  14.334
63088W        W31451  22.022  18.056  12.540
63089W        W31452   0.856  26.091   2.185
63090W        W31453   9.264  30.478   3.643
63091W        W31454  37.536  11.156  14.770
63092W        W31455   8.195   5.285  13.853
63093W        W31456  16.791  27.560   1.251
63094W        W31457   5.828   4.344  14.922
63095W        W31458   2.792  34.954   1.297
63096W        W31459  26.180  35.367  14.938
63097W        W31460  24.589  24.521   1.814
63098W        W31461  36.509  33.127   3.713
63099W        W31462  16.740  36.960   1.748
63100W        W31463   8.706  41.877  10.999
63101W        W31464  32.956  41.533  14.345
63102W        W31465  12.147   5.234  11.855
63103W        W31466  24.549  12.612   1.424
63104W        W31467  13.822   2.853  12.529
63105W        W31468  29.958  35.030   3.651
63106W        W31469   1.434  12.726  11.008
63107W        W31470  30.506  24.164  12.850
63108W        W31471   8.243  21.054   2.334
63109W        W31472  19.229  25.474   0.890
63110W        W31473   8.391  42.299  14.482
63111W        W31474   5.904  21.050  10.972
63112W        W31475   3.291  40.961  13.363
63113W        W31476  10.652  23.668   1.806
63114W        W31477  27.020   7.399   2.212
63115W        W31478  16.671   7.388  11.889
63116W        W31479  13.105   7.317   4.208
63117W        W31480  22.651  34.009  10.975
63118W        W31481  34.524  25.134  10.555
63119W        W31482  27.117  43.893   2.251
63120W        W31483  29.600  38.337  13.899
63121W        W31484  32.511  16.587   1.857
63122W        W31485  43.316  29.166   0.448
63123W        W31486  38.509  44.865  14.889
63124W        W31487  14.619  24.665  10.612
63125W        W31488  40.853  41.802  12.402
63126W        W31489  37.555  29.923  11.933
63127W        W31490  31.571  11.313   4.326
63128W        W31491  28.045  19.563   3.739
63129W        W31492  44.832  33.011  10.910
63130W        W31493  31.647   5.873   2.732
63131W        W31494  20.675  33.096   4.709
63132W        W31495  21.085  33.907   2.682
63133W        W31496  14.334   8.292   3.684
63134W        W31497  16.764  31.903   0.815
63135W        W31498  27.097   0.494   4.185
63136W        W31499  31.006  24.045   2.325
63137W        W31500   7.841  17.307  13.412
63138W        W31501  25.703  21.622   0.803
63139W        W31502  41.399  24.985   1.387
63140W        W31503  12.779  28.576  13.463
63141W        W31504  31.619  43.960  13.321
63142W        W31505  21.530  17.070   0.801
63143W        W31506   7.845  21.062   0.278
63144W        W31507  42.968   6.187  12.558
63145W        W31508  33.110  20.178   2.839
63146W        W31509  44.860  35.364  13.883
63147W        W31510  24.562   0.983   4.813
63148W        W31511  40.501  19.122  11.520
63149W        W31512  25.555  24.162   2.785
63150W        W31513  38.556  11.675  14.332
63151W        W31514  33.106   2.253  13.818
63152W        W31515  29.034  15.665  10.895
63153W        W31516  40.822  15.237   1.816
63154W        W31517   3.880   7.879  10.629
63155W        W31518  40.516  34.916  11.083
63156W        W31519  27.032  23.680  13.387
63157W        W31520  28.031  40.857  14.918
63158W        W31521   5.395  34.491   2.390
63159W        W31522  19.133  12.642   4.335
63160W        W31523  29.146  36.030  10.512
63161W        W31524  21.170  11.771   3.779
63162W        W31525   5.898  11.800   1.872
63163W        W31526  13.699  16.777   5.218
63164W        W31527  38.339  15.328  12.040
63165W        W31528   0.828  41.391   4.621
63166W        W31529  44.965  38.050   0.275
63167W        W31530  22.658   9.763   0.423
63168W        W31531  13.748   3.453  12.020
63169W        W31532  17.651  36.913  12.461
63170W        W31533  39.863   2.738  12.497
63171W        W31534   9.277  39.396   1.402
63172W        W31535  17.561  20.142  11.948
63173W        W31536   8.876  14.822  14.434
63174W        W31537  43.915  15.228   4.236
63175W        W31538  19.208   0.254   1.438
63176W        W31539  38.943  42.325   4.717
63177W        W31540  43.300   3.325   4.157
63178W        W31541   7.387   5.303  12.870
63179W        W31542  14.794  29.547  11.042
63180W        W31543  40.973  41.384  10.598
63181W        W31544  32.397  41.457   3.788
63182W        W31545  10.263   6.865   4.269
63183W        W31546   9.678   6.792  11.515
63184W        W31547  21.031  33.968  11.884
63185W        W31548  40.352  31.082  13.506
63186W        W31549  37.455  27.959  14.887
63187W        W31550   0.400   3.313   4.695
63188W        W31551   8.240  17.582   0.365
63189W        W31552  34.476  19.047   0.768
63190W        W31553  20.556   2.354  11.413
63191W        W31554  30.620  36.998   0.296
63192W        W31555  34.102  40.801   1.425
63193W        W31556  37.503   4.711   0.282
63194W        W31557  39.993  25.477   0.901
63195W        W31558   8.235  32.428  14.336
63196W        W31559   0.784   2.783   1.394
63197W        W31560  12.195  22.535   2.891
63198W        W31561   3.374   2.835   2.678
63199W        W31562   8.309  30.471  11.055
63200W        W31563   2.383  21.145   2.348
63201W        W31564   7.676   5.433  14.911
63202W        W31565   9.375   9.302   1.862
63203W        W31566  23.503  35.569   4.318
63204W        W31567  40.906  32.983   2.216
63205W        W31568  22.622  32.507  13.423
63206W        W31569  39.386  15.196   4.607
63207W        W31570  28.500  19.673  11.528
63208W        W31571   2.743  21.043  11.876
63209W        W31572  22.162   4.929   2.278
63210W        W31573  11.274  31.930   3.837
63211W        W31574  27.127  20.075   2.861
63212W        W31575  16.588   5.863  14.905
63213W        W31576  12.611  34.504   4.248
63214W        W31577  20.544  34.390  12.851
63215W        W31578  19.657  15.612  14.481
63216W        W31579   9.762   8.194  10.450
63217W        W31580  27.163  37.082  11.127
63218W        W31581   3.256  11.315  10.552
63219W        W31582   5.315   3.369   4.353
63220W        W31583  17.082  42.498   1.375
63221W        W31584  22.091  40.808   3.771
63222W        W31585   7.286  16.804  14.423
63223W        W31586  26.498  28.543   2.296
63224W        W31587  20.111  20.583   0.440
63225W        W31588  21.036  42.460   0.434
63226W        W31589  35.922  25.212  13.402
63227W        W31590  21.696  32.055   2.243
63228W        W31591  30.436  14.742   4.250
63229W        W31592  10.685  18.204   2.287
63230W        W31593  22.606  38.966   0.353
63231W        W31594  32.119  27.559   5.240
63232W        W31595  14.143  26.607   1.796
63233W        W31596  33.103  36.041  13.493
63234W        W31597  13.843   0.324  14.881
63235W        W31598  44.329  31.565  13.398
63236W        W31599  36.074  12.662   0.324
63237W        W31600  33.551  44.401   4.613
63238W        W31601  18.590  34.017   3.169
63239W        W31602   7.860   4.277  11.571
63240W        W31603  26.649  24.616   2.207
63241W        W31604   5.740  36.054   4.250
63242W        W31605  23.605  10.351  10.994
63243W        W31606  18.696  43.975  14.480
63244W        W31607  41.820  21.082   0.296
63245W        W31608  22.548   4.270   1.421
63246W        W31609  30.057  38.027  13.422
63247W        W31610  42.375  39.411   2.834
63248W        W31611   9.281  31.922  13.921
63249W        W31612   6.185  16.719   3.384
63250W        W31613  42.830  31.918  11.886
63251W        W31614  37.059  12.266   2.720
63252W        W31615  41.397  30.465  12.913
63253W        W31616  38.843  10.172  11.056
63254W        W31617  21.107  29.490  11.083
63255W        W31618  25.608  15.154  14.780
63256W        W31619  37.448  25.471   0.273
63257W        W31620  37.056  27.525   2.892
63258W        W31621  15.130  29.103  14.415
63259W        W31622  22.525  35.984   3.159
63260W        W31623  18.084  26.463  11.551
63261W        W31624  32.426  38.470   3.146
63262W        W31625  35.892  28.449  14.500
63263W        W31626  44.499  12.847  13.313
63264W        W31627  35.575   9.164  12.523
63265W        W31628   5.899  21.548  12.839
63266W        W31629   1.291  25.059   1.324
63267W        W31630   2.789  40.956   0.968
63268W        W31631   6.717  38.469   3.193
63269W        W31632  41.869  19.592   0.751
63270W        W31633  30.608  17.794   3.692
63271W        W31634  17.202   0.385  14.900
63272W        W31635  23.070  26.665  14.898
63273W        W31636  33.548  20.702  14.430
63274W        W31637  21.701   8.189  10.503
63275W        W31638  29.461   0.852  13.359
63276W        W31639   8.844   0.413   0.912
63277W        W31640   8.372  19.070  11.409
63278W        W31641   9.337  21.178   0.447
63279W        W31642  29.924  16.073   4.349
63280W        W31643  27.045  23.092   4.289
63281W        W31644  25.545  13.661  12.826
63282W        W31645  15.304  40.882  13.324
63283W        W31646  19.237  44.470  14.505
63284W        W31647  39.917  16.155   4.257
63285W        W31648  41.458  15.802  14.503
63286W        W31649  42.993   9.334  11.460
63287W        W31650  26.598   1.363   0.878
63288W        W31651   5.246  14.097  13.443
63289W        W31652  19.657  19.555  10.989
63290W        W31653  30.466  26.539   4.165
63291W        W31654   0.254  34.466   3.853
63292W        W31655  39.313   7.848  12.058
63293W        W31656  22.659  44.367   3.732
63294W        W31657  33.055   7.184  10.624
63295W        W31658   7.400  42.785   4.264
63296W        W31659   0.941  13.634   0.798
63297W        W31660  31.022   2.307   3.771
63298W        W31661  23.679  31.484  12.084
63299W        W31662  35.556  31.108   2.391
63300W        W31663  15.313  18.678   9.619
63301W        W31664  19.763  27.014  13.543
63302W        W31665  11.151   9.269  13.830
63303W        W31666  20.196   8.338  13.985
63304W        W31667   9.690  13.708   4.254
63305W        W31668  39.443  17.633   2.851
63306W        W31669  21.587   7.233  11.995
63307W        W31670  43.317  10.140  13.015
63308W        W31671  22.244  13.167   1.865
63309W        W31672   0.948  13.780  12.554
63310W        W31673  27.450   1.766  11.904
63311W        W31674   1.329   6.263  10.610
63312W        W31675  22.176  44.301  13.448
63313W        W31676   4.901  29.011  12.979
63314W        W31677  20.130  35.940   2.291
63315W        W31678  10.339  19.720  13.894
63316W        W31679   7.186  13.600   2.287
63317W        W31680   4.914  22.059  12.457
63318W        W31681   6.182  38.402   1.791
63319W        W31682  41.450  14.740  13.457
63320W        W31683  12.120   9.261   3.357
63321W        W31684  26.137   0.268   0.788
63322W        W31685   8.765  37.881  13.329
63323W        W31686  33.038  24.193  10.634
63324W        W31687  38.427  39.978  14.793
63325W        W31688  33.467  19.654   4.354
63326W        W31689  24.623  12.712  13.314
63327W        W31690   2.323  38.885  14.899
63328W        W31691   1.480  11.865   1.339
63329W        W31692  36.352  40.340  10.578
63330W        W31693   6.363  20.248   0.948
63331W        W31694  14.802  36.367   2.743
63332W        W31695  36.498  16.707   0.895
63333W        W31696  40.442  25.189  10.496
63334W        W31697  44.261  19.561   1.330
63335W        W31698  22.142   5.437   2.783
63336W        W31699  43.782  10.259  11.050
63337W        W31700   7.390  15.329  14.782
63338W        W31701  19.269   7.812   4.286
63339W        W31702   3.302  41.344  12.387
63340W        W31703   8.226  24.689  14.873
63341W        W31704  32.408  43.910  11.049
63342W        W31705  19.118  44.821   9.659
63343W        W31706  21.641  28.490   2.356
63344W        W31707  13.615  17.695  13.927
63345W        W31708  17.667  14.235  10.934
63346W        W31709  37.541  32.492   3.673
63347W        W31710  38.842  30.973  13.848
63348W        W31711  29.603  23.522   0.929
63349W        W31712  21.710  30.551  10.981
63350W        W31713  38.013   4.267  10.551
63351W        W31714  20.610  10.793  13.810
63352W        W31715  43.293  13.189   4.229
63353W        W31716   8.244  24.653  12.919
63354W        W31717  24.720  10.765   3.805
63355W        W31718  12.250  31.128  13.830
63356W        W31719  23.600   9.255  13.417
63357W        W31720  11.309  43.885  13.050
63358W        W31721   7.842  38.531   2.817
63359W        W31722  40.503  14.592  10.644
63360W        W31723  13.142  37.400  11.873
63361W        W31724   5.286  24.682  10.463
63362W        W31725  38.860  27.596   3.682
63363W        W31726   9.766  10.212  10.526
63364W        W31727   5.247   1.454  10.954
63365W        W31728   9.831  33.057   1.757
63366W        W31729  43.475  30.124   2.282
63367W        W31730  34.004  23.571   3.821
63368W        W31731  16.685   9.818  11.573
63369W        W31732  34.487  32.972   3.188
63370W        W31733  15.231   9.890   3.699
63371W        W31734  32.049  40.901  12.519
63372W        W31735  44.365  20.599   0.749
63373W        W31736  25.567  19.605   3.235
63374W        W31737  32.586   5.914  13.506
63375W        W31738  35.465  18.703  11.577
63376W        W31739   5.770  28.674  10.504
63377W        W31740  16.780   0.256  14.942
63378W        W31741  33.007  10.845   1.705
63379W        W31742  17.746  11.817   2.267
63380W        W31743  32.534  35.488   3.718
63381W        W31744  22.158   1.240  14.387
63382W        W31745  31.075  40.303   4.198
63383W        W31746  29.154  20.256  13.403
63384W        W31747  20.062  20.181   2.878
63385W        W31748  38.407  13.313  14.989
63386W        W31749   7.212  32.926  10.533
63387W        W31750  43.323  40.889   2.364
63388W        W31751  42.439  37.015   2.857
63389W        W31752  34.043  10.361   4.351
63390W        W31753  37.382  17.263  10.905
63391W        W31754  38.496  25.614   0.730
63392W        W31755  20.249  10.336   1.824
63393W        W31756  20.692  13.685  10.453
63394W        W31757  29.523   8.286   1.808
63395W        W31758  14.822  25.995   4.213
63396W        W31759  42.336  29.552  13.509
63397W        W31760  13.765  34.907  10.464
63398W        W31761  18.723  41.346   3.205
63399W        W31762  27.470  24.190   1.351
63400W        W31763   8.352  14.727  14.452
63401W        W31764   5.792  16.143  14.313
63402W        W31765  11.749  37.542  12.855
63403W        W31766  34.452  28.468  13.364
63404W        W31767  25.038  14.686  10.614
63405W        W31768  32.892  23.173  14.843
63406W        W31769  22.182  36.874  11.035
63407W        W31770  40.840  39.543  10.929
63408W        W31771  37.972   0.337  10.421
63409W        W31772  35.895  18.586  13.827
63410W        W31773   4.245   3.858   1.400
63411W        W31774  26.130  20.584   3.260
63412W        W31775  13.175  22.605   4.777
63413W        W31776  13.755  16.254   0.913
63414W        W31777  15.254  39.326  12.062
63415W        W31778   0.438   9.346   3.761
63416W        W31779  25.709  32.436   0.928
63417W        W31780  17.217  39.917  10.403
63418W        W31781   2.320  31.040  11.054
63419W        W31782  31.481  21.263  11.545
63420W        W31783   7.377   8.815  14.027
63421W        W31784  10.724  19.619  10.488
63422W        W31785  36.061  33.969   0.807
63423W        W31786  21.169   2.817   2.801
63424W        W31787  21.113  27.688   0.877
63425W        W31788  42.516  26.155   3.770
63426W        W31789  17.237  20.654  11.428
63427W        W31790  22.701  28.641   4.166
63428W        W31791  22.177  34.076   3.177
63429W        W31792  10.143   8.762  11.572
63430W        W31793   9.298   1.733  14.275
63431W        W31794   3.302  36.005  11.908
63432W        W31795  18.747  15.110  14.024
63433W        W31796   9.664   0.372  14.452
63434W        W31797  29.060  11.703  14.948
63435W        W31798  36.065   0.476   3.870
63436W        W31799  21.079  28.435   4.207
63437W        W31800  11.721  18.583  12.052
63438W        W31801  28.102  35.953   2.406
63439W        W31802  34.496   6.735  11.408
63440W        W31803   9.753  36.539  13.943
63441W        W31804   3.372  18.141   9.930
63442W        W31805  42.388  23.632   2.662
63443W        W31806  14.676  13.693  13.397
63444W        W31807  30.558   2.420  12.023
63445W        W31808  31.495  31.936  11.425
63446W        W31809  29.603  30.159   3.772
63447W        W31810  22.695  17.164   4.308
63448W        W31811  29.078  31.135   1.916
63449W        W31812   1.256  18.292  11.507
63450W        W31813  10.652   0.327  10.918
63451W        W31814  40.957  22.633  11.586
63452W        W31815   1.476   3.239   1.248
63453W        W31816  28.526  34.591   2.339
63454W        W31817  39.390   2.861   4.626
63455W        W31818  36.889  13.734   4.173
63456W        W31819  44.269  41.525  12.517
63457W        W31820   2.841  24.538  14.388
63458W        W31821  21.691  14.250  10.410
63459W        W31822  22.665  39.855  11.033
63460W        W31823  41.370   7.782   3.642
63461W        W31824  43.460  38.464   0.802
63462W        W31825  12.196  39.886  14.359
63463W        W31826   2.445  16.636   3.226
63464W        W31827   3.422  13.657  10.596
63465W        W31828  16.586  34.449   0.954
63466W        W31829  42.397  22.024   0.917
63467W        W31830  37.392   1.814   1.354
63468W        W31831   5.814   8.720   4.598
63469W        W31832  29.983   4.759   2.818
63470W        W31833   0.830  18.255  14.415
63471W        W31834  11.219  35.936   3.242
63472W        W31835   1.757  29.638   3.201
63473W        W31836  41.479  32.081   0.255
63474W        W31837   7.675  34.927  10.958
63475W        W31838  25.555  44.397   3.180
63476W        W31839  14.257  38.951  10.548
63477W        W31840  43.474  38.417   3.335
63478W        W31841  42.002  26.985   4.351
63479W        W31842   9.193  13.287  13.365
63480W        W31843   3.910  18.647   3.281
63481W        W31844   5.421  28.576  11.066
63482W        W31845  24.525  20.680   4.279
63483W        W31846  12.773   5.405   5.163
63484W        W31847  18.162  31.445   1.370
63485W        W31848  29.093   1.954  14.834
63486W        W31849   4.913  27.546  12.441
63487W        W31850   9.238   3.437  12.023
63488W        W31851  44.293  31.460  12.082
63489W        W31852  21.030   3.300   3.210
63490W        W31853  24.218  18.777   4.278
63491W        W31854   7.686  29.453  11.923
63492W        W31855  44.759  37.347  13.879
63493W        W31856  19.213  27.097   4.836
63494W        W31857  36.498  37.473   1.903
63495W        W31858  29.578  16.217  13.819
63496W        W31859  25.019  33.411  11.494
63497W        W31860  34.980  43.881  14.463
63498W        W31861  17.278  20.530   2.303
63499W        W31862  22.024  38.847  13.909
63500W        W31863   0.479  10.295  14.336
63501W        W31864  15.814   7.301   4.767
63502W        W31865  24.648  17.115   1.232
63503W        W31866  21.514  41.383  12.057
63504W        W31867  21.729   4.780  13.372
63505W        W31868  22.212   5.330  13.853
63506W        W31869  19.722  37.507  13.809
63507W        W31870  42.784  11.200  10.954
63508W        W31871  14.335   0.876  13.053
63509W        W31872  11.268  12.270   1.344
63510W        W31873   6.678  42.500  10.459
63511W        W31874  24.990  14.339   1.702
63512W        W31875  20.686  36.018  13.536
63513W        W31876  44.330  19.729  13.975
63514W        W31877  36.420  34.006   4.214
63515W        W31878  41.424   8.191  12.082
63516W        W31879   4.834  17.298  14.929
63517W        W31880  35.397  35.359  14.305
63518W        W31881  35.457  17.609  11.981
63519W        W31882  26.524  18.754   2.892
63520W        W31883  44.942   1.343   2.716
63521W        W31884  16.702   2.273  12.027
63522W        W31885  27.619  34.457  10.479
63523W        W31886  26.146  19.654   0.405
63524W        W31887   7.878  16.110   0.875
63525W        W31888  31.046   9.152  13.487
63526W        W31889  44.933   5.859  10.592
63527W        W31890  14.687  22.244  13.876
63528W        W31891  17.184  25.573  11.572
63529W        W31892  32.908   5.931  10.440
63530W        W31893  38.028  41.994  12.897
63531W        W31894  16.225  27.094   3.632
63532W        W31895  10.206  40.857   4.284
63533W        W31896  25.640  24.584  13.434
63534W        W31897  42.805  14.612  13.530
63535W        W31898  37.988  10.646  11.129
63536W        W31899  16.314  20.251  12.375
63537W        W31900  21.149  36.940   4.135
63538W        W31901  44.441  11.812  14.442
63539W        W31902  25.690   8.691   0.762
63540W        W31903  38.438  13.752  11.410
63541W        W31904  20.092  29.594   3.746
63542W        W31905  24.095   3.759   1.719
63543W        W31906  31.538  11.635  10.489
63544W        W31907   2.323   8.206  11.930
63545W        W31908  41.532  37.451   3.145
63546W        W31909  39.029   4.918  14.326
63547W        W31910   7.675  24.609  10.482
63548W        W31911  19.059  12.820  14.384
63549W        W31912  21.643  26.986   2.408
63550W        W31913  20.101  35.368  10.581
63551W        W31914  26.569   1.777  11.017
63552W        W31915  14.129  25.696  13.516
63553W        W31916  12.195  34.615  14.821
63554W        W31917   4.819  17.685  10.579
63555W        W31918   8.292   4.898  12.546
63556W        W31919  23.028   6.208   2.787
63557W        W31920  25.627  43.359  12.914
63558W        W31921   2.358  17.666   1.754
63559W        W31922  27.117  41.888  12.864
63560W        W31923  37.019  34.489  14.962
63561W        W31924  18.089  20.190   2.403
63562W        W31925  25.680   7.870   4.723
63563W        W31926  31.038  43.496  13.998
63564W        W31927  29.625  39.411   4.774
63565W        W31928   4.726  32.927   0.927
63566W        W31929  40.930   5.841   3.315
63567W        W31930  38.472  44.815   1.285
63568W        W31931  39.448  31.917   4.227
63569W        W31932   6.417  39.450  11.952
63570W        W31933  16.212  11.221  10.933
63571W        W31934  33.507   0.370   3.651
63572W        W31935   6.732  42.520   2.783
63573W        W31936  42.516  22.051  11.441
63574W        W31937  40.842  18.691   0.376
63575W        W31938   8.742  30.921   0.740
63576W        W31939  34.104  40.523  10.150
63577W        W31940   9.184  41.412  13.345
63578W        W31941  15.312  30.949   2.417
63579W        W31942  16.162   4.322   4.299
63580W        W31943   5.716  28.148   2.734
63581W        W31944   6.900  26.954  14.824
63582W        W31945   4.754  12.752  10.152
63583W        W31946  13.299   2.901  11.409
63584W        W31947  27.498   5.352   0.388
63585W        W31948  14.754  39.052   2.390
63586W        W31949  11.839  22.137  10.569
63587W        W31950   2.260   5.206   3.706
63588W        W31951  27.621  22.631  13.851
63589W        W31952  34.377   6.397   2.787
63590W        W31953   4.711  11.825   4.667
63591W        W31954  42.029  43.003   1.805
63592W        W31955  25.503  17.750   2.294
63593W        W31956   6.210  34.020  13.853
63594W        W31957  20.609  37.542  10.410
63595W        W31958  22.541  39.435   0.782
63596W        W31959  10.837  43.932   0.360
63597W        W31960  41.825  32.090   5.098
63598W        W31961  12.724  13.668  12.573
63599W        W31962  43.803   2.411   0.790
63600W        W31963  41.296  39.366   1.418
63601W        W31964  17.179   7.713  10.550
63602W        W31965  25.066  24.209   1.364
63603W        W31966  15.301   9.195  12.523
63604W        W31967  36.972  38.387  12.535
63605W        W31968  22.512  16.305  11.399
63606W        W31969  37.397  22.625  12.515
63607W        W31970  17.797   1.938   0.941
63608W        W31971  25.603  27.670  11.555
63609W        W31972  25.667  25.189   4.331
63610W        W31973  43.397  18.055   5.299
63611W        W31974  37.472  22.021  13.042
63612W        W31975  25.187  13.171   0.855
63613W        W31976  15.119  32.431  11.505
63614W        W31977  15.250  12.698  10.910
63615W        W31978   9.388  18.764  12.859
63616W        W31979  33.112   8.828   2.241
63617W        W31980  43.968  31.071  10.977
63618W        W31981  20.672  16.639   1.821
63619W        W31982  28.646   0.362  12.955
63620W        W31983   0.862  42.355   3.711
63621W        W31984  19.117  23.129   0.253
63622W        W31985  13.217  25.150  10.948
63623W        W31986  32.103   4.248  14.458
63624W        W31987  34.524  24.011   2.903
63625W        W31988  43.911  23.493  14.481
63626W        W31989  22.536   8.875  12.986
63627W        W31990  21.543  12.211  14.766
63628W        W31991  36.026  15.746   2.875
63629W        W31992  20.100  11.780  14.311
63630W        W31993  28.602  29.130  13.524
63631W        W31994  34.912  27.142   4.327
63632W        W31995  34.908  38.002  13.489
63633W        W31996  32.437  16.079  12.938
63634W        W31997  42.491   3.781   4.319
63635W        W31998  26.677  43.282   3.720
63636W        W31999  37.922   1.819  14.906
63637W        W32000   3.726  40.891   1.859
63638W        W32001  19.075  26.954   1.227
63639W        W32002   9.190   3.431   1.720
63640W        W32003  22.646  33.928   0.948
63641W        W32004  10.748   9.190  10.550
63642W        W32005  12.745  28.007   4.264
63643W        W32006  29.152  23.588   0.814
63644W        W32007   9.645   5.931  14.994
63645W        W32008  20.081   8.727   3.344
63646W        W32009   2.742  43.491   0.895
63647W        W32010   3.846  17.562   0.897
63648W        W32011   6.873  18.718   2.807
63649W        W32012   2.408  38.418   4.198
63650W        W32013  18.227   4.859   4.741
63651W        W32014  42.901   5.400   2.895
63652W        W32015  12.776  35.098  11.883
63653W        W32016  38.374  27.149   4.249
63654W        W32017  38.057  20.623   4.173
63655W        W32018  38.454  36.522  12.438
63656W        W32019   4.768  10.245   5.087
63657W        W32020  19.741  18.263  13.848
63658W        W32021  25.595  33.399  12.860
63659W        W32022  41.800  10.866   2.208
63660W        W32023  15.725  19.054   5.267
63661W        W32024  43.872  38.977  12.476
63662W        W32025  23.719   1.748   0.834
63663W        W32026   5.921  32.949  14.954
63664W        W32027   4.799  18.053  10.464
63665W        W32028  43.295  16.626  10.993
63666W        W32029  12.243  34.091   4.638
63667W        W32030   7.243  28.047   2.384
63668W        W32031  13.316  44.960  14.927
63669W        W32032  13.176  18.620  10.541
63670W        W32033  42.843  14.100   0.473
63671W        W32034  29.162  29.090   9.571
63672W        W32035  18.098  34.927  11.595
63673W        W32036  27.630   8.657  11.574
63674W        W32037  22.532  40.885   2.855
63675W        W32038   8.695  39.047  14.392
63676W        W32039  41.821  32.445   2.301
63677W        W32040  18.099  33.003   0.745
63678W        W32041  34.898  16.142   1.357
63679W        W32042  18.118  34.536   1.847
63680W        W32043  27.010  25.152   5.088
63681W        W32044  17.092   9.657   9.986
63682W        W32045  38.398  23.994   4.308
63683W        W32046   9.830   5.838   4.676
63684W        W32047  17.131  44.922  11.883
63685W        W32048   7.694  16.092   2.416
63686W        W32049   1.902  43.806   1.240
63687W        W32050   4.911  32.906  11.571
63688W        W32051   7.315  30.430  11.462
63689W        W32052  44.498  37.520   1.321
63690W        W32053   0.807  25.015   3.706
63691W        W32054  42.513   6.387   0.285
63692W        W32055  36.493  35.532   4.626
63693W        W32056  25.158  16.091   0.270
63694W        W32057   4.226  24.076  12.952
63695W        W32058  23.044   1.881   2.833
63696W        W32059  37.958  29.094  13.425
63697W        W32060  44.384  15.155  14.847
63698W        W32061  40.936  42.376  14.284
63699W        W32062  40.494  10.242  11.575
63700W        W32063  11.284   2.277   3.176
63701W        W32064   7.877  42.287   3.277
63702W        W32065  16.586   4.307  14.980
63703W        W32066  14.759  44.462   3.256
63704W        W32067   8.706  22.236  10.985
63705W        W32068  25.058   3.411  12.045
63706W        W32069  30.478  11.761  13.044
63707W        W32070   7.843  14.152  12.517
63708W        W32071  19.741  20.567  12.435
63709W        W32072  38.013  20.131   3.178
63710W        W32073   6.733  21.237   2.375
63711W        W32074  23.171  38.845   4.836
63712W        W32075   6.353   5.733  10.131
63713W        W32076   4.238  11.245  13.797
63714W        W32077  22.599  30.090  11.500
63715W        W32078   2.312  19.765   1.906
63716W        W32079  32.570  25.130  14.761
63717W        W32080  29.114   1.863  14.381
63718W        W32081  17.076   9.335   3.284
63719W        W32082  14.275   1.339  12.914
63720W        W32083   5.430  30.071   3.149
63721W        W32084  26.015  21.754   0.862
63722W        W32085  42.920  19.576   2.765
63723W        W32086   0.339  20.645  13.322
63724W        W32087   1.837  19.733   1.756
63725W        W32088  26.578  35.068  14.903
63726W        W32089   1.416   1.776  14.456
63727W        W32090  30.565   5.873   3.753
63728W        W32091  33.925  10.738  13.477
63729W        W32092   1.406  20.210  12.935
63730W        W32093  38.862  37.999  10.432
63731W        W32094  23.697   1.842   4.262
63732W        W32095  11.248  26.021  12.521
63733W        W32096  40.505  25.162  11.385
63734W        W32097  34.563   0.251  12.048
63735W        W32098   0.865  34.939  14.298
63736W        W32099   3.709   3.841  14.950
63737W        W32100  25.562  38.899  11.448
63738W        W32101  20.065  12.841  13.044
63739W        W32102  26.533  35.916  12.406
63740W        W32103   3.300  13.658  11.026
63741W        W32104  21.075   2.433   2.837
63742W        W32105  13.145  26.159   0.243
63743W        W32106  32.475  40.389   3.231
63744W        W32107  11.368   0.411  13.829
63745W        W32108   3.215  38.931   2.816
63746W        W32109  12.264   3.345  13.509
63747W        W32110  41.857  36.966  14.374
63748W        W32111  36.847  10.763  11.427
63749W        W32112  28.149   6.262  13.977
63750W        W32113  21.728  11.214  12.419
63751W        W32114  11.705  39.500  10.916
63752W        W32115  12.828  30.480   2.179
63753W        W32116  31.588  15.224  12.855
63754W        W32117  34.561  28.667   0.804
63755W        W32118  38.860   7.281  10.012
63756W        W32119  12.168   3.914   2.370
63757W        W32120  22.208  38.468   0.880
63758W        W32121  38.989   6.755  12.883
63759W        W32122  39.383  21.625  11.572
63760W        W32123  19.252  13.333   4.672
63761W        W32124   9.196  11.160  11.478
63762W        W32125   1.270  35.015  12.567
63763W        W32126  23.690  34.510  14.404
63764W        W32127  27.602  40.950   2.777
63765W        W32128  43.810  31.437  14.972
63766W        W32129  38.495   7.272   2.831
63767W        W32130  12.610  23.079   0.330
63768W        W32131   8.250  38.511   4.168
63769W        W32132  22.122   4.381   3.340
63770W        W32133  42.385  33.435  11.069
63771W        W32134  13.677  33.481  12.985
63772W        W32135  32.069  22.590  14.352
63773W        W32136  15.782  33.609  14.830
63774W        W32137  14.177   7.197  13.024
63775W        W32138  20.237   4.731  13.062
63776W        W32139  42.471  31.574  13.994
63777W        W32140  42.355  19.677   1.786
63778W        W32141  18.198   8.693  14.306
63779W        W32142  36.537  44.455  13.474
63780W        W32143  13.255   3.935   5.773
63781W        W32144  11.162  16.608   3.252
63782W        W32145  41.335  17.263   0.337
63783W        W32146   8.329   1.963  13.063
63784W        W32147  28.476  10.803  10.575
63785W        W32148  21.605   2.457   2.687
63786W        W32149  42.459  11.776  12.053
63787W        W32150   2.320  37.062   4.726
63788W        W32151  21.084  10.231   4.232
63789W        W32152  13.286  18.561  12.374
63790W        W32153  24.150  12.153   4.689
63791W        W32154  26.537  23.028   4.800
63792W        W32155   8.379   9.852  13.482
63793W        W32156  42.498   6.336   3.793
63794W        W32157   3.902  36.975   0.871
63795W        W32158   2.859  44.887   4.325
63796W        W32159   5.317  10.376   4.248
63797W        W32160   1.268  43.948  14.842
63798W        W32161  21.123   8.331   3.260
63799W        W32162   1.362  30.478  14.296
63800W        W32163  32.140   7.346  13.376
63801W        W32164  30.561  15.329   3.677
63802W        W32165  18.156  13.305  12.359
63803W        W32166   1.963  16.642  13.886
63804W        W32167  17.740  40.495  12.363
63805W        W32168  35.071  43.012   3.343
63806W        W32169  16.247  27.480  11.938
63807W        W32170  11.733  32.901   9.994
63808W        W32171  30.009  30.153  10.517
63809W        W32172  44.916  27.148   3.150
63810W        W32173  16.153  22.204  12.366
63811W        W32174  38.912   3.887  14.981
63812W        W32175  21.081  28.969   2.262
63813W        W32176   9.155   7.669  12.460
63814W        W32177  41.481  43.395   1.715
63815W        W32178  37.567  13.806  14.805
63816W        W32179  28.561   9.383  11.085
63817W        W32180  21.622  19.691   3.384
63818W        W32181  38.425  26.139  14.934
63819W        W32182  14.227  34.090   2.368
63820W        W32183   2.857   8.700   0.274
63821W        W32184  28.632   4.236  12.057
63822W        W32185  18.684  22.086   2.372
63823W        W32186  31.411  15.579  14.455
63824W        W32187  30.052  40.545   3.810
63825W        W32188   0.394   1.459   1.417
63826W        W32189  43.899  40.347  12.438
63827W        W32190  11.225  40.338  11.105
63828W        W32191  15.640  42.475  10.492
63829W        W32192  27.616  12.290   1.754
63830W        W32193  15.234  25.028   4.203
63831W        W32194  19.549   6.730   2.844
63832W        W32195  14.630  14.150  10.590
63833W        W32196  19.233  34.076   0.858
63834W        W32197  35.551  33.493  10.443
63835W        W32198  19.060  39.427   2.389
63836W        W32199  17.128  44.867  13.384
63837W        W32200  16.566  23.609  11.078
63838W        W32201  43.015  37.078   1.903
63839W        W32202  18.279  32.464  11.020
63840W        W32203  35.537  29.489  11.124
63841W        W32204  40.450  17.117  10.514
63842W        W32205   6.762  11.301   0.941
63843W        W32206  36.462  19.569  13.519
63844W        W32207  29.118  41.336  10.903
63845W        W32208  14.194  42.886   2.789
63846W        W32209  25.536  19.132  12.514
63847W        W32210  42.775   4.710  12.022
63848W        W32211   8.342   0.932  12.078
63849W        W32212   3.437  14.184  14.487
63850W        W32213  23.019   2.420   4.237
63851W        W32214  27.486  23.171   2.293
63852W        W32215  41.298  12.260   2.678
63853W        W32216   6.679  36.998  14.365
63854W        W32217  28.576  34.504   0.268
63855W        W32218  43.829   9.878  12.575
63856W        W32219  21.259   7.847  14.300
63857W        W32220  10.262  30.057   0.802
63858W        W32221  22.568  20.092  13.825
63859W        W32222  26.573  33.126  14.862
63860W        W32223  24.071  28.677  14.863
63861W        W32224  36.593  20.613  12.047
63862W        W32225  25.583  12.336  12.467
63863W        W32226   8.385  43.396   0.903
63864W        W32227   5.741  27.584   1.897
63865W        W32228  44.272  15.617  14.489
63866W        W32229  40.860  13.610  12.829
63867W        W32230  26.593  25.152   0.254
63868W        W32231  30.108  23.558   2.799
63869W        W32232  13.603  27.197   4.725
63870W        W32233   0.414  13.170  12.871
63871W        W32234  22.144  24.687   0.729
63872W        W32235  22.174   0.936  12.519
63873W        W32236  28.991  19.135   4.753
63874W        W32237  16.172   3.918  14.983
63875W        W32238   5.249  35.581  10.532
63876W        W32239  42.428   5.226   0.777
63877W        W32240  15.614  37.341   3.714
63878W        W32241  22.113  21.541   1.325
63879W        W32242  34.965  29.033  12.962
63880W        W32243  29.980  21.110   1.778
63881W        W32244  38.561  25.177  12.873
63882W        W32245  42.954  16.792  10.425
63883W        W32246  20.044   3.926  10.601
63884W        W32247   0.854  27.511   3.687
63885W        W32248  34.966  17.650   4.805
63886W        W32249  35.057   6.406   1.279
63887W        W32250  38.462  40.403   3.300
63888W        W32251  30.570   9.693   1.743
63889W        W32252   8.755  42.450  10.438
63890W        W32253  37.465  12.697   0.331
63891W        W32254   4.289  20.533   2.675
63892W        W32255  13.814   3.354   1.350
63893W        W32256  25.032  14.157   2.862
63894W        W32257   6.361  32.028  14.000
63895W        W32258  18.777  32.133  14.383
63896W        W32259  34.989  36.922  12.851
63897W        W32260  23.075  35.567  10.506
63898W        W32261   8.887   7.735   3.304
63899W        W32262   8.286  32.520  13.520
63900W        W32263  42.009  19.715   5.134
63901W        W32264  18.181  11.776   4.776
63902W        W32265  44.942  37.404   3.718
63903W        W32266  20.203  44.272   2.329
63904W        W32267  25.206  29.001  14.767
63905W        W32268  36.568  31.575   2.772
63906W        W32269  31.406  22.025  12.013
63907W        W32270  16.658   5.391  11.106
63908W        W32271  44.464  21.055   3.228
63909W        W32272  14.766  12.317   1.442
63910W        W32273  10.755  31.103   2.372
63911W        W32274   7.732  29.043  12.066
63912W        W32275   0.801  11.148   4.314
63913W        W32276  42.919  24.154   0.853
63914W        W32277  20.231  44.386   5.175
63915W        W32278  19.675  20.148   5.206
63916W        W32279  36.548  18.093   0.362
63917W        W32280  25.048  21.193  12.830
63918W        W32281  43.961   9.784   0.803
63919W        W32282  26.094   9.829  14.398
63920W        W32283  44.879  40.323   3.689
63921W        W32284  29.504  34.513   3.803
63922W        W32285  32.424  29.057  11.399
63923W        W32286  44.278  35.899   1.790
63924W        W32287  14.604   6.396   0.339
63925W        W32288  26.175  22.130   0.736
63926W        W32289  26.475   0.899   1.930
63927W        W32290  33.079  31.044  11.876
63928W        W32291  27.511  22.504  12.888
63929W        W32292  33.591  25.075   5.174
63930W        W32293  26.607  18.572   4.166
63931W        W32294  39.045  36.065  12.366
63932W        W32295   1.903  33.618   2.309
63933W        W32296  34.909   1.345   3.209
63934W        W32297  37.941  15.692  11.915
63935W        W32298  13.735  29.935  12.381
63936W        W32299  29.509  32.063  14.955
63937W        W32300  32.044   2.800   3.726
63938W        W32301  41.005  44.470   2.380
63939W        W32302  14.675  39.860  13.535
63940W        W32303  16.576  42.783   4.613
63941W        W32304  44.006   3.239   1.233
63942W        W32305  43.776  34.011  12.971
63943W        W32306   7.176  15.713  14.966
63944W        W32307  28.066  20.580  12.903
63945W        W32308  12.161  15.606   3.669
63946W        W32309   1.434  30.564  12.872
63947W        W32310  32.393   6.695  11.443
63948W        W32311  32.516  19.283   1.733
63949W        W32312   7.830  40.412  12.923
63950W        W32313  15.229  11.849   3.791
63951W        W32314  15.775  35.387  14.820
63952W        W32315  11.342  37.866   4.759
63953W        W32316  28.477   9.670   1.414
63954W        W32317   7.675  38.419   3.365
63955W        W32318   8.725   7.230  13.947
63956W        W32319  20.744   4.936   3.364
63957W        W32320   8.285  15.708  11.424
63958W        W32321  25.199   1.757  14.821
63959W        W32322  25.590   8.162  12.977
63960W        W32323   4.820  24.552   0.916
63961W        W32324  43.335  21.158  10.630
63962W        W32325   7.881   7.254  10.903
63963W        W32326  34.899  13.110  14.353
63964W        W32327  38.010  27.642  11.417
63965W        W32328   9.270  16.687  13.828
63966W        W32329   7.411  32.479  12.051
63967W        W32330  27.624  13.603   3.850
63968W        W32331  33.525  21.236  10.031
63969W        W32332  15.163  16.172  13.912
63970W        W32333   6.717  39.939   4.254
63971W        W32334  20.131  28.598   0.910
63972W        W32335  27.052  19.229  12.051
63973W        W32336  34.952  28.932  10.121
63974W        W32337  41.007  35.087  12.473
63975W        W32338  42.404  19.712  10.992
63976W        W32339  20.695  38.862   2.887
63977W        W32340  13.793  13.780  11.569
63978W        W32341  30.415  33.555   0.943
63979W        W32342  44.923  14.223  11.123
63980W        W32343  37.879   6.758  14.324
63981W        W32344  23.586  16.219  11.492
63982W        W32345  28.495  11.270  14.760
63983W        W32346   1.438  42.962  14.303
63984W        W32347  34.994  34.055  14.829
63985W        W32348  28.487  32.402   1.378
63986W        W32349   3.458  15.742  12.061
63987W        W32350   5.214  36.933   2.272
63988W        W32351  41.354  18.576   2.802
63989W        W32352   3.881  41.804  12.032
63990W        W32353  17.192  33.946  14.353
63991W        W32354   1.415  16.123  14.885
63992W        W32355  31.096   8.808  11.426
63993W        W32356  18.262  30.652  13.533
63994W        W32357   0.824  40.322   3.770
63995W        W32358   1.363  24.540   1.390
63996W        W32359  40.544   9.739   4.176
63997W        W32360  15.280  36.356   4.221
63998W        W32361   8.169   7.416  12.539
63999W        W32362   6.709  12.626   2.715
64000W        W32363  44.336  14.188   4.228
64001W        W32364  10.827  33.073   0.965
64002W        W32365  40.311  26.460  11.413
64003W        W32366   8.248  29.443   2.357
64004W        W32367  25.977  19.594  10.581
64005W        W32368  21.233  34.095   0.763
64006W        W32369  27.538   4.287   4.809
64007W        W32370  43.400  22.066   4.179
64008W        W32371  13.746  18.143   2.312
64009W        W32372  36.903  25.535   1.296
64010W        W32373   0.743  19.574   4.809
64011W        W32374  26.624  23.094  11.026
64012W        W32375   4.441  21.252   1.930
64013W        W32376   9.313  21.541   0.755
64014W        W32377  22.675   4.381   3.838
64015W        W32378   0.950  21.530  13.058
64016W        W32379  15.183   2.357   4.804
64017W        W32380  29.020  40.824  12.914
64018W        W32381  23.666  36.865   0.323
64019W        W32382  41.906   5.723   4.262
64020W        W32383  35.013  18.698   1.335
64021W        W32384  40.373  35.576   4.236
64022W        W32385   1.789  39.485   0.790
64023W        W32386  18.285  25.607  11.407
64024W        W32387  35.586  40.370  11.479
64025W        W32388   6.856   9.393   1.379
64026W        W32389  24.159  25.201   3.850
64027W        W32390  21.231  18.582   4.305
64028W        W32391  28.654  28.662   0.324
64029W        W32392   2.797   0.840  14.418
64030W        W32393  24.493   4.817  10.922
64031W        W32394  31.105  40.432   4.789
64032W        W32395  19.775  27.493   2.770
64033W        W32396  16.617  29.072   2.730
64034W        W32397  15.740  33.962   3.204
64035W        W32398  27.137  12.189  13.341
64036W        W32399  14.768  43.421   0.421
64037W        W32400  39.030  14.799  10.574
64038W        W32401  35.411   4.376  14.326
64039W        W32402   3.390  42.840   9.993
64040W        W32403  37.015  11.692   0.870
64041W        W32404  17.098  25.035  12.402
64042W        W32405   5.735  33.605   4.155
64043W        W32406  17.675  14.611  14.289
64044W        W32407  12.140   9.194   0.445
64045W        W32408   7.259  27.614  10.567
64046W        W32409   7.188  32.551  14.875
64047W        W32410  28.000  10.728   1.859
64048W        W32411  28.959   9.330   4.201
64049W        W32412  21.607   8.328   1.769
64050W        W32413  37.368   2.247   4.670
64051W        W32414  24.129  16.683  12.371
64052W        W32415  31.136  20.238   1.224
64053W        W32416  27.186  19.543   2.330
64054W        W32417  34.471  23.113  12.074
64055W        W32418  14.603   1.245  12.840
64056W        W32419   1.896  31.956   3.813
64057W        W32420  35.452  36.387  10.435
64058W        W32421  19.631  23.725  13.990
64059W        W32422  42.381  28.061   1.928
64060W        W32423  37.385   6.677   3.160
64061W        W32424  35.062  13.628  14.297
64062W        W32425   6.873  34.470   2.228
64063W        W32426  21.687  42.880  11.943
64064W        W32427  25.702  20.659  13.832
64065W        W32428  18.171   7.351   2.178
64066W        W32429  14.617   1.440   1.893
64067W        W32430  24.203   2.901  13.373
64068W        W32431   1.823  12.686   4.776
64069W        W32432   4.783  41.306  11.610
64070W        W32433  22.597  37.922  13.474
64071W        W32434   4.915  19.579   0.426
64072W        W32435   6.728  31.444   2.733
64073W        W32436  41.838   8.747  11.418
64074W        W32437  22.548  22.133   1.850
64075W        W32438  29.155   6.903  13.948
64076W        W32439  35.960  38.395  11.545
64077W        W32440  11.202  10.869   1.727
64078W        W32441   9.866  43.299   1.218
64079W        W32442   9.345  30.638   2.401
64080W        W32443  38.503  28.588   0.861
64081W        W32444  17.300  11.270  12.345
64082W        W32445  12.179  18.152  13.930
64083W        W32446  30.425  15.699   4.188
64084W        W32447   6.203  31.066   0.270
64085W        W32448  40.546   4.329   1.234
64086W        W32449   1.432  36.939   4.731
64087W        W32450   2.307  15.623  10.477
64088W        W32451  22.688  22.101  12.028
64089W        W32452  13.835  34.412   2.852
64090W        W32453  12.764  25.074  13.057
64091W        W32454  31.573  32.918   1.871
64092W        W32455   5.746  24.026   1.253
64093W        W32456  23.207  31.019   1.790
64094W        W32457  25.702   8.851  10.004
64095W        W32458  17.763  43.510  10.572
64096W        W32459   0.862  37.463  13.016
64097W        W32460   8.391   1.908  12.018
64098W        W32461  32.423  15.759   3.352
64099W        W32462   5.782  32.141  10.639
64100W        W32463  17.788   2.759   1.346
64101W        W32464  15.101  14.655  11.519
64102W        W32465  30.963  15.658   0.737
64103W        W32466   0.841  34.424  13.947
64104W        W32467   1.838  23.553  11.547
64105W        W32468   0.966  26.969   1.794
64106W        W32469  42.794  32.470  14.401
64107W        W32470  16.763  17.112   1.861
64108W        W32471   5.352  10.752  13.986
64109W        W32472  35.107   5.789   4.238
64110W        W32473  19.733  22.597   0.309
64111W        W32474  43.952   6.747  10.604
64112W        W32475  41.833  27.957   2.251
64113W        W32476  43.819  20.216   0.410
64114W        W32477  34.516  20.660  13.824
64115W        W32478  26.156  30.908   3.836
64116W        W32479  22.068   6.772  11.857
64117W        W32480  24.091  26.635  13.455
64118W        W32481  19.208  10.703   1.888
64119W        W32482   5.388  16.132  11.054
64120W        W32483  14.258  26.542  11.406
64121W        W32484   1.270  19.236  11.417
64122W        W32485   5.695   7.767  12.949
64123W        W32486  10.270  15.776   5.319
64124W        W32487  40.985  22.079  13.451
64125W        W32488  25.479  26.166  12.937
64126W        W32489  22.168  26.162  11.485
64127W        W32490  35.100  28.616  12.854
64128W        W32491   2.449  39.883   2.374
64129W        W32492  42.822  22.728   3.238
64130W        W32493   7.796  31.450   1.349
64131W        W32494  37.563  16.622  10.940
64132W        W32495   1.965  44.458  11.980
64133W        W32496  34.930  17.661   1.716
64134W        W32497  36.872  17.168  14.824
64135W        W32498  25.656  15.634  10.425
64136W        W32499  21.601   0.301   3.752
64137W        W32500  35.496  31.583  12.434
64138W        W32501  13.146  32.623   3.794
64139W        W32502  15.290  34.599   2.702
64140W        W32503  17.583   6.275   2.733
64141W        W32504  29.518  30.615   4.662
64142W        W32505  34.949  18.102  14.500
64143W        W32506  25.054  18.231  13.548
64144W        W32507  18.173  31.917  10.519
64145W        W32508  27.577  32.135  10.920
64146W        W32509  21.071  17.257  11.891
64147W        W32510   8.353  33.895  12.485
64148W        W32511  17.723  33.035   2.222
64149W        W32512  35.525  29.143   4.622
64150W        W32513  26.563  28.019  12.942
64151W        W32514  38.871  27.474  12.363
64152W        W32515  15.761  25.594   0.321
64153W        W32516  33.515   7.782  13.839
64154W        W32517  23.106  40.328  14.334
64155W        W32518   0.252   2.826   2.893
64156W        W32519  30.616  34.887  12.542
64157W        W32520  33.086  11.624   4.237
64158W        W32521  25.546  36.946  13.338
64159W        W32522  30.975  41.885  14.295
64160W        W32523  41.464  11.846   4.695
64161W        W32524   5.724  19.117  11.882
64162W        W32525  20.530  18.602   2.895
64163W        W32526  21.065  32.011   0.260
64164W        W32527  16.255   1.895  10.955
64165W        W32528  35.911   7.371  11.916
64166W        W32529  39.532  15.193   0.303
64167W        W32530  42.834   9.205  14.289
64168W        W32531  37.933  23.108   1.395
64169W        W32532  36.971   1.974  10.963
64170W        W32533  12.159  39.959   4.176
64171W        W32534  22.556  35.399   2.738
64172W        W32535  12.840  10.231  10.632
64173W        W32536  28.103  29.429   2.368
64174W        W32537  33.515  26.521   2.306
64175W        W32538  16.263  16.661   1.329
64176W        W32539   1.778  20.736   1.710
64177W        W32540  26.013   8.692   3.758
64178W        W32541   1.267  15.644  11.415
64179W        W32542  16.785  36.498   3.265
64180W        W32543   5.281  13.838  12.895
64181W        W32544  35.598  43.773  11.886
64182W        W32545  32.598  31.092  13.404
64183W        W32546   3.950   4.928   0.740
64184W        W32547  19.670  23.559   2.350
64185W        W32548   5.367   7.299  13.343
64186W        W32549  34.962  30.145  11.476
64187W        W32550   2.284  10.161   0.285
64188W        W32551   5.816  20.623   1.221
64189W        W32552  32.947  32.443   1.771
64190W        W32553  44.861   0.762   3.659
64191W        W32554  44.867  33.954  10.510
64192W        W32555  43.414   8.372   1.695
64193W        W32556   2.309  32.556  11.973
64194W        W32557   9.648  38.826   0.728
64195W        W32558  38.936   7.773  11.065
64196W        W32559  22.159   9.803   4.598
64197W        W32560  31.589  16.781  12.417
64198W        W32561  31.419  15.166   4.668
64199W        W32562  43.892   6.343  11.075
64200W        W32563  39.443  40.042   2.405
64201W        W32564  17.187  30.482  14.507
64202W        W32565   2.412  42.872  14.480
64203W        W32566  41.022  20.181  11.581
64204W        W32567  19.634  24.139  13.898
64205W        W32568  23.133  41.866   1.913
64206W        W32569  19.697  27.988  13.415
64207W        W32570  15.771  11.709   2.766
64208W        W32571  27.467   8.228   1.323
64209W        W32572  26.661  40.434   3.329
64210W        W32573  10.300   9.706   1.808
64211W        W32574  23.028  29.046  11.115
64212W        W32575   8.802  13.640   3.650
64213W        W32576  33.976  42.794  11.594
64214W        W32577  31.896   3.416  10.125
64215W        W32578  27.061  23.513   2.804
64216W        W32579  23.128  28.575   0.936
64217W        W32580  29.962  38.488   0.958
64218W        W32581  14.707   5.813   0.391
64219W        W32582   1.770  21.730  11.044
64220W        W32583  21.747   9.778  11.393
64221W        W32584  38.959  41.974  13.511
64222W        W32585   0.871  41.530   2.196
64223W        W32586   8.276  41.537  10.981
64224W        W32587  19.142  30.422  13.342
64225W        W32588  26.983  31.920  14.928
64226W        W32589  15.763  23.145   3.209
64227W        W32590  28.541   7.885  14.772
64228W        W32591   0.986  10.285   1.381
64229W        W32592  15.596  23.544   1.223
64230W        W32593  34.898   1.244  12.055
64231W        W32594  34.485   4.810  10.911
64232W        W32595  15.103   8.353   2.192
64233W        W32596  33.401   9.229  14.365
64234W        W32597  37.456  19.638  11.892
64235W        W32598  21.118  14.131   4.139
64236W        W32599  17.583  11.829   0.789
64237W        W32600   6.886  16.567   2.204
64238W        W32601   9.225  15.592  12.361
64239W        W32602  29.597   8.399  12.358
64240W        W32603  40.885  21.172   0.349
64241W        W32604  30.966  38.353  14.405
64242W        W32605   9.762  27.577  11.519
64243W        W32606  25.668  26.522   0.343
64244W        W32607  40.920  33.532   2.788
64245W        W32608  36.458  27.594   2.286
64246W        W32609   0.308  22.621  13.445
64247W        W32610  33.441  21.071  12.086
64248W        W32611   9.368  34.099   2.188
64249W        W32612  34.486  16.640   2.675
64250W        W32613   1.414  43.305   4.343
64251W        W32614  32.949   7.360  13.492
64252W        W32615  12.807  34.958   0.428
64253W        W32616   1.303  18.633  14.843
64254W        W32617  35.410  41.503  12.023
64255W        W32618  44.948  10.867   3.689
64256W        W32619  19.176  42.497  12.036
64257W        W32620   9.802   8.793   3.249
64258W        W32621  14.206   0.885  13.472
64259W        W32622  35.898  29.089  11.439
64260W        W32623  44.935  23.658   2.692
64261W        W32624  19.052  25.975   0.809
64262W        W32625  33.876  10.251   3.847
64263W        W32626  21.261  35.542   4.728
64264W        W32627   7.306   0.302  11.955
64265W        W32628  40.370  24.557   0.844
64266W        W32629   9.170  23.554   0.290
64267W        W32630   2.835   5.424   2.350
64268W        W32631  41.014  30.093   1.742
64269W        W32632  30.651  26.129   2.688
64270W        W32633  17.163  26.543   0.253
64271W        W32634  12.152  10.785   4.667
64272W        W32635  33.922  17.291  14.790
64273W        W32636  16.766  13.791  13.453
64274W        W32637  19.591  18.100   4.223
64275W        W32638   7.209  18.725  12.372
64276W        W32639   6.306  43.792   0.287
64277W        W32640   4.281  12.806   3.299
64278W        W32641  15.203  11.755   1.213
64279W        W32642  24.641   5.802  11.550
64280W        W32643  21.087  33.389   2.289
64281W        W32644  16.143  40.941   3.226
64282W        W32645  29.463  12.349  14.505
64283W        W32646  35.476  32.444  14.762
64284W        W32647  20.045   4.844   4.266
64285W        W32648  32.629  31.091   1.315
64286W        W32649  27.091  36.970   2.277
64287W        W32650  35.540  35.447  14.843
64288W        W32651  15.587  31.545   4.599
64289W        W32652  40.863  34.470   0.789
64290W        W32653   4.233  41.453   4.345
64291W        W32654  33.533  29.079  12.481
64292W        W32655  41.984  21.215  13.419
64293W        W32656  25.210  17.765  14.355
64294W        W32657  32.068   1.242   1.833
64295W        W32658  34.118  22.621  14.435
64296W        W32659   5.202  20.086  12.905
64297W        W32660  18.741  29.005  13.343
64298W        W32661  43.495  43.281  12.966
64299W        W32662  40.879  23.021   4.677
64300W        W32663  39.555  34.949   9.977
64301W        W32664  26.079  37.337  12.954
64302W        W32665  20.675   7.385   3.313
64303W        W32666  26.966  21.636  13.946
64304W        W32667  44.341   3.743   2.808
64305W        W32668  40.954  12.156  12.023
64306W        W32669   1.368  24.619   3.828
64307W        W32670   0.259  44.379  10.582
64308W        W32671   5.207  14.710  10.640
64309W        W32672  19.123  39.882   2.854
64310W        W32673   8.691  33.054  10.518
64311W        W32674  37.047  19.626  13.457
64312W        W32675   3.916  33.125  13.033
64313W        W32676  20.248  13.680  14.803
64314W        W32677  27.547  36.578  14.476
64315W        W32678  28.151  35.940  11.373
64316W        W32679   2.920   0.819   1.357
64317W        W32680  17.179  17.647  11.113
64318W        W32681  35.520  15.810   1.866
64319W        W32682  12.204  42.453  12.497
64320W        W32683  43.816  10.824  11.008
64321W        W32684  18.647  20.151   2.820
64322W        W32685   5.259  22.652  12.534
64323W        W32686   1.456  20.684   3.372
64324W        W32687   2.919  12.116   3.279
64325W        W32688   1.307  31.949   3.853
64326W        W32689   5.746  14.267  12.580
64327W        W32690   5.803  32.125  11.386
64328W        W32691  37.537  14.179  13.040
64329W        W32692   2.351   2.269  11.432
64330W        W32693  37.538   7.884  13.927
64331W        W32694   1.300  39.899   3.708
64332W        W32695  32.904  11.805  13.860
64333W        W32696  25.512  22.574   1.879
64334W        W32697  27.061  12.330   3.760
64335W        W32698   6.275   3.769  13.369
64336W        W32699   1.945  27.581  14.327
64337W        W32700   9.275   4.229  10.588
64338W        W32701   1.960  12.780   3.334
64339W        W32702  37.489  38.550  11.059
64340W        W32703  40.913  44.302   1.333
64341W        W32704  44.502  27.125  13.515
64342W        W32705  41.406   8.300   3.226
64343W        W32706   8.771  15.661   1.342
64344W        W32707  24.157  18.195  11.405
64345W        W32708  31.523  34.455   0.852
64346W        W32709  30.465   9.356   5.251
64347W        W32710  29.162  36.445   0.397
64348W        W32711  12.733  40.457  14.965
64349W        W32712  12.794  28.649   4.720
64350W        W32713  27.586  21.101  12.007
64351W        W32714  39.351  34.071  11.391
64352W        W32715  18.190  35.509  12.074
64353W        W32716  10.877  26.189  12.059
64354W        W32717  28.679  36.013   0.381
64355W        W32718  14.176   6.360   4.782
64356W        W32719   8.781  41.937  13.499
64357W        W32720  17.129  31.521   3.384
64358W        W32721  18.086  13.213   4.292
64359W        W32722   4.791   0.298   1.402
64360W        W32723  18.130  12.818  11.491
64361W        W32724  21.721  10.792  13.391
64362W        W32725  18.100  36.589  11.547
64363W        W32726  18.089  43.319   2.841
64364W        W32727   7.374   1.758   1.846
64365W        W32728  30.055  16.732   1.218
64366W        W32729  33.993  40.473  11.092
64367W        W32730  17.777  44.423   1.280
64368W        W32731  25.653  25.564   1.247
64369W        W32732   2.339  40.545   4.293
64370W        W32733  30.484  15.820   2.799
64371W        W32734  25.053  35.460   4.653
64372W        W32735   7.298   8.190   3.301
64373W        W32736  23.037  24.627   1.882
64374W        W32737  44.490   5.214   0.479
64375W        W32738  10.749   6.315   4.276
64376W        W32739   5.300  30.535  10.924
64377W        W32740  43.374  34.554  11.016
64378W        W32741  11.355  23.195  12.034
64379W        W32742   2.721   2.385   0.360
64380W        W32743  26.956  29.477  10.936
64381W        W32744  36.864  37.382   2.757
64382W        W32745   6.904   1.819  10.890
64383W        W32746  25.499  38.368   1.784
64384W        W32747  14.305   3.375   0.908
64385W        W32748  19.674  37.436   3.772
64386W        W32749   2.943  36.454  12.016
64387W        W32750  26.008  26.546  12.825
64388W        W32751   3.713   1.781   2.330
64389W        W32752  26.161  20.691  11.404
64390W        W32753  33.393  38.566  11.608
64391W        W32754   0.828  43.894   3.785
64392W        W32755  23.228  28.004  10.024
64393W        W32756  13.267  19.237  12.549
64394W        W32757  24.073  16.586   3.648
64395W        W32758  14.624  40.864  12.840
64396W        W32759  32.522  11.653   3.248
64397W        W32760  37.972  24.111   0.875
64398W        W32761  10.656  17.253  13.948
64399W        W32762  34.872  39.388  12.501
64400W        W32763  24.684  15.662   1.731
64401W        W32764  39.404  17.222   2.330
64402W        W32765  34.579   6.854  11.920
64403W        W32766  28.019  17.123  11.081
64404W        W32767  13.339  19.697  13.010
64405W        W32768  14.280   3.337   4.281
64406W        W32769  28.109  43.853  13.951
64407W        W32770  24.484  33.584   3.629
64408W        W32771  24.691  41.811  12.554
64409W        W32772   5.225  21.196  13.464
64410W        W32773  26.036   3.280   0.940
64411W        W32774  14.730  12.153   1.918
64412W        W32775  27.572  23.026   1.412
64413W        W32776  19.591  36.510   0.275
64414W        W32777  38.339  17.624   1.889
64415W        W32778  30.123  25.164  11.874
64416W        W32779   1.843  15.123   2.273
64417W        W32780  21.637   1.741  12.470
64418W        W32781  20.724  18.093   0.886
64419W        W32782  21.562  18.573   4.693
64420W        W32783  19.755  27.949   1.323
64421W        W32784  15.179  14.595  10.582
64422W        W32785   2.841   4.712   3.670
64423W        W32786  26.974  30.966  12.021
64424W        W32787  39.435  33.123   0.815
64425W        W32788  42.844  26.008  14.927
64426W        W32789  23.551  24.588   0.815
64427W        W32790  13.818  32.512   0.758
64428W        W32791   7.845  15.259  10.643
64429W        W32792   3.367  40.483   5.121
64430W        W32793  36.022   7.910   0.869
64431W        W32794  27.034  34.560  12.913
64432W        W32795  38.829  40.900  10.498
64433W        W32796  31.908  40.939   3.716
64434W        W32797  37.407  39.887  14.834
64435W        W32798  35.891  25.553   4.185
64436W        W32799  40.449  18.240  12.832
64437W        W32800  23.992   2.339  12.996
64438W        W32801   0.363   6.855  13.798
64439W        W32802  42.799  15.756   4.271
64440W        W32803  32.045  36.932  11.518
64441W        W32804  42.294   2.773   3.321
64442W        W32805  35.593  10.165  10.940
64443W        W32806  30.983   3.790   1.916
64444W        W32807   5.848  11.668   2.765
64445W        W32808  34.492  15.621  12.952
64446W        W32809  30.971  27.536   3.253
64447W        W32810  24.216  25.061  13.908
64448W        W32811  13.119  39.330  12.055
64449W        W32812  41.538   0.250   3.857
64450W        W32813   8.890   8.667   0.908
64451W        W32814   0.920  19.168  11.090
64452W        W32815  12.788  20.076   0.883
64453W        W32816  31.117  16.155   3.806
64454W        W32817   4.809   3.358   1.721
64455W        W32818  32.544  33.912   1.715
64456W        W32819   6.752  11.300   2.792
64457W        W32820  12.613  21.728  10.441
64458W        W32821  29.943  32.021  13.834
64459W        W32822  32.959   9.248   4.661
64460W        W32823   6.199  21.252   5.117
64461W        W32824  15.811  39.459  12.352
64462W        W32825  20.214  24.178   3.722
64463W        W32826  43.944  16.228  14.986
64464W        W32827  17.116  21.542  11.393
64465W        W32828  23.104  25.127   3.247
64466W        W32829  14.269  26.652   1.259
64467W        W32830  42.032  38.972   2.804
64468W        W32831  34.000  29.134  10.999
64469W        W32832  17.079  20.117   3.811
64470W        W32833  41.980  13.608   0.805
64471W        W32834  37.064  38.011  11.416
64472W        W32835   4.912  26.208   4.259
64473W        W32836  32.562  27.516  12.053
64474W        W32837  14.793  12.705  14.790
64475W        W32838  24.614  26.134   3.833
64476W        W32839  27.601  42.450   0.382
64477W        W32840  41.500  11.785  11.472
64478W        W32841  30.549  37.378   2.262
64479W        W32842  40.501  18.238  14.031
64480W        W32843  19.151   3.368  12.534
64481W        W32844   0.954  26.108  14.437
64482W        W32845  37.568  36.432   1.247
64483W        W32846   1.369  43.875   0.782
64484W        W32847  35.483  27.532   4.702
64485W        W32848  26.963  41.477  10.549
64486W        W32849  37.923   7.912  13.331
64487W        W32850  13.676   7.836   3.688
64488W        W32851  41.977  28.934   1.830
64489W        W32852  42.928   4.889  11.546
64490W        W32853  19.219  11.146   0.406
64491W        W32854  31.453  41.403  14.469
64492W        W32855  36.428  25.167   2.874
64493W        W32856  37.486  11.337  12.486
64494W        W32857  11.365  19.200  12.470
64495W        W32858  27.148   3.236  11.606
64496W        W32859  35.874  19.247  12.923
64497W        W32860  33.874   5.877  13.403
64498W        W32861  15.255  18.595  12.499
64499W        W32862  23.141  18.094   0.475
64500W        W32863   5.757  26.674   1.427
64501W        W32864  40.370  15.248  10.518
64502W        W32865  40.943  35.537  10.471
64503W        W32866  34.065  44.319  13.373
64504W        W32867  16.612  41.312   4.354
64505W        W32868  25.050  39.840  14.760
64506W        W32869  15.214   2.897  13.535
64507W        W32870  14.814  32.563  12.411
64508W        W32871   0.479  29.438  14.479
64509W        W32872  15.607  19.546   2.789
64510W        W32873  12.687  27.022  11.065
64511W        W32874  13.218   7.872   4.151
64512W        W32875  16.097  18.145  10.101
64513W        W32876  24.528  25.144  13.047
64514W        W32877   3.951  30.655  14.805
64515W        W32878  20.549   2.321   0.939
64516W        W32879   3.776  19.069  14.885
64517W        W32880  14.174   8.351   0.320
64518W        W32881  22.088  31.563  13.320
64519W        W32882   4.353  33.545  12.530
64520W        W32883   5.821  18.763   1.787
64521W        W32884   2.786  27.660   4.287
64522W        W32885  33.534  35.095   3.694
64523W        W32886  31.063  36.952   0.245
64524W        W32887  44.830   9.662  14.909
64525W        W32888   6.227  38.459  14.793
64526W        W32889  38.551  37.962  13.505
64527W        W32890  22.098  28.131   0.333
64528W        W32891  18.743  25.112  12.449
64529W        W32892  20.250  14.103   9.998
64530W        W32893   6.405  27.068  12.848
64531W        W32894  12.778   7.363   1.831
64532W        W32895  12.711  18.120   4.702
64533W        W32896  35.487   9.165   3.290
64534W        W32897  13.319  38.892  10.905
64535W        W32898   5.872   2.314   1.746
64536W        W32899  26.008  24.064  11.989
64537W        W32900  12.651  28.501   1.888
64538W        W32901  28.165  11.351  14.511
64539W        W32902  14.250  37.563   4.238
64540W        W32903  25.507  13.715   0.956
64541W        W32904   9.772   5.814  11.076
64542W        W32905  42.282  44.756   3.686
64543W        W32906  14.194  34.577   2.415
64544W        W32907  13.701  36.591  11.420
64545W        W32908  22.640  26.009   1.328
64546W        W32909  17.209  17.287   2.747
64547W        W32910  22.552  35.554  14.847
64548W        W32911  19.135  19.210   0.871
64549W        W32912  17.193  19.092   2.698
64550W        W32913  40.866  16.660  11.939
64551W        W32914  31.910  10.856  10.559
64552W        W32915  23.597  25.483   4.215
64553W        W32916   7.218  25.478   0.816
64554W        W32917  40.960  43.410  14.786
64555W        W32918   3.906  17.221   2.713
64556W        W32919  35.535   6.717  11.488
64557W        W32920  18.205  33.582   2.341
64558W        W32921  26.553  29.939  12.075
64559W        W32922   2.428  25.641   0.948
64560W        W32923  28.513  11.859  11.491
64561W        W32924  29.605  23.537  12.349
64562W        W32925  32.484  16.573  14.973
64563W        W32926  24.554  26.008   0.317
64564W        W32927  31.554  35.591   4.617
64565W        W32928   4.289  28.649  10.550
64566W        W32929  21.229  28.559  12.473
64567W        W32930  42.355  33.506  12.908
64568W        W32931  26.565  40.471   2.871
64569W        W32932  15.102   6.883  11.862
64570W        W32933  26.641  37.431   9.925
64571W        W32934  19.263  42.371  13.525
64572W        W32935   6.344  33.088   1.817
64573W        W32936  21.513  39.903   1.854
64574W        W32937  15.805  25.561  12.346
64575W        W32938  44.450  35.498   0.860
64576W        W32939   6.766  29.005   3.712
64577W        W32940  13.138   9.151  12.498
64578W        W32941  44.921  18.287   3.742
64579W        W32942  38.351  36.082   0.767
64580W        W32943   1.261   0.858  12.482
64581W        W32944  22.671   6.680   3.317
64582W        W32945  35.002  34.107   1.851
64583W        W32946   6.811  12.627  11.905
64584W        W32947   2.307  29.441   4.652
64585W        W32948  15.731   3.260   2.188
64586W        W32949  11.272  27.545   2.263
64587W        W32950  15.581   5.370   1.854
64588W        W32951  24.482  38.011  14.455
64589W        W32952  21.556  18.070  11.601
64590W        W32953  33.966   5.872   1.420
64591W        W32954  19.150  16.233  11.105
64592W        W32955  12.342   7.895  13.865
64593W        W32956  35.480  28.157   0.358
64594W        W32957  32.429  18.609   0.341
64595W        W32958   5.713   4.744  12.057
64596W        W32959  28.022  19.693   0.793
64597W        W32960  21.133   7.278   2.200
64598W        W32961  13.700  28.510  11.986
64599W        W32962  14.100  35.554   3.191
64600W        W32963  26.516  27.022   1.753
64601W        W32964  32.481  33.033  13.508
64602W        W32965  15.813   2.469  12.922
64603W        W32966  34.957   4.410   3.189
64604W        W32967  37.449  24.152  12.931
64605W        W32968  27.965  33.515  10.996
64606W        W32969  32.139  28.116   4.706
64607W        W32970  13.148  15.664  13.064
64608W        W32971  10.669  40.007  12.381
64609W        W32972  11.761  43.945   2.850
64610W        W32973  32.618  30.158   0.407
64611W        W32974  44.464  25.119  14.835
64612W        W32975  26.692   9.156   0.475
64613W        W32976  15.100  43.404  12.859
64614W        W32977  38.040  18.773   1.740
64615W        W32978  29.042  44.812   2.767
64616W        W32979  29.667  13.725   4.619
64617W        W32980  31.957  12.255  13.868
64618W        W32981   7.395  33.967   0.318
64619W        W32982  32.542  12.617  14.447
64620W        W32983   0.368  31.622  12.096
64621W        W32984  19.050  11.683   1.707
64622W        W32985  33.019  35.002   4.272
64623W        W32986  26.079  36.534   4.115
64624W        W32987  18.581   1.280   4.320
64625W        W32988  15.210  30.043  14.776
64626W        W32989  15.781  31.044   1.753
64627W        W32990  33.568  12.646   2.331
64628W        W32991  44.934  37.080  10.404
64629W        W32992  39.888  42.828  11.403
64630W        W32993   7.706   8.297   2.416
64631W        W32994  36.354   4.246   4.339
64632W        W32995   5.711   0.319   0.408
64633W        W32996  15.768   5.829   0.743
64634W        W32997  33.094   4.895  13.042
64635W        W32998  19.150  34.470  14.983
64636W        W32999  14.187   9.687   3.778
64637W        W33000   2.789  19.084   4.145
64638W        W33001   9.676  32.415  13.383
64639W        W33002  11.791  10.153   2.369
64640W        W33003  39.340  31.067   3.632
64641W        W33004  21.163  17.562   0.954
64642W        W33005  40.872  44.950   1.724
64643W        W33006  39.814  24.614  11.051
64644W        W33007   6.189  31.953   4.744
64645W        W33008   9.667  20.157   2.261
64646W        W33009  19.093  37.382  14.984
64647W        W33010  36.432  24.573   4.300
64648W        W33011   0.433   3.263   4.170
64649W        W33012   3.339   5.848  14.857
64650W        W33013   6.756  21.602   1.864
64651W        W33014   5.269  44.325  14.780
64652W        W33015  14.120   6.335  11.467
64653W        W33016  36.928  12.835  14.869
64654W        W33017  29.564   6.688   2.356
64655W        W33018  30.132  37.408   3.265
64656W        W33019  28.435  24.725   2.779
64657W        W33020   2.909  16.314  10.902
64658W        W33021  31.117  40.362   0.397
64659W        W33022  21.690  32.092  10.442
64660W        W33023  16.091   0.298  11.885
64661W        W33024  38.971  31.976   1.251
64662W        W33025  26.591  22.173  10.935
64663W        W33026  36.047  11.792  12.870
64664W        W33027   6.297  33.602   4.727
64665W        W33028  15.604   9.184  10.525
64666W        W33029  18.763  30.533  10.904
64667W        W33030  15.299  10.286   3.226
64668W        W33031  31.121  41.312   1.800
64669W        W33032  32.544   4.813  13.938
64670W        W33033  30.435  39.351  11.034
64671W        W33034  26.139  12.243   2.897
64672W        W33035   6.315  36.371  10.977
64673W        W33036   3.724  32.615  13.887
64674W        W33037   6.404  31.052  14.876
64675W        W33038  17.559  23.055  10.930
64676W        W33039  19.692  17.762   1.856
64677W        W33040  40.047  34.453  13.943
64678W        W33041  35.930  23.547   2.807
64679W        W33042  41.838  11.682   1.856
64680W        W33043  35.972  17.168  13.516
64681W        W33044  11.182   6.777   1.222
64682W        W33045   1.932  26.114   3.146
64683W        W33046  40.530   3.782  12.362
64684W        W33047  36.555  29.979  11.052
64685W        W33048  34.381  38.985  12.365
64686W        W33049  34.554  42.813  13.039
64687W        W33050  15.783  35.912   0.927
64688W        W33051  27.494  34.383   3.823
64689W        W33052  40.822  31.015  10.948
64690W        W33053  41.943  38.522   1.823
64691W        W33054  41.535  20.765   2.253
64692W        W33055  24.579   1.785  11.386
64693W        W33056  35.426   5.368   4.688
64694W        W33057  32.404  44.262   9.666
64695W        W33058  27.984  18.214  14.400
64696W        W33059  11.798  35.964  10.547
64697W        W33060  30.613  22.162   2.897
64698W        W33061  26.635  39.497  11.478
64699W        W33062  16.687  30.970   0.750
64700W        W33063   2.770   5.297   2.696
64701W        W33064  41.940  40.912  13.483
64702W        W33065  10.843  15.622  13.795
64703W        W33066  10.722  13.668  13.849
64704W        W33067  27.083  35.018   3.859
64705W        W33068   3.238  22.247  10.494
64706W        W33069  24.554  31.631  13.501
64707W        W33070  26.980  14.750   4.216
64708W        W33071  27.024  24.606  13.817
64709W        W33072  14.729  39.481  12.579
64710W        W33073  42.941  24.022  14.496
64711W        W33074  39.370  31.571   3.724
64712W        W33075  13.801  26.468   2.241
64713W        W33076   9.362  26.031  14.863
64714W        W33077  12.625   4.236   2.812
64715W        W33078  33.611   3.253   4.233
64716W        W33079  42.417  35.515   3.666
64717W        W33080  28.953   8.340  14.826
64718W        W33081  33.883  28.097   2.807
64719W        W33082   0.748  28.953  14.919
64720W        W33083  41.013  35.970  11.385
64721W        W33084  10.346   7.276   4.826
64722W        W33085  20.080  10.164  11.412
64723W        W33086   4.357  17.592   3.672
64724W        W33087   6.837  37.081  12.348
64725W        W33088  28.509   8.170  14.020
64726W        W33089  38.925  25.639   3.373
64727W        W33090  14.691  24.721  13.522
64728W        W33091  31.433   0.451  13.991
64729W        W33092   9.670  27.507   2.895
64730W        W33093  27.680  30.546  14.777
64731W        W33094  41.529  39.024  10.433
64732W        W33095  20.679  20.115   3.217
64733W        W33096  18.232  33.532   4.720
64734W        W33097   0.259  26.459   2.225
64735W        W33098  28.944  30.000  12.021
64736W        W33099  35.427  44.876   3.750
64737W        W33100  10.805  22.235  14.830
64738W        W33101   4.855  31.484   2.260
64739W        W33102  13.184  34.076   1.443
64740W        W33103  23.578  34.593   1.888
64741W        W33104   1.824  30.439  11.468
64742W        W33105  25.630   3.288   4.236
64743W        W33106  23.169  28.669   1.720
64744W        W33107  30.096  18.080   0.429
64745W        W33108  22.037  21.035  12.484
64746W        W33109   7.843  33.044   2.234
64747W        W33110  44.498   9.346  13.922
64748W        W33111   5.808  17.732  13.452
64749W        W33112  32.029   0.297  14.903
64750W        W33113  44.275  17.638  12.506
64751W        W33114  22.672  33.899  14.955
64752W        W33115  24.227  17.786   2.731
64753W        W33116  43.472  10.848   3.760
64754W        W33117  16.265  17.681   3.162
64755W        W33118  34.056  18.656  13.311
64756W        W33119   5.324  34.025   1.925
64757W        W33120  38.336  39.819   1.875
64758W        W33121  28.480  28.064   2.674
64759W        W33122   3.240  11.129   1.388
64760W        W33123  43.377  10.806  12.505
64761W        W33124  25.668  12.267  11.919
64762W        W33125  38.947  34.923  14.959
64763W        W33126   9.379  42.403   2.706
64764W        W33127  33.387  16.681   2.706
64765W        W33128   0.449  23.115  13.973
64766W        W33129  21.587   0.803   1.890
64767W        W33130  29.639  36.353  10.484
64768W        W33131  31.995  26.956  12.001
64769W        W33132  31.094  26.083  11.518
64770W        W33133  20.695  37.485   4.301
64771W        W33134  15.160  33.515   0.345
64772W        W33135   6.807  17.680   2.824
64773W        W33136   4.879  44.316   4.191
64774W        W33137   1.828  17.154   0.253
64775W        W33138   7.730   1.399   3.801
64776W        W33139  21.222  44.906   3.355
64777W        W33140  29.009  15.231   3.216
64778W        W33141  21.612   8.333  13.516
64779W        W33142  11.346   8.389  13.867
64780W        W33143  25.995  41.902   4.301
64781W        W33144  36.845   7.205  13.818
64782W        W33145   7.724   7.391   0.333
64783W        W33146  19.644   9.699  12.025
64784W        W33147  19.605  25.485   0.403
64785W        W33148  36.384  30.417   2.192
64786W        W33149  39.541  17.781  11.952
64787W        W33150  42.776   5.810  10.428
64788W        W33151  15.190  38.892   3.674
64789W        W33152   9.755   4.752  13.370
64790W        W33153  35.550  26.656  11.905
64791W        W33154  35.014  36.423   3.224
64792W        W33155   2.406   3.274  14.380
64793W        W33156  19.652  16.801   3.262
64794W        W33157  33.434  11.782   3.706
64795W        W33158  26.118   9.781   3.744
64796W        W33159   1.864  42.519   3.256
64797W        W33160  13.327  36.405  14.797
64798W        W33161   9.880  11.145  12.574
64799W        W33162  25.709   0.820  12.953
64800W        W33163   0.891  37.043  11.002
64801W        W33164   4.435  31.983   4.264
64802W        W33165  30.514   8.890   4.143
64803W        W33166  36.004  20.094  14.960
64804W        W33167  37.538   0.919  11.882
64805W        W33168  39.479   7.682   2.283
64806W        W33169  34.528   2.275   4.780
64807W        W33170  15.156  30.944   3.679
64808W        W33171  23.095   7.225   0.967
64809W        W33172  38.384  31.609  14.434
64810W        W33173  17.061  21.741  12.043
64811W        W33174  27.135  25.573  13.855
64812W        W33175   6.830  19.244   2.271
64813W        W33176  22.244  32.894   1.394
64814W        W33177  24.613  16.131  11.061
64815W        W33178  42.977  34.027   0.369
64816W        W33179  31.480   7.299   1.432
64817W        W33180  29.103  29.600  14.495
64818W        W33181  23.669  23.156  14.895
64819W        W33182  40.390   3.355   2.882
64820W        W33183  38.028  26.681   2.832
64821W        W33184   7.838  26.530   2.200
64822W        W33185  16.247  35.880   2.827
64823W        W33186  16.795   5.835  14.512
64824W        W33187  34.556   3.310   1.228
64825W        W33188  37.071  29.648   3.871
64826W        W33189  18.678  21.584   3.286
64827W        W33190  13.275   1.257  13.360
64828W        W33191  23.096  40.938   2.273
64829W        W33192   2.747  44.869   1.798
64830W        W33193  24.517  21.570   2.299
64831W        W33194  30.100   2.873   1.708
64832W        W33195  14.223  41.013   1.919
64833W        W33196  16.214  13.600  14.904
64834W        W33197  10.762  44.446   2.409
64835W        W33198  30.992  43.319   4.687
64836W        W33199   9.671   0.288   1.334
64837W        W33200  25.196  24.021  12.002
64838W        W33201   9.697  30.088  13.967
64839W        W33202  41.348  12.251  14.295
64840W        W33203  12.199  34.978  12.519
64841W        W33204  42.030  10.737  13.933
64842W        W33205  40.317  24.983  12.506
64843W        W33206  40.803  17.075  11.488
64844W        W33207  30.062  11.791  12.379
64845W        W33208  30.146  41.465  14.470
64846W        W33209   3.276  42.453  10.458
64847W        W33210  36.489  12.246   3.382
64848W        W33211  21.731   0.815   4.622
64849W        W33212  15.276  43.909   2.306
64850W        W33213  29.615  18.127  13.944
64851W        W33214  25.067  10.832   2.816
64852W        W33215  20.566  21.583  13.488
64853W        W33216  44.461  22.536   5.179
64854W        W33217   2.779  24.584   2.213
64855W        W33218  12.853  11.746  13.804
64856W        W33219  34.108  36.025  10.495
64857W        W33220  39.874  25.993   3.236
64858W        W33221   3.776  13.752  14.440
64859W        W33222  25.145   3.215   4.114
64860W        W33223  30.513  34.086   1.366
64861W        W33224   7.252  44.300   2.341
64862W        W33225  31.644  18.113  10.420
64863W        W33226   5.879  34.867  10.504
64864W        W33227   3.736  35.500  14.815
64865W        W33228  11.169  40.038  12.958
64866W        W33229   9.193  14.325   4.766
64867W        W33230  26.007   4.440   3.737
64868W        W33231  27.587  39.031  12.831
64869W        W33232   5.695   0.400  14.482
64870W        W33233  41.452  31.631  11.876
64871W        W33234  20.634  27.967   0.728
64872W        W33235   4.306  27.188  12.964
64873W        W33236   6.790  22.203   3.155
64874W        W33237  12.347   6.811  12.363
64875W        W33238   7.800  27.000   3.814
64876W        W33239  37.374  24.103   4.344
64877W        W33240   9.837  22.662  13.797
64878W        W33241  27.077   7.410  10.435
64879W        W33242   5.203  15.646  12.860
64880W        W33243  41.479  31.481  11.432
64881W        W33244  15.627   2.340  13.960
64882W        W33245  25.037  29.496   2.270
64883W        W33246  14.706  34.996  14.864
64884W        W33247  22.675  34.580   0.920
64885W        W33248  27.970  13.105  13.506
64886W        W33249  38.938   6.914   1.252
64887W        W33250  17.568  20.676   1.269
64888W        W33251  28.003  44.801   1.768
64889W        W33252  33.027  39.892  12.438
64890W        W33253  44.920  12.178   1.335
64891W        W33254  27.524  43.805   2.767
64892W        W33255  12.251  34.970  11.543
64893W        W33256  32.126  41.942  14.983
64894W        W33257   8.320  26.701   2.207
64895W        W33258  24.031  28.443   2.258
64896W        W33259  34.589  34.044   0.266
64897W        W33260  18.760  23.533   4.294
64898W        W33261   1.344  32.589   2.833
64899W        W33262  15.084  44.390  11.992
64900W        W33263   0.829   7.251  12.087
64901W        W33264  15.762  21.713   1.802
64902W        W33265  31.420  27.046   2.767
64903W        W33266  25.585  36.887   3.728
64904W        W33267  36.373   0.361  12.952
64905W        W33268   3.366  36.492   3.232
64906W        W33269  43.307  33.082   3.756
64907W        W33270  24.011   3.813  13.870
64908W        W33271  44.806  31.972   5.084
64909W        W33272  23.193  35.913   1.931
64910W        W33273  44.374   5.752  13.976
64911W        W33274   2.930  16.166  12.487
64912W        W33275  39.356  21.228  14.895
64913W        W33276  13.236  23.593  11.873
64914W        W33277  19.258   6.822   0.799
64915W        W33278  43.398  18.084   0.354
64916W        W33279   6.326  10.825  13.417
64917W        W33280   6.182  25.088   1.317
64918W        W33281  35.579  40.864   3.380
64919W        W33282  42.360   3.399  13.341
64920W        W33283  25.611  43.371  13.382
64921W        W33284   0.353  20.720  14.809
64922W        W33285  39.901  23.008   1.882
64923W        W33286  18.149  40.437   4.617
64924W        W33287   9.681  26.590  14.878
64925W        W33288  43.888  27.608  11.510
64926W        W33289  42.301   4.842   3.234
64927W        W33290   2.742  19.221  11.893
64928W        W33291  35.571  34.002  14.361
64929W        W33292  26.084  41.898  12.948
64930W        W33293   7.364  17.564  11.046
64931W        W33294  20.255  35.998   4.128
64932W        W33295  21.115  19.090  10.470
64933W        W33296  28.603  41.450   0.782
64934W        W33297  42.452  21.518  12.384
64935W        W33298  13.750  17.070   3.700
64936W        W33299  29.039  29.042  11.555
64937W        W33300  28.024  31.619  11.591
64938W        W33301  14.331   2.268  10.936
64939W        W33302  14.754  28.183  14.814
64940W        W33303  41.303  44.753   1.353
64941W        W33304   3.930  36.413   3.848
64942W        W33305  20.063  18.134   1.339
64943W        W33306   5.409  35.546   1.775
64944W        W33307  17.785  28.477   3.857
64945W        W33308  32.047  42.965  13.949
64946W        W33309  36.548  22.677   0.459
64947W        W33310  33.994  11.328   4.827
64948W        W33311  23.196  22.109  11.093
64949W        W33312   8.776   8.758  12.009
64950W        W33313  23.563  39.378  10.597
64951W        W33314  38.820  13.700   0.793
64952W        W33315   8.810  18.144   3.686
64953W        W33316  43.277  22.540   3.808
64954W        W33317  26.532   0.289  12.956
64955W        W33318   0.950  24.699   3.246
64956W        W33319  42.799   8.657  14.786
64957W        W33320  11.783  21.643  12.005
64958W        W33321  16.630  21.693   2.849
64959W        W33322  20.028  22.157   2.409
64960W        W33323  27.112  29.969   2.239
64961W        W33324   2.266  12.746   2.787
64962W        W33325  25.567   4.937  11.000
64963W        W33326  40.009  36.567  13.955
64964W        W33327  19.170  22.128  13.505
64965W        W33328  42.411  11.685  12.934
64966W        W33329  36.502  26.193  13.337
64967W        W33330  31.554  26.467   0.457
64968W        W33331  20.141  38.451  11.041
64969W        W33332  37.846  19.715   0.864
64970W        W33333  18.629   1.326   3.804
64971W        W33334  17.610  43.900  12.853
64972W        W33335  40.538  18.163   3.785
64973W        W33336  23.568  12.702   1.919
64974W        W33337  10.171  43.412   1.921
64975W        W33338   0.850  31.513  12.428
64976W        W33339   2.818  34.602  14.837
64977W        W33340  30.037   4.811   0.936
64978W        W33341  39.912  14.778   4.350
64979W        W33342   4.242  27.638   1.333
64980W        W33343  18.292   6.860   1.366
64981W        W33344  24.157  44.418  14.777
64982W        W33345  26.969   8.266  11.549
64983W        W33346  20.207  22.715   2.410
64984W        W33347   6.410  35.964  14.419
64985W        W33348  26.018  12.291  10.466
64986W        W33349  24.063  17.297   5.279
64987W        W33350  17.724  43.459  11.897
64988W        W33351  26.126  26.544  12.046
64989W        W33352  17.743  24.516  12.973
64990W        W33353  13.112  17.198  11.527
64991W        W33354  22.543  13.198  13.997
64992W        W33355   1.241  20.222  11.590
64993W        W33356   6.282  29.658   2.744
64994W        W33357  24.678   5.878  12.522
64995W        W33358  14.300  32.004   4.298
64996W        W33359  36.009  28.637  14.831
64997W        W33360  33.440  28.156  11.495
64998W        W33361  39.319  26.549   2.760
64999W        W33362  21.667  30.125   0.267
65000W        W33363   0.457  17.175   1.767
65001W        W33364  29.429  21.207   3.630
65002W        W33365  19.661  39.491   1.445
65003W        W33366  39.405   1.304   1.866
65004W        W33367  23.733  36.568  14.822
65005W        W33368   7.849  40.797   4.194
65006W        W33369  24.161  28.679   2.687
65007W        W33370  29.955  22.245   0.391
65008W        W33371  36.365  34.916   4.653
65009W        W33372  34.523   2.270   1.856
65010W        W33373  29.528  37.877   3.697
65011W        W33374  12.283  43.932   4.135
65012W        W33375  26.152   2.413   2.718
65013W        W33376   2.363  35.868  14.833
65014W        W33377  41.032  20.200   1.844
65015W        W33378  44.943  12.821  11.917
65016W        W33379   8.713  20.715   1.859
65017W        W33380   3.422  32.416  12.979
65018W        W33381  21.046  14.165   1.444
65019W        W33382   7.830  27.604  12.910
65020W        W33383  16.141  33.012   3.339
65021W        W33384  44.001  28.088   1.247
65022W        W33385  26.536  38.343   1.358
65023W        W33386  44.920  20.135   2.258
65024W        W33387  27.476   4.369   2.185
65025W        W33388  10.290   5.819  11.383
65026W        W33389  32.959  41.298  11.938
65027W        W33390  30.436  30.537  12.927
65028W        W33391  21.090  40.852  14.954
65029W        W33392  29.091   6.420   0.271
65030W        W33393   7.795  43.426  12.013
65031W        W33394  23.573   2.825  10.631
65032W        W33395  10.878  34.049   4.139
65033W        W33396  30.158  18.253   2.731
65034W        W33397   6.338   9.763   3.378
65035W        W33398   8.795  43.787  12.017
65036W        W33399  34.537  23.134  13.804
65037W        W33400   9.688  34.990   4.774
65038W        W33401   6.863  36.459   0.351
65039W        W33402   3.280  34.439   3.807
65040W        W33403  12.654  25.024  13.838
65041W        W33404  24.011  38.880   5.309
65042W        W33405   3.255   7.375   1.812
65043W        W33406  18.274  23.646   2.878
65044W        W33407   5.400  12.848  13.528
65045W        W33408  39.342   7.679  14.285
65046W        W33409  23.180  26.464  13.436
65047W        W33410  27.155  33.890  13.882
65048W        W33411  18.085  32.527  12.867
65049W        W33412  21.673   8.270   0.929
65050W        W33413  33.491  17.267   1.752
65051W        W33414  26.674   0.756   5.115
65052W        W33415  38.892  32.565   4.613
65053W        W33416  32.969  17.160  12.578
65054W        W33417  40.307  30.424   2.895
65055W        W33418  22.012  12.264  10.577
65056W        W33419  13.321  24.693  10.943
65057W        W33420  37.084  26.096   3.844
65058W        W33421  18.547  23.625   1.698
65059W        W33422   8.898  42.894  11.529
65060W        W33423  31.437  13.134  10.413
65061W        W33424  10.701  23.541  10.567
65062W        W33425  23.523  18.068  12.460
65063W        W33426  38.934  16.109  13.871
65064W        W33427  14.772  29.516   3.177
65065W        W33428  33.950   2.795  10.517
65066W        W33429  39.984  26.062   0.798
65067W        W33430  37.888  14.822   0.419
65068W        W33431  33.969  13.304  13.048
65069W        W33432  36.890  13.196   4.185
65070W        W33433   0.767   4.403   2.696
65071W        W33434   6.371  21.519  14.894
65072W        W33435  38.982  14.594   2.212
65073W        W33436  26.482   7.798  14.805
65074W        W33437   4.323   4.713  12.905
65075W        W33438  34.020  40.428   1.882
65076W        W33439  39.911  17.749   4.801
65077W        W33440   2.751  10.733   1.388
65078W        W33441  21.230   5.284  12.460
65079W        W33442  33.116  33.963   4.186
65080W        W33443  17.685  32.396   4.213
65081W        W33444  33.995  40.977  11.107
65082W        W33445  23.728  15.116   2.382
65083W        W33446   6.211  17.785  11.605
65084W        W33447   7.223  43.003  13.520
65085W        W33448  37.418  37.912  12.883
65086W        W33449  26.092  15.596  13.984
65087W        W33450  19.052  38.437   2.395
65088W        W33451   7.333   1.445   0.795
65089W        W33452  14.791  34.460   2.856
65090W        W33453  36.905  35.407   3.367
65091W        W33454  30.445  29.429  11.073
65092W        W33455  17.608  29.090  12.420
65093W        W33456   4.922  18.286   1.848
65094W        W33457  29.604   6.318  11.867
65095W        W33458  42.822  25.516  12.446
65096W        W33459   3.712  29.480   2.835
65097W        W33460  41.977  29.495   0.291
65098W        W33461   2.914  15.691  13.455
65099W        W33462  10.692  26.629   2.412
65100W        W33463  27.037  40.956   3.673
65101W        W33464  17.561  43.790  14.463
65102W        W33465  16.693  16.641   1.933
65103W        W33466   3.302  38.562  11.980
65104W        W33467   5.781   1.885  13.028
65105W        W33468  27.958  33.007  13.348
65106W        W33469  25.616  27.124  13.029
65107W        W33470  27.069  33.095  11.577
65108W        W33471   0.930  28.005  14.882
65109W        W33472  15.600  26.179  10.503
65110W        W33473  27.446   3.865  14.798
65111W        W33474  28.992  34.052   3.761
65112W        W33475  12.809   2.941   3.257
65113W        W33476  32.026   5.259  10.531
65114W        W33477  32.568  35.868   5.183
65115W        W33478   5.361  18.606  12.083
65116W        W33479  14.592  30.987  13.060
65117W        W33480  35.401  34.089  12.844
65118W        W33481  18.185  23.720  13.430
65119W        W33482  29.160  34.398   3.239
65120W        W33483  10.861  20.221   2.348
65121W        W33484  36.871   0.469  14.827
65122W        W33485  40.363  32.044  10.617
65123W        W33486   1.297  36.426  10.469
65124W        W33487  40.024  42.931   1.387
65125W        W33488  44.309   3.875  12.385
65126W        W33489  33.471  42.898   5.195
65127W        W33490  42.445  39.532  13.894
65128W        W33491  41.323  26.497   1.275
65129W        W33492  21.254  20.672  12.018
65130W        W33493  24.062  41.937   1.430
65131W        W33494  38.992  38.892   3.218
65132W        W33495  23.220  27.988  14.367
65133W        W33496  18.764   0.414   4.744
65134W        W33497   6.781  11.830   0.954
65135W        W33498  40.051   6.689  12.016
65136W        W33499  21.098  44.439   0.877
65137W        W33500  39.343  11.797  14.922
65138W        W33501  27.077  15.217   4.728
65139W        W33502   3.849   3.215   1.759
65140W        W33503  31.575  39.816   0.909
65141W        W33504  28.170  41.022   3.358
65142W        W33505  34.912  13.329  14.989
65143W        W33506  32.630  31.591  13.802
65144W        W33507  31.096  26.142  10.431
65145W        W33508   1.916  29.019  10.430
65146W        W33509  42.844  44.423  14.876
65147W        W33510  15.720  36.370   1.905
65148W        W33511  36.530  22.542   5.273
65149W        W33512  43.001  32.454   0.841
65150W        W33513   8.166  26.041   3.385
65151W        W33514  39.948  42.819   0.813
65152W        W33515  33.917  27.059   1.900
65153W        W33516  20.123  31.152  12.062
65154W        W33517   4.916   6.873   0.762
65155W        W33518   4.842  43.882   4.157
65156W        W33519  34.577  12.344  10.946
65157W        W33520  26.682  11.779   4.201
65158W        W33521   4.746  32.915   1.867
65159W        W33522  42.298   8.322   0.823
65160W        W33523   9.331   4.440   0.746
65161W        W33524  42.516  11.285  13.374
65162W        W33525  26.520   5.262   1.241
65163W        W33526  21.668  18.750  14.351
65164W        W33527  20.272  43.996  14.406
65165W        W33528  43.433  39.831   3.232
65166W        W33529   5.205  33.447  13.982
65167W        W33530  21.140  27.491  10.015
65168W        W33531  20.159  42.915  11.871
65169W        W33532  13.298  11.181   2.205
65170W        W33533   1.381  32.131  10.416
65171W        W33534  20.685  17.795   0.365
65172W        W33535   2.779  26.118   1.846
65173W        W33536  22.560  24.101  10.502
65174W        W33537  30.048   0.329   0.766
65175W        W33538  19.681  38.834  11.065
65176W        W33539  23.673  10.260   1.233
65177W        W33540  18.098  19.739   2.268
65178W        W33541  26.692  44.989  12.950
65179W        W33542  42.863  43.857  13.480
65180W        W33543  13.726  12.782  14.389
65181W        W33544  16.235  35.095   1.323
65182W        W33545  16.075  26.975   4.618
65183W        W33546  28.938  11.746  14.379
65184W        W33547  43.013   9.821  11.534
65185W        W33548  33.511  27.193   3.708
65186W        W33549  30.031  37.510  10.946
65187W        W33550   2.786   1.353   3.183
65188W        W33551  31.465  32.930  14.362
65189W        W33552  14.616   0.753   3.768
65190W        W33553   3.785   3.337  14.298
65191W        W33554  19.545  37.859   4.351
65192W        W33555  19.680  25.057  14.403
65193W        W33556  35.073  21.551   3.305
65194W        W33557  41.358  16.782  10.406
65195W        W33558  15.092  18.692  13.492
65196W        W33559   2.351  35.953   1.296
65197W        W33560  31.937  40.870   2.339
65198W        W33561   8.728   6.813  13.037
65199W        W33562  16.306  16.253   3.813
65200W        W33563   5.203  36.990  11.862
65201W        W33564  22.050  39.008   1.321
65202W        W33565  31.593   0.982  11.081
65203W        W33566  13.350   1.850   1.822
65204W        W33567   1.384  31.068  13.490
65205W        W33568  12.238  29.566   3.659
65206W        W33569  42.362  11.261  12.436
65207W        W33570  36.417  41.823  12.457
65208W        W33571  10.180   8.855  14.965
65209W        W33572  36.003  18.690   0.478
65210W        W33573  34.445  39.842   3.318
65211W        W33574  11.833   4.367  11.114
65212W        W33575  18.198  43.275   0.766
65213W        W33576  42.465  24.980   0.331
65214W        W33577  17.717  29.491   4.777
65215W        W33578   4.932  41.993   1.914
65216W        W33579  27.184   5.261  13.328
65217W        W33580  13.784  14.133  11.002
65218W        W33581  11.214   3.227  11.953
65219W        W33582   0.988   0.814   3.375
65220W        W33583  28.070   5.800   0.747
65221W        W33584  15.295  11.215   0.922
65222W        W33585   7.690  40.812   3.175
65223W        W33586  36.929  36.983  12.935
65224W        W33587   0.794  36.576   2.311
65225W        W33588  27.530   2.312  14.866
65226W        W33589   9.372   6.822   1.706
65227W        W33590  26.040  24.158  11.380
65228W        W33591   2.456  14.292  11.107
65229W        W33592  39.986  37.960  12.931
65230W        W33593  42.976  15.733  13.371
65231W        W33594  33.923   6.742   0.869
65232W        W33595   8.699   2.363   4.257
65233W        W33596  42.381  27.551  14.428
65234W        W33597   5.280   3.851   0.330
65235W        W33598  10.246  12.348  12.489
65236W        W33599  23.027  39.446   1.707
65237W        W33600  28.170  22.727  10.152
65238W        W33601  18.242   6.283  14.465
65239W        W33602  30.080  27.610  10.629
65240W        W33603  32.952  24.228  11.112
65241W        W33604  27.626   8.805   2.838
65242W        W33605  11.860  13.716  13.446
65243W        W33606  43.996  34.912   3.159
65244W        W33607  14.718  14.188  14.018
65245W        W33608  42.438  16.578   4.765
65246W        W33609  17.244  32.437   1.411
65247W        W33610   4.841  43.444  11.495
65248W        W33611   2.941  12.285  11.589
65249W        W33612  36.946  33.418  13.525
65250W        W33613  14.653  19.659   2.794
65251W        W33614   4.883  18.682  13.520
65252W        W33615  12.619   5.712  13.471
65253W        W33616  25.982  44.955  12.931
65254W        W33617   5.918   6.886   0.455
65255W        W33618  25.712   6.258  10.638
65256W        W33619  33.963  40.971  12.520
65257W        W33620  16.740   3.774  12.935
65258W        W33621  36.511  22.742  12.540
65259W        W33622  24.127  34.422  14.471
65260W        W33623  35.439   1.247  14.338
65261W        W33624   7.817  26.514   5.163
65262W        W33625  15.120  44.300   4.790
65263W        W33626  16.171   5.769  13.347
65264W        W33627   4.941  27.672   4.775
65265W        W33628  34.587  34.586   3.694
65266W        W33629  40.827  22.110   4.719
65267W        W33630  40.862  43.464  12.921
65268W        W33631  19.667  37.489   1.337
65269W        W33632  20.230   9.767   4.796
65270W        W33633  10.308  34.100   2.888
65271W        W33634   8.379  21.088   2.884
65272W        W33635  40.515  31.568   3.257
65273W        W33636  26.154  15.152   3.720
65274W        W33637   9.776  24.027   1.404
65275W        W33638  25.139  15.759   0.761
65276W        W33639   4.215   4.393  12.056
65277W        W33640  24.490  14.189  12.976
65278W        W33641  24.601  24.084  13.953
65279W        W33642   7.870  25.679   1.697
65280W        W33643  44.500  13.127  11.491
65281W        W33644  30.459  25.632  10.983
65282W        W33645  43.500  35.424   1.812
65283W        W33646  31.119  29.041  11.974
65284W        W33647  40.998  15.692   3.296
65285W        W33648  15.780  42.485  11.998
65286W        W33649   8.188  13.211   0.388
65287W        W33650  37.485   8.828  14.361
65288W        W33651  30.110  30.134   3.360
65289W        W33652  25.165  31.511   3.169
65290W        W33653  33.121  44.431   0.412
65291W        W33654  22.514  26.650   2.663
65292W        W33655  32.969  17.082   3.154
65293W        W33656  10.258  29.099   2.183
65294W        W33657  21.754  41.537   1.402
65295W        W33658  15.795  34.078   4.605
65296W        W33659  19.078  16.269   4.342
65297W        W33660  31.541  40.007   4.318
65298W        W33661  35.997  30.987   5.239
65299W        W33662  36.353  44.914   1.251
65300W        W33663  42.789  31.003   2.385
65301W        W33664  33.105  38.404  13.374
65302W        W33665  19.211  15.321  13.479
65303W        W33666  28.507  44.838  11.510
65304W        W33667  37.873  23.999  13.003
65305W        W33668  44.490  39.009  13.444
65306W        W33669  24.685  42.527  12.844
65307W        W33670   2.448  21.052  14.930
65308W        W33671  26.954   6.249   4.328
65309W        W33672  31.034  10.294  14.387
65310W        W33673  17.177  18.642  12.509
65311W        W33674  42.337  34.946  10.516
65312W        W33675  24.570  24.713   2.211
65313W        W33676  15.140  18.789   1.755
65314W        W33677   4.908  42.914   5.086
65315W        W33678  28.954   2.247   0.313
65316W        W33679  26.621  30.922  14.286
65317W        W33680   7.326  44.395   4.621
65318W        W33681  11.824  30.565   1.375
65319W        W33682  23.667   8.883  13.510
65320W        W33683  43.349  15.697   9.924
65321W        W33684  35.573  29.047  13.793
65322W        W33685   2.377  38.334   2.318
65323W        W33686  41.390  35.019  10.419
65324W        W33687  35.448   7.200  11.040
65325W        W33688  26.955  43.897  12.384
65326W        W33689  43.433  43.468  12.503
65327W        W33690   0.909  19.536  13.393
65328W        W33691  16.103  19.644   2.301
65329W        W33692  14.683  20.268  10.606
65330W        W33693  37.979  41.944   3.176
65331W        W33694  13.610  17.687  11.892
65332W        W33695  22.570  19.245  14.420
65333W        W33696  37.953   9.683  12.382
65334W        W33697  25.117  17.726  13.311
65335W        W33698  39.025  32.989   1.802
65336W        W33699  38.957  44.780   2.873
65337W        W33700  30.446  12.260   2.880
65338W        W33701  34.972  27.053  11.535
65339W        W33702   2.323  25.713  12.071
65340W        W33703  21.213  11.735   5.283
65341W        W33704  40.807   3.933   0.244
65342W        W33705  11.683  27.156   1.866
65343W        W33706   2.289  30.085   4.231
65344W        W33707  19.630  10.803   0.468
65345W        W33708  37.888  22.707   2.709
65346W        W33709   7.330  33.490  13.547
65347W        W33710  30.458  30.077   0.367
65348W        W33711   6.878  41.355   2.818
65349W        W33712  11.797  34.562   2.391
65350W        W33713  24.207  42.327   4.612
65351W        W33714  14.829  35.490   3.824
65352W        W33715   5.390   2.776  12.092
65353W        W33716  44.503  20.614   1.726
65354W        W33717  36.378  12.837   0.405
65355W        W33718  11.837  18.674  13.979
65356W        W33719  32.562   7.792   2.275
65357W        W33720  10.636  17.684  14.879
65358W        W33721  12.181  20.571   4.613
65359W        W33722  33.492  36.931  12.934
65360W        W33723  38.386  12.718  12.469
65361W        W33724  24.640   4.924   4.814
65362W        W33725  10.711  13.696   4.643
65363W        W33726  14.680  20.152  13.040
65364W        W33727  14.589  10.836   3.652
65365W        W33728  26.601  21.249   9.996
65366W        W33729  37.339  17.160  12.925
65367W        W33730   4.332  36.484  11.891
65368W        W33731  27.075   1.253  14.373
65369W        W33732  10.383   2.919  13.458
65370W        W33733  41.994  10.178  14.415
65371W        W33734  29.592  43.500   3.190
65372W        W33735  18.127  36.925   3.710
65373W        W33736  37.058  21.138  14.281
65374W        W33737  12.271  41.519   1.884
65375W        W33738   4.248  13.179  11.972
65376W        W33739   7.204  35.063  13.536
65377W        W33740  43.470  19.546  14.335
65378W        W33741  17.654  15.648   3.745
65379W        W33742   1.432  37.379  10.980
65380W        W33743   1.434  35.103   0.404
65381W        W33744  29.448  15.288  12.084
65382W        W33745  43.388  44.441  10.489
65383W        W33746  29.035  29.470   1.767
65384W        W33747  44.263  38.562   0.810
65385W        W33748  29.084   4.805  12.546
65386W        W33749  13.674   6.321   0.312
65387W        W33750  10.257  17.260  14.345
65388W        W33751  24.543  18.211   4.135
65389W        W33752  15.758  37.967  12.977
65390W        W33753  36.078   0.968  14.406
65391W        W33754  18.226  21.636   2.199
65392W        W33755  34.106  12.800   4.156
65393W        W33756  12.642   0.378   0.365
65394W        W33757  23.208   7.204  12.919
65395W        W33758  15.819  21.597   2.360
65396W        W33759  37.963  16.192   3.371
65397W        W33760  11.708   3.325  12.953
65398W        W33761  20.560  31.592   0.308
65399W        W33762  21.050  28.510   2.865
65400W        W33763  38.559  26.578   4.836
65401W        W33764   2.313  32.085   2.698
65402W        W33765  19.717   9.395   4.288
65403W        W33766  41.415  31.967  11.883
65404W        W33767   2.729   1.318  11.420
65405W        W33768  41.511   2.924   4.648
65406W        W33769  30.148  35.014  11.004
65407W        W33770  32.107  30.984   2.715
65408W        W33771  11.792   9.323  12.867
65409W        W33772  28.654   4.431   1.857
65410W        W33773  25.612  16.619   3.716
65411W        W33774  23.176  19.093  11.913
65412W        W33775  18.590  43.821   1.933
65413W        W33776  21.716  35.961   4.151
65414W        W33777  38.991  30.626  14.301
65415W        W33778  21.099  39.908   2.292
65416W        W33779  15.241   6.810  14.843
65417W        W33780  13.199  18.095   3.314
65418W        W33781  36.359  43.304   4.335
65419W        W33782  22.064  23.500   3.300
65420W        W33783  35.445   0.940   3.220
65421W        W33784  27.057  17.670  11.414
65422W        W33785  19.649  22.561  14.888
65423W        W33786  24.508  37.056  14.761
65424W        W33787  33.539  40.874  11.093
65425W        W33788  28.103  38.074   1.225
65426W        W33789   9.857  14.666   3.380
65427W        W33790  36.012  41.412  13.895
65428W        W33791   1.968   9.234  14.993
65429W        W33792  19.040  26.993   2.821
65430W        W33793   4.808  14.630   1.870
65431W        W33794  22.105  30.550   1.725
65432W        W33795   4.218  19.559   0.943
65433W        W33796  10.254   3.359  11.036
65434W        W33797  21.604  42.007   0.892
65435W        W33798  11.817   4.376  14.878
65436W        W33799  13.298   4.371   1.287
65437W        W33800  24.501  37.876   3.246
65438W        W33801   3.355   3.787  14.804
65439W        W33802  28.940  32.614   4.153
65440W        W33803  12.841  25.151   2.280
65441W        W33804  24.207   4.848   4.693
65442W        W33805  15.135   3.340   3.645
65443W        W33806   2.726  28.598  12.883
65444W        W33807  16.736  12.636   1.860
65445W        W33808  25.529  12.719  10.488
65446W        W33809  10.710  39.043  10.107
65447W        W33810  36.924  10.847   1.887
65448W        W33811  41.456  43.855   2.790
65449W        W33812  20.689  32.001   4.676
65450W        W33813  36.999  44.289   2.714
65451W        W33814  12.776  33.431   0.910
65452W        W33815  35.911   7.285   1.437
65453W        W33816  25.493  32.525   0.399
65454W        W33817  10.803   5.250   3.676
65455W        W33818  42.453  17.567   2.205
65456W        W33819   3.237  39.974  10.071
65457W        W33820  29.063  30.428  11.887
65458W        W33821  40.051  31.533   1.434
65459W        W33822  44.887  38.028   3.739
65460W        W33823  25.004  16.798   3.196
65461W        W33824  26.515  19.754  11.528
65462W        W33825  27.072   0.871  11.608
65463W        W33826   7.800  35.510   4.144
65464W        W33827  10.713  13.614  14.835
65465W        W33828  18.619  15.736   3.292
65466W        W33829  38.934  37.352  14.764
65467W        W33830   9.292   7.870  14.013
65468W        W33831  15.639  17.761  10.494
65469W        W33832   8.265   5.920  13.439
65470W        W33833  40.386   9.154  13.325
65471W        W33834  33.016  19.659  12.892
65472W        W33835  36.058  15.729   4.328
65473W        W33836  23.613  32.439   4.716
65474W        W33837  14.314  34.536  10.523
65475W        W33838  32.948  29.443  12.026
65476W        W33839   3.733  31.911  13.884
65477W        W33840  36.402  36.350  14.410
65478W        W33841  22.129  27.944   2.376
65479W        W33842  13.772  17.647   9.608
65480W        W33843  12.354  32.600  10.617
65481W        W33844  41.852  23.582   2.370
65482W        W33845  13.145  14.828  11.508
65483W        W33846   4.760  18.071  12.358
65484W        W33847  13.350  13.240  13.926
65485W        W33848  20.121   4.916  12.409
65486W        W33849  43.805  36.365  14.797
65487W        W33850  12.677  30.461   1.367
65488W        W33851  34.966  22.550   2.803
65489W        W33852  39.925  25.146   0.427
65490W        W33853  44.401  35.052   4.765
65491W        W33854  29.576  11.754  14.862
65492W        W33855  28.104   8.287   3.705
65493W        W33856  38.885   2.277  12.828
65494W        W33857  26.017   1.345  11.532
65495W        W33858  39.555  28.519   1.784
65496W        W33859  15.744  36.429   0.247
65497W        W33860   2.470  43.807  10.500
65498W        W33861   0.467  32.576   4.628
65499W        W33862   2.459   5.420   4.667
65500W        W33863  34.879   2.923  11.385
65501W        W33864  29.487  14.727  14.363
65502W        W33865  13.792  22.093  14.895
65503W        W33866  33.442  19.281  14.366
65504W        W33867  13.834  20.116  13.979
65505W        W33868  31.988  42.496   4.277
65506W        W33869  27.639  34.089  11.049
65507W        W33870  36.975   7.702   3.316
65508W        W33871  17.163  34.891  13.890
65509W        W33872  28.074  43.382   3.328
65510W        W33873  39.825  24.063   0.477
65511W        W33874  34.564   8.731  12.566
65512W        W33875  31.970  44.876   0.361
65513W        W33876  26.156   9.709   3.246
65514W        W33877  41.806   8.772   0.423
65515W        W33878   3.927  38.067  13.913
65516W        W33879  28.031   2.788   3.641
65517W        W33880  20.121  33.387   2.235
65518W        W33881  18.122  30.058   4.708
65519W        W33882  29.656  23.682   2.738
65520W        W33883  35.599  18.151   4.210
65521W        W33884  16.766  35.604   4.223
65522W        W33885  30.971  20.229   0.774
65523W        W33886  40.398  31.139   3.198
65524W        W33887  10.678  19.749   2.857
65525W        W33888  31.588   8.818  14.836
65526W        W33889  24.583   9.743  12.018
65527W        W33890  17.239  41.865  13.995
65528W        W33891  29.997   7.338   4.713
65529W        W33892  14.101  34.000   0.292
65530W        W33893   1.794   4.832   4.299
65531W        W33894  14.668   7.806  11.544
65532W        W33895  13.741  12.781  12.018
65533W        W33896   9.746   0.339   0.899
65534W        W33897  19.590  27.579  12.840
65535W        W33898   8.172  44.882   0.899
65536W        W33899   6.183   7.203  14.402
65537W        W33900  43.014   0.390  11.407
65538W        W33901  10.215  27.115   0.753
65539W        W33902  29.022   0.342   4.652
65540W        W33903   4.288   7.413   1.914
65541W        W33904   2.929  32.585  13.927
65542W        W33905  44.818   0.987  11.098
65543W        W33906  21.574  36.982  10.579
65544W        W33907  35.533  38.981   2.677
65545W        W33908   1.414  40.440   0.790
65546W        W33909  11.313  14.323  11.035
65547W        W33910   3.306  12.260  11.043
65548W        W33911  14.309  39.513   1.359
65549W        W33912  13.316  23.045  12.030
65550W        W33913   8.742   0.835  11.933
65551W        W33914  30.931   0.982   2.873
65552W        W33915  27.642  25.501   4.671
65553W        W33916  28.024  40.800  13.517
65554W        W33917  13.634  16.237  14.887
65555W        W33918  39.900  27.093   0.900
65556W        W33919  24.579  33.893  11.589
65557W        W33920  20.122  41.401  11.891
65558W        W33921  34.407  29.064   1.820
65559W        W33922  31.596  23.029  14.782
65560W        W33923  41.986  37.450  11.018
65561W        W33924  28.031  10.830  11.914
65562W        W33925   5.264  13.302  11.119
65563W        W33926  22.219  11.224   4.203
65564W        W33927  18.662  21.678  13.967
65565W        W33928  27.082  40.860  12.994
65566W        W33929  36.509  24.109  11.075
65567W        W33930  11.768  28.003   0.793
65568W        W33931  41.955  22.720   2.264
65569W        W33932   1.864  36.570   4.657
65570W        W33933  33.449  44.819   4.710
65571W        W33934   2.403   6.420   5.110
65572W        W33935  41.039  14.794  10.960
65573W        W33936  30.420  28.676  10.974
65574W        W33937  39.503   1.374   2.864
65575W        W33938  10.706   2.806   4.601
65576W        W33939  31.560  19.137  14.345
65577W        W33940   8.232  38.972   4.764
65578W        W33941  23.496  39.947  10.991
65579W        W33942  21.637  13.743  13.927
65580W        W33943  25.561  26.659   3.214
65581W        W33944  20.694  42.850  14.807
65582W        W33945  40.451  31.502   3.724
65583W        W33946  36.980  34.555   2.272
65584W        W33947  10.647  34.872   2.185
65585W        W33948  38.923   6.197   1.416
65586W        W33949  21.202  40.444  12.907
65587W        W33950  39.834  39.423   3.760
65588W        W33951  23.703  16.670  12.478
65589W        W33952  33.483  17.117  14.352
65590W        W33953  32.507  39.354   0.930
65591W        W33954   0.353  19.193  11.012
65592W        W33955  44.974  19.120  14.367
65593W        W33956  17.636  26.998  11.450
65594W        W33957  30.544  34.904   2.838
65595W        W33958  25.670   2.859  13.509
65596W        W33959   3.352  35.429  14.878
65597W        W33960  18.751  26.502   4.791
65598W        W33961  17.260  43.492   3.362
65599W        W33962  27.190   9.754  14.493
65600W        W33963  29.480  39.396  13.415
65601W        W33964  38.491  31.024  12.063
65602W        W33965  40.500  22.717   4.834
65603W        W33966  31.531   4.335   4.283
65604W        W33967  31.073   4.303  11.954
65605W        W33968  22.684  14.618   0.338
65606W        W33969  33.901   3.786   2.897
65607W        W33970  32.922  12.714  14.462
65608W        W33971   7.279  33.959   1.795
65609W        W33972  38.915  42.999  14.960
65610W        W33973  18.754  32.626   3.250
65611W        W33974  14.200  16.706  11.389
65612W        W33975  19.655   9.273  14.768
65613W        W33976  10.785   4.922   2.687
65614W        W33977  21.513  41.816   1.885
65615W        W33978   4.355   4.210  13.024
65616W        W33979  29.083  23.183  14.849
65617W        W33980   5.809  31.467  12.407
65618W        W33981  32.431  21.596  13.419
65619W        W33982  36.492   2.752   0.397
65620W        W33983  14.820  43.329   4.134
65621W        W33984  40.490  34.416   2.418
65622W        W33985   2.259  24.091   1.446
65623W        W33986  10.820   2.269   0.903
65624W        W33987  21.120  42.366  13.941
65625W        W33988   7.250   3.828   1.855
65626W        W33989  22.668   8.843   2.857
65627W        W33990  31.414  37.373   4.244
65628W        W33991  41.486  41.881   1.299
65629W        W33992   3.285  23.037  12.436
65630W        W33993  11.206   3.926   0.958
65631W        W33994   9.380  35.500  13.805
65632W        W33995  44.412   8.229  12.566
65633W        W33996  10.772  39.385   2.333
65634W        W33997  21.178  19.596  12.385
65635W        W33998  36.384  32.628   0.411
65636W        W33999  40.540   7.227   0.458
65637W        W34000  44.442  30.108  12.551
65638W        W34001  31.014  43.880  11.453
65639W        W34002  11.814  44.296  13.533
65640W        W34003  40.381  33.614  14.025
65641W        W34004  20.198  42.518   2.862
65642W        W34005   9.755  43.893  12.549
65643W        W34006  27.176   8.383   3.225
65644W        W34007  44.483  12.854  11.967
65645W        W34008  18.548   2.289   0.451
65646W        W34009  32.063  11.819  14.307
65647W        W34010  41.292  33.505   2.231
65648W        W34011  17.196   6.859   3.319
65649W        W34012  36.943   2.904  14.792
65650W        W34013  12.763  38.386  12.490
65651W        W34014   5.430  13.239  11.381
65652W        W34015  27.995   6.739  13.927
65653W        W34016  34.457  40.935   3.189
65654W        W34017  37.546  32.924   2.304
65655W        W34018  27.093  38.374  14.761
65656W        W34019   0.261  28.557   3.300
65657W        W34020  34.598   2.868  13.059
65658W        W34021  34.115  25.033  10.990
65659W        W34022  15.315  27.123  14.281
65660W        W34023  41.882  41.492   1.737
65661W        W34024  21.669   8.770  13.378
65662W        W34025   6.328   1.314   4.281
65663W        W34026   7.305   0.961   3.285
65664W        W34027   8.659  28.100  11.994
65665W        W34028  38.480   3.821  14.374
65666W        W34029   9.839   9.670   2.311
65667W        W34030  39.371  42.022   4.754
65668W        W34031  25.207  22.239  10.436
65669W        W34032  29.118  43.911   2.222
65670W        W34033  39.044  15.231  14.974
65671W        W34034  20.053   8.329   2.185
65672W        W34035  30.433  21.636  12.854
65673W        W34036  42.860  30.497   3.377
65674W        W34037  33.064  24.654   2.235
65675W        W34038  20.053  18.594  11.037
65676W        W34039  44.445  24.619   0.947
65677W        W34040  28.071   7.849   0.316
65678W        W34041  43.457  32.473  11.952
65679W        W34042  37.408   9.814   2.207
65680W        W34043  21.204  35.998   4.114
65681W        W34044   9.278   0.914  11.379
65682W        W34045  38.916  25.182   1.218
65683W        W34046  34.957  44.861  10.902
65684W        W34047  42.432  13.115  11.408
65685W        W34048  39.538  10.306   3.161
65686W        W34049   0.330  36.907  11.975
65687W        W34050  18.596  40.005   0.935
65688W        W34051  25.992  10.171   4.329
65689W        W34052   3.851  42.343   4.350
65690W        W34053   9.272  12.327   1.926
65691W        W34054  34.062  32.445  14.902
65692W        W34055  38.972  11.299   1.838
65693W        W34056   7.748  25.188  12.505
65694W        W34057  40.452  36.570  13.997
65695W        W34058  26.483  43.984   4.271
65696W        W34059  43.020  32.088  14.442
65697W        W34060  23.694  20.758   1.423
65698W        W34061  34.413  12.848   4.343
65699W        W34062  14.294  44.769   4.256
65700W        W34063  18.702  23.209  14.420
65701W        W34064  17.709   6.250   4.770
65702W        W34065   8.232  42.397   3.351
65703W        W34066  23.711  19.258  12.549
65704W        W34067  18.717  39.342   1.830
65705W        W34068  27.483  12.255  11.593
65706W        W34069  26.656  41.454   2.367
65707W        W34070   2.956  41.402  12.828
65708W        W34071  23.540  42.847   3.339
65709W        W34072  35.064  16.568  13.030
65710W        W34073  35.978  19.146  10.474
65711W        W34074  33.107   0.980   1.720
65712W        W34075  34.584  22.614   0.316
65713W        W34076   1.252  31.645   0.930
65714W        W34077   3.403   0.267  10.608
65715W        W34078   0.337  22.542   1.748
65716W        W34079  17.251  29.168   1.293
65717W        W34080  25.195  28.100   0.820
65718W        W34081  38.964  28.122   5.092
65719W        W34082  11.827   4.437  11.913
65720W        W34083  22.085  28.988  14.781
65721W        W34084   6.412  20.769  10.978
65722W        W34085  12.162  44.280  11.059
65723W        W34086   7.198  17.626   0.257
65724W        W34087  22.090   1.340   3.680
65725W        W34088   7.333  38.496   1.351
65726W        W34089  39.539  40.963  13.391
65727W        W34090  11.843   3.403   0.851
65728W        W34091  41.013  42.432  11.922
65729W        W34092  27.119   4.248  10.449
65730W        W34093   2.353  25.114  12.578
65731W        W34094  12.126  31.571  14.378
65732W        W34095  19.105   0.426  13.881
65733W        W34096  39.966  38.495   3.340
65734W        W34097  14.631   9.850  14.829
65735W        W34098  16.252   3.304  13.062
65736W        W34099   7.875  22.612   1.814
65737W        W34100   7.262  22.529   2.761
65738W        W34101  28.619  30.933   3.178
65739W        W34102  33.391  15.237   0.462
65740W        W34103  39.055  40.842   0.881
65741W        W34104  25.571  18.213  10.913
65742W        W34105  31.909  43.986   2.751
65743W        W34106  25.078  23.116   2.224
65744W        W34107  40.817   5.250   0.732
65745W        W34108  30.535  38.051  12.503
65746W        W34109  15.194  36.848   1.441
65747W        W34110  40.000   4.725  13.832
65748W        W34111  44.442  12.815  14.026
65749W        W34112   8.836  33.592   5.203
65750W        W34113  26.621  42.423   0.728
65751W        W34114  39.820  22.527  11.859
65752W        W34115  28.464  25.082   4.300
65753W        W34116  42.911  35.573  13.807
65754W        W34117  27.039  32.013   2.390
65755W        W34118  18.585  12.238  14.009
65756W        W34119  23.509   6.249  11.909
65757W        W34120  43.474  32.570  14.477
65758W        W34121  11.823  21.026   4.170
65759W        W34122  29.924  41.921   1.233
65760W        W34123  42.950  19.065  11.381
65761W        W34124   2.331   5.256  14.956
65762W        W34125  10.848  31.541   3.767
65763W        W34126  40.425   1.313   4.159
65764W        W34127  39.502   6.414  12.481
65765W        W34128  38.854  37.903  13.371
65766W        W34129  18.233  27.115   4.205
65767W        W34130   9.732  38.043   0.831
65768W        W34131  39.837  40.304  14.377
65769W        W34132  27.974  18.189  11.102
65770W        W34133   2.959  12.343  14.996
65771W        W34134  34.552  37.386   5.170
65772W        W34135  24.590  23.015   4.805
65773W        W34136  19.268  24.192   3.672
65774W        W34137  27.587  21.646  12.828
65775W        W34138  20.267   6.203   1.410
65776W        W34139  32.534  16.140   2.893
65777W        W34140   8.274  44.777  11.422
65778W        W34141   6.206  21.635   3.153
65779W        W34142  40.419   4.927  11.382
65780W        W34143  10.245  11.306   5.228
65781W        W34144   9.310   8.838   1.251
65782W        W34145   0.913  43.473  13.859
65783W        W34146  13.831  28.650  14.912
65784W        W34147   1.925  41.838  14.494
65785W        W34148  33.438  37.486   4.644
65786W        W34149   1.394   8.859   2.711
65787W        W34150  35.980  33.039   2.745
65788W        W34151  32.966  19.575   4.667
65789W        W34152  41.855  37.380  11.861
65790W        W34153   7.843  43.874   0.314
65791W        W34154  14.810  30.157   3.383
65792W        W34155  28.040  13.146   0.734
65793W        W34156  28.111   2.815   1.836
65794W        W34157  20.070  35.558  11.469
65795W        W34158  37.006  10.740  13.490
65796W        W34159  40.046   9.365  14.857
65797W        W34160  30.927  28.171   4.640
65798W        W34161  18.262  43.841  13.925
65799W        W34162   1.297  22.586  12.918
65800W        W34163   6.876   0.900   0.330
65801W        W34164  12.850  10.327  13.314
65802W        W34165  32.512   2.258  14.404
65803W        W34166  19.134   8.254   0.730
65804W        W34167  26.605  29.038   2.337
65805W        W34168  39.952  22.113   1.699
65806W        W34169  38.373  13.620   2.801
65807W        W34170  40.802  24.181   4.266
65808W        W34171  44.961   5.235   4.613
65809W        W34172  24.584  12.742   0.859
65810W        W34173  17.103  17.305  13.919
65811W        W34174  11.813  15.715  14.759
65812W        W34175  34.025   4.239   1.849
65813W        W34176   4.305   0.300  11.092
65814W        W34177  16.583  27.569  14.961
65815W        W34178  23.179  36.590   4.669
65816W        W34179  36.900  29.148   0.870
65817W        W34180  27.554  16.296   4.637
65818W        W34181  29.099  43.326  14.947
65819W        W34182   1.310  44.329   1.824
65820W        W34183  35.550  16.218   3.803
65821W        W34184  13.741   4.360  13.404
65822W        W34185  29.627   7.901  13.513
65823W        W34186  28.939  18.671   3.639
65824W        W34187  24.137  18.293   4.173
65825W        W34188  21.655  23.617  13.461
65826W        W34189  31.045   4.881  14.935
65827W        W34190  32.565  15.803   4.325
65828W        W34191  31.444  16.720  14.892
65829W        W34192   9.378   3.722   3.750
65830W        W34193  26.534  12.764  12.384
65831W        W34194  10.155  16.089  14.980
65832W        W34195  16.080  21.749   4.150
65833W        W34196   0.941  41.004  13.951
65834W        W34197  38.401  25.060  11.398
65835W        W34198  37.082  17.071  11.949
65836W        W34199  24.201   1.959   0.926
65837W        W34200  23.637  38.459   2.269
65838W        W34201  22.233  14.748  14.375
65839W        W34202  22.662   2.371   2.302
65840W        W34203  22.553   4.389  13.380
65841W        W34204  13.131  42.807   3.147
65842W        W34205  13.124  24.535  12.987
65843W        W34206  14.716  28.945   3.199
65844W        W34207  38.374  19.760   5.137
65845W        W34208  27.132  25.076  11.877
65846W        W34209  37.407   0.458  10.012
65847W        W34210   5.235   7.246  12.824
65848W        W34211  32.433  40.442  11.873
65849W        W34212  35.462  18.663   3.853
65850W        W34213   3.334   6.762   0.265
65851W        W34214   0.338  35.562   0.270
65852W        W34215  32.946  14.732  14.363
65853W        W34216   7.837  44.760  13.543
65854W        W34217  44.941  32.496  14.419
65855W        W34218   0.790   2.952   2.360
65856W        W34219  29.661  14.163  12.889
65857W        W34220  10.273  41.879   4.718
65858W        W34221   3.342   7.797   4.208
65859W        W34222   4.861  43.830   2.764
65860W        W34223  19.767   9.720   4.196
65861W        W34224  34.935  31.093   2.697
65862W        W34225  17.269  40.990  10.463
65863W        W34226  34.969  40.017   2.329
65864W        W34227  28.134  31.423  10.116
65865W        W34228  34.884  32.441  11.945
65866W        W34229  38.445  35.897  14.496
65867W        W34230  27.109   2.412   0.877
65868W        W34231  24.518  39.395   3.325
65869W        W34232  24.002  15.761  13.840
65870W        W34233  27.528  18.164  10.631
65871W        W34234  38.026  25.599   3.646
65872W        W34235  37.455  22.686   2.748
65873W        W34236   6.197  42.469  14.999
65874W        W34237  27.636   4.385  10.641
65875W        W34238  15.615  31.646   2.810
65876W        W34239  16.743  39.857   4.818
65877W        W34240  31.580  44.971   0.412
65878W        W34241  39.457   7.331   3.787
65879W        W34242   4.249  32.063   5.105
65880W        W34243   3.731  13.267   3.232
65881W        W34244   8.774   7.278   4.833
65882W        W34245  14.103   7.782   3.324
65883W        W34246  32.056  11.675   3.842
65884W        W34247  29.659  43.870  12.432
65885W        W34248   6.329  28.627  10.076
65886W        W34249  23.217  30.585  14.810
65887W        W34250  30.640   5.333  11.871
65888W        W34251  26.671  39.023   0.745
65889W        W34252  18.242  44.389  12.454
65890W        W34253  19.595   5.868   0.748
65891W        W34254   0.261  21.222   2.824
65892W        W34255  31.513   7.878  10.463
65893W        W34256  38.370  27.959   1.733
65894W        W34257   5.739  31.475  12.065
65895W        W34258  44.835  33.539   1.753
65896W        W34259   0.828  16.277  11.908
65897W        W34260  17.217  22.122  10.074
65898W        W34261  31.578  32.441   0.412
65899W        W34262   4.760   5.314   3.347
65900W        W34263  25.983   6.778   0.258
65901W        W34264   9.821  40.505  12.402
65902W        W34265   6.692  23.992   0.962
65903W        W34266  20.218  30.068   0.861
65904W        W34267   2.358  32.121  13.486
65905W        W34268  20.084  14.720   0.346
65906W        W34269  18.701  22.734   4.214
65907W        W34270  15.163  35.904  14.315
65908W        W34271  28.633  35.512  12.064
65909W        W34272   8.849  33.479   2.850
65910W        W34273  34.952  32.503  13.471
65911W        W34274  20.129  37.977  14.911
65912W        W34275  34.578  41.855  11.054
65913W        W34276  24.044  43.269  12.008
65914W        W34277   5.312   4.338   0.880
65915W        W34278  36.021  37.947  14.309
65916W        W34279  32.038  20.763  14.433
65917W        W34280  33.967  26.506  10.554
65918W        W34281  11.657  29.667  10.479
65919W        W34282  14.151  26.549  12.360
65920W        W34283  41.331  42.447   0.922
65921W        W34284  17.202  40.305  14.960
65922W        W34285  29.508  24.099   3.261
65923W        W34286  22.020  41.029   3.366
65924W        W34287   7.826  14.824   3.859
65925W        W34288  43.488  19.661   3.194
65926W        W34289  13.737  21.122   0.393
65927W        W34290  13.625  21.114  13.407
65928W        W34291   4.419   6.314  10.901
65929W        W34292  12.691  26.077  10.445
65930W        W34293  35.015  13.265  10.949
65931W        W34294  21.633  26.619  11.452
65932W        W34295  38.961  13.158  11.934
65933W        W34296   4.712  12.754   4.307
65934W        W34297  36.525   9.286  13.827
65935W        W34298   3.942  44.956  13.323
65936W        W34299  36.384  16.588   2.331
65937W        W34300  22.140  37.572  11.499
65938W        W34301  34.399  33.591   4.773
65939W        W34302  31.902  24.562  13.896
65940W        W34303  38.943  22.058  10.621
65941W        W34304  30.651  37.516   1.888
65942W        W34305  35.428  44.434  10.901
65943W        W34306  22.124   5.687   4.158
65944W        W34307  33.448   0.835   4.138
65945W        W34308  24.483  42.969  13.383
65946W        W34309  31.422  12.745  10.925
65947W        W34310  36.445  26.061  10.904
65948W        W34311  30.649  16.182   3.726
65949W        W34312  13.828  42.880   3.379
65950W        W34313  38.548   3.274  12.394
65951W        W34314  43.462   7.244  11.867
65952W        W34315  30.955  16.596   4.766
65953W        W34316  35.078  23.585   0.444
65954W        W34317  36.504  28.576  11.012
65955W        W34318  14.613  39.471   2.893
65956W        W34319  13.206   4.311   2.384
65957W        W34320   8.766  44.770   0.469
65958W        W34321  28.104  42.980  10.019
65959W        W34322  26.509  39.551   0.329
65960W        W34323  10.354  20.667  14.510
65961W        W34324   8.803  16.787  12.420
65962W        W34325   0.970  44.379   0.763
65963W        W34326  40.353   9.679  13.001
65964W        W34327  21.192  26.559  14.339
65965W        W34328  44.812  23.516   0.809
65966W        W34329  39.366  14.632  11.447
65967W        W34330  10.825  19.237  12.845
65968W        W34331  22.017  38.334   0.471
65969W        W34332  29.459  13.181   4.309
65970W        W34333  27.063  23.202   2.322
65971W        W34334  44.005  22.224   3.152
65972W        W34335  36.926  18.714   1.267
65973W        W34336  18.082  25.524   2.864
65974W        W34337  23.565  24.593   0.273
65975W        W34338  42.372  30.048   2.699
65976W        W34339  44.293   1.887   3.167
65977W        W34340  13.280   5.728   9.993
65978W        W34341  22.203  35.582  10.452
65979W        W34342  39.333  20.675   0.922
65980W        W34343  36.945  14.241  10.444
65981W        W34344  22.137  29.624   4.679
65982W        W34345  23.234  28.515  12.901
65983W        W34346  29.432  35.372  10.430
65984W        W34347   0.361  21.700  14.810
65985W        W34348  41.426  30.144  13.949
65986W        W34349  12.267   4.722   3.841
65987W        W34350  25.514  10.213  12.095
65988W        W34351  13.809   2.777   0.330
65989W        W34352  43.357  11.640  12.042
65990W        W34353  41.306  43.983  13.844
65991W        W34354   9.166   5.287  12.384
65992W        W34355  19.752  18.767  13.847
65993W        W34356   1.794   6.204   1.909
65994W        W34357   1.920   0.912   3.764
65995W        W34358  31.132   5.746   4.194
65996W        W34359  11.816   3.282  10.011
65997W        W34360  42.840   8.285   4.748
65998W        W34361  10.371  24.688  12.825
65999W        W34362  19.241   4.280  14.384
66000W        W34363  30.457   9.346   2.707
66001W        W34364  26.668  36.347  10.555
66002W        W34365  34.380   3.825  11.528
66003W        W34366  37.025   7.828   4.665
66004W        W34367   4.889  39.961  11.108
66005W        W34368  11.721  16.630   2.241
66006W        W34369  20.125  40.918   1.267
66007W        W34370  32.895   3.361  12.835
66008W        W34371   3.322  26.501   4.145
66009W        W34372  17.638  10.833  14.793
66010W        W34373  37.051  20.737  11.994
66011W        W34374  11.279  18.277   4.728
66012W        W34375   4.369  23.076   3.212
66013W        W34376  24.160  10.286   1.731
66014W        W34377  33.910  40.883   0.838
66015W        W34378  25.974  44.396   4.772
66016W        W34379  34.483  26.594   2.356
66017W        W34380  23.657  31.037   4.736
66018W        W34381  29.002   1.307   2.848
66019W        W34382  17.150   2.856  13.397
66020W        W34383  15.127  35.865   0.911
66021W        W34384   1.447   9.694  14.342
66022W        W34385  18.579  11.222  13.512
66023W        W34386   5.852  35.908  10.521
66024W        W34387  36.985  33.389  10.545
66025W        W34388  22.051   2.457   2.711
66026W        W34389  43.403  18.690  11.940
66027W        W34390  20.227  36.061   3.639
66028W        W34391  21.036  39.015  12.535
66029W        W34392   5.838  31.584  10.616
66030W        W34393  19.577  26.172  13.414
66031W        W34394   1.741  11.717  12.468
66032W        W34395  17.239  34.602   2.825
66033W        W34396  30.913   8.249   2.292
66034W        W34397  40.512   3.885  11.030
66035W        W34398  16.677   1.372  11.414
66036W        W34399   2.869  23.648   0.248
66037W        W34400  11.293  40.337   1.394
66038W        W34401  14.278  10.278   2.316
66039W        W34402  43.771  39.959   3.347
66040W        W34403  37.390  34.584   2.773
66041W        W34404  11.753  13.689  12.857
66042W        W34405  23.144  31.644   1.341
66043W        W34406  14.235  11.826   2.851
66044W        W34407  13.255   9.683  11.955
66045W        W34408  25.594  18.128  14.006
66046W        W34409   5.194   3.742   1.419
66047W        W34410  14.594  44.378   0.465
66048W        W34411  43.499  14.296  10.551
66049W        W34412  23.717  41.502  12.992
66050W        W34413  12.743  19.048  12.439
66051W        W34414  10.659  20.688   0.414
66052W        W34415  27.043  17.280   2.799
66053W        W34416   4.340   7.384   1.267
66054W        W34417  18.073  38.890  12.991
66055W        W34418   1.812  13.113  12.861
66056W        W34419  38.351  18.789   4.725
66057W        W34420  28.655  29.075  14.941
66058W        W34421   7.253  16.284   1.340
66059W        W34422  20.101  35.965  13.465
66060W        W34423  23.709  28.120   3.172
66061W        W34424   6.277  24.023   3.376
66062W        W34425  24.104  33.621   4.290
66063W        W34426   9.256  31.515  11.489
66064W        W34427   7.792  32.628  12.461
66065W        W34428  29.985  22.224   3.208
66066W        W34429  43.363  25.013   2.319
66067W        W34430   0.766  33.431  10.091
66068W        W34431  29.643  41.530  14.015
66069W        W34432  20.598  30.011   3.279
66070W        W34433   5.335  10.157  14.846
66071W        W34434  28.526  17.222   3.313
66072W        W34435  36.873  13.218  14.294
66073W        W34436   4.415  28.062   3.295
66074W        W34437   1.465  22.597  13.826
66075W        W34438  29.474   0.343   3.750
66076W        W34439  23.147  10.848  13.339
66077W        W34440  15.146  12.281   3.344
66078W        W34441  14.159  23.154  11.088
66079W        W34442  17.285  41.922  14.998
66080W        W34443  37.549  15.643  12.457
66081W        W34444  33.129  30.635   0.778
66082W        W34445   6.330  21.738   4.702
66083W        W34446  21.604  43.808   3.685
66084W        W34447  35.046  44.333  10.523
66085W        W34448  39.559  10.264   2.301
66086W        W34449  44.386  16.695   0.278
66087W        W34450   7.843   6.731   4.664
66088W        W34451  30.645   3.426  11.444
66089W        W34452   7.269  34.483  14.946
66090W        W34453  22.242  31.977   1.301
66091W        W34454  17.766  20.673   0.852
66092W        W34455  26.966  18.061   4.607
66093W        W34456  18.271  23.552  13.945
66094W        W34457   7.178  14.261   1.234
66095W        W34458   4.332  40.037  12.497
66096W        W34459  12.646  41.375  13.005
66097W        W34460   2.297   0.767   9.486
66098W        W34461  13.315  27.175   0.447
66099W        W34462  26.011  39.499  11.962
66100W        W34463  18.552  22.061   4.277
66101W        W34464  27.169  34.901   2.688
66102W        W34465  26.077  14.589  10.945
66103W        W34466   4.788  44.987   3.175
66104W        W34467   3.921   7.886  11.982
66105W        W34468  12.626  16.172   0.391
66106W        W34469  42.908  44.393  12.485
66107W        W34470   4.739   9.830  12.518
66108W        W34471  31.634  26.120   1.330
66109W        W34472  43.497  42.433   2.715
66110W        W34473   3.443  44.870   4.350
66111W        W34474  22.184  19.727  12.003
66112W        W34475  43.346  10.672  14.984
66113W        W34476  40.980  25.552   4.711
66114W        W34477  35.584  16.202   0.788
66115W        W34478  34.115   8.736   0.883
66116W        W34479   3.296  40.848   3.175
66117W        W34480  35.854  39.909  10.504
66118W        W34481   1.864  19.266   2.401
66119W        W34482  37.982   7.337   0.472
66120W        W34483  43.793  14.254   0.872
66121W        W34484  38.920   8.180  11.491
66122W        W34485  22.008  10.196   9.941
66123W        W34486  14.237  23.587   2.791
66124W        W34487  22.579  23.583  12.387
66125W        W34488  11.205  15.326   2.834
66126W        W34489  41.976  19.265  12.048
66127W        W34490  21.114  35.952  14.350
66128W        W34491  11.265  22.581  12.345
66129W        W34492  21.648  38.892  10.625
66130W        W34493  13.800   1.798  11.374
66131W        W34494  15.267  31.572  11.459
66132W        W34495  19.167  27.548   3.175
66133W        W34496  10.634  43.298  11.110
66134W        W34497  23.017  14.811  11.122
66135W        W34498  37.995   1.373   4.694
66136W        W34499  21.149  35.990   0.367
66137W        W34500  34.953  37.972   4.165
66138W        W34501  39.879  27.562   2.259
66139W        W34502  42.406  12.834   4.730
66140W        W34503   8.693  44.005   4.137
66141W        W34504   6.182   6.911  13.053
66142W        W34505  41.823  15.116  14.337
66143W        W34506  28.437  42.936  12.059
66144W        W34507  28.183   9.168   1.448
66145W        W34508   7.277  11.762  13.363
66146W        W34509  24.023   5.750  10.940
66147W        W34510  33.112  43.870  10.511
66148W        W34511   4.206  21.051   2.814
66149W        W34512  16.251  17.770  10.458
66150W        W34513  24.570  21.688   1.848
66151W        W34514  23.692  39.949  13.489
66152W        W34515   9.737  15.806  11.503
66153W        W34516  32.512  17.127   1.252
66154W        W34517  34.593  26.131   2.670
66155W        W34518  39.972  29.004   0.779
66156W        W34519   5.876   6.373   2.315
66157W        W34520  16.657  14.263  10.894
66158W        W34521  36.545   7.880   4.717
66159W        W34522  23.561  24.487  13.938
66160W        W34523  27.158  29.481  12.845
66161W        W34524  26.568  38.469  11.573
66162W        W34525  18.569  38.947  11.425
66163W        W34526  23.131  41.461  12.915
66164W        W34527  41.881  31.617  13.060
66165W        W34528   2.961  25.199  12.010
66166W        W34529  35.872  34.597  11.880
66167W        W34530   1.882   3.370   5.202
66168W        W34531  30.603  20.197  11.898
66169W        W34532  27.659  41.836   0.757
66170W        W34533  40.041  35.933   2.389
66171W        W34534  31.912  15.188   1.399
66172W        W34535  21.095  22.250  14.310
66173W        W34536  31.647  10.764  12.939
66174W        W34537  28.155  40.812   3.846
66175W        W34538   6.846  15.655   3.319
66176W        W34539  42.485  19.563   4.263
66177W        W34540  43.883  44.330  10.918
66178W        W34541  21.682  22.129   1.267
66179W        W34542   9.686  38.041   4.175
66180W        W34543  25.995  15.757  10.050
66181W        W34544  38.444  44.288  14.448
66182W        W34545  27.528  16.647   3.865
66183W        W34546  29.653  35.474  14.022
66184W        W34547  22.518  39.403   4.718
66185W        W34548  24.206  10.201  13.797
66186W        W34549  35.989  44.945   4.713
66187W        W34550  15.302  13.307  12.944
66188W        W34551   2.787  14.104   2.747
66189W        W34552  35.872  24.639  12.044
66190W        W34553  20.625  39.524  14.438
66191W        W34554   3.268  43.281  10.523
66192W        W34555   6.260  22.040  14.344
66193W        W34556  35.075   5.220   4.204
66194W        W34557  10.294  25.546  13.993
66195W        W34558   5.355  29.130  12.871
66196W        W34559   3.753   9.325   1.446
66197W        W34560  23.228  23.500  14.500
66198W        W34561  21.555  22.563  10.613
66199W        W34562  38.892  31.125  11.117
66200W        W34563  29.552  30.566   2.775
66201W        W34564  33.483   7.900  14.487
66202W        W34565   6.846   3.429  10.539
66203W        W34566   4.346  35.033  11.888
66204W        W34567  22.184  15.200   1.800
66205W        W34568  14.722   1.248  11.096
66206W        W34569   7.801  44.275  12.440
66207W        W34570  40.896  43.773  13.058
66208W        W34571  18.289   1.757  13.965
66209W        W34572  37.348  15.601  13.480
66210W        W34573  40.886  12.165  12.400
66211W        W34574  10.225   0.378   3.237
66212W        W34575  40.541  19.156  13.811
66213W        W34576  26.546  28.471  13.407
66214W        W34577  24.198  13.670   4.286
66215W        W34578  11.371  12.298   2.693
66216W        W34579   9.868  30.981   3.293
66217W        W34580   7.910   7.399   2.214
66218W        W34581  12.343  35.889  10.969
66219W        W34582  26.204  12.125   4.129
66220W        W34583  24.551  21.690  11.394
66221W        W34584  37.031  22.744   1.418
66222W        W34585  19.729  18.725  11.525
66223W        W34586  34.467  26.473  13.450
66224W        W34587  40.447  25.561   3.334
66225W        W34588   8.776  35.052  13.975
66226W        W34589  33.899   2.230  10.050
66227W        W34590  27.524  19.566   2.829
66228W        W34591  12.203  31.996   3.847
66229W        W34592  44.487  17.248  11.941
66230W        W34593  25.493   5.688   0.245
66231W        W34594  25.991  33.428   3.665
66232W        W34595  24.979  26.542   4.616
66233W        W34596  27.123   9.324  11.868
66234W        W34597  29.935  22.233   4.706
66235W        W34598  21.071  29.066   3.658
66236W        W34599   4.944  23.509   4.753
66237W        W34600  24.030  40.833  11.962
66238W        W34601  34.081  43.435  14.878
66239W        W34602   3.884   9.677   1.249
66240W        W34603   1.379   0.439   0.856
66241W        W34604   7.734  11.234  13.977
66242W        W34605  25.117  27.517  14.973
66243W        W34606  23.065  24.163   3.789
66244W        W34607  23.065   6.793   4.651
66245W        W34608  17.609   5.915  12.458
66246W        W34609  23.088  29.426  12.343
66247W        W34610  17.721  14.751  12.945
66248W        W34611  10.171  44.964  13.429
66249W        W34612  27.091  40.993  10.479
66250W        W34613   4.232  23.205  11.058
66251W        W34614   5.722  20.238   4.691
66252W        W34615  41.378  39.401  11.890
66253W        W34616  22.038  27.610  14.007
66254W        W34617   3.226   1.382  13.323
66255W        W34618  16.607  14.767   4.833
66256W        W34619  38.830  30.586   4.597
66257W        W34620  23.053   5.310  11.116
66258W        W34621  18.722  15.123  13.434
66259W        W34622  40.477  34.044  13.936
66260W        W34623  41.416  18.714  10.457
66261W        W34624   6.194  10.635   1.729
66262W        W34625  33.510  18.060   2.672
66263W        W34626  13.272   5.761  12.986
66264W        W34627  14.276  25.993   0.958
66265W        W34628  23.541  31.453   0.784
66266W        W34629  10.288   5.820  11.129
66267W        W34630  40.502  20.149   1.820
66268W        W34631  25.546   8.185  14.896
66269W        W34632  13.791  39.340  13.454
66270W        W34633  21.757  42.291   0.363
66271W        W34634  37.343  24.637   2.778
66272W        W34635  24.543  34.935   1.303
66273W        W34636  19.200  34.034  13.873
66274W        W34637  29.439  16.076  11.100
66275W        W34638  42.804  23.032  12.928
66276W        W34639  12.849  18.176   0.863
66277W        W34640   0.971  10.181  10.515
66278W        W34641  21.512   0.844  14.315
66279W        W34642  13.646   6.330   0.743
66280W        W34643  31.420  23.061   3.828
66281W        W34644  28.573  38.376  11.573
66282W        W34645  16.676  25.647   0.356
66283W        W34646  35.554   8.751   3.164
66284W        W34647  12.819  30.579  14.393
66285W        W34648  18.790  10.870  11.540
66286W        W34649  11.207  17.770   1.346
66287W        W34650   7.396   9.237   4.321
66288W        W34651  11.141  27.503  13.543
66289W        W34652  37.471  27.450  14.793
66290W        W34653  25.013   7.707  12.883
66291W        W34654  28.678   5.770  10.642
66292W        W34655   8.275  23.506  11.459
66293W        W34656  16.073  33.097   0.918
66294W        W34657  40.985  30.033   4.311
66295W        W34658  31.565  36.848   0.330
66296W        W34659  21.178  12.794  11.517
66297W        W34660  15.187  41.797   1.875
66298W        W34661  21.545  41.418   3.250
66299W        W34662  20.757   1.814   1.810
66300W        W34663  40.491  13.746  12.011
66301W        W34664  21.618  15.295   0.421
66302W        W34665  25.036  22.051   0.441
66303W        W34666   5.199  10.186   2.684
66304W        W34667  37.036   4.204  13.810
66305W        W34668   1.956  26.147   4.169
66306W        W34669  35.022  11.283   4.695
66307W        W34670  13.194  32.541   0.763
66308W        W34671  29.578  27.622  10.508
66309W        W34672  12.227  10.849  14.950
66310W        W34673   4.785   0.897   1.279
66311W        W34674  13.163  37.872  11.376
66312W        W34675   5.242   7.271  14.760
66313W        W34676   3.867  27.472  13.052
66314W        W34677   5.323   7.344   0.895
66315W        W34678  23.012   4.803  12.355
66316W        W34679  35.084   2.347   1.268
66317W        W34680   4.246  27.023  11.866
66318W        W34681  44.301  17.214  11.100
66319W        W34682   8.188   4.247   3.321
66320W        W34683   8.201  42.929   4.807
66321W        W34684   3.283  38.903   4.638
66322W        W34685  28.508  22.009   3.831
66323W        W34686   8.331  42.878  10.972
66324W        W34687   7.270  18.571  14.986
66325W        W34688  38.064  35.424  11.897
66326W        W34689  15.776  42.431  10.017
66327W        W34690   8.771  15.310  11.051
66328W        W34691  23.552  20.740  12.471
66329W        W34692  36.903  44.268  14.843
66330W        W34693  39.411  11.307   9.492
66331W        W34694  31.007  17.589   3.633
66332W        W34695   2.815  42.928   0.736
66333W        W34696   0.279   6.746   4.307
66334W        W34697  10.734  29.581   1.893
66335W        W34698  35.055   3.821  11.402
66336W        W34699  20.730  26.049  10.416
66337W        W34700  13.285  30.482   3.838
66338W        W34701  34.373   3.221  11.992
66339W        W34702  36.050  12.118   4.821
66340W        W34703  30.961   6.185  12.079
66341W        W34704  14.273   2.373  13.426
66342W        W34705   5.406  40.828   2.384
66343W        W34706  22.077   6.235   3.707
66344W        W34707  23.723  26.611  10.485
66345W        W34708  32.424  20.104  13.010
66346W        W34709  44.949   3.246   3.813
66347W        W34710  15.277  29.479  14.415
66348W        W34711  43.367   0.328  10.498
66349W        W34712  21.104  39.018   4.161
66350W        W34713  23.232   7.862   1.862
66351W        W34714  41.850  15.681   2.695
66352W        W34715  31.922  27.126   1.761
66353W        W34716  15.148  40.947  12.057
66354W        W34717  39.970  33.040  12.935
66355W        W34718  18.102  44.783   2.863
66356W        W34719  26.009   7.348  10.925
66357W        W34720  25.027  32.964   0.893
66358W        W34721   0.464  27.593   1.441
66359W        W34722  36.946  25.607  12.342
66360W        W34723  20.736  19.173  14.454
66361W        W34724   6.821  22.667  12.967
66362W        W34725  34.540  20.121  11.555
66363W        W34726  10.269  39.007  11.076
66364W        W34727  36.378  31.136  13.539
66365W        W34728  21.184  12.344  12.513
66366W        W34729   4.360  18.295   0.752
66367W        W34730   0.900  31.416  10.571
66368W        W34731   2.927   0.752   2.219
66369W        W34732  30.073  26.549  13.888
66370W        W34733  42.992   4.433   3.697
66371W        W34734   6.244  25.112   0.956
66372W        W34735   8.277  19.167   2.193
66373W        W34736  26.158  44.987  13.486
66374W        W34737   4.230   1.457  13.962
66375W        W34738  43.994  30.549   1.217
66376W        W34739  33.887  34.985  14.329
66377W        W34740   4.816  20.212   3.755
66378W        W34741  42.784  14.589   2.286
66379W        W34742  34.576  44.340  10.505
66380W        W34743  30.630  30.938  14.960
66381W        W34744  13.734  41.004   1.287
66382W        W34745   5.257  38.004   3.296
66383W        W34746  24.709  16.712  13.855
66384W        W34747  31.487   7.771   0.270
66385W        W34748  20.565  40.959   0.813
66386W        W34749  13.601   0.480   2.360
66387W        W34750  30.510  27.163   3.797
66388W        W34751   3.885  29.088   0.348
66389W        W34752  15.608  18.605  11.880
66390W        W34753   2.750  29.667   1.339
66391W        W34754  31.559  29.474   3.630
66392W        W34755  28.540  15.124   1.782
66393W        W34756   8.161  19.559   0.322
66394W        W34757  15.099   6.306   2.297
66395W        W34758  29.983   9.240   2.690
66396W        W34759  35.896  33.626  11.951
66397W        W34760  11.127  43.927  14.472
66398W        W34761  11.841   0.348   2.879
66399W        W34762  32.548   3.220   1.261
66400W        W34763  19.060   6.882   1.847
66401W        W34764   7.676  12.764  12.393
66402W        W34765   9.805  38.873   0.453
66403W        W34766  41.977  20.176  12.983
66404W        W34767  23.086  25.628  14.513
66405W        W34768  32.554   2.412  12.033
66406W        W34769  28.469  27.667  12.449
66407W        W34770   1.840  33.067  13.833
66408W        W34771   0.380  21.138  14.477
66409W        W34772  21.614   0.254   4.605
66410W        W34773  44.783  27.103   2.303
66411W        W34774  38.457  19.239   1.405
66412W        W34775  37.451   0.258   2.726
66413W        W34776   0.348  26.541  11.406
66414W        W34777  29.088  36.516   4.160
66415W        W34778   7.241  26.489  11.106
66416W        W34779  44.403   7.902  10.976
66417W        W34780   8.877  11.208   4.762
66418W        W34781  40.813  40.826   1.426
66419W        W34782  13.293  36.010  13.804
66420W        W34783  19.153  22.097   2.363
66421W        W34784  44.503  26.587  12.902
66422W        W34785  41.459  40.942  11.506
66423W        W34786  26.046  15.318  10.133
66424W        W34787  41.468  42.343   0.443
66425W        W34788  25.145  31.957  11.994
66426W        W34789  18.182  39.345  12.345
66427W        W34790  42.997  42.836   0.805
66428W        W34791  34.001  33.122   3.712
66429W        W34792  24.128  25.183   4.821
66430W        W34793  21.093  15.143   4.694
66431W        W34794   4.803  31.571   0.825
66432W        W34795  10.142  14.750   4.334
66433W        W34796  10.359  35.028   2.178
66434W        W34797  38.451  37.849  12.578
66435W        W34798  33.885  25.973  11.890
66436W        W34799  42.924  31.959  11.532
66437W        W34800  19.066  41.839   5.251
66438W        W34801  39.968  30.614   1.830
66439W        W34802  32.491  23.060   3.342
66440W        W34803  25.963   0.761  14.876
66441W        W34804  23.548  34.010  12.080
66442W        W34805  38.551  11.283   3.629
66443W        W34806  18.718   4.719  10.963
66444W        W34807  31.129  24.058  13.035
66445W        W34808  12.642  29.047   3.677
66446W        W34809  23.148   5.774  14.829
66447W        W34810   2.723  21.228   4.236
66448W        W34811  28.134  17.773  13.426
66449W        W34812  39.876  12.665   1.400
66450W        W34813  22.211  37.861   1.251
66451W        W34814  18.696  23.166   3.842
66452W        W34815  12.852  44.973  12.997
66453W        W34816  28.574  12.146   1.274
66454W        W34817  31.059  28.940  13.813
66455W        W34818  10.719  20.218  12.042
66456W        W34819  35.081  24.527  11.502
66457W        W34820  43.017  19.754  12.417
66458W        W34821   1.826  22.241   1.751
66459W        W34822  14.828  42.952   0.911
66460W        W34823  10.693  39.814  14.877
66461W        W34824  21.627   8.179   4.288
66462W        W34825  39.042  30.469   9.985
66463W        W34826  32.556  33.879   3.683
66464W        W34827  20.137   5.352   0.819
66465W        W34828   9.365   6.356  13.450
66466W        W34829  23.189  43.390   2.385
66467W        W34830   9.349  13.717   4.213
66468W        W34831  37.579  27.001  11.498
66469W        W34832  14.802  30.127  13.875
66470W        W34833   2.418   1.814   3.861
66471W        W34834  27.670  33.986   1.920
66472W        W34835  44.408  18.769   4.271
66473W        W34836  10.324  18.769   0.326
66474W        W34837  35.359  23.099  13.435
66475W        W34838  30.417  44.349   2.778
66476W        W34839   6.417  39.938   2.178
66477W        W34840  13.603  25.098  14.888
66478W        W34841   2.364  29.007  11.886
66479W        W34842   8.703  31.070   5.102
66480W        W34843  41.883  21.698  12.967
66481W        W34844   6.416  39.868   2.773
66482W        W34845  18.709   2.274  11.011
66483W        W34846   0.481  19.652  12.938
66484W        W34847   2.924   2.747   1.425
66485W        W34848   5.329  22.143  12.958
66486W        W34849  16.278  18.781   4.256
66487W        W34850  16.606  41.029  14.774
66488W        W34851  44.492  31.918   3.854
66489W        W34852  42.948  34.495  12.955
66490W        W34853  22.700   3.329  14.378
66491W        W34854   6.396  23.525   3.847
66492W        W34855  42.887   4.839   5.242
66493W        W34856  26.674  34.432  11.469
66494W        W34857   7.815  41.361   3.844
66495W        W34858   3.379  37.566   2.858
66496W        W34859  41.042  17.158   1.357
66497W        W34860  17.724  29.004  10.482
66498W        W34861  20.246  20.114  11.875
66499W        W34862  29.559  39.560  11.981
66500W        W34863  22.528  16.621  14.322
66501W        W34864   2.332  41.449   1.909
66502W        W34865   9.766  25.187   2.417
66503W        W34866  10.642  29.010   2.261
66504W        W34867   0.317  44.402  12.453
66505W        W34868  15.642   5.319   0.433
66506W        W34869  16.077  40.922  11.382
66507W        W34870   7.828   3.731  11.506
66508W        W34871  31.933  30.638  14.844
66509W        W34872  25.081  12.761   4.641
66510W        W34873  23.207   2.868   3.761
66511W        W34874  17.112   1.736   4.788
66512W        W34875  28.949  37.959   4.257
66513W        W34876   4.288  18.228  14.281
66514W        W34877  32.561  20.734  11.866
66515W        W34878  31.590  22.067   1.750
66516W        W34879   3.871  36.492  11.913
66517W        W34880  14.604  10.708  11.918
66518W        W34881  23.493  25.112  14.853
66519W        W34882   7.885  33.581   3.840
66520W        W34883  28.624  44.858  10.468
66521W        W34884  16.142  28.471  13.462
66522W        W34885   0.899  44.855   3.651
66523W        W34886  31.502  21.598   0.787
66524W        W34887  28.655  43.016  13.510
66525W        W34888  24.605  10.855  13.049
66526W        W34889  33.976  40.418   1.255
66527W        W34890  31.612   0.417   1.362
66528W        W34891  34.466   1.461   1.857
66529W        W34892  28.999  21.095   4.344
66530W        W34893  29.656  42.526  13.046
66531W        W34894  28.668   3.755   1.449
66532W        W34895  42.423   6.312  14.900
66533W        W34896  18.687  34.521  10.593
66534W        W34897  35.452  36.031   0.378
66535W        W34898  24.725  21.620   3.312
66536W        W34899  18.240  16.723  13.810
66537W        W34900  36.965  33.887   2.274
66538W        W34901  43.453  33.576   9.975
66539W        W34902  15.751  30.557  11.600
66540W        W34903   6.196  38.521  11.395
66541W        W34904   1.339   6.256   2.853
66542W        W34905  31.105  43.963  11.055
66543W        W34906   9.304  16.710  10.536
66544W        W34907  20.710  17.604  11.570
66545W        W34908  37.961  23.675  14.504
66546W        W34909  39.495  37.919  13.506
66547W        W34910  13.600  21.140  12.429
66548W        W34911  22.509  16.744  13.943
66549W        W34912  31.072  15.177  14.852
66550W        W34913  25.092  23.576   1.348
66551W        W34914  19.252  25.575  13.437
66552W        W34915  10.775  38.860  10.426
66553W        W34916   2.813  32.080   1.890
66554W        W34917  21.162   8.361  13.481
66555W        W34918  36.945  21.259   5.219
66556W        W34919  20.543  32.412   2.316
66557W        W34920  22.183  10.857   3.260
66558W        W34921  44.266   2.849   2.249
66559W        W34922   7.288  43.468   3.790
66560W        W34923  15.271  24.150   0.326
66561W        W34924  27.033   2.345   1.289
66562W        W34925  37.415   6.368   4.342
66563W        W34926  22.579   4.887   1.755
66564W        W34927  17.209  20.767  11.011
66565W        W34928  39.064  19.096   0.914
66566W        W34929  23.533  27.196   1.350
66567W        W34930   4.342  36.414   3.644
66568W        W34931  34.463  42.364  12.073
66569W        W34932  20.722   5.374   1.769
66570W        W34933   9.319  13.745   1.219
66571W        W34934  37.922  30.164  10.414
66572W        W34935  42.452  34.120   0.478
66573W        W34936  41.314  12.733  11.415
66574W        W34937  31.926   9.889  14.399
66575W        W34938  13.825   1.398  12.410
66576W        W34939  22.722  19.650  10.078
66577W        W34940  26.992  44.908   2.380
66578W        W34941   7.287  31.647   3.706
66579W        W34942  37.872  41.967  14.462
66580W        W34943   5.862  11.697  10.443
66581W        W34944  42.287  29.057   2.873
66582W        W34945  41.871  15.608  13.426
66583W        W34946  10.199  16.236  13.954
66584W        W34947  19.621  38.402  13.511
66585W        W34948  37.483  18.070  14.890
66586W        W34949  43.450  27.011  11.891
66587W        W34950   2.384   6.365   4.140
66588W        W34951  39.840  30.431  10.406
66589W        W34952  19.747  35.581  14.312
66590W        W34953   1.416  14.203   4.665
66591W        W34954  15.198  35.969   1.730
66592W        W34955   0.930   4.402   3.303
66593W        W34956   6.411  31.628  14.021
66594W        W34957   8.381  31.103   1.809
66595W        W34958  14.747  25.154   0.935
66596W        W34959   6.216  10.223   0.287
66597W        W34960  25.193  22.029   2.345
66598W        W34961  39.916  34.488  14.870
66599W        W34962   0.773  26.025  14.807
66600W        W34963  24.153  12.613   0.847
66601W        W34964  32.432  37.929  11.077
66602W        W34965  14.224  23.197  13.437
66603W        W34966  44.979  33.445   4.234
66604W        W34967  32.622  35.977  11.412
66605W        W34968  27.056   6.359  10.035
66606W        W34969  31.540  34.534  10.621
66607W        W34970   9.821  42.308  11.106
66608W        W34971  28.081   8.701  11.967
66609W        W34972  41.907   2.353  13.948
66610W        W34973  24.495  34.604  13.870
66611W        W34974  14.752  41.497  12.464
66612W        W34975  29.646  11.661  11.126
66613W        W34976  37.480  43.800   0.318
66614W        W34977  31.120  38.507  11.975
66615W        W34978   7.731   6.404   2.292
66616W        W34979  43.491  42.962  10.506
66617W        W34980  11.672  34.970   0.853
66618W        W34981  34.482  33.087   3.854
66619W        W34982  20.571  28.677   1.325
66620W        W34983  22.717  24.618   3.336
66621W        W34984  37.848  38.547   0.293
66622W        W34985  36.409   2.907  12.516
66623W        W34986  40.414   8.345  12.394
66624W        W34987   7.694  30.481   4.182
66625W        W34988  24.709   6.293   3.201
66626W        W34989   8.341  30.573   4.676
66627W        W34990  40.920  33.382  12.508
66628W        W34991  30.542   7.338  12.461
66629W        W34992  36.504  28.502   1.255
66630W        W34993  13.758  42.829   1.903
66631W        W34994  17.063  25.681  14.826
66632W        W34995  39.052  36.993   0.926
66633W        W34996  30.579  44.934  10.896
66634W        W34997  10.660  44.010  12.043
66635W        W34998   9.872  43.403  13.032
66636W        W34999   0.774  13.348   3.360
66637W        W35000   5.216  33.952   3.731
66638W        W35001  44.813  23.232   1.715
66639W        W35002  18.550  18.252  14.943
66640W        W35003   8.331   9.249   4.187
66641W        W35004  37.847  15.595   2.209
66642W        W35005  14.264   6.362   0.333
66643W        W35006  32.997   6.762   4.185
66644W        W35007  16.650  30.128  13.950
66645W        W35008   7.316  23.114   3.213
66646W        W35009  12.161  43.799   0.924
66647W        W35010  36.921  36.859  13.514
66648W        W35011   2.945  38.419  10.974
66649W        W35012  36.065  32.088  13.414
66650W        W35013   0.293  13.728   0.830
66651W        W35014  42.308   6.681  11.510
66652W        W35015  31.463  33.526  13.047
66653W        W35016   4.773  11.764   3.697
66654W        W35017  33.391  26.962  14.339
66655W        W35018  19.569  37.976   2.858
66656W        W35019   0.777  26.577   3.847
66657W        W35020   9.372  27.556   4.713
66658W        W35021   0.298  11.743  13.971
66659W        W35022  33.940  31.957  14.876
66660W        W35023  11.127  34.076   4.256
66661W        W35024   3.288  43.459   2.332
66662W        W35025  17.201  32.448  13.508
66663W        W35026   9.325  30.164   4.762
66664W        W35027  30.034  20.179  11.014
66665W        W35028   8.747  32.079   1.260
66666W        W35029  12.810  37.482   5.177
66667W        W35030  16.282  34.948   4.831
66668W        W35031  34.551  28.053  14.508
66669W        W35032   0.386  23.601  14.340
66670W        W35033   4.891  18.651  11.893
66671W        W35034  19.215   0.483  12.574
66672W        W35035  24.636   6.871  10.930
66673W        W35036  14.787  23.116  11.374
66674W        W35037  34.471   4.386   3.707
66675W        W35038  41.516  31.069   5.243
66676W        W35039  41.477  10.325   5.179
66677W        W35040  41.027  26.956  13.926
66678W        W35041  38.394  17.759   4.345
66679W        W35042  16.104  38.035  13.430
66680W        W35043  19.230  33.504  12.505
66681W        W35044  26.059  14.729   1.369
66682W        W35045   8.342  22.088   3.736
66683W        W35046  17.202  40.526   2.881
66684W        W35047  15.313  29.530   4.244
66685W        W35048  16.099   6.849   0.763
66686W        W35049  25.053  23.560   0.251
66687W        W35050  16.677  21.606   3.244
66688W        W35051  28.640  36.590  12.029
66689W        W35052  37.909   7.257   3.868
66690W        W35053  21.126  21.687  13.937
66691W        W35054  11.299  12.734   0.852
66692W        W35055  36.573  23.664   4.236
66693W        W35056  21.095  37.525  14.943
66694W        W35057  12.748  36.942   4.705
66695W        W35058   3.917  13.271  13.879
66696W        W35059  30.516  16.236  11.581
66697W        W35060  37.459   6.368   0.400
66698W        W35061  20.550  34.102  11.863
66699W        W35062  23.523  17.155   0.939
66700W        W35063  29.498  11.773  10.417
66701W        W35064  24.527  40.935   3.286
66702W        W35065  21.710  21.727  12.951
66703W        W35066   9.196   5.712  10.932
66704W        W35067  12.243  13.622   4.775
66705W        W35068  43.837  43.490  12.493
66706W        W35069   2.833  17.660   1.309
66707W        W35070  27.063  33.123   0.434
66708W        W35071  44.901  16.784  14.298
66709W        W35072  24.495  18.730  12.351
66710W        W35073  26.506   6.283   2.343
66711W        W35074  36.405  35.452   1.407
66712W        W35075  40.458   2.444   1.785
66713W        W35076  28.960   7.756   1.413
66714W        W35077   2.454  10.645  14.932
66715W        W35078   7.202  22.121  10.540
66716W        W35079   4.860  24.496  11.454
66717W        W35080  28.988  10.212   2.179
66718W        W35081  39.868  13.214   4.733
66719W        W35082  16.229  32.019   0.256
66720W        W35083  33.534  14.186  12.076
66721W        W35084  19.278  27.040  10.912
66722W        W35085  32.626   1.306   1.722
66723W        W35086   7.344   9.268  11.916
66724W        W35087  24.512  22.718  13.047
66725W        W35088   9.216  15.174   4.271
66726W        W35089  21.709  13.206  14.821
66727W        W35090  27.965  36.456  10.933
66728W        W35091  23.637  41.314  12.516
66729W        W35092  19.247  25.193   4.734
66730W        W35093  24.201  43.910   0.805
66731W        W35094  37.498  10.169   1.721
66732W        W35095  10.248  39.513   2.774
66733W        W35096  18.158  26.003   3.791
66734W        W35097  27.542  29.080  12.444
66735W        W35098  17.623  42.298  11.890
66736W        W35099  38.341  12.712   3.162
66737W        W35100  27.159  43.959  14.297
66738W        W35101  10.853  18.121  14.941
66739W        W35102  13.844  11.845  14.452
66740W        W35103  18.235  22.626   0.344
66741W        W35104  27.180  40.946   2.303
66742W        W35105  23.028   9.670  12.567
66743W        W35106  33.048  37.390  14.479
66744W        W35107  14.282  22.052  10.995
66745W        W35108   5.910  34.406  13.509
66746W        W35109   7.304  31.998  13.350
66747W        W35110  24.516   1.335  12.414
66748W        W35111  34.530  37.056  11.935
66749W        W35112  37.416   1.482  10.976
66750W        W35113  21.142  41.295   2.353
66751W        W35114  10.847  29.953   0.883
66752W        W35115   1.444   8.319  11.390
66753W        W35116  43.960  20.270   1.739
66754W        W35117  41.535  27.520   4.319
66755W        W35118   9.761  17.766   1.916
66756W        W35119  27.531  36.003  13.429
66757W        W35120  24.069  13.621   1.249
66758W        W35121  41.039  13.663  12.526
66759W        W35122  37.947  29.010   4.823
66760W        W35123   2.322   4.840  13.794
66761W        W35124  10.143  40.033   4.749
66762W        W35125  12.701   8.162  10.576
66763W        W35126  39.885  44.815  14.375
66764W        W35127   4.227  39.024  13.498
66765W        W35128  30.147   5.739   0.276
66766W        W35129  11.218  27.478   1.840
66767W        W35130  41.504  21.535   2.764
66768W        W35131   1.266  38.488  14.027
66769W        W35132   4.767  20.225   4.665
66770W        W35133  26.110  24.231   0.364
66771W        W35134  11.154  33.436   1.431
66772W        W35135  36.520  35.389   0.468
66773W        W35136  36.994  23.060  11.465
66774W        W35137  25.013   9.783   0.251
66775W        W35138  10.226  21.255   3.237
66776W        W35139   1.441  24.178  12.857
66777W        W35140  17.303  25.173   1.857
66778W        W35141   7.248   8.219   0.953
66779W        W35142   4.708  28.620  12.503
66780W        W35143  32.425   9.281  13.844
66781W        W35144  30.973  37.337  11.858
66782W        W35145  18.083  21.180   0.326
66783W        W35146  35.013   7.705  11.897
66784W        W35147   7.364   6.426   4.180
66785W        W35148  19.706  36.027  11.981
66786W        W35149  14.656  12.158   3.752
66787W        W35150  42.308  16.666   1.745
66788W        W35151  34.049  25.593   3.725
66789W        W35152  12.350  37.066   0.412
66790W        W35153   5.734   6.373   2.731
66791W        W35154  28.588  28.530   2.370
66792W        W35155  30.658  14.762  14.011
66793W        W35156   6.880  37.019  10.579
66794W        W35157  40.497  44.833   2.317
66795W        W35158  36.020   3.375  14.851
66796W        W35159  24.116  38.416  13.828
66797W        W35160  26.511  12.769   3.719
66798W        W35161  27.458  23.544   2.222
66799W        W35162  24.478  11.128  11.953
66800W        W35163  21.660  30.544  14.799
66801W        W35164   1.787  22.563  13.913
66802W        W35165  27.547  10.279  10.550
66803W        W35166  39.502  11.651  13.793
66804W        W35167  34.061  43.373   0.294
66805W        W35168  27.614   6.741  13.932
66806W        W35169  26.020   5.839   2.363
66807W        W35170  28.460  35.455  11.038
66808W        W35171  17.148  23.599  10.620
66809W        W35172   8.264  28.525   0.897
66810W        W35173  20.268  24.584  13.904
66811W        W35174  40.027   9.674  12.453
66812W        W35175  23.624  42.344  11.046
66813W        W35176  16.776  13.125   4.688
66814W        W35177  11.154  43.331   1.779
66815W        W35178   2.815   1.757  11.413
66816W        W35179   9.283  29.036   0.283
66817W        W35180   2.320  10.786  13.926
66818W        W35181  35.927  44.293  11.033
66819W        W35182  21.545  26.977   0.790
66820W        W35183   6.364  33.131  12.059
66821W        W35184  19.067  18.676  14.834
66822W        W35185   3.376   0.744   1.745
66823W        W35186  18.219  41.869   3.149
66824W        W35187  26.524   1.453  11.986
66825W        W35188  12.273  32.916   3.871
66826W        W35189   6.396  16.652   1.254
66827W        W35190  40.339  41.953  13.356
66828W        W35191  21.056  38.495  10.416
66829W        W35192  20.246   9.275   4.799
66830W        W35193   1.451  38.923  11.023
66831W        W35194   9.796   7.345  10.489
66832W        W35195  23.663   7.794  13.831
66833W        W35196   6.887  12.852   1.843
66834W        W35197  32.579  18.686   2.355
66835W        W35198  19.164  25.522   0.251
66836W        W35199  14.742   1.947   0.841
66837W        W35200   0.769  18.690  11.059
66838W        W35201   3.289  20.147   3.847
66839W        W35202  28.538   0.350  11.926
66840W        W35203  27.959  40.048  11.588
66841W        W35204   0.947  36.467   5.207
66842W        W35205   6.782  36.564   3.270
66843W        W35206  38.830  42.804   1.835
66844W        W35207   5.859  43.348  13.913
66845W        W35208  11.777  15.124   3.738
66846W        W35209  40.799  14.112   2.670
66847W        W35210  37.967  17.677   3.201
66848W        W35211  35.427  14.322   0.860
66849W        W35212  19.177   9.869   3.664
66850W        W35213  31.937  30.012   4.644
66851W        W35214  23.009  41.813  13.541
66852W        W35215  23.517  23.668  13.457
66853W        W35216  42.339  29.010  12.862
66854W        W35217  31.118  41.003  13.835
66855W        W35218   7.363  42.524  10.476
66856W        W35219   2.827  24.631   4.309
66857W        W35220  24.513  27.635  11.372
66858W        W35221  18.128  34.465  14.949
66859W        W35222  27.056  27.564   2.794
66860W        W35223  29.112   5.394  11.606
66861W        W35224  42.421  42.012   1.342
66862W        W35225  42.989   9.753  12.852
66863W        W35226  23.141   7.187   2.188
66864W        W35227  19.779  31.447   4.773
66865W        W35228  31.635   3.413   4.724
66866W        W35229   9.314  39.426   4.621
66867W        W35230  34.418  17.738  11.483
66868W        W35231  18.240  18.172  11.498
66869W        W35232  23.703  38.026   3.339
66870W        W35233  27.509  14.804  14.379
66871W        W35234  16.806  38.017   0.896
66872W        W35235  32.029  18.544   4.744
66873W        W35236  31.045  39.403   2.185
66874W        W35237   4.749  36.029   1.924
66875W        W35238  30.136  19.122   3.716
66876W        W35239   9.703   3.789   4.245
66877W        W35240  20.162  31.453   3.710
66878W        W35241  14.259  27.448   0.333
66879W        W35242   0.900  37.868  10.077
66880W        W35243  30.092  20.663  13.938
66881W        W35244  41.993  12.760  13.325
66882W        W35245   9.268  35.541  11.113
66883W        W35246  40.356  11.266  10.941
66884W        W35247  33.393  11.841   4.629
66885W        W35248  32.120  18.280  14.325
66886W        W35249   5.342  16.223   1.214
66887W        W35250  16.699  36.933  14.329
66888W        W35251  23.572  26.067  10.578
66889W        W35252   8.723  33.022   3.310
66890W        W35253   0.929  14.738  12.496
66891W        W35254   0.262  29.959   0.923
66892W        W35255  11.738  13.307   3.708
66893W        W35256  33.024   9.759  13.854
66894W        W35257  10.334  18.784  11.611
66895W        W35258  12.140   8.342   4.677
66896W        W35259  16.667  35.001  12.563
66897W        W35260  27.499  34.004   2.770
66898W        W35261  34.076  11.759   2.296
66899W        W35262  17.640   5.805  10.597
66900W        W35263   4.781  38.889   2.370
66901W        W35264  29.016  20.718  11.550
66902W        W35265  13.708  34.433  12.033
66903W        W35266  13.782   2.284  10.584
66904W        W35267   1.909  10.337  14.866
66905W        W35268  34.879  22.198  13.351
66906W        W35269   4.855  28.531   0.886
66907W        W35270   7.222  13.696  14.939
66908W        W35271  19.649  24.062   4.755
66909W        W35272  39.980  13.172   3.817
66910W        W35273  27.966   2.273  10.480
66911W        W35274  20.571  19.579  11.414
66912W        W35275  39.328  42.925  11.876
66913W        W35276  25.574  12.772  12.931
66914W        W35277  17.137  34.883   3.780
66915W        W35278  24.648   9.759  10.416
66916W        W35279  44.375  40.441   2.797
66917W        W35280  11.343  34.080   3.272
66918W        W35281  44.456  33.952  10.490
66919W        W35282  23.651  24.168   3.791
66920W        W35283  10.167  21.588   0.416
66921W        W35284  25.059   0.371  14.332
66922W        W35285  20.688  33.110   0.337
66923W        W35286   9.192  20.200  10.565
66924W        W35287  35.964   4.313   3.724
66925W        W35288  22.088  15.647   1.253
66926W        W35289  31.125  35.535  11.069
66927W        W35290  25.047  22.550   1.267
66928W        W35291  13.313  31.031   0.842
66929W        W35292   5.232  22.098  14.481
66930W        W35293   4.791  36.046   3.335
66931W        W35294  10.264  16.171  13.326
66932W        W35295  36.917  17.149   2.195
66933W        W35296  43.764  11.207  11.940
66934W        W35297  17.698  35.030  12.853
66935W        W35298  32.133   7.739  12.929
66936W        W35299  18.105   9.862  12.900
66937W        W35300  25.616  32.583  14.772
66938W        W35301   8.799  12.757   2.891
66939W        W35302  38.421  29.536   1.426
66940W        W35303  33.081   5.918   1.878
66941W        W35304  41.010  16.280   3.356
66942W        W35305  39.866  21.651  11.056
66943W        W35306  34.494  43.829   4.743
66944W        W35307  16.167  31.937  12.571
66945W        W35308  38.346   0.416  11.878
66946W        W35309  42.908   9.821  12.345
66947W        W35310  26.993  33.024   4.185
66948W        W35311   0.269  22.247   3.361
66949W        W35312  20.657  13.719  11.402
66950W        W35313  31.402   5.687   1.892
66951W        W35314   6.784  21.583  11.865
66952W        W35315   9.866   9.232   3.197
66953W        W35316  17.767  34.461   1.290
66954W        W35317  14.340   4.338  13.033
66955W        W35318  37.430  34.586   3.739
66956W        W35319  30.127  14.756  12.577
66957W        W35320  37.426  22.648   4.619
66958W        W35321  24.162   0.918   5.223
66959W        W35322  23.082   6.699   2.193
66960W        W35323  17.679  20.269  14.393
66961W        W35324   6.868   3.924   2.710
66962W        W35325  30.514  33.396   2.418
66963W        W35326   2.463  33.027  11.417
66964W        W35327   7.838  15.590   4.245
66965W        W35328  21.625  24.115  14.986
66966W        W35329  41.477   4.420   3.259
66967W        W35330  21.691  31.037   0.379
66968W        W35331  23.567  39.320  13.389
66969W        W35332  13.201   1.937   0.401
66970W        W35333  29.479   1.851   1.781
66971W        W35334  34.537  40.942  10.987
66972W        W35335  29.980  23.707   4.161
66973W        W35336  35.082   5.872   0.446
66974W        W35337  19.040  37.392  11.966
66975W        W35338  34.063  34.059  12.576
66976W        W35339  26.141  28.176   0.391
66977W        W35340  35.878  41.319   4.726
66978W        W35341  24.540  31.902   4.645
66979W        W35342  21.228  11.337  14.435
66980W        W35343  24.632   0.363  14.490
66981W        W35344  35.099  26.514   0.477
66982W        W35345   6.218  20.691  14.438
66983W        W35346   8.666  13.214  14.402
66984W        W35347   5.262  33.984   0.406
66985W        W35348  14.803  23.079   3.775
66986W        W35349  19.188   0.489  14.317
66987W        W35350  42.526  30.424  13.000
66988W        W35351  34.921   3.842  14.348
66989W        W35352  29.054  28.156  12.836
66990W        W35353  14.616  25.487  10.958
66991W        W35354  24.623   8.895   1.223
66992W        W35355   7.290  42.795   4.772
66993W        W35356  30.083  15.113   3.350
66994W        W35357  36.417   1.803  14.763
66995W        W35358  40.431  34.898   4.309
66996W        W35359  12.800  27.996   0.873
66997W        W35360   1.461  27.110   4.675
66998W        W35361   9.883  18.709   1.363
66999W        W35362   2.852  15.797   4.672
67000W        W35363  32.457  15.138   4.637
67001W        W35364  17.793  32.918   4.830
67002W        W35365   8.859   1.432  10.553
67003W        W35366  20.736  12.842  11.418
67004W        W35367   5.200  26.146   2.774
67005W        W35368  30.953  21.162  12.433
67006W        W35369  40.979   8.685   2.364
67007W        W35370  14.133  40.382   4.333
67008W        W35371  31.123   3.895  12.500
67009W        W35372   9.153   0.474   0.473
67010W        W35373  10.243   3.445   5.122
67011W        W35374  41.417  36.399  13.400
67012W        W35375  35.485  12.356   3.655
67013W        W35376  14.323  12.799   0.924
67014W        W35377  17.237  39.382   2.409
67015W        W35378   4.923   5.237   4.738
67016W        W35379  28.174  18.211  11.926
67017W        W35380  35.018  24.198  13.022
67018W        W35381   5.825  44.363  13.457
67019W        W35382   6.341  39.923  12.481
67020W        W35383  37.047  15.585   3.307
67021W        W35384  10.753  34.050   2.343
67022W        W35385  16.797  43.380   3.779
67023W        W35386  41.441  21.142   0.754
67024W        W35387  43.511  12.136   2.418
67025W        W35388  19.561  16.097  12.528
67026W        W35389  26.656  15.084  13.376
67027W        W35390  24.626  23.661   3.324
67028W        W35391   8.681  14.171   3.266
67029W        W35392  39.919  28.612  12.488
67030W        W35393  40.394   6.887   0.957
67031W        W35394  14.684  11.855  13.986
67032W        W35395  10.642   8.374  14.449
67033W        W35396   3.813  14.180   0.461
67034W        W35397  29.968  38.021   1.421
67035W        W35398  34.908  41.811   0.748
67036W        W35399   4.717  29.617  13.824
67037W        W35400   7.775   1.471  12.871
67038W        W35401  32.608  15.195  11.891
67039W        W35402  33.098   4.433   1.752
67040W        W35403  23.492  23.510   3.776
67041W        W35404   4.712   1.739  10.594
67042W        W35405  39.837  12.139  13.003
67043W        W35406  16.263  39.512  12.052
67044W        W35407  23.999  27.681   3.868
67045W        W35408  32.404   4.902   1.847
67046W        W35409  40.048  44.484   4.289
67047W        W35410   2.313  44.797   0.864
67048W        W35411  11.178  44.269  14.465
67049W        W35412  22.121  38.938  13.465
67050W        W35413  33.890  32.096  11.962
67051W        W35414  30.579  16.624  10.495
67052W        W35415  40.907  17.238   0.888
67053W        W35416  12.181   5.276  11.417
67054W        W35417   3.304  37.382  12.392
67055W        W35418  43.917  35.913  11.045
67056W        W35419  14.800   3.774  11.987
67057W        W35420  22.047   3.334   4.609
67058W        W35421  24.629  29.592   2.765
67059W        W35422   2.466  13.719   1.869
67060W        W35423  16.302  13.735   4.762
67061W        W35424  31.546  37.945  10.905
67062W        W35425  23.655  10.197  11.879
67063W        W35426   5.838   0.462  12.063
67064W        W35427  18.697  17.186  14.442
67065W        W35428   2.365  24.585  13.383
67066W        W35429  41.406  28.141   4.775
67067W        W35430   6.758  38.480  13.941
67068W        W35431  29.607  19.753  13.001
67069W        W35432  23.090  33.549   3.264
67070W        W35433  11.170   0.442  11.906
67071W        W35434  14.133  11.656   2.248
67072W        W35435  29.542   0.480  10.000
67073W        W35436   4.917  34.429   0.923
67074W        W35437   2.309  21.600   9.632
67075W        W35438  41.890  34.900  12.400
67076W        W35439   9.261  23.665   3.722
67077W        W35440  28.484  38.856   0.470
67078W        W35441   7.875  38.942   0.260
67079W        W35442  32.950  40.443  14.493
67080W        W35443  21.029  35.524   4.347
67081W        W35444  25.604   2.883  11.880
67082W        W35445  24.656   7.781   2.848
67083W        W35446  36.949  43.428   4.313
67084W        W35447   1.275  30.076  13.928
67085W        W35448  11.293  31.533  13.367
67086W        W35449  19.601  44.956   3.747
67087W        W35450  42.860   2.910  10.507
67088W        W35451  10.673  24.637   4.822
67089W        W35452  38.449  20.552   2.664
67090W        W35453  33.939  11.865  13.407
67091W        W35454   3.827   3.838  12.905
67092W        W35455  14.106   2.756  13.533
67093W        W35456   7.398  18.051   3.169
67094W        W35457   7.317  25.580   3.658
67095W        W35458  24.171  18.763   0.921
67096W        W35459  34.407  11.634   2.305
67097W        W35460   2.948  23.011   1.918
67098W        W35461  16.108   6.290   2.807
67099W        W35462  44.284   1.253   1.424
67100W        W35463  36.365   0.754  10.023
67101W        W35464   7.697  31.597   0.905
67102W        W35465  18.629  40.353  14.938
67103W        W35466  22.101   3.372  10.005
67104W        W35467  17.078  37.352  13.055
67105W        W35468  38.459  34.911   3.253
67106W        W35469  44.804  26.622  13.828
67107W        W35470  42.450  27.077   4.788
67108W        W35471  22.225  14.294  11.001
67109W        W35472   7.898  22.564  13.432
67110W        W35473  33.558  16.636   0.873
67111W        W35474   7.329  23.731  12.566
67112W        W35475  36.008  17.732   4.805
67113W        W35476   0.810  10.151   2.370
67114W        W35477  32.901  28.017   2.182
67115W        W35478  11.664   8.728   0.415
67116W        W35479  21.556  33.120   3.172
67117W        W35480  26.642  19.766  14.339
67118W        W35481  31.079   2.389  13.023
67119W        W35482  33.072  10.200  13.988
67120W        W35483  21.237  18.552  11.046
67121W        W35484  27.592  43.292   2.790
67122W        W35485  35.376  18.089   2.317
67123W        W35486   4.934  41.352  14.030
67124W        W35487  24.530  38.391   3.632
67125W        W35488  40.317  39.518   0.417
67126W        W35489  37.019  37.339   4.766
67127W        W35490  39.999  28.521  14.923
67128W        W35491  16.573  32.423   2.814
67129W        W35492  34.571  25.538   2.236
67130W        W35493  44.480  21.161  14.300
67131W        W35494  10.682  33.048   3.240
67132W        W35495  36.567  24.074   1.860
67133W        W35496  15.645   0.299  13.043
67134W        W35497   6.409  30.584  14.868
67135W        W35498  43.904  10.816  11.566
67136W        W35499   0.384   2.957   1.398
67137W        W35500  44.843  21.594  14.810
67138W        W35501  10.308  43.288   0.954
67139W        W35502  25.597  16.781  12.516
67140W        W35503   2.867  31.109  12.865
67141W        W35504   6.921  11.728   4.348
67142W        W35505  19.698  35.047  11.023
67143W        W35506   0.769  24.073   3.352
67144W        W35507   6.703  24.541  13.901
67145W        W35508  36.950  40.481  13.866
67146W        W35509  35.547  15.223   0.275
67147W        W35510  12.818  31.053   4.706
67148W        W35511  15.584  36.365   4.262
67149W        W35512  20.145   8.257  13.491
67150W        W35513   1.352   5.909   4.786
67151W        W35514  12.180  14.227  10.995
67152W        W35515  20.602   0.812   0.286
67153W        W35516   5.732   3.272  11.048
67154W        W35517   2.727  25.016   0.399
67155W        W35518  14.109  44.296   2.682
67156W        W35519  36.941  40.811  11.975
67157W        W35520  26.980   5.731  10.594
67158W        W35521  16.643  19.628   4.702
67159W        W35522   6.403   4.767   2.417
67160W        W35523  31.463   5.874   1.387
67161W        W35524  13.263  17.283  11.874
67162W        W35525  26.532  29.077   4.241
67163W        W35526  17.066  22.120  11.036
67164W        W35527  22.243  21.608   0.273
67165W        W35528  13.688  34.975   4.750
67166W        W35529  11.680  27.027  14.334
67167W        W35530   3.404  14.128  12.569
67168W        W35531   7.215  11.758   2.893
67169W        W35532  27.040   3.403   0.352
67170W        W35533  28.119   0.349  13.435
67171W        W35534  36.900  39.063  13.520
67172W        W35535  38.562   1.813  12.531
67173W        W35536  13.106  14.182  14.948
67174W        W35537  12.334  34.422   0.910
67175W        W35538  20.174  44.315   1.363
67176W        W35539  35.011  44.265  11.091
67177W        W35540  27.026  16.287   3.214
67178W        W35541  28.671  14.633  10.999
67179W        W35542   4.383  13.674  11.515
67180W        W35543  33.480   8.362   3.374
67181W        W35544  13.660  37.916  10.520
67182W        W35545   2.337  42.876   4.265
67183W        W35546  34.460   2.865   0.441
67184W        W35547  21.031  36.044  12.854
67185W        W35548  27.056  22.739  14.403
67186W        W35549  24.627  12.650   0.408
67187W        W35550  37.400  14.184   2.827
67188W        W35551   7.415  41.427   1.838
67189W        W35552  13.794  43.796  13.954
67190W        W35553   3.814  34.585  13.981
67191W        W35554  40.474  40.329   4.280
67192W        W35555   3.336  36.015   0.785
67193W        W35556  34.478   0.821   0.755
67194W        W35557  17.128   0.408   2.341
67195W        W35558  25.704  10.256  12.875
67196W        W35559  39.043   4.240  12.392
67197W        W35560   2.270  29.174  14.299
67198W        W35561  26.478  18.545  14.991
67199W        W35562  19.607  35.087   0.273
67200W        W35563  38.466  28.456  10.410
67201W        W35564  19.131   2.848   4.781
67202W        W35565  15.721  44.268   4.313
67203W        W35566  39.530   4.709   0.919
67204W        W35567  15.267  32.982  12.995
67205W        W35568   2.960  24.483  13.360
67206W        W35569  26.998  37.383   2.178
67207W        W35570  12.213  24.086   4.273
67208W        W35571  22.015  35.996   1.858
67209W        W35572  39.370   9.778  12.887
67210W        W35573  37.553  17.586  10.412
67211W        W35574  36.580  40.499   1.856
67212W        W35575   9.643  42.366   4.137
67213W        W35576   6.315  13.671  12.475
67214W        W35577  32.911  13.703   3.301
67215W        W35578  12.702   0.807  13.542
67216W        W35579  29.572  25.468   1.311
67217W        W35580  13.649  18.553   1.719
67218W        W35581  13.623   4.728   1.905
67219W        W35582   9.312  29.963  11.966
67220W        W35583  11.792  17.739   1.352
67221W        W35584  17.117  39.430  11.893
67222W        W35585   0.973  20.059   4.763
67223W        W35586  20.220  16.597   4.304
67224W        W35587   8.713  44.933  10.586
67225W        W35588  42.451  24.224   4.640
67226W        W35589  12.335   4.750   2.338
67227W        W35590   0.895   7.867   2.745
67228W        W35591  32.520  18.607   1.300
67229W        W35592  31.115  29.113   3.189
67230W        W35593  25.048   3.940   1.290
67231W        W35594   2.945  10.640   2.888
67232W        W35595  12.760  26.008  13.479
67233W        W35596  36.960  27.531  13.893
67234W        W35597  28.019  41.951  14.502
67235W        W35598  23.090  39.825   1.406
67236W        W35599  32.500  34.896  11.412
67237W        W35600  22.165  21.702  14.300
67238W        W35601  15.172  40.008  14.486
67239W        W35602  35.397  15.798   0.331
67240W        W35603  36.945  37.561  14.446
67241W        W35604  14.218  21.231   0.774
67242W        W35605  35.913  33.910  10.539
67243W        W35606  43.904  25.544   2.777
67244W        W35607  37.441  14.835  11.911
67245W        W35608  44.337   1.376   0.826
67246W        W35609  43.771   0.802   4.789
67247W        W35610   9.770  20.688  14.839
67248W        W35611   3.889  41.880  12.415
67249W        W35612  16.675  34.595  13.814
67250W        W35613   3.289  34.468   3.309
67251W        W35614   2.460   7.881   0.480
67252W        W35615  19.742  40.915  10.497
67253W        W35616  14.703  38.041  13.926
67254W        W35617  44.400  26.611  13.954
67255W        W35618  27.656  33.524   2.799
67256W        W35619  17.204  26.544  13.418
67257W        W35620  39.874  16.094   3.828
67258W        W35621  21.671   3.308  14.441
67259W        W35622  25.680  26.495   1.250
67260W        W35623  39.896  24.506   3.308
67261W        W35624  25.550  33.597  11.575
67262W        W35625  23.076  34.940  11.417
67263W        W35626   1.910   1.799  12.420
67264W        W35627   4.272  32.000   0.301
67265W        W35628  13.179   4.908   4.738
67266W        W35629  18.669   3.878  12.879
67267W        W35630  44.759  21.511   1.853
67268W        W35631  29.452  18.052  11.419
67269W        W35632   3.426   6.813  13.990
67270W        W35633  16.253  42.434   3.846
67271W        W35634  39.839  39.820   1.805
67272W        W35635  40.547  23.560   0.417
67273W        W35636  20.248  15.276  13.986
67274W        W35637  24.547  34.980  10.640
67275W        W35638  23.215   7.829  14.965
67276W        W35639   6.887  31.512  10.632
67277W        W35640  29.151  39.360  14.297
67278W        W35641  11.185  35.576   0.262
67279W        W35642  35.977  18.720  12.967
67280W        W35643  36.027  27.984  13.898
67281W        W35644  19.134   7.722   4.726
67282W        W35645  34.935  19.094   4.790
67283W        W35646  23.519  22.739  14.960
67284W        W35647  44.830  36.470  11.946
67285W        W35648  16.724  22.518  12.439
67286W        W35649  43.409  32.039   2.664
67287W        W35650  11.319   0.468  10.489
67288W        W35651  31.499  30.043   3.263
67289W        W35652  23.574  38.050  11.948
67290W        W35653  27.686  24.651  11.880
67291W        W35654   3.389  38.077  13.836
67292W        W35655  41.937   2.901   3.329
67293W        W35656  36.939  21.060  12.345
67294W        W35657  32.029  17.703  14.882
67295W        W35658  21.547  28.028   3.177
67296W        W35659  16.199  14.120   1.877
67297W        W35660  27.129  19.151   1.706
67298W        W35661  28.937  37.067   1.445
67299W        W35662  19.091   6.281   2.243
67300W        W35663  36.094  32.120   0.343
67301W        W35664  37.576  12.809   2.813
67302W        W35665  36.401  31.118  12.472
67303W        W35666  42.803  15.795  14.779
67304W        W35667  26.074  30.008  13.403
67305W        W35668  39.978  32.549  14.840
67306W        W35669  30.500   9.833  14.485
67307W        W35670  11.788  22.706   1.450
67308W        W35671   8.664  20.683  12.516
67309W        W35672  20.243  10.698   4.116
67310W        W35673  37.340  28.628  12.864
67311W        W35674  36.067  10.340   5.308
67312W        W35675  20.109  12.148  14.970
67313W        W35676  40.950  12.814   3.342
67314W        W35677  42.969  23.573  11.434
67315W        W35678  42.449  26.508   2.391
67316W        W35679  39.318  24.136  14.434
67317W        W35680  12.139  30.974   2.235
67318W        W35681  12.330  32.499  10.974
67319W        W35682  23.559  30.017   4.191
67320W        W35683   0.940  32.058   1.871
67321W        W35684  20.680  20.535   4.792
67322W        W35685   3.738   2.966   2.353
67323W        W35686  10.227  37.999  10.605
67324W        W35687  29.502  14.247   2.726
67325W        W35688  40.866  37.394  14.452
67326W        W35689  18.278  27.475  13.895
67327W        W35690  12.216  23.521  11.569
67328W        W35691   1.450  29.016  10.449
67329W        W35692  19.609  36.943  11.884
67330W        W35693  27.950  35.581   1.894
67331W        W35694   8.236  18.682  13.919
67332W        W35695  24.513  29.498   3.708
67333W        W35696   2.325  32.913   4.609
67334W        W35697  29.150   5.814   3.262
67335W        W35698  40.896  28.088  12.063
67336W        W35699   9.282   1.481  12.867
67337W        W35700  23.135  14.187   2.383
67338W        W35701  23.724   8.320   3.760
67339W        W35702  34.423  23.101   1.925
67340W        W35703   7.873   1.769  14.904
67341W        W35704  27.632  18.651   4.352
67342W        W35705  32.098  44.802  10.472
67343W        W35706  31.989   5.798  14.277
67344W        W35707  44.468  17.179  13.879
67345W        W35708  31.089  18.134  12.371
67346W        W35709  41.937  42.316   4.347
67347W        W35710  11.863  12.633  10.469
67348W        W35711  11.259   9.376  10.615
67349W        W35712   2.797  33.591  14.482
67350W        W35713  42.996  30.150   3.199
67351W        W35714  15.321  36.058  13.843
67352W        W35715  42.026  23.109  11.428
67353W        W35716   1.290  21.649  12.024
67354W        W35717   9.834  22.065   2.259
67355W        W35718  11.256  11.272  10.604
67356W        W35719  16.810  10.360   4.796
67357W        W35720  28.025  42.443  11.050
67358W        W35721  24.658  20.187   2.294
67359W        W35722   7.371  20.635   0.914
67360W        W35723  44.341  37.576   4.708
67361W        W35724  32.561   8.788   5.086
67362W        W35725  20.031   1.445   1.370
67363W        W35726   4.332  37.579  11.424
67364W        W35727  17.633  19.120   3.844
67365W        W35728  21.068  28.963  13.388
67366W        W35729  29.076   9.366   1.788
67367W        W35730  40.484   0.844  10.580
67368W        W35731  18.123   4.802  10.588
67369W        W35732  36.090  44.968  11.460
67370W        W35733  30.936  14.778   2.893
67371W        W35734  43.820  43.799   0.413
67372W        W35735  42.885  21.099  14.392
67373W        W35736   9.337  17.216  14.025
67374W        W35737  41.945  41.330   9.943
67375W        W35738  12.844  28.982   3.174
67376W        W35739   8.268  28.172   0.308
67377W        W35740   8.170   0.291  10.451
67378W        W35741  21.086  10.141   4.730
67379W        W35742  24.630  24.481   0.343
67380W        W35743  24.163  11.708  10.049
67381W        W35744  34.589  19.151   3.728
67382W        W35745   9.351  22.694  10.474
67383W        W35746  30.136  35.484  14.770
67384W        W35747  29.971  17.164   2.832
67385W        W35748  14.338   6.744   0.448
67386W        W35749  11.264  11.704  10.511
67387W        W35750   4.714  37.467   2.897
67388W        W35751  24.705  27.020  14.378
67389W        W35752   7.671  10.850  10.938
67390W        W35753   0.257  30.954  10.416
67391W        W35754  27.103  25.010   1.268
67392W        W35755  25.125  30.940  13.815
67393W        W35756  29.618  29.139   4.687
67394W        W35757  15.239   6.227   0.334
67395W        W35758  21.576  13.696  13.341
67396W        W35759  14.700   8.180  12.928
67397W        W35760  33.522  21.514  12.893
67398W        W35761  24.606  21.173   4.723
67399W        W35762  41.483  20.576  11.975
67400W        W35763   0.926  15.783  10.641
67401W        W35764   4.893  35.987  10.486
67402W        W35765  28.030  11.841   2.384
67403W        W35766  20.550  33.957   1.289
67404W        W35767  29.172  35.436   0.409
67405W        W35768  14.772   1.936   3.642
67406W        W35769  44.332  20.197   2.262
67407W        W35770   8.296  22.552   4.675
67408W        W35771  10.142  29.004  13.925
67409W        W35772  38.487   8.192   0.286
67410W        W35773   7.750  27.655   4.135
67411W        W35774  22.110  18.787   1.844
67412W        W35775  32.126  32.108  13.424
67413W        W35776  16.679   9.277   2.779
67414W        W35777  44.369  30.571  14.348
67415W        W35778   6.183  15.752  11.565
67416W        W35779  34.445  26.046  13.904
67417W        W35780  33.466   2.938   2.258
67418W        W35781   8.190  44.928   1.262
67419W        W35782   4.312  24.142   0.451
67420W        W35783  22.586  39.377  10.975
67421W        W35784  37.431  15.619   0.921
67422W        W35785  36.070   8.315   2.683
67423W        W35786   4.383  13.647   0.319
67424W        W35787  26.598  36.858  14.915
67425W        W35788   2.333   5.817   3.660
67426W        W35789  30.116   7.702   1.260
67427W        W35790   1.290  30.958  14.504
67428W        W35791  38.492  42.380  13.505
67429W        W35792  40.862  28.656  14.812
67430W        W35793  39.536  13.614   5.300
67431W        W35794   0.454  37.370   9.930
67432W        W35795  34.408  34.610  14.879
67433W        W35796  23.119   0.466   4.273
67434W        W35797  32.044  19.222   0.374
67435W        W35798   1.249  39.908  11.449
67436W        W35799  30.449  15.085  10.938
67437W        W35800   3.443  40.859   1.415
67438W        W35801  26.059   1.742  12.003
67439W        W35802  27.005   2.917   4.317
67440W        W35803  11.311   8.214  10.533
67441W        W35804  42.291  44.357  13.935
67442W        W35805  36.560  39.938  11.405
67443W        W35806  36.963  10.773   4.732
67444W        W35807  19.132  39.818  13.970
67445W        W35808   3.236  40.860  10.428
67446W        W35809  16.107  30.512   0.416
67447W        W35810   2.753  11.189  12.405
67448W        W35811   1.473  33.518   3.759
67449W        W35812  35.560  35.388  11.580
67450W        W35813  22.060  26.088   2.745
67451W        W35814  17.149  20.236  12.479
67452W        W35815   4.933  13.795  14.406
67453W        W35816   2.967  30.637   3.174
67454W        W35817  17.170  17.665   0.370
67455W        W35818  26.071  29.948  12.565
67456W        W35819  31.636  32.142  13.988
67457W        W35820  23.520   1.468  10.635
67458W        W35821   6.789  15.123   1.888
67459W        W35822   7.778  26.094  12.036
67460W        W35823   0.486   8.230   3.233
67461W        W35824  31.073  27.629  13.013
67462W        W35825  34.523  32.393  11.603
67463W        W35826  43.325   3.364  11.108
67464W        W35827   2.313  22.159  14.427
67465W        W35828  35.987  32.885  11.965
67466W        W35829  36.039  31.410  13.398
67467W        W35830  38.875  16.284  13.503
67468W        W35831  39.064  10.760   2.266
67469W        W35832  24.105  42.836  11.993
67470W        W35833  44.879  39.557  11.965
67471W        W35834  11.282  26.102   0.805
67472W        W35835  44.871  24.206  12.404
67473W        W35836  43.849   1.792  13.883
67474W        W35837   6.356   9.242  13.425
67475W        W35838  31.563  20.217  14.794
67476W        W35839  40.797  30.628  10.982
67477W        W35840  38.867  17.625  13.001
67478W        W35841  34.884  29.075   1.873
67479W        W35842   8.208  41.325   1.828
67480W        W35843  42.922  36.444  10.133
67481W        W35844  12.206  13.706   1.407
67482W        W35845   9.180   7.322  14.953
67483W        W35846   0.934  44.336   4.262
67484W        W35847  16.197  16.251  12.931
67485W        W35848  38.529  21.539  11.126
67486W        W35849  16.275   0.897   2.772
67487W        W35850  37.489  41.527  12.025
67488W        W35851  35.874  25.609   3.732
67489W        W35852  40.039  21.676   0.784
67490W        W35853  32.486  11.701  14.899
67491W        W35854  37.354   7.851   4.670
67492W        W35855  42.934  33.904  11.033
67493W        W35856   4.304  33.560   3.167
67494W        W35857  43.941  26.997   1.769
67495W        W35858   3.258  34.970   4.174
67496W        W35859   3.279  11.167   2.896
67497W        W35860  24.996  31.420  10.918
67498W        W35861  27.993  22.018   3.310
67499W        W35862  28.115  13.680   4.658
67500W        W35863   4.445  25.092   0.476
67501W        W35864   3.415  25.108   2.729
67502W        W35865  10.288  14.270   0.852
67503W        W35866  22.719   1.896  12.430
67504W        W35867  23.048  42.415  14.790
67505W        W35868   9.149  39.902   1.915
67506W        W35869  35.525  19.218   1.227
67507W        W35870  15.323  37.517  12.340
67508W        W35871  33.620   1.245   4.817
67509W        W35872  17.202  25.984  11.862
67510W        W35873  43.914  35.861   0.830
67511W        W35874  12.213  17.093   1.869
67512W        W35875  21.519  28.937  12.824
67513W        W35876  26.964  26.488   4.283
67514W        W35877  14.193  40.863  12.479
67515W        W35878  36.082   4.423   2.296
67516W        W35879  12.239   2.936  14.392
67517W        W35880  14.231   5.391  13.325
67518W        W35881  14.756   5.202  12.073
67519W        W35882  44.906  34.869   3.255
67520W        W35883  17.719  32.112  14.315
67521W        W35884  41.346   1.966   0.929
67522W        W35885  27.540  38.837  10.961
67523W        W35886  29.646  26.550  12.032
67524W        W35887  20.175   5.722   1.711
67525W        W35888   5.786  27.659  14.012
67526W        W35889  35.008  35.401  14.306
67527W        W35890  36.049  11.328   2.242
67528W        W35891  15.173  36.849   1.868
67529W        W35892  38.491  31.152  11.427
67530W        W35893   3.305  43.413  12.494
67531W        W35894  24.494  23.092   4.317
67532W        W35895  17.677  34.389  12.949
67533W        W35896   9.352  30.513   5.134
67534W        W35897  34.901  22.066  11.472
67535W        W35898  41.529  10.198  12.934
67536W        W35899  30.634  28.616   0.952
67537W        W35900  29.449  31.648   4.616
67538W        W35901   3.356  40.353   4.796
67539W        W35902  23.991  32.455  13.385
67540W        W35903  40.801   3.431  11.437
67541W        W35904  35.515  23.137  12.992
67542W        W35905   7.821  39.905  10.994
67543W        W35906   5.774  41.379  11.051
67544W        W35907  18.676  32.509  10.405
67545W        W35908  19.778  25.621  10.596
67546W        W35909  26.691   5.779  12.003
67547W        W35910   1.913  43.836  10.906
67548W        W35911  42.777  10.384  12.350
67549W        W35912   4.917   8.673  13.800
67550W        W35913   5.816  33.970   4.208
67551W        W35914   4.759  21.229   0.430
67552W        W35915  24.491  28.470  12.972
67553W        W35916   4.393  36.073  14.886
67554W        W35917  13.275   2.282  10.612
67555W        W35918  40.322   8.714   9.999
67556W        W35919  37.058  25.074  13.506
67557W        W35920  28.442  10.713  13.034
67558W        W35921  24.979  10.159   3.671
67559W        W35922  40.522  32.093   4.226
67560W        W35923   8.168  13.720   0.882
67561W        W35924  36.584   0.391  10.961
67562W        W35925   9.264  27.118   1.411
67563W        W35926   4.402  23.228  13.903
67564W        W35927  21.645  43.883  13.507
67565W        W35928  37.393  34.026   4.268
67566W        W35929  36.055  14.158   3.318
67567W        W35930  43.769  23.617  12.399
67568W        W35931  11.308  39.425  13.994
67569W        W35932  11.856   9.225   2.785
67570W        W35933  37.869  23.637   3.230
67571W        W35934  13.202   1.921  13.923
67572W        W35935  36.046   1.356  13.451
67573W        W35936   1.743  31.581   4.337
67574W        W35937  43.364  25.980   1.755
67575W        W35938  37.575  18.641   2.875
67576W        W35939  28.484  44.893  13.004
67577W        W35940  21.183  28.136  14.378
67578W        W35941  28.972  19.747  14.427
67579W        W35942  27.136   7.838  14.794
67580W        W35943  40.976  28.441  11.093
67581W        W35944  34.937  16.293  13.469
67582W        W35945  33.122   1.782   2.410
67583W        W35946   0.305  35.080  10.909
67584W        W35947   4.846  36.060  14.829
67585W        W35948  28.990  15.194  10.423
67586W        W35949  26.956  42.508  12.436
67587W        W35950  31.963  36.862   1.748
67588W        W35951  16.083  12.675  12.832
67589W        W35952  38.993  44.914  13.330
67590W        W35953  41.476  38.881   2.322
67591W        W35954  18.283  19.589  14.375
67592W        W35955  43.849  29.638   2.727
67593W        W35956  21.139   0.940   2.388
67594W        W35957   4.897  33.548   4.715
67595W        W35958  39.811  28.573   0.377
67596W        W35959   0.475  14.833  12.883
67597W        W35960  14.805  40.539  12.926
67598W        W35961  17.697  13.779  12.995
67599W        W35962  29.981   1.964   2.863
67600W        W35963   6.317  24.170  13.936
67601W        W35964   4.450  21.173  10.118
67602W        W35965  18.191  18.581   3.240
67603W        W35966  18.769  15.226   4.208
67604W        W35967  37.081   4.239   2.396
67605W        W35968  38.010  19.613   3.703
67606W        W35969   4.708  33.062  10.489
67607W        W35970  33.932  24.189   0.813
67608W        W35971  10.716  40.923  13.886
67609W        W35972  26.147  19.701  11.375
67610W        W35973   6.394  21.119  14.320
67611W        W35974  18.702  25.573   3.235
67612W        W35975  11.206  17.602   3.824
67613W        W35976   8.226  38.375  14.493
67614W        W35977   3.815  23.610  10.127
67615W        W35978   6.200  32.951  10.530
67616W        W35979  18.280   8.172  11.106
67617W        W35980   4.858  33.923   4.253
67618W        W35981  15.312   0.765   2.900
67619W        W35982  25.575  16.234  13.963
67620W        W35983   7.212  36.071  12.062
67621W        W35984   4.440  18.766  13.517
67622W        W35985  30.425  39.927   4.681
67623W        W35986   2.898  39.910   4.803
67624W        W35987  33.414  32.406  14.964
67625W        W35988  41.023  25.000  11.935
67626W        W35989   4.833  43.330  14.445
67627W        W35990  10.703   5.345  14.467
67628W        W35991   5.771  13.285  12.353
67629W        W35992  41.335  40.330   1.700
67630W        W35993   2.290  19.568   1.345
67631W        W35994  19.565  10.706  12.864
67632W        W35995  14.660  15.285  12.838
67633W        W35996  19.247  34.886  11.424
67634W        W35997  30.565   1.853  10.429
67635W        W35998  32.987  21.732   0.314
67636W        W35999  29.623  11.366  12.498
67637W        W36000   8.388  35.998   2.266
67638W        W36001  15.616  41.969   3.352
67639W        W36002   0.765   8.787  13.872
67640W        W36003  20.660  35.040  10.603
67641W        W36004  44.481  17.646  12.881
67642W        W36005  37.939  40.318  13.307
67643W        W36006  40.950  29.036   2.841
67644W        W36007  19.768  11.133   0.894
67645W        W36008  44.756   5.265   0.425
67646W        W36009  22.503   3.765   3.167
67647W        W36010  26.191   1.305   0.896
67648W        W36011  42.381  12.140   1.416
67649W        W36012  22.534  40.337   3.635
67650W        W36013   2.885  23.157  10.438
67651W        W36014   4.446  20.135   1.287
67652W        W36015  25.192  38.511   0.950
67653W        W36016  35.434  38.546  10.464
67654W        W36017  36.360  20.587   1.774
67655W        W36018  13.763  19.059   1.342
67656W        W36019  38.981  24.664   4.326
67657W        W36020   1.761  44.914  13.409
67658W        W36021  19.681  29.157  14.832
67659W        W36022   6.268   1.440   0.453
67660W        W36023  25.620  37.421   3.283
67661W        W36024  16.309   3.748  13.400
67662W        W36025   3.881   7.899   0.328
67663W        W36026  39.547   0.319  12.557
67664W        W36027   5.384  25.011   3.169
67665W        W36028   6.212  41.967  13.352
67666W        W36029  23.163   8.875   0.419
67667W        W36030  18.283  23.078  12.898
67668W        W36031  41.499  23.985   0.423
67669W        W36032  27.197  10.852   3.649
67670W        W36033  37.337   9.152   2.802
67671W        W36034   7.886  34.390  14.922
67672W        W36035  14.720   5.205  13.347
67673W        W36036  10.840  27.487  11.532
67674W        W36037   6.792  12.773  12.421
67675W        W36038  19.157  25.179   2.798
67676W        W36039  38.889   0.755  12.572
67677W        W36040  40.018   3.827  12.521
67678W        W36041  16.075  43.468   3.713
67679W        W36042  21.088  29.475  10.454
67680W        W36043  33.055  16.668   4.145
67681W        W36044   6.770  31.489   4.313
67682W        W36045   2.462  30.012  13.397
67683W        W36046  42.855  40.313   2.400
67684W        W36047  25.202  30.083  12.453
67685W        W36048  20.240   7.324  13.060
67686W        W36049   2.758  24.689   5.100
67687W        W36050  40.418  21.515   3.154
67688W        W36051  43.898   3.823  14.446
67689W        W36052   3.765  40.847  13.400
67690W        W36053   0.321  18.209   3.789
67691W        W36054  13.684  22.250  11.107
67692W        W36055  32.080  13.683   4.302
67693W        W36056  12.131   7.842  12.389
67694W        W36057  40.979  11.150  12.575
67695W        W36058  44.294  38.543  13.943
67696W        W36059  21.243   0.316   2.683
67697W        W36060   3.779  11.178   1.907
67698W        W36061  37.432  21.182  12.463
67699W        W36062  30.523   2.788   0.305
67700W        W36063  34.889  36.961  10.524
67701W        W36064  44.955  42.462  10.940
67702W        W36065  28.522  37.505  11.100
67703W        W36066  22.206  33.445   1.343
67704W        W36067  28.045  14.321   0.426
67705W        W36068  26.689  39.380   1.811
67706W        W36069  34.398   5.772  11.449
67707W        W36070  10.331  28.667   4.823
67708W        W36071  41.399  29.487   2.374
67709W        W36072   8.895  23.668   0.936
67710W        W36073  10.851  21.745  13.309
67711W        W36074  30.420   9.683   1.368
67712W        W36075   0.859  29.151   5.309
67713W        W36076  36.964  24.482  14.387
67714W        W36077   5.751   5.360  13.904
67715W        W36078  40.967   5.799   1.449
67716W        W36079  34.566  29.158   0.252
67717W        W36080  37.579   3.377  12.956
67718W        W36081  28.633   5.879  13.020
67719W        W36082   9.709  11.279  13.417
67720W        W36083  40.045  40.424  11.048
67721W        W36084  31.060  11.784  12.035
67722W        W36085  25.611  34.873  14.389
67723W        W36086   5.876  28.665   2.278
67724W        W36087  25.673  20.235  13.460
67725W        W36088   9.342  30.042  14.799
67726W        W36089   7.842  24.564   0.893
67727W        W36090  30.440  12.641   4.675
67728W        W36091   4.243  24.162  12.353
67729W        W36092  25.207  19.657  10.502
67730W        W36093  35.361   0.482   1.867
67731W        W36094  17.644  27.130  12.943
67732W        W36095  14.270  11.842  12.928
67733W        W36096  40.900  15.164  14.290
67734W        W36097  26.014  12.664  11.970
67735W        W36098  17.686  23.669  10.981
67736W        W36099   7.771  17.559  12.451
67737W        W36100  30.062  11.758  14.916
67738W        W36101  27.021   0.425   4.669
67739W        W36102  37.856   5.240  12.979
67740W        W36103  39.859  13.244   4.170
67741W        W36104  41.998  42.301   4.780
67742W        W36105  22.715  20.250   3.683
67743W        W36106   8.865  31.506   0.749
67744W        W36107  15.762  12.344  10.576
67745W        W36108  44.995  14.172  13.952
67746W        W36109  15.121  10.272   2.300
67747W        W36110  18.630   9.170   4.266
67748W        W36111  26.654   0.885  13.384
67749W        W36112  42.449  40.898  10.501
67750W        W36113   2.928  29.991   2.403
67751W        W36114  37.933  23.016  10.549
67752W        W36115  39.422   2.449   3.270
67753W        W36116  27.523  25.106  12.848
67754W        W36117  26.153  35.520  11.996
67755W        W36118   9.699  36.538   3.842
67756W        W36119   4.269  23.223   3.789
67757W        W36120  25.216  37.370  14.471
67758W        W36121  18.116  23.087  13.407
67759W        W36122  31.499  41.980  14.015
67760W        W36123  12.349   6.398   2.196
67761W        W36124  41.339  24.637  11.498
67762W        W36125  32.935  36.450  14.921
67763W        W36126  15.688  33.611   4.779
67764W        W36127  16.661  37.535   0.920
67765W        W36128  12.682  41.414   2.375
67766W        W36129   6.232  41.507  14.829
67767W        W36130   5.404  39.032   1.903
67768W        W36131  29.112  38.549   1.307
67769W        W36132  21.222  17.178   5.187
67770W        W36133   2.794  23.992  11.997
67771W        W36134  35.550  28.509   4.602
67772W        W36135  31.564  36.386   3.310
67773W        W36136  37.490  22.594  13.922
67774W        W36137  35.976   0.469   4.239
67775W        W36138  21.640  16.649   4.768
67776W        W36139  19.226  20.722   0.253
67777W        W36140  17.715  36.503   2.736
67778W        W36141  37.906  27.625  14.441
67779W        W36142   8.211  25.211   1.363
67780W        W36143  20.751  31.099  11.571
67781W        W36144  19.097  24.593   3.739
67782W        W36145  39.379  24.984  14.414
67783W        W36146  31.455  19.127   1.908
67784W        W36147  18.159  40.022   0.354
67785W        W36148  40.519  40.438   3.161
67786W        W36149  40.485  12.280  14.999
67787W        W36150  20.215  27.516   3.830
67788W        W36151  31.896  43.499   0.366
67789W        W36152  30.024  27.448  12.871
67790W        W36153  15.718  16.782  14.001
67791W        W36154  41.333  20.665   3.650
67792W        W36155  40.897  27.052   3.253
67793W        W36156   5.818  32.984   1.278
67794W        W36157  34.489  28.113   3.658
67795W        W36158  37.399  23.700   1.415
67796W        W36159  23.728  28.181   2.391
67797W        W36160  36.430  33.382  10.571
67798W        W36161  38.434  36.375   3.660
67799W        W36162  25.111  18.061   1.877
67800W        W36163  15.644   9.174   0.726
67801W        W36164  11.326   3.850  11.458
67802W        W36165  37.514   3.821   4.652
67803W        W36166  31.460  19.650  14.381
67804W        W36167  36.350   1.948   4.696
67805W        W36168  31.116  32.124  11.570
67806W        W36169  26.189  32.459  10.933
67807W        W36170  44.322  26.643   4.272
67808W        W36171   9.209  25.963   1.350
67809W        W36172   8.257  11.161   3.327
67810W        W36173   8.250  17.598  12.980
67811W        W36174  22.537   4.401  13.026
67812W        W36175  40.946  15.813  14.427
67813W        W36176  25.474  24.560   3.196
67814W        W36177   7.858  23.685  13.795
67815W        W36178  17.229  25.588  14.441
67816W        W36179   5.374  17.799   3.828
67817W        W36180   7.855  34.075  12.474
67818W        W36181   3.355  23.040  11.073
67819W        W36182   7.202   8.832  14.976
67820W        W36183  28.129  34.984   2.888
67821W        W36184  33.910  39.012  11.125
67822W        W36185   4.848  16.176   5.221
67823W        W36186  31.596  16.590  14.021
67824W        W36187  23.034  29.074   3.310
67825W        W36188  17.257   3.950   4.650
67826W        W36189  12.741   1.936   4.345
67827W        W36190  19.684  40.532  14.974
67828W        W36191  15.750  32.600  12.883
67829W        W36192  41.898  39.886  12.915
67830W        W36193   6.347   3.416  10.586
67831W        W36194  26.110  39.457   2.828
67832W        W36195  41.515  16.787  11.863
67833W        W36196  22.745  21.562   3.848
67834W        W36197  14.293  33.954  12.065
67835W        W36198  38.560  40.477   2.667
67836W        W36199  35.359   9.666   0.253
67837W        W36200  14.802   4.762   3.867
67838W        W36201  38.836  28.582   3.734
67839W        W36202  26.179  40.409   3.178
67840W        W36203  16.810  11.803   0.808
67841W        W36204  34.963  21.680  12.054
67842W        W36205   8.794  17.572  14.441
67843W        W36206  28.496  40.406   4.757
67844W        W36207  38.495  43.953  10.508
67845W        W36208  15.657  29.493   1.758
67846W        W36209  20.142  10.826   3.348
67847W        W36210  40.305  11.638   0.372
67848W        W36211  20.062  24.639   1.843
67849W        W36212  30.565  34.603   2.342
67850W        W36213   2.872  43.342   2.332
67851W        W36214  12.851  21.129   1.380
67852W        W36215  25.967  31.920   4.171
67853W        W36216  24.010  11.650  14.788
67854W        W36217   4.311  37.483   4.320
67855W        W36218  32.054   2.845  12.027
67856W        W36219  11.658   7.305  14.879
67857W        W36220  15.716  27.504  14.968
67858W        W36221  32.537  37.058   4.604
67859W        W36222  14.141  32.895   3.219
67860W        W36223  41.361  34.391  11.048
67861W        W36224  21.183  11.223   2.184
67862W        W36225  33.033  36.953   1.724
67863W        W36226  17.558  36.876  14.290
67864W        W36227  10.177  17.671   1.833
67865W        W36228   6.396   4.204   3.269
67866W        W36229   1.245  28.995  12.877
67867W        W36230  12.236  25.087   0.892
67868W        W36231  37.529  31.579   1.273
67869W        W36232  28.136   4.926   2.811
67870W        W36233  11.133  35.468   3.677
67871W        W36234   5.918  40.394   0.445
67872W        W36235  27.448  12.302   0.840
67873W        W36236  31.410  30.456   3.725
67874W        W36237  35.413  21.077  10.571
67875W        W36238   4.204  23.220   1.772
67876W        W36239  26.501  44.931  11.570
67877W        W36240  43.882  12.175   1.256
67878W        W36241  14.758  26.560  12.860
67879W        W36242  41.349   6.721   0.245
67880W        W36243  30.627  44.920  13.912
67881W        W36244  40.959  44.322  10.405
67882W        W36245  33.931  25.590   1.380
67883W        W36246  18.744   9.235  12.944
67884W        W36247   2.261  12.808   4.250
67885W        W36248  21.519  28.054   1.761
67886W        W36249  35.484   5.367  12.888
67887W        W36250  24.207  39.558  14.791
67888W        W36251   5.854   1.421  13.307
67889W        W36252  13.331  17.271   2.796
67890W        W36253  40.352  23.996  13.546
67891W        W36254   1.476   8.256   3.301
67892W        W36255  34.473  11.283   0.319
67893W        W36256  32.997  43.338   1.434
67894W        W36257  13.106  40.498  14.434
67895W        W36258   2.412  39.443  10.620
67896W        W36259   2.471  19.101  12.425
67897W        W36260  43.779   8.243   0.473
67898W        W36261  13.674  26.126   3.220
67899W        W36262  21.585  18.243  13.948
67900W        W36263   3.453  10.686   4.232
67901W        W36264  42.487   5.701  14.934
67902W        W36265   0.840  31.565   0.782
67903W        W36266  16.080   8.760  11.396
67904W        W36267  11.307  37.047   1.251
67905W        W36268  34.370   4.786  10.594
67906W        W36269  38.335  30.937   3.834
67907W        W36270  12.161   9.173  13.880
67908W        W36271  34.114  10.741   2.259
67909W        W36272  33.926   8.378   1.784
67910W        W36273  17.160  33.018  14.949
67911W        W36274  24.087  30.963   3.217
67912W        W36275  44.469  29.444  10.533
67913W        W36276   5.407  11.351  14.476
67914W        W36277  39.958  14.280   4.199
67915W        W36278  22.693  44.849   0.821
67916W        W36279  37.354   7.194   0.381
67917W        W36280  39.993  40.829  12.920
67918W        W36281  41.350  44.456  13.489
67919W        W36282   2.377  16.566   4.268
67920W        W36283  25.205  11.264   1.230
67921W        W36284  20.713  26.550  11.426
67922W        W36285   8.761  42.784  10.622
67923W        W36286   8.195   6.350  10.478
67924W        W36287  22.177   7.798   1.871
67925W        W36288  22.683   5.859  10.942
67926W        W36289  14.214  40.981   3.636
67927W        W36290  20.754  13.126   2.748
67928W        W36291  11.786  38.413  12.024
67929W        W36292  25.534   0.378   0.839
67930W        W36293  35.937  11.770  14.006
67931W        W36294   1.286   3.955  11.577
67932W        W36295  28.989  23.241   1.241
67933W        W36296  30.533  27.970  11.546
67934W        W36297  28.558  33.596   4.695
67935W        W36298   9.259  24.095   3.733
67936W        W36299  15.748   0.767   2.764
67937W        W36300  11.283  10.634  11.462
67938W        W36301  28.611   4.898  13.935
67939W        W36302  41.972  22.561  14.938
67940W        W36303  18.079  33.074   1.292
67941W        W36304   5.875  41.810  10.415
67942W        W36305  33.537  31.625  14.435
67943W        W36306  20.702  19.043  13.988
67944W        W36307  43.413  40.935   2.858
67945W        W36308  28.471  43.776  10.579
67946W        W36309  24.186   3.920   2.347
67947W        W36310   4.939  11.273   4.672
67948W        W36311   0.331  42.839  10.999
67949W        W36312  11.278  32.634   2.800
67950W        W36313  26.152  10.222  11.547
67951W        W36314  34.018  40.918  13.501
67952W        W36315   6.898  31.134   4.252
67953W        W36316  29.556   2.285  14.838
67954W        W36317  23.009  31.133  14.491
67955W        W36318  38.461  36.863  10.612
67956W        W36319  22.636  20.550   3.781
67957W        W36320   7.296  26.555   1.780
67958W        W36321  10.321   0.958   0.873
67959W        W36322  39.530   8.356   0.285
67960W        W36323  32.451  10.374   0.871
67961W        W36324  15.185   4.341   2.413
67962W        W36325  14.678  16.592   3.385
67963W        W36326  23.126  23.236  11.490
67964W        W36327  25.086   1.952   0.940
67965W        W36328   1.356  25.644   1.825
67966W        W36329  34.498  43.336  10.906
67967W        W36330  33.874  30.934  12.391
67968W        W36331  27.678  39.487  11.083
67969W        W36332  34.567   6.882   0.310
67970W        W36333  24.136  16.275   0.356
67971W        W36334  10.328   9.725  12.541
67972W        W36335  17.572  24.538  12.407
67973W        W36336  17.072  15.286   3.837
67974W        W36337  21.168  44.462   2.746
67975W        W36338  39.928   6.395   3.715
67976W        W36339  20.553  25.546   3.152
67977W        W36340  30.128  35.915  11.894
67978W        W36341  11.209  34.999   1.907
67979W        W36342  41.411  31.998   0.785
67980W        W36343  38.909  28.549   0.469
67981W        W36344  19.094  41.536  11.378
67982W        W36345  15.684  21.516  14.975
67983W        W36346  26.170   3.817  10.950
67984W        W36347   3.336   8.761   4.120
67985W        W36348   5.711   2.382   2.246
67986W        W36349  30.909  29.564   1.438
67987W        W36350  31.525  22.695  12.011
67988W        W36351   8.771  44.475  11.525
67989W        W36352  19.740  28.164   0.821
67990W        W36353  36.473   8.730  13.829
67991W        W36354  20.551   9.868   3.355
67992W        W36355  39.054  34.993   1.311
67993W        W36356   6.799  34.581   1.289
67994W        W36357  31.941  35.006  10.921
67995W        W36358  24.613  28.573   2.691
67996W        W36359  23.587  15.323  11.053
67997W        W36360  36.940  25.573  11.459
67998W        W36361   4.869  21.670  10.994
67999W        W36362  18.175   7.862  10.620
68000W        W36363  16.260  36.878   3.771
68001W        W36364  25.603  26.160   4.299
68002W        W36365  29.150  35.032  13.482
68003W        W36366   9.161  19.779  14.328
68004W        W36367  30.571  22.647  11.924
68005W        W36368  27.122  26.574  14.949
68006W        W36369  34.105  21.549  14.446
68007W        W36370  23.100  35.905   3.267
68008W        W36371   1.278   5.300  11.930
68009W        W36372  39.951  26.469  10.584
68010W        W36373  14.626  41.426  13.465
68011W        W36374  41.856  39.988  14.989
68012W        W36375  21.184  13.620  14.872
68013W        W36376  42.870   7.909   4.334
68014W        W36377  29.591   9.232   2.362
68015W        W36378  33.393  34.396   1.815
68016W        W36379  20.228  19.168  13.013
68017W        W36380  21.263  11.148  12.545
68018W        W36381  28.077  32.078   2.833
68019W        W36382  27.139  31.937  14.427
68020W        W36383  35.017  23.173  11.013
68021W        W36384  41.391  16.711   3.748
68022W        W36385   1.797   4.908   2.313
68023W        W36386  21.242  32.925   2.827
68024W        W36387  40.989  29.662  10.485
68025W        W36388  33.475  43.415   2.251
68026W        W36389  18.631   9.198  11.537
68027W        W36390   8.883  38.403   0.294
68028W        W36391  15.236   8.377   3.866
68029W        W36392  27.521  43.433   3.195
68030W        W36393  13.228  38.868   9.970
68031W        W36394  24.133  11.251   3.332
68032W        W36395  44.848   9.758  10.519
68033W        W36396  18.173   4.410  14.297
68034W        W36397   4.253   5.266  13.998
68035W        W36398  44.827  42.327  11.436
68036W        W36399  31.426  33.989   4.626
68037W        W36400  33.910  24.038  12.529
68038W        W36401  29.066  14.182   0.959
68039W        W36402  20.093  37.895   0.861
68040W        W36403   4.293   4.305   4.625
68041W        W36404  28.026  43.495   4.180
68042W        W36405  36.016  28.035  14.514
68043W        W36406   9.740  19.647   3.167
68044W        W36407  19.150  15.759   2.322
68045W        W36408   1.421   1.279   4.327
68046W        W36409   4.286  40.389  11.942
68047W        W36410  29.039   5.928  10.642
68048W        W36411  15.292  16.745   0.948
68049W        W36412  24.629   9.782  13.850
68050W        W36413  25.033   4.231   3.812
68051W        W36414  14.231  21.171   3.771
68052W        W36415  40.911  20.132  11.912
68053W        W36416  28.489  13.675  11.396
68054W        W36417  18.078  30.632   2.317
68055W        W36418  19.771  44.260   3.826
68056W        W36419  42.814  32.613  13.317
68057W        W36420  16.723  42.957  10.590
68058W        W36421  38.401  37.475   4.790
68059W        W36422   3.379  21.712  11.966
68060W        W36423  19.143  11.844  12.566
68061W        W36424  41.373  12.615   0.729
68062W        W36425  32.578  12.306   3.741
68063W        W36426  20.168  25.698   0.391
68064W        W36427   1.948  24.639  13.931
68065W        W36428  10.641  23.052   4.690
68066W        W36429  29.493  23.035  11.487
68067W        W36430  40.857  34.552  11.402
68068W        W36431  42.387   8.200  13.368
68069W        W36432  15.182  16.728  11.472
68070W        W36433   7.826  16.211   4.831
68071W        W36434  12.684  40.957   4.290
68072W        W36435   3.867   6.244   4.278
68073W        W36436   1.854   6.680   2.373
68074W        W36437  32.056  24.075   5.256
68075W        W36438  28.676  20.644   0.360
68076W        W36439  18.092  10.853  11.915
68077W        W36440  23.126  26.112  13.523
68078W        W36441  16.725  28.590   2.343
68079W        W36442  10.258   0.864   2.225
68080W        W36443  44.475  23.550  11.419
68081W        W36444  39.549  21.620  12.095
68082W        W36445   8.670   4.880   5.298
68083W        W36446  24.131  37.462  12.932
68084W        W36447  33.920  26.989  12.941
68085W        W36448  41.877  25.705  11.121
68086W        W36449   8.163  31.080  13.491
68087W        W36450  29.970   7.314  14.006
68088W        W36451  39.818   1.952   3.165
68089W        W36452  30.561  28.518   3.687
68090W        W36453   7.360   5.351   3.632
68091W        W36454  17.288  33.588   3.334
68092W        W36455  19.645  27.445  14.990
68093W        W36456  38.507  37.577  14.005
68094W        W36457  11.721  38.450   4.344
68095W        W36458  25.967  34.515  10.899
68096W        W36459  14.772  44.464   1.415
68097W        W36460  43.970  13.157  10.936
68098W        W36461  26.076   8.880  12.343
68099W        W36462  13.783  13.678   4.816
68100W        W36463  30.551  29.589  14.501
68101W        W36464  12.683   8.330   0.751
68102W        W36465  14.205  18.750   4.601
68103W        W36466  28.117  11.295   9.935
68104W        W36467   8.266  14.253  14.869
68105W        W36468   2.912  21.714  10.975
68106W        W36469  23.039  17.119   2.843
68107W        W36470  44.344  29.448  14.807
68108W        W36471  29.434  40.972   3.791
68109W        W36472  18.740  14.747   1.370
68110W        W36473   0.976  14.326   3.333
68111W        W36474  15.199  43.441  10.957
68112W        W36475  40.945  17.153   2.776
68113W        W36476  41.900  27.527   1.779
68114W        W36477  40.512  37.398  10.969
68115W        W36478  14.621   2.921   4.645
68116W        W36479  34.958  28.027   4.718
68117W        W36480  28.463  14.274  11.869
68118W        W36481  40.347  23.147  14.499
68119W        W36482   3.455   0.908   5.152
68120W        W36483  43.817  39.417  13.855
68121W        W36484   2.430  36.533  11.565
68122W        W36485  43.337  36.045  10.426
68123W        W36486   1.790  16.599   2.786
68124W        W36487  36.021  22.624  13.516
68125W        W36488   5.410  39.539   4.198
68126W        W36489  43.013  21.068   1.727
68127W        W36490  21.702  25.011  14.502
68128W        W36491  39.381  19.707  12.081
68129W        W36492   4.739  20.218   2.341
68130W        W36493  14.624  20.035   2.793
68131W        W36494  28.575  28.552   2.852
68132W        W36495  17.256  22.130  12.844
68133W        W36496   2.824   0.981  13.347
68134W        W36497  30.092  20.073  11.856
68135W        W36498  28.548  40.501   1.820
68136W        W36499  28.172   2.248  12.022
68137W        W36500  17.665  35.044  13.492
68138W        W36501   4.870  33.938  12.517
68139W        W36502  31.568  14.759   4.287
68140W        W36503  41.873   0.771  12.527
68141W        W36504  31.407  21.139  13.408
68142W        W36505  22.121  20.159  13.427
68143W        W36506  30.498   2.229   3.307
68144W        W36507  37.458  22.136  13.383
68145W        W36508  44.431   7.320  14.897
68146W        W36509  38.327  25.636  14.843
68147W        W36510  43.407   8.280  12.987
68148W        W36511  18.657   3.798  14.022
68149W        W36512  21.023  14.171  14.332
68150W        W36513   7.668  12.131  14.423
68151W        W36514   1.371  24.032   9.462
68152W        W36515  36.390  38.475   4.316
68153W        W36516   3.764  37.351   2.281
68154W        W36517  19.564  18.575  12.987
68155W        W36518  44.833  29.608  11.943
68156W        W36519  19.759  42.285   1.243
68157W        W36520  28.048  12.810   5.094
68158W        W36521  15.092   3.927   5.638
68159W        W36522   2.335  44.982   1.746
68160W        W36523  21.627  13.339  10.450
68161W        W36524  28.997  24.546  10.986
68162W        W36525  39.825   5.726  12.429
68163W        W36526  36.939   7.842   1.723
68164W        W36527  43.954  35.410   2.260
68165W        W36528  16.809  12.308   3.868
68166W        W36529  36.899  12.618   5.729
68167W        W36530   3.350  32.074   2.341
68168W        W36531  30.478  16.653   1.233
68169W        W36532   2.319  17.186   2.266
68170W        W36533  29.046  39.955   2.317
68171W        W36534  20.623  24.654  13.336
68172W        W36535   9.210   6.318   0.483
68173W        W36536  24.666  37.507   4.750
68174W        W36537  41.858  15.148  11.926
68175W        W36538  21.072  16.109   4.703
68176W        W36539  29.932   6.248  12.454
68177W        W36540  10.767  33.887  12.860
68178W        W36541   9.730  28.027  13.330
68179W        W36542  22.014  12.677   0.335
68180W        W36543  16.105   7.348   3.288
68181W        W36544  28.975  27.625  13.798
68182W        W36545   7.287  18.125  14.951
68183W        W36546  20.097  37.842  10.524
68184W        W36547   8.371  28.444   3.713
68185W        W36548  18.696  29.504  11.982
68186W        W36549  26.153  18.128  11.436
68187W        W36550  20.159  24.144  12.960
68188W        W36551  26.458   0.869   0.290
68189W        W36552  21.193  44.905   2.332
68190W        W36553  28.621  29.052  12.836
68191W        W36554  33.124  37.929   1.881
68192W        W36555   8.661  44.311   2.320
68193W        W36556  30.449  11.649   3.347
68194W        W36557  39.465   1.878   4.725
68195W        W36558  34.575   4.363  10.996
68196W        W36559  17.183  42.452  10.548
68197W        W36560  30.549   1.286  14.977
68198W        W36561  31.138  23.562   3.859
68199W        W36562  30.601   5.235  12.461
68200W        W36563  28.168  21.242  11.492
68201W        W36564   6.751  40.353   1.360
68202W        W36565  38.067  23.666  11.568
68203W        W36566  20.526  43.973   1.792
68204W        W36567  17.690  24.596   1.451
68205W        W36568  24.588   2.935  10.607
68206W        W36569  38.418  11.735   1.792
68207W        W36570  26.545  18.739  12.071
68208W        W36571   0.761  27.026   4.284
68209W        W36572  38.974  42.450  13.394
68210W        W36573  30.947   0.932  11.880
68211W        W36574   0.344  11.745   2.373
68212W        W36575  36.530   6.354   1.884
68213W        W36576   2.235   0.882  14.926
68214W        W36577  17.073  15.578  12.993
68215W        W36578  11.698  38.968   3.188
68216W        W36579  10.853  40.017  14.406
68217W        W36580  29.930  17.248   0.450
68218W        W36581  17.302  37.013   0.907
68219W        W36582  36.999  34.402   4.625
68220W        W36583  30.027  42.404   1.272
68221W        W36584  42.315  36.431  13.400
68222W        W36585  28.632  11.127   2.677
68223W        W36586  15.778  37.382  13.886
68224W        W36587  25.576  27.951   0.250
68225W        W36588  23.641  14.597   4.665
68226W        W36589  37.530  41.010   0.868
68227W        W36590  13.782  43.873  11.497
68228W        W36591   0.343  27.113   1.734
68229W        W36592  20.240  36.430   4.152
68230W        W36593  29.075   5.310   4.340
68231W        W36594  39.361   8.884   0.875
68232W        W36595  34.009  35.375  14.287
68233W        W36596  40.430   4.706  13.906
68234W        W36597  34.912  30.590  11.899
68235W        W36598  13.174  33.511  13.521
68236W        W36599  31.053   9.849  11.464
68237W        W36600   0.446  37.002  14.917
68238W        W36601  30.548  27.514  14.380
68239W        W36602  28.515   8.724   2.208
68240W        W36603  11.772   2.449  11.591
68241W        W36604  35.032  40.969  13.400
68242W        W36605  44.369   6.860   4.698
68243W        W36606   3.367  36.423   1.819
68244W        W36607   1.773  36.902  11.063
68245W        W36608  32.139   6.292   3.261
68246W        W36609  17.176   4.402   2.758
68247W        W36610  40.875  28.952   1.728
68248W        W36611  28.662  13.322  10.430
68249W        W36612  32.092  16.681  14.471
68250W        W36613  30.428  10.825  11.385
68251W        W36614  39.346  22.018  12.354
68252W        W36615  39.535  11.761   1.734
68253W        W36616  44.901  26.159   0.859
68254W        W36617  29.556  39.528  14.493
68255W        W36618   5.382  26.979   2.752
68256W        W36619  37.074  21.111   0.946
68257W        W36620  40.963  31.462   1.807
68258W        W36621   9.780  22.661  11.558
68259W        W36622  15.104  38.993   4.678
68260W        W36623  32.483  44.824  13.927
68261W        W36624  31.482   5.900  12.486
68262W        W36625   0.293  25.076   4.160
68263W        W36626  16.781  43.501   1.838
68264W        W36627  44.792  42.825   2.395
68265W        W36628  31.981  10.865   2.327
68266W        W36629  31.467  43.288  11.037
68267W        W36630  21.662   5.803   2.874
68268W        W36631  36.535  24.148   4.268
68269W        W36632  40.524  18.572   2.300
68270W        W36633   9.151  26.116  11.430
68271W        W36634  39.440  33.110  12.564
68272W        W36635  44.425  30.100   2.357
68273W        W36636  42.511  32.545  12.497
68274W        W36637  35.424  39.961  13.797
68275W        W36638  39.414  31.577  11.015
68276W        W36639  14.690   9.668   0.341
68277W        W36640   8.172   7.279   0.947
68278W        W36641  10.242   2.404   3.741
68279W        W36642  15.226  34.403   4.317
68280W        W36643  28.537  19.534   1.924
68281W        W36644  28.458  43.455   2.401
68282W        W36645  32.501  14.760   4.743
68283W        W36646  13.137  24.197   1.392
68284W        W36647   1.832   8.785  14.894
68285W        W36648   1.932  23.106  14.343
68286W        W36649  32.543  22.228   0.748
68287W        W36650  44.351  11.250   3.182
68288W        W36651  36.551  42.370  10.603
68289W        W36652  11.210   6.227  14.428
68290W        W36653  23.650   9.664  12.506
68291W        W36654  39.909   0.336  12.424
68292W        W36655   9.712  21.652   4.122
68293W        W36656  27.450  21.053   0.883
68294W        W36657  35.940  21.558  13.469
68295W        W36658  29.653  31.898   2.201
68296W        W36659   1.871  38.557   1.873
68297W        W36660  21.077  12.124  11.027
68298W        W36661  25.498  30.640   0.251
68299W        W36662  43.831  20.663  14.498
68300W        W36663  14.705   1.817   5.176
68301W        W36664  18.270  18.219   2.237
68302W        W36665  11.157   9.239   3.182
68303W        W36666  25.181  27.985   1.917
68304W        W36667  39.019  29.103  14.432
68305W        W36668  25.141  10.671  14.352
68306W        W36669  32.492  43.997   4.834
68307W        W36670  15.682  34.923   3.275
68308W        W36671  25.567  23.636  14.370
68309W        W36672  24.045   5.289   3.632
68310W        W36673  38.037  25.146  14.877
68311W        W36674  44.982  18.588   1.233
68312W        W36675   2.858  25.558  12.079
68313W        W36676   8.868  25.508   2.286
68314W        W36677  18.292   4.326  13.878
68315W        W36678   6.314   3.778  12.346
68316W        W36679   2.949  15.310   4.295
68317W        W36680  32.590  35.025   0.931
68318W        W36681  23.045  42.505   1.377
68319W        W36682   7.831  37.338  14.834
68320W        W36683  11.853  18.579  14.297
68321W        W36684  43.373  27.501  12.360
68322W        W36685  40.440  16.244   1.414
68323W        W36686   8.885  33.883   4.352
68324W        W36687   8.228  21.129  14.457
68325W        W36688   3.317   8.269  10.578
68326W        W36689  19.054   4.932   3.858
68327W        W36690  12.298   9.379   4.764
68328W        W36691  22.170   2.401   3.241
68329W        W36692  26.621  17.799   0.304
68330W        W36693  30.484   1.368   1.428
68331W        W36694  26.530   6.194  12.871
68332W        W36695  43.333  11.728  10.603
68333W        W36696   5.803  44.920   1.881
68334W        W36697  32.119  19.229  14.840
68335W        W36698  41.438   3.793  12.379
68336W        W36699  36.486  19.114  11.420
68337W        W36700   1.380  31.474  10.429
68338W        W36701  44.414  29.041  12.003
68339W        W36702  24.498  31.611   2.412
68340W        W36703   5.898  28.018  13.429
68341W        W36704  23.049  37.995   4.772
68342W        W36705   1.967  43.851  10.429
68343W        W36706  21.086  37.992  14.875
68344W        W36707  28.938  23.604   1.352
68345W        W36708  32.052  20.608   0.446
68346W        W36709  38.962  43.956  14.415
68347W        W36710  21.582   8.203  14.445
68348W        W36711  18.288  24.587  12.472
68349W        W36712  11.140  26.684   2.857
68350W        W36713  37.403  41.402  10.624
68351W        W36714  40.907   7.869   0.821
68352W        W36715  12.269  18.598   0.850
68353W        W36716  17.080  26.967   4.321
68354W        W36717   2.803  20.668  10.934
68355W        W36718  41.362  39.024  14.936
68356W        W36719   5.342  28.052   1.424
68357W        W36720   3.925   0.446  10.543
68358W        W36721  26.592  28.100   1.768
68359W        W36722  15.123  28.931  11.869
68360W        W36723  36.497  43.515  12.873
68361W        W36724  13.209   4.702   3.146
68362W        W36725  27.482  11.257   0.365
68363W        W36726  42.982  31.924   3.636
68364W        W36727  18.146  43.950   1.241
68365W        W36728  21.591  13.229  12.422
68366W        W36729  25.697  35.591   1.360
68367W        W36730   3.388  19.084   2.815
68368W        W36731  10.186  40.882  11.100
68369W        W36732  16.088  19.724  13.027
68370W        W36733  39.965  11.829   5.302
68371W        W36734   8.385  25.113   3.815
68372W        W36735   8.223  36.858   1.346
68373W        W36736  23.622  18.595  11.925
68374W        W36737  24.651  14.126  13.805
68375W        W36738  22.116  27.165  10.978
68376W        W36739  14.823  37.925   3.655
68377W        W36740  19.202  42.884   0.403
68378W        W36741  42.869  24.059  12.874
68379W        W36742   1.462   4.904   3.837
68380W        W36743  14.134  12.213  10.549
68381W        W36744  18.288  42.458   2.718
68382W        W36745  42.959   1.392  13.043
68383W        W36746  39.005  32.417   4.259
68384W        W36747  35.888  11.690  11.430
68385W        W36748   0.257  26.127   3.243
68386W        W36749  20.231   1.978   3.267
68387W        W36750  13.297  15.269   2.787
68388W        W36751  27.158  33.430   2.213
68389W        W36752  34.914  31.517  14.771
68390W        W36753  21.733  12.348  12.420
68391W        W36754  27.638   8.768  14.974
68392W        W36755  10.367  13.200  10.549
68393W        W36756  34.058  34.428   3.758
68394W        W36757  19.044  24.704  14.860
68395W        W36758   6.899  26.016   4.612
68396W        W36759  24.548  10.176   3.211
68397W        W36760  34.562  11.133   4.300
68398W        W36761  35.474   6.347   2.240
68399W        W36762   6.738  33.999  11.867
68400W        W36763  17.779  23.633   2.812
68401W        W36764  15.328   9.679  12.523
68402W        W36765   5.748  31.550   4.210
68403W        W36766  18.719  25.668  12.373
68404W        W36767  15.257  13.131   2.383
68405W        W36768  14.313   7.285  11.482
68406W        W36769  24.521  36.070  12.031
68407W        W36770  29.542  32.127  14.347
68408W        W36771  38.368  19.542   3.632
68409W        W36772  27.055  16.573   2.364
68410W        W36773  22.529  35.947   9.960
68411W        W36774  38.460  39.823  11.982
68412W        W36775  30.425  29.992  12.824
68413W        W36776  31.413   4.808   1.338
68414W        W36777   3.279  16.278   3.768
68415W        W36778  30.974   7.681  11.860
68416W        W36779   5.221  27.678   0.446
68417W        W36780  14.745  26.503   2.303
68418W        W36781  24.643  24.561   2.877
68419W        W36782   3.306  11.170  12.879
68420W        W36783   6.851  40.055   4.691
68421W        W36784  37.397  26.182   0.753
68422W        W36785  23.000   0.493   2.400
68423W        W36786  44.963  28.057   2.202
68424W        W36787  40.321   5.721  12.413
68425W        W36788  11.276  24.584   1.705
68426W        W36789   1.915  20.140  11.881
68427W        W36790  11.646   2.281   0.877
68428W        W36791   5.390  22.028   2.761
68429W        W36792  31.410  29.544  14.923
68430W        W36793  29.963  29.938   2.808
68431W        W36794  21.146   8.283   3.661
68432W        W36795  35.521  38.889  11.608
68433W        W36796  43.973  11.703   0.831
68434W        W36797  44.808  38.994  12.436
68435W        W36798  43.937   2.840   4.164
68436W        W36799  18.268  36.044   0.933
68437W        W36800  29.032  26.671  12.955
68438W        W36801  37.523  20.578   4.272
68439W        W36802  41.510   9.185  12.352
68440W        W36803  26.123  10.832   2.702
68441W        W36804  39.962  37.081   4.772
68442W        W36805   3.781  34.930  10.458
68443W        W36806  14.139  16.099  13.413
68444W        W36807  42.510  16.114  13.356
68445W        W36808   2.349  31.006   4.196
68446W        W36809  41.317   8.369  13.009
68447W        W36810  29.476  14.812   1.393
68448W        W36811   8.395  37.513  14.988
68449W        W36812  35.110  20.059  11.041
68450W        W36813  39.341  25.979  12.387
68451W        W36814  40.451  42.811   1.802
68452W        W36815  32.588  13.141   4.640
68453W        W36816  29.034  31.146  14.364
68454W        W36817  34.489  19.539   3.233
68455W        W36818  10.652  31.019  11.112
68456W        W36819  31.987  37.555   1.288
68457W        W36820   0.271  24.050   0.415
68458W        W36821   4.265   9.658  12.397
68459W        W36822  23.125  29.048  14.850
68460W        W36823  10.858  23.707   4.120
68461W        W36824  35.049  30.007   3.191
68462W        W36825   2.821  23.528  11.900
68463W        W36826  27.627  41.436   4.654
68464W        W36827  12.734  18.155   3.168
68465W        W36828  29.025  22.608  13.445
68466W        W36829  42.003  19.153   3.661
68467W        W36830   6.889  40.413   0.291
68468W        W36831  22.140  33.952   4.783
68469W        W36832  18.576  11.722   4.299
68470W        W36833   4.862  32.474  12.022
68471W        W36834  29.568  43.987  11.953
68472W        W36835   0.484  41.384  13.944
68473W        W36836   0.345  17.155  12.833
68474W        W36837  38.406  32.051   0.881
68475W        W36838  31.536  28.955   2.205
68476W        W36839  11.780  15.676   4.688
68477W        W36840  11.202  43.320   3.828
68478W        W36841  38.557   8.870  10.618
68479W        W36842  29.641   4.826   3.340
68480W        W36843  11.231   6.190   1.210
68481W        W36844  29.637   0.758  10.958
68482W        W36845  44.887   3.945   1.306
68483W        W36846  10.348  20.123   2.387
68484W        W36847  32.013  27.062  11.498
68485W        W36848  10.226  34.996   3.647
68486W        W36849   0.305  26.190   1.238
68487W        W36850  43.399  14.824   2.206
68488W        W36851  10.658  24.145  10.551
68489W        W36852   9.195  25.962  14.400
68490W        W36853  13.152   2.254   2.283
68491W        W36854   0.778  25.687   0.267
68492W        W36855  39.972  16.178  11.411
68493W        W36856  25.632  17.596  11.546
68494W        W36857  31.147  28.664  10.994
68495W        W36858  34.595  29.981  11.453
68496W        W36859  23.706  17.672   2.260
68497W        W36860   4.726  18.722  10.118
68498W        W36861  31.057  43.873  12.004
68499W        W36862  26.538  27.519   3.265
68500W        W36863  44.001  24.612   4.163
68501W        W36864  41.470  17.204  12.505
68502W        W36865  16.128  17.238  10.023
68503W        W36866  16.244   9.331  11.527
68504W        W36867  16.213  21.571   0.295
68505W        W36868  27.182  17.194   5.217
68506W        W36869   3.239   0.480  12.037
68507W        W36870  37.927  35.924  10.441
68508W        W36871  38.394   4.353   3.692
68509W        W36872  10.852  12.757  12.577
68510W        W36873  20.642  23.086  14.281
68511W        W36874  24.993  17.794   4.117
68512W        W36875  23.529   3.426   2.257
68513W        W36876  33.053   0.329  11.924
68514W        W36877  42.312  11.690   0.908
68515W        W36878  42.847   2.771   0.882
68516W        W36879  13.809  31.103   2.733
68517W        W36880  23.984   1.474   4.662
68518W        W36881  40.508  15.704   1.344
68519W        W36882   9.777   6.851   0.287
68520W        W36883  21.595   0.311   2.820
68521W        W36884  34.580  15.654   0.344
68522W        W36885  44.907   6.421   1.773
68523W        W36886  11.858  27.160   0.786
68524W        W36887  11.797   3.377  14.434
68525W        W36888  36.999  41.430  13.932
68526W        W36889   0.817  31.050  14.765
68527W        W36890   3.325  29.486  11.967
68528W        W36891  23.573  18.059   1.215
68529W        W36892  31.472  23.648  12.563
68530W        W36893  17.795  19.650  13.855
68531W        W36894  27.516  33.523  11.901
68532W        W36895   8.666   6.750  11.467
68533W        W36896  33.998  39.475  12.982
68534W        W36897  12.269   1.318  11.473
68535W        W36898   3.800  10.657   2.764
68536W        W36899   3.869  35.024   3.767
68537W        W36900  17.757  19.563  12.460
68538W        W36901  38.962  22.668  13.871
68539W        W36902  23.733  20.209   1.826
68540W        W36903  35.932  43.954  12.041
68541W        W36904  12.748  18.606   1.919
68542W        W36905  10.780   1.799   0.377
68543W        W36906   1.264  31.939   0.877
68544W        W36907   4.805  37.342  12.964
68545W        W36908  20.649  43.483  14.297
68546W        W36909  33.578  24.004   1.232
68547W        W36910  42.832  35.385   1.280
68548W        W36911  26.015  41.387  12.471
68549W        W36912  31.612  41.440  10.448
68550W        W36913  39.323  40.850  11.097
68551W        W36914  24.191  14.142  14.954
68552W        W36915   4.705  28.478   3.783
68553W        W36916  43.840  34.979   1.337
68554W        W36917  35.911  15.204   0.267
68555W        W36918  35.463  25.593   1.279
68556W        W36919  19.186  25.061  14.793
68557W        W36920   2.936   6.245   1.345
68558W        W36921  13.721   6.308  11.115
68559W        W36922  22.038  15.245  12.343
68560W        W36923  15.324  42.917   2.258
68561W        W36924  37.525  29.592  13.500
68562W        W36925  26.568  15.103   1.365
68563W        W36926  41.889  25.200  10.503
68564W        W36927   3.728  25.070  14.026
68565W        W36928  11.270   6.697  13.493
68566W        W36929  25.540  13.719   4.170
68567W        W36930  37.969  34.968  12.972
68568W        W36931   5.884  39.338   0.825
68569W        W36932   4.338  17.091  12.368
68570W        W36933  32.026  41.391   4.771
68571W        W36934  43.980   6.410   2.711
68572W        W36935  43.799  18.780   2.184
68573W        W36936  35.372   2.238   1.699
68574W        W36937   9.718  44.915   2.333
68575W        W36938  44.870  21.186  10.086
68576W        W36939  37.527  29.638   3.713
68577W        W36940  38.482  14.786  11.511
68578W        W36941  14.747  13.149  13.791
68579W        W36942  20.567  23.666   0.828
68580W        W36943  31.093  23.573  11.056
68581W        W36944  44.490  36.414   4.785
68582W        W36945  35.399   0.485  14.376
68583W        W36946  27.061  22.184   1.740
68584W        W36947  34.456  42.520  10.515
68585W        W36948   4.733  34.863   3.361
68586W        W36949  12.837   6.250  10.554
68587W        W36950   0.338   4.305   4.634
68588W        W36951  17.263  32.041   4.775
68589W        W36952  38.871  44.264  13.496
68590W        W36953  12.760  39.376  13.846
68591W        W36954  26.011   8.683   1.450
68592W        W36955  34.572  26.034  13.357
68593W        W36956   1.378  23.130  11.543
68594W        W36957  26.985  13.287   2.811
68595W        W36958  26.644  30.604   3.763
68596W        W36959  12.828   7.331   0.471
68597W        W36960  36.591  36.006   5.213
68598W        W36961  35.879  43.781  14.824
68599W        W36962  11.182  20.227   4.656
68600W        W36963  10.159   7.195  12.846
68601W        W36964  40.312   4.434  12.527
68602W        W36965  39.558  30.621   2.875
68603W        W36966  17.255  44.853  12.361
68604W        W36967  34.034  28.095  11.877
68605W        W36968  44.796  28.667   0.261
68606W        W36969   6.739  23.620  13.965
68607W        W36970  35.594  29.957  14.823
68608W        W36971  27.152  25.479   3.649
68609W        W36972  36.905   0.248  12.935
68610W        W36973   2.745  40.910   1.421
68611W        W36974  20.115  15.817   4.718
68612W        W36975  10.353   4.214  11.931
68613W        W36976  26.651  18.080   1.933
68614W        W36977  27.997  26.660   1.344
68615W        W36978  38.882  17.115   0.736
68616W        W36979  43.513   0.968   2.886
68617W        W36980  28.637   3.783   1.923
68618W        W36981  16.678   0.797  10.425
68619W        W36982  27.545  39.367  13.013
68620W        W36983  31.629  28.554  12.477
68621W        W36984  36.443   0.385  11.433
68622W        W36985  37.343   7.319   3.782
68623W        W36986  33.068   0.929   0.893
68624W        W36987  25.056  27.543   9.960
68625W        W36988  27.667  38.371   0.435
68626W        W36989   8.295   1.807   1.280
68627W        W36990  44.437  37.989   5.600
68628W        W36991  18.129  30.131   1.931
68629W        W36992   9.394  12.324  11.449
68630W        W36993  43.985   0.745   1.819
68631W        W36994  33.623  43.769  11.952
68632W        W36995  27.983  16.233   3.646
68633W        W36996  42.867  17.703  11.482
68634W        W36997  39.387  30.615  11.106
68635W        W36998   7.723  43.511   0.820
68636W        W36999   7.307  34.880  12.830
68637W        W37000  14.331  12.632   1.442
68638W        W37001  22.539  20.602   0.398
68639W        W37002  16.244  32.975  11.064
68640W        W37003   7.855  28.672   4.741
68641W        W37004  36.398  11.766  14.027
68642W        W37005  29.158  18.221   1.737
68643W        W37006  19.594  13.203  14.475
68644W        W37007  23.642  24.544  12.926
68645W        W37008  35.530  42.796   2.413
68646W        W37009  44.884  27.578  14.454
68647W        W37010  23.720  29.017  12.011
68648W        W37011  40.455  33.558  11.892
68649W        W37012  30.659  31.618  12.932
68650W        W37013  34.962  41.898   2.280
68651W        W37014  17.556  40.026   2.753
68652W        W37015  14.202   9.371  13.962
68653W        W37016  33.901  31.033   2.403
68654W        W37017  41.432  13.822  10.459
68655W        W37018  38.972   1.886   4.258
68656W        W37019  36.988  31.037  11.420
68657W        W37020  20.193  17.133  13.333
68658W        W37021  17.206  34.900  13.444
68659W        W37022  18.232  16.288   2.689
68660W        W37023  42.516  42.486   3.171
68661W        W37024  29.095  37.932   2.898
68662W        W37025  30.112  13.342   3.328
68663W        W37026  44.948  11.172   1.867
68664W        W37027  31.921  30.145   0.728
68665W        W37028  19.058  22.164   3.291
68666W        W37029  35.557  29.142  11.107
68667W        W37030  28.634  20.270   3.720
68668W        W37031  11.713  43.299   2.687
68669W        W37032   6.278  31.432   1.915
68670W        W37033  23.662  11.281  13.497
68671W        W37034   8.698  19.583   3.367
68672W        W37035  17.555  17.731   2.376
68673W        W37036  33.465   7.882  11.489
68674W        W37037  24.217  44.853  14.434
68675W        W37038  13.235  18.121   2.867
68676W        W37039   1.823  21.636   0.270
68677W        W37040  20.085  30.471   4.813
68678W        W37041  13.268  31.122  12.451
68679W        W37042  11.646  34.413   3.631
68680W        W37043  41.808  38.951  10.581
68681W        W37044  16.783   5.352  11.599
68682W        W37045  21.041  10.714  13.005
68683W        W37046   9.176  33.484  12.993
68684W        W37047   4.210  22.207  13.446
68685W        W37048   9.376  26.574   1.219
68686W        W37049  32.486   8.303  10.610
68687W        W37050  44.429  17.218   1.798
68688W        W37051  35.904  34.920   4.240
68689W        W37052  24.170   1.967  13.002
68690W        W37053  41.001  23.593   0.910
68691W        W37054  35.370  20.546  14.367
68692W        W37055   2.780   3.399   2.764
68693W        W37056  29.592  35.063  14.951
68694W        W37057  11.718  15.237  13.477
68695W        W37058   0.769  15.110   4.743
68696W        W37059  27.614  17.177  13.905
68697W        W37060   4.292  43.767   0.411
68698W        W37061   9.253  26.499   4.178
68699W        W37062   4.272  11.651   1.307
68700W        W37063  39.010  32.969  12.537
68701W        W37064  34.957  12.297   1.801
68702W        W37065  23.145  41.901   2.266
68703W        W37066  28.586  31.936   0.763
68704W        W37067  36.346  13.724   1.396
68705W        W37068  43.986   4.439   3.274
68706W        W37069   6.876  17.262  10.902
68707W        W37070   5.205  25.523  13.445
68708W        W37071  10.241   3.423   1.378
68709W        W37072  16.735  17.714   5.189
68710W        W37073  40.360  37.064   2.413
68711W        W37074   1.406  32.431  14.946
68712W        W37075  27.968   1.760   0.473
68713W        W37076  26.663  11.230  10.976
68714W        W37077  38.009  41.963   2.288
68715W        W37078   7.911  24.675  14.782
68716W        W37079  37.574  37.565  11.047
68717W        W37080  34.437  35.603  14.366
68718W        W37081  18.071  27.559  14.829
68719W        W37082  17.685   2.784  11.552
68720W        W37083  14.101  16.578   5.234
68721W        W37084  23.150   7.218   2.802
68722W        W37085  30.083   6.213   1.763
68723W        W37086   7.733  14.317   4.834
68724W        W37087   0.447  44.791  13.042
68725W        W37088   2.457  15.114  14.805
68726W        W37089  18.242  18.727  12.995
68727W        W37090  11.762  29.088  10.156
68728W        W37091  14.129  31.992  10.073
68729W        W37092  32.457  21.610  14.997
68730W        W37093   6.383  23.029  10.433
68731W        W37094  19.574  29.001  12.881
68732W        W37095  24.227  26.480   5.262
68733W        W37096   8.276  21.059   0.966
68734W        W37097  39.547  33.494   4.293
68735W        W37098  22.106  44.900  11.543
68736W        W37099  11.833  27.976   2.727
68737W        W37100   0.448  27.471  12.007
68738W        W37101   4.855  36.428  12.919
68739W        W37102  19.150   9.302  13.537
68740W        W37103   0.366  33.396  12.079
68741W        W37104  15.662  40.830  12.094
68742W        W37105  15.705  35.891  14.820
68743W        W37106  17.688  17.077   4.321
68744W        W37107  27.484  44.488   4.642
68745W        W37108   4.882  36.911   2.356
68746W        W37109  13.680  13.185  10.428
68747W        W37110   0.882  13.763   0.410
68748W        W37111  16.186  22.562   3.867
68749W        W37112  13.141   4.872  14.327
68750W        W37113  20.627  12.783   4.747
68751W        W37114   9.882  25.636  11.534
68752W        W37115  38.842  30.609   0.886
68753W        W37116   2.345  34.410  14.897
68754W        W37117  32.391  24.978  13.939
68755W        W37118  40.023  15.193  13.930
68756W        W37119  15.192   8.396   0.821
68757W        W37120   0.465  24.097   2.366
68758W        W37121  12.700  17.084   2.729
68759W        W37122  27.000   1.839   2.335
68760W        W37123   2.414  22.515   1.414
68761W        W37124  28.035  15.285  11.948
68762W        W37125  29.599  24.723   1.818
68763W        W37126  17.706  16.214   4.607
68764W        W37127  17.687  34.950   2.402
68765W        W37128  42.286  12.773   3.854
68766W        W37129  42.963  27.031  12.975
68767W        W37130  43.976  10.293  12.569
68768W        W37131   0.863   7.255   2.348
68769W        W37132  33.481  33.954   3.827
68770W        W37133  44.342   5.912  10.059
68771W        W37134  38.327  24.598  10.930
68772W        W37135  15.764   9.720   2.712
68773W        W37136  34.058  32.441  14.368
68774W        W37137   7.402   6.840   1.232
68775W        W37138  44.324  35.588   1.441
68776W        W37139  33.566   2.349  10.455
68777W        W37140  26.168  11.662   1.376
68778W        W37141   2.888  41.804   0.736
68779W        W37142  27.651  39.808  10.927
68780W        W37143  25.653  22.648  12.356
68781W        W37144  43.947   1.472  13.813
68782W        W37145  43.278   2.446  11.921
68783W        W37146  20.640  44.283   4.227
68784W        W37147   2.776  42.777  14.874
68785W        W37148   4.802  21.129   4.631
68786W        W37149  16.675  15.748   2.668
68787W        W37150   5.213  27.066   4.685
68788W        W37151  41.495  43.770   0.421
68789W        W37152  12.806   7.776   3.728
68790W        W37153  42.866  19.047  11.883
68791W        W37154  30.917  31.153  14.802
68792W        W37155   0.863   6.858  13.941
68793W        W37156  24.545  40.931   2.722
68794W        W37157  34.571  33.087  13.064
68795W        W37158  33.520  34.384   3.235
68796W        W37159  17.623  34.420  11.555
68797W        W37160  10.705  30.555   3.280
68798W        W37161   8.305  43.775  11.988
68799W        W37162   0.950   0.960   4.638
68800W        W37163  34.531  13.716  14.845
68801W        W37164  25.031  18.265   3.255
68802W        W37165  25.220  19.724  10.986
68803W        W37166  14.679  43.015  12.507
68804W        W37167  27.640  38.923  12.579
68805W        W37168  39.839  37.057   3.679
68806W        W37169   5.277  19.257   3.858
68807W        W37170  24.141  15.115   0.289
68808W        W37171  40.518  42.789   0.815
68809W        W37172   2.724  37.513  12.892
68810W        W37173  41.409  25.090   1.929
68811W        W37174   7.321  34.063  10.930
68812W        W37175   3.731  40.396  14.335
68813W        W37176  30.434  44.890   0.404
68814W        W37177   8.384  26.047   0.436
68815W        W37178  21.160   1.858   9.949
68816W        W37179  12.209  19.685   2.200
68817W        W37180  39.040  39.485  12.870
68818W        W37181   7.789   6.266   1.210
68819W        W37182  26.199   9.646  13.848
68820W        W37183  18.176  35.511   1.716
68821W        W37184  21.756  19.738  13.548
68822W        W37185  16.753  11.779  14.459
68823W        W37186  15.582  26.584  13.878
68824W        W37187  20.712   6.732   2.819
68825W        W37188  16.078  34.590  10.564
68826W        W37189  19.057   0.462   3.868
68827W        W37190  29.651   8.335  13.391
68828W        W37191  20.249   2.812   4.311
68829W        W37192  20.654  39.343   0.363
68830W        W37193   1.411  39.489   4.826
68831W        W37194  37.032  14.726  13.519
68832W        W37195   1.745  40.500   4.656
68833W        W37196  43.275   6.733  10.958
68834W        W37197  28.957   2.238  14.417
68835W        W37198   2.786  44.874   2.675
68836W        W37199  37.039  15.232   3.382
68837W        W37200   6.268   4.873  11.011
68838W        W37201  10.712  29.498  13.529
68839W        W37202  12.318   0.911  13.501
68840W        W37203  21.233  38.438  14.982
68841W        W37204   1.354  25.673   2.222
68842W        W37205  21.640  40.850  12.090
68843W        W37206  36.045  32.572   0.354
68844W        W37207  12.243  11.236   1.752
68845W        W37208  29.152  36.549   2.369
68846W        W37209  21.672  37.522  10.423
68847W        W37210   6.792  30.062   1.321
68848W        W37211  15.228   7.675  11.878
68849W        W37212  21.756  36.890  14.470
68850W        W37213   0.274   6.820  12.008
68851W        W37214   2.843  23.996  14.432
68852W        W37215  44.409  38.064  10.407
68853W        W37216   1.825  37.837  14.454
68854W        W37217  41.916  14.238  13.385
68855W        W37218   6.265   7.891  14.410
68856W        W37219  29.140  36.348  13.806
68857W        W37220   1.940  15.210   3.302
68858W        W37221  33.023  29.665   2.281
68859W        W37222  14.749  11.830  13.459
68860W        W37223  30.614   8.360  12.566
68861W        W37224  18.167  44.322   3.760
68862W        W37225  29.947  44.464  10.550
68863W        W37226  18.610  44.431  14.361
68864W        W37227  39.470  40.805   3.798
68865W        W37228  19.596  23.621   2.803
68866W        W37229  26.519  14.331  11.033
68867W        W37230   3.313  20.184   3.337
68868W        W37231   7.371  15.279   3.211
68869W        W37232  20.626  19.096  10.502
68870W        W37233  28.504  43.347   3.284
68871W        W37234  27.081  28.981   1.859
68872W        W37235  44.843  19.668   3.327
68873W        W37236   4.817  19.240  10.518
68874W        W37237   7.218  16.595  11.495
68875W        W37238  37.925  40.954  11.049
68876W        W37239  12.656   9.220  14.290
68877W        W37240   4.445  19.188  13.349
68878W        W37241  35.958  29.611  12.900
68879W        W37242  22.006   2.434   0.360
68880W        W37243  17.613  18.695  13.313
68881W        W37244   3.875  44.772  11.541
68882W        W37245  39.873  18.592  14.461
68883W        W37246  14.697  18.119   4.235
68884W        W37247  41.505  30.925  14.514
68885W        W37248  23.625  21.261  13.478
68886W        W37249   9.247  44.502  14.764
68887W        W37250  16.146   6.752  14.480
68888W        W37251  44.420  23.006   1.932
68889W        W37252  26.507   6.307   1.743
68890W        W37253   0.291   5.432  12.890
68891W        W37254  30.954  18.634  14.306
68892W        W37255  18.665  10.321   5.238
68893W        W37256  22.165   3.329   3.217
68894W        W37257  26.633  33.572   1.869
68895W        W37258  10.833  44.302  13.934
68896W        W37259  12.670   5.872  10.157
68897W        W37260   8.810  20.719  12.870
68898W        W37261  35.884  39.960   0.744
68899W        W37262   4.412  35.361  13.928
68900W        W37263  32.395   9.384   1.310
68901W        W37264  22.549  31.635   0.254
68902W        W37265  19.540  39.390  12.908
68903W        W37266  37.936  23.492  12.436
68904W        W37267  32.114  35.904  14.822
68905W        W37268  18.061  15.786  10.990
68906W        W37269  13.745   1.742  13.900
68907W        W37270  17.752  40.370   3.769
68908W        W37271   7.880   2.227   3.255
68909W        W37272   6.889  26.566  11.863
68910W        W37273   2.867   7.388  11.119
68911W        W37274  36.485  35.506   2.766
68912W        W37275   0.453  42.967  14.876
68913W        W37276   1.846  13.710   2.282
68914W        W37277  25.628   6.687   4.297
68915W        W37278  14.647  27.159   0.789
68916W        W37279  23.101  43.339  14.333
68917W        W37280  27.005  42.784   0.883
68918W        W37281   5.316  12.710  10.907
68919W        W37282  42.433  23.675   3.709
68920W        W37283  26.656   8.281   0.479
68921W        W37284  29.145  22.191   1.871
68922W        W37285   4.312  10.794  14.022
68923W        W37286  27.566   4.731  12.934
68924W        W37287  16.269  10.301   1.377
68925W        W37288  21.735  36.871  11.128
68926W        W37289   9.804  12.763   2.200
68927W        W37290  35.495  34.094  13.888
68928W        W37291   4.804  14.305  10.423
68929W        W37292  21.131  11.209   3.264
68930W        W37293  36.459  20.535   4.321
68931W        W37294  24.998  10.342   5.106
68932W        W37295  22.150  42.516  11.930
68933W        W37296  24.083   4.450   0.349
68934W        W37297  35.601  33.549   0.799
68935W        W37298   1.442  21.712   2.327
68936W        W37299  28.026  25.494  10.475
68937W        W37300  29.510  27.543   0.850
68938W        W37301  39.892  40.836   1.215
68939W        W37302  21.096  11.866   3.223
68940W        W37303  39.858  34.870  10.478
68941W        W37304   1.938  29.537   0.428
68942W        W37305  22.033  34.386  12.527
68943W        W37306  28.603  11.159   2.241
68944W        W37307   6.789  30.958   1.327
68945W        W37308  29.043   8.288   3.176
68946W        W37309  31.576  24.691  14.402
68947W        W37310   9.313   7.267  14.401
68948W        W37311  17.588  22.628   1.797
68949W        W37312  44.478  42.280   0.327
68950W        W37313  34.922  32.995  13.390
68951W        W37314  34.576  37.527   2.775
68952W        W37315  24.094  35.509   4.712
68953W        W37316  14.277  33.481   4.116
68954W        W37317  37.557   8.195  11.466
68955W        W37318   4.845  20.228   1.773
68956W        W37319   2.726  21.655   9.567
68957W        W37320  15.715  11.848   0.890
68958W        W37321  25.478  22.581  11.113
68959W        W37322  34.863  10.285  11.381
68960W        W37323  32.412  18.240   0.446
68961W        W37324  23.536  14.725   1.902
68962W        W37325  32.469  38.930  12.057
68963W        W37326  29.095  29.041   0.936
68964W        W37327  14.655  43.364   1.727
68965W        W37328   0.831  22.131   4.207
68966W        W37329  12.687   6.829  13.906
68967W        W37330  18.785  40.466   0.757
68968W        W37331  14.167  15.605   1.283
68969W        W37332  27.639  26.585   0.851
68970W        W37333  38.023  27.598   1.377
68971W        W37334  27.965   6.343   4.120
68972W        W37335  36.557   9.300   4.733
68973W        W37336  20.047   6.729   2.865
68974W        W37337  14.215   3.784  14.458
68975W        W37338  18.547  21.188  14.367
68976W        W37339  21.079  12.709  13.994
68977W        W37340   1.305   4.437   0.477
68978W        W37341  27.068  37.480  10.434
68979W        W37342  42.972  39.557   4.632
68980W        W37343  34.376  35.549   3.843
68981W        W37344  18.056   1.785   3.816
68982W        W37345  20.141  35.093  11.580
68983W        W37346  43.004  28.462   3.368
68984W        W37347  11.831   2.769  13.960
68985W        W37348  12.839  30.652   0.405
68986W        W37349   2.821  26.029  14.326
68987W        W37350  35.922  14.288   4.350
68988W        W37351  18.135  25.665   3.190
68989W        W37352  34.426  17.556  14.982
68990W        W37353  37.465  26.495   3.823
68991W        W37354  24.108   0.430   1.396
68992W        W37355  29.142  34.915   1.337
68993W        W37356  28.108  24.120   1.826
68994W        W37357  17.134  25.197   9.968
68995W        W37358   1.816   3.809  13.540
68996W        W37359  13.248  15.668   1.277
68997W        W37360  14.144  29.004   2.800
68998W        W37361  26.675  10.657  13.962
68999W        W37362  13.779   0.390  14.386
69000W        W37363   9.859  21.212  12.969
69001W        W37364  13.332  33.914  13.039
69002W        W37365  17.121  18.140  13.837
69003W        W37366  31.908  18.565   1.706
69004W        W37367  38.012  14.320   4.151
69005W        W37368  20.059  36.931  12.979
69006W        W37369  21.064  24.112  14.767
69007W        W37370  11.731  31.420  12.538
69008W        W37371  23.041  29.043  10.505
69009W        W37372  43.516   2.324   1.767
69010W        W37373  15.645  15.193   2.863
69011W        W37374  31.471  35.416  14.395
69012W        W37375   5.196  42.955  10.421
69013W        W37376  40.444   4.399   0.401
69014W        W37377  17.741  12.286  12.039
69015W        W37378  15.688  18.638   2.363
69016W        W37379   9.153  18.627   3.350
69017W        W37380  29.653  10.266   9.925
69018W        W37381  36.008  20.088  12.073
69019W        W37382   2.427  42.988  11.043
69020W        W37383  30.007  26.207  14.811
69021W        W37384   5.692  16.720  13.345
69022W        W37385  36.051  28.602   2.729
69023W        W37386  10.733  16.188  11.956
69024W        W37387  26.473   9.159  12.527
69025W        W37388  13.121  32.502  14.013
69026W        W37389  28.541  15.786   0.846
69027W        W37390   2.315  41.536  10.463
69028W        W37391  24.016  38.549  11.425
69029W        W37392  38.528  10.851  14.290
69030W        W37393  29.641  19.637  11.998
69031W        W37394  40.853  30.907   0.450
69032W        W37395  43.951  31.503   0.445
69033W        W37396  16.074  32.481  13.322
69034W        W37397  41.828  40.039   4.154
69035W        W37398  11.798  11.167  11.532
69036W        W37399  20.617  44.933   1.824
69037W        W37400   6.417   4.919   3.709
69038W        W37401  13.696  19.611   4.685
69039W        W37402  41.039  33.957  14.783
69040W        W37403  41.446  23.697  11.506
69041W        W37404  15.327  17.179   4.821
69042W        W37405  14.812  12.846   4.680
69043W        W37406  10.824  44.774  13.845
69044W        W37407  33.608  30.106   4.668
69045W        W37408  31.056  11.243   3.707
69046W        W37409  41.832   8.169   0.376
69047W        W37410   3.709   1.317  10.424
69048W        W37411  17.128  23.085  12.893
69049W        W37412  43.859  29.116   3.190
69050W        W37413   2.464  20.541  10.542
69051W        W37414  18.219  18.236  12.560
69052W        W37415  42.786  43.426   2.208
69053W        W37416  35.982  24.997  11.058
69054W        W37417   1.397  18.132   1.322
69055W        W37418   7.376  18.622   0.893
69056W        W37419  14.340  21.095  14.351
69057W        W37420  16.262   1.798  11.400
69058W        W37421  22.219   1.791   1.719
69059W        W37422  23.546  32.538   1.240
69060W        W37423  41.795  27.635  13.851
69061W        W37424  20.209  42.296  10.032
69062W        W37425  23.608  43.906   3.844
69063W        W37426  15.206  35.486  12.520
69064W        W37427  27.130  36.378   3.274
69065W        W37428  12.665  31.521   1.376
69066W        W37429  26.579  20.120   4.288
69067W        W37430  26.050  33.409   4.325
69068W        W37431  21.046  42.024  12.958
69069W        W37432  18.238  24.108   3.694
69070W        W37433  17.788  40.971   0.912
69071W        W37434  14.158  32.401  13.956
69072W        W37435  40.995  14.775  12.495
69073W        W37436  30.094  30.127  14.004
69074W        W37437  33.506  34.575  10.559
69075W        W37438   8.752   7.894   3.736
69076W        W37439   1.822  40.036   1.934
69077W        W37440  14.152  16.665  14.784
69078W        W37441  41.976  24.183   3.191
69079W        W37442  44.369  25.081  12.538
69080W        W37443   6.309  35.547   3.305
69081W        W37444  33.102   3.823   4.649
69082W        W37445   5.703  25.054  11.109
69083W        W37446   8.759  41.039   0.941
69084W        W37447  15.795   9.786  12.458
69085W        W37448   7.191  23.171  14.351
69086W        W37449  24.643   8.874  14.980
69087W        W37450  23.039  26.068  11.509
69088W        W37451   4.818  34.464  13.050
69089W        W37452  30.954  11.193  10.899
69090W        W37453  15.683  25.123  10.049
69091W        W37454  18.265   2.962   1.309
69092W        W37455  22.182  26.608  14.001
69093W        W37456  35.532  25.079  12.842
69094W        W37457  19.110  27.986  11.121
69095W        W37458   8.897  40.801  14.947
69096W        W37459  29.004  34.529  13.914
69097W        W37460   4.383   9.743  13.494
69098W        W37461  37.934  20.079   2.713
69099W        W37462  23.183  33.533  11.462
69100W        W37463  18.260   1.419   0.259
69101W        W37464   4.943  27.679  12.898
69102W        W37465  18.561  44.923   5.736
69103W        W37466  14.606  14.606   0.899
69104W        W37467  21.176  39.344  12.017
69105W        W37468  24.700  22.063  12.444
69106W        W37469  10.680   3.715   0.835
69107W        W37470   8.734  40.545   2.762
69108W        W37471   0.855  21.046   0.247
69109W        W37472   4.382  22.568   0.259
69110W        W37473  24.508  44.359   4.619
69111W        W37474  28.154  25.552  14.930
69112W        W37475  18.078  18.751   1.897
69113W        W37476  12.358  21.020   2.690
69114W        W37477  24.226  34.433   4.292
69115W        W37478  21.718  34.010  10.960
69116W        W37479  18.640  20.214  13.501
69117W        W37480  33.448  32.905   2.316
69118W        W37481  17.660  13.645  14.509
69119W        W37482   4.395   1.763  12.878
69120W        W37483  40.361  12.231  11.032
69121W        W37484  32.910  30.459  14.956
69122W        W37485  22.158  32.951   4.250
69123W        W37486   8.788  21.116  14.929
69124W        W37487  23.641  37.411   3.861
69125W        W37488  38.537  20.190  14.967
69126W        W37489   7.261   8.204   1.403
69127W        W37490  10.155  16.174  11.006
69128W        W37491  43.988  35.898  11.382
69129W        W37492  13.696  20.050  12.904
69130W        W37493   0.317  32.402   0.888
69131W        W37494   9.311  18.727  14.290
69132W        W37495  42.851  16.727   3.719
69133W        W37496  26.031  17.282  13.386
69134W        W37497  26.174   6.685  11.933
69135W        W37498  10.738  19.727   3.233
69136W        W37499   7.893  39.952  14.325
69137W        W37500   7.389  12.262   4.273
69138W        W37501   0.337  12.745  12.524
69139W        W37502  35.053  28.955  13.378
69140W        W37503  20.713  19.569   0.835
69141W        W37504  18.758  40.344  13.432
69142W        W37505  21.257  15.120   1.263
69143W        W37506  39.355   8.758  14.350
69144W        W37507  42.875  38.488   1.910
69145W        W37508  39.427  17.607  10.432
69146W        W37509  23.155  38.033   0.852
69147W        W37510  28.537  13.797  13.976
69148W        W37511   2.770  21.022   2.793
69149W        W37512  20.716  33.518   0.343
69150W        W37513  41.864  44.443  13.842
69151W        W37514  15.597  14.734  11.497
69152W        W37515  13.199  35.996   0.792
69153W        W37516   2.732   9.819   2.397
69154W        W37517   5.860  38.505   0.407
69155W        W37518  25.162  37.945  13.433
69156W        W37519  38.405  23.496  13.890
69157W        W37520  14.804   8.861  14.470
69158W        W37521  10.244  18.610  14.351
69159W        W37522  12.642  21.599  13.336
69160W        W37523  23.154  35.938  12.339
69161W        W37524  30.080  24.027  12.007
69162W        W37525   0.307   1.399  12.954
69163W        W37526  16.701  34.599  10.597
69164W        W37527  27.157  28.098  10.984
69165W        W37528  38.393  19.193  13.530
69166W        W37529  16.232  27.051   4.347
69167W        W37530  23.667  43.470   4.702
69168W        W37531  41.394  42.929   2.817
69169W        W37532  18.131   1.873  13.473
69170W        W37533   7.229  25.990   4.189
69171W        W37534  28.608  13.159  14.999
69172W        W37535  36.592  33.111  14.973
69173W        W37536  36.566  28.162  10.972
69174W        W37537  18.570  17.205  11.075
69175W        W37538  31.079  34.076  14.312
69176W        W37539  12.772   9.706   2.825
69177W        W37540   8.372   2.963  11.468
69178W        W37541   0.292  21.071   1.380
69179W        W37542  38.964  15.111   3.203
69180W        W37543  18.711  24.173   3.259
69181W        W37544  40.919   5.818  11.429
69182W        W37545   6.226  41.449  10.972
69183W        W37546  44.323  25.968   9.930
69184W        W37547   1.783   6.905  14.460
69185W        W37548   1.270  41.846   4.808
69186W        W37549  18.734   7.223  12.038
69187W        W37550  33.601  44.926   3.799
69188W        W37551  11.129  32.603   4.162
69189W        W37552   3.290  37.571  14.426
69190W        W37553  21.593  12.752   1.240
69191W        W37554  11.338  43.894   4.181
69192W        W37555   8.854   4.273   0.432
69193W        W37556  29.611   6.252  13.511
69194W        W37557  26.983  43.004  12.846
69195W        W37558   3.449  37.007   2.902
69196W        W37559  22.008  32.547  14.957
69197W        W37560  38.037  44.769   3.670
69198W        W37561  18.256   6.402  12.568
69199W        W37562  22.637  36.023   1.397
69200W        W37563  17.090  32.089  12.564
69201W        W37564  22.579  31.414   2.381
69202W        W37565  23.098  37.529  12.972
69203W        W37566  39.929  11.320  10.640
69204W        W37567  22.189   0.318  10.623
69205W        W37568  23.700  30.579   1.259
69206W        W37569  21.223   0.252   4.693
69207W        W37570  14.151  21.065   4.309
69208W        W37571   7.893   0.271  12.427
69209W        W37572   8.341  18.760   0.443
69210W        W37573  17.293  37.475   9.955
69211W        W37574   4.295  35.410  11.397
69212W        W37575   7.334  41.874  12.481
69213W        W37576  26.131  18.599  11.879
69214W        W37577  34.083  42.872  14.406
69215W        W37578  17.559  15.273  11.953
69216W        W37579   5.331  22.590   3.207
69217W        W37580   4.342  18.225  12.498
69218W        W37581  27.058  44.895  13.906
69219W        W37582  14.652  20.595  12.910
69220W        W37583  27.649  44.505  14.789
69221W        W37584   4.727   9.292  11.866
69222W        W37585   8.839  39.487  14.439
69223W        W37586  21.576   6.212   1.928
69224W        W37587  24.677   9.750  14.469
69225W        W37588  41.336   3.297  14.960
69226W        W37589  37.390  30.963  12.573
69227W        W37590  44.465  11.850  12.018
69228W        W37591  38.008  14.218  13.319
69229W        W37592  31.479   7.322  14.378
69230W        W37593  24.066  39.500  12.530
69231W        W37594  23.597  26.010  14.008
69232W        W37595  28.481   2.812   0.312
69233W        W37596  23.549  44.827   3.221
69234W        W37597  26.142  27.571   1.213
69235W        W37598   7.728  25.089  13.946
69236W        W37599  14.778  39.472  11.518
69237W        W37600  41.428  40.431   0.328
69238W        W37601  37.036  42.889   2.193
69239W        W37602  41.847   8.233  12.540
69240W        W37603  35.869  36.969  11.074
69241W        W37604  16.679   7.717  11.967
69242W        W37605  29.096   8.297  12.559
69243W        W37606   7.827  24.111   4.597
69244W        W37607  36.475  30.012  13.951
69245W        W37608   6.884   1.380   2.339
69246W        W37609   7.858  10.339  14.448
69247W        W37610  20.646  36.847  12.480
69248W        W37611   4.306   3.381   1.708
69249W        W37612  37.024  15.115   1.932
69250W        W37613   8.736  13.243   1.256
69251W        W37614   1.894  17.140  13.530
69252W        W37615  17.773   3.433  11.055
69253W        W37616  11.696  39.016  14.506
69254W        W37617  37.361  28.062  13.368
69255W        W37618  28.125  15.254   1.828
69256W        W37619  41.877  34.426  12.842
69257W        W37620  42.316  16.162  14.466
69258W        W37621  28.588  15.186  11.978
69259W        W37622  36.412   4.301   4.832
69260W        W37623  17.664  37.551  13.328
69261W        W37624  36.083   3.300   4.212
69262W        W37625  24.523  27.063   4.720
69263W        W37626  36.452  22.502  11.897
69264W        W37627  32.599  43.458  10.645
69265W        W37628  39.558  35.908  14.515
69266W        W37629  26.482  41.460  13.801
69267W        W37630  19.100  14.705  11.612
69268W        W37631  12.219  31.442   0.472
69269W        W37632  43.780  14.197   2.344
69270W        W37633  13.122  24.105   2.191
69271W        W37634   3.761  24.531  14.282
69272W        W37635  27.614  27.565  12.452
69273W        W37636  32.885  12.321  11.567
69274W        W37637   3.795  18.197   5.199
69275W        W37638  33.404  32.077   5.105
69276W        W37639  26.611  37.368   1.362
69277W        W37640  41.814  26.140  11.106
69278W        W37641  32.516  30.494  10.025
69279W        W37642  15.293  37.349  12.079
69280W        W37643  31.515   7.843  13.506
69281W        W37644  16.812   1.462  14.938
69282W        W37645  25.537  28.506   2.800
69283W        W37646  30.031   5.716   0.964
69284W        W37647  35.359  27.539  12.467
69285W        W37648   1.766   1.319  12.982
69286W        W37649   7.887   6.810  11.448
69287W        W37650  32.020  35.944   1.234
69288W        W37651  37.079  29.630   1.919
69289W        W37652   5.337  29.085  13.428
69290W        W37653   4.936   2.833   4.313
69291W        W37654  15.673  11.181  13.951
69292W        W37655  40.938  41.807  13.918
69293W        W37656  26.654   5.896   4.655
69294W        W37657  13.645  35.981  12.469
69295W        W37658  24.592  14.121  12.492
69296W        W37659  24.594   4.908  14.002
69297W        W37660  24.561  31.019   2.365
69298W        W37661  31.405  16.289   3.645
69299W        W37662  36.931   7.408   1.291
69300W        W37663  26.008  16.745  11.027
69301W        W37664   9.667  18.067   4.729
69302W        W37665  23.570  23.155  11.086
69303W        W37666  33.965   4.302  12.347
69304W        W37667  19.776  14.188   1.935
69305W        W37668  22.621  10.332  10.948
69306W        W37669   5.351   5.803   2.683
69307W        W37670   8.808  25.538   4.334
69308W        W37671  12.347  31.970  10.917
69309W        W37672  14.299  36.064  11.900
69310W        W37673  27.653  24.139  10.609
69311W        W37674  15.634  30.912   0.854
69312W        W37675  13.791  32.444   4.813
69313W        W37676   0.877  22.008   2.734
69314W        W37677  20.673  42.950   1.348
69315W        W37678   8.827   2.368  13.541
69316W        W37679  17.234  20.049   3.242
69317W        W37680   4.777  28.667   3.157
69318W        W37681  17.610   9.852  14.468
69319W        W37682   5.690   7.271  11.977
69320W        W37683  32.943   3.349  14.954
69321W        W37684  32.604  28.153   4.720
69322W        W37685  34.569   3.400   3.846
69323W        W37686  33.088  36.582   0.295
69324W        W37687  21.737  27.523   0.454
69325W        W37688  21.729   7.397   1.820
69326W        W37689  21.027  42.347  13.497
69327W        W37690  43.516  30.092   4.710
69328W        W37691  15.161  42.818  12.980
69329W        W37692  31.016   0.922   4.761
69330W        W37693  26.025  17.577  12.989
69331W        W37694  22.213  15.265   1.324
69332W        W37695  15.202  28.077  10.610
69333W        W37696   6.201  37.884  12.855
69334W        W37697  43.306  20.590   4.321
69335W        W37698  36.035  39.809  14.279
69336W        W37699   0.769  10.293   3.781
69337W        W37700  21.074  20.654  13.508
69338W        W37701  40.042  37.986   3.178
69339W        W37702  18.147   8.287  11.492
69340W        W37703  35.064  27.482  14.806
69341W        W37704  28.032   7.296  10.466
69342W        W37705  17.229   0.848   0.417
69343W        W37706  34.886  12.727   1.213
69344W        W37707   4.761  18.164   5.265
69345W        W37708  11.143   7.675   3.669
69346W        W37709   1.287   0.890  10.951
69347W        W37710  13.809  33.544   4.664
69348W        W37711  13.635   2.439  11.012
69349W        W37712  15.229  34.431   2.386
69350W        W37713  27.140  34.589  14.298
69351W        W37714  30.576  44.403  10.480
69352W        W37715  10.790   1.385  10.928
69353W        W37716  10.811  40.424   0.410
69354W        W37717  15.677   9.677  10.443
69355W        W37718  23.019   8.847   1.867
69356W        W37719  10.843  16.812  13.051
69357W        W37720   8.321  12.640  13.815
69358W        W37721  26.593  34.917   0.250
69359W        W37722  19.193  44.367   0.381
69360W        W37723   9.310  25.088   3.656
69361W        W37724  32.061  36.937   4.819
69362W        W37725  19.671  34.491  13.310
69363W        W37726  38.427   0.430  13.429
69364W        W37727  13.654  31.077  11.042
69365W        W37728   1.913  18.153   1.769
69366W        W37729  28.529  42.025   0.285
69367W        W37730  42.008  17.199  10.409
69368W        W37731  37.860   3.909   0.451
69369W        W37732   1.305  26.207  13.897
69370W        W37733  20.081  27.969   0.387
69371W        W37734  18.560  21.137   5.084
69372W        W37735  23.196  41.412  11.535
69373W        W37736  23.181  17.268  12.445
69374W        W37737  41.873  30.494   4.679
69375W        W37738  28.066   8.840  13.821
69376W        W37739  19.541   3.459   2.778
69377W        W37740  41.985  37.393   1.842
69378W        W37741  24.499  42.455   2.360
69379W        W37742   3.376  31.501  14.969
69380W        W37743  10.225   8.236  14.285
69381W        W37744  38.034  35.517  12.391
69382W        W37745   7.358  40.959  12.965
69383W        W37746  28.436  22.746   0.845
69384W        W37747  23.025  33.415   3.800
69385W        W37748  42.402  26.121   0.781
69386W        W37749   1.264  29.473  12.015
69387W        W37750  21.049  44.260  10.895
69388W        W37751   5.868   3.902   0.264
69389W        W37752   6.254  26.606   2.216
69390W        W37753   3.224  20.268   4.133
69391W        W37754  34.988  23.039   4.143
69392W        W37755   4.941  34.065  14.024
69393W        W37756  27.984  41.484   4.211
69394W        W37757  28.480  37.968   4.327
69395W        W37758   7.912  22.546  10.447
69396W        W37759  33.486  35.975   4.825
69397W        W37760   0.865  27.500  14.451
69398W        W37761  15.225  12.843  14.785
69399W        W37762  21.685  20.704   4.636
69400W        W37763   2.882  22.165   5.253
69401W        W37764  10.641  13.161   1.437
69402W        W37765   9.764   7.357   3.367
69403W        W37766   2.919  10.162  14.017
69404W        W37767  34.381  15.759   2.722
69405W        W37768  10.316   6.200  12.887
69406W        W37769   6.678  14.277  12.411
69407W        W37770  20.615   7.883  11.865
69408W        W37771  19.048  25.091   0.304
69409W        W37772  38.490  14.760  10.947
69410W        W37773  25.092  22.726   3.216
69411W        W37774  12.797   6.227   2.393
69412W        W37775  44.466  42.478  11.077
69413W        W37776  37.838  36.918   3.349
69414W        W37777  25.669  28.984   1.931
69415W        W37778   2.360   4.323  12.888
69416W        W37779   4.216   7.241  11.573
69417W        W37780  17.241   3.908   1.868
69418W        W37781   3.829  20.234   4.682
69419W        W37782   1.363  18.562   2.252
69420W        W37783   9.809   1.913  11.040
69421W        W37784   0.803   4.205   4.710
69422W        W37785  42.024  29.932   3.787
69423W        W37786  28.602  20.212  12.370
69424W        W37787  23.034  27.461   2.182
69425W        W37788  29.454  23.022  11.048
69426W        W37789  21.205  41.952   1.795
69427W        W37790   1.899  28.641   4.677
69428W        W37791  15.218  29.967   1.447
69429W        W37792  19.566   7.298  10.896
69430W        W37793  13.753   9.758   3.868
69431W        W37794  28.595  25.617  11.898
69432W        W37795   7.343  43.956   3.350
69433W        W37796  16.289  27.541   3.327
69434W        W37797   2.809  12.814  14.982
69435W        W37798  23.219  31.055   0.409
69436W        W37799  27.975  29.518   4.685
69437W        W37800  34.582  18.565   4.820
69438W        W37801  37.573  16.644  13.890
69439W        W37802   2.927  35.384   0.383
69440W        W37803  40.833  29.129  14.445
69441W        W37804  43.439   4.908  11.888
69442W        W37805  21.112  21.165   5.125
69443W        W37806  41.309  24.176  14.847
69444W        W37807  31.442  11.629  11.971
69445W        W37808  33.107  29.629   3.678
69446W        W37809   4.373  21.035  14.938
69447W        W37810  40.410  30.082  13.064
69448W        W37811  12.669   0.414   3.659
69449W        W37812  31.506  27.621   1.292
69450W        W37813  10.747  16.086  14.860
69451W        W37814  17.771   0.968  13.951
69452W        W37815  11.205   0.328   4.177
69453W        W37816   3.813  33.414  12.833
69454W        W37817  31.048  15.283  13.923
69455W        W37818  27.047  18.730   2.315
69456W        W37819  30.118  19.065   2.399
69457W        W37820   3.774  15.819   3.867
69458W        W37821   8.318  36.498  13.009
69459W        W37822  40.524  41.881  14.804
69460W        W37823  42.898   6.902  14.919
69461W        W37824  36.568  42.879   3.673
69462W        W37825   9.854   6.226   2.833
69463W        W37826  21.745   0.962   0.292
69464W        W37827   6.729  32.559  11.535
69465W        W37828  44.353   8.868   2.805
69466W        W37829  34.470  32.546  10.489
69467W        W37830  15.788  36.468   2.746
69468W        W37831   4.338   6.251  13.802
69469W        W37832   4.316  23.142  10.029
69470W        W37833  10.640  17.288   3.828
69471W        W37834  40.353  43.013   3.220
69472W        W37835  29.080   1.379   1.311
69473W        W37836  36.572   1.748   0.929
69474W        W37837  29.156  33.010  12.826
69475W        W37838  42.960  37.368   2.318
69476W        W37839  21.709  17.765   2.868
69477W        W37840  39.065  17.685  11.594
69478W        W37841  34.443  34.950  14.855
69479W        W37842  15.201  34.463  12.540
69480W        W37843  30.640   3.273   1.442
69481W        W37844  44.838  12.727   4.154
69482W        W37845  26.510   0.981  11.572
69483W        W37846   6.689  28.009  12.518
69484W        W37847  20.748  41.791  12.968
69485W        W37848  14.168  43.967  14.824
69486W        W37849  38.914   3.374   1.441
69487W        W37850  28.517  32.636   4.720
69488W        W37851  29.604  21.250  10.623
69489W        W37852  13.729  16.674   4.719
69490W        W37853   4.205  23.068   2.228
69491W        W37854  13.791  33.389  10.890
69492W        W37855  27.502  12.826   1.359
69493W        W37856  22.025  27.575  14.341
69494W        W37857  14.173  34.405   1.833
69495W        W37858   7.780  12.670   2.238
69496W        W37859  36.529  28.951   4.803
69497W        W37860  44.300  42.411   2.721
69498W        W37861   0.489  39.872   0.264
69499W        W37862  31.537   4.816   0.891
69500W        W37863  43.270  43.936   1.418
69501W        W37864   2.877  37.898   3.296
69502W        W37865  33.527  15.631   1.356
69503W        W37866  14.311   1.874  14.780
69504W        W37867  32.025  41.958  12.020
69505W        W37868   8.678  41.947  13.855
69506W        W37869  43.017  21.672   3.293
69507W        W37870  38.035  37.440  10.898
69508W        W37871  38.059   4.254   0.762
69509W        W37872   1.331  36.586   4.144
69510W        W37873  17.737  36.056   4.212
69511W        W37874   5.193  24.154   1.218
69512W        W37875   1.781  33.875  11.922
69513W        W37876   0.450  36.931  12.481
69514W        W37877  17.136  14.297   2.208
69515W        W37878  28.004  22.715   3.734
69516W        W37879  12.648  25.658   4.234
69517W        W37880  16.140  21.089  13.014
69518W        W37881  12.253  26.964   0.776
69519W        W37882  28.454  15.650  12.061
69520W        W37883  27.529  38.849  14.996
69521W        W37884  37.456  33.064  14.790
69522W        W37885  22.225  40.028  12.963
69523W        W37886   9.281  28.010  11.518
69524W        W37887   6.904   9.728   0.326
69525W        W37888  44.360  33.552   0.432
69526W        W37889   3.250   8.825   1.716
69527W        W37890   3.911  38.929   3.189
69528W        W37891  18.079  10.816   1.699
69529W        W37892   3.411  27.563   1.738
69530W        W37893  43.808  11.856  10.613
69531W        W37894  17.208  14.327  13.798
69532W        W37895  44.471  39.492  11.451
69533W        W37896  43.938  35.045   5.138
69534W        W37897  36.502  10.197   4.807
69535W        W37898  25.529  42.414  11.876
69536W        W37899   5.815  35.890   2.363
69537W        W37900   5.326  13.193   4.782
69538W        W37901   8.406  43.275   1.934
69539W        W37902  37.338  40.479   0.885
69540W        W37903   2.865  10.787   0.902
69541W        W37904  27.639  23.700  12.873
69542W        W37905  12.276  16.789  13.022
69543W        W37906  39.406  21.757  10.917
69544W        W37907   8.775   6.848   4.610
69545W        W37908  37.468  33.514  12.948
69546W        W37909  44.428  12.255  11.128
69547W        W37910  27.540  28.993   0.303
69548W        W37911  37.922  31.949  11.881
69549W        W37912  17.107  36.536   4.769
69550W        W37913  11.692  10.359   1.877
69551W        W37914  29.030  11.296  14.347
69552W        W37915  23.205  13.823  13.343
69553W        W37916  17.236  43.815   1.781
69554W        W37917  30.966  17.771  13.052
69555W        W37918  42.823  35.511  10.044
69556W        W37919  29.070  10.166  10.464
69557W        W37920   2.774  43.446   5.257
69558W        W37921  35.925  35.602   0.908
69559W        W37922  35.911  41.927   1.889
69560W        W37923  40.364  39.892   1.927
69561W        W37924   3.321  41.331  10.467
69562W        W37925  15.277  22.719  11.944
69563W        W37926  30.591  15.626  14.450
69564W        W37927  18.785  14.832   0.780
69565W        W37928  29.663   1.751  10.042
69566W        W37929  29.632  13.283   2.775
69567W        W37930  36.007  37.870  14.860
69568W        W37931  30.636  18.659   3.724
69569W        W37932  43.863   3.929  14.911
69570W        W37933  17.138  13.191   5.175
69571W        W37934  40.518  11.653   1.704
69572W        W37935  19.742  17.679  10.433
69573W        W37936  42.290  24.604  11.908
69574W        W37937  35.882  33.612  10.496
69575W        W37938  22.648   5.315  11.516
69576W        W37939  43.905   3.374   2.897
69577W        W37940  33.519  17.280   4.731
69578W        W37941  13.124  40.356  10.520
69579W        W37942  28.452  27.080   1.374
69580W        W37943  23.701  37.397   4.325
69581W        W37944   8.721  33.992   1.217
69582W        W37945   0.895  15.635  11.979
69583W        W37946   3.886   6.872   1.857
69584W        W37947  28.963  32.539   1.391
69585W        W37948  43.323  43.321   1.795
69586W        W37949  37.551  31.020   0.431
69587W        W37950  17.614  29.950   3.694
69588W        W37951   9.203  27.515   1.403
69589W        W37952  25.087  11.704   0.899
69590W        W37953  42.933  34.394  10.929
69591W        W37954  17.587  16.131  13.055
69592W        W37955  44.797  13.138  11.878
69593W        W37956  41.428   2.895  11.389
69594W        W37957  32.494  21.026  10.155
69595W        W37958  44.852  31.603  14.390
69596W        W37959  18.754  30.421   2.892
69597W        W37960  27.114   5.849   4.162
69598W        W37961  44.000  17.719   1.706
69599W        W37962   4.849  22.231   4.792
69600W        W37963  22.670  11.160  12.569
69601W        W37964  28.108  16.573  13.064
69602W        W37965  24.133  17.299   3.712
69603W        W37966  32.569  12.271  10.626
69604W        W37967   7.192  26.489  13.395
69605W        W37968  11.128  36.999  12.383
69606W        W37969  28.052  37.862   0.317
69607W        W37970  36.507  23.512   1.292
69608W        W37971  23.668   9.323  13.990
69609W        W37972  41.498  25.022  10.596
69610W        W37973   1.855  39.325  12.399
69611W        W37974  34.610  26.483  12.977
69612W        W37975  29.152   3.344   9.979
69613W        W37976  15.619  12.823   4.647
69614W        W37977  12.171  34.381  11.528
69615W        W37978  16.804  38.012   3.776
69616W        W37979  44.807   8.304  12.524
69617W        W37980  29.566  33.577  11.577
69618W        W37981   3.417   6.685  11.108
69619W        W37982  35.560  40.427   4.209
69620W        W37983   7.323  33.509  10.463
69621W        W37984  25.527  40.476   3.190
69622W        W37985  38.004  16.729  14.786
69623W        W37986   0.814   1.252  13.026
69624W        W37987  31.414  38.931   1.219
69625W        W37988  41.369  37.993   2.197
69626W        W37989  30.139  35.535   2.866
69627W        W37990  14.787  20.564   1.766
69628W        W37991  39.330  17.190  14.377
69629W        W37992   6.680  24.631   2.328
69630W        W37993  39.045   7.818  14.992
69631W        W37994  19.039  26.995   1.828
69632W        W37995  26.549  15.603   1.737
69633W        W37996  36.380   8.162  14.935
69634W        W37997  15.124  11.664  10.429
69635W        W37998  11.300  24.158  14.899
69636W        W37999  34.935  13.681   2.213
69637W        W38000  27.161  38.848   2.751
69638W        W38001  35.568  36.497  11.044
69639W        W38002   3.460   9.885  13.835
69640W        W38003  25.511  17.715  12.094
69641W        W38004  44.763  16.267  11.934
69642W        W38005  39.953   7.768  14.994
69643W        W38006   1.287   8.699  12.408
69644W        W38007  31.036  34.928   0.350
69645W        W38008  42.926  25.108   2.899
69646W        W38009  29.619  37.862  13.996
69647W        W38010  13.342  26.089   4.283
69648W        W38011  39.555  39.543  10.424
69649W        W38012  43.348  30.123  13.809
69650W        W38013  27.673  43.957   0.287
69651W        W38014   7.230  34.597   3.257
69652W        W38015  12.716  27.503   1.930
69653W        W38016  22.601  43.432  10.591
69654W        W38017  24.533   6.866  14.027
69655W        W38018  27.526  41.453   2.845
69656W        W38019  30.122  32.143  12.574
69657W        W38020  37.061  30.650   2.798
69658W        W38021  36.045  18.720  13.376
69659W        W38022  30.125  30.022   0.938
69660W        W38023  21.700   6.299  13.397
69661W        W38024  39.473  11.258   2.884
69662W        W38025   5.279  32.563  12.365
69663W        W38026  23.119  26.462   3.298
69664W        W38027  17.769  15.638  12.060
69665W        W38028  27.460  40.917  11.382
69666W        W38029  11.710  35.431  13.312
69667W        W38030  42.370  40.342  13.945
69668W        W38031  10.234  33.517   5.200
69669W        W38032  20.047  19.282  13.313
69670W        W38033   3.842  17.750  11.946
69671W        W38034  39.818  20.688  14.848
69672W        W38035  24.120  19.577  14.969
69673W        W38036   3.721  31.996   5.137
69674W        W38037  14.733   8.736   3.243
69675W        W38038  30.992  16.778  11.927
69676W        W38039  13.614  15.592   0.736
69677W        W38040   4.309  19.212  14.376
69678W        W38041  11.226   4.210  11.976
69679W        W38042  10.781  17.195  11.941
69680W        W38043  24.537   8.348   2.224
69681W        W38044   8.855  23.587   1.883
69682W        W38045  44.278   5.719   5.088
69683W        W38046   8.654  36.990   3.686
69684W        W38047  33.617  20.608   2.413
69685W        W38048  11.127  20.611   0.479
69686W        W38049  14.601   3.760  11.385
69687W        W38050   1.311  36.094   2.801
69688W        W38051   6.769  14.687  10.967
69689W        W38052   2.459   9.155  12.967
69690W        W38053   5.298  23.084   0.331
69691W        W38054  40.418  37.046  14.894
69692W        W38055   9.759  12.680   3.368
69693W        W38056  29.075  13.766  10.469
69694W        W38057  24.683  15.592   0.838
69695W        W38058  10.756  42.986  13.381
69696W        W38059  33.040  42.341   0.283
69697W        W38060  17.594  13.302   1.885
69698W        W38061  16.605  15.700  13.839
69699W        W38062  13.156  16.103  12.578
69700W        W38063  32.408  39.467   2.360
69701W        W38064  35.538   3.749   2.273
69702W        W38065  37.555  10.815  12.464
69703W        W38066  20.577   9.203  14.348
69704W        W38067  43.904   7.835   1.429
69705W        W38068  36.590   8.239   0.376
69706W        W38069  39.864  30.624   0.251
69707W        W38070  31.602  26.014  14.848
69708W        W38071  34.891  25.001  13.526
69709W        W38072  39.448  43.852   3.277
69710W        W38073  10.253  17.234   4.158
69711W        W38074  21.066  44.423   3.379
69712W        W38075  39.416  24.137  13.836
69713W        W38076  27.072   8.360   2.756
69714W        W38077  36.389  27.508  12.995
69715W        W38078  24.695  24.638  10.962
69716W        W38079  33.409  27.671   0.751
69717W        W38080  13.649  32.402  11.558
69718W        W38081  13.768  29.953  14.298
69719W        W38082  43.967  33.120  10.939
69720W        W38083  38.068  35.896   0.432
69721W        W38084   7.876  19.621   3.219
69722W        W38085   0.381   8.378  10.914
69723W        W38086  20.194  39.514  14.920
69724W        W38087   0.742  20.734  11.082
69725W        W38088  35.563  29.116   2.346
69726W        W38089  18.142  21.660  13.312
69727W        W38090  38.389  19.743  11.878
69728W        W38091  13.304   6.699   1.353
69729W        W38092  44.396  31.609   4.770
69730W        W38093  15.757  17.761  14.496
69731W        W38094  27.552   6.318   0.830
69732W        W38095  41.845   7.704   3.286
69733W        W38096  43.835  17.716   2.279
69734W        W38097   3.225  33.432  14.389
69735W        W38098   1.899  42.512   2.389
69736W        W38099  21.757  40.826  13.844
69737W        W38100  21.644  27.159  12.404
69738W        W38101  43.502  35.564  13.415
69739W        W38102  20.148  29.084  14.853
69740W        W38103  31.082  26.568   1.401
69741W        W38104  21.255  31.018  11.416
69742W        W38105  33.599  33.412  12.468
69743W        W38106  19.083  22.066  13.020
69744W        W38107  33.417  40.352   4.755
69745W        W38108  17.790   3.763  11.435
69746W        W38109  36.520  27.605  14.297
69747W        W38110  40.040  20.235   4.773
69748W        W38111  20.226  26.043  12.357
69749W        W38112  27.195   2.360  12.071
69750W        W38113  33.065   5.360   0.297
69751W        W38114   3.727  26.032  12.454
69752W        W38115   1.367   5.193  11.430
69753W        W38116  28.142   9.739  13.974
69754W        W38117  44.770  23.060   4.692
69755W        W38118  30.983  26.106  12.554
69756W        W38119   9.229  14.673   3.344
69757W        W38120  11.241  42.483   4.207
69758W        W38121  31.494   8.757   0.751
69759W        W38122  22.067   2.740   2.870
69760W        W38123  44.902  34.523  14.455
69761W        W38124   7.729  23.204  10.518
69762W        W38125  10.846  23.105  11.969
69763W        W38126  36.075   6.900   4.283
69764W        W38127  16.076  15.713   3.717
69765W        W38128  14.277  37.936  12.574
69766W        W38129   6.211  26.521  13.331
69767W        W38130  26.131  16.142  13.430
69768W        W38131   9.332  38.964   2.415
69769W        W38132  31.063  13.679   1.934
69770W        W38133   3.884  41.356   3.324
69771W        W38134  38.029  41.846   0.792
69772W        W38135   7.744  15.728   3.272
69773W        W38136   7.338   3.365  11.488
69774W        W38137  31.001  31.964  14.371
69775W        W38138   5.373   9.200   1.895
69776W        W38139  44.399  36.973   1.282
69777W        W38140  20.233  23.185  13.832
69778W        W38141  42.782  23.631   0.345
69779W        W38142  21.642  24.696  11.541
69780W        W38143  14.795  28.072  10.634
69781W        W38144  26.548  11.262   2.751
69782W        W38145   3.802  11.324   0.959
69783W        W38146  43.424  32.419   1.810
69784W        W38147  13.625  17.222  10.475
69785W        W38148   3.843  29.145  10.574
69786W        W38149  18.186  22.574  12.992
69787W        W38150  21.561  21.513  11.509
69788W        W38151  39.494  25.028   1.757
69789W        W38152  11.216  32.908   4.230
69790W        W38153  15.689  23.645  13.532
69791W        W38154  28.654   7.243  13.845
69792W        W38155  15.782  40.480  11.967
69793W        W38156  26.154   4.304  12.527
69794W        W38157  14.607  10.171   0.865
69795W        W38158  39.905  11.723   1.798
69796W        W38159  17.193  39.395  10.921
69797W        W38160  29.660  26.667   5.207
69798W        W38161  31.602  19.090  11.878
69799W        W38162  34.116   4.749   2.295
69800W        W38163  10.228  32.075   1.426
69801W        W38164  29.590  28.950   0.783
69802W        W38165   5.372  22.136   2.351
69803W        W38166  34.421  35.932   3.839
69804W        W38167  29.652  18.778   0.944
69805W        W38168  16.303  36.014  13.390
69806W        W38169  26.066  39.841   3.645
69807W        W38170  39.810  35.465   3.755
69808W        W38171  29.037  11.813  12.376
69809W        W38172  40.944   5.772   2.876
69810W        W38173  30.971  43.843   3.289
69811W        W38174  10.179  32.972   4.335
69812W        W38175  14.183   5.231  13.876
69813W        W38176  15.671  16.805  14.873
69814W        W38177  32.974  28.986   4.637
69815W        W38178  24.200  44.864  12.861
69816W        W38179   9.851  39.923  12.973
69817W        W38180  17.232  43.985  10.451
69818W        W38181  39.064   0.425   1.211
69819W        W38182   0.925  27.138  11.504
69820W        W38183  33.470  43.328   1.855
69821W        W38184  21.706   5.811  12.447
69822W        W38185  14.735  44.503   2.218
69823W        W38186  43.970  37.924   0.771
69824W        W38187  31.032  36.500   3.177
69825W        W38188  25.107  17.084   3.184
69826W        W38189  13.106  22.573  13.324
69827W        W38190  35.426  38.352   2.226
69828W        W38191  10.317  43.337  11.014
69829W        W38192  40.997  22.586   0.418
69830W        W38193  17.075  37.424  13.802
69831W        W38194  32.011   8.354   3.734
69832W        W38195  30.492  31.536  13.476
69833W        W38196  20.227  13.672  13.020
69834W        W38197  40.901  27.545  14.802
69835W        W38198  22.223   9.382   1.385
69836W        W38199  24.213  41.309  14.309
69837W        W38200  33.080  34.509   3.231
69838W        W38201  16.676   5.733  12.991
69839W        W38202  26.025  36.355   0.892
69840W        W38203  21.516  35.875  12.559
69841W        W38204   1.273  40.525   3.268
69842W        W38205   3.873   7.774  14.478
69843W        W38206  29.980  28.127  14.386
69844W        W38207  24.545  43.463  11.128
69845W        W38208  29.976  23.604  11.457
69846W        W38209  23.621   3.404   1.399
69847W        W38210  24.020   6.855   0.885
69848W        W38211  41.321   5.774  12.866
69849W        W38212   9.340  23.553  11.936
69850W        W38213  21.624   7.686  13.521
69851W        W38214  19.650  34.041   3.819
69852W        W38215  32.565  40.992   4.828
69853W        W38216  12.174  40.429   4.623
69854W        W38217  32.138  11.282   3.346
69855W        W38218   5.757   8.240   3.805
69856W        W38219  35.553  26.462   4.244
69857W        W38220  43.992  23.684   0.768
69858W        W38221  44.880  12.244  10.931
69859W        W38222   7.396  12.856  12.369
69860W        W38223   5.224   3.266   3.652
69861W        W38224  32.515  17.660   2.764
69862W        W38225  41.485  14.249   1.826
69863W        W38226   7.295  33.607   0.803
69864W        W38227  13.266  42.345  12.380
69865W        W38228  15.673  18.589   5.220
69866W        W38229   8.352   5.213  13.038
69867W        W38230  30.073  40.933  13.376
69868W        W38231   2.950  23.028  12.918
69869W        W38232  32.098  13.350  13.007
69870W        W38233  23.693   7.770   2.724
69871W        W38234  12.152   5.318  14.378
69872W        W38235   4.915  36.508   1.749
69873W        W38236   8.207  30.930   3.852
69874W        W38237  36.892   6.319   3.171
69875W        W38238   8.234  42.468  10.893
69876W        W38239   6.762   3.229  13.431
69877W        W38240  34.587  25.568   1.368
69878W        W38241  38.847   0.906  13.849
69879W        W38242  26.581  18.274  12.049
69880W        W38243  33.929  26.953  10.584
69881W        W38244   0.333  44.891  13.909
69882W        W38245  19.217   7.281  11.036
69883W        W38246  36.947  13.120  11.903
69884W        W38247  44.433   3.305   2.699
69885W        W38248  19.572   6.811   3.800
69886W        W38249  36.402  30.617  10.138
69887W        W38250   4.779  13.722   1.438
69888W        W38251  14.753   6.810  12.363
69889W        W38252   6.838  11.151  10.448
69890W        W38253  41.458  38.971   0.731
69891W        W38254  29.669   3.447   4.313
69892W        W38255  42.395  40.364  14.764
69893W        W38256  32.006  39.411   2.333
69894W        W38257   1.411  40.503  13.334
69895W        W38258   1.966  13.209  14.833
69896W        W38259   7.258  22.021  14.341
69897W        W38260  41.820  20.231  13.384
69898W        W38261  18.601  36.034  10.095
69899W        W38262   9.646  10.205   1.811
69900W        W38263  14.759  42.008  14.470
69901W        W38264   3.351  35.887  13.911
69902W        W38265   9.667  38.061   3.374
69903W        W38266  17.737  34.603   0.243
69904W        W38267  28.169   0.467  10.915
69905W        W38268  17.787  34.608  14.952
69906W        W38269  43.297   7.230  10.557
69907W        W38270  13.185   2.461   2.714
69908W        W38271  36.847  13.708   1.853
69909W        W38272  10.720  11.744  13.314
69910W        W38273  10.240  35.957   4.812
69911W        W38274  33.562  16.688  10.004
69912W        W38275   2.908  19.736  13.388
69913W        W38276  29.046  43.847   1.867
69914W        W38277  19.041  22.595  10.645
69915W        W38278   5.324  38.527   1.395
69916W        W38279  32.432   1.843  11.067
69917W        W38280   7.792  30.480   0.849
69918W        W38281  29.115  22.169   0.283
69919W        W38282  38.047   2.291  14.398
69920W        W38283   5.800  10.734   1.702
69921W        W38284  28.948  10.165  13.324
69922W        W38285  24.210  42.924   0.759
69923W        W38286  33.919  24.621   2.392
69924W        W38287  19.238  40.939  12.578
69925W        W38288  25.629   7.304  11.892
69926W        W38289  11.357   3.936  11.120
69927W        W38290   2.838   4.394  12.413
69928W        W38291  43.401   6.261   2.807
69929W        W38292  41.804  25.142  11.421
69930W        W38293  37.385  29.945  11.112
69931W        W38294  42.395  30.988   1.295
69932W        W38295   3.817  36.040   1.315
69933W        W38296  17.727   2.887   3.323
69934W        W38297  43.814  11.175   4.686
69935W        W38298   8.329  42.919   0.395
69936W        W38299   8.884  43.387  13.353
69937W        W38300  21.105  12.791   0.869
69938W        W38301  28.121  36.941  10.476
69939W        W38302  44.897  19.060   0.407
69940W        W38303  42.438   9.294  10.435
69941W        W38304  26.650  33.035   1.298
69942W        W38305   1.462  16.085  13.316
69943W        W38306   2.261   2.949  11.405
69944W        W38307  40.879  34.098   1.725
69945W        W38308  26.614  35.080   0.891
69946W        W38309  35.510  29.562  13.862
69947W        W38310  44.292  41.958   2.873
69948W        W38311  14.783  27.660  14.434
69949W        W38312  27.605  10.635  14.768
69950W        W38313   0.834  30.914  10.898
69951W        W38314   4.917   1.835   3.248
69952W        W38315  15.294  35.923   0.382
69953W        W38316   6.423  44.501  12.469
69954W        W38317   6.320  25.218   2.371
69955W        W38318   7.389   9.863  14.510
69956W        W38319  10.675   5.863   4.779
69957W        W38320   3.808  14.115  11.925
69958W        W38321   2.335  27.044   0.826
69959W        W38322  30.598  40.508  13.363
69960W        W38323  12.800  26.570  12.929
69961W        W38324  22.042  15.813  13.471
69962W        W38325  44.837  12.852  13.042
69963W        W38326  37.542  33.542  13.960
69964W        W38327   1.253  28.028   1.220
69965W        W38328   3.934  39.990   2.227
69966W        W38329  43.458  12.714   3.772
69967W        W38330   0.476  28.554  13.475
69968W        W38331   5.851   4.731   0.417
69969W        W38332  40.485   8.355   1.369
69970W        W38333  32.966  29.028  13.459
69971W        W38334  27.023   9.832  13.941
69972W        W38335  31.577  17.645   1.761
69973W        W38336  14.097  37.559  13.471
69974W        W38337  39.896  11.320   0.468
69975W        W38338  23.115   8.288  11.073
69976W        W38339  19.768  22.611  13.885
69977W        W38340  10.696  44.999  13.420
69978W        W38341  13.610  17.641  11.061
69979W        W38342  23.039  28.951  14.007
69980W        W38343  28.979   1.458   0.302
69981W        W38344  39.417  40.387   1.314
69982W        W38345  28.530  21.633  11.940
69983W        W38346   8.703  43.437  14.926
69984W        W38347  40.345  28.959   1.825
69985W        W38348  16.247  32.455  13.862
69986W        W38349   5.921  18.167   2.820
69987W        W38350  21.106  32.032  12.462
69988W        W38351  27.140  30.990  14.762
69989W        W38352   2.317  39.997  11.083
69990W        W38353  40.488  44.349   2.313
69991W        W38354  22.648   5.803  10.562
69992W        W38355   3.321  31.000   3.644
69993W        W38356  34.035   5.806   0.353
69994W        W38357  38.854  16.669  14.010
69995W        W38358   3.801  12.173  12.921
69996W        W38359  11.285  26.560  14.450
69997W        W38360  41.976   0.407  14.498
69998W        W38361  13.687  20.664  13.814
69999W        W38362   5.691  27.999   1.898
70000W        W38363   1.807  30.553   1.288
70001W        W38364   0.925  27.097  11.027
70002W        W38365  38.511  33.997  12.017
70003W        W38366  44.756  13.823  13.359
70004W        W38367  28.600  31.538   0.271
70005W        W38368  33.969  23.221  13.335
70006W        W38369  36.592  37.542  12.440
70007W        W38370  37.901  43.982   0.919
70008W        W38371  30.595  32.990   1.444
70009W        W38372  36.567  26.661   4.181
70010W        W38373  36.394  25.557  11.886
70011W        W38374  16.176  14.680   0.414
70012W        W38375   3.714   2.410   2.712
70013W        W38376  24.678  25.546  13.813
70014W        W38377  13.314  36.408  14.505
70015W        W38378  17.134   1.899  12.901
70016W        W38379  36.501  13.745   4.263
70017W        W38380  42.358  41.470   4.637
70018W        W38381  14.818  23.581  13.352
70019W        W38382  12.339  27.487  10.619
70020W        W38383  34.943  25.477  10.544
70021W        W38384  40.903  19.076   2.199
70022W        W38385   6.226  11.269  13.519
70023W        W38386  26.469  12.166  12.440
70024W        W38387  26.591  41.471  10.490
70025W        W38388  30.003  15.707   4.274
70026W        W38389  36.580  41.848   0.738
70027W        W38390  44.473  29.625   3.798
70028W        W38391   4.852  23.670   1.756
70029W        W38392  20.682   1.927   1.300
70030W        W38393   0.780   3.455  10.632
70031W        W38394  17.077  16.285   4.792
70032W        W38395  33.889  27.003  11.451
70033W        W38396  27.528  18.759   4.778
70034W        W38397  42.387  30.095   4.801
70035W        W38398   5.867  14.328  11.990
70036W        W38399  13.152   6.689   4.137
70037W        W38400  35.446  12.643   0.891
70038W        W38401  29.609  35.071   1.273
70039W        W38402   2.776   1.240  10.477
70040W        W38403  41.864   6.785  11.543
70041W        W38404  27.074   1.959   0.916
70042W        W38405  29.461  32.460   4.757
70043W        W38406  14.805  36.077   5.191
70044W        W38407  26.023  18.789   3.276
70045W        W38408  13.274  36.010  11.612
70046W        W38409  35.417   8.830   0.296
70047W        W38410  35.005   4.778  11.538
70048W        W38411  35.034  43.479   0.311
70049W        W38412   5.381   7.749   1.264
70050W        W38413  27.011  26.512  10.581
70051W        W38414  22.233  42.517   4.606
70052W        W38415   0.791  38.556   0.906
70053W        W38416  36.061  18.547   3.340
70054W        W38417  34.606  29.664  13.925
70055W        W38418   3.371  34.948  13.410
70056W        W38419  30.041  22.501   4.266
70057W        W38420  34.548   7.301  12.981
70058W        W38421  30.436   3.879   2.716
70059W        W38422  11.252  17.079  11.995
70060W        W38423  40.005  30.977  12.068
70061W        W38424  26.175  36.021   1.244
70062W        W38425   2.726  31.067  12.406
70063W        W38426  11.355  27.560  14.005
70064W        W38427  32.945   8.307  13.356
70065W        W38428  15.087  20.634  12.550
70066W        W38429  22.180  31.120   1.816
70067W        W38430   9.221  15.818   1.280
70068W        W38431  41.885  19.063   2.265
70069W        W38432  28.444  19.135  14.375
70070W        W38433  19.624   2.296  12.417
70071W        W38434  23.176  33.625   1.787
70072W        W38435  14.155   1.975  10.634
70073W        W38436   1.887  14.693   4.214
70074W        W38437  26.535  15.709   2.667
70075W        W38438  22.522  24.992   1.275
70076W        W38439  22.207  44.346  12.541
70077W        W38440  11.316  38.945  11.984
70078W        W38441   3.732  24.034   5.280
70079W        W38442   2.470  16.111  13.973
70080W        W38443  17.715   7.346   3.311
70081W        W38444  38.962  23.715   0.963
70082W        W38445   3.808  38.865  10.554
70083W        W38446  40.538  28.561  11.380
70084W        W38447  37.521  41.457   0.328
70085W        W38448   0.967  32.397  11.436
70086W        W38449  42.016  30.435   3.293
70087W        W38450  29.451  18.295   1.820
70088W        W38451   5.336   8.816   4.189
70089W        W38452  31.571  25.651   1.323
70090W        W38453  34.539  19.180   4.598
70091W        W38454  11.742  36.023  12.063
70092W        W38455  35.409  35.009   0.916
70093W        W38456  29.955  40.487   0.925
70094W        W38457  28.613  12.681  11.429
70095W        W38458  40.831  18.728  13.500
70096W        W38459  15.649  19.206  13.531
70097W        W38460  30.971  37.366   2.377
70098W        W38461  24.707  36.962   2.799
70099W        W38462  24.645  28.560  14.453
70100W        W38463  18.608  12.655   4.213
70101W        W38464   8.660   9.234   4.720
70102W        W38465  25.097  20.243   0.347
70103W        W38466   3.265  29.436   1.409
70104W        W38467  37.378   0.444  12.970
70105W        W38468  32.545  24.489   2.705
70106W        W38469   7.232  44.387   0.760
70107W        W38470   3.289  40.042  12.505
70108W        W38471   3.788  27.992  12.834
70109W        W38472  17.274  36.846  14.491
70110W        W38473   1.350  18.256   0.791
70111W        W38474  36.905  34.920  11.550
70112W        W38475  29.608  36.464   3.343
70113W        W38476  11.317  14.142   0.344
70114W        W38477  39.423  44.940   3.766
70115W        W38478  41.036  10.337  12.500
70116W        W38479  26.135  26.202   0.313
70117W        W38480  31.402  11.330  13.444
70118W        W38481  18.203  41.490   4.676
70119W        W38482  38.974  24.998  12.877
70120W        W38483  37.374   2.873  12.848
70121W        W38484  13.113   8.344  10.601
70122W        W38485  15.722  13.254   0.878
70123W        W38486  36.432  37.367  13.351
70124W        W38487   7.732   1.311  11.603
70125W        W38488  37.537  12.816  12.003
70126W        W38489  33.581  27.178  12.434
70127W        W38490  14.309  30.933   1.919
70128W        W38491  19.040  34.967  14.965
70129W        W38492  29.640  37.382  14.307
70130W        W38493  27.661  11.218  10.538
70131W        W38494  15.639  40.926   1.760
70132W        W38495  32.404  31.129   3.220
70133W        W38496  43.502   7.388  10.010
70134W        W38497  20.191  26.624  13.912
70135W        W38498   4.245   9.733  14.364
70136W        W38499  41.853  42.902   0.321
70137W        W38500  20.544  26.955   4.693
70138W        W38501   3.770   1.479   3.192
70139W        W38502  35.435  13.777   2.306
70140W        W38503  26.180   8.367   4.723
70141W        W38504  30.616  23.685  14.324
70142W        W38505  37.840  32.459   0.316
70143W        W38506  25.616   6.317  11.129
70144W        W38507  38.028  32.074   3.814
70145W        W38508   5.908   8.787   0.944
70146W        W38509  21.623  27.535  12.033
70147W        W38510   0.950  34.992  11.541
70148W        W38511  34.523  10.302  11.862
70149W        W38512  22.082  14.721   3.794
70150W        W38513  33.614  18.597   0.854
70151W        W38514  26.678  20.099  10.993
70152W        W38515  27.152  17.103   1.856
70153W        W38516  43.894  42.817   0.392
70154W        W38517  36.943  30.090  14.819
70155W        W38518  37.426  35.060  12.902
70156W        W38519   3.433  38.413   3.309
70157W        W38520  25.049  43.461   1.431
70158W        W38521  22.040  18.644  10.967
70159W        W38522  42.334  26.122   2.712
70160W        W38523   8.749   4.790  14.386
70161W        W38524   6.810   2.909   4.705
70162W        W38525  35.528   2.834  13.045
70163W        W38526  40.494  10.147   3.715
70164W        W38527  22.140   9.185  11.868
70165W        W38528  16.123  15.641   2.270
70166W        W38529  39.481  19.551  11.411
70167W        W38530  25.013  23.534   4.298
70168W        W38531  13.304  25.662  12.566
70169W        W38532  40.375  34.421   2.865
70170W        W38533  40.433   0.803   3.161
70171W        W38534  37.025  20.172  11.877
70172W        W38535   9.182   7.219   1.712
70173W        W38536  25.594  11.769  13.795
70174W        W38537  26.096   1.950   4.186
70175W        W38538   6.786  13.169  11.950
70176W        W38539  40.307  44.879   1.303
70177W        W38540  33.485  21.240   4.118
70178W        W38541   7.371  22.211   0.271
70179W        W38542   6.782  25.633  12.391
70180W        W38543  15.139  23.693   2.767
70181W        W38544   4.870  35.444   1.280
70182W        W38545  25.092  37.936   1.283
70183W        W38546  30.907  27.108  10.098
70184W        W38547  11.860   7.170  11.075
70185W        W38548   7.371  15.797  12.412
70186W        W38549  32.558  35.917  13.987
70187W        W38550  37.936  22.653  13.504
70188W        W38551  11.819   0.877  10.491
70189W        W38552  40.421  28.008   4.191
70190W        W38553  41.940   8.293  10.602
70191W        W38554  43.431  20.649   3.234
70192W        W38555  17.202  38.992   2.666
70193W        W38556   0.907  18.639  11.569
70194W        W38557  22.539   2.741  13.499
70195W        W38558  12.216  33.615   9.972
70196W        W38559  32.576   0.329  13.059
70197W        W38560  23.639   3.897   2.305
70198W        W38561  36.353   9.645  10.443
70199W        W38562  39.023  36.856   1.734
70200W        W38563  42.865  39.981  10.590
70201W        W38564   0.416  42.001  14.001
70202W        W38565  37.925   3.414   2.270
70203W        W38566  16.127  35.931   3.672
70204W        W38567  15.199  40.431   0.772
70205W        W38568  24.696  27.502   0.899
70206W        W38569   3.373  25.186   1.370
70207W        W38570  37.370  37.868  14.281
70208W        W38571  25.551   5.845  13.983
70209W        W38572  23.216  32.106   3.260
70210W        W38573   2.254   9.195   1.298
70211W        W38574  27.489  37.087  13.456
70212W        W38575  23.094  22.030  10.572
70213W        W38576   0.343  16.573   1.232
70214W        W38577  39.815  40.475  13.922
70215W        W38578  20.107   0.381   2.288
70216W        W38579  22.199  32.612   2.667
70217W        W38580   6.184  31.492  14.282
70218W        W38581  34.544  23.099  14.385
70219W        W38582  38.556  34.570   3.150
70220W        W38583  38.449  38.962   0.737
70221W        W38584  26.561  33.401  12.899
70222W        W38585   7.790  33.595  13.879
70223W        W38586  39.376  36.522   4.117
70224W        W38587  39.550  34.865   0.260
70225W        W38588  13.157  19.048  12.033
70226W        W38589  31.122  13.666  11.555
70227W        W38590  33.949   9.714   3.283
70228W        W38591  27.962  22.027   2.779
70229W        W38592  24.499  23.152   1.859
70230W        W38593  33.477  39.877   5.220
70231W        W38594   0.816  38.983  14.277
70232W        W38595  30.640  21.196   1.437
70233W        W38596  16.788  11.676   4.260
70234W        W38597  34.032  24.549   3.748
70235W        W38598  25.046  13.330  10.539
70236W        W38599  20.611  30.611   3.169
70237W        W38600  40.927  33.123   0.448
70238W        W38601  33.880   1.476   4.646
70239W        W38602  39.034  38.908   4.648
70240W        W38603   2.398  13.111   4.276
70241W        W38604   3.791  40.849   0.423
70242W        W38605  28.515   3.811  14.438
70243W        W38606   1.323  14.134  11.567
70244W        W38607  25.210   5.840   4.722
70245W        W38608  19.652   4.860   4.795
70246W        W38609   6.680  28.512  12.914
70247W        W38610  40.506  37.430   1.736
70248W        W38611   7.810  28.577  10.984
70249W        W38612  34.406  20.237   4.243
70250W        W38613  21.523  29.434   0.411
70251W        W38614   4.734   3.454   3.865
70252W        W38615  38.981  26.570   3.186
70253W        W38616   5.726   1.941  13.309
70254W        W38617  33.932  16.075   1.753
70255W        W38618  26.539  24.213   1.917
70256W        W38619  35.373  23.021  11.053
70257W        W38620  38.476   9.845  13.359
70258W        W38621  42.303  28.619   1.803
70259W        W38622  18.674  41.033   4.258
70260W        W38623  41.994  15.328  12.358
70261W        W38624  21.673  37.442   0.776
70262W        W38625  36.927   1.818   0.264
70263W        W38626  10.873  12.763  12.837
70264W        W38627   6.200  37.488   1.760
70265W        W38628   5.889  16.201   2.716
70266W        W38629  17.723   2.327  13.809
70267W        W38630   9.314  37.483  11.409
70268W        W38631  35.470  15.150   0.731
70269W        W38632   4.857  29.548   4.800
70270W        W38633  21.085  26.078  10.147
70271W        W38634  38.977   9.688   0.820
70272W        W38635  20.175  12.357   2.670
70273W        W38636  32.629  23.717   4.246
70274W        W38637  10.677  39.341   1.785
70275W        W38638  31.452  42.337  11.526
70276W        W38639  13.844  15.653  13.408
70277W        W38640  39.356   1.917  14.800
70278W        W38641  15.658  23.210  14.313
70279W        W38642  25.542  44.886  13.331
70280W        W38643  24.633  30.974  11.985
70281W        W38644  22.566  14.604   2.236
70282W        W38645  14.831  29.011   3.739
70283W        W38646  44.931   4.248   2.265
70284W        W38647  18.159  33.543  12.876
70285W        W38648  39.981  16.215  13.931
70286W        W38649  27.590   5.199   3.675
70287W        W38650  28.085  41.813  10.987
70288W        W38651  15.762  20.667   4.650
70289W        W38652  25.703  34.925   2.826
70290W        W38653   1.396  22.122   5.616
70291W        W38654  22.724  11.266  13.823
70292W        W38655  41.435   1.909  13.044
70293W        W38656  11.295  40.348  13.540
70294W        W38657  19.550   9.845  13.359
70295W        W38658  29.921  11.357   3.222
70296W        W38659  42.456  31.916  13.974
70297W        W38660  27.076   9.373   0.851
70298W        W38661  39.443  16.143   3.291
70299W        W38662  28.508   4.943   2.417
70300W        W38663   9.775   5.384   2.826
70301W        W38664  26.671  28.667   1.444
70302W        W38665  12.841  22.558   2.833
70303W        W38666  19.079  43.460   5.716
70304W        W38667  24.228  38.564  11.099
70305W        W38668  26.185  33.125   1.378
70306W        W38669   7.194  41.797   0.266
70307W        W38670   7.205  22.055   1.860
70308W        W38671  38.425  20.134   3.174
70309W        W38672  23.163  18.216   1.913
70310W        W38673   5.319  21.612   4.163
70311W        W38674  20.152   3.428   1.310
70312W        W38675  25.123  31.467  13.873
70313W        W38676   2.288  27.572  11.536
70314W        W38677  25.971  40.940  11.595
70315W        W38678   3.257  22.543   1.736
70316W        W38679   9.319  29.529   3.351
70317W        W38680   2.436  39.498   4.145
70318W        W38681  18.563  41.316   1.395
70319W        W38682  29.927  22.636   3.787
70320W        W38683  31.150  41.322   1.239
70321W        W38684   7.332  19.240  10.409
70322W        W38685  40.546  15.732  10.066
70323W        W38686  44.500  27.692  11.429
70324W        W38687  40.985   6.806   1.784
70325W        W38688  36.921  15.774   4.294
70326W        W38689  38.947  19.117  11.080
70327W        W38690  14.283  14.108  14.895
70328W        W38691  22.671  21.653  10.899
70329W        W38692   3.327  44.910  10.959
70330W        W38693   0.410  31.621   2.383
70331W        W38694  38.473  21.103   3.203
70332W        W38695   7.384  16.590  11.933
70333W        W38696  30.983   0.338  12.991
70334W        W38697  36.585  10.773   2.692
70335W        W38698  17.143  12.308   2.812
70336W        W38699  30.438  17.136  14.420
70337W        W38700  22.611  43.360   4.250
70338W        W38701  12.271  43.977  10.527
70339W        W38702  32.019  25.207   2.681
70340W        W38703  15.145  24.650  14.351
70341W        W38704  12.638  41.992   3.769
70342W        W38705  24.725   2.433  14.969
70343W        W38706  24.034   4.757  11.434
70344W        W38707  29.165  37.455   2.737
70345W        W38708  39.894  13.275   0.343
70346W        W38709  20.231  14.616  12.920
70347W        W38710   8.379  10.263   4.150
70348W        W38711   3.426  39.344  14.489
70349W        W38712  24.044   4.330  13.542
70350W        W38713  25.084  42.380   2.828
70351W        W38714   9.243  43.927  13.443
70352W        W38715  28.574  22.657  14.364
70353W        W38716  17.596  11.738   4.760
70354W        W38717  16.107  23.063  12.877
70355W        W38718  14.166  24.593  11.482
70356W        W38719  27.099  17.566  12.900
70357W        W38720  38.570  24.206   0.339
70358W        W38721  17.793  36.882  10.901
70359W        W38722  13.307  20.051  12.947
70360W        W38723  21.608  37.999  14.447
70361W        W38724  24.065  30.588  11.532
70362W        W38725   9.653  38.843  13.510
70363W        W38726  30.654   8.346   2.297
70364W        W38727  41.951  44.494   5.175
70365W        W38728  31.953  36.392   1.811
70366W        W38729  27.660  13.822   0.869
70367W        W38730  17.598  20.230  10.612
70368W        W38731  37.933  19.239   2.340
70369W        W38732   7.278  22.210  13.384
70370W        W38733  38.921  11.729  11.092
70371W        W38734   9.298  29.497  12.968
70372W        W38735   5.438  13.108   4.300
70373W        W38736  14.724  43.831   2.357
70374W        W38737  36.529   6.412   0.904
70375W        W38738  20.057  20.686  13.986
70376W        W38739  36.858  20.634  14.280
70377W        W38740  24.647  32.976  12.869
70378W        W38741  23.079  20.123  14.783
70379W        W38742  22.183  43.006   0.858
70380W        W38743   3.730  43.893  13.988
70381W        W38744  26.005  43.378  14.302
70382W        W38745  39.366  22.686   1.302
70383W        W38746  23.497  35.565   0.825
70384W        W38747  26.155   5.298   2.273
70385W        W38748   9.172  22.729   0.840
70386W        W38749  21.540   7.349   1.360
70387W        W38750  35.911   1.473  11.887
70388W        W38751  39.027   6.363  12.348
70389W        W38752   5.368   9.187  11.381
70390W        W38753  28.478   7.793   1.212
70391W        W38754  33.465   3.404   2.681
70392W        W38755  25.046  34.570  10.638
70393W        W38756   8.732  16.163  12.048
70394W        W38757  10.796  16.298  14.303
70395W        W38758  17.287   0.906  12.544
70396W        W38759  27.141   4.739   4.708
70397W        W38760   4.877   7.861   5.204
70398W        W38761  10.829  38.347   1.870
70399W        W38762  18.277  30.030   2.231
70400W        W38763  13.342  44.900  12.029
70401W        W38764  31.615  22.598   1.429
70402W        W38765  17.181  28.660   1.906
70403W        W38766  29.549  21.660  11.488
70404W        W38767  21.625   7.676   3.146
70405W        W38768  28.577   5.412   2.346
70406W        W38769   1.907  39.468  10.459
70407W        W38770  36.448   1.909  10.519
70408W        W38771  19.048   1.396  11.098
70409W        W38772   7.675  34.023   4.654
70410W        W38773  36.477  34.915  12.440
70411W        W38774  18.745  26.147   4.223
70412W        W38775  14.095  10.272  12.522
70413W        W38776  25.035  40.954   4.790
70414W        W38777   4.360  10.644  10.586
70415W        W38778   1.371  18.768   4.642
70416W        W38779  25.540   5.359   0.886
70417W        W38780  16.165  17.279   2.787
70418W        W38781  16.710  43.325   4.226
70419W        W38782  12.126  29.016  10.532
70420W        W38783  44.889  32.116  13.909
70421W        W38784  33.881  17.783  10.611
70422W        W38785  42.845  20.539   4.227
70423W        W38786  15.692  19.763  11.882
70424W        W38787  35.987  15.775   9.931
70425W        W38788  31.965   3.835  13.481
70426W        W38789  32.919  23.623   1.864
70427W        W38790  13.212  41.856   3.165
70428W        W38791  23.061  20.660  14.499
70429W        W38792  33.113  35.426  14.418
70430W        W38793  16.169  35.060  10.509
70431W        W38794  29.553  15.115   0.362
70432W        W38795  30.949  22.228  10.551
70433W        W38796  13.279  25.013   1.253
70434W        W38797  11.708  42.935   0.738
70435W        W38798  15.780  42.487   5.283
70436W        W38799  27.079  17.211  12.520
70437W        W38800  31.093  36.856  11.030
70438W        W38801  42.336  15.107  12.859
70439W        W38802  34.503  13.740  12.012
70440W        W38803   4.754  30.534   9.923
70441W        W38804   4.441   5.421  13.479
70442W        W38805  15.327  13.247  11.011
70443W        W38806  17.279  34.448  13.802
70444W        W38807   8.383   0.331  12.037
70445W        W38808  22.593  42.469  12.972
70446W        W38809  21.678  20.198  14.937
70447W        W38810   5.317  33.933  11.950
70448W        W38811  21.596  43.303   3.234
70449W        W38812   4.729  39.955  12.520
70450W        W38813  42.789  29.526  12.371
70451W        W38814  18.777  21.244  14.896
70452W        W38815  44.754   8.249   4.818
70453W        W38816   8.876  44.945  11.987
70454W        W38817  43.019   3.393  14.357
70455W        W38818   9.706  43.812   4.199
70456W        W38819  38.374  43.806   4.195
70457W        W38820  27.588  18.170  11.375
70458W        W38821  37.976  12.758  14.515
70459W        W38822  31.402   6.311  12.092
70460W        W38823   4.450  29.012  11.109
70461W        W38824   9.865  44.347  13.373
70462W        W38825  44.924  36.876   0.267
70463W        W38826  24.171  34.974  13.468
70464W        W38827  29.426  27.101   4.344
70465W        W38828  26.126  17.712   1.438
70466W        W38829  10.146   2.350   4.678
70467W        W38830  10.260  24.993  10.967
70468W        W38831  40.904  19.251  11.572
70469W        W38832  16.634  44.854  14.323
70470W        W38833  23.051  11.152  10.536
70471W        W38834  36.470  22.584   2.223
70472W        W38835  30.553   5.814  11.382
70473W        W38836  32.438  10.174  14.473
70474W        W38837  42.405  20.633  14.289
70475W        W38838   4.713  13.350   2.727
70476W        W38839   0.912  13.308   4.779
70477W        W38840  32.608   9.712  11.087
70478W        W38841  22.574  31.124   3.719
70479W        W38842   1.390   9.722   1.848
70480W        W38843   5.706  24.218  11.089
70481W        W38844  38.459  35.485  13.883
70482W        W38845  40.411   3.301   4.148
70483W        W38846  15.601  27.576   1.809
70484W        W38847  31.647  24.496  11.534
70485W        W38848  33.923  44.947  12.069
70486W        W38849  12.198  35.985  13.416
70487W        W38850  10.251   0.845   4.808
70488W        W38851  26.578  40.391   0.875
70489W        W38852  28.659   0.780   4.772
70490W        W38853   0.384  16.313  11.536
70491W        W38854  15.207  44.931   0.422
70492W        W38855  11.860  35.962   4.351
70493W        W38856  26.026   6.682  11.040
70494W        W38857   2.869  19.650   0.452
70495W        W38858  20.072  22.221   1.730
70496W        W38859   0.380  24.176  13.394
70497W        W38860  40.530  44.320   2.684
70498W        W38861  28.487   7.701   0.913
70499W        W38862  20.750  21.261   0.797
70500W        W38863  25.507  34.032   0.854
70501W        W38864  35.364   4.211   0.436
70502W        W38865  24.544   0.828  14.412
70503W        W38866  33.064  40.955  14.333
70504W        W38867  33.080  35.567   4.813
70505W        W38868  20.695   8.841   3.869
70506W        W38869  18.647  41.445   2.764
70507W        W38870  24.166  22.997  13.051
70508W        W38871  24.601  10.678   3.260
70509W        W38872   4.708  42.913   3.199
70510W        W38873   2.305  34.594  14.000
70511W        W38874  10.839  25.151  11.027
70512W        W38875   4.336  32.983  10.993
70513W        W38876   1.736  29.511  10.610
70514W        W38877  13.232  13.112   0.283
70515W        W38878  20.032  18.772   2.223
70516W        W38879  40.900   7.379   2.866
70517W        W38880   8.387  28.186  10.907
70518W        W38881  40.798  39.509  11.597
70519W        W38882   8.225  11.234  14.844
70520W        W38883  19.714  26.205   0.254
70521W        W38884   2.320  19.556  12.076
70522W        W38885  25.538  43.273   3.794
70523W        W38886  28.529  27.599   2.392
70524W        W38887  15.269   8.254  11.448
70525W        W38888  11.637  21.731   1.854
70526W        W38889  43.839  18.284  13.393
70527W        W38890  22.040   0.887   3.233
70528W        W38891  15.641   0.832   4.242
70529W        W38892  40.308   5.405  13.330
70530W        W38893   5.359  25.147   2.788
70531W        W38894  39.931  12.815   3.162
70532W        W38895  21.088  40.932   5.214
70533W        W38896  28.048  15.720  13.910
70534W        W38897  36.370  41.400  14.434
70535W        W38898  13.600  12.208  12.937
70536W        W38899  40.846  28.481  10.627
70537W        W38900  34.387  36.953  10.621
70538W        W38901  24.696   6.883   3.207
70539W        W38902  35.453   9.320  10.585
70540W        W38903  29.129  21.595  10.595
70541W        W38904   0.833  28.124  10.130
70542W        W38905  16.128  24.203   0.751
70543W        W38906  13.342  28.970   9.923
70544W        W38907  39.879  14.628   3.784
70545W        W38908  39.378  32.072  13.372
70546W        W38909  28.002  39.479  10.559
70547W        W38910  34.955   4.709   9.958
70548W        W38911  32.549  25.667  13.836
70549W        W38912  21.596  24.527   3.699
70550W        W38913  36.468  35.874  11.911
70551W        W38914  37.991  43.509   3.322
70552W        W38915  26.060  23.112   0.966
70553W        W38916  14.288   7.373  13.857
70554W        W38917  44.361  38.533   4.673
70555W        W38918  18.733  39.497   1.266
70556W        W38919  17.304  31.041  10.992
70557W        W38920  39.004  12.643  14.820
70558W        W38921  14.169  21.608   4.602
70559W        W38922  31.483  38.871   3.730
70560W        W38923  42.494  23.073   2.359
70561W        W38924  15.189   5.334   0.925
70562W        W38925  24.171  26.514  10.019
70563W        W38926  43.503  29.084   3.858
70564W        W38927  22.717  19.678   2.753
70565W        W38928  38.982  43.336  14.345
70566W        W38929   2.892  28.146  14.945
70567W        W38930  40.341   5.718   1.294
70568W        W38931   8.202  26.079  14.865
70569W        W38932  15.105   1.953  12.349
70570W        W38933  19.756   1.957  10.895
70571W        W38934  15.736  31.585  13.423
70572W        W38935  43.385   1.385   1.776
70573W        W38936   4.383  11.346  13.042
70574W        W38937  28.161   3.931  11.121
70575W        W38938   8.708  10.219   2.672
70576W        W38939  21.102  35.526  10.534
70577W        W38940  11.714  31.097  14.925
70578W        W38941  12.342  11.675   2.293
70579W        W38942  10.322  41.917  13.511
70580W        W38943   3.749  39.848   4.711
70581W        W38944   1.950  19.664  10.571
70582W        W38945   0.322  11.159  12.532
70583W        W38946  33.441  12.222   5.283
70584W        W38947   0.914   6.418   2.809
70585W        W38948   5.436  30.120  13.509
70586W        W38949  35.587  29.118   2.698
70587W        W38950  34.988  22.691  14.897
70588W        W38951  35.921  27.082  14.986
70589W        W38952  41.862   3.899  13.032
70590W        W38953  17.757  28.641  12.479
70591W        W38954  10.672  41.330  13.543
70592W        W38955  25.557  27.455  12.917
70593W        W38956  25.149  41.993   2.889
70594W        W38957  44.932  41.512  12.551
70595W        W38958  19.249   3.253   2.778
70596W        W38959  24.662   8.366   1.448
70597W        W38960  28.996   7.289   3.775
70598W        W38961  36.885  19.167  11.953
70599W        W38962  15.711  24.717  10.409
70600W        W38963  36.015  30.611   4.334
70601W        W38964  35.536  12.720   4.735
70602W        W38965   7.836  14.202  14.905
70603W        W38966  15.307   6.896   5.187
70604W        W38967   6.318   7.791   1.444
70605W        W38968   2.334  21.131  11.894
70606W        W38969  44.993  12.820   0.947
70607W        W38970  43.993  42.468   4.737
70608W        W38971  26.601  35.878  14.867
70609W        W38972  12.304  18.609  13.911
70610W        W38973  37.021  30.415  12.949
70611W        W38974  35.918   1.393   4.650
70612W        W38975  26.461  25.106   2.232
70613W        W38976  16.272  22.095   4.296
70614W        W38977  31.507  29.932  11.518
70615W        W38978  15.682  22.107  13.338
70616W        W38979  26.163  33.071  14.313
70617W        W38980   4.305  15.791  12.482
70618W        W38981  38.383  43.298   2.859
70619W        W38982  27.152  24.500  12.469
70620W        W38983   0.325  30.575  14.276
70621W        W38984  29.101  23.011  12.916
70622W        W38985   5.295  12.361  14.791
70623W        W38986   9.765  28.502  14.347
70624W        W38987  17.288  43.826   2.206
70625W        W38988  37.851  26.038   3.382
70626W        W38989  38.000   8.384  14.516
70627W        W38990   2.924  40.529  14.830
70628W        W38991  34.465  13.250  10.415
70629W        W38992  39.478  34.379   0.458
70630W        W38993  34.994  36.395   1.339
70631W        W38994   4.236  22.610   0.942
70632W        W38995  40.823   6.904  10.920
70633W        W38996  30.431  19.741  10.571
70634W        W38997  14.834  33.088  11.597
70635W        W38998  33.450  35.977   3.173
70636W        W38999  27.625   9.867   2.811
70637W        W39000  31.641  13.260   3.683
70638W        W39001  10.776  18.553   4.287
70639W        W39002   9.773   8.715  13.361
70640W        W39003   5.380  13.637   3.204
70641W        W39004  44.395  32.441   1.215
70642W        W39005  12.282  38.497   1.229
70643W        W39006  28.169  22.112  13.391
70644W        W39007  44.455  22.081  12.013
70645W        W39008  10.706  33.520  13.984
70646W        W39009  24.600  21.599  13.394
70647W        W39010  31.431   2.877  12.956
70648W        W39011  32.396  42.321  14.837
70649W        W39012  38.452   4.293   0.413
70650W        W39013  21.207   7.865  13.915
70651W        W39014  40.468  27.157   3.372
70652W        W39015  39.981  11.192   4.748
70653W        W39016  10.359  35.557  14.985
70654W        W39017  44.791  22.622  11.094
70655W        W39018  20.709   1.482   1.251
70656W        W39019   1.809   2.290   1.724
70657W        W39020  32.045  18.666  14.396
70658W        W39021  44.391  16.169   4.762
70659W        W39022  41.310  11.718   0.437
70660W        W39023   8.775  20.700   4.830
70661W        W39024  43.313   0.780  14.976
70662W        W39025  27.525  10.203  12.032
70663W        W39026  23.059  34.466   2.191
70664W        W39027   1.433  18.067  10.616
70665W        W39028  25.475  33.045   0.252
70666W        W39029  37.928  29.040   0.921
70667W        W39030   5.805  17.562  14.799
70668W        W39031   0.754   9.715  13.798
70669W        W39032  37.871  28.509   1.422
70670W        W39033   0.871  21.548   4.612
70671W        W39034   5.900  15.303   4.743
70672W        W39035  25.613  44.757   2.199
70673W        W39036   1.784  10.368   4.631
70674W        W39037   9.743  28.535  11.531
70675W        W39038  15.203  40.322   1.356
70676W        W39039  24.095   1.483   2.189
70677W        W39040  26.036  29.501   4.238
70678W        W39041  43.287  41.292  12.575
70679W        W39042   1.371  13.142   3.812
70680W        W39043  23.188  43.941  10.991
70681W        W39044  22.619  17.120   4.682
70682W        W39045  30.584  24.209   4.741
70683W        W39046  18.725  22.659   4.762
70684W        W39047  30.605  37.537  14.477
70685W        W39048   1.457  35.906   4.182
70686W        W39049  14.108  39.820   3.319
70687W        W39050  22.690  19.065  11.438
70688W        W39051  27.659  30.129   4.242
70689W        W39052  39.353   5.244  12.565
70690W        W39053  19.632  41.534   4.242
70691W        W39054  32.483  33.093  14.009
70692W        W39055  13.279   6.735  14.793
70693W        W39056  22.088  24.982   4.164
70694W        W39057  37.936  31.961   0.381
70695W        W39058  16.184  19.747   1.263
70696W        W39059  44.818  20.113   3.796
70697W        W39060  15.663  11.307   1.727
70698W        W39061  32.000   4.837   0.478
70699W        W39062  32.103  37.941   3.660
70700W        W39063   3.321  43.907  13.375
70701W        W39064  33.898  38.474   1.292
70702W        W39065  30.999  39.957   1.270
70703W        W39066  42.358  26.521   3.184
70704W        W39067  32.118  39.953   0.850
70705W        W39068  19.235   2.731   1.294
70706W        W39069   2.788  24.092   4.180
70707W        W39070  31.508   4.778  10.566
70708W        W39071  19.279  26.512   2.721
70709W        W39072   4.439  39.451  10.894
70710W        W39073   5.869  25.002  10.506
70711W        W39074  27.514  37.521  11.439
70712W        W39075  27.608  25.636  13.447
70713W        W39076   5.874  40.021   2.697
70714W        W39077  16.764   7.290  14.805
70715W        W39078   9.748  18.291  13.414
70716W        W39079  35.514  40.359  13.533
70717W        W39080  30.005  31.085   4.344
70718W        W39081  44.889  21.737  13.369
70719W        W39082  20.605  40.017  14.508
70720W        W39083  21.231  43.012  10.978
70721W        W39084  30.540   0.402  11.403
70722W        W39085  21.646  20.202  14.478
70723W        W39086  21.053  12.302   4.657
70724W        W39087  32.968  14.682   2.267
70725W        W39088  16.236  22.691  11.995
70726W        W39089  43.849   0.967  14.978
70727W        W39090   8.792  11.210  12.429
70728W        W39091  17.188  30.455  10.491
70729W        W39092   2.726  30.499   2.184
70730W        W39093  35.924  27.483  10.438
70731W        W39094  42.777  40.401  12.511
70732W        W39095  18.574   8.238   1.694
70733W        W39096   2.302  12.338   3.302
70734W        W39097  34.508  30.655  14.948
70735W        W39098   2.743  12.832  12.929
70736W        W39099  10.784  31.631  11.482
70737W        W39100   7.869  18.679   2.851
70738W        W39101  11.748  19.052   3.215
70739W        W39102  25.215  10.314  13.803
70740W        W39103   4.817  41.521   0.815
70741W        W39104   8.738  14.685   4.690
70742W        W39105   2.951  18.676  13.466
70743W        W39106  25.092  42.424  12.035
70744W        W39107  15.620  18.199   3.871
70745W        W39108   5.338  13.829  10.609
70746W        W39109   9.150  10.166  10.147
70747W        W39110   6.305  10.345   3.793
70748W        W39111  42.476   1.793  13.510
70749W        W39112   2.444  44.333   3.152
70750W        W39113  41.331  25.550  12.340
70751W        W39114  11.835   5.320   0.936
70752W        W39115  19.751  41.838   3.802
70753W        W39116  25.672  26.954   4.817
70754W        W39117  36.486  28.524   3.666
70755W        W39118  26.608  37.976   2.409
70756W        W39119   9.192   6.338  11.429
70757W        W39120  34.578  15.578   4.751
70758W        W39121  23.647   1.268   3.160
70759W        W39122   9.269   0.822   9.969
70760W        W39123  40.431  43.816   2.872
70761W        W39124  29.548  41.935   3.668
70762W        W39125  43.396  11.214  11.612
70763W        W39126  25.468   1.364   4.325
70764W        W39127   3.392   8.669  13.006
70765W        W39128  42.867   1.308  11.466
70766W        W39129   0.875  25.521  12.489
70767W        W39130  33.899  12.772   3.241
70768W        W39131  20.244  18.692  14.809
70769W        W39132   0.939   3.875   3.361
70770W        W39133  34.549  14.240   4.689
70771W        W39134  31.974  10.203  11.989
70772W        W39135  32.613   7.771   0.287
70773W        W39136  16.632  11.162  14.788
70774W        W39137  18.753  18.198   3.161
70775W        W39138  40.970   2.231   0.478
70776W        W39139  25.172  19.087  12.479
70777W        W39140  43.312  37.037  11.516
70778W        W39141  20.241   7.739   1.915
70779W        W39142  22.035   1.257  14.848
70780W        W39143  29.005  13.342   0.299
70781W        W39144  43.360  42.412  14.335
70782W        W39145  44.439   3.381  13.865
70783W        W39146  44.766   1.366   2.190
70784W        W39147  15.303  17.767  10.916
70785W        W39148  43.931  19.761  11.005
70786W        W39149  39.995  44.377   2.831
70787W        W39150  34.408   0.435   9.673
70788W        W39151  35.513   3.798   0.406
70789W        W39152   1.467   2.954  11.541
70790W        W39153  19.277   1.247   4.736
70791W        W39154  28.544   6.256   4.751
70792W        W39155  42.438  14.148  11.984
70793W        W39156  34.912   6.325   4.683
70794W        W39157  27.612  31.465   2.400
70795W        W39158  13.634  40.342   4.336
70796W        W39159  22.679  37.834   2.896
70797W        W39160   2.424  38.434   1.278
70798W        W39161  14.214  15.246  11.906
70799W        W39162  41.911   7.410   5.261
70800W        W39163  36.891  13.148   5.240
70801W        W39164  27.117   2.772  10.893
70802W        W39165   7.376  15.158   4.156
70803W        W39166  26.646   4.866   1.245
70804W        W39167  34.521  10.165  12.883
70805W        W39168  33.091  43.012  14.007
70806W        W39169  17.195  10.824  13.855
70807W        W39170   8.705   4.919  13.856
70808W        W39171   2.393  26.671   9.951
70809W        W39172  39.432  14.243   0.739
70810W        W39173  40.921  12.272   4.237
70811W        W39174  19.771  39.013  14.949
70812W        W39175  23.210  38.341   0.367
70813W        W39176  28.488   7.814   3.199
70814W        W39177   2.851  38.966  10.970
70815W        W39178  42.469  35.896  14.949
70816W        W39179  30.425   8.251  11.477
70817W        W39180  42.285  17.634   0.478
70818W        W39181  13.194  24.040   3.361
70819W        W39182   6.876  23.002   2.886
70820W        W39183  17.183  28.110   9.992
70821W        W39184  13.605  18.670  11.462
70822W        W39185   3.282  15.642  14.294
70823W        W39186  15.782  13.841  10.536
70824W        W39187  22.623  31.438   4.247
70825W        W39188   0.890   3.745   4.674
70826W        W39189  13.700  37.576  14.307
70827W        W39190  22.138  39.944   1.726
70828W        W39191  11.672  26.496  11.400
70829W        W39192  28.179  44.490  12.570
70830W        W39193   4.903   0.785  11.594
70831W        W39194  13.751  24.594  13.520
70832W        W39195  12.353  11.768   1.727
70833W        W39196  39.012   9.230  10.487
70834W        W39197  15.720  25.200   4.225
70835W        W39198  12.715   8.318   4.255
70836W        W39199  34.400  44.265   0.358
70837W        W39200   8.365  24.121   1.266
70838W        W39201  44.380  34.015   0.947
70839W        W39202  30.015  30.494  10.940
70840W        W39203  29.088  10.634  14.482
70841W        W39204  39.924  18.118   3.741
70842W        W39205   6.208  15.161  14.868
70843W        W39206  36.386  14.128  12.535
70844W        W39207  33.937  30.602  13.545
70845W        W39208   7.892  25.704   4.272
70846W        W39209   0.819  43.871  14.770
70847W        W39210  23.503  44.293  11.903
70848W        W39211  21.116  19.040   4.227
70849W        W39212   5.338  27.666  14.402
70850W        W39213  19.639   7.356  11.918
70851W        W39214  17.120  22.602   0.416
70852W        W39215  41.901  40.439  10.596
70853W        W39216  27.993  28.059   1.352
70854W        W39217  21.179  44.371  13.888
70855W        W39218  33.526  33.009   4.333
70856W        W39219  11.720  34.075  14.805
70857W        W39220  20.671  21.031  14.354
70858W        W39221   2.258   1.934  13.914
70859W        W39222   6.305  20.166  11.023
70860W        W39223  24.641  23.618  13.803
70861W        W39224  27.127  19.698  13.447
70862W        W39225  37.047  36.554  11.999
70863W        W39226  10.168  38.353   2.740
70864W        W39227  22.608  30.002   2.741
70865W        W39228  17.721   7.789   0.407
70866W        W39229  34.420  14.596  14.288
70867W        W39230   3.908  31.440   0.827
70868W        W39231  36.433  11.829   2.346
70869W        W39232  18.617  17.715   1.773
70870W        W39233   9.336  41.348   4.247
70871W        W39234  35.403  34.480   4.777
70872W        W39235  39.384  41.451   3.223
70873W        W39236  38.046  41.489  12.920
70874W        W39237  20.679  37.036  10.507
70875W        W39238  37.425  12.264   0.830
70876W        W39239  31.426   1.407   9.545
70877W        W39240  28.602  25.064  12.431
70878W        W39241  19.563  32.464  12.083
70879W        W39242   3.234  33.568  13.036
70880W        W39243  19.180  43.900   1.871
70881W        W39244  19.740   3.828  14.441
70882W        W39245  41.892   8.734   4.642
70883W        W39246  17.191  17.156  11.569
70884W        W39247  43.790  39.495   2.675
70885W        W39248   8.694   9.678  11.608
70886W        W39249  11.205  14.170   0.893
70887W        W39250  34.425  21.075   2.861
70888W        W39251  18.552  16.612  12.041
70889W        W39252   7.379  24.670   1.332
70890W        W39253   3.850  35.462  11.575
70891W        W39254  24.221  17.721   4.342
70892W        W39255   4.359  42.897  10.129
70893W        W39256  24.035   4.877   5.271
70894W        W39257   2.345  29.651   0.329
70895W        W39258  14.211   1.475   2.697
70896W        W39259  39.499  42.404  14.488
70897W        W39260   6.763  25.081  14.335
70898W        W39261  15.113  18.740   3.748
70899W        W39262  42.287  41.378  13.957
70900W        W39263  26.043   0.477   4.825
70901W        W39264  28.645   8.894   1.882
70902W        W39265  40.512  31.036   1.694
70903W        W39266  23.144  40.873  14.397
70904W        W39267   3.368  43.909  12.426
70905W        W39268  19.163  24.601   3.249
70906W        W39269  17.621  12.671   4.184
70907W        W39270  19.682  34.913  13.908
70908W        W39271   3.725   3.744  11.388
70909W        W39272  23.092  20.685   4.333
70910W        W39273  29.426  16.791   1.710
70911W        W39274  34.089  37.012  13.886
70912W        W39275  35.101  42.399  13.807
70913W        W39276  13.118  40.992  10.436
70914W        W39277   0.486  31.981  10.910
70915W        W39278  14.169  30.086   2.237
70916W        W39279  22.021  22.579   1.798
70917W        W39280  23.235  34.077   4.649
70918W        W39281   1.417  27.598  11.384
70919W        W39282  43.499  11.850  13.902
70920W        W39283  31.533  16.273  12.027
70921W        W39284  44.263  18.777  14.959
70922W        W39285  35.527  15.136  13.940
70923W        W39286  14.829  38.875   0.262
70924W        W39287  40.335   1.308   3.172
70925W        W39288  38.054  17.687  11.577
70926W        W39289  14.203  32.068  11.017
70927W        W39290   5.248  22.537  13.811
70928W        W39291  44.772  23.667  13.327
70929W        W39292   8.187  42.939  14.773
70930W        W39293  23.195  15.175  10.570
70931W        W39294  32.612  13.130  14.376
70932W        W39295   4.444  11.165  10.558
70933W        W39296  23.547  23.690  14.793
70934W        W39297  24.200  10.260   4.122
70935W        W39298  29.500  27.642   5.113
70936W        W39299  29.168  36.422   4.726
70937W        W39300  16.119   5.746  14.841
70938W        W39301  40.414   8.763   1.728
70939W        W39302  44.346  33.423   3.263
70940W        W39303  40.480  33.419  10.078
70941W        W39304   7.203   0.770  10.579
70942W        W39305  13.178   0.881  11.952
70943W        W39306  34.012   0.893   3.324
70944W        W39307  21.239   1.312   4.701
70945W        W39308  34.098  18.713   3.299
70946W        W39309  32.924  24.717  13.883
70947W        W39310  10.336  42.515   0.810
70948W        W39311  11.331  38.075   1.290
70949W        W39312  24.123  42.834  10.437
70950W        W39313   5.871  41.536   3.740
70951W        W39314  37.521   6.802   1.735
70952W        W39315  37.501   0.794  10.478
70953W        W39316  32.899  37.557  12.406
70954W        W39317  18.263  26.095   3.321
70955W        W39318  20.242  24.485   2.396
70956W        W39319  18.136  37.581   1.218
70957W        W39320  33.068   7.756   1.436
70958W        W39321  18.749  33.625   2.194
70959W        W39322   8.700   8.380   3.821
70960W        W39323  11.816  19.598  14.436
70961W        W39324  29.476  20.241  14.841
70962W        W39325  29.498  37.543   3.786
70963W        W39326  20.729  14.255  12.550
70964W        W39327  36.451   3.946  11.995
70965W        W39328  24.184  22.198  10.621
70966W        W39329  22.159  38.824   2.380
70967W        W39330  33.101   7.747  11.483
70968W        W39331   5.891   0.485   1.847
70969W        W39332  29.567  37.911   1.749
70970W        W39333  32.515   7.241  12.837
70971W        W39334  38.396  21.114  11.082
70972W        W39335  34.586  24.580   4.340
70973W        W39336  38.454  27.992  12.889
70974W        W39337   4.389  37.973   3.806
70975W        W39338  22.735  30.057  12.469
70976W        W39339  35.570  43.916   3.807
70977W        W39340  15.185   2.922   4.838
70978W        W39341  19.763  17.790  13.462
70979W        W39342  15.092  28.532  11.389
70980W        W39343   1.327  32.948   1.871
70981W        W39344  12.737  25.994   4.732
70982W        W39345  13.156   0.833  14.364
70983W        W39346  44.856  22.702   0.762
70984W        W39347   4.400  28.520  14.369
70985W        W39348  37.354  23.063   0.246
70986W        W39349  37.841  39.353   4.232
70987W        W39350  18.114  38.425  14.428
70988W        W39351  11.212  33.618   0.822
70989W        W39352  20.105  15.749  11.463
70990W        W39353   3.445  19.081  14.009
70991W        W39354  14.105   8.807   3.717
70992W        W39355  26.677  28.929  13.806
70993W        W39356  41.808  34.585  12.453
70994W        W39357  31.548  12.746  12.987
70995W        W39358   5.300   2.922   2.813
70996W        W39359  35.105   0.826   5.225
70997W        W39360   4.914  27.549   4.122
70998W        W39361  39.419  33.559  13.969
70999W        W39362  34.388  34.572   2.261
71000W        W39363  32.912  19.545   3.788
71001W        W39364  35.084  41.454  14.795
71002W        W39365  16.743  37.387  10.594
71003W        W39366  21.083   3.367  14.437
71004W        W39367  37.919  30.584  12.839
71005W        W39368  36.402   3.869  10.949
71006W        W39369   7.333  36.472  12.894
71007W        W39370  31.550  23.233   3.300
71008W        W39371  18.549   4.884  14.880
71009W        W39372   2.741  32.971   1.898
71010W        W39373  15.584   6.897  13.327
71011W        W39374  35.908  20.255   4.637
71012W        W39375  33.398   2.779   1.318
71013W        W39376  23.619  38.483  14.856
71014W        W39377  29.046  19.617   2.375
71015W        W39378   7.198   0.271  10.896
71016W        W39379  43.303  38.443   1.437
71017W        W39380   8.272  31.549  14.805
71018W        W39381   7.867  34.879  13.903
71019W        W39382   7.195   5.281  13.888
71020W        W39383   7.221  23.522  11.448
71021W        W39384  19.055  23.206  11.582
71022W        W39385  33.927  10.714  12.828
71023W        W39386  18.751  23.002   2.356
71024W        W39387   6.811  41.961  11.976
71025W        W39388  29.509  21.583  12.415
71026W        W39389  13.196  28.013  12.959
71027W        W39390  38.055  31.530  13.056
71028W        W39391   2.440   1.878   5.191
71029W        W39392  36.552  33.889  11.907
71030W        W39393  19.124  19.044  13.474
71031W        W39394  37.381  32.599   2.829
71032W        W39395  16.126  25.136  13.853
71033W        W39396  26.010  12.773   1.318
71034W        W39397   7.415  26.180  10.960
71035W        W39398  34.543  34.024   3.340
71036W        W39399   4.218   3.302   0.841
71037W        W39400  34.437  11.368  11.520
71038W        W39401  42.435  40.366   1.355
71039W        W39402   3.412   9.686  12.887
71040W        W39403  15.138  10.327  12.980
71041W        W39404  39.442  44.907   2.889
71042W        W39405   7.844  22.691   5.137
71043W        W39406  23.542  39.028  11.051
71044W        W39407  11.791  39.004   4.309
71045W        W39408  17.248  28.485  11.022
71046W        W39409  31.449  29.592   5.282
71047W        W39410  22.095  29.664  14.351
71048W        W39411  34.009  20.768  12.463
71049W        W39412  44.318  30.160   2.738
71050W        W39413  17.248  13.666  11.589
71051W        W39414  13.266  33.893  13.389
71052W        W39415   2.349  14.302  14.893
71053W        W39416  23.502  38.358  12.058
71054W        W39417  19.165   5.361   3.323
71055W        W39418  25.074  40.375   4.129
71056W        W39419  40.043  25.156  13.992
71057W        W39420  37.903  10.669   4.251
71058W        W39421  42.912  20.555   1.726
71059W        W39422  16.194  20.065  11.381
71060W        W39423  20.035  41.382  13.335
71061W        W39424  32.567  27.479   2.310
71062W        W39425  28.439  39.934   0.771
71063W        W39426  11.142  15.280   4.171
71064W        W39427  39.062   2.940  11.981
71065W        W39428  31.413  33.098   0.761
71066W        W39429  36.010  40.928  11.006
71067W        W39430   3.778  26.488  13.413
71068W        W39431  24.991  28.622  14.822
71069W        W39432  41.992  41.977  12.548
71070W        W39433   9.348  31.059   2.361
71071W        W39434   8.278  27.682   4.692
71072W        W39435  37.019  13.119   2.340
71073W        W39436  27.037  22.516  11.491
71074W        W39437  15.755  16.114  12.952
71075W        W39438  34.482  44.802   4.135
71076W        W39439   7.881  36.021  11.125
71077W        W39440   8.199  29.172   0.929
71078W        W39441   9.828  14.649  14.422
71079W        W39442   1.417  18.629  11.036
71080W        W39443  19.610  15.315   0.893
71081W        W39444   5.357  12.129  13.349
71082W        W39445  29.130  34.936   4.710
71083W        W39446   9.148  24.566   2.337
71084W        W39447   3.814  28.657   3.864
71085W        W39448  21.697  44.370  14.309
71086W        W39449  35.462  41.459   0.750
71087W        W39450  32.504  26.481  11.928
71088W        W39451  28.075  39.547   2.367
71089W        W39452  43.952  15.220  10.478
71090W        W39453  38.462   7.666  13.915
71091W        W39454   0.841  38.005  11.545
71092W        W39455  34.411  18.196  12.390
71093W        W39456  12.323  19.118   0.406
71094W        W39457  20.681  12.777  11.898
71095W        W39458   1.376   4.872   4.779
71096W        W39459  43.350  25.543  10.948
71097W        W39460  36.439  41.436  10.476
71098W        W39461   5.715  37.892  11.002
71099W        W39462  14.128  25.008   4.316
71100W        W39463  25.528  17.734  13.411
71101W        W39464  19.065  43.395  11.406
71102W        W39465  32.904  35.086  10.912
71103W        W39466  25.055  43.809   0.292
71104W        W39467  44.844   3.272  11.390
71105W        W39468   1.355   8.866  13.812
71106W        W39469  43.926  30.518   3.319
71107W        W39470  10.704  41.326   1.875
71108W        W39471  22.593  19.060   2.416
71109W        W39472  44.465  40.845  11.081
71110W        W39473   1.247  35.050   2.258
71111W        W39474  19.221  33.084   4.352
71112W        W39475  26.120  23.074   4.249
71113W        W39476   5.220  43.937  12.391
71114W        W39477  39.439  38.464  12.404
71115W        W39478  18.723  35.077   4.239
71116W        W39479  30.648  17.711  13.898
71117W        W39480  18.215  22.074   4.758
71118W        W39481  11.820  29.129  13.389
71119W        W39482  28.160  17.172  10.596
71120W        W39483  28.510   2.270   0.764
71121W        W39484   1.828   9.757  11.066
71122W        W39485  24.573  33.402  14.359
71123W        W39486  17.284  40.856   0.855
71124W        W39487  30.128   7.706  13.857
71125W        W39488  31.928  35.394  12.913
71126W        W39489  18.726  35.046   5.096
71127W        W39490  22.654  43.894   0.292
71128W        W39491  24.498  43.907   1.749
71129W        W39492   0.879  19.642  10.049
71130W        W39493   4.432   9.235   2.211
71131W        W39494  21.632  44.984  12.935
71132W        W39495  16.292  30.920  12.430
71133W        W39496  30.980  22.205   4.300
71134W        W39497  40.324  13.202  13.440
71135W        W39498   2.954   0.342  12.575
71136W        W39499  33.925  18.293   4.168
71137W        W39500  14.680  37.991   1.293
71138W        W39501  31.114  44.468   9.976
71139W        W39502  26.206  16.640   1.449
71140W        W39503  41.899  26.467  13.864
71141W        W39504   6.426   1.838  11.999
71142W        W39505  35.876  32.477   2.744
71143W        W39506  35.471  28.465  14.894
71144W        W39507   1.383  10.748   2.279
71145W        W39508  33.025   5.766   4.835
71146W        W39509   7.676  16.212  14.836
71147W        W39510  32.612  10.672   4.153
71148W        W39511  12.659  41.362   4.120
71149W        W39512   1.353   6.382  13.434
71150W        W39513  16.189  20.553  14.303
71151W        W39514  28.516   9.244   4.153
71152W        W39515   0.330  14.663  14.775
71153W        W39516  36.059   6.785  13.427
71154W        W39517  33.541   1.943  12.564
71155W        W39518  23.205  24.483  11.561
71156W        W39519   3.357  23.683  12.030
71157W        W39520   9.859  28.062  14.427
71158W        W39521  26.071   5.319  14.406
71159W        W39522  25.153  18.651  11.015
71160W        W39523  41.897   6.881   0.808
71161W        W39524  29.445   6.380  11.415
71162W        W39525  32.894   7.715  14.444
71163W        W39526  13.633  20.048   3.268
71164W        W39527  16.653  28.601  11.931
71165W        W39528  32.034  37.944   3.166
71166W        W39529  31.575  13.160   1.824
71167W        W39530   8.884  39.479   2.232
71168W        W39531  16.180  23.227   3.212
71169W        W39532  19.611  41.974   1.834
71170W        W39533   7.831   5.930   0.909
71171W        W39534   0.341   6.213   3.771
71172W        W39535  43.781  17.130   1.757
71173W        W39536  12.670  28.576   2.299
71174W        W39537   1.879  19.611  12.833
71175W        W39538  29.639   2.879  11.085
71176W        W39539  31.412  15.791   1.439
71177W        W39540  29.626  10.291   5.269
71178W        W39541  43.484  25.555   0.807
71179W        W39542  15.234  16.246   3.686
71180W        W39543   2.294  22.712  11.100
71181W        W39544  28.592  33.400  11.482
71182W        W39545  19.121  16.645   3.703
71183W        W39546   3.776  11.352  10.903
71184W        W39547  35.928   3.439   1.411
71185W        W39548  20.098  21.089  11.983
71186W        W39549  32.605  23.153  14.900
71187W        W39550  37.005  20.241   4.209
71188W        W39551  13.600  42.339   3.737
71189W        W39552  32.054  20.598  11.970
71190W        W39553   4.923   3.921   3.307
71191W        W39554  10.182   7.702  12.539
71192W        W39555  38.891  11.710   1.798
71193W        W39556  31.636  23.666  14.967
71194W        W39557  23.530  15.630   3.175
71195W        W39558   5.801  41.532   0.276
71196W        W39559  25.109   5.784   4.182
71197W        W39560  10.285   0.790  13.546
71198W        W39561  31.608  16.280  14.372
71199W        W39562  16.704  43.372   2.184
71200W        W39563  34.957  18.652  11.109
71201W        W39564  31.115  39.326   0.344
71202W        W39565   5.355   8.812   4.811
71203W        W39566  17.112  21.522   2.698
71204W        W39567  28.995   0.279  10.412
71205W        W39568  28.573  25.042  14.763
71206W        W39569   0.953  10.315  11.439
71207W        W39570  39.965  16.210  12.515
71208W        W39571   5.215  44.928   3.787
71209W        W39572   8.223  16.808   4.725
71210W        W39573  15.708  28.647   0.787
71211W        W39574  25.053  31.519   0.326
71212W        W39575  41.352  20.187   2.733
71213W        W39576   5.915   9.253   2.224
71214W        W39577  42.788  39.877  13.523
71215W        W39578   3.357  33.936   1.268
71216W        W39579  20.071  21.045  13.544
71217W        W39580  40.004  25.114   3.182
71218W        W39581   5.375   0.899  12.948
71219W        W39582  19.654  39.470   0.322
71220W        W39583  20.196  42.418   3.758
71221W        W39584  17.129  15.803  13.827
71222W        W39585  11.238  23.132   1.782
71223W        W39586   3.311  16.176   0.803
71224W        W39587  29.149  36.395  10.626
71225W        W39588  19.145  18.258   2.681
71226W        W39589   6.212  38.343   0.851
71227W        W39590  36.491  41.035  13.062
71228W        W39591  31.461  13.682  13.843
71229W        W39592  41.943   5.269  12.875
71230W        W39593  42.524  35.486  13.933
71231W        W39594  33.069  37.854   0.244
71232W        W39595  37.483  22.208  12.446
71233W        W39596  20.668  11.789  13.338
71234W        W39597   4.925  11.195   4.250
71235W        W39598  32.633  14.737  11.534
71236W        W39599  30.431  20.657   0.250
71237W        W39600  18.688  32.912  12.496
71238W        W39601   3.710   0.925  12.504
71239W        W39602   4.856  23.614   2.795
71240W        W39603  26.638  18.586   1.247
71241W        W39604  32.508   1.898  11.916
71242W        W39605  38.394  24.667  14.962
71243W        W39606  12.189   5.865   5.743
71244W        W39607   6.329  24.981  11.533
71245W        W39608   8.359  28.670   2.748
71246W        W39609   2.304  42.986   0.838
71247W        W39610  12.331  15.158   0.372
71248W        W39611  40.010  29.159  13.490
71249W        W39612  41.921  33.552   2.181
71250W        W39613  15.658   7.762  11.108
71251W        W39614  30.631   2.348  14.817
71252W        W39615   0.296  21.159   0.388
71253W        W39616   9.176  19.174   1.441
71254W        W39617  38.417   9.768   4.211
71255W        W39618   9.375  38.047  14.323
71256W        W39619   6.741  13.149   2.737
71257W        W39620  32.978  18.293  12.406
71258W        W39621  29.440  13.236   4.640
71259W        W39622  32.079  17.652   3.682
71260W        W39623   9.184  21.017  12.925
71261W        W39624  32.626  25.989   4.677
71262W        W39625  39.336  18.731   1.423
71263W        W39626  33.995  34.974  11.106
71264W        W39627  43.838   8.685   4.215
71265W        W39628  18.776  27.101   4.835
71266W        W39629  27.591  35.359   1.260
71267W        W39630  17.153   3.922  13.942
71268W        W39631  23.565  33.962  14.974
71269W        W39632   7.252  18.208  12.419
71270W        W39633   7.237  13.284  12.384
71271W        W39634  35.420  29.485   0.306
71272W        W39635  12.830   3.268   3.779
71273W        W39636  28.155  17.753  14.916
71274W        W39637  35.513  36.525  14.810
71275W        W39638   5.290  11.681   0.465
71276W        W39639  27.027  43.846   3.658
71277W        W39640  32.427   6.901  11.956
71278W        W39641  44.009   7.843  14.367
71279W        W39642  42.496  14.702  12.941
71280W        W39643  15.116  31.601   3.785
71281W        W39644   6.769  20.675   4.348
71282W        W39645  43.771  34.512  12.543
71283W        W39646  35.470  38.940   0.855
71284W        W39647  37.042  32.482   3.709
71285W        W39648  11.639  28.176   5.243
71286W        W39649  23.013  11.249   4.642
71287W        W39650  29.442  28.674   0.316
71288W        W39651   7.728  41.310   1.331
71289W        W39652  31.598   9.157   0.825
71290W        W39653  40.316   6.346   4.318
71291W        W39654  32.598  28.965  14.867
71292W        W39655  23.001   2.413   4.806
71293W        W39656   6.207  41.917  14.789
71294W        W39657   6.247   3.714  10.455
71295W        W39658  17.267  33.884  13.027
71296W        W39659  32.946  26.979   3.658
71297W        W39660  27.454  39.377   4.226
71298W        W39661  15.218   4.434  13.811
71299W        W39662   3.788   0.277  11.451
71300W        W39663  40.947  41.040   0.337
71301W        W39664  13.637  18.566   4.781
71302W        W39665  44.265  21.082  13.397
71303W        W39666  12.704  17.061  12.952
71304W        W39667   8.197  34.956   4.709
71305W        W39668   7.331  42.855   0.276
71306W        W39669  14.135  39.313  13.353
71307W        W39670  19.173  39.061   0.470
71308W        W39671  16.260   1.403   4.340
71309W        W39672  14.817  40.384   2.276
71310W        W39673  32.456  42.356   4.646
71311W        W39674   6.201  40.515  10.559
71312W        W39675  17.742  42.901  14.981
71313W        W39676  25.698   1.381  12.418
71314W        W39677   5.821  15.782   4.128
71315W        W39678  43.775  38.901  10.069
71316W        W39679   9.809  33.932  13.323
71317W        W39680  29.501  10.711  13.352
71318W        W39681  12.624  34.917   1.376
71319W        W39682  10.274   2.253  10.435
71320W        W39683   3.818  40.910  10.623
71321W        W39684   5.245   4.944  13.862
71322W        W39685  43.331  35.987  14.352
71323W        W39686   5.399  16.754   4.198
71324W        W39687  13.782  28.501  10.986
71325W        W39688  37.945  40.472  14.289
71326W        W39689  42.381  15.654  12.069
71327W        W39690  31.062  43.332   0.938
71328W        W39691  32.942  26.067  12.370
71329W        W39692  11.863  33.999  13.901
71330W        W39693   9.749  18.608   1.798
71331W        W39694  31.924  31.956  10.436
71332W        W39695  18.258  22.702   0.901
71333W        W39696  17.222  22.670  14.807
71334W        W39697  28.944  39.317  12.374
71335W        W39698   4.770  36.944  12.015
71336W        W39699  18.570  27.079   0.357
71337W        W39700  36.515   3.431   4.166
71338W        W39701  33.412  16.083   5.110
71339W        W39702  40.328  26.584  14.315
71340W        W39703  40.313  15.209   2.836
71341W        W39704  25.511  30.963   1.307
71342W        W39705  15.785  35.886   4.785
71343W        W39706  21.732  37.499  13.981
71344W        W39707  22.048  11.267  12.955
71345W        W39708  19.088   1.348  14.297
71346W        W39709  27.469  30.960   4.319
71347W        W39710  34.093  12.289  13.916
71348W        W39711  32.477   2.439  12.447
71349W        W39712  34.396  11.674   3.783
71350W        W39713  42.905  12.760  13.528
71351W        W39714   9.854  29.606  14.967
71352W        W39715  28.548  39.374  12.932
71353W        W39716  22.059  22.209  11.887
71354W        W39717   8.790  14.658   0.473
71355W        W39718  34.564   4.710   4.194
71356W        W39719   9.251  37.969   2.894
71357W        W39720  34.990  41.919   1.397
71358W        W39721   4.812  31.634   1.720
71359W        W39722   2.729  14.099   0.288
71360W        W39723  12.752  34.517   0.292
71361W        W39724  43.395  34.479  12.841
71362W        W39725   5.272  37.376  13.904
71363W        W39726  21.118   2.291  11.389
71364W        W39727   2.460   7.804   2.820
71365W        W39728  39.961  31.969  12.521
71366W        W39729  16.805  36.426   0.299
71367W        W39730   0.964  25.113  13.879
71368W        W39731   2.846  24.178  13.971
71369W        W39732  13.205  16.186   3.821
71370W        W39733  12.200  18.582   1.289
71371W        W39734  32.039  24.579   4.275
71372W        W39735  35.462  15.782   2.277
71373W        W39736  28.677   6.374  12.922
71374W        W39737   6.797  39.027  14.505
71375W        W39738  28.995   9.775  10.497
71376W        W39739  20.572  32.396  13.064
71377W        W39740  17.677  29.146   0.476
71378W        W39741  40.969  11.674   3.644
71379W        W39742   9.268   2.455   3.309
71380W        W39743  15.329  13.144   1.930
71381W        W39744  40.427  12.758  10.428
71382W        W39745  43.813  11.246   3.181
71383W        W39746   7.282   0.252  14.953
71384W        W39747  15.600  37.013   4.825
71385W        W39748  28.586   1.259   1.380
71386W        W39749   8.170  37.440  10.938
71387W        W39750  44.261  27.521  12.414
71388W        W39751  20.714  35.021  13.519
71389W        W39752  43.843  29.150  14.814
71390W        W39753  24.191   3.792   0.905
71391W        W39754  39.509  19.778   0.810
71392W        W39755  17.138  37.471  11.563
71393W        W39756   7.801  26.652   2.764
71394W        W39757  23.104  36.054  12.876
71395W        W39758  41.330  37.868   3.760
71396W        W39759  22.530  19.766  14.446
71397W        W39760  22.029  34.485   3.363
71398W        W39761  23.652   8.314   4.306
71399W        W39762  17.735   9.756  10.545
71400W        W39763  43.866  36.943  11.124
71401W        W39764  36.392  39.394   0.746
71402W        W39765  36.928  17.796  11.555
71403W        W39766  24.559  19.587  10.447
71404W        W39767  39.024  36.510   1.794
71405W        W39768  32.893  41.496  12.842
71406W        W39769  17.603  32.505   0.399
71407W        W39770  10.144  16.715   3.732
71408W        W39771   6.872  31.578   4.674
71409W        W39772  39.946  35.038  14.329
71410W        W39773  17.267  24.557   3.631
71411W        W39774   6.205  12.168  14.780
71412W        W39775   5.719  29.547  13.456
71413W        W39776  39.886  41.842  12.883
71414W        W39777  24.159  40.813   4.711
71415W        W39778  22.708  44.401   3.170
71416W        W39779  27.665   2.721  14.007
71417W        W39780  18.079  29.654   1.240
71418W        W39781  40.947  31.064   3.360
71419W        W39782   6.349  32.984   3.291
71420W        W39783   0.474  10.326   3.738
71421W        W39784  35.922  22.540  14.969
71422W        W39785  20.050   2.786   2.376
71423W        W39786  38.010  11.865   3.355
71424W        W39787  40.941  41.865  10.580
71425W        W39788  28.028   2.448  14.958
71426W        W39789  16.081  33.977  10.479
71427W        W39790  19.678  26.005  14.436
71428W        W39791   6.787   2.842  11.390
71429W        W39792  37.885  39.929  13.503
71430W        W39793  15.250  10.353   0.864
71431W        W39794  38.831   0.340   0.256
71432W        W39795  10.235  44.317  10.908
71433W        W39796  26.014  30.442   0.273
71434W        W39797  16.206  11.178   4.300
71435W        W39798   5.366  25.567   1.827
71436W        W39799   9.297  37.074   3.805
71437W        W39800  42.497  27.658   0.481
71438W        W39801  10.186  31.410   0.743
71439W        W39802   4.780  11.768  10.161
71440W        W39803   0.792  24.606  10.569
71441W        W39804  19.265  17.679   0.746
71442W        W39805  42.949   8.331  11.508
71443W        W39806  41.962  31.022  14.017
71444W        W39807  19.053  25.094   0.967
71445W        W39808   0.802  21.088  14.392
71446W        W39809   6.792  39.319  12.898
71447W        W39810  43.356  31.529  13.932
71448W        W39811  40.523  41.334   4.236
71449W        W39812  24.115  36.387   1.436
71450W        W39813  33.904  40.932   2.817
71451W        W39814   9.859   6.802   0.736
71452W        W39815   9.758  35.035  12.089
71453W        W39816   0.481  17.061  10.549
71454W        W39817  20.599  41.994  13.824
71455W        W39818  29.515   9.200   2.834
71456W        W39819  33.585  42.314   2.301
71457W        W39820   5.840  33.479   4.649
71458W        W39821  31.054  13.189  14.476
71459W        W39822  37.354  42.966  14.323
71460W        W39823   7.741  16.316   2.884
71461W        W39824  27.946  41.467  10.987
71462W        W39825  22.020  15.796   1.754
71463W        W39826   0.402  38.025   2.841
71464W        W39827   2.439   6.811  13.434
71465W        W39828  38.500  16.594  11.599
71466W        W39829   0.403  24.657   3.699
71467W        W39830  34.024  19.659   2.679
71468W        W39831  10.206  23.181   4.229
71469W        W39832  33.899  38.943   3.206
71470W        W39833   2.238  36.986   1.230
71471W        W39834   7.351  35.905  13.398
71472W        W39835  10.162   2.307   0.812
71473W        W39836  38.526  25.041   2.882
71474W        W39837  17.738   0.889  13.327
71475W        W39838   0.248  28.585  13.801
71476W        W39839   3.403  15.735   0.860
71477W        W39840   3.923  33.893   3.201
71478W        W39841   0.375  28.526   0.858
71479W        W39842   3.394  26.565   3.147
71480W        W39843   3.944  38.489   2.757
71481W        W39844  14.653  32.512  13.841
71482W        W39845  35.582  30.563  12.473
71483W        W39846  14.127  11.763  11.500
71484W        W39847  19.095  12.745  12.078
71485W        W39848  31.494  15.603   3.313
71486W        W39849  26.468  23.560  10.076
71487W        W39850  35.917  13.651  10.482
71488W        W39851   7.416  43.002   1.782
71489W        W39852   6.800  18.143   2.712
71490W        W39853  10.315  23.027  14.848
71491W        W39854  14.672   6.294   5.105
71492W        W39855  12.701  30.958  11.982
71493W        W39856  34.579  24.658   2.764
71494W        W39857  20.567  36.482   1.739
71495W        W39858  20.056  30.632  11.021
71496W        W39859   9.265  44.299   2.842
71497W        W39860  39.868  14.152   4.598
71498W        W39861  37.486  20.636   0.287
71499W        W39862  42.494  39.027  10.982
71500W        W39863   0.989  29.554  14.305
71501W        W39864  25.981   4.784   2.894
71502W        W39865   9.814   1.839  11.575
71503W        W39866  43.425  39.897  12.877
71504W        W39867  19.065  12.167  10.935
71505W        W39868  22.128  22.582   3.190
71506W        W39869  17.585   1.927  14.401
71507W        W39870  29.081  33.114  11.071
71508W        W39871   6.881  14.713  12.578
71509W        W39872  22.006   1.853   3.320
71510W        W39873  15.623  21.229  12.866
71511W        W39874  23.715  24.156  12.351
71512W        W39875   5.775  21.229  10.511
71513W        W39876  15.580   4.230   1.256
71514W        W39877  13.348  33.115  11.076
71515W        W39878  24.104   9.223  12.063
71516W        W39879  12.735  28.484  11.947
71517W        W39880  13.843   8.183   3.854
71518W        W39881  44.934   5.847  13.898
71519W        W39882  18.749  42.005  14.484
71520W        W39883  30.165  27.007  14.366
71521W        W39884  10.235  29.920  12.022
71522W        W39885   5.293  44.301   2.679
71523W        W39886  36.356   1.947  14.482
71524W        W39887  34.039   1.318  11.584
71525W        W39888   2.356  42.795   1.391
71526W        W39889  11.629  11.287   4.740
71527W        W39890  26.099  25.533   3.807
71528W        W39891  12.776   1.254   0.406
71529W        W39892  17.779   7.411   1.367
71530W        W39893   9.333  42.335  13.352
71531W        W39894   5.297  28.046   9.977
71532W        W39895  37.058  29.670  14.873
71533W        W39896   2.827  16.707  14.845
71534W        W39897  19.618  34.466  11.948
71535W        W39898   0.942  41.015   2.677
71536W        W39899  10.186   6.726  11.897
71537W        W39900  21.601   2.398   4.743
71538W        W39901  12.701  37.061   0.292
71539W        W39902  18.118  26.625   1.813
71540W        W39903  20.565  21.090  12.440
71541W        W39904  21.730   6.791  12.344
71542W        W39905   1.335   3.732  12.927
71543W        W39906  12.657  17.140  10.585
71544W        W39907   3.354  37.354   1.354
71545W        W39908   2.936  10.836  14.493
71546W        W39909   9.874  19.067   0.876
71547W        W39910  37.902  30.609   2.692
71548W        W39911   3.388  44.953   1.810
71549W        W39912  13.268  20.051   2.377
71550W        W39913  23.024  28.648   2.244
71551W        W39914  30.958  14.156   2.363
71552W        W39915   5.301  26.167  13.548
71553W        W39916  10.645  24.170   1.347
71554W        W39917  13.221  34.880   4.835
71555W        W39918  37.882  22.101  11.564
71556W        W39919  15.590  17.617  14.954
71557W        W39920  10.875  25.570  12.570
71558W        W39921  23.655   0.743   3.289
71559W        W39922   7.264  28.027   0.782
71560W        W39923  34.396  27.656  13.063
71561W        W39924  31.151  26.688  12.066
71562W        W39925  17.757  21.565   2.865
71563W        W39926  18.625  34.510   2.329
71564W        W39927  43.322  13.602   0.806
71565W        W39928  41.917  37.956  13.827
71566W        W39929   6.685  41.913  10.506
71567W        W39930  17.137  17.129  12.392
71568W        W39931   7.671  17.293   9.930
71569W        W39932  28.651  41.870  13.816
71570W        W39933  44.474  12.711   3.754
71571W        W39934  41.815  40.364  11.106
71572W        W39935  26.472  26.089  14.995
71573W        W39936  17.213  33.625  11.932
71574W        W39937  24.586  30.446   4.794
71575W        W39938  30.434  41.895  11.870
71576W        W39939  12.208   4.909   0.825
71577W        W39940  19.546  33.036  11.052
71578W        W39941  30.625   8.314   3.758
71579W        W39942  22.082  41.975  14.277
71580W        W39943   3.746  30.456   2.318
71581W        W39944  16.217  16.572  14.395
71582W        W39945  30.528  33.577   4.808
71583W        W39946   7.800  27.645  12.378
71584W        W39947  12.698  39.031   2.800
71585W        W39948   2.934  41.978   0.469
71586W        W39949  40.003  43.843   1.856
71587W        W39950  18.638  20.677  10.584
71588W        W39951  13.771  22.113   0.919
71589W        W39952  23.594  27.965  14.468
71590W        W39953  39.388  28.621   4.599
71591W        W39954  28.070  32.607  11.032
71592W        W39955   2.346  41.863   0.302
71593W        W39956  10.328   9.802   4.712
71594W        W39957  22.550  33.552  14.810
71595W        W39958  11.781  13.331   2.715
71596W        W39959  34.887  18.285  11.426
71597W        W39960  39.378  13.640   3.652
71598W        W39961  19.658  36.038   1.847
71599W        W39962  37.471  42.472   4.149
71600W        W39963  22.074  12.219  13.434
71601W        W39964  22.627   6.336  13.814
71602W        W39965  11.170   2.326  13.063
71603W        W39966  19.563  22.075   0.769
71604W        W39967   1.941  41.874   3.745
71605W        W39968  21.656  11.811  14.339
71606W        W39969  11.649  17.180  12.496
71607W        W39970   5.753  20.546  14.413
71608W        W39971  39.969  16.576   2.865
71609W        W39972   1.952  42.361   3.690
71610W        W39973  21.517  24.977   4.177
71611W        W39974   8.725  43.986  11.421
71612W        W39975   6.379   7.299  12.529
71613W        W39976  16.105  11.368  12.855
71614W        W39977  40.509  19.244  12.364
71615W        W39978  23.495  13.737  12.058
71616W        W39979   5.221  32.053  11.913
71617W        W39980   8.375  31.014  14.296
71618W        W39981  11.178  32.076  14.813
71619W        W39982  19.675  36.402  14.299
71620W        W39983  19.720   9.763  14.507
71621W        W39984   3.835  35.011   0.768
71622W        W39985  15.689  35.439   4.344
71623W        W39986  12.172  17.556   1.869
71624W        W39987   5.314   0.445  10.940
71625W        W39988  37.893   8.655   0.801
71626W        W39989  15.163  44.404  14.430
71627W        W39990  11.133  37.904   2.768
71628W        W39991  32.472  33.937  14.331
71629W        W39992  43.275  37.398  13.988
71630W        W39993  27.664   9.727   0.838
71631W        W39994  39.333  23.577   4.166
71632W        W39995  20.627  43.491   2.410
71633W        W39996   5.363  31.481   0.454
71634W        W39997  21.545   1.342   1.924
71635W        W39998  13.262  13.665   2.206
71636W        W39999   5.438  23.612  11.564
71637W        W40000  41.400   9.268   2.333
71638W        W40001  17.559  30.067   2.369
71639W        W40002  32.906  25.710   3.659
71640W        W40003  36.051  40.368   2.373
71641W        W40004  35.890  36.516  14.988
71642W        W40005  35.061  11.361  13.413
71643W        W40006  44.899  11.707  11.560
71644W        W40007  28.582  32.968  14.375
71645W        W40008  15.238  28.043   1.250
71646W        W40009  37.988  29.653  11.988
71647W        W40010  13.820   4.206  14.862
71648W        W40011  25.546   0.784   3.247
71649W        W40012   6.217  20.695  10.540
71650W        W40013  40.352  43.769  11.908
71651W        W40014   8.364  34.012   4.132
71652W        W40015  30.615   3.353  12.374
71653W        W40016  39.857  22.700  10.522
71654W        W40017  23.537  11.783   3.759
71655W        W40018  31.976  14.101   1.912
71656W        W40019   9.670  42.500   0.424
71657W        W40020   9.724  41.438  11.576
71658W        W40021  36.916  20.687   4.649
71659W        W40022  14.627  32.047  13.808
71660W        W40023  22.140   6.741   4.649
71661W        W40024  24.111  36.461  13.465
71662W        W40025  13.634   6.898   1.779
71663W        W40026  18.786  24.637   4.656
71664W        W40027   7.190  36.018   0.785
71665W        W40028  15.137  20.731   0.942
71666W        W40029  36.869  17.201   3.225
71667W        W40030  25.558   3.294  11.475
71668W        W40031  30.069  41.880  12.907
71669W        W40032  36.075   3.395   2.392
71670W        W40033  34.000  37.414   4.730
71671W        W40034   1.437   5.194   0.284
71672W        W40035  11.699   5.319  14.276
71673W        W40036  10.180  34.506   2.400
71674W        W40037  40.406  14.309   1.362
71675W        W40038  41.395  16.079   4.753
71676W        W40039   6.273  26.167  11.516
71677W        W40040  36.992  37.443  12.558
71678W        W40041  14.173   1.851  11.404
71679W        W40042  40.539  18.188  10.565
71680W        W40043  27.671  11.190  14.025
71681W        W40044  10.704   4.419   2.775
71682W        W40045  10.342  42.309   4.633
71683W        W40046  38.053  36.568   0.836
71684W        W40047  44.827  43.431   4.760
71685W        W40048  13.286  15.098   4.221
71686W        W40049  17.612   5.341   2.757
71687W        W40050   1.964  17.722   3.683
71688W        W40051  35.986  30.008   1.813
71689W        W40052  20.158  30.918   4.202
71690W        W40053  31.137  28.535  13.415
71691W        W40054   1.402  13.628   1.699
71692W        W40055  30.938  28.592   3.164
71693W        W40056  27.195   8.850  12.912
71694W        W40057  23.181  30.415  12.001
71695W        W40058  35.516   0.412   2.863
71696W        W40059  17.210  26.140   3.743
71697W        W40060  18.120  27.566  11.420
71698W        W40061  38.342  37.026   2.347
71699W        W40062  11.801   0.351  13.466
71700W        W40063  14.124  24.084   1.288
71701W        W40064  33.536  25.528   2.892
71702W        W40065  34.063   6.296   3.305
71703W        W40066  30.564  21.704  10.967
71704W        W40067  30.653  44.808   3.675
71705W        W40068  27.954   3.371   2.262
71706W        W40069  28.648   0.428  13.924
71707W        W40070  20.752  24.494   0.904
71708W        W40071  42.878  42.291  13.324
71709W        W40072  42.841  18.781   2.858
71710W        W40073  31.132  34.587   3.274
71711W        W40074  21.079   8.663  12.371
71712W        W40075  15.683  28.032  13.934
71713W        W40076   2.341   3.916  12.563
71714W        W40077  12.754  15.785  12.073
71715W        W40078  37.422  30.471   2.305
71716W        W40079  19.540  33.946  13.374
71717W        W40080  20.062  29.006   4.133
71718W        W40081  18.607   5.233   1.396
71719W        W40082  27.949   3.854  13.414
71720W        W40083  26.551  34.517  12.067
71721W        W40084  24.662  43.442  14.828
71722W        W40085   5.328  40.909  11.531
71723W        W40086   0.892  41.964  11.974
71724W        W40087   4.840  10.794   2.803
71725W        W40088  30.127  31.631   1.427
71726W        W40089  13.652  38.390  12.079
71727W        W40090  20.265  36.578  14.032
71728W        W40091  22.124  44.814  14.881
71729W        W40092  10.825  42.823  11.129
71730W        W40093  15.176   2.738   3.204
71731W        W40094  13.149  40.358  12.962
71732W        W40095   1.432   3.291   0.251
71733W        W40096  30.932  14.096   4.786
71734W        W40097  43.871  13.263  13.804
71735W        W40098  31.040  22.602   1.775
71736W        W40099  38.925  15.171   1.319
71737W        W40100  18.175  22.678  13.912
71738W        W40101  19.587  20.536  14.790
71739W        W40102  22.151   4.750   2.702
71740W        W40103  35.432  34.478  10.954
71741W        W40104  11.297  25.553  11.583
71742W        W40105  31.993  33.019   2.389
71743W        W40106  26.160  26.652   1.740
71744W        W40107  12.247  34.386   4.624
71745W        W40108  18.681  13.259   2.669
71746W        W40109  35.503   7.758   1.372
71747W        W40110  32.572   7.676  11.515
71748W        W40111   5.381  14.796   2.266
71749W        W40112  16.768  29.921   2.745
71750W        W40113   3.743   2.967   3.857
71751W        W40114  37.407  17.602   1.869
71752W        W40115   5.390   2.796   4.645
71753W        W40116  11.168  42.336  12.397
71754W        W40117  44.772  21.101  14.277
71755W        W40118  16.155  42.874   0.288
71756W        W40119  22.583   7.814  13.990
71757W        W40120   8.356  38.925  11.981
71758W        W40121   4.815  12.846  10.966
71759W        W40122   2.249  19.113   0.264
71760W        W40123  25.475  26.982   3.279
71761W        W40124   5.824  15.627  12.412
71762W        W40125  29.064  11.295   0.926
71763W        W40126  31.955  21.672   1.352
71764W        W40127  18.098  23.999   4.351
71765W        W40128  35.909   7.679   4.818
71766W        W40129   5.392   2.418   0.470
71767W        W40130  14.773  11.320  12.887
71768W        W40131   6.847  38.523  12.558
71769W        W40132   2.405  25.648  14.959
71770W        W40133  36.077  21.578   3.318
71771W        W40134  42.978   2.806  10.981
71772W        W40135  22.616   7.798   3.807
71773W        W40136  34.109   8.393   3.766
71774W        W40137  23.733  20.269   3.177
71775W        W40138  16.682   8.746  13.965
71776W        W40139  31.420  28.611   1.340
71777W        W40140  20.136  34.119   2.773
71778W        W40141  24.517  35.419  11.608
71779W        W40142   8.885  19.064  14.401
71780W        W40143  35.950  36.843   3.259
71781W        W40144  36.053  34.504   1.223
71782W        W40145  17.592  26.557   2.898
71783W        W40146  16.268  12.203  13.433
71784W        W40147   5.691  29.979   3.679
71785W        W40148  25.111  28.587  11.103
71786W        W40149  36.430  21.513  11.555
71787W        W40150  24.130  35.030   3.728
71788W        W40151  23.565  14.265  11.064
71789W        W40152  37.012  17.780  14.463
71790W        W40153   5.737  40.507   3.344
71791W        W40154  12.242  25.176   1.714
71792W        W40155  37.843  36.460   2.832
71793W        W40156  18.252  28.613   3.732
71794W        W40157  23.159  34.927   0.476
71795W        W40158   5.772  39.943   2.270
71796W        W40159  15.170  19.055  10.489
71797W        W40160  16.106  24.504  12.513
71798W        W40161  26.614  40.034  14.830
71799W        W40162  17.281  37.488   3.332
71800W        W40163  29.615  30.458   1.694
71801W        W40164  42.332  30.637   3.662
71802W        W40165  41.408  35.478  13.038
71803W        W40166   3.297  30.591   9.984
71804W        W40167  28.178  17.150  14.363
71805W        W40168  39.318   4.781  13.037
71806W        W40169  19.218  40.910   1.269
71807W        W40170  12.181  37.505  13.341
71808W        W40171   7.289  15.791  11.387
71809W        W40172   0.319  27.167   4.137
71810W        W40173   7.233  14.643  12.353
71811W        W40174   6.859  15.245  11.003
71812W        W40175   6.897  39.941  10.948
71813W        W40176  32.941   5.915  14.931
71814W        W40177  10.141  44.407  13.409
71815W        W40178  35.547  38.359   0.361
71816W        W40179  25.985  29.040   3.207
71817W        W40180  22.689   6.858   2.680
71818W        W40181  41.486   6.405   4.274
71819W        W40182  23.526   1.272  10.889
71820W        W40183  34.370   7.311   3.738
71821W        W40184  33.041   3.229   1.857
71822W        W40185  10.717  11.788   3.725
71823W        W40186   3.302  33.464   5.261
71824W        W40187  11.266   2.812  13.330
71825W        W40188   0.374  21.658  14.456
71826W        W40189  27.651  37.493   3.634
71827W        W40190   5.722  16.097  11.950
71828W        W40191  36.889  15.652  11.968
71829W        W40192  20.168  33.016   3.680
71830W        W40193  42.999  22.678   1.239
71831W        W40194  21.121  14.731  12.056
71832W        W40195   5.252   2.429  12.447
71833W        W40196  26.486  31.623   3.864
71834W        W40197   1.280  38.819  14.864
71835W        W40198  32.636  39.481  13.411
71836W        W40199  11.649  22.202   4.308
71837W        W40200  25.531  27.565   1.435
71838W        W40201  25.045  38.946   2.692
71839W        W40202  15.172  23.659   0.848
71840W        W40203  26.047  31.036   3.212
71841W        W40204   7.821  12.626   4.151
71842W        W40205  36.923  21.645   4.131
71843W        W40206   2.271   7.409   4.181
71844W        W40207  22.214  11.684   2.246
71845W        W40208  38.900  29.627   4.703
71846W        W40209  24.706  31.535   0.888
71847W        W40210   0.783   7.790  11.571
71848W        W40211   3.936  21.659   4.131
71849W        W40212  23.028   4.741  13.332
71850W        W40213  40.316  10.155  13.034
71851W        W40214   2.843  25.158   4.281
71852W        W40215  26.523   3.900   2.313
71853W        W40216  20.683  40.988  14.459
71854W        W40217  13.274  37.576  12.415
71855W        W40218   9.364  13.242  10.448
71856W        W40219  39.412   5.226   4.299
71857W        W40220  36.589   8.864   4.267
71858W        W40221  25.219  16.707   3.734
71859W        W40222  42.410   4.224  13.393
71860W        W40223  17.561  23.682  14.024
71861W        W40224  44.440  23.125   2.392
71862W        W40225   6.798   8.730  14.325
71863W        W40226  36.348  10.222   3.233
71864W        W40227  31.543  14.682   2.281
71865W        W40228  26.108  13.716  10.641
71866W        W40229  10.634  43.860   0.965
71867W        W40230  35.364  39.423   4.746
71868W        W40231   4.434   5.917  12.865
71869W        W40232   5.799  34.604  12.951
71870W        W40233  40.509  16.311   1.850
71871W        W40234  23.170   2.290   1.852
71872W        W40235   3.845  32.501   1.234
71873W        W40236  23.681  18.240   2.759
71874W        W40237   7.876  29.604   3.733
71875W        W40238   1.816  34.005  12.413
71876W        W40239  20.738  33.067  10.542
71877W        W40240  14.113  44.010   1.348
71878W        W40241  15.621   6.419   1.698
71879W        W40242   4.742  35.417   4.285
71880W        W40243  28.459  26.626  13.954
71881W        W40244  33.499   4.421   1.413
71882W        W40245   5.823   4.386   3.378
71883W        W40246  43.913  33.970   0.405
71884W        W40247   6.741   3.714  13.430
71885W        W40248  26.666  12.841   3.192
71886W        W40249   7.263  38.942   2.823
71887W        W40250  27.486  30.014  10.631
71888W        W40251  37.920  38.448  10.900
71889W        W40252  10.872   5.306  13.521
71890W        W40253  33.971  13.739   0.360
71891W        W40254  38.847  36.055   1.444
71892W        W40255   1.358  39.921  10.971
71893W        W40256  40.034  19.127  11.046
71894W        W40257  17.717  44.275   1.731
71895W        W40258  11.298  31.099  11.477
71896W        W40259   9.357   5.786   1.434
71897W        W40260  30.636  24.151   4.330
71898W        W40261  27.083  12.627  10.587
71899W        W40262  16.736  30.628   1.935
71900W        W40263  10.254  32.395   4.310
71901W        W40264  26.160  39.552   4.197
71902W        W40265  18.115  26.139   1.215
71903W        W40266  20.123  18.643   5.272
71904W        W40267  21.578  37.509  12.367
71905W        W40268  41.499   3.842   2.309
71906W        W40269  11.303   7.707   4.181
71907W        W40270  30.428  38.496  12.936
71908W        W40271  16.578  33.895   0.448
71909W        W40272   4.365  20.679   2.197
71910W        W40273  22.207  26.465   0.384
71911W        W40274   7.281  21.101  14.932
71912W        W40275  39.946  20.145  11.110
71913W        W40276  13.107  25.662   0.347
71914W        W40277  29.606  34.041   2.726
71915W        W40278   0.854   4.821  10.521
71916W        W40279  27.070   1.738  14.330
71917W        W40280  37.496  39.821   1.279
71918W        W40281  18.661  16.703   4.697
71919W        W40282  20.682  36.020  11.039
71920W        W40283  31.628  13.110  14.807
71921W        W40284  30.102  13.823   2.387
71922W        W40285  37.467  44.274  13.793
71923W        W40286   2.749  34.532   0.764
71924W        W40287  34.913  18.276   3.763
71925W        W40288   6.867   4.869  13.966
71926W        W40289   2.911  19.567   1.896
71927W        W40290  19.167  28.589  14.942
71928W        W40291  26.073  25.009   4.288
71929W        W40292  10.246   8.214   0.355
71930W        W40293   8.723  38.438   3.177
71931W        W40294  18.664   6.860   2.901
71932W        W40295  25.059   7.768   1.216
71933W        W40296  16.704  43.385  14.946
71934W        W40297  14.240  16.614  12.442
71935W        W40298  32.082  22.587  12.348
71936W        W40299   4.235  33.960   4.812
71937W        W40300  39.427   1.461   4.177
71938W        W40301  38.066  29.056   5.284
71939W        W40302  12.346  38.931   2.243
71940W        W40303  28.462  11.234   3.183
71941W        W40304  20.674  33.379   4.260
71942W        W40305  37.453  18.289   4.207
71943W        W40306  16.592  34.048   4.212
71944W        W40307   5.367   8.711   0.786
71945W        W40308  23.704  36.387  12.850
71946W        W40309  33.094  13.137   0.879
71947W        W40310  34.101   1.867   0.437
71948W        W40311  35.031  26.009  11.483
71949W        W40312  39.429  35.935   4.794
71950W        W40313   3.894  44.422  11.009
71951W        W40314  26.625   4.285   2.330
71952W        W40315  12.619  10.778   4.630
71953W        W40316   8.339  17.732  12.078
71954W        W40317  34.082  19.095  10.562
71955W        W40318  18.183  14.294  14.434
71956W        W40319  32.548  39.030   4.676
71957W        W40320  14.699   2.876  13.410
71958W        W40321  24.207  11.770  11.987
71959W        W40322  32.461   5.808   0.444
71960W        W40323  21.620  21.228   1.796
71961W        W40324  37.966  43.307   3.808
71962W        W40325  41.522  33.095   4.737
71963W        W40326  38.867   2.316   4.177
71964W        W40327  41.430  10.329   0.453
71965W        W40328  31.455   8.824   0.412
71966W        W40329  15.637   1.456  11.467
71967W        W40330  23.021  28.004  13.373
71968W        W40331  13.244  16.566   0.847
71969W        W40332  38.540   9.647   2.187
71970W        W40333  15.161  42.359  11.981
71971W        W40334  23.494  18.079  13.848
71972W        W40335  20.705  39.489   3.247
71973W        W40336  29.488   9.788  14.301
71974W        W40337  31.034  44.903  11.076
71975W        W40338  22.113  20.614   1.421
71976W        W40339  13.780  39.341  12.386
71977W        W40340  27.675  12.117  12.401
71978W        W40341  19.602  12.248   4.236
71979W        W40342  16.716  40.544  14.777
71980W        W40343  15.658  17.204  14.834
71981W        W40344  17.596  17.724  14.814
71982W        W40345  19.636   0.283  10.460
71983W        W40346  16.168  42.439   2.201
71984W        W40347   8.357  26.956  12.910
71985W        W40348  39.962  19.573  13.826
71986W        W40349  40.891   3.359   2.853
71987W        W40350  29.131   8.711   0.340
71988W        W40351  10.163  15.813  11.439
71989W        W40352  14.306  33.929   4.628
71990W        W40353  10.348   8.312   2.405
71991W        W40354  33.447  37.974  13.880
71992W        W40355  36.420  33.974  13.992
71993W        W40356  29.065  23.686  14.275
71994W        W40357  17.097   4.207  11.002
71995W        W40358   4.713   6.255  11.115
71996W        W40359   4.824   5.259  12.448
71997W        W40360  10.277  21.678   4.310
71998W        W40361  28.966  12.123  14.889
71999W        W40362  11.689   7.865  14.780
72000W        W40363  33.020  10.844  14.990
72001W        W40364  24.537  28.961   1.923
72002W        W40365  17.255  38.527   4.606
72003W        W40366  12.334  25.529   1.357
72004W        W40367  17.567  21.686   3.148
72005W        W40368  14.628   7.834   3.640
72006W        W40369  17.135  14.813   3.360
72007W        W40370  41.469  14.827  10.641
72008W        W40371  16.759  44.007  13.840
72009W        W40372  16.694  23.502   0.363
72010W        W40373  20.187  39.347  10.603
72011W        W40374  28.989  38.942   4.333
72012W        W40375  20.223  35.068   4.608
72013W        W40376  33.471  14.169  12.401
72014W        W40377   3.727  21.111   0.302
72015W        W40378  10.156  22.036  11.527
72016W        W40379   6.910  15.795   0.279
72017W        W40380  24.582  44.303   4.246
72018W        W40381  18.183  18.243   1.430
72019W        W40382  33.113  12.678   1.879
72020W        W40383   0.776   0.343  14.343
72021W        W40384   8.180   1.424   1.229
72022W        W40385  39.973  24.506   0.933
72023W        W40386  20.265  17.100   2.345
72024W        W40387  31.998   0.744   2.881
72025W        W40388  11.163  18.724  14.884
72026W        W40389  32.985   5.759  10.971
72027W        W40390   9.712   5.750   2.345
72028W        W40391   3.876  22.627   1.422
72029W        W40392   0.871   8.169  13.922
72030W        W40393  26.457  44.794   4.282
72031W        W40394   6.361  20.147   2.807
72032W        W40395   7.357   7.311  12.058
72033W        W40396  41.311  11.828  14.378
72034W        W40397  44.760   7.197  10.894
72035W        W40398  39.390  14.769   3.295
72036W        W40399  40.946  11.641   0.881
72037W        W40400  16.587  39.050   0.863
72038W        W40401  41.863   9.242   3.334
72039W        W40402   0.959   8.272  14.483
72040W        W40403  19.698  42.456  12.388
72041W        W40404  12.756  27.454   1.414
72042W        W40405  43.505  11.350  12.024
72043W        W40406  24.601  27.527   1.247
72044W        W40407  28.597  23.502  14.327
72045W        W40408  17.584  24.204   0.896
72046W        W40409  40.548   4.295   4.826
72047W        W40410  41.943  12.671  13.823
72048W        W40411  11.129  24.493  11.577
72049W        W40412  18.064  17.125   0.893
72050W        W40413  37.863  41.892  13.967
72051W        W40414   5.323  25.565   2.384
72052W        W40415  30.062  27.973   3.282
72053W        W40416  12.791  30.115   0.798
72054W        W40417  35.408   8.160   4.686
72055W        W40418  31.615  29.598   2.247
72056W        W40419   2.366   7.238   5.122
72057W        W40420  14.339  15.209   2.888
72058W        W40421   3.341   9.364  14.963
72059W        W40422  40.518   6.289   5.296
72060W        W40423  36.526  14.112   3.717
72061W        W40424  24.031   1.873   3.243
72062W        W40425  16.635  24.070   1.785
72063W        W40426  10.260  23.060  11.468
72064W        W40427  29.563  43.988  11.416
72065W        W40428  18.212  15.195  11.933
72066W        W40429   3.723  33.073   0.442
72067W        W40430  30.082  43.451  12.967
72068W        W40431  38.878  43.358   2.851
72069W        W40432  30.510  21.248  11.092
72070W        W40433   1.363  40.880   4.633
72071W        W40434  26.620  27.158  10.450
72072W        W40435  21.581  19.253  14.790
72073W        W40436  10.360  42.031   1.886
72074W        W40437  19.139  13.672   3.233
72075W        W40438   6.217  39.503  13.480
72076W        W40439   3.937  27.957  14.848
72077W        W40440  34.556  10.876  10.564
72078W        W40441  10.667  20.571   3.818
72079W        W40442  33.435  18.111   0.822
72080W        W40443  21.590  38.928   0.897
72081W        W40444   9.230  34.599   2.879
72082W        W40445   1.832  42.460  11.609
72083W        W40446  38.495  30.608  14.019
72084W        W40447   3.821  15.633  12.389
72085W        W40448  13.231  20.744   3.227
72086W        W40449  21.166  10.169   3.668
72087W        W40450   7.196  33.551  13.816
72088W        W40451  33.970  44.762   4.631
72089W        W40452  29.954  41.399  13.441
72090W        W40453  42.372  17.596  12.880
72091W        W40454  43.435  38.944   0.260
72092W        W40455  20.628  27.531  14.306
72093W        W40456  21.193  39.012   2.739
72094W        W40457  28.514  29.141   4.328
72095W        W40458  26.008  35.482  13.532
72096W        W40459   0.461  12.686  14.278
72097W        W40460   2.730  34.061   0.302
72098W        W40461  13.207   0.444   3.717
72099W        W40462  24.580  25.962   2.867
72100W        W40463  18.168   8.811  14.904
72101W        W40464  35.023  38.367  13.808
72102W        W40465  35.485  44.860  11.489
72103W        W40466  17.129   8.263   3.307
72104W        W40467   1.437  43.352   0.938
72105W        W40468   1.733  29.931   4.767
72106W        W40469   0.930  39.852  12.414
72107W        W40470  15.590  30.538   1.242
72108W        W40471  27.544  10.381   1.804
72109W        W40472   2.448  13.124   3.202
72110W        W40473   9.733   6.771  13.350
72111W        W40474   0.758  23.039  13.354
72112W        W40475  38.044   2.937  13.801
72113W        W40476  26.094  15.278   4.141
72114W        W40477  28.542  36.026   3.262
72115W        W40478   2.388  21.601   0.727
72116W        W40479  19.275  22.669  12.882
72117W        W40480  38.349  13.126   4.185
72118W        W40481  14.129  18.697  11.069
72119W        W40482  28.943  41.953   2.794
72120W        W40483  24.609  41.969   2.313
72121W        W40484  11.174   8.690  11.520
72122W        W40485  42.911  43.363   0.907
72123W        W40486  36.538   0.828   3.854
72124W        W40487  17.608  25.099   3.167
72125W        W40488  30.050  29.066  10.587
72126W        W40489   8.303  32.915  11.550
72127W        W40490  31.095  20.561  14.925
72128W        W40491  20.575  24.641   3.750
72129W        W40492  20.740  17.242  12.838
72130W        W40493   7.229   6.378   3.347
72131W        W40494   6.364  30.427   0.279
72132W        W40495  10.753   8.768   1.697
72133W        W40496   4.322  26.653  13.492
72134W        W40497  15.156  20.650  13.430
72135W        W40498  25.714   9.321  13.928
72136W        W40499  41.846  26.008   3.778
72137W        W40500   6.200   5.427  10.556
72138W        W40501   0.751  14.107  12.436
72139W        W40502  42.324  30.938   0.803
72140W        W40503  29.611   1.883   0.362
72141W        W40504  42.860  42.981   4.787
72142W        W40505  22.624  21.736   2.271
72143W        W40506   2.742   4.422   1.257
72144W        W40507  29.447   4.214  12.341
72145W        W40508   1.794  12.854   0.801
72146W        W40509   6.843   9.322   3.659
72147W        W40510  21.622  41.458  12.837
72148W        W40511  44.830  32.415  12.930
72149W        W40512  36.358  39.943  10.103
72150W        W40513  43.831  24.027  12.852
72151W        W40514  23.190  31.924  11.561
72152W        W40515   2.857   6.791  11.423
72153W        W40516  17.748  20.562  11.480
72154W        W40517  15.156   0.430   3.236
72155W        W40518  23.647  31.525   3.216
72156W        W40519   2.866   8.757   3.238
72157W        W40520  35.581   7.314   2.409
72158W        W40521  20.139   3.269   2.841
72159W        W40522  28.104  39.321  12.499
72160W        W40523   1.449  41.444   0.298
72161W        W40524   0.762   8.869  12.824
72162W        W40525  38.018  14.243   2.820
72163W        W40526   2.771   7.672   1.358
72164W        W40527  16.675  16.601   0.409
72165W        W40528  33.428  16.291   2.762
72166W        W40529  21.553  44.470  11.106
72167W        W40530  19.639   0.907   2.183
72168W        W40531  37.508  42.827   2.713
72169W        W40532  21.650  13.654  11.892
72170W        W40533   8.731  44.889  13.812
72171W        W40534  30.464  27.953  14.805
72172W        W40535  20.147  33.585  10.624
72173W        W40536  14.775  44.288   4.769
72174W        W40537  32.033  19.274  12.925
72175W        W40538  15.322   3.240   0.956
72176W        W40539  22.722  23.569   4.610
72177W        W40540  10.681  30.939   3.683
72178W        W40541  35.509  42.821   1.376
72179W        W40542  35.040  34.052   4.673
72180W        W40543  25.002  13.722  14.376
72181W        W40544  41.910  30.634  11.087
72182W        W40545  21.519   3.710   4.242
72183W        W40546   7.906  37.910  14.469
72184W        W40547  38.070   5.695   3.695
72185W        W40548  13.119  23.531   4.742
72186W        W40549  44.965  12.251   3.289
72187W        W40550  27.075   7.768   1.332
72188W        W40551   3.260  39.046  13.979
72189W        W40552  27.550   3.377   1.827
72190W        W40553   9.799   9.365   3.680
72191W        W40554  38.982  21.148   2.258
72192W        W40555  40.390  37.391  10.635
72193W        W40556  18.060  39.020  11.949
72194W        W40557  34.963  28.929  12.046
72195W        W40558   6.273   3.787   4.274
72196W        W40559  41.414   6.379  11.920
72197W        W40560   8.188  40.451   4.136
72198W        W40561  38.824   6.722  10.896
72199W        W40562  44.442  38.854   4.211
72200W        W40563  26.471  17.713   3.650
72201W        W40564  44.409  42.409  13.825
72202W        W40565  16.735  25.182  10.545
72203W        W40566  10.263  40.407  13.322
72204W        W40567  39.974  32.609   1.443
72205W        W40568  41.993  31.448   3.825
72206W        W40569  25.980  23.069  11.959
72207W        W40570  25.702  31.007  11.992
72208W        W40571  24.503   6.191   4.712
72209W        W40572  11.679   2.834  12.502
72210W        W40573  14.198   5.803   0.956
72211W        W40574   0.365  12.126   2.846
72212W        W40575  12.227  26.697  11.548
72213W        W40576   5.803  31.531   1.756
72214W        W40577  19.691  11.646  11.606
72215W        W40578  25.008  16.636  11.866
72216W        W40579  31.569  25.136  11.407
72217W        W40580  37.567  34.929   2.383
72218W        W40581  40.025   5.844   1.884
72219W        W40582  42.389   7.754  10.628
72220W        W40583  15.175  18.201   2.788
72221W        W40584  42.900  21.186   0.741
72222W        W40585  12.616  25.704  13.493
72223W        W40586  36.852  26.994  10.621
72224W        W40587  37.866  33.513   4.159
72225W        W40588  35.955  16.297  14.952
72226W        W40589  17.605  11.693  11.513
72227W        W40590  28.992  11.691  12.906
72228W        W40591  38.371  28.440  12.509
72229W        W40592   1.336   6.231  11.439
72230W        W40593  32.911  14.265   0.742
72231W        W40594  42.970  16.774  14.413
72232W        W40595  38.820  35.067   3.201
72233W        W40596   1.794   6.220  10.471
72234W        W40597  18.721   5.915  11.111
72235W        W40598  21.675  17.164  11.467
72236W        W40599   4.839  13.118   1.811
72237W        W40600   7.355  44.830  11.875
72238W        W40601  33.583  36.905   0.843
72239W        W40602  27.472  16.308   0.947
72240W        W40603  18.714  10.750  13.476
72241W        W40604  29.019  17.254   4.601
72242W        W40605   3.779  14.771  14.919
72243W        W40606  28.570  21.668   2.902
72244W        W40607  15.698  29.428   0.343
72245W        W40608  12.317  44.333  12.006
72246W        W40609  11.148  19.112   4.740
72247W        W40610  23.228   2.940  14.010
72248W        W40611   1.773  35.956  10.903
72249W        W40612  14.131  42.877  10.480
72250W        W40613  29.446  28.562   4.671
72251W        W40614  11.857  40.506   3.376
72252W        W40615  21.535  13.147  14.296
72253W        W40616  18.714  35.049   1.278
72254W        W40617  25.019  19.241  12.833
72255W        W40618  21.208  32.968   1.214
72256W        W40619  37.484  11.809  11.028
72257W        W40620  20.032  21.738   2.885
72258W        W40621  18.619  10.648  13.925
72259W        W40622  38.021  16.590   0.476
72260W        W40623  12.189  28.167  13.826
72261W        W40624   2.249  10.714  11.457
72262W        W40625  21.123  24.505  13.975
72263W        W40626   2.839  11.690   2.839
72264W        W40627  22.631   5.358  10.577
72265W        W40628   8.397  19.599   2.319
72266W        W40629  11.828  30.639   5.180
72267W        W40630  29.592  44.771   1.924
72268W        W40631  13.781   5.381  11.958
72269W        W40632  17.583   6.765   0.881
72270W        W40633  27.190  44.944   3.866
72271W        W40634  19.278  43.433   1.315
72272W        W40635  21.211   2.332  12.974
72273W        W40636  37.000  33.410   3.808
72274W        W40637  12.664   3.829  11.956
72275W        W40638  22.224  36.923  10.520
72276W        W40639  10.787  11.759  10.618
72277W        W40640   3.953  31.512   4.654
72278W        W40641  38.439   9.774   0.879
72279W        W40642  42.463  19.068  10.424
72280W        W40643   5.419  29.645   4.188
72281W        W40644  22.019  17.088  12.546
72282W        W40645  25.168  35.590  12.549
72283W        W40646  27.176  41.411  13.820
72284W        W40647   8.389  22.555   0.944
72285W        W40648  38.507   2.802  11.533
72286W        W40649  21.172  30.543  14.925
72287W        W40650  22.220  23.621  10.639
72288W        W40651   7.884  31.934  11.982
72289W        W40652  26.492  20.265   1.844
72290W        W40653   7.741  34.023  13.486
72291W        W40654  22.244  27.169  13.862
72292W        W40655  34.016  43.984  12.893
72293W        W40656  14.725   9.241  10.917
72294W        W40657  22.086   2.797   1.252
72295W        W40658   8.751  34.871   2.287
72296W        W40659  39.358  10.829   4.798
72297W        W40660   6.906  38.987   0.873
72298W        W40661  42.376  14.316  14.936
72299W        W40662  11.830  44.408  11.606
72300W        W40663  12.350   6.738  14.410
72301W        W40664  22.643  13.194  10.510
72302W        W40665  23.161   4.840  14.806
72303W        W40666  20.727  25.616  12.422
72304W        W40667   3.864  29.558   0.382
72305W        W40668  41.504  30.574  12.554
72306W        W40669  32.493  34.521  13.887
72307W        W40670   4.364  31.032  13.911
72308W        W40671   4.875  24.639  14.460
72309W        W40672  12.209  14.724   2.846
72310W        W40673  42.983  30.630  13.955
72311W        W40674  41.332  35.447  10.513
72312W        W40675  29.922  42.025  11.867
72313W        W40676  27.656  39.546   4.832
72314W        W40677   7.329   4.919   4.653
72315W        W40678  11.682  42.290   4.267
72316W        W40679  41.489   1.377  11.063
72317W        W40680  33.076  14.277  12.012
72318W        W40681  19.742  15.734   3.249
72319W        W40682  35.874  19.640   0.254
72320W        W40683  31.600   6.850  12.450
72321W        W40684   5.280  40.954  10.621
72322W        W40685  14.707   4.884  12.376
72323W        W40686  18.062   2.399  11.114
72324W        W40687  11.153   3.738   4.734
72325W        W40688  22.521   0.277  13.001
72326W        W40689  39.879  29.099  14.338
72327W        W40690  34.600  30.572   2.325
72328W        W40691  44.977  39.920  14.502
72329W        W40692  28.973  16.280   3.760
72330W        W40693  43.492  14.709  13.043
72331W        W40694   9.315  40.991  14.864
72332W        W40695  39.457  27.503  11.110
72333W        W40696  39.315   1.733  12.339
72334W        W40697   4.401   0.922  12.422
72335W        W40698  18.124  21.071   1.759
72336W        W40699   1.247   3.922   1.778
72337W        W40700  37.039  25.068  10.598
72338W        W40701  41.529   9.245  12.008
72339W        W40702  16.091  33.514  10.110
72340W        W40703  10.174  19.546  14.979
72341W        W40704   3.229   8.738  13.480
72342W        W40705   2.862   0.390  11.018
72343W        W40706  13.797  15.184  10.991
72344W        W40707  28.090  29.009  12.521
72345W        W40708  16.737  18.167  10.566
72346W        W40709  12.288  25.167   4.797
72347W        W40710  32.125  23.702   1.855
72348W        W40711   5.800  35.044  11.511
72349W        W40712  19.184  21.136   3.849
72350W        W40713  12.360  41.344   3.765
72351W        W40714  23.152  34.543  14.940
72352W        W40715   2.422  13.790  14.007
72353W        W40716  17.627  38.366   0.739
72354W        W40717  44.777   4.315   1.378
72355W        W40718  39.425   3.920   2.788
72356W        W40719  24.102  15.634   5.170
72357W        W40720  42.907  43.416   3.672
72358W        W40721  43.365  21.207   3.738
72359W        W40722   4.729  39.343   1.279
72360W        W40723  29.035  35.102   3.258
72361W        W40724  37.581  26.124  11.481
72362W        W40725  38.365   5.814  12.091
72363W        W40726  44.785  43.945   4.833
72364W        W40727  16.675  18.181   4.772
72365W        W40728  37.503   6.206   5.123
72366W        W40729  33.877  38.960   0.967
72367W        W40730  32.078  11.637   3.367
72368W        W40731  22.074  17.257  11.600
72369W        W40732   6.911  24.672   1.334
72370W        W40733   3.295  35.867  14.338
72371W        W40734  24.564   3.914   2.370
72372W        W40735   6.702   8.378   1.411
72373W        W40736  20.696   0.840  13.885
72374W        W40737  10.782  27.090   1.905
72375W        W40738   8.842  25.628  13.044
72376W        W40739  39.831  37.465  11.481
72377W        W40740   0.829  37.973   1.400
72378W        W40741  25.039  10.375   3.371
72379W        W40742  39.486  38.054  11.595
72380W        W40743  43.362   2.346  13.354
72381W        W40744  14.240  12.796  13.053
72382W        W40745  14.668   1.825  10.487
72383W        W40746  39.869   3.717   3.220
72384W        W40747   1.964  14.228  10.915
72385W        W40748   1.909  13.142   0.968
72386W        W40749   8.233  41.798   0.314
72387W        W40750  39.022   3.342  13.862
72388W        W40751  10.355  29.167   1.432
72389W        W40752  31.616  18.739  12.030
72390W        W40753  39.997   8.198   0.865
72391W        W40754  30.945  43.393   1.352
72392W        W40755  36.906  24.109   0.389
72393W        W40756  42.907  36.404  14.007
72394W        W40757   0.462  40.014  11.560
72395W        W40758   3.456  32.440   4.229
72396W        W40759  13.766   6.298  12.348
72397W        W40760  39.556  36.381  14.901
72398W        W40761  40.474  34.550   1.280
72399W        W40762  23.051  36.849  11.071
72400W        W40763  22.116  35.084   3.315
72401W        W40764  20.706  29.049   0.950
72402W        W40765  17.599  17.239   3.215
72403W        W40766   1.373  27.049   3.266
72404W        W40767  14.764  24.090   3.321
72405W        W40768  13.341  34.517   4.207
72406W        W40769  31.927  35.467   0.382
72407W        W40770  19.168  38.350  14.416
72408W        W40771  15.224  43.433  14.500
72409W        W40772  14.287  11.266  13.064
72410W        W40773   8.224   4.790  10.979
72411W        W40774  28.514  23.135   4.705
72412W        W40775  41.915  35.880  11.063
72413W        W40776  18.637  39.409  14.429
72414W        W40777  10.651  17.119  12.976
72415W        W40778  27.185  32.001   1.256
72416W        W40779   8.723   2.341  12.923
72417W        W40780  23.238  20.159   1.925
72418W        W40781  35.409   5.722   0.863
72419W        W40782  32.550  22.539   4.149
72420W        W40783  11.713  11.368  13.309
72421W        W40784  19.125  30.128  12.918
72422W        W40785  30.085  29.099  14.857
72423W        W40786  42.939  39.501  13.464
72424W        W40787  41.536  24.486  12.015
72425W        W40788  37.032  14.129   2.298
72426W        W40789  11.705   3.270  12.462
72427W        W40790  38.995  39.018   3.864
72428W        W40791  41.429  43.427   4.622
72429W        W40792  24.514   8.283  12.374
72430W        W40793  31.457  42.417   0.446
72431W        W40794   9.667   5.266   0.347
72432W        W40795  15.250  38.010   3.794
72433W        W40796  15.775  13.201   3.215
72434W        W40797  13.769  39.951   4.268
72435W        W40798  34.057  18.105   2.842
72436W        W40799   9.350  20.687  10.956
72437W        W40800  36.583  31.122   2.349
72438W        W40801  23.533   0.345  11.037
72439W        W40802  37.859   7.411   4.250
72440W        W40803  21.530  18.555  13.997
72441W        W40804  36.461   7.284  10.428
72442W        W40805   7.870  35.597   2.278
72443W        W40806  39.330  16.135   1.295
72444W        W40807  20.564  29.520  12.911
72445W        W40808  42.438   8.264  14.503
72446W        W40809  39.928  17.078  14.014
72447W        W40810   6.718   6.758   1.718
72448W        W40811   7.831  39.419  13.929
72449W        W40812  30.490  41.339   2.290
72450W        W40813   6.791   7.380  12.392
72451W        W40814  41.812  23.527  13.478
72452W        W40815  11.206  24.148   3.765
72453W        W40816   8.396  37.890   1.773
72454W        W40817   9.865  42.370   2.899
72455W        W40818   0.882  31.994  12.504
72456W        W40819  33.079  15.711  14.470
72457W        W40820  36.007  16.799  14.424
72458W        W40821   9.262  11.295  10.474
72459W        W40822  38.852  11.659   0.929
72460W        W40823  39.370  36.947  14.900
72461W        W40824  27.053  21.607   2.714
72462W        W40825  14.786   5.302   0.781
72463W        W40826  22.074  16.208  10.572
72464W        W40827  21.548  39.840  11.856
72465W        W40828  36.452  32.430  12.929
72466W        W40829   5.333  20.141   4.311
72467W        W40830   2.418  14.302   4.344
72468W        W40831  28.515  25.213   2.354
72469W        W40832   6.814  37.925   4.227
72470W        W40833   7.735  19.101  13.953
72471W        W40834  11.857   1.955   3.727
72472W        W40835  26.640  12.324   4.134
72473W        W40836  42.961  43.433   4.631
72474W        W40837  25.660  33.531   1.287
72475W        W40838  12.240  40.402  12.551
72476W        W40839  34.980  25.105  12.930
72477W        W40840  31.506   0.850   0.757
72478W        W40841  12.786  19.551   3.830
72479W        W40842  35.979  10.357  12.076
72480W        W40843   6.838  14.827   4.625
72481W        W40844  36.583  12.779  14.380
72482W        W40845  41.025  27.488  13.965
72483W        W40846  43.485  30.584   3.850
72484W        W40847  33.903  20.133  14.499
72485W        W40848  28.021  40.006  12.350
72486W        W40849   4.827  15.169   2.249
72487W        W40850   1.753   1.275   0.949
72488W        W40851  13.639  22.141   0.388
72489W        W40852  35.086  40.883   1.839
72490W        W40853  28.023  20.166  11.594
72491W        W40854  27.598   4.832  11.985
72492W        W40855  44.992  36.855   1.746
72493W        W40856  43.911  21.245   2.391
72494W        W40857  41.404  35.023  11.397
72495W        W40858  24.514   6.744   3.774
72496W        W40859  44.878  17.273   0.390
72497W        W40860  15.156  41.958   0.344
72498W        W40861  32.504   9.313   2.391
72499W        W40862  35.038   3.264  13.472
72500W        W40863  20.739  37.038   0.742
72501W        W40864  31.996   8.316   3.187
72502W        W40865  44.875  37.558  12.963
72503W        W40866  34.524  19.236  10.973
72504W        W40867  44.501  21.738  14.411
72505W        W40868  23.177  17.651   3.241
72506W        W40869  20.619  10.308  13.366
72507W        W40870  42.442  41.885  14.930
72508W        W40871  30.508  40.936   4.597
72509W        W40872  14.316  17.263   2.816
72510W        W40873   8.271  37.945  14.381
72511W        W40874  18.160  34.079   3.705
72512W        W40875  21.549  19.596   1.395
72513W        W40876   9.820  17.074  13.431
72514W        W40877  23.733  11.724   2.268
72515W        W40878  40.829  33.968   4.755
72516W        W40879   8.169  31.068  10.636
72517W        W40880  35.003  41.978  10.628
72518W        W40881   7.355  44.445   3.665
72519W        W40882   4.833  34.375   3.722
72520W        W40883  17.629  36.919  13.807
72521W        W40884  42.008  36.090  11.510
72522W        W40885  15.223   7.760  14.762
72523W        W40886  10.321   0.744   3.196
72524W        W40887  39.878  43.495   0.276
72525W        W40888  19.696  34.501   3.231
72526W        W40889  33.056  18.754   4.272
72527W        W40890  38.379  11.819   1.450
72528W        W40891   6.779  21.518   2.283
72529W        W40892  18.219  34.371  12.934
72530W        W40893  21.670  12.851   0.744
72531W        W40894  12.792  11.159   3.705
72532W        W40895  33.996  14.595   1.935
72533W        W40896   1.777  27.632  11.511
72534W        W40897  14.192  42.783   0.846
72535W        W40898  37.013  26.060   2.722
72536W        W40899  41.404  12.188   0.397
72537W        W40900   2.228  34.866   1.841
72538W        W40901  24.193  34.442  13.019
72539W        W40902  34.415  34.582  14.387
72540W        W40903  27.461  43.928  11.946
72541W        W40904  25.686  42.289  10.935
72542W        W40905  29.956   8.378   2.189
72543W        W40906  14.338  36.493   1.708
72544W        W40907   5.842  15.116   0.382
72545W        W40908  20.767  20.093   2.886
72546W        W40909  22.039   8.654  13.867
72547W        W40910  37.941  22.070  11.898
72548W        W40911  21.561  37.534   4.791
72549W        W40912  27.138   9.766   1.279
72550W        W40913  36.924  10.163  13.798
72551W        W40914  31.494  31.603   4.786
72552W        W40915  28.661   3.878  13.985
72553W        W40916  31.492  44.404   5.595
72554W        W40917  19.759   0.475   3.807
72555W        W40918  21.206  32.409  11.581
72556W        W40919  35.441  38.962  13.428
72557W        W40920  39.031  20.175  11.413
72558W        W40921  42.475  42.976  12.401
72559W        W40922  33.553  26.518  13.498
72560W        W40923  43.765   3.312  14.937
72561W        W40924   0.744  19.588   0.305
72562W        W40925  19.175  41.913  13.057
72563W        W40926   8.175  29.481  11.482
72564W        W40927  43.962  31.523  11.574
72565W        W40928  18.610  24.607   4.133
72566W        W40929  41.350  31.621   0.959
72567W        W40930  44.982  27.554  13.495
72568W        W40931  27.010  43.435  11.880
72569W        W40932  40.859  14.621  14.468
72570W        W40933  34.464  38.073  11.030
72571W        W40934   3.263  34.106   1.908
72572W        W40935  11.351  19.045   0.920
72573W        W40936   7.879  32.405   1.746
72574W        W40937  15.245  34.054   3.379
72575W        W40938   6.200  26.015  12.041
72576W        W40939  23.676  21.057   2.333
72577W        W40940  13.732  23.639  14.299
72578W        W40941  16.572  44.331   2.882
72579W        W40942  32.489  19.180  11.436
72580W        W40943  30.022  22.117   0.783
72581W        W40944  24.538   7.831  11.438
72582W        W40945  34.021  33.091   0.854
72583W        W40946  33.040  44.968   4.729
72584W        W40947  37.851  43.440  12.017
72585W        W40948  18.245  35.959  11.904
72586W        W40949  22.717  20.602   0.752
72587W        W40950  39.470  24.018  12.549
72588W        W40951  16.167  26.198   4.337
72589W        W40952  17.262   3.914   4.168
72590W        W40953  13.651  32.043   5.159
72591W        W40954  36.385  44.949  10.433
72592W        W40955   2.859   5.282   1.269
72593W        W40956  20.727  14.180  14.845
72594W        W40957   6.265  21.179  13.320
72595W        W40958   8.284  18.215  13.961
72596W        W40959  26.580  39.424  14.279
72597W        W40960  34.897  15.262   2.412
72598W        W40961  42.990  31.911  13.535
72599W        W40962   9.753  15.192   2.278
72600W        W40963  14.212  19.615   1.870
72601W        W40964  43.458  27.571   3.167
72602W        W40965  32.412  20.063  13.420
72603W        W40966  40.991   6.320  14.953
72604W        W40967   1.954  41.294  12.963
72605W        W40968  18.100  39.876   1.400
72606W        W40969  33.388  40.802   1.410
72607W        W40970   5.929  34.869   2.264
72608W        W40971   3.713  43.935   0.770
72609W        W40972  44.005  13.174   4.738
72610W        W40973  42.867   9.851   4.341
72611W        W40974  10.143  12.237  12.996
72612W        W40975  10.641   3.803  11.513
72613W        W40976   1.265  18.274   2.210
72614W        W40977  17.603   9.309   1.276
72615W        W40978  39.560  36.506  10.577
72616W        W40979  36.585   0.841  10.532
72617W        W40980   0.954   0.816   3.842
72618W        W40981  26.050  31.067   4.157
72619W        W40982  26.622   8.833   3.683
72620W        W40983  23.016  17.244   2.350
72621W        W40984  30.983   8.241  14.822
72622W        W40985  38.890  26.557  10.570
72623W        W40986  35.882  18.637  10.928
72624W        W40987  29.140   7.784   1.829
72625W        W40988  13.795  39.037   0.923
72626W        W40989  10.334  39.835  13.868
72627W        W40990  42.515  17.799  12.519
72628W        W40991  30.620  24.028  10.413
72629W        W40992  13.663  23.512   4.698
72630W        W40993  23.116   9.670   4.730
72631W        W40994  18.657  38.889  12.943
72632W        W40995  33.988  32.603   0.436
72633W        W40996  37.936  32.476  11.955
72634W        W40997  31.969  37.374   2.347
72635W        W40998  14.598  43.280   3.703
72636W        W40999  33.915  25.656  11.569
72637W        W41000  13.678  18.148   4.766
72638W        W41001  30.044  13.657  12.083
72639W        W41002  27.615   6.313  10.594
72640W        W41003   8.738  34.003  13.514
72641W        W41004  34.970  29.105   4.228
72642W        W41005  36.347  24.698  13.831
72643W        W41006  20.690  29.003   2.287
72644W        W41007  34.088  35.913   4.174
72645W        W41008  40.465   9.186   2.719
72646W        W41009  33.976  42.002  12.885
72647W        W41010   2.756  17.175  14.345
72648W        W41011  10.307  18.260   2.416
72649W        W41012  30.526  42.516  11.881
72650W        W41013  37.837  38.412   3.829
72651W        W41014  22.149  28.000   3.380
72652W        W41015  22.579  35.543   2.379
72653W        W41016  30.434  34.474   4.193
72654W        W41017   6.211  28.055   5.220
72655W        W41018  44.305  14.147  11.901
72656W        W41019  43.772  11.868   2.205
72657W        W41020   4.774   8.313  10.457
72658W        W41021  28.448  33.901   3.674
72659W        W41022   3.876  41.921   2.706
72660W        W41023  11.672  22.532   4.230
72661W        W41024  20.623  16.311   2.742
72662W        W41025  10.653  26.123  13.792
72663W        W41026  15.722  28.640   4.790
72664W        W41027  11.790  17.289  14.339
72665W        W41028   5.851  38.349  13.540
72666W        W41029  20.691  21.624   3.217
72667W        W41030  18.225   3.930   1.330
72668W        W41031  44.807   9.690   1.926
72669W        W41032  17.103  29.432   3.215
72670W        W41033  31.598  29.535   0.467
72671W        W41034  17.723  24.141  10.906
72672W        W41035   5.351  34.105  12.981
72673W        W41036  18.718  18.214  13.415
72674W        W41037   0.887  16.104  13.932
72675W        W41038   1.881  32.131   3.250
72676W        W41039  34.075  15.294   4.160
72677W        W41040  13.756  12.349  11.128
72678W        W41041  42.306  38.372  12.354
72679W        W41042  35.072  22.708   1.849
72680W        W41043  34.557  30.540  11.053
72681W        W41044  30.927  37.569  10.151
72682W        W41045  15.170   9.664  10.971
72683W        W41046  27.124  10.278   4.168
72684W        W41047  28.511  10.231  12.370
72685W        W41048   3.922  14.098  12.567
72686W        W41049  16.715  26.472  11.097
72687W        W41050  44.476  15.757  12.563
72688W        W41051  29.462  30.147  14.877
72689W        W41052  43.985   3.826   2.261
72690W        W41053  44.776  14.319  11.956
72691W        W41054  10.138  27.119   1.415
72692W        W41055  34.061   5.291   0.837
72693W        W41056  26.127  23.155   1.703
72694W        W41057  19.665   1.743   0.947
72695W        W41058  14.266  38.996  13.869
72696W        W41059  31.068  30.631  11.071
72697W        W41060  13.811   1.965   3.849
72698W        W41061  25.641  36.944  11.942
72699W        W41062  24.557  36.369   2.847
72700W        W41063  44.759  35.446  13.373
72701W        W41064  40.929  28.071   1.853
72702W        W41065  42.462  12.783  13.492
72703W        W41066  15.778  40.972  13.861
72704W        W41067  26.556  17.297  14.308
72705W        W41068  37.868  12.329   4.308
72706W        W41069   9.729   3.234  12.827
72707W        W41070  15.633  23.714   3.271
72708W        W41071  19.150  20.118   2.788
72709W        W41072   6.855   4.397   0.260
72710W        W41073  44.337  16.716   3.834
72711W        W41074  33.441   9.794   4.806
72712W        W41075  11.210  16.219   3.637
72713W        W41076  41.345  23.178  10.562
72714W        W41077  22.725   4.390  10.982
72715W        W41078   4.878  16.243   2.400
72716W        W41079  35.968  17.203  13.856
72717W        W41080  14.588  44.292  10.478
72718W        W41081  40.938   2.395  11.028
72719W        W41082   3.275  30.654  12.839
72720W        W41083  10.736  18.240  13.483
72721W        W41084  43.932  34.537   0.405
72722W        W41085  26.079  10.689  11.516
72723W        W41086   7.408  36.032   3.699
72724W        W41087  29.484  27.973   5.190
72725W        W41088   1.238  26.465   2.307
72726W        W41089  33.930  29.566   0.831
72727W        W41090  25.714  14.613   3.667
72728W        W41091   8.686  24.119   3.857
72729W        W41092  43.937  17.278   3.664
72730W        W41093  10.166  19.591   2.287
72731W        W41094  43.466   8.225   3.208
72732W        W41095   7.676  32.437   1.306
72733W        W41096  23.695  14.254  14.496
72734W        W41097   8.240  31.899   1.744
72735W        W41098  41.818  20.665  11.539
72736W        W41099  35.994  13.147   0.354
72737W        W41100   6.910  25.209   2.689
72738W        W41101  22.735  18.235  13.846
72739W        W41102   8.694  33.559  13.455
72740W        W41103  39.888  13.214  10.550
72741W        W41104  27.127   9.209   2.681
72742W        W41105  34.544   9.272  11.071
72743W        W41106  16.165   6.350  11.506
72744W        W41107  18.711  36.465   0.439
72745W        W41108  25.488  13.708   2.392
72746W        W41109  35.387  33.986   1.897
72747W        W41110   7.741  41.789   0.250
72748W        W41111   4.423  26.550   4.678
72749W        W41112  33.478  21.083   0.463
72750W        W41113   0.775  27.447  11.451
72751W        W41114  39.863  42.314  14.427
72752W        W41115  35.448  16.207  12.573
72753W        W41116  29.084  26.649  11.506
72754W        W41117   5.700  40.542   0.733
72755W        W41118  34.866  17.130   0.920
72756W        W41119  35.586  18.051   3.766
72757W        W41120  35.014   5.322  13.517
72758W        W41121   7.910  26.524  10.627
72759W        W41122  31.607  15.803  13.796
72760W        W41123  40.532   1.303  12.945
72761W        W41124   1.319  16.678   2.788
72762W        W41125  33.892  17.736  12.925
72763W        W41126  24.155   3.304  11.048
72764W        W41127  40.441   1.914   4.614
72765W        W41128   7.753  40.903   1.441
72766W        W41129  23.720  19.542  10.446
72767W        W41130  43.819  37.014  11.379
72768W        W41131  17.606  40.876  12.914
72769W        W41132  13.601   6.863  10.993
72770W        W41133  14.183  26.480  10.581
72771W        W41134  13.194  43.424   1.311
72772W        W41135   2.779  28.542   2.178
72773W        W41136  23.987   5.220  10.506
72774W        W41137  39.900   3.430   4.196
72775W        W41138  13.107  34.900  13.007
72776W        W41139  33.131  33.400   0.911
72777W        W41140  36.430  22.533  11.537
72778W        W41141  11.222  40.004   1.726
72779W        W41142   2.308  29.501   3.223
72780W        W41143  40.499  35.932  10.554
72781W        W41144  22.642  24.601  14.484
72782W        W41145  11.851  26.062  13.357
72783W        W41146  29.956   4.786   1.256
72784W        W41147  19.692  35.526   4.295
72785W        W41148  22.106  20.157   2.902
72786W        W41149  20.233   3.890  14.294
72787W        W41150  36.067  38.027   1.421
72788W        W41151  31.082  28.169   1.777
72789W        W41152   1.892  19.251  14.469
72790W        W41153  14.307  21.514  11.954
72791W        W41154  21.125   6.693  11.906
72792W        W41155  41.876  42.942   4.738
72793W        W41156   7.358   7.201   0.442
72794W        W41157   9.656   4.855   2.380
72795W        W41158   0.359  39.496  11.012
72796W        W41159   7.404   4.386  11.998
72797W        W41160  11.260  37.414   2.833
72798W        W41161  25.512  12.181   3.242
72799W        W41162   9.709  15.779   3.754
72800W        W41163   8.709   0.806   3.242
72801W        W41164   1.888  37.858  10.408
72802W        W41165  23.112   6.397   2.302
72803W        W41166   7.181  37.442  11.405
72804W        W41167  25.983  28.969  14.422
72805W        W41168   5.238  21.130  14.963
72806W        W41169  25.639  16.264   3.318
72807W        W41170  39.914  22.630   0.921
72808W        W41171  25.706   5.811  13.351
72809W        W41172  11.831   9.724  11.978
72810W        W41173  34.611  35.475  10.942
72811W        W41174  23.008   6.293  13.334
72812W        W41175  11.772  20.102   1.269
72813W        W41176  28.168  13.621  13.962
72814W        W41177  38.031  32.931   4.309
72815W        W41178  20.236  21.723  10.634
72816W        W41179   7.698  39.454  10.604
72817W        W41180  13.239  21.054  13.039
72818W        W41181  39.513  11.827  11.089
72819W        W41182  37.519  44.846  11.398
72820W        W41183   5.241  38.969   3.637
72821W        W41184  43.874  38.387   4.622
72822W        W41185  34.453  17.220   3.793
72823W        W41186  44.954  13.260  12.518
72824W        W41187  23.663  24.197  14.479
72825W        W41188  15.704  10.654  11.890
72826W        W41189   5.735  23.543  12.411
72827W        W41190  12.709  23.561   1.881
72828W        W41191  32.135  32.111   1.348
72829W        W41192  14.117  31.101   3.823
72830W        W41193   0.419  14.296  12.567
72831W        W41194  18.719   2.419   2.298
72832W        W41195  37.923  17.605  10.936
72833W        W41196  16.587   4.424  12.999
72834W        W41197  25.653   0.914   0.905
72835W        W41198   5.931  13.693  11.880
72836W        W41199  16.570  25.969  10.479
72837W        W41200  42.466  22.233  11.116
72838W        W41201  38.560  21.713  14.468
72839W        W41202   3.809  28.634  14.427
72840W        W41203   9.741  17.757   3.746
72841W        W41204  26.181  27.053  13.446
72842W        W41205  22.069  27.485  14.812
72843W        W41206   4.894  21.605  13.032
72844W        W41207  18.137  32.061  13.544
72845W        W41208  21.211  14.146   0.407
72846W        W41209  19.245  37.072   0.377
72847W        W41210  33.528  36.487  12.440
72848W        W41211  44.409  13.177   1.280
72849W        W41212  35.533  21.107  13.374
72850W        W41213  29.427   0.752   1.286
72851W        W41214  33.503  44.000   2.730
72852W        W41215  21.221  16.741   3.229
72853W        W41216  24.684  38.437   3.205
72854W        W41217  42.781  43.940   1.835
72855W        W41218  33.889   2.918   0.360
72856W        W41219  43.947  23.546  12.015
72857W        W41220  22.544  32.482  10.422
72858W        W41221  11.368  19.108  14.420
72859W        W41222  43.512  12.313   1.318
72860W        W41223  21.590  22.106   3.271
72861W        W41224  36.388  20.216   1.716
72862W        W41225  41.301   7.808  11.453
72863W        W41226   6.900  23.171  12.019
72864W        W41227   8.213  39.009  12.407
72865W        W41228  39.429   2.277   1.448
72866W        W41229  43.801  22.709  12.904
72867W        W41230  26.152  25.526   0.372
72868W        W41231  19.770  44.463  10.488
72869W        W41232   3.226  22.057   3.846
72870W        W41233  16.256   9.845  14.440
72871W        W41234  16.183  21.156   2.823
72872W        W41235  29.109  38.908   1.863
72873W        W41236  13.647   3.418  13.023
72874W        W41237  41.439  26.970  13.925
72875W        W41238  28.487  23.037   3.790
72876W        W41239  38.833  25.594   0.341
72877W        W41240  21.047  44.933   1.745
72878W        W41241  26.170  11.259   0.916
72879W        W41242  27.161  30.006  13.358
72880W        W41243  44.860  40.885   0.773
72881W        W41244  20.113   7.350  11.969
72882W        W41245  25.667   7.736   2.897
72883W        W41246   7.251  36.961  11.486
72884W        W41247  30.103  35.993  14.025
72885W        W41248   0.394   0.346   4.264
72886W        W41249   8.378  43.377  10.593
72887W        W41250  40.395   0.910  14.819
72888W        W41251   6.852  43.371  11.870
72889W        W41252  13.641  33.932   4.824
72890W        W41253  44.325  38.044   2.378
72891W        W41254  16.098   2.746  13.522
72892W        W41255  12.664  29.932  10.424
72893W        W41256  27.593  15.710   3.769
72894W        W41257  42.921  12.195   1.926
72895W        W41258  31.513   6.800   2.379
72896W        W41259   0.827   7.288   3.631
72897W        W41260  11.775  13.121   0.874
72898W        W41261   4.325  38.070   4.770
72899W        W41262  41.365  37.859   3.243
72900W        W41263  25.551  32.102   3.342
72901W        W41264   5.296   5.762  14.816
72902W        W41265  14.158  42.838  11.392
72903W        W41266  11.153  18.084  12.461
72904W        W41267  34.388   3.235  12.434
72905W        W41268  10.155  39.392  10.135
72906W        W41269   9.673  41.314   0.744
72907W        W41270  37.416  17.204   0.956
72908W        W41271  31.928  29.634  10.421
72909W        W41272  10.683  23.491   2.839
72910W        W41273  36.867  13.259  11.589
72911W        W41274  20.765  41.000   3.680
72912W        W41275  10.188  38.869   1.913
72913W        W41276   2.934  34.113   1.261
72914W        W41277   3.860  38.338   1.916
72915W        W41278   3.922   9.296   0.298
72916W        W41279  41.439  16.172   1.276
72917W        W41280  25.147  41.910   5.141
72918W        W41281   1.332   6.877   2.406
72919W        W41282  30.441   4.715  12.956
72920W        W41283  28.587   0.928  14.847
72921W        W41284  36.995  10.372  10.904
72922W        W41285  17.616  35.107   4.338
72923W        W41286  16.161   7.848   3.771
72924W        W41287  10.310  42.373  13.342
72925W        W41288   7.910   9.796   3.705
72926W        W41289  26.130  36.982  14.428
72927W        W41290   5.887  24.504   0.480
72928W        W41291  43.309  26.673   5.288
72929W        W41292  13.613   5.835  14.773
72930W        W41293   8.866   6.212   5.159
72931W        W41294  12.240  26.484   2.769
72932W        W41295  12.204   2.833   1.713
72933W        W41296   6.886   6.296  11.445
72934W        W41297  15.121  22.668   1.446
72935W        W41298  18.546   1.965   5.092
72936W        W41299  42.300  30.568  10.438
72937W        W41300  25.634   1.777  12.006
72938W        W41301  41.946   3.371  11.560
72939W        W41302  37.979  21.613   2.324
72940W        W41303   3.413  16.227   2.864
72941W        W41304  43.391  11.748   0.967
72942W        W41305  44.316  12.809  11.610
72943W        W41306  24.643   7.843   0.442
72944W        W41307  43.837  17.606   3.643
72945W        W41308  28.173  36.381  13.332
72946W        W41309  29.482  29.593   0.930
72947W        W41310  31.139  19.194   0.806
72948W        W41311  31.428  36.009  11.089
72949W        W41312  40.545   0.890  14.471
72950W        W41313   3.843  34.949   5.265
72951W        W41314  27.944  35.076   4.141
72952W        W41315  44.780   7.364   0.759
72953W        W41316  25.711  35.943   0.825
72954W        W41317  13.184  16.607   4.727
72955W        W41318  11.290  44.833  14.475
72956W        W41319  20.752  44.914  11.988
72957W        W41320   2.309  31.112  14.811
72958W        W41321  36.040  29.435  13.493
72959W        W41322  37.048  41.346  12.832
72960W        W41323  13.176  33.535   1.764
72961W        W41324   1.357  24.725   3.164
72962W        W41325  33.493  27.977   4.322
72963W        W41326  11.208  41.972   1.230
72964W        W41327  16.231  24.996  10.561
72965W        W41328  32.033  23.611   1.288
72966W        W41329  22.545  19.616  14.997
72967W        W41330  35.108  31.912  13.349
72968W        W41331  30.005  33.882  12.912
72969W        W41332  11.355   5.898  13.545
72970W        W41333  44.827   2.344  11.086
72971W        W41334  41.966   7.887   3.647
72972W        W41335  15.671  30.598  12.511
72973W        W41336  30.908   7.802   4.305
72974W        W41337  41.928  27.088  12.025
72975W        W41338   4.257  42.314   2.233
72976W        W41339   5.920  32.912  10.490
72977W        W41340  31.950  19.587  14.003
72978W        W41341  14.691  10.662   4.329
72979W        W41342  29.433  29.611   5.199
72980W        W41343  25.044  28.660   0.367
72981W        W41344  27.164  25.611   1.804
72982W        W41345  19.723  21.262  14.438
72983W        W41346  16.193  18.706   5.102
72984W        W41347  33.490  18.267  12.988
72985W        W41348  16.270  43.440  11.464
72986W        W41349   9.374  37.440  14.786
72987W        W41350  36.433  26.610   3.296
72988W        W41351  30.620  40.368   5.153
72989W        W41352   8.207   6.693   4.654
72990W        W41353  42.424  16.199  13.002
72991W        W41354  26.544  37.070  10.550
72992W        W41355   7.242  22.575  12.046
72993W        W41356  33.933  43.475   4.615
72994W        W41357   7.775   6.860  14.479
72995W        W41358  25.141  11.135  10.580
72996W        W41359  11.303   6.894   2.398
72997W        W41360  31.569  34.393   3.214
72998W        W41361  18.689  28.549  10.409
72999W        W41362  43.419  37.476   9.931
73000W        W41363  15.130  20.569   1.286
73001W        W41364  24.618   1.978  12.025
73002W        W41365  34.021  13.245   0.467
73003W        W41366  13.814   0.755   0.746
73004W        W41367   4.242  23.717  12.966
73005W        W41368  34.995  34.980   1.429
73006W        W41369  32.603  44.386   1.386
73007W        W41370  26.677  10.191  10.475
73008W        W41371  10.686  30.989  13.379
73009W        W41372  21.194  39.402  10.893
73010W        W41373  40.515  43.398  11.104
73011W        W41374  38.840  32.560   2.237
73012W        W41375  14.104   6.317  13.037
73013W        W41376  27.512   1.806  10.948
73014W        W41377  26.986  26.649  11.123
73015W        W41378  44.922  42.338   3.271
73016W        W41379  22.220  39.532   1.810
73017W        W41380  33.894  26.992   0.866
73018W        W41381   0.886   6.324   1.349
73019W        W41382   6.209  26.182  11.040
73020W        W41383  10.198  36.411   5.208
73021W        W41384  44.323  18.610   1.789
73022W        W41385  36.522  32.060  11.598
73023W        W41386  42.013   6.826  11.051
73024W        W41387  23.121   7.400  12.577
73025W        W41388  30.090  25.127   3.326
73026W        W41389  42.007  40.532   3.320
73027W        W41390  26.049  17.295   1.431
73028W        W41391   7.254  15.226   0.852
73029W        W41392  27.473   4.267   0.787
73030W        W41393  44.788   1.440  10.517
73031W        W41394  22.033   3.734   1.423
73032W        W41395  26.641   2.879  13.522
73033W        W41396   6.263  36.470  13.974
73034W        W41397  34.968  29.616   4.243
73035W        W41398   7.841  28.960  10.044
73036W        W41399   5.247  17.702  11.113
73037W        W41400  11.658  31.099   1.344
73038W        W41401  16.297  40.395   3.210
73039W        W41402  35.000  23.527   2.209
73040W        W41403  36.570   2.366  12.957
73041W        W41404   8.198   9.703  14.479
73042W        W41405  13.652  27.155  14.775
73043W        W41406   3.833  38.536  12.948
73044W        W41407  32.054  42.519   4.742
73045W        W41408   0.981  36.507  14.946
73046W        W41409  41.868  23.151  13.967
73047W        W41410  20.578   2.961  10.947
73048W        W41411   6.394  33.974  12.443
73049W        W41412  17.666   4.730  12.063
73050W        W41413  37.490  41.923  11.377
73051W        W41414  17.659  34.554  13.800
73052W        W41415   4.746   3.775  14.943
73053W        W41416  38.422  24.007  13.969
73054W        W41417  25.511  38.026  11.576
73055W        W41418  37.878  22.127   2.342
73056W        W41419  38.465   2.322  11.906
73057W        W41420  13.238  42.963  10.490
73058W        W41421  17.765   9.752   2.350
73059W        W41422  10.207  40.976  12.982
73060W        W41423  22.220  42.380   0.366
73061W        W41424  18.233  20.053  12.448
73062W        W41425  11.250  38.550   4.738
73063W        W41426  15.657  17.284  13.910
73064W        W41427   5.860  44.932  11.928
73065W        W41428  11.190  32.107   3.306
73066W        W41429  33.048  11.849  13.396
73067W        W41430  15.759  41.399  10.959
73068W        W41431  33.586  17.085  12.835
73069W        W41432  28.963  13.144  12.074
73070W        W41433  28.489  27.602   4.672
73071W        W41434  42.482  13.666   4.212
73072W        W41435  35.069  32.627   4.612
73073W        W41436   1.375  23.238   4.821
73074W        W41437  19.167  36.884   3.659
73075W        W41438   5.745  43.006  10.465
73076W        W41439  42.433  30.080  10.954
73077W        W41440   4.286  13.713  11.912
73078W        W41441  41.515  36.429   5.182
73079W        W41442  25.630  39.327   4.223
73080W        W41443  20.266  42.444   3.201
73081W        W41444  39.054  26.067  11.970
73082W        W41445   7.710  41.516  13.792
73083W        W41446  19.080  23.641  12.920
73084W        W41447  23.715   7.222   3.820
73085W        W41448  43.862  36.566   3.661
73086W        W41449  25.583  26.143   3.699
73087W        W41450  12.360  36.402   3.204
73088W        W41451   1.477  39.456   3.648
73089W        W41452  19.089  11.251  13.457
73090W        W41453  43.940  28.580  12.841
73091W        W41454   5.694  25.165  11.915
73092W        W41455  37.574  35.860  10.642
73093W        W41456  12.681  11.309  11.579
73094W        W41457   1.849  19.122   0.858
73095W        W41458  14.167  15.785   5.314
73096W        W41459  20.734  20.579   2.342
73097W        W41460  11.189  20.271  14.970
73098W        W41461   3.316  19.744  11.399
73099W        W41462  21.249  14.305   3.784
73100W        W41463  13.797  23.177   0.815
73101W        W41464   3.836  25.587  13.428
73102W        W41465  34.484  20.036   0.790
73103W        W41466  21.616   6.267  14.944
73104W        W41467  15.265  15.184  10.074
73105W        W41468   8.322   6.389   1.440
73106W        W41469  29.514  10.692  11.494
73107W        W41470  36.346   2.367  11.608
73108W        W41471  28.049  29.007  10.560
73109W        W41472  24.179  42.429  12.523
73110W        W41473  44.846   6.683   1.299
73111W        W41474   3.227   4.284   3.848
73112W        W41475   2.767   1.335  13.944
73113W        W41476  19.662  18.089  14.997
73114W        W41477  28.520  37.874   0.451
73115W        W41478  15.204  24.224  10.637
73116W        W41479  27.949  10.214   4.201
73117W        W41480   3.259  17.775   4.179
73118W        W41481  14.238  44.320  14.462
73119W        W41482  19.126  19.255  11.599
73120W        W41483   1.422   0.469   1.217
73121W        W41484  34.959   2.386  13.478
73122W        W41485  13.138   8.712   4.225
73123W        W41486  42.391   7.224   0.404
73124W        W41487   9.841  14.793  12.974
73125W        W41488   5.830   9.677  12.052
73126W        W41489  34.044  28.021   0.316
73127W        W41490  19.222  43.962   2.802
73128W        W41491  29.461   0.827   4.802
73129W        W41492  37.966   1.274  12.859
73130W        W41493  14.167   7.284   3.198
73131W        W41494   3.791   3.438   4.322
73132W        W41495  24.714   9.205   1.288
73133W        W41496   6.278  34.933   5.121
73134W        W41497  20.666  32.030   0.331
73135W        W41498  41.443  22.619   4.664
73136W        W41499  39.814  27.568   1.359
73137W        W41500  29.663  12.339   2.825
73138W        W41501  18.271  38.917  14.467
73139W        W41502  33.880  22.112   2.359
73140W        W41503  18.160  21.233  11.587
73141W        W41504  15.086  16.748  12.876
73142W        W41505  38.993  31.063  12.016
73143W        W41506  36.377  34.904   2.815
73144W        W41507  38.549  15.303   3.334
73145W        W41508  43.297  40.322  14.477
73146W        W41509   5.901  28.143  11.982
73147W        W41510  30.530  38.863   2.306
73148W        W41511  22.091  26.997  12.936
73149W        W41512  37.396  24.058  14.798
73150W        W41513  11.714  17.293  13.540
73151W        W41514  25.073  13.746   1.310
73152W        W41515  42.884   5.310  12.840
73153W        W41516  34.481  17.627   3.692
73154W        W41517  33.122   9.688   4.281
73155W        W41518  22.122  22.126   0.475
73156W        W41519  15.579   4.860   0.765
73157W        W41520  44.280  31.590   0.443
73158W        W41521  15.329   9.162  11.394
73159W        W41522  12.126   6.696   3.824
73160W        W41523  11.662  43.972  10.548
73161W        W41524   2.860   8.725  14.837
73162W        W41525   6.370  13.327   0.744
73163W        W41526  22.213  42.021  13.990
73164W        W41527  10.255  42.891   5.215
73165W        W41528  34.071  23.591   2.238
73166W        W41529  26.999  42.919   1.259
73167W        W41530  10.784  26.143   4.652
73168W        W41531  13.777  36.037   3.299
73169W        W41532  14.189  13.775   2.397
73170W        W41533  18.252   0.860   1.283
73171W        W41534  35.543  14.094  11.488
73172W        W41535  41.538  27.063  11.389
73173W        W41536  39.334  25.613   1.722
73174W        W41537  24.099  30.522  10.054
73175W        W41538  42.389  19.159   1.449
73176W        W41539  37.868  41.326  11.899
73177W        W41540  38.907  26.111   3.355
73178W        W41541  11.763  26.988  11.042
73179W        W41542   7.868  15.087  10.960
73180W        W41543  24.195  35.589  11.953
73181W        W41544  25.610   5.364   3.173
73182W        W41545   0.265  32.946   2.402
73183W        W41546   8.759   7.686   1.276
73184W        W41547  38.395  27.602  13.317
73185W        W41548  18.118  44.318   2.258
73186W        W41549  15.290  29.650   4.805
73187W        W41550  20.629  28.575  14.450
73188W        W41551  35.032  15.306  11.595
73189W        W41552  35.883  20.173   2.364
73190W        W41553   1.361   0.486  13.544
73191W        W41554  33.541  27.636  12.033
73192W        W41555  39.494  25.985  12.938
73193W        W41556   7.248   6.872   2.290
73194W        W41557  34.927  10.807   1.356
73195W        W41558  13.210  14.827  12.399
73196W        W41559   0.299  32.409  11.870
73197W        W41560  36.486  11.723  12.424
73198W        W41561   5.754  41.364  11.541
73199W        W41562  32.026   1.974   5.191
73200W        W41563  44.322  43.764  13.945
73201W        W41564  25.182  26.676   3.678
73202W        W41565  42.440  22.083  14.829
73203W        W41566  37.369  35.433  14.971
73204W        W41567  26.538  41.870   5.118
73205W        W41568  24.155  34.376   0.761
73206W        W41569   5.687  31.075   3.686
73207W        W41570  42.951  15.292  12.916
73208W        W41571  29.102  29.523   0.475
73209W        W41572  31.456  23.224   4.293
73210W        W41573  36.511   8.789   1.266
73211W        W41574  38.398   5.904  11.454
73212W        W41575  28.977  32.538   3.790
73213W        W41576  44.931  20.752   4.632
73214W        W41577  11.225  43.434   1.311
73215W        W41578   4.248  29.589  10.418
73216W        W41579  38.415  15.213  11.572
73217W        W41580   5.873   0.270  11.090
73218W        W41581  21.699  11.635   3.696
73219W        W41582  26.642  29.068   3.633
73220W        W41583  16.606  30.071  12.468
73221W        W41584  22.587  34.951  10.051
73222W        W41585  42.282  40.000   2.710
73223W        W41586   5.250  27.448   0.769
73224W        W41587  34.919  23.187   0.770
73225W        W41588  12.825  17.664   4.293
73226W        W41589  19.108  19.076   4.757
73227W        W41590   9.285  22.109  12.512
73228W        W41591  14.723  18.216  10.521
73229W        W41592  14.751  17.291   2.382
73230W        W41593  35.507  10.643   2.314
73231W        W41594  12.218  13.312  14.962
73232W        W41595  33.115  11.801   3.717
73233W        W41596   3.731  30.977   0.964
73234W        W41597  15.153  24.517   2.368
73235W        W41598  22.642  29.147   4.171
73236W        W41599   6.265  14.736  12.391
73237W        W41600   5.384  33.895   4.630
73238W        W41601  41.484  16.636  10.915
73239W        W41602  25.662  15.660   2.750
73240W        W41603  15.750   8.877   0.908
73241W        W41604  24.701  43.959   2.322
73242W        W41605  16.118  18.689   5.770
73243W        W41606  27.591   8.313  11.524
73244W        W41607  33.112  43.764  12.365
73245W        W41608   5.429  26.097   4.825
73246W        W41609  16.169  19.105   4.236
73247W        W41610  14.724   0.431   0.918
73248W        W41611   4.746  42.520  13.805
73249W        W41612   4.321  40.870  12.446
73250W        W41613  16.770   7.292   0.328
73251W        W41614  14.632   2.887   5.577
73252W        W41615  16.626  28.466   4.346
73253W        W41616  14.684  25.703  12.825
73254W        W41617  44.755   4.789   1.425
73255W        W41618  17.304  11.273   3.175
73256W        W41619  40.904  24.725  11.383
73257W        W41620  10.728  39.044   2.293
73258W        W41621  26.085  16.772   1.737
73259W        W41622  25.016  29.653  11.998
73260W        W41623  30.109  30.436   1.345
73261W        W41624  10.867  15.779   0.298
73262W        W41625  36.592   8.183   4.657
73263W        W41626  25.530   7.815   3.770
73264W        W41627  20.204  10.318   3.318
73265W        W41628   9.231  30.012   2.355
73266W        W41629  24.070  26.000   1.339
73267W        W41630   6.819  10.330  12.078
73268W        W41631  31.043   9.320  12.830
73269W        W41632  13.626  39.015  11.577
73270W        W41633  29.071  44.895  14.847
73271W        W41634  21.122  36.533  14.281
73272W        W41635  29.633  18.618  10.531
73273W        W41636  30.569   2.780   4.782
73274W        W41637  15.641  16.075  11.910
73275W        W41638  36.010   6.304  13.526
73276W        W41639  37.441  41.537  11.116
73277W        W41640  13.678  11.140  11.592
73278W        W41641  30.590  43.422   4.729
73279W        W41642  37.415  11.771   4.835
73280W        W41643  31.008  35.468   1.232
73281W        W41644  21.631  43.820  11.517
73282W        W41645  21.259   6.805   1.448
73283W        W41646  37.355  36.387  13.817
73284W        W41647  23.096  32.567  11.024
73285W        W41648   2.934  36.902  11.988
73286W        W41649  24.514   0.407  11.454
73287W        W41650  12.171  42.787   3.678
73288W        W41651   3.733  39.457  11.600
73289W        W41652  21.069  22.091   3.792
73290W        W41653  23.680  27.486   2.367
73291W        W41654   6.867  13.120   0.345
73292W        W41655  35.522   6.200  11.085
73293W        W41656  44.779   7.295  10.424
73294W        W41657  43.839  37.528   0.749
73295W        W41658   6.357  19.693  13.507
73296W        W41659  21.602  42.380   4.612
73297W        W41660  30.508  42.298   2.263
73298W        W41661  33.417  19.164  10.581
73299W        W41662   0.880  35.991  11.008
73300W        W41663  14.597  25.157  11.024
73301W        W41664   8.300  12.817   4.713
73302W        W41665  18.129   3.318   2.673
73303W        W41666  37.854  37.947   2.297
73304W        W41667   6.918  16.769   1.773
73305W        W41668  17.558   3.313   1.927
73306W        W41669  32.998  44.434   2.200
73307W        W41670  24.649  26.471   9.967
73308W        W41671  32.980  22.633  11.523
73309W        W41672  29.472  27.611  14.442
73310W        W41673   1.274  37.527   0.302
73311W        W41674  27.135  22.112  12.408
73312W        W41675  25.483  26.175  11.109
73313W        W41676  39.517  11.660  11.577
73314W        W41677  23.691  30.570  13.456
73315W        W41678  42.023  13.257   3.746
73316W        W41679  13.198   6.217  10.997
73317W        W41680  40.496  25.496   1.710
73318W        W41681  22.506   3.854  11.884
73319W        W41682  32.006  44.936   3.277
73320W        W41683   3.250  15.163  11.451
73321W        W41684  12.143  41.915  11.987
73322W        W41685  14.635  27.958   2.863
73323W        W41686  23.520  29.020  12.571
73324W        W41687  11.760   3.793  12.880
73325W        W41688  27.570   9.291   4.146
73326W        W41689  11.864   2.336  12.886
73327W        W41690  41.536  13.335  11.870
73328W        W41691   8.701  11.625  14.844
73329W        W41692   6.310  24.664  14.304
73330W        W41693  11.706   5.407  11.917
73331W        W41694  15.769  21.063   1.699
73332W        W41695  36.491  19.213   3.311
73333W        W41696  18.698  17.065  13.456
73334W        W41697  42.960   4.895   4.773
73335W        W41698  35.102  38.409   2.262
73336W        W41699   9.789   1.363   3.350
73337W        W41700  24.538   3.417  11.911
73338W        W41701  43.766   1.393   1.302
73339W        W41702  30.043  28.141  12.987
73340W        W41703   2.834  41.876   1.735
73341W        W41704  11.626  14.222   3.268
73342W        W41705  34.083  13.768  10.464
73343W        W41706  16.755  24.095   4.133
73344W        W41707  27.466  44.978  11.558
73345W        W41708   1.871  41.896   0.851
73346W        W41709  39.551   9.245   0.433
73347W        W41710  11.863  14.638   1.278
73348W        W41711  26.668  28.629  11.118
73349W        W41712  35.961  39.005  13.455
73350W        W41713  19.678  39.059   1.235
73351W        W41714  17.136  34.480  12.399
73352W        W41715  31.094  24.698   4.693
73353W        W41716   1.302  25.077  13.505
73354W        W41717   5.823  41.997   3.243
73355W        W41718  30.461  28.160  14.476
73356W        W41719  42.491  32.551  11.978
73357W        W41720  36.957  40.525   1.918
73358W        W41721   3.350  44.396   0.269
73359W        W41722  12.611  15.147  13.020
73360W        W41723   2.384  37.982   2.377
73361W        W41724  21.082   1.808  12.464
73362W        W41725  18.622  39.930  13.476
73363W        W41726  25.661  12.815  14.274
73364W        W41727  12.193  26.959  11.569
73365W        W41728   3.275  31.959  10.549
73366W        W41729  41.950  18.555  13.416
73367W        W41730  30.429   2.341  12.975
73368W        W41731  26.129  11.130   3.189
73369W        W41732  36.439  13.774  12.935
73370W        W41733  39.516  39.822  11.592
73371W        W41734  39.415  25.034   2.683
73372W        W41735  12.701   7.275  13.050
73373W        W41736  19.109  35.882   3.302
73374W        W41737  27.670  14.317   3.800
73375W        W41738  36.084  27.006   4.622
73376W        W41739  44.260   5.855   2.714
73377W        W41740  26.009  35.509  12.882
73378W        W41741  44.990  25.700   0.816
73379W        W41742  12.164  26.519   1.286
73380W        W41743   8.718  30.109  12.998
73381W        W41744  10.267   3.710   1.776
73382W        W41745  31.979  16.674   0.282
73383W        W41746  19.044  22.519  12.561
73384W        W41747  26.608  38.482   4.215
73385W        W41748  31.004  29.130  13.320
73386W        W41749  14.593  38.453  14.383
73387W        W41750  38.021  41.958   1.932
73388W        W41751  22.239  29.930  14.375
73389W        W41752  30.141   6.294   2.738
73390W        W41753   2.322  16.279  13.013
73391W        W41754  30.621   0.890  10.441
73392W        W41755  16.579  29.104  13.367
73393W        W41756  25.603   8.161  13.911
73394W        W41757  24.511  31.015   0.288
73395W        W41758   8.244  36.517  12.424
73396W        W41759   3.786  12.777   3.843
73397W        W41760  19.091   6.689  14.412
73398W        W41761  14.097  25.487   2.280
73399W        W41762  38.049   2.397   4.339
73400W        W41763  23.211  10.193  10.543
73401W        W41764   6.733   3.827  13.054
73402W        W41765  12.304  40.996  13.536
73403W        W41766   3.265   4.782   2.277
73404W        W41767   4.944  27.180  10.441
73405W        W41768  34.898  19.212  14.898
73406W        W41769  21.056  24.018  10.900
73407W        W41770  27.101  13.718   9.582
73408W        W41771   3.325  28.093  10.904
73409W        W41772  38.511   2.781   0.245
73410W        W41773   2.364   9.307  10.605
73411W        W41774  12.121  28.120   2.836
73412W        W41775  25.473  44.991   3.159
73413W        W41776  28.659  39.827   3.858
73414W        W41777  14.314  29.426  12.384
73415W        W41778  12.179  15.665  13.317
73416W        W41779  15.629  24.063  12.560
73417W        W41780  18.656  22.609   5.241
73418W        W41781  11.748  30.532   2.667
73419W        W41782  13.132   5.923  11.495
73420W        W41783  41.993  22.735  12.870
73421W        W41784  38.046  26.503   0.363
73422W        W41785  43.821   0.899  14.492
73423W        W41786   4.296   9.667  14.031
73424W        W41787   4.846   6.788   3.239
73425W        W41788  20.662  44.949   3.693
73426W        W41789  43.000   6.903   0.472
73427W        W41790  42.970   8.673   3.835
73428W        W41791  11.678   8.242   1.888
73429W        W41792  29.984  17.648  12.997
73430W        W41793   5.793  32.561   2.227
73431W        W41794   6.217   3.796  11.544
73432W        W41795  28.941  37.071  13.466
73433W        W41796  23.700  38.509   4.140
73434W        W41797  30.057  30.455  13.378
73435W        W41798  44.301  22.539   3.716
73436W        W41799   5.410  12.726  13.829
73437W        W41800  39.424  27.985   3.149
73438W        W41801  17.203  32.114   2.736
73439W        W41802  15.630  28.966  11.928
73440W        W41803  19.195  23.560  13.984
73441W        W41804  37.873  36.407  12.406
73442W        W41805  41.913  29.045  12.340
73443W        W41806   1.741  11.166  14.969
73444W        W41807  29.141   5.848   0.355
73445W        W41808  11.659  40.508   4.804
73446W        W41809  41.355  33.899  10.489
73447W        W41810   2.934   1.316  13.530
73448W        W41811  11.640  16.082   0.272
73449W        W41812  22.221  16.637   0.805
73450W        W41813  30.568  27.151  12.966
73451W        W41814  43.997  28.560   1.697
73452W        W41815  42.786   0.831   0.435
73453W        W41816  16.125  21.031   1.423
73454W        W41817   4.767  36.569  11.425
73455W        W41818  31.452  31.139   4.172
73456W        W41819  22.504   4.331   3.185
73457W        W41820  31.444  42.444  13.059
73458W        W41821  28.080  24.210  10.549
73459W        W41822  15.592  35.544   1.449
73460W        W41823  43.319  34.418   4.615
73461W        W41824   4.711   1.415  12.459
73462W        W41825   9.686  15.214  11.558
73463W        W41826  34.881  43.816  14.953
73464W        W41827  27.664  22.567  13.546
73465W        W41828  28.681   3.935   3.794
73466W        W41829  18.769  19.604   5.152
73467W        W41830  36.964  25.570   0.729
73468W        W41831  42.979  19.663  14.020
73469W        W41832  23.624  35.046   3.677
73470W        W41833  28.991   2.433  14.011
73471W        W41834  39.878   3.404   3.815
73472W        W41835  30.490  38.859  12.859
73473W        W41836   3.297  34.531   2.750
73474W        W41837  43.978  43.818  10.916
73475W        W41838  15.191  28.554  11.865
73476W        W41839  36.039  32.906   1.224
73477W        W41840  41.445  41.332  14.849
73478W        W41841  41.967  19.668  11.543
73479W        W41842  23.042  33.494  10.043
73480W        W41843  11.225  14.290  10.575
73481W        W41844  40.027  24.980   1.397
73482W        W41845  17.287  20.671  14.439
73483W        W41846  22.141  25.041  14.902
73484W        W41847   8.379  22.702  13.853
73485W        W41848   5.230  13.263   1.716
73486W        W41849   1.885  21.637  13.881
73487W        W41850   3.897   3.865   1.323
73488W        W41851  21.669  24.501  13.525
73489W        W41852  12.159   1.255   3.160
73490W        W41853  44.828  43.878  14.306
73491W        W41854   4.364   3.300   2.299
73492W        W41855  20.094   7.729  14.415
73493W        W41856  22.560  43.323   3.773
73494W        W41857  17.769  14.208  14.433
73495W        W41858  37.850  43.007  14.821
73496W        W41859  12.214  22.693   2.187
73497W        W41860   1.977  13.602  12.498
73498W        W41861   6.330  28.637   0.392
73499W        W41862  25.545  35.079   3.729
73500W        W41863  36.938  29.114   3.343
73501W        W41864  23.153  30.425   0.853
73502W        W41865   6.415  27.092   3.230
73503W        W41866   7.263  35.476   3.654
73504W        W41867  30.977   3.822  11.903
73505W        W41868  40.000  41.447  14.851
73506W        W41869  22.240   8.824   5.300
73507W        W41870  13.152  40.935  13.502
73508W        W41871   9.344  41.821  11.398
73509W        W41872  44.373  14.166  10.976
73510W        W41873  33.959  37.357   1.216
73511W        W41874   9.392   1.457   1.718
73512W        W41875  14.295  35.474  10.958
73513W        W41876  24.078  30.448   4.114
73514W        W41877  26.532  14.831  11.440
73515W        W41878  35.041  34.477   4.352
73516W        W41879  37.567  19.065   0.959
73517W        W41880  17.201   8.282  12.430
73518W        W41881  33.889  15.577  12.908
73519W        W41882  36.054  34.440  14.420
73520W        W41883  36.413  13.724   2.804
73521W        W41884  25.589  22.529  14.507
73522W        W41885   4.905   2.339  12.528
73523W        W41886  24.595  10.226   2.726
73524W        W41887  21.646  20.174   2.376
73525W        W41888  20.080  35.410  14.797
73526W        W41889   8.899  38.889  13.398
73527W        W41890  25.003  29.508  11.033
73528W        W41891   2.414  29.631   2.856
73529W        W41892   7.873  31.924   5.091
73530W        W41893  17.665  32.049  10.428
73531W        W41894  17.566  16.803   5.725
73532W        W41895  24.638  11.346   1.414
73533W        W41896  33.404  36.426   3.248
73534W        W41897  23.677  43.792   2.351
73535W        W41898  13.236  30.006   1.284
73536W        W41899   2.749  30.650   0.919
73537W        W41900  25.169   6.834  10.966
73538W        W41901  34.079  21.744  11.396
73539W        W41902   9.323  15.817   4.149
73540W        W41903  34.408  41.816  12.396
73541W        W41904  22.674  21.195   2.332
73542W        W41905  17.087   0.275  11.876
73543W        W41906  24.543  33.915  14.864
73544W        W41907  43.836   1.758  10.946
73545W        W41908  23.728  36.868  14.950
73546W        W41909   8.341  32.589  13.799
73547W        W41910  41.993  11.798  13.482
73548W        W41911  16.273  25.033  14.828
73549W        W41912   8.901  41.919   3.758
73550W        W41913  33.406  34.580  14.906
73551W        W41914  31.502  32.431   3.867
73552W        W41915   9.202  31.105  11.094
73553W        W41916   3.751   1.309   3.745
73554W        W41917  16.092   3.349   0.319
73555W        W41918  28.976   6.204  13.382
73556W        W41919   8.210  34.588   2.700
73557W        W41920  33.082   0.804  12.570
73558W        W41921   9.340  15.240  12.031
73559W        W41922  26.462  37.963  13.521
73560W        W41923  22.026   6.804   0.294
73561W        W41924   1.903  12.127  12.830
73562W        W41925  31.543  20.265  14.440
73563W        W41926  27.481  22.018  13.875
73564W        W41927  39.008   8.815   3.859
73565W        W41928  40.816  41.315  11.983
73566W        W41929  14.777  28.550   4.736
73567W        W41930  29.448  23.500   3.169
73568W        W41931   8.845  27.965   1.713
73569W        W41932   2.293  20.756   2.377
73570W        W41933  39.904  21.084  10.610
73571W        W41934  35.434  22.225  12.845
73572W        W41935  14.696  26.162   3.871
73573W        W41936  19.066  34.598  11.065
73574W        W41937  21.669  24.532  12.866
73575W        W41938  33.045  32.888  12.401
73576W        W41939  38.840  44.477   3.854
73577W        W41940  19.668  42.425  14.814
73578W        W41941  42.507  12.320  11.107
73579W        W41942  40.404  11.812  13.846
73580W        W41943  43.856  37.486   4.178
73581W        W41944  34.424  40.389  11.417
73582W        W41945  34.976  18.158  13.343
73583W        W41946  40.909  40.459   3.358
73584W        W41947   5.824  22.089  12.387
73585W        W41948  14.660   6.835  14.510
73586W        W41949  41.417  31.905   3.754
73587W        W41950  38.402  25.576  14.433
73588W        W41951  24.076  35.527  10.432
73589W        W41952  30.535  37.068   1.318
73590W        W41953  14.717  39.874   4.212
73591W        W41954  12.150  29.009   2.807
73592W        W41955  39.342  32.055  14.497
73593W        W41956  31.007  12.252   1.274
73594W        W41957  13.294  42.346   0.293
73595W        W41958  13.233   8.215   1.330
73596W        W41959  44.372  34.461  13.846
73597W        W41960  32.990  29.027  11.073
73598W        W41961   2.284   3.849  11.887
73599W        W41962  33.040  20.626   0.855
73600W        W41963  11.866  44.809  13.397
73601W        W41964  18.175  25.480   4.627
73602W        W41965  23.551   7.237   4.826
73603W        W41966   2.748  40.429   4.304
73604W        W41967  11.696  37.997   3.382
73605W        W41968  34.915  14.265  11.444
73606W        W41969   8.771  31.050   3.295
73607W        W41970  10.661  27.096  14.999
73608W        W41971   8.886  36.968  14.762
73609W        W41972  23.573   3.330   4.255
73610W        W41973   8.857   5.333  11.605
73611W        W41974   2.880  23.193  13.418
73612W        W41975  27.529   4.759   0.453
73613W        W41976  25.177  31.038  13.536
73614W        W41977  21.147  24.631  14.353
73615W        W41978  27.510   3.398   3.162
73616W        W41979  43.461  25.477  11.890
73617W        W41980  33.925  12.318  11.924
73618W        W41981  17.571   0.788   1.739
73619W        W41982  17.625   0.345  13.451
73620W        W41983  17.729  21.740   4.350
73621W        W41984  40.467   3.418  11.402
73622W        W41985  32.059   4.799   3.659
73623W        W41986  39.854  38.414  10.539
73624W        W41987  25.119  22.737  11.438
73625W        W41988   5.824  10.140  14.979
73626W        W41989   2.954  37.977  10.473
73627W        W41990  43.330  28.569  14.487
73628W        W41991  28.037   4.906   3.737
73629W        W41992  20.070   9.232  11.428
73630W        W41993  23.106  41.020  14.890
73631W        W41994  26.200  12.199  13.389
73632W        W41995  13.183  19.064  10.942
73633W        W41996  19.257   1.918   0.771
73634W        W41997  40.926  40.996  13.401
73635W        W41998  35.973  39.361  13.903
73636W        W41999  19.262  22.103  11.384
73637W        W42000  13.341  30.545  11.518
73638W        W42001  10.800  42.295  11.437
73639W        W42002   2.369  43.295  12.011
73640W        W42003  34.960  11.782  12.953
73641W        W42004  34.080   8.656  11.396
73642W        W42005   7.407   3.388   1.370
73643W        W42006  42.842  35.495  14.339
73644W        W42007   7.286  34.407  11.518
73645W        W42008  43.828  19.637  13.395
73646W        W42009  30.911  23.121  13.912
73647W        W42010  18.750  42.331   0.782
73648W        W42011  21.147  40.373   0.318
73649W        W42012  21.031  22.516   4.166
73650W        W42013  31.571   9.192   2.254
73651W        W42014  28.668  20.713   2.206
73652W        W42015  34.394   1.474   0.271
73653W        W42016   5.413  31.967   0.344
73654W        W42017  25.965  38.957   4.786
73655W        W42018   1.447  44.316   5.235
73656W        W42019  13.815  15.740  11.897
73657W        W42020  29.549  37.339  11.462
73658W        W42021   3.842  38.894   4.817
73659W        W42022  35.971  36.456   1.369
73660W        W42023  11.779  17.071   4.124
73661W        W42024  20.211   0.916   2.665
73662W        W42025  28.158   9.325   1.695
73663W        W42026  16.107  43.880  11.072
73664W        W42027  33.517  38.852   2.838
73665W        W42028  12.188  33.501  13.367
73666W        W42029   8.701  37.069  12.871
73667W        W42030  20.708   6.397   4.636
73668W        W42031  44.343  44.808  12.960
73669W        W42032   1.482  23.712   1.807
73670W        W42033  30.525  37.534  10.633
73671W        W42034   7.179  41.016  11.921
73672W        W42035  39.861  27.683  12.031
73673W        W42036  24.699  44.286  12.864
73674W        W42037  33.414  40.856   0.740
73675W        W42038   5.431  26.495  14.852
73676W        W42039  17.755  33.039  14.406
73677W        W42040  24.579  11.279   1.854
73678W        W42041   6.708  39.409   0.740
73679W        W42042  40.952  20.757  11.436
73680W        W42043  17.156  38.965  13.928
73681W        W42044  26.632  30.539   1.781
73682W        W42045  19.071   8.377   4.723
73683W        W42046   3.404  25.514   0.299
73684W        W42047   4.838   8.405  12.907
73685W        W42048  10.373  13.119   4.640
73686W        W42049  14.677  42.381  13.319
73687W        W42050  22.613   6.410  10.485
73688W        W42051  44.369   1.913  11.955
73689W        W42052  34.047  37.833   0.834
73690W        W42053   6.229  19.720  11.410
73691W        W42054  20.230  38.392  11.856
73692W        W42055  30.442  16.574   2.206
73693W        W42056  35.600  41.835  13.848
73694W        W42057  24.069  10.184   3.252
73695W        W42058   6.255  42.374  11.040
73696W        W42059  18.673  40.859  12.007
73697W        W42060   9.837  12.777   2.771
73698W        W42061  31.902  37.392  11.453
73699W        W42062  11.627  40.885   9.951
73700W        W42063  42.511  26.192   0.326
73701W        W42064   1.406  11.242   4.627
73702W        W42065  10.859  15.763  13.543
73703W        W42066   2.832  28.643   4.690
73704W        W42067  44.814  25.468   1.419
73705W        W42068  27.632  26.180   1.760
73706W        W42069   0.382   1.937  11.597
73707W        W42070  12.190  28.967   4.245
73708W        W42071   3.374  44.268   1.250
73709W        W42072   4.298  21.061  10.910
73710W        W42073  21.061   2.794  14.812
73711W        W42074  11.742  12.214  14.828
73712W        W42075  33.622   1.778   0.946
73713W        W42076  13.183  30.592   4.668
73714W        W42077  35.945   2.249   0.810
73715W        W42078  16.106  41.877   4.727
73716W        W42079  24.117  11.793  12.396
73717W        W42080  32.533  37.066   2.262
73718W        W42081   1.770  26.109  10.426
73719W        W42082  14.154  22.164   2.668
73720W        W42083   8.755  19.712   2.850
73721W        W42084  27.517  11.286   2.204
73722W        W42085  30.495  13.683   2.379
73723W        W42086  10.854  37.881  10.414
73724W        W42087  31.591  17.199  11.516
73725W        W42088  30.514  39.877   2.753
73726W        W42089  33.940  14.801  12.898
73727W        W42090  17.228  11.227   1.875
73728W        W42091  35.477  37.363   1.239
73729W        W42092  15.265  22.735  12.875
73730W        W42093   2.408  41.463   1.297
73731W        W42094  31.995  23.535  11.491
73732W        W42095  16.285   8.307  10.566
73733W        W42096  22.096  41.873   3.837
73734W        W42097  19.544  19.245  13.432
73735W        W42098  18.120  39.055   1.361
73736W        W42099  40.339  20.551   3.847
73737W        W42100  37.967  19.173  11.973
73738W        W42101  13.603  29.510  14.299
73739W        W42102   4.702  43.811   4.640
73740W        W42103  13.761  13.641  13.974
73741W        W42104  42.298  39.984  14.981
73742W        W42105  16.580  20.060  10.634
73743W        W42106   3.274   2.254  12.829
73744W        W42107  36.081  21.058   1.336
73745W        W42108  37.844  37.034   0.844
73746W        W42109  40.549  26.111   2.714
73747W        W42110  40.992  25.678   1.417
73748W        W42111  35.081  44.438  13.374
73749W        W42112  38.829  29.467  14.774
73750W        W42113  21.692  24.144  10.439
73751W        W42114  34.502  34.948  14.380
73752W        W42115  12.718  24.654   0.772
73753W        W42116  28.160  27.162  12.486
73754W        W42117   0.472  15.227  12.347
73755W        W42118  38.926   0.421  14.999
73756W        W42119  38.412  11.166  10.420
73757W        W42120  25.610  10.206  14.466
73758W        W42121  16.742  38.540   4.117
73759W        W42122  34.108   3.767   0.764
73760W        W42123  29.921   4.773   3.234
73761W        W42124  35.854  37.992   4.759
73762W        W42125  20.103  36.429  10.929
73763W        W42126   6.754   4.711  12.368
73764W        W42127   4.378  21.534   2.258
73765W        W42128   3.767  36.467  13.970
73766W        W42129  36.449  39.351   1.397
73767W        W42130  36.878  30.459   3.828
73768W        W42131   9.389   8.664   2.729
73769W        W42132  43.312  28.641   3.670
73770W        W42133  13.169  38.007   1.790
73771W        W42134   1.428  16.684  14.896
73772W        W42135  36.573   0.889  13.480
73773W        W42136   8.200   2.304   3.748
73774W        W42137   9.356  31.460   3.809
73775W        W42138  26.968   8.734  14.870
73776W        W42139  31.536  32.451  12.488
73777W        W42140   5.822  28.169   3.386
73778W        W42141  11.676  11.703   0.280
73779W        W42142  15.778   9.742   4.220
73780W        W42143  14.184  36.006  13.822
73781W        W42144  29.665  24.685   1.250
73782W        W42145  12.350  37.533   0.438
73783W        W42146  43.481  44.898   3.842
73784W        W42147   7.747  21.618   1.329
73785W        W42148   9.869  38.043   2.777
73786W        W42149   8.824  20.146  12.983
73787W        W42150  19.749   8.338  11.517
73788W        W42151   7.178  35.506  11.539
73789W        W42152  35.022  24.195   0.457
73790W        W42153   3.280  27.040  10.514
73791W        W42154  21.561  16.103   2.862
73792W        W42155  16.114  43.325  10.996
73793W        W42156  21.174  26.131   0.450
73794W        W42157  40.879  17.731   3.333
73795W        W42158  35.012  20.102  11.467
73796W        W42159  39.847  42.450  13.414
73797W        W42160  31.944   6.227   0.337
73798W        W42161  17.115  19.629   3.739
73799W        W42162   1.459   3.928  11.938
73800W        W42163  25.595  41.979   4.196
73801W        W42164  15.239  42.451  11.007
73802W        W42165  14.335  31.923  13.950
73803W        W42166   4.865  42.370   1.874
73804W        W42167  19.074  13.270  12.505
73805W        W42168  14.774  25.604   0.751
73806W        W42169  20.738  38.456  13.500
73807W        W42170  23.678  25.507  11.586
73808W        W42171   8.745  28.463  10.447
73809W        W42172  25.508  23.241   4.337
73810W        W42173  36.926  14.604   2.287
73811W        W42174  27.951  41.434   5.138
73812W        W42175  39.506  23.547  13.520
73813W        W42176  22.677  33.552   4.633
73814W        W42177   2.364  27.940   5.235
73815W        W42178   9.239  32.100   4.182
73816W        W42179  33.614  24.681  14.402
73817W        W42180  36.034  13.118  14.304
73818W        W42181  36.006  13.667   0.307
73819W        W42182  32.503  23.989  10.631
73820W        W42183  22.998  42.826  11.537
73821W        W42184  18.748  44.821   4.288
73822W        W42185  19.245  43.292   2.813
73823W        W42186  21.046   5.724   1.272
73824W        W42187  38.342  34.045   2.846
73825W        W42188  34.447   0.986   5.741
73826W        W42189  32.469   9.352  14.759
73827W        W42190   1.855   4.881   4.803
73828W        W42191  44.436  24.524  14.761
73829W        W42192   6.232  35.392   0.902
73830W        W42193  40.391  11.183   0.859
73831W        W42194  21.096  15.257  10.946
73832W        W42195  36.068  24.993   0.828
73833W        W42196  34.522   7.813   3.665
73834W        W42197  16.138  43.922   1.929
73835W        W42198  17.704  29.173  14.314
73836W        W42199  21.743  10.313   1.862
73837W        W42200  19.599  26.524   3.696
73838W        W42201  13.822  19.243  10.423
73839W        W42202  38.944  33.110   0.269
73840W        W42203  36.033  19.704   4.631
73841W        W42204  41.807   5.395   1.361
73842W        W42205  44.835  39.402   3.178
73843W        W42206   6.220  13.646   3.814
73844W        W42207   8.763  12.817  11.423
73845W        W42208   3.241  18.587  12.549
73846W        W42209  13.308  28.008   2.777
73847W        W42210  33.905  40.949   2.306
73848W        W42211  28.523  15.147   4.278
73849W        W42212  43.314  21.076  11.950
73850W        W42213  39.021   1.298   2.762
73851W        W42214  35.899  22.177  11.994
73852W        W42215  24.605  40.853   0.480
73853W        W42216   8.335   0.758   4.241
73854W        W42217  43.936  39.057  14.771
73855W        W42218  17.225  26.510   0.885
73856W        W42219  35.110  13.659   4.305
73857W        W42220  23.048  27.536   4.278
73858W        W42221   9.658  22.231  13.501
73859W        W42222   1.976  24.652  10.563
73860W        W42223  40.009  14.189   2.322
73861W        W42224  39.322  26.958  14.436
73862W        W42225  38.457  44.908   2.799
73863W        W42226  29.515  32.129   4.836
73864W        W42227  31.537  41.530   1.414
73865W        W42228   6.765  38.876  11.002
73866W        W42229  16.705  12.787   2.344
73867W        W42230  26.472  23.220   2.371
73868W        W42231   0.954   2.321  14.983
73869W        W42232   8.887  19.234  14.981
73870W        W42233   3.763  17.165  12.988
73871W        W42234  24.003  35.859   4.657
73872W        W42235  26.167  42.922   3.691
73873W        W42236  20.647  22.693   4.681
73874W        W42237  13.117  19.196   0.256
73875W        W42238   4.929  11.671   1.807
73876W        W42239  35.371  21.139   2.255
73877W        W42240  38.393   5.368  11.488
73878W        W42241  28.444   6.234  11.384
73879W        W42242   6.764   5.299  12.419
73880W        W42243  37.340  17.166  11.413
73881W        W42244  14.612  38.381   2.351
73882W        W42245  36.912  13.231  10.441
73883W        W42246  12.178  34.085   4.137
73884W        W42247  28.941  15.619  14.378
73885W        W42248  41.839  34.894   1.737
73886W        W42249   0.442  41.327  14.297
73887W        W42250  11.851  19.117  13.431
73888W        W42251  27.993  30.136  13.927
73889W        W42252  17.242   5.751  13.795
73890W        W42253  10.747  35.861  10.512
73891W        W42254   6.237  17.101   3.755
73892W        W42255  10.223  44.959   3.733
73893W        W42256  26.994  20.700   4.307
73894W        W42257   5.258  30.963   3.826
73895W        W42258  14.699  31.143  14.353
73896W        W42259   5.275  21.525   4.825
73897W        W42260   8.235  39.917   1.210
73898W        W42261  11.339  11.629  11.114
73899W        W42262  37.471  23.001  12.447
73900W        W42263  40.999  11.810   1.238
73901W        W42264  28.524   2.393   2.344
73902W        W42265  39.030   5.326   3.263
73903W        W42266  42.523   5.798   0.809
73904W        W42267   7.411  32.964  11.441
73905W        W42268   7.672  42.823   2.776
73906W        W42269  24.082  17.584   0.927
73907W        W42270  22.009  33.414  14.029
73908W        W42271  28.161  37.041  13.415
73909W        W42272  41.832  39.529   3.270
73910W        W42273  19.048  40.399   2.236
73911W        W42274   4.350   3.371   4.737
73912W        W42275  24.624   7.698  13.384
73913W        W42276   3.820  23.695   1.375
73914W        W42277  26.101  39.509  13.952
73915W        W42278  33.901  41.536  12.520
73916W        W42279  43.513  41.398   1.833
73917W        W42280  27.497   3.792   1.843
73918W        W42281  39.509  11.828  14.408
73919W        W42282   8.346  43.979   2.293
73920W        W42283  17.296  10.798   2.901
73921W        W42284  43.515  11.134   4.325
73922W        W42285  28.510   9.743  14.936
73923W        W42286  31.088  11.256  14.389
73924W        W42287  36.501  13.180   1.841
73925W        W42288  29.458   1.314  13.987
73926W        W42289   7.306   4.378  10.913
73927W        W42290  29.071   3.774   2.821
73928W        W42291  27.504  19.718  12.410
73929W        W42292  30.510  34.962   2.216
73930W        W42293  16.235  16.692   0.321
73931W        W42294  31.059  13.169   1.252
73932W        W42295   9.792  38.558  10.483
73933W        W42296   8.823   3.453  13.847
73934W        W42297   9.699   0.257  14.993
73935W        W42298  24.139  20.259  11.100
73936W        W42299  32.506  38.512   0.881
73937W        W42300   4.835  31.938   4.708
73938W        W42301  25.177  36.523  12.561
73939W        W42302   8.370  43.967   3.188
73940W        W42303   7.864  32.038  14.400
73941W        W42304  21.746  20.625  14.398
73942W        W42305  33.542   9.326   0.406
73943W        W42306  27.182  12.731   4.607
73944W        W42307  15.118  10.154   4.818
73945W        W42308  19.192   4.753  11.426
73946W        W42309   1.751  37.427   0.814
73947W        W42310  20.236  18.669  12.576
73948W        W42311  29.004  36.944   3.691
73949W        W42312  30.508  12.740   1.367
73950W        W42313  22.137  23.084  14.894
73951W        W42314  12.207  37.566  11.534
73952W        W42315  38.971  20.257  13.902
73953W        W42316  44.465  24.643   2.782
73954W        W42317  28.118  39.037  11.090
73955W        W42318  34.384  26.061  12.351
73956W        W42319  30.909   9.728  14.979
73957W        W42320  31.435   4.868  11.004
73958W        W42321  20.745  19.109   0.385
73959W        W42322  32.479  12.647  13.457
73960W        W42323  33.398  28.578   1.725
73961W        W42324  31.059  30.111   2.894
73962W        W42325  14.779  39.828   3.831
73963W        W42326  20.671  28.101  11.384
73964W        W42327  28.035   7.293   1.856
73965W        W42328   2.818  12.773   3.265
73966W        W42329  35.985   3.384   2.826
73967W        W42330  38.487  11.244  13.982
73968W        W42331  37.028  26.194   4.340
73969W        W42332  10.276   4.249  10.437
73970W        W42333  21.533  11.836  13.418
73971W        W42334  44.327   1.439   3.385
73972W        W42335  38.524  25.510   2.255
73973W        W42336  25.059  37.357   0.347
73974W        W42337   5.367  10.859  12.867
73975W        W42338  11.834   9.786   2.323
73976W        W42339  31.542   3.270  11.100
73977W        W42340  35.365  38.513  10.988
73978W        W42341   7.343  26.956   3.825
73979W        W42342   9.845  30.948   3.670
73980W        W42343  17.292  40.000  11.459
73981W        W42344  40.803  13.678   1.394
73982W        W42345  23.206  31.981   1.909
73983W        W42346  25.656  30.053   1.761
73984W        W42347  29.647  29.512  12.021
73985W        W42348  31.072   3.757   4.198
73986W        W42349  16.683  39.857   1.445
73987W        W42350  26.986  37.494  11.027
73988W        W42351  38.486  33.019  14.350
73989W        W42352   3.914   1.451   4.810
73990W        W42353  33.922   8.751   5.290
73991W        W42354  18.735  10.172   3.231
73992W        W42355  32.444  37.964   1.353
73993W        W42356  20.247  25.178  14.936
73994W        W42357  29.067  10.781   0.891
73995W        W42358   2.871  23.102   5.211
73996W        W42359  13.350  30.101  12.835
73997W        W42360  28.503  15.086   2.750
73998W        W42361  11.242   0.481   4.794
73999W        W42362  21.598  41.442  14.872
74000W        W42363  33.559  16.663  13.997
74001W        W42364  27.566   0.466   2.184
74002W        W42365  18.665  43.404   3.834
74003W        W42366   8.732  18.603  10.904
74004W        W42367  26.205  27.515   4.128
74005W        W42368  29.167   2.930  13.023
74006W        W42369   6.876  29.162   3.246
74007W        W42370  16.084   0.407  11.509
74008W        W42371   2.428  41.328  14.768
74009W        W42372  11.254  30.633  14.359
74010W        W42373  16.081  40.804  10.920
74011W        W42374   5.756   2.399   2.710
74012W        W42375  32.394  26.153   2.296
74013W        W42376  17.751   2.784  12.960
74014W        W42377  24.673  22.736  12.008
74015W        W42378  11.835  27.071  11.388
74016W        W42379  23.000   4.943  11.524
74017W        W42380  30.078  22.626  14.309
74018W        W42381   7.821  20.257   3.632
74019W        W42382   2.845  37.906   2.260
74020W        W42383  32.406  40.488  10.596
74021W        W42384   4.281  33.900  12.476
74022W        W42385  39.930  39.870   0.945
74023W        W42386   4.725  42.776  10.404
74024W        W42387  25.214  27.121  13.397
74025W        W42388  21.206  41.831   4.642
74026W        W42389  40.448  26.086   3.268
74027W        W42390  30.068  40.919   2.849
74028W        W42391  12.709  11.808  10.576
74029W        W42392   1.876  40.482   1.254
74030W        W42393  18.554  18.162   2.693
74031W        W42394  39.397  13.185   4.660
74032W        W42395   1.781  40.462  13.372
74033W        W42396  15.656   8.359  12.889
74034W        W42397   0.452  27.640  12.419
74035W        W42398   3.872  36.089  13.853
74036W        W42399  31.093  23.054   1.831
74037W        W42400   1.835  41.449   1.230
74038W        W42401  34.085  40.373  11.997
74039W        W42402  15.788  28.494  14.493
74040W        W42403  34.380  26.174  12.838
74041W        W42404  23.140   0.769   2.274
74042W        W42405  22.174  26.065  10.902
74043W        W42406  13.815  18.117  12.014
74044W        W42407   0.755   1.966  14.452
74045W        W42408  12.333  15.179  14.926
74046W        W42409  34.612  43.909   3.703
74047W        W42410  40.985   1.285  11.009
74048W        W42411  37.428  44.471   4.207
74049W        W42412  34.491  29.574  14.760
74050W        W42413  15.328  24.038   2.690
74051W        W42414  17.125  41.868  12.466
74052W        W42415  21.211  19.140   1.729
74053W        W42416  19.079  26.095  13.044
74054W        W42417   4.428  33.611  11.000
74055W        W42418   5.218  35.912   4.778
74056W        W42419  11.293  16.137  12.963
74057W        W42420  10.349  38.441  11.402
74058W        W42421   6.282  42.459   2.690
74059W        W42422   5.791   9.187  12.365
74060W        W42423   1.839  26.647   4.344
74061W        W42424  23.569  31.403  12.427
74062W        W42425  21.041   8.313   1.360
74063W        W42426  35.080  24.156  12.343
74064W        W42427  25.703  28.994   1.394
74065W        W42428  43.293  16.084  13.887
74066W        W42429  16.112  17.606  13.038
74067W        W42430   0.761  40.829   2.258
74068W        W42431  29.964   2.399   4.733
74069W        W42432  37.947  27.164   1.212
74070W        W42433  40.469  12.785   0.730
74071W        W42434  28.092  28.964   1.440
74072W        W42435  22.631  38.557  12.411
74073W        W42436  16.613  30.157  10.438
74074W        W42437  11.680  17.756  12.903
74075W        W42438  11.298  42.852   4.724
74076W        W42439   2.895  25.970   0.783
74077W        W42440  30.921  26.695   4.649
74078W        W42441  28.452   3.764  10.411
74079W        W42442   2.962  37.512  13.850
74080W        W42443  26.575   6.319  12.083
74081W        W42444   2.905  26.581  13.894
74082W        W42445  37.918   1.368   1.238
74083W        W42446  34.931   8.259   0.332
74084W        W42447  33.437  20.623   0.819
74085W        W42448  31.097  32.059  10.524
74086W        W42449   6.877   6.705  14.928
74087W        W42450  18.213  33.594   3.668
74088W        W42451  16.078  21.611  14.007
74089W        W42452  43.008  40.008  13.886
74090W        W42453  22.241  12.357  13.971
74091W        W42454   5.377  36.027  11.858
74092W        W42455  25.098  32.431  14.839
74093W        W42456   9.834  34.950  14.903
74094W        W42457  20.064  17.160  10.580
74095W        W42458  25.209   7.209   2.217
74096W        W42459  27.153  25.993  12.431
74097W        W42460  22.682  10.298   2.754
74098W        W42461   5.889  14.243  12.925
74099W        W42462  12.203  12.739  11.445
74100W        W42463  28.044  35.893   5.115
74101W        W42464  44.803  40.870   1.420
74102W        W42465  20.695  33.612   0.899
74103W        W42466  14.696  22.510  14.888
74104W        W42467  31.028  27.117   4.233
74105W        W42468  11.854   7.204  11.556
74106W        W42469  31.597   1.416  11.121
74107W        W42470  31.491  44.820   4.263
74108W        W42471  13.818  18.674   0.927
74109W        W42472  12.825  10.766  13.794
74110W        W42473   1.299  28.060  12.946
74111W        W42474   4.851  12.624  14.844
74112W        W42475  34.928  40.944   2.335
74113W        W42476   4.235  34.480  13.378
74114W        W42477  29.457  31.044   4.622
74115W        W42478  13.650  34.609   4.838
74116W        W42479  41.810   3.954   4.332
74117W        W42480  44.799  26.974   0.824
74118W        W42481  36.579  15.625  14.330
74119W        W42482  28.102  35.583   2.267
74120W        W42483   6.334  18.053   0.269
74121W        W42484  13.220  22.637   3.301
74122W        W42485  12.683  36.010  12.082
74123W        W42486  28.650   9.778   3.208
74124W        W42487  17.618  44.322   5.227
74125W        W42488  19.767   8.232  13.993
74126W        W42489  41.344  12.184   4.697
74127W        W42490  44.270  17.674  14.403
74128W        W42491   8.781  26.698   0.355
74129W        W42492  40.532  43.469   1.416
74130W        W42493   2.769  20.629  12.966
74131W        W42494   5.748  36.552   4.238
74132W        W42495   8.707  12.701  13.348
74133W        W42496  30.149  44.449  11.547
74134W        W42497   6.399  35.434  14.772
74135W        W42498  37.925  30.976  12.395
74136W        W42499   8.791  35.485  14.824
74137W        W42500  43.847  36.467  12.474
74138W        W42501  36.542  27.472  13.430
74139W        W42502  28.126  38.523   3.691
74140W        W42503  33.970   4.816  12.428
74141W        W42504   9.394  12.676  13.914
74142W        W42505  10.177   8.791   0.250
74143W        W42506  44.886  29.930   1.912
74144W        W42507  20.536  36.025  14.876
74145W        W42508  14.249   3.385   1.433
74146W        W42509   5.433  31.571   4.147
74147W        W42510  33.102   4.356   3.305
74148W        W42511  25.526  30.480   3.262
74149W        W42512  42.804  10.378  12.076
74150W        W42513   1.408  20.716   0.890
74151W        W42514  28.086  42.999  14.453
74152W        W42515  19.231  43.846   0.291
74153W        W42516  20.225  30.622  14.422
74154W        W42517   4.251   0.850   3.853
74155W        W42518  35.885   5.756   1.745
74156W        W42519  25.180  15.176  14.334
74157W        W42520   8.731   8.829  13.350
74158W        W42521  16.175  26.476   1.217
74159W        W42522  37.352  41.403   4.216
74160W        W42523   2.293  28.635   0.916
74161W        W42524   4.322  24.217   3.838
74162W        W42525   2.286  18.623  11.037
74163W        W42526  27.601  17.662  10.958
74164W        W42527  34.089  10.754   4.701
74165W        W42528  25.156  17.743   3.308
74166W        W42529   2.250  17.171  13.812
74167W        W42530  35.554  31.493  11.859
74168W        W42531  29.952  19.069   2.691
74169W        W42532  16.249   6.302   3.640
74170W        W42533  18.067  28.025   0.411
74171W        W42534  40.044  18.271  10.508
74172W        W42535  39.936  39.058  13.971
74173W        W42536  37.387  23.581  10.893
74174W        W42537  11.291  36.960   3.711
74175W        W42538   5.255  19.539   0.383
74176W        W42539  44.270  40.831   3.382
74177W        W42540  21.226  11.174   1.815
74178W        W42541  29.931  24.597  11.929
74179W        W42542   7.380  10.259  14.782
74180W        W42543  26.661  10.223  12.090
74181W        W42544  26.083  40.357   2.890
74182W        W42545  16.757  44.819   4.279
74183W        W42546  10.844   3.294   4.634
74184W        W42547   1.838   2.391  13.377
74185W        W42548   1.365  29.053   0.784
74186W        W42549   7.293  25.205   4.137
74187W        W42550  42.472  43.438  10.485
74188W        W42551   4.354  16.708  14.787
74189W        W42552  27.049  24.205   4.125
74190W        W42553  23.710  33.099   2.305
74191W        W42554  30.414   4.877  13.520
74192W        W42555  44.283  22.158   4.754
74193W        W42556  14.142  36.512   3.195
74194W        W42557   8.395  42.406   4.664
74195W        W42558  16.578   9.271   0.384
74196W        W42559  22.528  18.644  12.413
74197W        W42560  24.675   4.761  12.548
74198W        W42561  41.818  26.464  12.545
74199W        W42562  13.142  28.054  11.004
74200W        W42563  34.434  10.158   4.757
74201W        W42564   5.764  15.759  13.362
74202W        W42565  34.879  41.397  12.921
74203W        W42566  25.649  33.548  10.042
74204W        W42567   6.394   8.325  12.977
74205W        W42568   0.841   7.786  12.410
74206W        W42569   4.912  10.669  10.944
74207W        W42570  12.227  22.241  11.997
74208W        W42571  39.045   1.933  14.293
74209W        W42572  12.839  12.280  12.347
74210W        W42573   3.860   9.273  13.327
74211W        W42574  21.584  24.227  10.930
74212W        W42575  14.126  41.920  13.003
74213W        W42576  24.025  18.135   1.725
74214W        W42577  30.420  39.377   1.893
74215W        W42578  14.722   9.711  11.087
74216W        W42579   0.350  40.420  10.504
74217W        W42580  24.195  26.542   3.840
74218W        W42581  11.684  18.209  14.884
74219W        W42582   5.795   2.824   0.895
74220W        W42583  43.838  33.522   1.238
74221W        W42584  36.423  19.597  14.970
74222W        W42585  22.625  40.400   1.800
74223W        W42586  36.496  36.902  14.423
74224W        W42587  10.241  29.056   3.297
74225W        W42588  18.614   0.789   3.150
74226W        W42589  36.000  20.072  14.006
74227W        W42590   3.902   2.388  13.438
74228W        W42591  17.613  38.540  12.837
74229W        W42592  15.627  25.003   4.792
74230W        W42593   4.302  33.974   0.825
74231W        W42594  30.986  12.750  14.992
74232W        W42595  30.413  17.632   0.903
74233W        W42596   4.229  16.204   0.394
74234W        W42597   5.295   4.443   0.279
74235W        W42598  11.688  17.606  13.425
74236W        W42599  30.613   0.768  10.965
74237W        W42600  41.395  44.762   4.147
74238W        W42601  33.975  19.249  13.418
74239W        W42602  40.010  10.264   2.369
74240W        W42603  39.508  39.539   3.800
74241W        W42604  40.378  21.178   2.406
74242W        W42605  41.513  13.305  13.381
74243W        W42606  13.786   3.857   3.756
74244W        W42607  33.411  19.719   0.855
74245W        W42608   4.305   8.655  10.556
74246W        W42609   6.834  36.446  13.814
74247W        W42610  31.004  30.446   1.409
74248W        W42611  40.939  17.684  12.453
74249W        W42612  11.236  11.687  13.977
74250W        W42613  23.523   3.791   4.231
74251W        W42614  42.431  10.682   2.882
74252W        W42615  42.950  30.011  14.346
74253W        W42616   3.246  34.958  14.294
74254W        W42617  11.186   5.358   0.449
74255W        W42618  19.705  13.235   3.387
74256W        W42619  15.672  39.040  11.478
74257W        W42620  31.051  32.096   0.439
74258W        W42621  31.045  41.979  12.388
74259W        W42622   6.422  41.924  12.986
74260W        W42623  10.331  15.681   0.419
74261W        W42624  44.471  10.312   2.381
74262W        W42625   4.418  29.536   2.796
74263W        W42626  23.514  26.655  13.464
74264W        W42627  14.642  32.392  10.979
74265W        W42628  14.780   9.355  13.521
74266W        W42629  12.630   0.414  12.041
74267W        W42630  11.133  36.021   1.806
74268W        W42631  42.883  35.507   3.735
74269W        W42632   4.409  13.235   0.939
74270W        W42633  22.038  17.648  14.928
74271W        W42634  33.890  33.482  13.524
74272W        W42635   5.922  32.034   4.666
74273W        W42636  32.425  35.952   4.705
74274W        W42637  40.027  11.209  10.953
74275W        W42638  16.227  12.194   4.647
74276W        W42639  24.708  14.233   4.600
74277W        W42640  17.224  16.286  12.881
74278W        W42641  10.200  44.816   4.606
74279W        W42642  44.829  26.460   0.954
74280W        W42643  16.756  36.494  10.635
74281W        W42644  43.805  33.573  14.883
74282W        W42645   7.843   4.310   1.855
74283W        W42646  44.935  31.637   4.209
74284W        W42647  28.578   3.396  14.406
74285W        W42648  34.113  14.611  10.562
74286W        W42649  31.533  25.549  11.419
74287W        W42650  31.946  30.149   4.352
74288W        W42651   0.901  36.878  12.986
74289W        W42652   0.854  23.585  11.430
74290W        W42653  25.592  12.823  10.968
74291W        W42654   6.357  14.236  12.972
74292W        W42655  34.076   3.723  12.844
74293W        W42656  20.034  21.654  10.909
74294W        W42657  37.854  17.765  12.929
74295W        W42658  18.574  43.416   4.321
74296W        W42659  36.912  43.868   2.709
74297W        W42660  23.233  12.278  12.545
74298W        W42661  30.537  32.095   0.393
74299W        W42662   5.873  35.584  12.035
74300W        W42663  14.143   0.761  14.766
74301W        W42664  31.077  32.431  10.578
74302W        W42665  36.563  44.770   4.324
74303W        W42666  44.386  35.853  11.537
74304W        W42667   4.405  39.484   4.835
74305W        W42668  27.471  43.271  13.317
74306W        W42669  41.440  25.181  14.343
74307W        W42670  24.004   7.745   3.206
74308W        W42671   2.255  23.701  10.891
74309W        W42672  39.321  10.811  10.972
74310W        W42673   9.705  42.787   2.847
74311W        W42674  33.549  33.609  12.057
74312W        W42675  27.566  18.663  14.977
74313W        W42676  31.145   9.345   3.245
74314W        W42677  17.755  43.783  10.437
74315W        W42678  23.083   3.343  14.353
74316W        W42679  30.932   7.849  11.019
74317W        W42680  31.512  15.789  11.941
74318W        W42681   7.325  24.537   1.730
74319W        W42682  14.121  26.066   1.775
74320W        W42683  25.605  31.984   4.342
74321W        W42684  14.201  28.590  10.566
74322W        W42685  20.605   8.781   3.333
74323W        W42686  15.726  12.755  12.969
74324W        W42687  30.925  29.471  12.573
74325W        W42688  19.120  33.433   0.930
74326W        W42689   4.936   4.800  13.882
74327W        W42690  24.561   1.341   1.328
74328W        W42691  30.451  16.714   4.715
74329W        W42692  26.163  18.137  13.349
74330W        W42693   2.860  21.562   0.427
74331W        W42694   1.326  14.740  12.824
74332W        W42695  14.726  22.997  13.426
74333W        W42696  28.553  25.963   1.309
74334W        W42697  12.224  34.876  14.931
74335W        W42698  17.090   8.779  13.883
74336W        W42699  24.487  39.955   2.345
74337W        W42700  10.877  15.102   3.301
74338W        W42701   0.444  40.395  10.949
74339W        W42702  15.667  24.141  14.374
74340W        W42703  34.521   2.430  11.074
74341W        W42704  33.453  44.376  12.391
74342W        W42705  22.023  35.505  14.019
74343W        W42706  37.483  13.110  12.844
74344W        W42707  34.504  10.767   0.778
74345W        W42708  38.450  28.437  11.401
74346W        W42709  24.009  32.889  14.360
74347W        W42710   0.864  41.966   3.669
74348W        W42711  25.714   6.753  13.353
74349W        W42712  17.147  30.606  13.832
74350W        W42713  28.110  19.589  12.509
74351W        W42714  44.898  36.583  12.884
74352W        W42715  18.663  40.507   4.684
74353W        W42716  22.537  10.809   2.311
74354W        W42717  19.283   1.428  13.487
74355W        W42718  23.712  22.131  11.078
74356W        W42719  22.185   1.791   1.376
74357W        W42720  21.634   3.875  13.376
74358W        W42721  27.491   0.470   4.810
74359W        W42722  11.150  13.196  10.484
74360W        W42723   7.299  43.317  12.956
74361W        W42724  13.603  20.550  10.507
74362W        W42725  25.122  12.154   4.723
74363W        W42726  35.892  22.238  13.964
74364W        W42727  22.057  13.657  13.476
74365W        W42728  21.113  14.727   3.269
74366W        W42729   0.934  11.868   1.738
74367W        W42730   8.838  29.094  10.910
74368W        W42731  15.292  18.126   9.647
74369W        W42732  15.282  37.413  13.473
74370W        W42733  17.092  37.907  11.103
74371W        W42734   6.346  19.189   4.264
74372W        W42735   5.917  15.703  12.864
74373W        W42736  29.526  10.160   4.602
74374W        W42737  39.895   0.819  11.561
74375W        W42738  25.033   7.805  14.996
74376W        W42739  26.042   7.307  10.438
74377W        W42740  35.037  20.207  11.997
74378W        W42741  30.123  26.506  12.387
74379W        W42742   8.327  31.401  13.366
74380W        W42743  33.585  24.026   0.804
74381W        W42744  34.382  14.644  10.598
74382W        W42745  27.086  14.109  13.528
74383W        W42746  18.738  43.780   5.571
74384W        W42747  31.089  44.942  14.945
74385W        W42748  40.918  32.440   3.772
74386W        W42749  36.972  17.622   3.275
74387W        W42750  30.103  34.579  14.493
74388W        W42751  24.668  18.569   1.718
74389W        W42752  42.423  34.045  12.485
74390W        W42753  28.103  43.967  11.971
74391W        W42754  36.089   3.402  13.818
74392W        W42755  23.238  41.420  13.910
74393W        W42756  32.613  15.187   2.705
74394W        W42757  41.297  16.795   0.787
74395W        W42758  26.642   7.834  10.615
74396W        W42759  24.516  43.342   3.295
74397W        W42760   3.293  42.344  13.416
74398W        W42761  38.534  20.564   3.737
74399W        W42762  24.209  14.691   4.177
74400W        W42763   5.792  24.229  10.612
74401W        W42764  19.602   8.750  13.358
74402W        W42765  41.367  44.329  10.638
74403W        W42766  17.184   9.197  13.036
74404W        W42767  17.634  29.974  14.772
74405W        W42768  44.462   8.313  10.913
74406W        W42769  26.512   4.322  13.936
74407W        W42770   6.371   3.220  11.891
74408W        W42771  21.149  36.093  14.995
74409W        W42772  40.307  22.656   4.286
74410W        W42773   8.254   9.173  13.455
74411W        W42774  33.090  30.137  13.042
74412W        W42775  42.453  16.727  11.443
74413W        W42776  23.191  29.604  14.016
74414W        W42777  26.631   1.817   0.475
74415W        W42778   9.713  22.057  13.030
74416W        W42779  42.358   0.862   0.747
74417W        W42780  16.311  34.559  14.511
74418W        W42781  31.042   9.344  14.447
74419W        W42782   3.823  35.465   3.366
74420W        W42783  24.648   9.736  12.848
74421W        W42784  16.612  38.991  10.980
74422W        W42785  11.779   6.306  10.919
74423W        W42786  13.182   5.849   1.919
74424W        W42787   6.843   3.272   3.769
74425W        W42788   5.909   3.929   2.371
74426W        W42789  38.450  11.682   4.336
74427W        W42790  35.044  32.405   1.783
74428W        W42791  21.605  28.524   3.357
74429W        W42792  38.047  43.849  11.384
74430W        W42793  29.591  29.516  11.408
74431W        W42794  24.505  27.535  12.915
74432W        W42795  27.106   0.482   2.349
74433W        W42796   9.222  17.558   1.702
74434W        W42797  23.241   7.396   4.348
74435W        W42798  38.046  29.471   1.355
74436W        W42799  35.084  26.047  14.389
74437W        W42800   7.819  30.415  14.856
74438W        W42801  10.138  12.662   2.347
74439W        W42802  44.782   5.846   1.415
74440W        W42803  14.187  39.358  13.882
74441W        W42804  27.033  37.541   4.836
74442W        W42805  17.209   6.800  13.380
74443W        W42806   6.256  35.977  12.034
74444W        W42807  15.128  17.688   2.363
74445W        W42808  35.370  34.967   4.789
74446W        W42809  10.225  19.233   1.352
74447W        W42810  17.158  27.483  14.999
74448W        W42811   2.462  44.981  14.867
74449W        W42812  16.715  40.892  12.502
74450W        W42813  14.339  41.298   3.195
74451W        W42814  28.517  29.061   1.720
74452W        W42815  30.502  39.396  14.490
74453W        W42816  41.026  32.094   3.852
74454W        W42817  34.873  17.266   3.346
74455W        W42818  36.572  22.038   4.646
74456W        W42819  23.676   3.216  10.505
74457W        W42820   5.709   5.714  11.016
74458W        W42821   8.730  18.551  10.514
74459W        W42822  41.368  33.512   5.102
74460W        W42823  41.024  39.868  12.010
74461W        W42824  21.088  38.024   3.282
74462W        W42825  24.585  31.137   2.805
74463W        W42826  30.612   0.905   0.399
74464W        W42827   5.932  20.611  10.938
74465W        W42828  41.352  34.932  14.003
74466W        W42829  31.990  27.028  12.343
74467W        W42830  24.541  15.290   3.170
74468W        W42831  33.971  16.139   1.237
74469W        W42832  42.930   1.909   4.608
74470W        W42833   7.677  11.691   4.795
74471W        W42834  21.702  29.425   0.951
74472W        W42835  13.799  23.050   3.693
74473W        W42836  22.208  33.424   1.740
74474W        W42837  44.479  20.555  11.048
74475W        W42838   2.436   4.811   4.114
74476W        W42839  29.538  20.044   2.382
74477W        W42840  37.578  41.922  10.493
74478W        W42841  43.428  32.486   2.847
74479W        W42842  30.014  17.630   2.312
74480W        W42843  35.087  41.442  14.021
74481W        W42844  20.614  43.007  12.001
74482W        W42845  10.736  28.471   1.280
74483W        W42846  35.957  41.361   0.916
74484W        W42847  24.109  32.936  13.432
74485W        W42848  39.487   3.830  10.953
74486W        W42849  25.630  12.310  13.404
74487W        W42850  32.390  16.236   4.607
74488W        W42851   0.402  43.820   2.199
74489W        W42852  20.717  33.433   2.796
74490W        W42853  34.063  32.119   3.630
74491W        W42854   5.414  16.150   0.952
74492W        W42855  32.040   0.856   0.858
74493W        W42856  17.284  39.009  12.517
74494W        W42857  22.032  17.769   3.252
74495W        W42858  15.780   6.681   4.625
74496W        W42859  23.507  10.144  14.357
74497W        W42860  43.512   7.342  13.344
74498W        W42861  18.645  14.658   4.778
74499W        W42862  16.782  34.038  11.486
74500W        W42863  23.996  21.256   3.762
74501W        W42864  18.060  16.704   1.244
74502W        W42865   5.692  12.149  14.847
74503W        W42866  22.718  37.083  10.141
74504W        W42867  15.690  11.771   0.291
74505W        W42868  15.670  44.438   2.330
74506W        W42869  27.641  17.231  11.122
74507W        W42870  40.534  27.972   1.222
74508W        W42871  30.909  41.437  12.034
74509W        W42872  38.998  44.452   1.871
74510W        W42873  23.021  25.548   1.821
74511W        W42874  28.575  43.412  10.979
74512W        W42875  30.516   7.791  13.859
74513W        W42876   8.212   3.874   3.680
74514W        W42877  32.975   8.792  13.863
74515W        W42878  23.160  32.517  12.415
74516W        W42879   4.285  14.738   2.388
74517W        W42880  44.388  18.656   5.133
74518W        W42881  18.737  30.133  14.975
74519W        W42882   6.282  27.683  12.905
74520W        W42883   7.756   0.303  13.865
74521W        W42884  27.145  25.627  13.512
74522W        W42885  44.956  39.874  10.900
74523W        W42886   0.834  44.426  11.079
74524W        W42887  31.953  23.067   1.817
74525W        W42888  20.731  13.107  11.439
74526W        W42889  41.302  31.960   2.752
74527W        W42890  36.920  22.127  11.988
74528W        W42891  32.450  44.754  10.448
74529W        W42892  17.755  34.026   1.712
74530W        W42893  15.180  15.232  11.043
74531W        W42894  44.880  42.816  10.021
74532W        W42895  31.545  41.438   2.415
74533W        W42896   7.766  28.167  13.911
74534W        W42897   2.262  39.320  14.379
74535W        W42898  10.152  33.516   4.233
74536W        W42899  23.158  44.826   0.960
74537W        W42900  14.105  39.039  11.995
74538W        W42901  15.732   6.873  12.866
74539W        W42902  20.668  26.032   3.265
74540W        W42903  22.582  33.426  12.847
74541W        W42904  17.291  28.001   0.247
74542W        W42905  23.986   2.303  14.393
74543W        W42906   1.902  13.819   4.643
74544W        W42907  13.715  30.467  13.517
74545W        W42908  37.527  26.054   0.436
74546W        W42909  29.632  40.910   4.238
74547W        W42910  32.908  41.919   3.642
74548W        W42911  25.094  27.671   1.726
74549W        W42912  44.434  35.931   2.815
74550W        W42913  36.971  30.954  12.391
74551W        W42914  43.353  34.439  14.952
74552W        W42915  33.605   1.849  14.320
74553W        W42916   7.334  10.219  12.530
74554W        W42917   5.854  30.049  12.466
74555W        W42918  39.481  33.612  12.042
74556W        W42919   9.358  22.194   2.228
74557W        W42920  29.137   6.897  11.871
74558W        W42921  37.876  10.364   0.867
74559W        W42922  12.165  13.236   1.818
74560W        W42923  30.507  42.872  12.351
74561W        W42924  13.652  26.970  14.323
74562W        W42925   7.845  15.713   2.192
74563W        W42926  28.053   8.871   1.746
74564W        W42927  20.055  31.948   1.700
74565W        W42928  23.592   0.408  14.424
74566W        W42929  35.102  36.091   1.374
74567W        W42930  28.499  16.755  14.458
74568W        W42931  20.274   3.222  10.405
74569W        W42932  38.029   0.973   4.241
74570W        W42933  12.220  22.022   4.703
74571W        W42934  29.126  37.941   0.866
74572W        W42935  31.912  26.612  11.612
74573W        W42936  37.462   5.322   0.802
74574W        W42937  23.660  24.680  14.806
74575W        W42938   3.423  25.570  10.449
74576W        W42939  14.253  43.329  10.503
74577W        W42940  23.600   6.712  11.566
74578W        W42941  17.733  33.965  13.518
74579W        W42942   7.744  23.625   1.722
74580W        W42943  34.977   6.761  11.552
74581W        W42944  26.185   2.784   3.213
74582W        W42945  23.181  26.572  11.393
74583W        W42946  43.471  10.768  10.553
74584W        W42947  31.999   5.711  11.444
74585W        W42948  32.058  10.736   2.791
74586W        W42949  22.166  10.139  13.831
74587W        W42950  32.070  28.075   1.885
74588W        W42951  13.351  40.962   0.855
74589W        W42952  41.814  43.957   2.412
74590W        W42953  32.055  25.128   3.822
74591W        W42954  12.313   1.851  10.568
74592W        W42955  36.389  23.666   0.801
74593W        W42956  18.155  28.557   2.332
74594W        W42957  27.173  44.867   4.201
74595W        W42958   3.434  27.023  14.925
74596W        W42959  17.296  14.613  14.398
74597W        W42960  39.998  13.662  10.926
74598W        W42961   7.287  23.637  14.824
74599W        W42962   2.965  36.845   2.404
74600W        W42963   3.411   8.820  12.058
74601W        W42964  23.131   1.330   0.768
74602W        W42965   1.250  32.483   3.675
74603W        W42966  33.006  13.781   2.674
74604W        W42967  11.204  37.880  11.051
74605W        W42968  11.766  12.330   2.266
74606W        W42969  42.498  34.440   2.396
74607W        W42970  11.756  39.822   2.672
74608W        W42971  36.358  13.671   3.630
74609W        W42972  41.917  36.033  10.610
74610W        W42973  20.228   6.838  10.527
74611W        W42974  32.505  16.708  12.966
74612W        W42975  28.054  10.258  14.350
74613W        W42976  42.979  18.226   3.635
74614W        W42977  25.015  35.909   4.778
74615W        W42978  27.051  39.459   0.407
74616W        W42979  29.097   9.719   1.272
74617W        W42980  21.056   3.907   0.319
74618W        W42981  25.994  26.100  12.432
74619W        W42982   7.829  10.758   4.656
74620W        W42983   0.747  23.598   0.868
74621W        W42984  27.942  44.968  14.496
74622W        W42985  10.252  22.601   0.306
74623W        W42986  25.521  43.843  13.960
74624W        W42987  36.409  27.968  14.987
74625W        W42988  25.034  21.017  11.582
74626W        W42989  33.103  28.626   1.700
74627W        W42990  30.063  44.827   0.253
74628W        W42991  44.497  39.351   0.727
74629W        W42992  27.970  44.357  12.871
74630W        W42993  13.330  19.074  14.001
74631W        W42994  19.049   8.892  10.952
74632W        W42995  37.517   4.733  14.983
74633W        W42996  36.943  33.536   1.863
74634W        W42997  34.467   9.369  12.854
74635W        W42998  14.217  44.971   1.788
74636W        W42999  15.194  16.138  11.016
74637W        W43000  23.702  26.000   2.373
74638W        W43001  12.841  28.587   3.804
74639W        W43002  13.192   5.773   2.728
74640W        W43003  27.159  20.709  11.099
74641W        W43004  23.162  21.253  11.094
74642W        W43005  22.035  32.427  14.474
74643W        W43006  32.972  22.151   1.337
74644W        W43007  42.427   5.276  14.801
74645W        W43008  32.956  42.449  13.793
74646W        W43009  26.459  42.824  10.418
74647W        W43010  26.027  42.420   1.222
74648W        W43011  32.475  13.187   2.789
74649W        W43012  12.775  19.167  10.408
74650W        W43013   7.319  41.376   3.841
74651W        W43014  25.616   4.422   3.676
74652W        W43015   3.747  43.446  12.067
74653W        W43016  20.222  38.365   2.747
74654W        W43017  33.977  21.574   4.162
74655W        W43018  41.293  44.771  13.877
74656W        W43019  31.935  12.218   1.899
74657W        W43020  38.035  24.030   0.298
74658W        W43021  41.865  44.963   0.367
74659W        W43022  21.133  29.582   5.283
74660W        W43023  44.757   0.360  14.815
74661W        W43024  33.933  42.813  14.931
74662W        W43025  21.564  40.804  14.917
74663W        W43026  17.095  31.421   1.215
74664W        W43027  44.831  26.154  12.967
74665W        W43028  41.355  33.062   3.263
74666W        W43029   4.700  19.757   5.108
74667W        W43030  17.073  26.041   3.352
74668W        W43031   2.268   0.376  12.026
74669W        W43032  11.230  35.879  11.044
74670W        W43033  25.592  15.751  13.995
74671W        W43034  29.963  18.061  12.856
74672W        W43035   5.295   9.656  13.436
74673W        W43036  36.355  38.838  13.308
74674W        W43037   7.181  14.188   4.784
74675W        W43038  40.031  21.737  12.896
74676W        W43039  21.618  30.032  12.974
74677W        W43040  44.345   5.780  12.918
74678W        W43041  39.883  37.086   1.231
74679W        W43042  22.998  44.839   4.319
74680W        W43043   0.368  33.986   1.851
74681W        W43044  37.494  38.562   3.823
74682W        W43045   9.852  43.495  14.899
74683W        W43046  10.333  17.784   0.914
74684W        W43047   0.760  38.938   2.829
74685W        W43048  39.974   3.934   2.388
74686W        W43049  44.853  17.075  11.015
74687W        W43050  33.570  15.271   3.700
74688W        W43051  32.447  12.138   0.793
74689W        W43052   8.859  44.287   3.796
74690W        W43053  13.259  26.961   4.254
74691W        W43054   7.210   8.737   4.661
74692W        W43055  36.869  32.982   0.870
74693W        W43056  10.748  31.487  13.369
74694W        W43057  42.331   6.834  14.423
74695W        W43058   2.260  42.791   3.775
74696W        W43059  41.795   5.286  14.835
74697W        W43060  38.474  30.061  14.947
74698W        W43061  16.280   6.188  14.460
74699W        W43062   0.978  31.931  10.099
74700W        W43063   2.431  22.654   5.680
74701W        W43064  10.378  16.796  13.041
74702W        W43065  37.501  12.223   3.153
74703W        W43066  33.132   0.396  14.002
74704W        W43067  31.033  18.219  10.936
74705W        W43068  21.564  33.066   0.954
74706W        W43069  35.427  33.069   0.463
74707W        W43070  20.102  18.774  11.567
74708W        W43071  33.934  37.496   2.828
74709W        W43072   1.749  22.529  14.367
74710W        W43073  13.704   0.290   4.156
74711W        W43074  18.276  28.560  11.931
74712W        W43075  24.035   0.346  14.019
74713W        W43076   4.396  43.313   9.625
74714W        W43077  11.799  31.584   3.282
74715W        W43078   8.809  17.114  13.384
74716W        W43079   3.842  16.128  12.535
74717W        W43080  24.653   1.270  12.866
74718W        W43081  41.951   9.324  10.476
74719W        W43082  14.613  43.912   0.281
74720W        W43083  25.123  15.763  12.360
74721W        W43084   4.373   5.437  11.427
74722W        W43085  12.695   8.793   0.324
74723W        W43086  44.845  38.467   3.359
74724W        W43087  24.619  36.577   3.188
74725W        W43088  18.582  12.220   0.851
74726W        W43089  41.468  23.107   4.259
74727W        W43090  28.542  11.362   1.385
74728W        W43091   4.223   7.714  10.932
74729W        W43092   0.972  23.656   3.688
74730W        W43093  11.684  16.286   2.890
74731W        W43094  27.086  36.097   3.264
74732W        W43095  35.431  26.153   4.182
74733W        W43096   5.855  17.557  11.006
74734W        W43097  25.056   4.742   0.943
74735W        W43098  33.128  35.036  13.486
74736W        W43099  26.186  21.663  10.456
74737W        W43100  44.866  30.143   3.338
74738W        W43101  11.852  37.545   5.186
74739W        W43102   0.355  10.671  13.015
74740W        W43103   1.351   8.676   1.443
74741W        W43104   5.729   9.777   4.669
74742W        W43105  37.015  40.357   1.415
74743W        W43106  13.301  35.886  13.458
74744W        W43107  31.968   1.976  13.501
74745W        W43108   1.287  19.113   4.647
74746W        W43109  36.547   7.683   3.720
74747W        W43110  30.986   7.252   0.288
74748W        W43111  20.710  43.479  13.955
74749W        W43112  20.532  22.642   3.663
74750W        W43113  30.623  35.553   1.227
74751W        W43114  15.225   7.240   3.193
74752W        W43115  34.507  10.230  12.572
74753W        W43116  11.686  33.089  14.988
74754W        W43117  14.217  36.021   2.775
74755W        W43118  29.663   0.849   5.100
74756W        W43119  12.762  19.075  13.471
74757W        W43120   8.819  42.806  11.918
74758W        W43121   7.765   2.924   4.735
74759W        W43122  34.872   7.693  12.905
74760W        W43123  44.336  17.740   1.723
74761W        W43124  41.969   0.902  10.890
74762W        W43125  25.097  35.488  14.972
74763W        W43126  39.535   0.312   3.348
74764W        W43127   8.161  25.593  13.364
74765W        W43128  25.557   2.256  10.625
74766W        W43129  23.495  42.956  13.365
74767W        W43130  32.419  12.709  10.922
74768W        W43131  31.143  17.768  14.933
74769W        W43132  15.259  37.481  11.039
74770W        W43133  24.994  25.115   0.288
74771W        W43134   3.816  13.145   0.449
74772W        W43135  19.770  44.977  14.894
74773W        W43136  18.054   6.231  10.446
74774W        W43137  39.036   2.286   0.459
74775W        W43138  31.641  13.715  13.044
74776W        W43139  10.656  35.460  14.888
74777W        W43140  19.610   3.954  14.761
74778W        W43141  27.607  36.004   1.306
74779W        W43142  23.104   4.394  14.375
74780W        W43143  16.082  35.561   1.707
74781W        W43144  23.709  24.616  13.415
74782W        W43145  36.893  38.544   2.182
74783W        W43146  19.222  24.549  13.400
74784W        W43147  34.093  29.165   3.680
74785W        W43148  42.998  18.633  11.924
74786W        W43149  22.105  20.627  12.877
74787W        W43150  13.611  14.202   3.339
74788W        W43151  13.158   6.262  14.486
74789W        W43152  25.101   1.895  12.557
74790W        W43153  35.554   2.232  13.453
74791W        W43154  12.852  38.430  11.016
74792W        W43155  25.470   6.786   0.477
74793W        W43156   6.333  18.681  12.949
74794W        W43157  13.803  17.285  14.005
74795W        W43158  18.159  44.442  10.581
74796W        W43159  40.484   4.755  13.406
74797W        W43160  26.094  42.807   2.842
74798W        W43161  42.306   0.870   0.361
74799W        W43162  14.216   5.299  12.405
74800W        W43163  24.056  18.156   0.266
74801W        W43164  28.650  14.294   4.678
74802W        W43165  29.428  37.527   2.393
74803W        W43166   4.405  32.634  10.541
74804W        W43167  35.944  25.093  13.791
74805W        W43168  24.641  38.382  12.544
74806W        W43169  41.357  21.588  11.600
74807W        W43170  37.987  11.701  11.563
74808W        W43171  13.730   5.842  10.603
74809W        W43172  13.195  34.928   3.356
74810W        W43173  13.695  22.224   2.330
74811W        W43174  32.888  12.291  13.468
74812W        W43175  30.064  11.293   3.868
74813W        W43176  42.886  20.215   1.723
74814W        W43177  22.026  28.634  13.442
74815W        W43178   3.785  20.691   4.646
74816W        W43179  34.370   1.817   4.600
74817W        W43180   6.309  42.795   4.636
74818W        W43181  24.668  44.783  14.880
74819W        W43182  38.526  22.542   1.910
74820W        W43183  30.134  17.703   3.793
74821W        W43184  15.805  41.517  14.420
74822W        W43185  16.099   9.700   3.200
74823W        W43186  39.441  42.887   2.286
74824W        W43187  18.688   4.850  10.548
74825W        W43188  39.004   9.271  11.446
74826W        W43189   7.865  40.454   5.140
74827W        W43190  40.346  44.894  11.433
74828W        W43191  23.701  41.392  11.414
74829W        W43192   2.351   5.699  10.587
74830W        W43193  41.353  10.802  11.384
74831W        W43194  10.725  28.051  13.943
74832W        W43195  34.374  16.790   0.782
74833W        W43196   5.851   5.430  12.381
74834W        W43197  31.495  39.538   3.309
74835W        W43198  20.267  30.957  13.941
74836W        W43199  35.916   2.272   4.785
74837W        W43200   3.451  21.095   4.156
74838W        W43201  31.565  44.353   3.351
74839W        W43202  33.542  32.030   2.846
74840W        W43203  30.653  34.465   4.727
74841W        W43204  12.324  11.660   3.641
74842W        W43205  20.691  28.009   3.166
74843W        W43206  43.408  34.397   1.789
74844W        W43207  43.979   3.804  11.597
74845W        W43208  33.468  22.617  13.892
74846W        W43209  30.134  12.658  10.417
74847W        W43210  29.931  20.720   1.822
74848W        W43211  37.515  27.454   3.740
74849W        W43212  14.186   0.282   4.722
74850W        W43213   7.898  29.043   3.854
74851W        W43214  37.507  35.989  12.951
74852W        W43215  18.780  12.266  14.924
74853W        W43216  13.766   5.737   9.963
74854W        W43217  27.608  35.890   3.353
74855W        W43218  28.976  17.068  14.305
74856W        W43219  38.842   7.899   1.827
74857W        W43220  29.951  21.522   0.817
74858W        W43221   6.800   0.483   1.392
74859W        W43222  14.825  31.640  11.499
74860W        W43223  35.924  32.526  13.048
74861W        W43224  18.156  11.798   2.365
74862W        W43225  31.058  24.984  10.628
74863W        W43226  26.054  16.583  13.431
74864W        W43227  39.431  44.844  11.413
74865W        W43228  16.791  42.777   5.612
74866W        W43229  22.586  26.128  14.332
74867W        W43230  44.843   0.782   1.773
74868W        W43231  39.445  14.714   3.650
74869W        W43232  32.078  27.505  11.934
74870W        W43233  25.140  18.762   4.795
74871W        W43234  33.919   4.220  13.493
74872W        W43235   3.303  13.151  12.912
74873W        W43236   5.839  31.970  11.911
74874W        W43237  19.678  11.356   2.273
74875W        W43238  21.043  33.575  11.030
74876W        W43239  25.515  22.747  14.819
74877W        W43240  15.206  26.078   2.752
74878W        W43241   6.207  36.562  12.902
74879W        W43242  30.948  41.408  13.323
74880W        W43243  33.933  41.408   3.265
74881W        W43244  18.051  35.591  14.292
74882W        W43245   3.421  22.570  12.078
74883W        W43246  34.867  11.782   4.788
74884W        W43247   2.447   3.764  12.843
74885W        W43248   7.282  38.556  14.859
74886W        W43249   9.720  10.704   0.310
74887W        W43250   3.264   1.408   2.377
74888W        W43251  25.042  17.103  14.890
74889W        W43252  25.696  42.318   1.779
74890W        W43253  30.983  41.878   3.681
74891W        W43254  11.761  25.176   4.781
74892W        W43255  31.082  38.522   2.790
74893W        W43256  29.663  10.761   1.334
74894W        W43257  36.874  16.659  11.060
74895W        W43258  36.572  13.615  11.383
74896W        W43259  11.290  36.877  13.445
74897W        W43260  23.681   8.186  14.851
74898W        W43261  30.042  12.637   3.794
74899W        W43262  38.370  15.182  14.442
74900W        W43263  28.941  35.421   3.859
74901W        W43264  33.058  41.995  12.956
74902W        W43265  39.350  44.338  10.918
74903W        W43266  29.963   2.284  14.891
74904W        W43267  32.608  25.174   3.366
74905W        W43268  21.619   3.783   0.443
74906W        W43269  21.243  39.556   2.868
74907W        W43270  19.071  15.249  11.998
74908W        W43271  37.407  43.492   2.864
74909W        W43272  42.395   6.295  12.472
74910W        W43273   9.167  39.851  11.899
74911W        W43274   8.178  37.392  13.926
74912W        W43275  43.467  35.871  14.031
74913W        W43276  35.106  41.809  14.277
74914W        W43277  40.540  21.132  10.479
74915W        W43278   4.773  21.744  11.980
74916W        W43279  44.298  41.348   0.477
74917W        W43280  19.178  16.207  11.920
74918W        W43281  28.072   6.403  11.897
74919W        W43282  10.667  33.047   1.427
74920W        W43283  33.874  20.744   2.209
74921W        W43284  17.246  20.579   0.923
74922W        W43285  44.772  22.620   4.301
74923W        W43286   8.789  21.682   3.677
74924W        W43287  26.593   3.353  11.586
74925W        W43288  19.606  36.552  13.460
74926W        W43289  15.721  34.518  13.464
74927W        W43290   1.301  21.652  14.454
74928W        W43291  27.601   9.319  12.420
74929W        W43292  10.258   8.880  10.147
74930W        W43293  35.925  23.691  11.890
74931W        W43294  12.176   9.694   4.261
74932W        W43295  22.245   9.277  12.504
74933W        W43296  25.549   6.780  13.830
74934W        W43297   4.744  34.590   3.235
74935W        W43298  18.253   7.305   3.660
74936W        W43299  20.639  37.999   3.834
74937W        W43300  29.435  27.012   3.186
74938W        W43301   3.269  31.905   2.706
74939W        W43302  39.921   7.336   2.672
74940W        W43303  22.222  17.228  10.971
74941W        W43304   1.758  35.881   3.810
74942W        W43305  25.204   3.358   9.951
74943W        W43306   5.898  28.024  11.543
74944W        W43307  11.361  31.084   3.642
74945W        W43308  44.769   7.847   2.277
74946W        W43309   5.372  28.621  13.025
74947W        W43310  36.545  32.561   1.281
74948W        W43311  35.107  22.055   2.239
74949W        W43312  15.263  13.189  13.371
74950W        W43313  43.778  41.040   3.344
74951W        W43314   1.956  41.959   4.710
74952W        W43315  10.872  23.217  10.550
74953W        W43316  42.322   1.858   2.231
74954W        W43317  37.427  13.202   3.218
74955W        W43318  21.144  20.608   0.804
74956W        W43319  29.016  23.075   3.213
74957W        W43320   4.337   8.880  11.913
74958W        W43321   4.854  13.197   3.779
74959W        W43322  39.391  24.049   4.613
74960W        W43323  41.932  19.729   1.827
74961W        W43324  37.970  34.448  14.418
74962W        W43325  38.054  31.423   3.683
74963W        W43326  32.065  35.506   2.782
74964W        W43327  44.432  14.273   3.632
74965W        W43328   4.773  38.061  14.348
74966W        W43329   6.226   6.239  10.581
74967W        W43330  32.480  32.063   1.358
74968W        W43331   4.864  28.462  13.818
74969W        W43332  26.176  26.999  11.964
74970W        W43333  42.423   7.352  12.048
74971W        W43334  19.570  25.118   0.311
74972W        W43335  13.285   2.235   3.218
74973W        W43336  15.104  20.253  13.888
74974W        W43337  30.449   0.987  12.915
74975W        W43338  13.835   2.872  13.979
74976W        W43339  28.525  28.984   1.449
74977W        W43340  18.703  33.068  14.967
74978W        W43341   9.839  19.675  10.550
74979W        W43342  31.942  43.780   4.160
74980W        W43343  40.454  12.645   0.261
74981W        W43344  14.734  39.534  12.861
74982W        W43345  44.764  28.020  14.777
74983W        W43346  34.951   2.959  12.536
74984W        W43347  24.016  21.219   5.289
74985W        W43348   1.849  21.677   4.736
74986W        W43349   8.855   2.965  14.868
74987W        W43350  25.204  35.390  10.948
74988W        W43351  21.544  38.833   2.740
74989W        W43352   9.325  14.225   2.333
74990W        W43353   4.297  11.844   3.172
74991W        W43354  40.462  21.699  12.859
74992W        W43355  16.746  42.408   5.285
74993W        W43356   5.278  37.001   0.927
74994W        W43357   5.349  42.336   0.451
74995W        W43358  39.911  12.311  14.787
74996W        W43359  30.450  18.238  12.422
74997W        W43360  10.800  20.653   1.917
74998W        W43361  16.098   4.286  11.465
74999W        W43362  33.054  38.459  10.980
75000W        W43363  30.553  25.519   1.926
75001W        W43364  43.488   1.925  11.546
75002W        W43365  34.437  35.440  11.916
75003W        W43366   0.437   5.249   4.222
75004W        W43367  12.251  19.550   5.166
75005W        W43368  42.353  26.622  13.536
75006W        W43369  16.171  20.223   4.794
75007W        W43370   1.439  40.025  12.384
75008W        W43371  34.420   9.813   0.269
75009W        W43372  17.743  12.231   3.692
75010W        W43373  25.493  22.026  12.541
75011W        W43374  32.417  21.052  11.998
75012W        W43375  11.222  16.708   2.802
75013W        W43376  34.032  34.958  12.019
75014W        W43377   8.731   2.799   1.905
75015W        W43378  17.685   8.896  12.907
75016W        W43379  10.732  21.683   2.235
75017W        W43380  27.940  33.936   0.902
75018W        W43381  14.200  39.959  10.919
75019W        W43382  32.517  44.881   1.782
75020W        W43383  24.044  29.154   0.772
75021W        W43384  19.557  17.180  11.124
75022W        W43385   7.342   7.868  10.504
75023W        W43386   7.284  12.742  11.095
75024W        W43387  34.924  16.702   1.919
75025W        W43388  20.741  43.824  13.327
75026W        W43389   9.719   9.808   4.330
75027W        W43390  39.534  31.905   3.242
75028W        W43391   0.443  33.062  11.454
75029W        W43392  40.958   8.341  12.459
75030W        W43393  34.116   7.874   4.724
75031W        W43394  11.328  17.137  14.887
75032W        W43395  18.782  39.317  10.955
75033W        W43396   5.384  24.592   2.873
75034W        W43397  10.734  32.568  12.872
75035W        W43398   6.204   7.277  10.889
75036W        W43399  44.338  22.169   2.354
75037W        W43400  21.726  35.378  12.457
75038W        W43401  32.477   7.866   1.369
75039W        W43402  34.025   6.190   1.784
75040W        W43403  27.639  28.104   1.820
75041W        W43404  38.000  12.236  10.906
75042W        W43405  44.766  39.869   0.259
75043W        W43406  39.483   4.862  10.076
75044W        W43407  26.497   9.662   2.726
75045W        W43408   8.757  12.648   4.249
75046W        W43409   8.212   7.711   3.204
75047W        W43410  13.665  37.498  11.094
75048W        W43411  43.925  38.476   2.779
75049W        W43412  14.178  15.085  11.381
75050W        W43413  38.873  44.504   4.160
75051W        W43414   3.761  18.635  10.489
75052W        W43415   6.769   7.833   0.966
75053W        W43416  31.965  28.117  10.971
75054W        W43417  32.398  44.330  13.449
75055W        W43418  21.233  32.955   2.270
75056W        W43419  36.453  12.229  13.932
75057W        W43420   6.878   4.723  11.376
75058W        W43421  10.285  17.153  14.885
75059W        W43422  44.756   8.261  11.384
75060W        W43423  44.847  23.635  14.282
75061W        W43424  44.765  34.093  13.408
75062W        W43425  23.576  19.144   4.757
75063W        W43426  41.876  33.075   0.878
75064W        W43427  38.386  16.660   3.347
75065W        W43428  28.150  16.803   0.763
75066W        W43429  13.841  27.191  12.351
75067W        W43430   6.426   1.773   0.829
75068W        W43431   0.951  18.123  13.532
75069W        W43432  37.011   5.821  11.512
75070W        W43433  32.932  15.791  10.459
75071W        W43434  28.014  41.797  13.901
75072W        W43435  41.931  40.386  12.070
75073W        W43436  14.269  41.440  11.914
75074W        W43437  38.918   3.391  13.510
75075W        W43438   9.244   0.323   2.843
75076W        W43439  14.714  35.526   4.763
75077W        W43440  37.482  25.050  14.996
75078W        W43441  34.957   8.278   4.819
75079W        W43442  21.752  25.538  10.500
75080W        W43443  28.442  25.509   1.727
75081W        W43444  29.575  15.297   5.292
75082W        W43445   7.208  39.457   4.601
75083W        W43446  27.604   6.204  12.867
75084W        W43447  26.081  24.563   4.312
75085W        W43448  14.735  34.010   1.227
75086W        W43449  15.187  30.150  12.856
75087W        W43450  29.044   8.385  11.567
75088W        W43451  39.998  28.650   0.964
75089W        W43452  21.131  33.583   2.679
75090W        W43453  28.650   4.878   0.883
75091W        W43454  30.958  40.029  14.767
75092W        W43455  42.787   5.862  13.365
75093W        W43456   4.257   7.777   4.315
75094W        W43457   3.254  43.936  10.121
75095W        W43458  29.118  11.718   4.219
75096W        W43459  41.019  32.964  11.463
75097W        W43460   8.656   6.798  14.842
75098W        W43461  32.091  24.118  12.033
75099W        W43462  37.410  13.261   3.772
75100W        W43463   7.746  44.817   1.336
75101W        W43464  12.136  23.091   0.254
75102W        W43465  23.013  15.312  12.925
75103W        W43466  14.303  26.987   2.849
75104W        W43467  25.187  43.871   1.727
75105W        W43468   0.799  30.048  12.019
75106W        W43469  18.612  22.083  14.869
75107W        W43470  30.077  17.609  14.943
75108W        W43471  42.339  36.087   4.299
75109W        W43472  44.486   4.448   2.396
75110W        W43473   7.409  19.112   2.205
75111W        W43474  28.459  25.500  10.465
75112W        W43475  31.485  18.110   2.308
75113W        W43476   5.405  30.057  11.024
75114W        W43477  12.725   6.861  10.576
75115W        W43478  38.439  26.547  11.900
75116W        W43479  31.036   1.429  14.963
75117W        W43480  39.484   3.948   2.273
75118W        W43481   6.906  41.788  13.521
75119W        W43482  33.523  40.324  14.897
75120W        W43483  40.467  35.538  14.306
75121W        W43484   8.749  38.027  12.879
75122W        W43485   1.393  21.668  14.808
75123W        W43486   2.950  13.220   0.837
75124W        W43487  41.976  39.525  13.960
75125W        W43488  30.653   2.928  12.841
75126W        W43489   2.318  14.316  11.470
75127W        W43490   1.453  19.255  14.874
75128W        W43491  18.087   2.817  11.087
75129W        W43492  15.162   5.785  14.790
75130W        W43493   8.833  10.698  11.012
75131W        W43494  11.717  31.411   0.932
75132W        W43495  13.152  26.053   1.865
75133W        W43496   3.940  21.046   4.310
75134W        W43497  13.301  17.063  12.839
75135W        W43498  19.115  19.114  11.872
75136W        W43499  21.612  42.022  11.998
75137W        W43500  29.007  31.093   4.285
75138W        W43501   6.720  40.805  12.899
75139W        W43502  26.645  44.884  10.892
75140W        W43503   3.378  29.446   4.731
75141W        W43504   5.755  18.222   3.633
75142W        W43505   7.747   4.916   4.137
75143W        W43506  28.480  22.523   2.772
75144W        W43507  31.914   7.314   0.454
75145W        W43508  40.816  34.536  13.976
75146W        W43509  33.447   6.354  11.054
75147W        W43510   7.707   0.940   2.342
75148W        W43511   2.459  43.335  14.873
75149W        W43512   7.217   0.365   1.909
75150W        W43513  28.057  21.032  12.044
75151W        W43514  37.079  44.840   1.435
75152W        W43515  43.282  40.920   0.941
75153W        W43516   7.843  42.495  14.986
75154W        W43517  38.406   3.742  12.945
75155W        W43518  38.038  18.616   3.682
75156W        W43519  21.612  43.007  14.775
75157W        W43520  15.098  34.376   1.387
75158W        W43521  22.214  18.226   1.901
75159W        W43522  23.602  31.898   0.378
75160W        W43523  36.007  16.084  11.019
75161W        W43524  39.031  11.229   0.735
75162W        W43525  11.172   3.352   2.342
75163W        W43526  12.842  33.974   2.387
75164W        W43527  19.553  12.211   3.703
75165W        W43528  33.542   4.717   3.705
75166W        W43529  37.444  17.559  13.895
75167W        W43530  38.394  27.050  11.922
75168W        W43531  34.088   2.419  14.361
75169W        W43532  31.623   5.394   2.334
75170W        W43533  25.020  21.733   4.243
75171W        W43534  16.812   5.424   1.236
75172W        W43535   0.329  14.232   1.389
75173W        W43536  30.590  13.824  11.373
75174W        W43537   8.888  18.717   2.300
75175W        W43538  20.636  30.157  13.062
75176W        W43539   4.384  13.217  14.910
75177W        W43540  30.967  10.820   3.148
75178W        W43541   2.947  29.114  12.580
75179W        W43542  43.501  32.580   0.951
75180W        W43543  35.983  20.733  12.566
75181W        W43544  15.278  28.470  12.566
75182W        W43545   5.274  18.202   3.303
75183W        W43546  32.027   6.838   1.231
75184W        W43547  15.721  10.308  10.984
75185W        W43548   3.842   0.342  10.942
75186W        W43549  28.955  16.723  10.509
75187W        W43550   4.262  10.649   1.230
75188W        W43551  17.063  11.624  13.852
75189W        W43552  29.012  17.282   0.925
75190W        W43553  28.587  31.539   4.831
75191W        W43554  30.076  18.695   2.309
75192W        W43555   4.204  38.951  13.977
75193W        W43556  23.538  16.705  10.470
75194W        W43557  15.197   4.318   3.204
75195W        W43558   8.310  16.764  13.339
75196W        W43559  14.774   0.856  12.901
75197W        W43560   1.478  17.189  14.459
75198W        W43561  23.531   5.897  13.805
75199W        W43562   5.327  28.961   3.304
75200W        W43563  28.987  37.339   1.235
75201W        W43564   7.732   5.773  14.446
75202W        W43565   5.434  34.560   4.183
75203W        W43566  14.631   3.929  10.524
75204W        W43567  24.586  15.756   4.787
75205W        W43568  37.875  15.254   0.409
75206W        W43569   9.683  27.136  14.442
75207W        W43570  15.260   5.916   1.815
75208W        W43571  41.371  17.723  14.803
75209W        W43572  33.035   8.844   3.175
75210W        W43573  44.397  38.444   1.409
75211W        W43574  36.992  36.585  14.889
75212W        W43575   5.218  36.531  11.563
75213W        W43576  23.989  34.979   2.240
75214W        W43577  40.944  26.182  14.917
75215W        W43578  10.648  26.583  12.374
75216W        W43579  31.925  32.614  11.981
75217W        W43580  13.178  18.112  14.429
75218W        W43581  21.513  25.089   0.740
75219W        W43582  11.664  14.703   3.869
75220W        W43583   5.360  36.364   0.735
75221W        W43584  28.516  27.163  14.949
75222W        W43585   5.347  27.661  11.518
75223W        W43586   0.464  37.537   3.227
75224W        W43587  30.479   7.717  11.581
75225W        W43588  34.498  44.357   3.366
75226W        W43589  39.902  21.600  12.550
75227W        W43590   7.868  41.303   2.179
75228W        W43591  29.512  40.971  11.905
75229W        W43592  37.933  16.761   3.713
75230W        W43593   7.791  39.320   0.431
75231W        W43594  33.069  31.993  10.900
75232W        W43595  26.148  41.944   2.699
75233W        W43596   0.383   3.357  12.838
75234W        W43597  15.239  14.268  12.417
75235W        W43598  21.562  41.878  14.364
75236W        W43599  12.200  16.215  12.498
75237W        W43600  40.454   7.750   0.332
75238W        W43601  42.983  44.872   3.209
75239W        W43602  37.395  16.777  10.585
75240W        W43603  18.278  38.055  10.515
75241W        W43604  24.535  39.536   4.279
75242W        W43605  22.677  10.186  11.604
75243W        W43606  22.678   7.703   0.421
75244W        W43607  16.765   1.890   4.655
75245W        W43608  16.301  27.658   0.435
75246W        W43609  25.053  35.931  13.339
75247W        W43610   3.335   6.275  10.633
75248W        W43611   2.799  16.789  12.415
75249W        W43612  43.764  24.041   3.658
75250W        W43613  25.538  16.305   5.250
75251W        W43614  30.500  12.135   4.821
75252W        W43615  10.816   8.810   4.314
75253W        W43616  22.099  27.001  14.807
75254W        W43617  38.501  30.564   3.244
75255W        W43618   2.439   8.359   4.604
75256W        W43619   7.713  31.487  10.446
75257W        W43620  22.996   7.725   0.932
75258W        W43621  17.155  26.135  10.558
75259W        W43622  20.079  26.606  12.021
75260W        W43623   6.867  32.493   4.617
75261W        W43624  37.354   9.836   0.894
75262W        W43625  38.511  10.633   2.841
75263W        W43626   5.818  43.314  13.429
75264W        W43627   6.856   1.272  12.464
75265W        W43628  19.661   2.441  13.527
75266W        W43629  44.289  26.189  11.079
75267W        W43630  20.684  28.474  13.009
75268W        W43631   9.694   2.437  11.022
75269W        W43632   2.424  11.777  14.001
75270W        W43633  24.698  19.099  13.815
75271W        W43634   5.404  24.580   3.704
75272W        W43635  37.380  14.814  14.276
75273W        W43636  21.222  43.945   2.755
75274W        W43637  27.008  21.224  12.379
75275W        W43638  35.083  10.270   3.679
75276W        W43639  32.399  24.163  11.487
75277W        W43640  43.785  41.535  10.942
75278W        W43641  26.601   4.860  13.956
75279W        W43642  23.027   5.931  14.395
75280W        W43643   1.826  37.865  14.761
75281W        W43644  25.968  16.305   0.276
75282W        W43645   0.395   9.391   1.718
75283W        W43646  39.980  36.094   3.740
75284W        W43647  44.873   5.240   2.217
75285W        W43648  28.170   9.177   2.201
75286W        W43649  13.200   6.427   3.635
75287W        W43650  15.298  41.310   3.796
75288W        W43651   9.217   1.885  12.453
75289W        W43652  31.967  23.646  12.377
75290W        W43653  33.909   9.829   3.861
75291W        W43654   7.787  18.131   4.218
75292W        W43655  18.711  36.491   1.392
75293W        W43656   5.303  36.889   0.364
75294W        W43657   2.258  24.050  11.504
75295W        W43658  23.717  38.483  12.555
75296W        W43659   0.387   4.385  13.398
75297W        W43660  32.531  44.796  10.094
75298W        W43661  21.663  40.464   9.992
75299W        W43662   3.723  44.362  14.370
75300W        W43663  37.431  30.933   2.195
75301W        W43664   5.327  18.141   1.885
75302W        W43665  40.931   0.433  12.894
75303W        W43666  26.547  17.640  13.823
75304W        W43667  24.122  16.210  14.905
75305W        W43668  28.470  18.682  13.932
75306W        W43669  40.502  23.539  13.455
75307W        W43670  12.776  37.016   2.728
75308W        W43671  28.941  27.943  14.872
75309W        W43672   6.775  18.759  10.582
75310W        W43673  28.672  35.564   1.423
75311W        W43674  19.557  13.668  10.457
75312W        W43675  13.211  35.434   1.403
75313W        W43676  35.085   0.932  13.916
75314W        W43677   9.657  37.903  11.374
75315W        W43678  34.078  25.499  14.009
75316W        W43679  31.431  30.025  10.556
75317W        W43680   5.809  36.580  13.322
75318W        W43681  15.613  25.661  13.820
75319W        W43682  32.569  31.115   3.785
75320W        W43683   3.252  35.590  14.490
75321W        W43684   7.280  32.633   1.874
75322W        W43685  36.430   6.278   3.768
75323W        W43686  24.709  10.328   2.327
75324W        W43687   2.466  11.811  11.113
75325W        W43688  33.416  24.054  13.969
75326W        W43689  26.971   6.881   4.599
75327W        W43690   8.176  20.136   2.760
75328W        W43691  14.260  35.592   2.361
75329W        W43692  23.111  23.683  12.443
75330W        W43693  30.057  14.799  11.997
75331W        W43694   5.209  17.170   0.272
75332W        W43695  32.032  19.655  11.484
75333W        W43696  13.650  34.597   1.438
75334W        W43697   4.781  17.618  14.857
75335W        W43698  15.278  42.863  11.496
75336W        W43699  30.440  29.919  11.878
75337W        W43700  42.453   9.349  10.938
75338W        W43701  42.008  35.020  10.950
75339W        W43702  24.590  38.880  14.027
75340W        W43703  28.541  14.230   4.153
75341W        W43704  40.897   2.396   0.924
75342W        W43705  42.868   7.860  13.961
75343W        W43706  41.396  20.677  14.002
75344W        W43707   0.249  37.482   2.702
75345W        W43708   0.447  14.255   4.169
75346W        W43709  24.601  32.132   3.314
75347W        W43710  10.355  12.234  11.965
75348W        W43711  38.911  34.464  14.488
75349W        W43712  17.574  19.260   1.371
75350W        W43713   3.224  29.079  12.971
75351W        W43714  13.143  44.503  13.506
75352W        W43715   9.798  35.497   1.747
75353W        W43716  18.053  20.574  11.601
75354W        W43717  27.007  22.580   9.944
75355W        W43718   0.431  25.974  10.547
75356W        W43719   0.482  28.621   1.384
75357W        W43720  43.269   0.803  11.377
75358W        W43721  38.436  34.934  12.043
75359W        W43722  37.077  42.958   1.422
75360W        W43723  16.715  26.119   1.884
75361W        W43724  10.282  33.902  13.034
75362W        W43725  26.954  43.279  13.059
75363W        W43726  14.835  25.583   2.310
75364W        W43727   8.688   8.310  14.913
75365W        W43728  38.822  10.232  13.029
75366W        W43729  42.006  32.403  14.385
75367W        W43730   6.676  38.567  11.082
75368W        W43731  41.786   1.911   1.272
75369W        W43732   3.903  32.022   1.763
75370W        W43733  38.449  16.192  14.819
75371W        W43734  11.263   3.355   3.826
75372W        W43735   2.305  29.649  13.960
75373W        W43736   3.361  44.329   2.410
75374W        W43737  42.422  24.680  14.431
75375W        W43738  24.542   1.425  14.423
75376W        W43739   3.244  13.620  13.878
75377W        W43740  36.866  31.532  14.847
75378W        W43741  14.183  33.085   4.815
75379W        W43742  34.470  23.688  13.430
75380W        W43743  32.592  21.053   4.668
75381W        W43744  30.946  28.581   2.209
75382W        W43745  23.126   8.854   1.406
75383W        W43746  21.701   4.245   1.722
75384W        W43747  28.043  19.232   4.815
75385W        W43748  25.524  43.476  10.472
75386W        W43749  14.220  16.134  14.471
75387W        W43750  34.418  20.227  12.406
75388W        W43751  35.031  26.479  11.943
75389W        W43752   6.892  41.350   0.478
75390W        W43753  24.693  14.159   1.400
75391W        W43754  15.259   5.421   4.804
75392W        W43755  25.544  21.580  13.796
75393W        W43756   6.745  38.454  14.386
75394W        W43757  34.064  36.554   1.778
75395W        W43758  29.467  35.534  14.953
75396W        W43759  39.481  38.001  13.036
75397W        W43760  34.914  16.795  11.873
75398W        W43761  43.975  24.055   1.401
75399W        W43762  33.036  39.046   4.729
75400W        W43763   1.407   6.912  12.409
75401W        W43764  37.366  22.687  13.424
75402W        W43765  41.453  23.176   2.860
75403W        W43766  27.539  16.143   3.659
75404W        W43767  12.192  28.628   3.683
75405W        W43768  38.533  10.177  12.899
75406W        W43769  26.050  26.598   4.622
75407W        W43770  10.307  30.029   1.858
75408W        W43771  36.991  12.626   1.383
75409W        W43772  41.387  21.652  13.482
75410W        W43773  40.999   9.312  11.470
75411W        W43774  19.105  17.765  11.514
75412W        W43775   8.248  11.348  11.989
75413W        W43776  18.222  40.018  11.078
75414W        W43777   1.354   2.462  13.339
75415W        W43778  27.149  11.142   4.597
75416W        W43779  13.324   1.802   3.733
75417W        W43780  12.190   1.482  14.485
75418W        W43781  38.354   9.854  13.839
75419W        W43782  10.763  24.667  13.922
75420W        W43783  33.402   2.334   0.864
75421W        W43784  42.340   6.794  13.798
75422W        W43785  43.362  13.817  12.354
75423W        W43786   5.754  17.168  14.436
75424W        W43787  36.916  22.084   4.129
75425W        W43788   8.670  16.809   1.829
75426W        W43789  21.086  18.626   0.366
75427W        W43790  44.893  11.194  10.496
75428W        W43791  29.467   3.215  14.967
75429W        W43792  43.461  11.737   2.890
75430W        W43793   2.444  44.977   3.766
75431W        W43794   7.690  34.479   1.733
75432W        W43795   5.925  10.705  14.515
75433W        W43796   1.765  17.123  12.965
75434W        W43797  38.875  11.178   5.254
75435W        W43798   9.335  38.402  12.573
75436W        W43799  26.665   4.790  10.906
75437W        W43800  33.567  18.695  13.829
75438W        W43801  22.202  34.967   0.285
75439W        W43802  38.069  21.025   3.638
75440W        W43803   2.931  30.536  13.519
75441W        W43804  44.807  15.590   4.254
75442W        W43805   0.743  32.090  13.005
75443W        W43806   8.167   7.286   4.826
75444W        W43807  23.992  23.510  12.472
75445W        W43808   7.398  11.213   4.655
75446W        W43809  36.891  39.423  11.480
75447W        W43810   6.767  28.679  11.076
75448W        W43811   9.853  27.538   3.179
75449W        W43812  14.301  41.974  13.354
75450W        W43813   4.777   7.847   3.799
75451W        W43814  20.695  39.909  13.401
75452W        W43815   5.375  40.998   1.363
75453W        W43816  19.171   6.408   3.705
75454W        W43817  20.066  35.100   2.901
75455W        W43818  32.459  24.066   3.693
75456W        W43819  10.736  19.598   4.616
75457W        W43820  10.867  25.015   3.848
75458W        W43821  33.548  34.908  11.600
75459W        W43822  31.027  39.548   0.758
75460W        W43823   2.470   2.469   3.717
75461W        W43824  12.737   6.830   2.843
75462W        W43825  40.393  35.388   1.289
75463W        W43826  35.928  31.129  10.956
75464W        W43827   6.374   1.238   3.676
75465W        W43828   6.735   6.243  13.020
75466W        W43829  38.511   2.238  11.398
75467W        W43830   1.785  18.546   3.336
75468W        W43831  36.028  20.580  11.419
75469W        W43832   2.463   5.924  12.541
75470W        W43833  30.540  20.255  11.449
75471W        W43834  36.931  44.855   4.816
75472W        W43835  29.540  19.233   4.831
75473W        W43836  33.522  25.470  10.912
75474W        W43837  15.605  42.364   2.324
75475W        W43838  39.048   0.809  14.457
75476W        W43839  13.611  25.655   1.380
75477W        W43840  22.531   5.214  14.958
75478W        W43841  11.738  37.522  10.116
75479W        W43842   3.264  41.802   2.200
75480W        W43843  38.415  32.586  12.986
75481W        W43844  24.497  16.675  12.562
75482W        W43845  14.179  43.902  11.936
75483W        W43846  38.028  11.818  10.606
75484W        W43847  18.579  17.174   4.164
75485W        W43848  18.246  10.204   2.796
75486W        W43849  35.416  32.399   3.712
75487W        W43850  34.443  22.651  14.796
75488W        W43851  34.910  12.807   0.277
75489W        W43852  11.140   2.423   4.209
75490W        W43853  28.577  16.614   1.835
75491W        W43854  23.009  27.017   1.928
75492W        W43855  11.802  28.436  11.433
75493W        W43856  32.555   3.410   4.298
75494W        W43857  27.952  16.783   1.285
75495W        W43858  14.122  11.154   0.304
75496W        W43859  12.784   6.282  13.447
75497W        W43860  11.674  31.497  10.500
75498W        W43861   4.717   4.721   3.370
75499W        W43862  16.265   9.789   3.738
75500W        W43863  36.501  20.528  12.390
75501W        W43864  23.595  21.545   0.464
75502W        W43865  10.735   1.310   2.363
75503W        W43866  21.091  15.292   2.416
75504W        W43867  24.152   0.484  11.416
75505W        W43868  23.503   2.764   4.636
75506W        W43869  14.121  30.477   1.269
75507W        W43870   9.886  31.537   4.751
75508W        W43871  30.498  44.960  10.076
75509W        W43872  29.086  12.275   2.787
75510W        W43873  37.443  38.391  13.850
75511W        W43874   7.315  31.908   4.815
75512W        W43875  14.619   6.209   2.387
75513W        W43876  36.585   9.822   0.814
75514W        W43877   8.166  32.455   1.908
75515W        W43878  30.544  23.031  14.869
75516W        W43879  37.015  22.195   1.791
75517W        W43880  11.358  37.052   4.766
75518W        W43881  24.177  42.332   2.266
75519W        W43882  11.802  25.521  10.460
75520W        W43883  32.474  31.044   2.239
75521W        W43884  32.074  28.602   0.457
75522W        W43885  31.146  23.551  11.893
75523W        W43886  35.928  10.141  13.493
75524W        W43887  32.442  13.693  14.911
75525W        W43888   6.772   3.897  10.493
75526W        W43889  35.571  42.488  12.416
75527W        W43890  31.968   6.749  12.365
75528W        W43891   4.798  19.083   2.798
75529W        W43892  34.915  37.503  12.085
75530W        W43893  21.694  20.690   1.735
75531W        W43894  34.058  26.612   2.337
75532W        W43895  19.205  21.733  14.852
75533W        W43896  12.277  29.652   0.925
75534W        W43897  34.004   1.327   3.757
75535W        W43898  34.025  27.610   0.263
75536W        W43899  42.450  22.732   1.842
75537W        W43900   7.264  15.634   0.775
75538W        W43901  36.554   1.476   3.643
75539W        W43902  12.189  42.886  10.436
75540W        W43903   7.853  10.204   4.728
75541W        W43904  38.494  43.802   3.262
75542W        W43905  30.626  17.164   1.278
75543W        W43906  10.701  25.060  10.582
75544W        W43907  30.487  19.215  14.442
75545W        W43908  14.641   8.683  12.503
75546W        W43909  16.317  39.000   0.409
75547W        W43910  35.393  28.490  14.278
75548W        W43911   6.234   3.297   5.145
75549W        W43912  13.121  33.600  12.062
75550W        W43913   7.302  21.569   2.842
75551W        W43914  34.058  10.812   3.201
75552W        W43915  38.859   4.700  12.833
75553W        W43916  20.609  44.383   1.412
75554W        W43917  11.281   7.233   2.209
75555W        W43918  10.264  37.451  14.485
75556W        W43919  28.449  41.802  14.994
75557W        W43920  44.945  16.737   2.311
75558W        W43921  25.642   4.784  14.856
75559W        W43922  17.669   2.277   1.923
75560W        W43923  13.349   0.253  12.970
75561W        W43924  41.364  29.014  14.913
75562W        W43925  25.985  25.166   3.199
75563W        W43926  21.615  28.114  14.311
75564W        W43927  16.205  26.106   0.772
75565W        W43928  12.711  16.596  14.961
75566W        W43929  34.947   7.253  11.099
75567W        W43930   7.712  30.655  14.029
75568W        W43931  32.070  38.034   0.431
75569W        W43932   3.934   2.772  13.384
75570W        W43933   2.347  17.786  14.426
75571W        W43934  31.539  15.768   4.204
75572W        W43935  29.585   0.865  12.359
75573W        W43936   7.690  42.365  12.068
75574W        W43937   6.881  12.685  10.593
75575W        W43938   3.351  24.193   4.163
75576W        W43939   8.865  40.993   3.270
75577W        W43940  28.671  17.228   3.815
75578W        W43941  35.566  44.335  14.940
75579W        W43942  23.703  39.323  14.352
75580W        W43943  30.047  35.949   1.848
75581W        W43944  44.958  27.153   0.412
75582W        W43945  14.831  44.904  14.375
75583W        W43946  34.479  18.661   3.756
75584W        W43947  19.251  34.096   3.220
75585W        W43948  22.104  38.405   1.715
75586W        W43949  30.163  14.801  14.984
75587W        W43950  23.656  41.880  11.551
75588W        W43951  40.948  20.537   2.758
75589W        W43952  40.035  37.049  11.879
75590W        W43953  39.352  36.445  13.882
75591W        W43954  19.552   0.932   3.813
75592W        W43955  22.710   8.178   1.308
75593W        W43956  21.125  44.940  11.858
75594W        W43957  20.098  36.048   3.210
75595W        W43958   0.973   7.376  13.381
75596W        W43959  13.264  10.823   1.814
75597W        W43960  11.201  40.847  10.933
75598W        W43961  41.960  35.378   1.359
75599W        W43962   9.335  11.795   2.268
75600W        W43963  32.408  43.464  13.411
75601W        W43964  33.442  22.566  12.933
75602W        W43965   8.369  34.023   1.374
75603W        W43966  34.931  33.097  11.023
75604W        W43967   3.265   9.296   3.322
75605W        W43968  33.986  44.324  11.119
75606W        W43969  34.867  22.619   5.089
75607W        W43970   3.937  29.969  11.529
75608W        W43971   3.279  42.856   4.129
75609W        W43972  18.129  14.730   1.242
75610W        W43973  40.902  12.764  14.778
75611W        W43974  44.007  42.426   1.299
75612W        W43975  24.545   0.421  13.356
75613W        W43976   0.819  38.828  10.421
75614W        W43977  26.127  33.989  11.391
75615W        W43978  18.606   3.345   0.902
75616W        W43979   1.869  12.749  11.981
75617W        W43980  27.447  20.551   4.756
75618W        W43981  21.090   0.855  10.946
75619W        W43982  17.627  38.409   0.326
75620W        W43983   7.414   2.460   1.430
75621W        W43984  17.660  40.041   1.855
75622W        W43985  19.575  39.385  10.456
75623W        W43986  41.393  20.083   3.289
75624W        W43987  32.135  10.734   3.159
75625W        W43988  42.866   3.806   0.296
75626W        W43989  12.703  22.142   1.777
75627W        W43990  44.373  27.544   4.207
75628W        W43991   5.324   2.931  12.436
75629W        W43992  24.111  30.563  11.054
75630W        W43993  25.160  40.547  12.339
75631W        W43994  28.141  14.227   2.284
75632W        W43995   0.828  29.083  12.960
75633W        W43996   2.817  21.175  13.963
75634W        W43997   2.923   1.879  11.055
75635W        W43998  11.191   8.371   3.829
75636W        W43999  24.210  34.982  10.545
75637W        W44000  44.502   3.818   0.792
75638W        W44001   9.366  13.719   1.785
75639W        W44002  14.615  37.487  12.540
75640W        W44003  32.457   8.313   4.689
75641W        W44004  33.896  36.890   2.305
75642W        W44005   7.720  39.903  13.881
75643W        W44006  36.499   4.361  12.965
75644W        W44007   3.935   3.911   4.623
75645W        W44008  14.312  33.493   4.691
75646W        W44009  42.927  15.110   1.917
75647W        W44010   2.326  30.956   2.416
75648W        W44011  28.150  38.498  11.006
75649W        W44012  26.587   6.340   4.792
75650W        W44013  26.627  29.069  10.986
75651W        W44014  28.949  42.779   0.271
75652W        W44015  17.134   0.815   2.754
75653W        W44016  33.480  15.751   2.305
75654W        W44017  20.137  33.096   2.416
75655W        W44018  41.803  35.017   4.674
75656W        W44019  23.037   6.359  10.440
75657W        W44020  13.245  18.703  12.901
75658W        W44021  40.809  40.412   3.775
75659W        W44022  43.310  35.082  14.480
75660W        W44023  29.462  24.595  11.500
75661W        W44024  16.136  32.434   4.776
75662W        W44025  28.953  27.960  11.581
75663W        W44026  12.843  21.260  11.904
75664W        W44027  34.888  39.951  13.476
75665W        W44028  32.908  22.721   3.812
75666W        W44029  25.192   0.386  14.856
75667W        W44030  35.107   3.864   1.336
75668W        W44031  35.954  35.007  12.439
75669W        W44032  33.488  41.502   3.768
75670W        W44033  35.528  10.250  12.886
75671W        W44034  42.838   9.267  10.517
75672W        W44035   6.689  20.660  11.893
75673W        W44036  17.561  41.331  14.474
75674W        W44037  21.087  30.990   3.146
75675W        W44038  18.094  13.314   1.422
75676W        W44039   3.951  19.273   3.250
75677W        W44040  19.049  13.294   2.374
75678W        W44041  10.138  24.170  13.522
75679W        W44042   4.776  36.545   3.652
75680W        W44043  33.420  23.241   0.475
75681W        W44044   2.833   5.806  13.990
75682W        W44045   6.908  29.152  12.899
75683W        W44046  30.132  25.555   2.791
75684W        W44047   3.940   4.719   1.896
75685W        W44048  42.350  40.987   2.814
75686W        W44049  26.465   3.410   0.302
75687W        W44050   8.179  30.421  13.393
75688W        W44051  42.833  15.215  14.016
75689W        W44052  36.488   7.895  11.981
75690W        W44053  18.217  22.222  14.918
75691W        W44054  34.464  16.646   0.412
75692W        W44055  29.599  20.589   1.922
75693W        W44056   7.902  29.644   0.780
75694W        W44057   8.238  30.925  11.088
75695W        W44058  32.408  21.735  10.537
75696W        W44059  43.898  42.347   1.916
75697W        W44060  27.959  38.353  11.861
75698W        W44061  42.460  27.972  11.860
75699W        W44062   1.338  23.530  13.953
75700W        W44063  35.499  18.583  13.986
75701W        W44064  26.034  28.136   3.258
75702W        W44065  16.703   1.282  12.355
75703W        W44066   7.190  28.551   0.350
75704W        W44067  30.520  20.167   0.890
75705W        W44068  13.170  37.517   5.295
75706W        W44069  16.689  27.066  14.471
75707W        W44070  17.576   1.297  14.282
75708W        W44071  40.323  43.823   4.326
75709W        W44072  13.714  20.134   3.855
75710W        W44073  18.560  27.639   2.388
75711W        W44074  44.316  25.632   2.843
75712W        W44075  22.048  27.031  11.889
75713W        W44076  42.885  22.738   5.289
75714W        W44077  29.617  43.287  12.012
75715W        W44078  35.545  36.076   1.422
75716W        W44079  14.267  31.408  10.599
75717W        W44080  35.490   0.363  12.851
75718W        W44081  34.474  21.095   1.915
75719W        W44082  28.160   7.897  14.768
75720W        W44083  18.144   7.671   3.346
75721W        W44084   0.836  29.096   4.344
75722W        W44085  33.464  34.943  12.854
75723W        W44086  24.016  42.331   2.754
75724W        W44087   7.812   0.353  12.009
75725W        W44088  28.536  41.538   1.304
75726W        W44089  13.237  27.011   0.889
75727W        W44090   8.877  32.034  11.446
75728W        W44091   9.227  44.432   0.258
75729W        W44092  27.106  36.441   0.751
75730W        W44093  35.976   1.451   4.168
75731W        W44094  41.935  15.228  13.425
75732W        W44095  14.327  24.681  14.313
75733W        W44096   0.493  22.013   2.810
75734W        W44097  17.792   8.677  14.398
75735W        W44098  16.318  21.076   0.475
75736W        W44099  14.802  19.714   9.923
75737W        W44100  26.614  22.224  12.851
75738W        W44101  31.610  37.393  14.833
75739W        W44102   7.704  18.077   2.282
75740W        W44103  25.471  11.755   0.799
75741W        W44104  25.031  32.986   0.282
75742W        W44105  19.155  41.393   0.763
75743W        W44106  23.060   3.246  10.495
75744W        W44107  12.124   8.269  13.852
75745W        W44108  41.934  13.833   3.386
75746W        W44109  41.919  15.248   1.702
75747W        W44110   2.924  21.205  13.544
75748W        W44111   1.440  25.686  11.029
75749W        W44112  22.999  28.470   2.885
75750W        W44113  44.872  37.552   2.872
75751W        W44114  12.629  44.411  14.881
75752W        W44115  14.245  22.069  12.079
75753W        W44116  31.635  30.636  10.427
75754W        W44117   6.786  33.465  12.936
75755W        W44118   7.868  18.778   3.318
75756W        W44119  14.693   8.709   2.313
75757W        W44120  18.158  15.259  11.006
75758W        W44121  36.475  13.105  14.355
75759W        W44122  44.495  36.455   1.912
75760W        W44123  34.512  10.662  10.892
75761W        W44124  24.662  29.947  13.906
75762W        W44125  26.510  36.536   0.381
75763W        W44126  38.022   7.832   2.417
75764W        W44127  43.467  32.587   4.167
75765W        W44128   8.342  22.694   2.307
75766W        W44129   9.255  44.938   2.391
75767W        W44130  29.007  16.792   3.213
75768W        W44131  22.137  25.095   2.848
75769W        W44132   4.210  33.910   2.242
75770W        W44133  43.984  20.079  11.389
75771W        W44134   7.224  30.617   2.805
75772W        W44135  34.895  29.949   2.308
75773W        W44136  37.426   8.772   1.849
75774W        W44137  22.157  11.810   0.452
75775W        W44138  32.951   7.204  14.943
75776W        W44139  37.045   3.344  14.338
75777W        W44140  20.209  11.141   3.797
75778W        W44141  25.134  13.244   2.289
75779W        W44142  10.195  25.626  11.111
75780W        W44143   1.373   4.422  13.987
75781W        W44144   5.400   8.790  12.466
75782W        W44145  31.090  34.594  10.641
75783W        W44146  13.224  37.415  10.589
75784W        W44147  36.435   7.740   2.841
75785W        W44148   7.815   7.701   1.452
75786W        W44149  19.620  13.247  12.934
75787W        W44150  29.117  39.403  14.785
75788W        W44151  39.952  23.513  13.909
75789W        W44152  20.270  29.111   2.269
75790W        W44153  35.998  36.472  12.911
75791W        W44154  25.030  19.099  13.820
75792W        W44155  32.068  31.552  14.810
75793W        W44156  43.990  19.691  12.434
75794W        W44157  15.605  15.812  12.949
75795W        W44158  10.756  10.183   3.725
75796W        W44159  11.675  26.495   4.128
75797W        W44160  40.932  38.372   3.725
75798W        W44161  14.245  36.895  11.433
75799W        W44162  23.046  18.602  12.559
75800W        W44163  19.043  15.698  10.441
75801W        W44164  34.578  33.990  10.965
75802W        W44165   9.226   5.252  13.052
75803W        W44166  36.928  18.115  11.885
75804W        W44167   8.255  10.364   2.781
75805W        W44168  42.026  30.420   1.905
75806W        W44169   1.852   4.894   3.840
75807W        W44170   1.286  17.690   3.726
75808W        W44171  20.661  30.655  11.524
75809W        W44172  24.201   5.770  14.401
75810W        W44173  19.608  31.615   0.273
75811W        W44174   9.682   6.749   4.666
75812W        W44175  29.548   9.232   1.343
75813W        W44176  27.672  11.360  11.068
75814W        W44177  13.309  37.073  13.996
75815W        W44178  29.131  11.138   3.828
75816W        W44179  19.737  20.137   2.818
75817W        W44180  42.412  44.348   2.355
75818W        W44181   8.863  14.706   2.339
75819W        W44182  41.834   4.210   3.869
75820W        W44183   7.296  22.227   0.726
75821W        W44184  43.317   5.906  13.391
75822W        W44185  38.876  23.066   1.319
75823W        W44186   7.413  43.297  13.812
75824W        W44187  35.929  41.846  10.424
75825W        W44188  15.666  34.098   2.292
75826W        W44189  29.981   8.657  12.853
75827W        W44190  28.476  34.542  14.814
75828W        W44191  14.835  20.078   4.182
75829W        W44192  32.949  12.675   4.302
75830W        W44193  21.605  33.612   0.314
75831W        W44194  37.969  42.981  14.473
75832W        W44195  41.857   9.203  11.382
75833W        W44196  13.763  27.661   1.373
75834W        W44197  42.778  26.703  10.563
75835W        W44198   1.350  30.560   1.826
75836W        W44199  13.228  26.514  10.530
75837W        W44200  10.359  15.188  13.962
75838W        W44201  26.017   8.336   0.310
75839W        W44202  44.404  19.778   4.601
75840W        W44203   9.238  11.640   2.753
75841W        W44204   9.806   6.253  10.599
75842W        W44205  39.015  16.199  10.148
75843W        W44206  13.242  32.130   0.863
75844W        W44207  41.482   3.937  13.369
75845W        W44208  30.999  20.670  12.953
75846W        W44209  30.990  20.240  14.318
75847W        W44210  25.511  40.834  13.350
75848W        W44211   2.346   2.424  12.898
75849W        W44212  14.288   8.405  13.497
75850W        W44213  32.053   3.791  11.074
75851W        W44214  10.827  36.043  11.953
75852W        W44215  29.512   1.274   4.671
75853W        W44216  36.424   5.770  12.078
75854W        W44217   5.437  41.815   2.218
75855W        W44218  27.140  30.551   5.310
75856W        W44219  41.010   3.265  12.343
75857W        W44220   3.293  11.640  10.923
75858W        W44221  29.556  16.802  13.466
75859W        W44222  37.071  41.476   2.767
75860W        W44223  41.836  34.049  13.006
75861W        W44224  35.079  43.846  12.075
75862W        W44225  10.746   5.282   0.749
75863W        W44226  38.856  21.033   1.228
75864W        W44227  18.700  36.002  12.089
75865W        W44228  35.014  29.555   1.816
75866W        W44229   9.334  29.140   1.864
75867W        W44230  23.552  37.448   0.917
75868W        W44231   3.338  31.040  10.464
75869W        W44232   6.682  19.644  10.894
75870W        W44233  17.172  33.094  10.546
75871W        W44234  19.619  36.460  14.971
75872W        W44235  43.290  21.220   4.293
75873W        W44236  27.080  33.084  13.337
75874W        W44237  42.423  38.925   3.338
75875W        W44238  24.004  38.556   1.368
75876W        W44239  44.298   1.335   5.312
75877W        W44240  17.800  25.187  11.968
75878W        W44241   5.825   5.867   0.352
75879W        W44242  33.461  35.033   2.701
75880W        W44243  44.316  39.966  13.383
75881W        W44244   9.779  16.603  11.938
75882W        W44245  16.771   0.925  10.988
75883W        W44246  25.205  26.126   2.876
75884W        W44247  24.076  10.726  12.835
75885W        W44248  25.552  15.723   9.961
75886W        W44249  16.184   1.459  11.478
75887W        W44250   4.299  29.948  11.000
75888W        W44251  33.611   5.858  12.020
75889W        W44252   5.866  17.767   2.842
75890W        W44253   5.820  35.061   2.822
75891W        W44254  23.039   0.470  11.490
75892W        W44255  23.085  43.282  11.860
75893W        W44256  12.729  32.027  11.556
75894W        W44257  37.877  30.498  14.883
75895W        W44258  24.542  40.884  10.601
75896W        W44259  41.937   1.276  13.314
75897W        W44260  25.686   2.927   3.168
75898W        W44261  36.529  32.535   2.779
75899W        W44262  38.381  29.064  12.468
75900W        W44263  10.273  14.316   0.353
75901W        W44264  37.883  37.416  13.021
75902W        W44265  30.571  13.222   3.344
75903W        W44266  30.137  38.827  14.382
75904W        W44267  27.489   1.790   4.756
75905W        W44268  28.954  42.813   4.266
75906W        W44269  23.986  37.929   3.647
75907W        W44270  20.169  21.049   1.881
75908W        W44271  10.331  34.954   3.226
75909W        W44272  18.659   8.161  11.476
75910W        W44273  44.900  29.156  11.578
75911W        W44274  23.732  34.015   3.759
75912W        W44275  23.556  24.106   4.790
75913W        W44276  12.202   6.823  11.878
75914W        W44277  13.766  10.176  11.100
75915W        W44278   6.416   8.742  11.607
75916W        W44279  42.829  33.023  11.497
75917W        W44280   7.771  36.987  12.095
75918W        W44281   7.416  13.676  10.959
75919W        W44282  22.100   5.727   0.446
75920W        W44283  27.177  20.522  11.438
75921W        W44284   3.228  22.138  13.497
75922W        W44285   6.310   9.183  14.330
75923W        W44286  13.200  32.943   2.862
75924W        W44287  24.086   8.357  11.894
75925W        W44288  28.015  35.022  11.374
75926W        W44289  22.095  26.025  12.472
75927W        W44290  15.249  39.316   1.887
75928W        W44291  14.111  25.032   5.294
75929W        W44292   8.747  21.113   2.339
75930W        W44293   6.373  13.752   4.681
75931W        W44294  31.146   0.361  14.502
75932W        W44295  34.542  11.761  13.033
75933W        W44296   9.723   2.898   1.243
75934W        W44297  36.937  33.595  11.054
75935W        W44298   3.242  44.912  14.895
75936W        W44299  31.993  34.966  14.809
75937W        W44300  14.770   3.291   1.918
75938W        W44301  32.493   3.838  10.485
75939W        W44302  20.653  39.907   1.318
75940W        W44303   6.387  11.713  12.825
75941W        W44304  36.025   3.890   4.248
75942W        W44305   8.355   8.859   2.859
75943W        W44306   3.933  28.502  13.809
75944W        W44307   2.750  28.062   0.296
75945W        W44308  41.322   9.769   4.312
75946W        W44309  24.711  33.043   0.445
75947W        W44310  31.487  18.062   3.176
75948W        W44311  26.192  31.505   1.812
75949W        W44312  36.030  19.544  14.403
75950W        W44313  15.703  10.281  14.306
75951W        W44314   0.913  16.220   0.955
75952W        W44315  44.930  35.972   5.304
75953W        W44316  29.586  30.480  11.561
75954W        W44317  22.711   2.442  14.872
75955W        W44318  44.777  19.542   4.204
75956W        W44319  19.594  10.195  13.350
75957W        W44320  27.194  38.392  14.022
75958W        W44321  31.583  21.704   4.774
75959W        W44322  36.550   4.893  14.944
75960W        W44323  15.262  19.731  14.778
75961W        W44324  29.591  15.746   4.823
75962W        W44325  32.628  22.159   1.247
75963W        W44326  23.656   0.458   3.824
75964W        W44327  17.740  26.978  14.777
75965W        W44328   1.302  42.329  14.873
75966W        W44329  12.834  44.846   0.406
75967NA+    NA+44330  11.193  20.597  14.348
75968NA+    NA+44331  21.246  28.099   4.687
75969NA+    NA+44332   6.196  18.118  13.418
75970NA+    NA+44333  18.584  34.493  13.458
75971NA+    NA+44334  14.781  44.941  13.337
75972NA+    NA+44335  43.272  19.250   2.321
75973NA+    NA+44336  16.271  41.315  13.012
75974NA+    NA+44337  39.513  20.752  10.524
75975NA+    NA+44338   7.803  12.289  11.110
75976NA+    NA+44339  15.620  31.053  14.466
75977NA+    NA+44340  19.767  34.909  11.549
75978NA+    NA+44341   2.949  17.671  11.122
75979NA+    NA+44342  14.728  20.120   0.328
75980NA+    NA+44343   5.394  40.988   3.254
75981NA+    NA+44344  39.468  12.784  11.942
75982NA+    NA+44345  14.813  35.968   1.750
75983NA+    NA+44346   9.743  29.640   0.384
75984NA+    NA+44347  39.923  33.572  13.020
75985NA+    NA+44348   2.377  35.497   0.942
75986NA+    NA+44349  11.725  11.796   1.345
75987NA+    NA+44350   6.345   4.902   5.249
75988NA+    NA+44351  24.588  36.582  13.794
75989NA+    NA+44352  42.410  40.035  13.946
75990NA+    NA+44353  33.971  35.001  13.313
75991NA+    NA+44354  22.512   3.275  12.439
75992NA+    NA+44355   4.297  17.581  13.829
75993NA+    NA+44356  35.580  15.610  13.034
75994NA+    NA+44357  27.018   7.385   2.770
75995NA+    NA+44358  26.505  36.569  14.878
75996NA+    NA+44359  26.533  22.688   0.278
75997NA+    NA+44360  33.934   6.252  11.608
75998NA+    NA+44361  26.582  32.930  14.473
75999NA+    NA+44362   6.390  11.333  10.466
76000NA+    NA+44363  27.195  31.644  14.767
76001NA+    NA+44364  30.986   8.722  13.541
76002NA+    NA+44365  22.715  21.223  10.626
76003NA+    NA+44366  34.457  43.843  12.409
76004NA+    NA+44367  25.502  13.224   4.298
76005NA+    NA+44368  36.404  18.743  11.075
76006NA+    NA+44369  16.097   7.848  11.493
76007NA+    NA+44370  13.761  37.972  12.879
76008NA+    NA+44371   1.787   9.661   4.179
76009NA+    NA+44372   6.266  26.683  13.800
76010NA+    NA+44373  26.143  28.181  10.644
76011NA+    NA+44374  13.695  26.480  11.587
76012NA+    NA+44375  22.093  36.059  10.512
76013NA+    NA+44376  39.328   8.718  14.793
76014NA+    NA+44377  36.375  28.049  13.527
76015NA+    NA+44378  23.672  35.021   4.184
76016NA+    NA+44379  18.209   3.363   4.241
76017NA+    NA+44380   7.401  32.064  10.630
76018NA+    NA+44381  10.833  39.016  13.894
76019NA+    NA+44382  19.206  20.125  14.368
76020NA+    NA+44383  34.921   7.863  13.480
76021NA+    NA+44384   9.839   5.720   3.299
76022NA+    NA+44385  38.385   8.364  12.346
76023NA+    NA+44386  43.962   1.763   2.202
76024NA+    NA+44387  20.669  14.247   0.328
76025NA+    NA+44388   9.810   2.383  11.514
76026NA+    NA+44389  39.983  30.984  14.505
76027NA+    NA+44390  23.150  40.019  12.925
76028NA+    NA+44391  40.391  38.068  11.443
76029NA+    NA+44392  38.014  38.559  13.017
76030NA+    NA+44393  18.178  32.464   1.876
76031NA+    NA+44394  27.541  42.517   0.798
76032NA+    NA+44395  28.674  26.163  10.481
76033NA+    NA+44396  10.270  29.665  13.003
76034NA+    NA+44397  21.642  35.106  10.989
76035NA+    NA+44398  41.341  36.373   3.263
76036NA+    NA+44399  21.068  25.644   2.319
76037NA+    NA+44400  21.054  39.454   0.841
76038NA+    NA+44401   7.214  13.823  13.374
76039NA+    NA+44402   5.721  14.233  10.428
76040NA+    NA+44403  30.604  40.478   3.345
76041NA+    NA+44404  31.024  44.451   2.207
76042NA+    NA+44405  26.179  12.714   1.758
76043NA+    NA+44406  15.609  26.673   4.614
76044NA+    NA+44407   1.807  16.699  14.299
76045NA+    NA+44408  17.224  12.200   4.223
76046NA+    NA+44409  33.564   4.355  12.549
76047NA+    NA+44410  28.435  13.695  12.088
76048NA+    NA+44411  41.990  38.402   2.673
76049NA+    NA+44412  44.362  18.695   3.171
76050NA+    NA+44413  26.010  25.613  14.920
76051NA+    NA+44414   2.809   7.389   1.777
76052NA+    NA+44415  27.968  31.533  12.511
76053NA+    NA+44416  24.045  19.142  11.969
76054NA+    NA+44417  38.410  35.437   3.154
76055NA+    NA+44418  43.815  29.494  14.291
76056NA+    NA+44419  36.031   4.915  11.083
76057NA+    NA+44420  43.900  34.997   5.758
76058NA+    NA+44421   0.336   5.439  13.459
76059NA+    NA+44422  28.567   4.334  10.630
76060NA+    NA+44423  33.075  43.810   2.677
76061NA+    NA+44424  40.037  15.127   2.300
76062NA+    NA+44425  15.278  33.419  14.917
76063NA+    NA+44426  11.178  16.592  14.408
76064NA+    NA+44427  29.550  30.068  11.097
76065NA+    NA+44428  38.918   5.287   1.335
76066NA+    NA+44429  10.636   7.907   3.809
76067NA+    NA+44430  33.931  16.686   3.809
76068NA+    NA+44431  30.144  31.926   3.223
76069NA+    NA+44432   2.899  25.552   0.475
76070NA+    NA+44433  28.658  10.349  11.425
76071NA+    NA+44434  35.900  22.147  14.401
76072NA+    NA+44435  43.469   0.420   0.367
76073NA+    NA+44436  38.834  22.652  12.566
76074NA+    NA+44437  19.731  42.988  10.104
76075NA+    NA+44438  40.529  19.071   2.409
76076NA+    NA+44439  42.307  25.672   2.240
76077NA+    NA+44440  42.418  24.575  13.946
76078NA+    NA+44441  36.575  38.906  14.959
76079NA+    NA+44442   4.705  23.097  11.493
76080NA+    NA+44443  32.059  23.196   3.325
76081NA+    NA+44444  27.989   1.435  13.940
76082NA+    NA+44445   0.940  22.720   5.626
76083NA+    NA+44446  18.556   2.918   2.832
76084NA+    NA+44447  42.837   2.375   1.217
76085NA+    NA+44448  22.680  44.417  14.933
76086NA+    NA+44449  43.918   2.770   1.852
76087NA+    NA+44450  14.822  41.894   2.767
76088NA+    NA+44451  44.936   1.352   4.709
76089NA+    NA+44452  44.800  40.317  11.902
76090NA+    NA+44453   0.928   4.436  12.529
76091NA+    NA+44454  27.948  23.574   0.788
76092NA+    NA+44455  18.667   1.911  11.015
76093NA+    NA+44456  39.318  25.005   1.394
76094NA+    NA+44457  32.947  10.167  10.598
76095NA+    NA+44458  19.767  32.571  12.925
76096NA+    NA+44459  32.561   1.784   1.727
76097NA+    NA+44460  17.578   4.233  13.046
76098NA+    NA+44461   1.950  34.581   0.873
76099NA+    NA+44462  39.840  40.478   3.178
76100NA+    NA+44463  18.158  39.390  10.984
76101NA+    NA+44464   3.364  14.207  13.019
76102NA+    NA+44465  22.665  28.088   4.244
76103NA+    NA+44466  29.024  14.820  13.053
76104NA+    NA+44467  26.696  15.613  10.914
76105NA+    NA+44468  23.664  40.539   2.209
76106NA+    NA+44469  39.374  28.158  14.395
76107NA+    NA+44470  17.304   2.736   1.296
76108NA+    NA+44471  38.988   0.753   0.258
76109NA+    NA+44472  19.053  10.830  14.402
76110NA+    NA+44473  13.291  20.189   4.244
76111NA+    NA+44474   1.406  14.290  13.496
76112NA+    NA+44475  36.379  40.969  12.096
76113NA+    NA+44476  33.102  36.370   3.331
76114NA+    NA+44477   1.451  33.931   0.429
76115NA+    NA+44478  27.650  19.260   3.755
76116NA+    NA+44479  16.657  28.140   3.762
76117NA+    NA+44480  36.975  23.729  12.034
76118NA+    NA+44481  13.829  27.507  12.429
76119NA+    NA+44482  12.839  20.623  11.116
76120NA+    NA+44483   5.804  41.019   2.291
76121NA+    NA+44484   6.713  39.487  14.462
76122NA+    NA+44485   6.361  37.034   1.444
76123NA+    NA+44486   2.302  44.451   0.956
76124NA+    NA+44487  30.590  26.487   1.267
76125NA+    NA+44488  14.590   5.894  14.359
76126NA+    NA+44489  24.188   6.910  14.404
76127NA+    NA+44490  27.008  28.120   1.437
76128NA+    NA+44491  24.077   2.745   0.387
76129NA+    NA+44492  44.844  13.702   2.793
76130NA+    NA+44493   9.347  32.513  11.427
76131NA+    NA+44494  22.538  41.419  11.973
76132NA+    NA+44495  13.762   3.940  11.120
76133NA+    NA+44496  28.663  28.605   0.947
76134NA+    NA+44497  21.542   2.806   3.258
76135NA+    NA+44498  40.007  35.062  11.975
76136NA+    NA+44499  31.642  39.542   1.831
76137NA+    NA+44500  42.339  29.104  11.462
76138NA+    NA+44501  22.059  22.157   4.708
76139NA+    NA+44502  30.085  15.784  10.030
76140NA+    NA+44503  43.868   7.853  11.955
76141NA+    NA+44504  27.138  26.061  13.464
76142NA+    NA+44505  11.253  11.700   1.282
76143NA+    NA+44506  24.083  29.110  10.456
76144NA+    NA+44507  19.623  28.623  13.348
76145NA+    NA+44508  37.880  35.550   3.633
76146NA+    NA+44509  13.243  33.967   3.223
76147NA+    NA+44510   1.929   4.762  10.142
76148NA+    NA+44511  21.555   5.418  14.022
76149NA+    NA+44512  38.487  26.563  12.828
76150NA+    NA+44513  41.477  33.987   2.239
76151NA+    NA+44514   0.843  18.705  12.924
76152NA+    NA+44515  44.961  44.276  10.582
76153NA+    NA+44516  43.793  25.587  12.515
76154NA+    NA+44517   3.225  21.069  12.561
76155NA+    NA+44518   4.728   2.775   1.767
76156NA+    NA+44519  42.380   8.180  14.930
76157NA+    NA+44520  39.447  44.476   3.834
76158NA+    NA+44521  37.355  22.222   0.413
76159NA+    NA+44522  24.652  42.328   4.238
76160NA+    NA+44523  34.074  11.263  13.507
76161NA+    NA+44524  11.364  31.898   0.411
76162NA+    NA+44525  16.293   5.766   4.778
76163NA+    NA+44526   8.769  24.583  14.841
76164NA+    NA+44527   1.783  16.685  12.436
76165NA+    NA+44528  11.310  13.162  13.854
76166NA+    NA+44529  19.120  36.093  10.614
76167NA+    NA+44530  17.614   6.222   4.199
76168NA+    NA+44531  34.880  13.629  11.544
76169NA+    NA+44532  22.673   8.730  11.518
76170NA+    NA+44533  41.846  12.674   1.286
76171NA+    NA+44534  34.108   1.272  13.836
76172NA+    NA+44535  25.654   7.191  10.888
76173NA+    NA+44536  40.853   1.480   1.893
76174NA+    NA+44537  29.669  37.862   3.233
76175NA+    NA+44538  13.691  27.691  13.045
76176NA+    NA+44539  36.926  40.482   2.231
76177NA+    NA+44540  18.186  34.970   3.374
76178NA+    NA+44541  35.063  38.552   0.248
76179NA+    NA+44542  12.125  44.930  13.003
76180NA+    NA+44543  18.157  37.364  10.947
76181NA+    NA+44544  28.670   7.296  14.369
76182NA+    NA+44545  20.692   5.279  10.521
76183NA+    NA+44546  36.389  14.723  13.990
76184NA+    NA+44547  11.169  39.327   0.926
76185NA+    NA+44548   5.360   0.799   0.474
76186NA+    NA+44549  10.354  43.021  14.835
76187NA+    NA+44550  37.535  28.046  14.358
76188NA+    NA+44551  24.065  25.037  14.504
76189NA+    NA+44552   3.334  24.718  11.038
76190NA+    NA+44553  21.599  17.211   2.727
76191NA+    NA+44554  41.366  40.852   4.194
76192NA+    NA+44555  26.573  42.908  12.855
76193NA+    NA+44556  16.758  36.589   1.784
76194NA+    NA+44557  35.519   4.903   4.290
76195NA+    NA+44558  32.594  34.067   0.391
76196NA+    NA+44559  18.680  12.625  13.448
76197NA+    NA+44560   0.372  38.864   0.328
76198NA+    NA+44561  35.589  10.356  10.158
76199NA+    NA+44562  12.310  14.126   1.789
76200NA+    NA+44563   7.298  23.236   4.292
76201NA+    NA+44564   4.782   0.349   0.252
76202NA+    NA+44565  27.619   0.475  12.039
76203NA+    NA+44566  37.446   8.875  11.386
76204NA+    NA+44567  13.818   3.935  13.357
76205NA+    NA+44568  22.252  39.386  14.329
76206NA+    NA+44569   9.776  20.113  13.308
76207NA+    NA+44570  12.280  10.138  13.918
76208NA+    NA+44571  15.739   3.456   4.821
76209NA+    NA+44572   5.284   8.267   3.826
76210NA+    NA+44573  31.525   5.900   4.690
76211NA+    NA+44574  22.678  21.203  12.384
76212NA+    NA+44575  25.644  18.589   3.155
76213NA+    NA+44576  28.004   3.396  13.423
76214NA+    NA+44577  28.478  26.484   1.778
76215NA+    NA+44578   6.898  21.658  12.539
76216NA+    NA+44579  21.563  12.820   3.732
76217NA+    NA+44580  33.624  43.440  11.577
76218NA+    NA+44581  43.984  24.100  14.015
76219NA+    NA+44582  18.599  28.060  14.851
76220NA+    NA+44583   4.359  21.237  12.378
76221NA+    NA+44584  38.421   8.220   4.142
76222NA+    NA+44585  32.409  35.012   0.381
76223NA+    NA+44586  25.599  25.585   0.862
76224NA+    NA+44587  18.593  39.430   3.239
76225NA+    NA+44588  40.995  23.725   1.734
76226NA+    NA+44589  18.662  23.538   4.681
76227NA+    NA+44590   6.734  34.526  14.464
76228NA+    NA+44591  37.414  16.604   1.774
76229NA+    NA+44592  39.868   6.317  10.622
76230NA+    NA+44593   2.286  40.405   1.838
76231NA+    NA+44594  19.735  19.727   2.252
76232NA+    NA+44595  39.814  37.046  14.507
76233NA+    NA+44596  41.370  23.522   3.757
76234NA+    NA+44597  11.332  39.064  11.599
76235NA+    NA+44598  37.551  19.732  11.019
76236NA+    NA+44599   8.825  15.699  14.327
76237NA+    NA+44600  31.574  14.332   3.216
76238NA+    NA+44601  12.356   1.464   0.898
76239NA+    NA+44602  26.142  35.996  12.405
76240NA+    NA+44603   3.803  34.394   1.896
76241NA+    NA+44604  19.742  10.343  13.840
76242NA+    NA+44605  12.231  34.040  10.522
76243NA+    NA+44606  30.094  18.564   2.898
76244NA+    NA+44607  24.046  38.325   3.771
76245NA+    NA+44608   6.912   6.696  13.414
76246NA+    NA+44609  40.946  12.652  11.067
76247NA+    NA+44610  33.128  24.637  10.459
76248NA+    NA+44611  22.534  11.232  10.461
76249NA+    NA+44612   1.731   3.423  11.928
76250NA+    NA+44613   6.746  17.557   4.164
76251NA+    NA+44614  42.311   0.368  14.959
76252NA+    NA+44615  24.196  41.787  12.941
76253NA+    NA+44616   2.803  42.857  10.583
76254NA+    NA+44617  26.535   9.306  11.609
76255NA+    NA+44618  19.546   7.393   0.345
76256NA+    NA+44619  32.955   1.352  14.023
76257NA+    NA+44620  14.241  24.666   3.361
76258NA+    NA+44621  43.351  19.054   3.358
76259NA+    NA+44622  20.042   0.458   3.842
76260NA+    NA+44623  26.145  38.835  10.404
76261NA+    NA+44624  23.037   3.791   1.315
76262NA+    NA+44625  33.567  35.967   1.244
76263NA+    NA+44626  16.760   5.320   0.809
76264NA+    NA+44627  36.014  17.241  14.510
76265NA+    NA+44628  31.067   6.813  13.402
76266NA+    NA+44629  33.425  26.680  12.440
76267NA+    NA+44630  32.500   7.838  12.007
76268NA+    NA+44631  15.806  36.564  12.459
76269NA+    NA+44632  35.073   1.832  14.377
76270NA+    NA+44633  19.100  19.274   3.653
76271NA+    NA+44634  18.639  31.610  12.046
76272NA+    NA+44635  19.778  30.022   1.927
76273NA+    NA+44636   1.886  28.681  13.995
76274NA+    NA+44637  30.947  34.369  12.856
76275NA+    NA+44638  39.364  15.584   0.913
76276NA+    NA+44639   1.350  33.088   4.772
76277NA+    NA+44640  24.223  36.385   4.217
76278NA+    NA+44641   3.900  31.100  14.976
76279NA+    NA+44642   1.941  35.043   3.821
76280NA+    NA+44643   4.379  12.656  12.826
76281NA+    NA+44644   1.936   0.784  14.454
76282NA+    NA+44645  38.343  43.514  14.965
76283NA+    NA+44646   9.155   0.439  13.919
76284NA+    NA+44647  26.579  17.232  10.451
76285NA+    NA+44648  39.950  35.048   4.794
76286NA+    NA+44649  19.080  43.485   4.772
76287NA+    NA+44650  37.022   9.842  12.404
76288NA+    NA+44651  30.002  20.624   1.239
76289NA+    NA+44652  17.208  43.289  12.424
76290NA+    NA+44653  11.814  35.487  13.872
76291NA+    NA+44654   2.310   7.790  12.436
76292NA+    NA+44655  22.128  17.605   1.452
76293NA+    NA+44656  13.764  11.221  14.971
76294NA+    NA+44657   9.352  18.715  14.801
76295NA+    NA+44658  18.667  28.934  14.468
76296NA+    NA+44659  33.490  21.670  11.388
76297NA+    NA+44660  18.081   4.254   4.230
76298NA+    NA+44661  33.444  21.241  14.861
76299NA+    NA+44662  26.973  29.131   0.370
76300NA+    NA+44663  17.677  28.948   4.223
76301NA+    NA+44664  39.877   2.834  14.789
76302NA+    NA+44665  32.911  10.662  10.455
76303NA+    NA+44666  31.446  40.855  12.029
76304NA+    NA+44667  12.643  31.104   5.205
76305NA+    NA+44668   0.909  34.517   2.764
76306NA+    NA+44669   4.809   5.879   4.695
76307NA+    NA+44670  26.104  34.054   0.384
76308NA+    NA+44671  41.432  35.588  14.326
76309NA+    NA+44672  25.643  16.650  12.038
76310NA+    NA+44673  38.061   9.686  14.792
76311NA+    NA+44674  29.008  28.971   1.902
76312NA+    NA+44675  37.943  29.465  11.593
76313NA+    NA+44676  12.345  43.901  14.962
76314NA+    NA+44677  28.163  38.431  14.779
76315NA+    NA+44678  26.065   4.404   0.845
76316NA+    NA+44679  37.351   7.364  12.511
76317NA+    NA+44680  16.636  41.852  14.474
76318NA+    NA+44681  44.967   8.814   0.394
76319NA+    NA+44682  35.493  44.826  13.881
76320NA+    NA+44683  14.217   3.322   0.446
76321NA+    NA+44684  30.615   2.352  11.023
76322NA+    NA+44685  42.956  22.015  11.115
76323NA+    NA+44686   4.235  20.175  11.896
76324NA+    NA+44687  37.007   0.492  11.986
76325NA+    NA+44688  28.625  27.055   1.817
76326NA+    NA+44689  16.166  26.170  14.351
76327NA+    NA+44690  33.399  32.991  11.432
76328NA+    NA+44691   1.332  21.632  11.108
76329NA+    NA+44692  22.702   4.848  11.609
76330NA+    NA+44693  22.006  36.008   3.181
76331NA+    NA+44694   3.954   1.869  12.509
76332NA+    NA+44695  40.894  44.390  11.491
76333NA+    NA+44696  38.930  29.063  10.915
76334NA+    NA+44697  14.207  44.931   0.283
76335NA+    NA+44698  18.756  36.037   3.335
76336NA+    NA+44699  40.876  31.914  11.479
76337NA+    NA+44700  14.603  10.381   2.200
76338NA+    NA+44701  20.273  30.079  14.013
76339NA+    NA+44702  25.968  21.259  12.344
76340NA+    NA+44703  12.698  24.528   3.643
76341NA+    NA+44704   9.822  21.263   1.760
76342NA+    NA+44705  34.449   6.688  14.290
76343NA+    NA+44706   6.809   9.198  11.124
76344NA+    NA+44707  28.536   5.291   3.188
76345NA+    NA+44708  16.231  19.105  10.919
76346NA+    NA+44709   1.373   0.958   2.406
76347NA+    NA+44710  14.628   3.876  12.448
76348NA+    NA+44711   8.666   7.870   4.176
76349NA+    NA+44712   9.823  31.445   3.237
76350NA+    NA+44713  14.323  29.099  12.379
76351NA+    NA+44714  10.322  16.663   0.806
76352NA+    NA+44715  30.554  11.349   1.799
76353NA+    NA+44716  14.097  30.419  14.978
76354NA+    NA+44717  33.974  25.557   2.347
76355NA+    NA+44718  16.093  39.476  13.507
76356NA+    NA+44719  39.970  35.939  12.881
76357NA+    NA+44720  25.503  30.993   3.229
76358NA+    NA+44721  17.751  41.923  12.540
76359NA+    NA+44722  37.024  12.614   4.733
76360NA+    NA+44723   8.795  11.772   3.662
76361NA+    NA+44724  36.063   9.783  12.402
76362NA+    NA+44725  17.290   2.423   1.218
76363NA+    NA+44726  39.415  27.689   2.333
76364NA+    NA+44727  14.174  20.137  12.893
76365NA+    NA+44728  34.031  23.083   1.761
76366NA+    NA+44729  33.050  40.438   3.646
76367NA+    NA+44730  18.246  31.150  12.445
76368NA+    NA+44731  34.907  19.763   1.445
76369NA+    NA+44732  43.904  15.804   1.754
76370NA+    NA+44733  36.968  22.216  12.397
76371NA+    NA+44734   0.433  15.690  14.357
76372NA+    NA+44735   2.463  38.433   3.162
76373NA+    NA+44736  27.119   2.752  12.511
76374NA+    NA+44737  27.518  22.715   4.339
76375NA+    NA+44738   2.829  31.453  12.388
76376NA+    NA+44739  25.190   3.375  10.567
76377NA+    NA+44740  10.270   6.284   1.268
76378NA+    NA+44741  33.569  25.177   3.353
76379NA+    NA+44742   2.840  32.598   3.824
76380NA+    NA+44743  19.730  10.652   3.638
76381NA+    NA+44744   1.340  23.584   3.279
76382NA+    NA+44745  34.450   8.196   2.899
76383NA+    NA+44746   6.779   5.215  12.078
76384NA+    NA+44747  37.359   9.240  12.027
76385NA+    NA+44748   8.389  30.043  11.525
76386NA+    NA+44749  22.151  40.812  12.545
76387NA+    NA+44750  19.581  34.963   0.864
76388NA+    NA+44751  24.230  27.530  11.539
76389NA+    NA+44752  35.070  19.748  14.938
76390NA+    NA+44753  11.155  38.028  13.335
76391NA+    NA+44754  17.101  41.356   4.686
76392NA+    NA+44755  35.961  14.823   1.921
76393NA+    NA+44756  12.165  23.723  13.541
76394NA+    NA+44757  25.575  19.058   4.128
76395NA+    NA+44758   5.233  23.496  13.877
76396NA+    NA+44759  10.296  25.979   0.271
76397NA+    NA+44760  44.956  27.544  12.907
76398NA+    NA+44761  24.590  37.021  13.938
76399NA+    NA+44762  30.507   6.915   2.182
76400NA+    NA+44763  20.151  16.174   0.870
76401NA+    NA+44764  35.022   5.784   4.608
76402NA+    NA+44765   3.442   9.849   4.824
76403NA+    NA+44766  40.479  41.982  11.948
76404NA+    NA+44767  28.676  38.403   0.376
76405NA+    NA+44768   2.329   2.276  10.524
76406NA+    NA+44769  23.218  11.727  13.868
76407NA+    NA+44770  37.943  12.834  12.995
76408NA+    NA+44771  17.299  24.656  10.923
76409NA+    NA+44772   5.757  39.038  11.422
76410NA+    NA+44773   8.198  18.702  14.360
76411NA+    NA+44774  14.600   5.902   4.329
76412NA+    NA+44775  12.362  12.320  13.383
76413NA+    NA+44776   1.904  34.535   4.204
76414NA+    NA+44777   0.803  41.787   4.756
76415NA+    NA+44778   4.395  37.001   1.214
76416NA+    NA+44779  38.826   4.219  10.468
76417NA+    NA+44780  34.601   0.963  11.489
76418NA+    NA+44781   2.771  24.657   2.776
76419NA+    NA+44782  30.978  19.178   2.418
76420NA+    NA+44783   1.827   1.731   3.274
76421NA+    NA+44784  38.979  33.620   0.776
76422NA+    NA+44785  35.014  41.404  10.541
76423NA+    NA+44786  13.768  40.862   2.313
76424NA+    NA+44787   4.876  29.660  11.978
76425NA+    NA+44788  10.176  34.487   3.242
76426NA+    NA+44789  39.409  30.921  14.876
76427NA+    NA+44790  23.693   4.397   0.803
76428NA+    NA+44791   5.854  17.257  11.084
76429NA+    NA+44792  32.924   8.359  14.894
76430NA+    NA+44793  30.007  38.408   3.176
76431NA+    NA+44794   7.827  19.125  12.889
76432NA+    NA+44795   6.794  21.735  10.907
76433NA+    NA+44796  32.555  14.264  11.869
76434NA+    NA+44797   1.966  35.063   4.126
76435NA+    NA+44798   3.395   8.680  10.966
76436NA+    NA+44799  24.027  16.626   0.916
76437NA+    NA+44800   6.375  21.639   1.446
76438NA+    NA+44801  19.673  21.258   4.815
76439NA+    NA+44802  16.622   5.831   0.406
76440NA+    NA+44803  36.572  34.444  11.409
76441NA+    NA+44804  17.640  44.836   0.448
76442NA+    NA+44805   4.804  35.053   1.335
76443NA+    NA+44806  40.546   6.793  12.507
76444NA+    NA+44807  29.054   0.790   2.827
76445NA+    NA+44808  40.549  41.491   3.206
76446NA+    NA+44809  33.958  42.404   1.326
76447NA+    NA+44810   2.928  14.750   3.298
76448NA+    NA+44811  38.386  10.143   4.237
76449NA+    NA+44812  13.243  13.745  10.496
76450NA+    NA+44813  28.954  21.171  13.390
76451NA+    NA+44814  12.316  37.978   2.298
76452NA+    NA+44815  39.017   1.832  10.084
76453NA+    NA+44816  34.011   1.282  10.896
76454NA+    NA+44817   2.382  16.127   1.876
76455NA+    NA+44818  21.636  12.246   1.241
76456NA+    NA+44819  26.087   2.245  14.851
76457NA+    NA+44820  42.318  20.712  11.894
76458NA+    NA+44821  42.887  42.838  12.423
76459NA+    NA+44822  10.687  25.043   0.775
76460NA+    NA+44823   6.297  25.682   4.283
76461NA+    NA+44824  20.113  26.127  14.789
76462NA+    NA+44825  41.013  39.421   4.611
76463NA+    NA+44826  14.815  42.786   2.341
76464NA+    NA+44827  11.255  29.602  11.013
76465NA+    NA+44828  15.671  32.459   0.480
76466NA+    NA+44829   8.686   3.330   3.145
76467NA+    NA+44830   4.423  21.660  11.046
76468NA+    NA+44831   6.829   4.890   3.152
76469NA+    NA+44832  27.542  43.985  13.325
76470NA+    NA+44833   0.344  12.832  13.918
76471NA+    NA+44834  34.384  44.794  14.280
76472NA+    NA+44835  30.923   9.833   4.321
76473NA+    NA+44836  13.323  19.560   1.836
76474NA+    NA+44837  29.042  12.216   2.284
76475NA+    NA+44838  37.956  21.166  13.980
76476NA+    NA+44839  30.951  33.125  12.539
76477NA+    NA+44840   9.288  11.208  14.978
76478NA+    NA+44841  20.557  13.741   1.435
76479NA+    NA+44842  33.971  25.576  12.474
76480NA+    NA+44843  33.441  39.373  13.497
76481NA+    NA+44844  24.005  11.230  12.552
76482NA+    NA+44845  31.974  24.066  14.345
76483NA+    NA+44846  41.851   2.921  13.828
76484NA+    NA+44847  34.525  40.981   0.365
76485NA+    NA+44848  19.578  33.537  13.849
76486NA+    NA+44849  11.282  23.617  13.931
76487NA+    NA+44850  36.024  32.601  14.300
76488NA+    NA+44851  44.412  29.541  12.848
76489NA+    NA+44852  19.185  12.274   3.195
76490NA+    NA+44853  38.842  19.172  12.880
76491NA+    NA+44854  35.957  15.127  14.484
76492NA+    NA+44855  32.090  18.618   0.830
76493NA+    NA+44856  12.779  26.127   4.113
76494NA+    NA+44857  24.631  30.959  11.077
76495NA+    NA+44858  36.542  24.611  13.433
76496NA+    NA+44859  16.683  33.524  12.870
76497NA+    NA+44860   1.250   3.712   2.395
76498NA+    NA+44861   8.336  27.161  10.629
76499NA+    NA+44862  24.546  10.678   4.284
76500NA+    NA+44863  30.449  25.071  14.808
76501NA+    NA+44864   8.734   1.832  11.104
76502NA+    NA+44865  34.030  16.303  13.063
76503NA+    NA+44866  14.155  40.502  13.341
76504NA+    NA+44867  22.676  29.594  12.904
76505NA+    NA+44868  44.816  37.546  12.023
76506NA+    NA+44869  40.399  43.904   3.720
76507NA+    NA+44870  20.031   7.383  12.344
76508NA+    NA+44871  37.556  32.049  13.022
76509NA+    NA+44872  17.744   5.263   1.447
76510NA+    NA+44873  23.689  12.716  12.847
76511NA+    NA+44874   0.774  22.575   0.894
76512NA+    NA+44875  21.109  35.437   2.878
76513NA+    NA+44876  29.487  21.634  12.903
76514NA+    NA+44877  10.730  21.193  11.514
76515NA+    NA+44878  27.165  18.644   3.681
76516NA+    NA+44879  14.680   2.945  14.805
76517NA+    NA+44880   4.712  42.924   4.122
76518NA+    NA+44881  32.026   2.740   4.163
76519NA+    NA+44882   1.443  36.951  11.061
76520NA+    NA+44883  18.791  40.329   2.836
76521NA+    NA+44884  31.084  39.001   0.428
76522NA+    NA+44885  25.649  20.223  12.382
76523NA+    NA+44886  18.754  31.069   1.757
76524NA+    NA+44887  32.974  22.238  13.838
76525NA+    NA+44888   3.400  12.725   2.897
76526NA+    NA+44889  21.082  14.749   2.365
76527NA+    NA+44890  44.937  28.642   4.815
76528NA+    NA+44891  30.933  15.088  10.471
76529NA+    NA+44892  20.184  43.503   0.926
76530NA+    NA+44893  39.879   1.843   3.739
76531NA+    NA+44894  40.517  37.972   1.703
76532NA+    NA+44895  38.899  40.007  12.494
76533NA+    NA+44896  28.053  44.951  12.367
76534NA+    NA+44897  34.501  10.366  14.810
76535NA+    NA+44898  28.469  17.800  13.315
76536NA+    NA+44899  44.498  43.402   5.301
76537NA+    NA+44900  23.149  39.909   2.884
76538NA+    NA+44901  14.735   9.671   3.663
76539NA+    NA+44902  14.251  26.142  10.498
76540NA+    NA+44903  33.495  42.408   4.176
76541NA+    NA+44904  42.367  38.451   1.351
76542NA+    NA+44905   1.872   3.834  11.486
76543NA+    NA+44906  27.591  29.955   1.250
76544NA+    NA+44907   2.927  42.943   0.404
76545NA+    NA+44908  24.180  34.071  13.329
76546NA+    NA+44909  10.315  39.389   2.279
76547NA+    NA+44910  33.098  39.925  14.924
76548NA+    NA+44911  21.648   6.829   1.250
76549NA+    NA+44912  32.979  31.996   2.891
76550NA+    NA+44913   8.881  23.643  13.413
76551NA+    NA+44914  19.731  41.507  12.921
76552NA+    NA+44915  26.644  41.324  11.040
76553NA+    NA+44916  44.838  16.289  14.333
76554NA+    NA+44917  28.952  33.922  12.076
76555NA+    NA+44918   4.898  14.657  14.955
76556NA+    NA+44919  23.238  33.011   3.652
76557NA+    NA+44920  25.593  19.220   3.704
76558NA+    NA+44921  41.874  16.138  12.989
76559NA+    NA+44922  36.457  27.174  11.534
76560NA+    NA+44923  39.845  18.285   1.831
76561NA+    NA+44924  26.110   5.814  13.310
76562NA+    NA+44925  20.581  43.441  12.012
76563NA+    NA+44926   5.375  14.764  12.887
76564NA+    NA+44927  11.132  10.665   2.386
76565NA+    NA+44928  37.515  11.698  13.974
76566NA+    NA+44929  27.502  26.175   0.469
76567NA+    NA+44930   1.461  28.042   3.277
76568NA+    NA+44931  40.497  15.667   1.884
76569NA+    NA+44932  31.560  14.262   4.261
76570NA+    NA+44933  21.564  16.620   0.886
76571NA+    NA+44934  17.082  11.864   4.159
76572NA+    NA+44935  16.631   5.728   2.821
76573NA+    NA+44936  30.012  37.910  11.890
76574NA+    NA+44937  12.615  27.657  12.844
76575NA+    NA+44938  41.907  31.048   2.791
76576NA+    NA+44939  21.198  25.588  13.505
76577NA+    NA+44940  17.709  44.880   3.152
76578NA+    NA+44941  23.107   1.399   3.695
76579NA+    NA+44942  20.754  42.480   0.349
76580NA+    NA+44943  17.178  16.765   1.859
76581NA+    NA+44944   5.769   3.258  10.497
76582NA+    NA+44945  31.439  29.142  10.618
76583NA+    NA+44946   3.319  31.506  11.059
76584NA+    NA+44947  10.259  41.374   0.809
76585NA+    NA+44948   3.307  17.183   1.829
76586NA+    NA+44949  33.474  36.098   1.785
76587NA+    NA+44950  14.616   7.907   2.405
76588NA+    NA+44951  20.581  36.866  13.054
76589NA+    NA+44952   1.845   4.254  10.996
76590NA+    NA+44953  41.988  25.136   1.887
76591NA+    NA+44954  27.955   9.735  13.500
76592NA+    NA+44955  10.379  29.591   2.876
76593NA+    NA+44956  32.505   1.781   2.739
76594NA+    NA+44957  32.123  40.045  12.963
76595NA+    NA+44958   9.261   4.211   0.264
76596NA+    NA+44959  37.948   2.375   3.865
76597NA+    NA+44960  43.384  20.736   1.879
76598NA+    NA+44961  16.792  20.273  14.378
76599NA+    NA+44962  13.105  34.036   4.165
76600NA+    NA+44963  33.092   0.364   3.293
76601NA+    NA+44964   6.919   7.683   1.423
76602NA+    NA+44965  17.230  35.540  13.049
76603NA+    NA+44966  20.748  16.698  13.455
76604NA+    NA+44967  31.988  36.564   0.815
76605NA+    NA+44968  41.462  13.160   0.462
76606NA+    NA+44969   7.699  33.410  13.534
76607NA+    NA+44970   1.891  33.550   2.786
76608NA+    NA+44971   1.393  24.196  11.485
76609NA+    NA+44972   0.793  39.979   4.793
76610NA+    NA+44973  33.124  39.316   3.680
76611NA+    NA+44974  44.927   5.769   4.801
76612NA+    NA+44975   1.265  27.994  13.523
76613NA+    NA+44976  39.039  19.654   0.813
76614NA+    NA+44977  38.568  21.062   0.782
76615NA+    NA+44978  23.174  35.889  10.543
76616NA+    NA+44979   9.743  43.840   2.842
76617NA+    NA+44980  31.995   8.726   1.790
76618NA+    NA+44981  15.298  12.337   1.427
76619NA+    NA+44982  19.063  30.049  11.574
76620NA+    NA+44983  37.071  30.017   4.657
76621NA+    NA+44984   3.898   2.964  14.926
76622NA+    NA+44985  25.206  31.080  12.017
76623NA+    NA+44986  20.730  23.614   4.174
76624NA+    NA+44987  36.914  44.488   4.188
76625NA+    NA+44988   8.884  36.085  12.568
76626NA+    NA+44989  27.126   8.874   2.767
76627NA+    NA+44990  14.234  11.236   0.753
76628NA+    NA+44991  41.025  30.597   4.202
76629NA+    NA+44992  44.966   1.355   1.826
76630NA+    NA+44993  41.529  29.993   1.308
76631NA+    NA+44994  38.827  42.030   3.731
76632NA+    NA+44995  34.063   0.969  10.973
76633NA+    NA+44996  19.055  21.171  11.957
76634NA+    NA+44997  41.943  42.516  12.386
76635NA+    NA+44998   8.338  12.177   0.906
76636NA+    NA+44999  39.856  15.687  13.019
76637NA+    NA+45000  44.403   1.773  10.431
76638NA+    NA+45001  10.694  13.621   2.308
76639NA+    NA+45002  10.353  37.471   2.323
76640NA+    NA+45003  41.827  17.222  10.048
76641NA+    NA+45004   6.828  24.609   4.158
76642NA+    NA+45005  35.476   1.365   3.806
76643NA+    NA+45006   8.253  15.691   2.293
76644NA+    NA+45007  28.496  35.916  13.395
76645NA+    NA+45008   7.801  28.644  11.423
76646NA+    NA+45009  36.428  18.768   5.269
76647NA+    NA+45010  31.620  20.101   1.868
76648NA+    NA+45011  25.980  24.981  10.492
76649NA+    NA+45012  27.947  27.953   4.309
76650NA+    NA+45013  41.392  35.039   0.368
76651NA+    NA+45014  31.518  42.499   4.147
76652NA+    NA+45015   4.336  25.082   3.370
76653NA+    NA+45016  21.170  36.872  13.342
76654NA+    NA+45017   1.330   1.904  11.477
76655NA+    NA+45018  42.410  42.350   2.820
76656NA+    NA+45019  15.650   1.385  10.949
76657NA+    NA+45020  32.076  29.604  12.909
76658NA+    NA+45021   9.236   9.205  14.873
76659NA+    NA+45022  16.593  16.659  13.875
76660NA+    NA+45023  32.452  15.092   4.257
76661NA+    NA+45024  37.379  44.270   2.826
76662NA+    NA+45025  31.007  40.974   2.319
76663NA+    NA+45026  30.548  17.231  13.429
76664NA+    NA+45027  25.082  41.507   1.925
76665NA+    NA+45028  17.280  13.116   3.354
76666NA+    NA+45029   8.381  33.605   1.780
76667NA+    NA+45030   9.744  28.090   0.767
76668NA+    NA+45031  43.812  25.161  11.570
76669NA+    NA+45032  23.003  21.602  13.501
76670NA+    NA+45033  28.107  23.523  13.363
76671NA+    NA+45034  22.655  26.158   4.754
76672NA+    NA+45035  35.388  29.529   3.242
76673NA+    NA+45036  34.523  43.959   2.828
76674NA+    NA+45037   8.777  16.566  13.540
76675NA+    NA+45038  40.897  25.984  12.934
76676NA+    NA+45039  30.445  42.330   0.278
76677NA+    NA+45040  15.670  17.632  13.322
76678NA+    NA+45041  25.562   4.380  14.930
76679NA+    NA+45042   3.254  37.835   0.379
76680NA+    NA+45043  33.067   8.886  11.013
76681NA+    NA+45044  33.034  19.533   4.192
76682NA+    NA+45045   5.426   9.661  13.801
76683NA+    NA+45046  19.075  32.973   2.776
76684NA+    NA+45047  22.614   5.397   1.732
76685NA+    NA+45048   5.904  10.851   4.607
76686NA+    NA+45049   0.305  38.518  11.861
76687NA+    NA+45050  44.372  35.025  10.927
76688NA+    NA+45051  37.570  18.112  10.910
76689NA+    NA+45052   6.790  15.717  12.846
76690NA+    NA+45053  14.300   4.321   0.337
76691NA+    NA+45054  28.525  36.074   1.891
76692NA+    NA+45055  27.128   0.359  12.516
76693NA+    NA+45056  19.543  43.975  13.921
76694NA+    NA+45057  30.128  16.661   3.868
76695NA+    NA+45058  35.006   4.921  12.945
76696NA+    NA+45059  42.307  10.651   4.780
76697NA+    NA+45060  43.854  43.822  13.505
76698NA+    NA+45061  11.753  18.232  13.503
76699NA+    NA+45062  18.117  41.842   3.759
76700NA+    NA+45063  43.794  22.055  12.351
76701NA+    NA+45064   6.763  35.951  13.842
76702NA+    NA+45065  15.097  38.498   0.738
76703NA+    NA+45066  38.898  17.077   1.835
76704NA+    NA+45067  34.874  20.112   2.273
76705NA+    NA+45068  31.044   3.852   2.807
76706NA+    NA+45069  34.395  26.565   5.156
76707NA+    NA+45070  42.002   3.387  12.571
76708NA+    NA+45071  13.680  26.695  14.880
76709NA+    NA+45072  36.870  18.695   2.317
76710NA+    NA+45073   0.806  39.862  12.089
76711NA+    NA+45074  10.325  40.029   1.389
76712NA+    NA+45075  26.476   7.270   1.883
76713NA+    NA+45076  36.842  23.583  14.829
76714NA+    NA+45077  17.095  28.001   2.852
76715NA+    NA+45078  19.271  11.169  10.546
76716NA+    NA+45079  37.863   3.261  11.389
76717NA+    NA+45080  12.323   9.212   1.872
76718NA+    NA+45081  10.216  23.068   1.828
76719NA+    NA+45082  17.671  26.695  10.529
76720NA+    NA+45083  22.125   9.303   0.294
76721NA+    NA+45084  15.821  20.675  11.387
76722NA+    NA+45085  11.685  29.521  10.904
76723NA+    NA+45086  23.626  36.529  10.642
76724NA+    NA+45087  33.906  43.807  12.039
76725NA+    NA+45088  39.393  38.449  11.927
76726NA+    NA+45089  43.801  39.964  14.784
76727NA+    NA+45090  30.063   3.339   1.302
76728NA+    NA+45091  12.678  31.648   4.124
76729NA+    NA+45092  31.129  31.547  13.441
76730NA+    NA+45093  25.125  22.618   5.302
76731NA+    NA+45094   9.270  41.815  11.970
76732NA+    NA+45095  29.106  36.912  12.064
76733NA+    NA+45096  35.903  44.456  14.832
76734NA+    NA+45097  39.315  41.007   4.351
76735NA+    NA+45098  39.864   0.851   4.189
76736NA+    NA+45099  44.932  35.376   1.323
76737NA+    NA+45100  11.690  15.246   2.271
76738NA+    NA+45101   6.220  18.288   1.772
76739NA+    NA+45102   9.807  44.779  13.875
76740NA+    NA+45103  18.585   7.321  12.544
76741NA+    NA+45104  42.932  29.484  11.534
76742NA+    NA+45105  17.219   0.310  13.831
76743NA+    NA+45106  35.562  43.466  13.055
76744NA+    NA+45107  10.281  40.842  13.996
76745NA+    NA+45108  13.150   2.777   2.267
76746NA+    NA+45109  37.982  14.164  10.902
76747NA+    NA+45110  29.053  26.971   4.620
76748NA+    NA+45111  22.571  44.815   4.784
76749NA+    NA+45112  13.714  23.501   0.314
76750NA+    NA+45113   8.805   4.377   3.808
76751NA+    NA+45114  14.099  26.127   2.811
76752NA+    NA+45115  15.824  23.003   1.748
76753NA+    NA+45116  11.767   3.863  11.062
76754NA+    NA+45117  25.519   0.438  13.494
76755NA+    NA+45118  41.367  16.571  14.477
76756NA+    NA+45119  24.205  24.079   1.792
76757NA+    NA+45120  26.564  11.865   3.294
76758NA+    NA+45121  32.542  36.498   0.875
76759NA+    NA+45122  39.319  24.009  10.507
76760NA+    NA+45123   6.254  25.677  10.563
76761NA+    NA+45124  43.361  31.961   4.646
76762NA+    NA+45125   3.915  31.458  14.784
76763NA+    NA+45126  21.141  36.024   2.769
76764NA+    NA+45127  38.831   0.452  13.925
76765NA+    NA+45128   1.795  16.227  10.973
76766NA+    NA+45129  32.125  16.199  11.394
76767NA+    NA+45130  36.985  25.099   2.706
76768NA+    NA+45131  35.081  28.052  11.097
76769NA+    NA+45132  28.986   9.374  14.784
76770NA+    NA+45133  26.666  31.938   4.640
76771NA+    NA+45134  37.578  42.293  14.427
76772NA+    NA+45135  23.033  14.817  14.826
76773NA+    NA+45136  23.723   1.759   1.436
76774NA+    NA+45137  30.105   8.271  10.950
76775NA+    NA+45138  30.412  35.908  12.082
76776NA+    NA+45139  19.751  26.140   2.701
76777NA+    NA+45140  37.521  19.136  11.946
76778NA+    NA+45141  27.962  42.434  13.825
76779NA+    NA+45142  38.342  35.391  11.567
76780NA+    NA+45143   7.717  41.366   3.264
76781NA+    NA+45144  13.141  35.404   3.695
76782NA+    NA+45145   2.954  33.412  11.906
76783NA+    NA+45146  10.717   3.272  11.522
76784NA+    NA+45147  33.124   3.896   0.294
76785NA+    NA+45148   3.426  26.150  14.930
76786NA+    NA+45149   4.328   9.232  13.463
76787NA+    NA+45150  30.037  27.975  10.595
76788NA+    NA+45151  19.214  41.009  10.533
76789NA+    NA+45152   8.862  32.604   5.315
76790NA+    NA+45153  27.143  30.914  10.472
76791NA+    NA+45154  31.500  13.212  12.984
76792NA+    NA+45155  35.882  44.365   4.317
76793NA+    NA+45156   1.314   0.952   1.382
76794NA+    NA+45157  39.499  20.634  14.009
76795NA+    NA+45158  36.378  41.868   3.192
76796NA+    NA+45159  32.418  24.063   0.788
76797NA+    NA+45160  10.232  22.077   2.739
76798NA+    NA+45161  38.399  11.685   3.336
76799NA+    NA+45162   9.765   0.304  12.936
76800NA+    NA+45163   5.774  24.172   4.804
76801NA+    NA+45164  15.310  16.186  10.435
76802NA+    NA+45165  23.035  20.680  14.853
76803NA+    NA+45166  38.392   8.821  13.792
76804NA+    NA+45167  31.151   5.827  12.490
76805NA+    NA+45168  25.130  41.795  13.003
76806NA+    NA+45169   5.713  32.600   0.839
76807NA+    NA+45170   3.942   6.696  12.567
76808NA+    NA+45171   9.817  19.663   0.370
76809NA+    NA+45172  38.942  13.341  12.578
76810NA+    NA+45173  43.512  26.172   3.182
76811NA+    NA+45174  39.985  32.054   1.773
76812NA+    NA+45175  24.666  25.550   2.753
76813NA+    NA+45176  12.774   5.809  12.539
76814NA+    NA+45177  37.576  35.031   4.833
76815NA+    NA+45178   2.446   4.439   1.391
76816NA+    NA+45179   7.367  36.517   2.388
76817NA+    NA+45180  41.914   4.885   4.822
76818NA+    NA+45181   9.202  27.032  12.439
76819NA+    NA+45182  11.761   9.729  13.400
76820NA+    NA+45183  13.156  13.170   3.633
76821NA+    NA+45184  42.919  21.195  10.508
76822NA+    NA+45185  21.582   3.865   3.787
76823NA+    NA+45186  43.808   7.899  14.867
76824NA+    NA+45187  16.219  16.118   0.382
76825NA+    NA+45188   7.192  37.490   0.963
76826NA+    NA+45189  26.061  42.484  12.575
76827NA+    NA+45190  36.427   2.757  14.351
76828NA+    NA+45191  30.628  26.480  12.947
76829NA+    NA+45192  40.376  23.702  11.489
76830NA+    NA+45193  17.705  22.678  12.861
76831NA+    NA+45194  16.189   1.857  12.073
76832NA+    NA+45195  44.904  30.931   1.256
76833NA+    NA+45196   5.361   4.922  10.008
76834NA+    NA+45197  10.202  35.380   2.228
76835NA+    NA+45198  27.637  28.175   0.323
76836NA+    NA+45199  17.231  15.222   4.792
76837NA+    NA+45200  39.401  26.612   3.317
76838NA+    NA+45201  17.201  16.585   5.575
76839NA+    NA+45202  30.915  22.246  12.537
76840NA+    NA+45203  23.678  13.780   1.742
76841NA+    NA+45204  35.375   7.898  11.119
76842NA+    NA+45205  23.530  11.138  12.350
76843NA+    NA+45206  30.073  23.508   3.203
76844NA+    NA+45207  36.474   3.402   3.793
76845NA+    NA+45208  39.457  13.338   3.243
76846NA+    NA+45209   7.170  25.976  13.868
76847NA+    NA+45210  44.364  17.558   4.826
76848NA+    NA+45211  29.638  40.972   0.374
76849NA+    NA+45212   8.657  19.711  11.890
76850NA+    NA+45213  35.102   2.401  11.456
76851NA+    NA+45214   2.951  44.265   0.391
76852NA+    NA+45215  32.955  16.773  14.448
76853NA+    NA+45216  40.328  26.537  13.933
76854NA+    NA+45217  23.033   4.735  14.308
76855NA+    NA+45218   2.382   0.493  12.484
76856NA+    NA+45219   7.206  12.754  12.869
76857NA+    NA+45220  31.932  11.767  12.372
76858NA+    NA+45221  13.630   0.986   1.916
76859NA+    NA+45222   9.705   5.784  13.496
76860NA+    NA+45223  24.486  34.536  12.087
76861NA+    NA+45224  14.173  39.483  14.363
76862NA+    NA+45225  33.073  11.219   0.769
76863NA+    NA+45226  14.593  13.161   1.267
76864NA+    NA+45227  40.320  37.955   4.268
76865NA+    NA+45228  31.635  26.107  12.858
76866NA+    NA+45229  14.596  16.717  14.332
76867NA+    NA+45230  19.595  39.050   2.690
76868NA+    NA+45231  40.938  24.980   2.791
76869NA+    NA+45232  11.141  31.628   4.263
76870NA+    NA+45233  44.329  39.958  14.945
76871NA+    NA+45234   9.188  10.200  11.386
76872NA+    NA+45235  40.980   1.341  11.943
76873NA+    NA+45236  44.913   2.825   4.301
76874NA+    NA+45237  21.233  18.220   4.216
76875NA+    NA+45238  15.275  15.673   2.358
76876NA+    NA+45239  32.426  29.922  13.863
76877NA+    NA+45240  22.166  18.264   0.461
76878NA+    NA+45241  32.090  36.099   4.678
76879NA+    NA+45242   8.302   8.660  11.038
76880NA+    NA+45243  29.613  35.543   0.421
76881NA+    NA+45244   9.737   4.427  14.284
76882NA+    NA+45245  34.017   9.263   4.170
76883NA+    NA+45246  15.801  35.069   1.334
76884NA+    NA+45247  29.116  12.183  12.036
76885NA+    NA+45248   9.207  39.450   2.231
76886NA+    NA+45249  29.992  31.027  12.341
76887NA+    NA+45250  22.219   0.391   0.465
76888NA+    NA+45251  34.603  17.705  12.500
76889NA+    NA+45252  12.737  34.377  10.541
76890NA+    NA+45253  12.337  18.719   4.756
76891NA+    NA+45254  16.603  27.977  13.431
76892NA+    NA+45255  26.974   2.244   3.250
76893NA+    NA+45256  21.676  33.481  10.058
76894NA+    NA+45257  10.324  30.642   3.376
76895NA+    NA+45258  27.156  22.216   1.365
76896NA+    NA+45259  40.349  11.673   2.412
76897NA+    NA+45260  34.590  28.959  13.344
76898NA+    NA+45261  24.185   2.239   0.415
76899NA+    NA+45262  15.196  10.223   0.446
76900NA+    NA+45263  18.600  14.617   4.281
76901NA+    NA+45264   3.353   6.392   4.152
76902NA+    NA+45265  28.990   6.196   2.697
76903NA+    NA+45266  27.082   2.268  13.461
76904NA+    NA+45267   7.220   2.748  12.995
76905NA+    NA+45268  42.781   9.160  12.339
76906NA+    NA+45269  35.933   1.809   4.689
76907NA+    NA+45270  29.949  11.668  10.481
76908NA+    NA+45271  41.999  30.930  14.463
76909NA+    NA+45272   2.456  25.704   2.259
76910NA+    NA+45273  32.950  27.484  14.424
76911NA+    NA+45274  23.050  12.265   0.898
76912NA+    NA+45275  27.180  33.485  10.578
76913NA+    NA+45276  39.061  17.753   4.284
76914NA+    NA+45277  41.487  24.999   2.368
76915NA+    NA+45278  12.261  36.516  13.037
76916NA+    NA+45279  13.639  29.462  11.513
76917NA+    NA+45280  26.971  36.951  14.847
76918NA+    NA+45281  30.914   4.745  13.048
76919NA+    NA+45282  19.709  21.092  10.973
76920NA+    NA+45283  21.753  14.754   4.816
76921NA+    NA+45284  38.894  14.617  13.014
76922NA+    NA+45285  14.147   1.407  14.938
76923NA+    NA+45286  33.974  28.557   1.880
76924NA+    NA+45287  29.526  13.231   1.766
76925NA+    NA+45288  13.605   9.284  10.599
76926NA+    NA+45289   1.872  27.617  11.083
76927NA+    NA+45290  43.965  36.006  12.077
76928NA+    NA+45291  13.725   3.927  10.577
76929NA+    NA+45292  14.829  12.791  13.442
76930NA+    NA+45293   6.304  28.113   4.336
76931NA+    NA+45294   6.420  42.881  11.017
76932NA+    NA+45295   7.302  30.921  14.885
76933NA+    NA+45296  12.831   3.839   2.845
76934NA+    NA+45297   3.905  30.642  13.807
76935NA+    NA+45298   0.861  25.515   2.795
76936NA+    NA+45299  29.024  44.865   4.697
76937NA+    NA+45300   5.841   0.824  14.981
76938NA+    NA+45301  37.956  42.954   3.664
76939NA+    NA+45302  26.612  42.377  14.772
76940NA+    NA+45303  22.060   9.355  12.833
76941NA+    NA+45304  43.798  12.310  14.334
76942NA+    NA+45305  41.442  26.679  11.421
76943NA+    NA+45306  42.287  43.910  11.940
76944NA+    NA+45307  18.563  18.110  11.987
76945NA+    NA+45308  10.263  10.221   1.218
76946NA+    NA+45309  37.456  32.428  14.814
76947NA+    NA+45310  20.670  26.042   1.315
76948NA+    NA+45311  17.135  23.728  11.455
76949NA+    NA+45312  16.184  30.931   1.706
76950NA+    NA+45313  10.285   4.255   3.629
76951NA+    NA+45314  33.472  32.085  12.852
76952NA+    NA+45315  42.450  32.124  10.412
76953NA+    NA+45316   2.863   3.838   2.394
76954NA+    NA+45317  22.115  12.187   2.391
76955NA+    NA+45318  16.786  24.017   1.265
76956NA+    NA+45319  33.588   0.744   0.840
76957NA+    NA+45320  16.172  36.879   1.916
76958NA+    NA+45321  32.104  26.976  12.929
76959NA+    NA+45322  40.813  14.157   1.361
76960NA+    NA+45323  20.752  23.052  11.977
76961NA+    NA+45324  41.361  43.004  11.033
76962NA+    NA+45325  27.041  16.244  13.918
76963NA+    NA+45326   3.732  32.466   4.117
76964NA+    NA+45327  33.517  14.166  10.971
76965NA+    NA+45328   3.837  43.391   5.304
76966NA+    NA+45329  24.515  31.427  12.023
76967NA+    NA+45330  29.158   2.426  12.932
76968NA+    NA+45331  27.958   2.888   0.768
76969NA+    NA+45332   8.397  44.389   2.264
76970NA+    NA+45333  22.519   6.878   0.476
76971NA+    NA+45334  42.782   1.974   2.391
76972NA+    NA+45335  10.293  27.643  14.837
76973NA+    NA+45336  32.573  29.601  10.461
76974NA+    NA+45337   2.324  19.174   0.745
76975NA+    NA+45338  36.984  40.501  10.463
76976NA+    NA+45339   8.381  38.430  11.003
76977NA+    NA+45340  23.522   9.739  11.398
76978NA+    NA+45341  41.025  28.640  12.085
76979NA+    NA+45342  17.688  42.945   4.809
76980NA+    NA+45343   5.406   0.849   2.201
76981NA+    NA+45344  30.109  41.412   1.790
76982NA+    NA+45345  10.786  26.639  10.933
76983NA+    NA+45346  25.522   0.295  10.600
76984NA+    NA+45347   7.707  42.341   0.464
76985NA+    NA+45348  29.113  12.789   0.282
76986NA+    NA+45349  40.445   3.236   5.140
76987NA+    NA+45350  27.121  12.686   3.834
76988NA+    NA+45351  12.289  19.151  12.580
76989NA+    NA+45352  21.604  11.303   1.900
76990NA+    NA+45353  42.000   2.737  10.418
76991NA+    NA+45354  17.250  39.451   4.187
76992NA+    NA+45355  42.027  34.445   4.784
76993NA+    NA+45356  39.342   9.709   4.818
76994NA+    NA+45357  38.557  12.648  11.546
76995NA+    NA+45358  27.108  23.988   3.346
76996NA+    NA+45359  34.043   6.724   1.374
76997NA+    NA+45360  18.079   7.857   2.897
76998NA+    NA+45361  36.852   2.796   2.210
76999NA+    NA+45362  33.474  21.055   1.443
77000NA+    NA+45363  10.253  28.961   9.930
77001NA+    NA+45364  14.301  26.162  14.327
77002NA+    NA+45365  33.491  12.191  14.892
77003NA+    NA+45366  34.104  39.423   0.890
77004NA+    NA+45367  40.984   7.329   3.696
77005NA+    NA+45368   3.713  10.164  13.917
77006NA+    NA+45369  28.530  26.031  13.005
77007NA+    NA+45370   8.261  11.352  11.391
77008NA+    NA+45371  33.481  29.449   5.254
77009NA+    NA+45372  12.263   0.794   3.225
77010NA+    NA+45373   0.914  16.247  14.958
77011NA+    NA+45374  22.671  21.602   3.310
77012NA+    NA+45375   5.361  41.854   0.957
77013NA+    NA+45376  37.007  19.180  13.322
77014NA+    NA+45377  38.831  38.012   1.773
77015NA+    NA+45378  13.668  22.662   3.334
77016NA+    NA+45379  35.464  24.702   4.612
77017NA+    NA+45380  25.190   8.373  11.868
77018NA+    NA+45381  40.304  20.533  12.041
77019NA+    NA+45382  34.373  43.456   4.765
77020NA+    NA+45383  38.530   7.206   1.871
77021NA+    NA+45384  32.012  30.640  14.376
77022NA+    NA+45385  41.990  26.998   1.722
77023NA+    NA+45386  35.957  33.429  12.994
77024NA+    NA+45387  13.736   1.280   3.258
77025NA+    NA+45388  26.025  16.186   2.732
77026NA+    NA+45389  16.746   7.250   2.703
77027NA+    NA+45390  27.520  18.567  12.393
77028NA+    NA+45391  20.769  37.376   3.216
77029NA+    NA+45392   0.892  20.568  11.399
77030NA+    NA+45393  31.579  21.689   4.115
77031NA+    NA+45394  33.895  39.501  13.455
77032NA+    NA+45395   6.764  42.001  14.822
77033NA+    NA+45396  19.193   0.255  11.894
77034NA+    NA+45397  35.043  43.289   2.359
77035NA+    NA+45398  12.751   9.336   3.768
77036NA+    NA+45399  40.447  29.033   2.675
77037NA+    NA+45400  28.161  20.103  13.991
77038NA+    NA+45401  44.769  33.589  10.417
77039NA+    NA+45402   5.865  39.341   1.784
77040NA+    NA+45403  27.642  31.932  14.901
77041NA+    NA+45404  39.480  32.928  10.935
77042NA+    NA+45405   2.810  14.293  14.384
77043NA+    NA+45406  12.773  26.982  12.837
77044NA+    NA+45407  28.174  14.217   2.813
77045NA+    NA+45408  21.620  13.778   2.295
77046NA+    NA+45409  26.618  41.534   4.792
77047NA+    NA+45410  28.128  42.400   2.860
77048NA+    NA+45411  40.446  11.257  14.931
77049NA+    NA+45412  18.709  18.611  12.550
77050NA+    NA+45413  25.633   1.323  10.984
77051NA+    NA+45414  15.730   0.360   4.764
77052NA+    NA+45415  20.051  42.925   2.276
77053NA+    NA+45416  11.774  40.307  11.881
77054NA+    NA+45417  23.211  24.179   4.190
77055NA+    NA+45418   9.864  41.380   4.328
77056NA+    NA+45419  27.469  42.005   3.235
77057NA+    NA+45420  10.688  15.107  12.978
77058NA+    NA+45421   0.951   6.812   2.825
77059NA+    NA+45422  32.575  17.293  14.788
77060NA+    NA+45423   1.740   3.729   0.918
77061NA+    NA+45424  19.122  33.471  14.413
77062NA+    NA+45425  20.193   3.458  10.910
77063NA+    NA+45426  31.896  23.079  13.407
77064NA+    NA+45427   0.464  23.121   3.273
77065NA+    NA+45428  23.515  38.490   1.739
77066NA+    NA+45429  12.226   2.297  13.410
77067NA+    NA+45430  38.970  11.650  12.006
77068NA+    NA+45431  18.645  31.505  11.528
77069NA+    NA+45432  15.189  42.837   2.740
77070NA+    NA+45433  18.088  28.533  14.497
77071NA+    NA+45434  26.582  14.607   4.195
77072NA+    NA+45435  40.471  11.322  13.514
77073NA+    NA+45436  20.270  40.482   0.315
77074NA+    NA+45437  27.485  29.487  12.057
77075NA+    NA+45438  15.242   2.386   4.329
77076NA+    NA+45439   9.762  29.576  10.938
77077NA+    NA+45440  20.611  30.989  12.850
77078NA+    NA+45441  28.458  33.461  14.796
77079NA+    NA+45442  15.722   6.842   3.676
77080NA+    NA+45443  17.097   5.411   0.889
77081NA+    NA+45444  25.026  31.414   0.951
77082NA+    NA+45445  30.448  26.529  11.517
77083NA+    NA+45446  24.720  44.930   4.190
77084NA+    NA+45447   7.364  42.873   2.225
77085NA+    NA+45448  38.500  37.905   4.317
77086NA+    NA+45449  26.119  35.993   4.263
77087NA+    NA+45450  32.049  43.884  14.778
77088NA+    NA+45451  32.497   2.919   2.764
77089NA+    NA+45452  19.681  12.659  14.884
77090NA+    NA+45453  29.612  13.619   1.725
77091NA+    NA+45454  10.370  38.938  11.551
77092NA+    NA+45455  33.401  13.241  13.490
77093NA+    NA+45456   2.318  14.328   1.334
77094NA+    NA+45457   9.754   1.311   0.727
77095NA+    NA+45458  14.263  20.687   0.371
77096NA+    NA+45459  44.010  29.995  12.975
77097NA+    NA+45460  11.191   5.882   3.348
77098NA+    NA+45461  27.571  35.514   2.800
77099NA+    NA+45462  28.532  22.645  11.062
77100NA+    NA+45463  28.081   0.445   3.249
77101NA+    NA+45464  34.984  34.917   3.741
77102NA+    NA+45465  14.231  23.495  10.427
77103NA+    NA+45466  19.104  28.445  13.843
77104NA+    NA+45467   7.868   0.312  10.920
77105NA+    NA+45468   5.382  10.662  12.355
77106NA+    NA+45469  39.005  35.992  13.058
77107NA+    NA+45470  39.508  12.644   5.100
77108NA+    NA+45471  12.232  27.480   4.661
77109NA+    NA+45472  12.797  22.542  12.355
77110NA+    NA+45473  44.865  28.175   4.147
77111NA+    NA+45474  42.016   5.869  13.474
77112NA+    NA+45475  21.633  40.309  11.104
77113NA+    NA+45476  39.352   5.374   2.666
77114NA+    NA+45477  39.019  33.403  10.995
77115NA+    NA+45478  28.659   5.272   2.692
77116NA+    NA+45479  27.035  20.111   2.215
77117NA+    NA+45480  35.036  42.323   4.323
77118NA+    NA+45481  40.868  10.159   3.340
77119NA+    NA+45482  44.987   9.841   0.953
77120NA+    NA+45483  44.818  41.869   2.271
77121NA+    NA+45484  24.174  12.766  11.113
77122NA+    NA+45485  34.047  32.463  11.875
77123NA+    NA+45486  26.970  13.311   0.262
77124NA+    NA+45487  16.220  18.609  10.561
77125NA+    NA+45488  11.235  39.931  13.438
77126NA+    NA+45489  20.173  40.381  14.422
77127NA+    NA+45490   6.709  21.031   4.344
77128NA+    NA+45491  23.168  38.478   4.236
77129NA+    NA+45492  10.233   7.778  10.581
77130NA+    NA+45493   6.380  44.399   4.689
77131NA+    NA+45494  37.915  19.217  12.578
77132NA+    NA+45495   5.867  40.972   4.790
77133NA+    NA+45496   3.399  15.251   1.356
77134NA+    NA+45497  44.323  28.034   3.280
77135NA+    NA+45498  20.673  25.032   2.313
77136NA+    NA+45499  13.737  24.652  11.066
77137NA+    NA+45500   3.907   0.852   0.841
77138NA+    NA+45501  39.865   1.814  11.095
77139NA+    NA+45502  17.757  14.122  11.441
77140NA+    NA+45503  40.033  33.949  10.897
77141NA+    NA+45504  34.414  15.755  14.494
77142NA+    NA+45505  31.576  36.868   0.911
77143NA+    NA+45506  19.605  35.490   1.796
77144NA+    NA+45507   8.717   8.768   2.839
77145NA+    NA+45508   5.741   4.253  13.394
77146NA+    NA+45509  24.654   6.765   2.725
77147NA+    NA+45510  25.052  41.954   4.234
77148NA+    NA+45511  33.515  33.400  14.860
77149NA+    NA+45512  13.633  39.939  14.511
77150NA+    NA+45513  38.498  30.001   2.206
77151NA+    NA+45514  27.091  36.960   1.808
77152NA+    NA+45515   1.785  17.594  14.831
77153NA+    NA+45516  16.742  26.183  11.403
77154NA+    NA+45517  41.379  14.252  14.340
77155NA+    NA+45518  42.917   3.774   2.720
77156NA+    NA+45519  29.507  39.559   3.795
77157NA+    NA+45520  17.080   7.799  13.796
77158NA+    NA+45521  28.135  36.870  12.826
77159NA+    NA+45522  14.631   6.408   2.719
77160NA+    NA+45523   1.735  43.347   2.838
77161NA+    NA+45524  44.463   6.259  11.064
77162NA+    NA+45525  21.715  39.317  14.016
77163NA+    NA+45526  39.357   3.759   3.335
77164NA+    NA+45527  14.742  32.082   1.380
77165NA+    NA+45528  28.609  27.163   0.345
77166NA+    NA+45529  34.428  20.711   2.410
77167NA+    NA+45530  20.176  10.860   0.880
77168NA+    NA+45531  25.210  28.988  13.005
77169NA+    NA+45532   5.724   0.890   0.843
77170NA+    NA+45533  24.553  39.022   0.374
77171NA+    NA+45534  29.667   8.760   0.795
77172NA+    NA+45535  37.380   9.162   3.258
77173NA+    NA+45536   2.789  10.653  11.401
77174NA+    NA+45537  35.555  32.030   2.260
77175NA+    NA+45538  41.890  40.309  13.897
77176NA+    NA+45539   8.166  30.151  12.054
77177NA+    NA+45540  27.109  24.568  11.089
77178NA+    NA+45541  23.225  17.577   0.727
77179NA+    NA+45542   6.230  22.097  12.067
77180NA+    NA+45543  35.956  38.389  12.369
77181NA+    NA+45544  10.635  13.734  14.410
77182NA+    NA+45545  23.619  36.410   1.412
77183NA+    NA+45546  13.685  14.281   4.159
77184NA+    NA+45547  39.367  36.025   5.218
77185NA+    NA+45548   5.290   4.777  14.487
77186NA+    NA+45549   8.782  25.567   3.289
77187NA+    NA+45550  15.807   6.378  13.451
77188NA+    NA+45551  44.430  19.284  13.834
77189NA+    NA+45552  30.150  19.690   4.687
77190NA+    NA+45553   8.345  22.672  12.022
77191NA+    NA+45554  43.884  14.239  14.307
77192NA+    NA+45555  39.922  28.186   4.292
77193NA+    NA+45556   0.318  13.311   3.378
77194NA+    NA+45557  31.457  21.674   1.827
77195NA+    NA+45558   1.777   4.703  14.499
77196NA+    NA+45559  12.240  26.487  11.947
77197NA+    NA+45560  14.230  37.957   0.826
77198NA+    NA+45561  20.712  25.567   2.850
77199NA+    NA+45562  40.832   9.665   3.842
77200NA+    NA+45563  18.693  12.698  10.082
77201NA+    NA+45564  41.400   4.249  14.319
77202NA+    NA+45565  33.119  32.531  10.634
77203NA+    NA+45566  21.155   8.164   4.256
77204NA+    NA+45567   1.743  33.935   2.257
77205NA+    NA+45568  36.560  44.973  12.050
77206NA+    NA+45569   9.186  31.532  12.473
77207NA+    NA+45570  43.432  16.192  12.069
77208NA+    NA+45571  38.560   1.337   0.792
77209NA+    NA+45572  26.550  37.992   4.250
77210NA+    NA+45573   3.776  44.972  13.902
77211NA+    NA+45574  21.536   4.304  12.850
77212NA+    NA+45575   7.417  29.111  10.587
77213NA+    NA+45576  42.389  30.096   3.289
77214NA+    NA+45577  11.719  14.331  11.436
77215NA+    NA+45578  17.659  28.561  11.441
77216NA+    NA+45579  22.689  26.577  10.545
77217NA+    NA+45580  30.437   4.301  13.793
77218NA+    NA+45581  36.064   1.742  14.413
77219NA+    NA+45582  32.055   6.262   1.704
77220NA+    NA+45583  43.431  38.059   2.859
77221NA+    NA+45584  38.858  39.931  10.624
77222NA+    NA+45585  23.612  42.493   4.212
77223NA+    NA+45586  43.293   1.295  13.046
77224NA+    NA+45587   0.968  42.377  14.806
77225NA+    NA+45588  23.539   0.459   3.356
77226NA+    NA+45589  15.180  35.869   3.840
77227NA+    NA+45590  32.390  33.383   4.314
77228NA+    NA+45591  42.370   2.864   2.202
77229NA+    NA+45592  16.571  12.321  11.065
77230NA+    NA+45593  31.144  14.822   1.844
77231NA+    NA+45594   8.802   5.793   4.187
77232NA+    NA+45595  27.475  14.650   0.419
77233NA+    NA+45596  21.064  30.658  11.029
77234NA+    NA+45597   5.880  27.099   4.246
77235NA+    NA+45598  27.552  30.590   3.863
77236NA+    NA+45599  38.394  19.080   2.285
77237NA+    NA+45600   9.653  18.609  10.985
77238NA+    NA+45601  37.964   7.230  12.523
77239NA+    NA+45602  30.157  37.408  14.309
77240NA+    NA+45603  44.952  22.736   1.428
77241NA+    NA+45604  41.012  40.361  11.064
77242NA+    NA+45605  15.652   0.336   3.353
77243NA+    NA+45606  37.960  44.817   0.779
77244NA+    NA+45607  44.331  11.351  10.414
77245NA+    NA+45608   7.238  35.590   3.245
77246NA+    NA+45609  21.215  38.944   1.909
77247NA+    NA+45610  44.445   3.366   5.208
77248NA+    NA+45611  34.409  13.806  13.501
77249NA+    NA+45612  37.057  19.748  14.944
77250NA+    NA+45613   7.314  29.607   4.838
77251NA+    NA+45614   7.207  11.627  12.571
77252NA+    NA+45615  41.024  22.090   4.115
77253NA+    NA+45616  14.122  44.362  11.938
77254NA+    NA+45617   2.739  31.629  14.941
77255NA+    NA+45618  40.365   9.187   4.650
77256NA+    NA+45619  37.061  34.065   3.167
77257NA+    NA+45620  20.041  41.335   4.175
77258NA+    NA+45621  37.995  26.182   0.443
77259NA+    NA+45622  30.995   1.864   0.349
77260NA+    NA+45623  34.425  23.563  11.376
77261NA+    NA+45624  11.654  34.947   1.431
77262NA+    NA+45625  16.687   6.217  10.908
77263NA+    NA+45626  32.066  30.561   0.758
77264NA+    NA+45627  13.659  28.004   3.317
77265NA+    NA+45628  39.879  34.010   3.774
77266NA+    NA+45629  12.751  19.283  13.881
77267NA+    NA+45630   8.836  32.092   4.347
77268NA+    NA+45631  13.841  40.812  12.921
77269NA+    NA+45632  20.555  34.918  14.905
77270NA+    NA+45633  22.152  10.264  12.447
77271NA+    NA+45634  35.101  40.396   2.359
77272NA+    NA+45635   9.848  23.552   0.855
77273NA+    NA+45636  28.975  24.125   0.807
77274NA+    NA+45637  15.246  26.564   1.723
77275NA+    NA+45638  39.889  10.767  11.474
77276NA+    NA+45639   5.906   3.754  11.110
77277NA+    NA+45640  21.596  12.750  11.951
77278NA+    NA+45641   4.233  10.145  10.956
77279NA+    NA+45642   9.172   5.774   3.843
77280NA+    NA+45643   4.758   5.198  14.781
77281NA+    NA+45644  11.304  27.464  12.457
77282NA+    NA+45645  28.663  40.423   2.759
77283NA+    NA+45646  41.307  35.587  14.787
77284NA+    NA+45647  25.153  42.971   1.822
77285NA+    NA+45648   5.307   9.179   4.196
77286NA+    NA+45649  10.791  20.611  12.398
77287NA+    NA+45650  36.059  36.520  13.943
77288NA+    NA+45651  33.886  37.930  13.430
77289NA+    NA+45652  44.335  31.903  10.544
77290NA+    NA+45653   9.823  35.017  14.393
77291NA+    NA+45654  34.116   2.814  11.114
77292NA+    NA+45655  13.329  41.516   3.788
77293NA+    NA+45656   1.770  10.711   1.258
77294NA+    NA+45657  28.605  42.903   2.403
77295NA+    NA+45658  24.148  10.830   3.323
77296NA+    NA+45659   1.793  32.980  11.457
77297NA+    NA+45660  36.459  14.762   4.703
77298NA+    NA+45661  41.499  40.946  14.818
77299NA+    NA+45662  40.450  17.232  12.545
77300NA+    NA+45663  11.277  11.243   3.707
77301NA+    NA+45664  35.083  37.369  11.586
77302NA+    NA+45665   5.836  29.459   1.807
77303NA+    NA+45666  43.006  27.964   1.362
77304NA+    NA+45667  39.472  28.998   3.775
77305NA+    NA+45668  42.828  17.106   5.163
77306NA+    NA+45669  17.264  40.445   3.186
77307NA+    NA+45670  12.744  24.042  14.951
77308NA+    NA+45671  24.082  28.595  14.396
77309NA+    NA+45672  39.555  30.564  11.411
77310NA+    NA+45673  29.172   7.906  14.814
77311NA+    NA+45674  34.095  31.584  13.015
77312NA+    NA+45675  29.031   2.329   4.752
77313NA+    NA+45676  14.165  21.111   2.714
77314NA+    NA+45677  16.749   4.781  12.339
77315NA+    NA+45678  19.659  16.278   3.704
77316NA+    NA+45679  27.560  10.813  13.421
77317NA+    NA+45680  14.618  33.385   9.939
77318NA+    NA+45681   1.376  34.466  14.971
77319NA+    NA+45682  28.638  10.757   3.840
77320NA+    NA+45683  44.443  23.673   4.338
77321NA+    NA+45684   5.828  19.589   4.332
77322NA+    NA+45685   4.900  17.109  13.953
77323NA+    NA+45686   2.761  11.243   1.928
77324NA+    NA+45687  37.481  25.528  11.605
77325NA+    NA+45688  13.755  23.146  10.449
77326NA+    NA+45689  17.256  41.932   2.315
77327NA+    NA+45690  24.169   2.808  11.528
77328NA+    NA+45691  22.125  24.225  11.444
77329NA+    NA+45692   4.773  32.972   2.382
77330NA+    NA+45693  29.646   4.704   5.294
77331NA+    NA+45694  40.868   1.943   2.336
77332NA+    NA+45695  23.160  13.227  11.022
77333NA+    NA+45696  23.509  33.563  14.500
77334NA+    NA+45697  10.166  27.674   2.268
77335NA+    NA+45698  23.525   8.699  10.477
77336NA+    NA+45699  30.085  34.438  11.089
77337NA+    NA+45700  37.368   0.268   0.259
77338NA+    NA+45701  41.387  24.625  12.926
77339NA+    NA+45702  19.660  10.302  14.929
77340NA+    NA+45703  27.152  43.279  13.358
77341NA+    NA+45704  14.306  14.142  11.515
77342NA+    NA+45705  26.481  28.656  10.494
77343NA+    NA+45706  11.788  41.890  14.491
77344NA+    NA+45707  12.612  38.904  12.565
77345NA+    NA+45708   2.378  41.422   5.226
77346NA+    NA+45709  21.199  32.058  12.977
77347NA+    NA+45710  35.067  40.385   3.694
77348NA+    NA+45711   7.211  35.420   2.711
77349NA+    NA+45712  15.819  17.656   0.883
77350NA+    NA+45713   5.895  39.863   1.908
77351NA+    NA+45714  35.422  26.610  13.888
77352NA+    NA+45715   3.459  20.225  14.470
77353NA+    NA+45716  38.014  27.652  13.407
77354NA+    NA+45717  18.258  27.139   1.450
77355NA+    NA+45718   7.221  37.349   4.807
77356NA+    NA+45719  25.503  10.807  14.452
77357NA+    NA+45720   7.696  40.817  11.016
77358NA+    NA+45721  41.894  42.457  14.822
77359NA+    NA+45722  34.558  32.624  12.407
77360NA+    NA+45723   7.319  27.536   4.196
77361NA+    NA+45724   6.322   8.695   2.344
77362NA+    NA+45725  24.614  31.953  14.017
77363NA+    NA+45726  18.601   1.411  13.975
77364NA+    NA+45727   5.371   6.726  14.286
77365NA+    NA+45728  10.175   4.824  12.000
77366NA+    NA+45729   7.414  21.519   4.767
77367NA+    NA+45730   6.831  32.077  13.368
77368NA+    NA+45731   2.743  39.549  13.830
77369NA+    NA+45732  37.050  42.946  14.996
77370NA+    NA+45733  24.585  23.009  10.596
77371NA+    NA+45734  13.609  29.967  14.789
77372NA+    NA+45735  40.372  28.492  10.924
77373NA+    NA+45736  18.776  43.797  10.539
77374NA+    NA+45737  18.635  31.910   4.673
77375NA+    NA+45738   7.251   5.239   0.760
77376NA+    NA+45739  38.037  18.106  14.368
77377NA+    NA+45740  25.002  44.440   0.897
77378NA+    NA+45741  43.510  28.107  13.027
77379NA+    NA+45742  38.380  42.908   4.132
77380NA+    NA+45743  26.499  24.581  14.461
77381NA+    NA+45744  44.845  12.264  14.012
77382NA+    NA+45745  35.552  24.990   3.225
77383NA+    NA+45746  39.907  12.174   0.826
77384NA+    NA+45747  33.900   9.248   2.866
77385NA+    NA+45748  21.613   2.455   3.724
77386NA+    NA+45749   0.775  26.463  10.432
77387NA+    NA+45750  30.127  36.066   3.245
77388NA+    NA+45751  38.955  24.088   3.685
77389NA+    NA+45752  10.845  32.926   3.866
77390NA+    NA+45753  11.342  42.957  10.086
77391NA+    NA+45754   2.925  15.099  11.004
77392NA+    NA+45755   2.301  26.570  12.958
77393NA+    NA+45756  32.066  44.490   3.769
77394NA+    NA+45757   0.791   7.381   3.158
77395NA+    NA+45758  18.636  21.191  10.632
77396NA+    NA+45759  35.582  36.915  11.870
77397NA+    NA+45760  27.460  27.589  13.933
77398NA+    NA+45761   1.357  38.890  10.586
77399NA+    NA+45762  41.462   0.745   1.356
77400NA+    NA+45763   4.840  33.481   1.444
77401NA+    NA+45764  44.338  36.043  14.452
77402NA+    NA+45765   7.852  17.718   0.909
77403NA+    NA+45766  16.094  16.297   5.700
77404NA+    NA+45767  43.273  15.179   0.260
77405NA+    NA+45768  39.509  21.078  11.505
77406NA+    NA+45769  12.148   1.354   4.704
77407NA+    NA+45770   8.897  23.626   2.670
77408NA+    NA+45771   0.903  14.610  14.848
77409NA+    NA+45772   7.775  37.384  11.578
77410NA+    NA+45773  22.097  29.425  11.929
77411NA+    NA+45774  34.379   2.314  13.306
77412NA+    NA+45775   5.742  42.451  12.958
77413NA+    NA+45776  42.026  40.908   2.871
77414NA+    NA+45777  21.067  28.671  11.517
77415NA+    NA+45778  12.752  11.642   3.345
77416NA+    NA+45779  23.665   1.441   4.687
77417NA+    NA+45780  13.762  22.548   4.798
77418NA+    NA+45781  29.009  39.515  13.821
77419NA+    NA+45782  13.703  35.501  14.974
77420NA+    NA+45783  39.559  37.558   5.207
77421NA+    NA+45784  23.533  27.019   2.716
77422NA+    NA+45785   1.406  14.648   4.352
77423NA+    NA+45786   0.967  22.183   3.745
77424NA+    NA+45787  15.281  11.653   3.335
77425NA+    NA+45788  42.460  30.916   2.680
77426NA+    NA+45789  18.128   3.365  10.412
77427NA+    NA+45790  37.892  12.710   4.305
77428NA+    NA+45791   5.713   4.210   4.246
77429NA+    NA+45792   4.409  37.452   2.765
77430NA+    NA+45793   1.747  15.786   1.449
77431NA+    NA+45794  38.904  12.769   3.285
77432NA+    NA+45795  25.070  23.676   0.780
77433NA+    NA+45796  32.895  41.313  11.446
77434NA+    NA+45797   9.675  27.662   4.236
77435NA+    NA+45798  30.020  22.728   0.744
77436NA+    NA+45799  11.359  18.229  11.426
77437NA+    NA+45800  38.872   2.908  14.906
77438NA+    NA+45801  39.526  23.202  12.412
77439NA+    NA+45802  30.568  17.626  10.983
77440NA+    NA+45803   8.713  24.711   1.392
77441NA+    NA+45804  40.518  31.904  10.030
77442NA+    NA+45805  44.338   5.800  10.465
77443NA+    NA+45806  22.516   1.318   4.732
77444NA+    NA+45807  38.978  22.558   3.230
77445NA+    NA+45808  37.468   8.806  11.061
77446NA+    NA+45809   6.708  21.017  14.939
77447NA+    NA+45810  10.829   0.347  12.509
77448NA+    NA+45811  36.842  26.573   0.454
77449NA+    NA+45812  35.060   4.411   3.649
77450NA+    NA+45813  17.799  42.336   5.210
77451NA+    NA+45814  32.893  13.217   4.282
77452NA+    NA+45815  17.235  10.147   4.146
77453NA+    NA+45816  37.582  16.585   3.383
77454NA+    NA+45817   6.287  16.665  12.893
77455NA+    NA+45818  43.289  23.535  12.560
77456NA+    NA+45819  27.620  14.759   4.172
77457NA+    NA+45820   0.863  28.563   4.628
77458NA+    NA+45821   0.816  21.722   1.331
77459NA+    NA+45822  44.774  32.001   2.677
77460NA+    NA+45823  35.408   6.695   2.747
77461NA+    NA+45824  15.186  19.154   4.154
77462NA+    NA+45825  12.356   0.276   1.210
77463NA+    NA+45826  31.443  22.133   3.243
77464NA+    NA+45827  10.308  30.435  11.089
77465NA+    NA+45828  22.743  11.649   3.641
77466NA+    NA+45829  19.742  24.526   4.734
77467NA+    NA+45830  19.108  37.862  11.523
77468NA+    NA+45831  10.850  29.947   0.440
77469NA+    NA+45832  23.071  17.266  14.399
77470NA+    NA+45833  37.014  28.146   3.220
77471NA+    NA+45834  26.071  29.063   4.264
77472NA+    NA+45835  25.098  28.563   1.380
77473NA+    NA+45836  33.591  14.195   3.268
77474NA+    NA+45837  39.899  12.827  13.024
77475NA+    NA+45838  36.859  19.648   0.261
77476NA+    NA+45839  33.936  38.044   0.444
77477NA+    NA+45840   0.370  31.419  13.043
77478NA+    NA+45841   8.791  26.055  11.026
77479NA+    NA+45842  39.333  43.834  12.023
77480NA+    NA+45843  10.245   2.804  12.072
77481NA+    NA+45844  15.131  27.676  13.492
77482NA+    NA+45845  24.174  28.173   3.279
77483NA+    NA+45846  12.844  10.286   0.264
77484NA+    NA+45847   8.840  43.457   0.452
77485NA+    NA+45848  23.567  19.279  13.414
77486NA+    NA+45849  28.171  44.330   0.732
77487NA+    NA+45850   1.744  39.937  11.080
77488NA+    NA+45851  30.557  33.899   1.695
77489NA+    NA+45852  40.809  28.045   4.688
77490NA+    NA+45853  24.647  21.756  14.289
77491NA+    NA+45854  20.644  27.528  12.405
77492NA+    NA+45855   0.885  23.660  12.835
77493NA+    NA+45856  34.394  20.585   0.354
77494NA+    NA+45857  30.936   5.368  14.765
77495NA+    NA+45858  37.962  26.616  10.537
77496NA+    NA+45859  27.590  14.150  12.952
77497NA+    NA+45860  30.148  10.314   3.792
77498NA+    NA+45861  36.064  11.197   2.752
77499NA+    NA+45862  38.862  14.261   1.394
77500NA+    NA+45863   7.296  41.386  14.315
77501NA+    NA+45864  27.640  39.048  11.873
77502NA+    NA+45865  31.559  23.232   2.796
77503NA+    NA+45866  37.440  38.517   4.311
77504NA+    NA+45867  19.770   5.736   4.705
77505NA+    NA+45868  27.177  17.154   4.267
77506NA+    NA+45869  30.932  25.504  14.468
77507NA+    NA+45870   0.757  12.345   0.324
77508NA+    NA+45871  26.133   6.409   3.304
77509NA+    NA+45872  16.196  25.161   1.763
77510NA+    NA+45873  21.729  44.280  14.759
77511NA+    NA+45874  23.593  31.585   1.298
77512NA+    NA+45875  27.613  10.867   3.382
77513NA+    NA+45876   9.277  21.639  14.796
77514NA+    NA+45877  23.546  22.526   2.344
77515NA+    NA+45878  42.959  31.996   1.698
77516NA+    NA+45879  13.181  41.425   5.258
77517NA+    NA+45880   8.280  11.301   4.792
77518NA+    NA+45881   6.380  33.998  11.554
77519NA+    NA+45882  23.710  29.654   4.771
77520NA+    NA+45883  13.629  21.530   2.758
77521NA+    NA+45884  31.022  22.106  11.602
77522NA+    NA+45885  23.669  17.562   3.846
77523NA+    NA+45886  35.406   7.805  14.983
77524NA+    NA+45887  15.634  36.982  11.427
77525NA+    NA+45888   6.425  27.138   2.783
77526NA+    NA+45889  31.528  29.978   0.264
77527NA+    NA+45890  14.280  15.618  13.872
77528NA+    NA+45891   5.281   8.244  13.861
77529NA+    NA+45892  40.308  19.684   0.442
77530NA+    NA+45893   3.720  30.513   0.938
77531NA+    NA+45894   7.290  28.011   4.705
77532NA+    NA+45895  28.563  27.133   4.184
77533NA+    NA+45896   7.690  39.385  13.442
77534NA+    NA+45897   2.233  37.387  12.848
77535NA+    NA+45898  28.958  44.468   0.441
77536NA+    NA+45899  17.793   6.336  13.997
77537NA+    NA+45900   6.364   6.239   4.742
77538NA+    NA+45901  38.514  25.079   4.125
77539NA+    NA+45902  41.912   3.359   2.322
77540NA+    NA+45903  39.968  42.006   0.380
77541NA+    NA+45904  28.940  18.768  11.865
77542NA+    NA+45905  36.382   8.331   2.737
77543NA+    NA+45906  20.155  10.246   0.345
77544NA+    NA+45907  39.429  31.922   0.747
77545NA+    NA+45908  20.154  12.844  13.406
77546NA+    NA+45909  21.518   6.425  11.080
77547NA+    NA+45910  40.504   9.832  13.334
77548NA+    NA+45911  44.754  41.412   4.115
77549NA+    NA+45912  10.696  24.493   3.694
77550NA+    NA+45913  12.628  26.479  12.467
77551NA+    NA+45914   9.781  16.793   0.737
77552NA+    NA+45915  42.885  38.058  12.906
77553NA+    NA+45916  33.936  44.001   4.766
77554NA+    NA+45917  26.514   7.195   0.326
77555NA+    NA+45918   9.865  36.587  10.913
77556NA+    NA+45919  38.329  19.063  10.504
77557NA+    NA+45920  38.047  24.609  11.484
77558NA+    NA+45921   7.299   9.192  14.770
77559NA+    NA+45922  43.437  37.337   4.622
77560NA+    NA+45923  20.129  18.596   0.859
77561NA+    NA+45924  23.095  37.964   3.159
77562NA+    NA+45925   8.681  37.429  14.329
77563NA+    NA+45926  19.098   6.800  12.965
77564NA+    NA+45927  16.786  34.070   0.753
77565NA+    NA+45928  44.959   4.211  13.426
77566NA+    NA+45929  12.721   6.812   4.247
77567NA+    NA+45930  38.560   8.262   1.328
77568NA+    NA+45931  17.718   3.397   3.786
77569NA+    NA+45932   5.392  24.618   3.336
77570NA+    NA+45933   1.382  21.092   0.411
77571NA+    NA+45934  22.712  14.599  11.458
77572NA+    NA+45935   2.371   4.850  12.069
77573NA+    NA+45936  20.034  17.128  12.491
77574NA+    NA+45937  34.981  39.045  10.944
77575NA+    NA+45938  24.022  39.013   1.247
77576NA+    NA+45939   7.679  34.441   9.964
77577NA+    NA+45940  22.127  29.443  12.823
77578NA+    NA+45941  44.853  41.425  10.906
77579NA+    NA+45942  12.805  15.211   3.281
77580NA+    NA+45943   6.717  23.663  12.838
77581NA+    NA+45944  12.728  27.145  13.378
77582NA+    NA+45945   0.281  23.192  13.329
77583NA+    NA+45946   2.417  40.904   4.613
77584NA+    NA+45947   1.460  42.801   3.235
77585NA+    NA+45948  35.594   6.236  14.351
77586NA+    NA+45949  19.629  28.551   0.902
77587NA+    NA+45950  14.681  22.521   9.945
77588NA+    NA+45951  10.680  18.768  12.875
77589NA+    NA+45952  41.377   5.328   3.694
77590NA+    NA+45953  11.245  44.343   2.247
77591NA+    NA+45954  11.175   1.292  13.493
77592NA+    NA+45955  22.609  18.771   4.244
77593NA+    NA+45956  13.842  10.773   1.377
77594NA+    NA+45957  17.563  36.069   4.668
77595NA+    NA+45958   5.848  37.498  13.005
77596NA+    NA+45959  43.801  25.599  11.976
77597NA+    NA+45960   8.806  13.690   0.932
77598NA+    NA+45961  33.428  19.582  13.412
77599NA+    NA+45962  12.675  36.425  10.556
77600NA+    NA+45963  30.138  12.271   4.699
77601NA+    NA+45964   6.421  35.078  14.985
77602NA+    NA+45965  10.176  26.190  12.345
77603NA+    NA+45966   3.956   5.208  14.867
77604NA+    NA+45967  18.290  30.088   0.256
77605NA+    NA+45968  18.244  33.422   2.781
77606NA+    NA+45969  44.485  31.963   1.318
77607NA+    NA+45970  10.702  26.999  14.333
77608NA+    NA+45971  43.995   5.341   3.694
77609NA+    NA+45972  37.068  11.359  13.388
77610NA+    NA+45973   4.872  18.674   1.812
77611NA+    NA+45974  41.494  12.822  12.082
77612NA+    NA+45975  22.117  26.673  11.519
77613NA+    NA+45976  40.474  20.622  12.515
77614NA+    NA+45977   5.865   9.852  10.551
77615NA+    NA+45978  17.104  11.664  10.990
77616NA+    NA+45979  30.412  18.589  10.638
77617NA+    NA+45980   5.737  27.471   2.674
77618NA+    NA+45981  36.022  39.502   4.289
77619NA+    NA+45982   1.881  43.994   3.312
77620NA+    NA+45983  36.843   6.716   3.786
77621NA+    NA+45984  27.675  27.185   1.703
77622NA+    NA+45985  31.498  26.197   2.369
77623NA+    NA+45986  26.111  29.969  10.412
77624NA+    NA+45987  41.828  12.777   3.346
77625NA+    NA+45988   2.789  28.937  13.424
77626NA+    NA+45989  10.234  24.022   2.698
77627NA+    NA+45990  12.839  37.884   2.858
77628NA+    NA+45991  11.330  33.894   0.963
77629NA+    NA+45992   8.235  32.059  13.507
77630NA+    NA+45993   5.338   7.895  12.037
77631NA+    NA+45994  28.149  33.118  10.920
77632NA+    NA+45995   8.877  12.170  12.910
77633NA+    NA+45996  15.775  28.676  10.901
77634NA+    NA+45997  34.605  11.794  12.005
77635NA+    NA+45998  16.151   0.485  13.835
77636NA+    NA+45999  34.431  17.204   0.308
77637NA+    NA+46000   3.389  35.883   1.223
77638NA+    NA+46001  38.405   1.915  13.493
77639NA+    NA+46002  16.164  40.306   2.813
77640NA+    NA+46003  37.549   5.709  11.979
77641NA+    NA+46004  39.033  26.092   3.786
77642NA+    NA+46005  38.913  35.052  13.477
77643NA+    NA+46006  28.622   8.212   3.856
77644NA+    NA+46007  23.024  28.176   3.233
77645NA+    NA+46008  13.751  24.687   4.211
77646NA+    NA+46009   4.813   0.790   9.639
77647NA+    NA+46010  10.250   1.318  14.916
77648NA+    NA+46011  39.821  37.978   1.783
77649NA+    NA+46012  35.893  23.085  11.047
77650NA+    NA+46013  11.725  33.936  14.342
77651NA+    NA+46014  29.483  24.623   0.359
77652NA+    NA+46015  17.192   4.919   0.814
77653NA+    NA+46016  39.368  30.502   4.245
77654NA+    NA+46017  39.931  39.357  14.473
77655NA+    NA+46018   0.855   5.411  13.955
77656NA+    NA+46019  41.035  23.582   2.241
77657NA+    NA+46020   6.911   7.709   1.925
77658NA+    NA+46021  36.424  28.967  10.980
77659NA+    NA+46022   4.803  14.641   4.668
77660NA+    NA+46023  40.424  12.164  13.911
77661NA+    NA+46024  18.249  35.027  13.950
77662NA+    NA+46025   5.905   0.275   2.875
77663NA+    NA+46026  14.215  12.692   0.477
77664NA+    NA+46027  44.858  20.217  11.554
77665NA+    NA+46028   1.395  26.053   0.900
77666NA+    NA+46029  37.525  19.642  11.553
77667NA+    NA+46030  42.799  16.197   3.814
77668NA+    NA+46031  40.905   4.908   3.218
77669NA+    NA+46032  13.110  41.306  12.390
77670NA+    NA+46033  14.205   8.256   0.738
77671NA+    NA+46034  24.119  19.211  11.029
77672NA+    NA+46035  39.034  29.669  12.341
77673NA+    NA+46036  44.794  43.858  14.772
77674NA+    NA+46037  41.321  42.934   0.385
77675NA+    NA+46038  42.886  35.542  12.456
77676NA+    NA+46039  20.738  36.410  14.340
77677NA+    NA+46040   6.762   1.849   0.922
77678NA+    NA+46041  30.509  24.641   4.817
77679NA+    NA+46042  24.707  13.236  10.482
77680NA+    NA+46043   4.263  31.989  14.770
77681NA+    NA+46044  30.458  34.038  13.491
77682NA+    NA+46045  32.448   6.361   1.811
77683NA+    NA+46046  30.656   5.725  14.967
77684NA+    NA+46047  34.556   9.654   0.812
77685NA+    NA+46048  24.664  36.365   1.274
77686NA+    NA+46049  27.988  33.881  11.603
77687NA+    NA+46050  20.257  38.412  12.846
77688NA+    NA+46051   4.303  25.659  12.910
77689NA+    NA+46052  13.176  21.080  14.367
77690NA+    NA+46053  36.423   4.797  11.583
77691NA+    NA+46054   0.435  15.244   0.347
77692NA+    NA+46055   1.781  38.937   0.957
77693NA+    NA+46056  33.120  28.535   5.664
77694NA+    NA+46057   8.350  33.091   2.266
77695NA+    NA+46058  42.942  28.634   1.696
77696NA+    NA+46059  12.627   5.782   1.428
77697NA+    NA+46060  39.990  28.508   3.217
77698NA+    NA+46061  18.260  43.911   3.193
77699NA+    NA+46062  38.332   6.389   4.223
77700NA+    NA+46063  34.064  29.070   0.840
77701NA+    NA+46064  17.738  27.061   4.268
77702NA+    NA+46065  43.286  21.601  11.067
77703NA+    NA+46066  25.526  21.159  13.470
77704NA+    NA+46067   4.331  26.985  13.894
77705NA+    NA+46068  10.322   9.215  12.388
77706NA+    NA+46069  14.275   5.264   4.156
77707NA+    NA+46070  20.754  32.570   4.190
77708NA+    NA+46071  23.181   3.276  11.468
77709NA+    NA+46072  43.313  26.088   0.859
77710NA+    NA+46073  23.591   3.331  13.992
77711NA+    NA+46074  20.272  18.745   4.211
77712NA+    NA+46075  25.536   2.291   1.849
77713NA+    NA+46076  20.733  29.132   3.728
77714NA+    NA+46077   3.298   6.328   2.181
77715NA+    NA+46078  26.978  32.592  10.487
77716NA+    NA+46079  31.642   2.305  11.917
77717NA+    NA+46080  22.223   6.328  11.475
77718NA+    NA+46081  15.328  32.524  12.394
77719NA+    NA+46082  10.658  40.798  12.371
77720NA+    NA+46083  16.711   8.289   1.852
77721NA+    NA+46084  18.582  33.036  13.488
77722NA+    NA+46085  42.006  20.715   3.712
77723NA+    NA+46086   7.821  25.202  12.071
77724NA+    NA+46087  43.848  33.604   3.633
77725NA+    NA+46088   1.384  11.710  12.358
77726NA+    NA+46089  20.629  34.528   3.168
77727NA+    NA+46090   6.700  30.491  14.868
77728NA+    NA+46091  16.756  21.530  10.902
77729NA+    NA+46092  26.134   2.333   1.896
77730NA+    NA+46093  32.978   2.966  13.047
77731NA+    NA+46094  11.750  15.803  10.063
77732NA+    NA+46095  30.527   8.358   4.652
77733NA+    NA+46096  41.884  42.495   3.820
77734NA+    NA+46097  30.413  28.044  13.990
77735NA+    NA+46098   5.764   2.905   3.379
77736NA+    NA+46099  20.737  30.436  14.853
77737NA+    NA+46100   1.465   0.287   4.161
77738NA+    NA+46101  10.702  24.190  11.443
77739NA+    NA+46102  24.003  10.659   3.824
77740NA+    NA+46103  34.469  38.559   3.274
77741NA+    NA+46104   1.284  32.631   2.293
77742NA+    NA+46105  21.263   5.408  12.041
77743NA+    NA+46106  19.053  38.953   4.773
77744NA+    NA+46107  35.465   7.781   3.683
77745NA+    NA+46108   9.704  41.842   0.746
77746NA+    NA+46109  11.317  22.660   0.858
77747NA+    NA+46110   0.445  27.115   0.461
77748NA+    NA+46111   6.260  20.246   3.378
77749NA+    NA+46112  13.178  37.444  11.025
77750NA+    NA+46113   6.269  25.183   3.838
77751NA+    NA+46114  11.315  10.153   1.271
77752NA+    NA+46115  19.572   2.908  11.530
77753NA+    NA+46116  29.485  36.949   2.897
77754NA+    NA+46117  39.439  11.857   2.745
77755NA+    NA+46118  16.168  28.664  11.033
77756NA+    NA+46119  12.809  12.223   4.780
77757NA+    NA+46120  13.635   7.349  10.516
77758NA+    NA+46121  37.019   7.853  11.503
77759NA+    NA+46122   8.878  40.034  14.790
77760NA+    NA+46123  27.656  19.053   0.361
77761NA+    NA+46124  10.747  10.691  14.981
77762NA+    NA+46125  21.684  36.517  14.950
77763NA+    NA+46126  25.104  28.599   4.837
77764NA+    NA+46127  37.027  11.634   2.332
77765NA+    NA+46128  38.039  10.857  11.594
77766NA+    NA+46129  26.619  42.332  10.910
77767NA+    NA+46130  30.034  21.235  11.555
77768NA+    NA+46131  16.693  14.733   3.699
77769NA+    NA+46132  15.727  31.022   2.851
77770NA+    NA+46133  10.702  16.689   3.325
77771NA+    NA+46134  29.120  13.721   5.199
77772NA+    NA+46135  44.300   2.920   1.427
77773NA+    NA+46136  23.513   1.863   3.329
77774NA+    NA+46137  20.086  20.091   3.361
77775NA+    NA+46138  28.485  30.500   1.795
77776NA+    NA+46139  29.054  29.115  12.086
77777NA+    NA+46140  23.723   7.390  11.395
77778NA+    NA+46141  36.947  24.059   0.929
77779NA+    NA+46142  15.198  20.238  11.966
77780NA+    NA+46143  37.551  41.372  10.067
77781NA+    NA+46144  29.044  32.010   4.739
77782NA+    NA+46145  14.220  14.300  12.447
77783NA+    NA+46146   7.703  15.628   5.264
77784NA+    NA+46147  30.149  23.171  12.012
77785NA+    NA+46148  12.309   2.893   1.378
77786NA+    NA+46149  25.556  29.662   0.309
77787NA+    NA+46150  12.625  31.418   2.790
77788NA+    NA+46151   0.873  38.025  11.061
77789NA+    NA+46152  14.660  11.361  11.121
77790NA+    NA+46153  27.088  32.108   4.143
77791NA+    NA+46154   0.278  23.057   5.720
77792NA+    NA+46155  10.806   7.345  13.811
77793NA+    NA+46156  11.645  41.855  13.519
77794NA+    NA+46157  16.255  18.697  10.033
77795NA+    NA+46158   4.805  18.789  14.504
77796NA+    NA+46159  34.109  41.861  13.379
77797NA+    NA+46160  35.860  13.726   4.797
77798NA+    NA+46161  36.513  29.520   1.750
77799NA+    NA+46162  21.198   7.671   2.406
77800CL-    CL-46163  40.826  20.137  12.833
77801CL-    CL-46164  42.803  32.401  13.060
77802CL-    CL-46165  28.436  16.597  10.414
77803CL-    CL-46166   4.840  17.670  13.499
77804CL-    CL-46167  25.619  29.667  10.892
77805CL-    CL-46168   6.734  29.439   1.870
77806CL-    CL-46169   4.449  19.751  10.551
77807CL-    CL-46170  34.034   7.830   1.231
77808CL-    CL-46171  13.165  33.470   2.178
77809CL-    CL-46172  24.024  30.626   5.255
77810CL-    CL-46173  37.898  24.543  12.410
77811CL-    CL-46174  35.007  29.475  13.326
77812CL-    CL-46175  19.177  42.922   5.112
77813CL-    CL-46176  44.300  35.867  11.010
77814CL-    CL-46177  36.506  27.635   0.467
77815CL-    CL-46178  13.134  29.927  14.508
77816CL-    CL-46179  11.155  23.049   3.157
77817CL-    CL-46180   1.481  13.796   3.200
77818CL-    CL-46181  33.034  19.275  14.924
77819CL-    CL-46182  19.053  10.689   4.143
77820CL-    CL-46183  41.531   1.343   2.389
77821CL-    CL-46184  40.384  35.000   2.810
77822CL-    CL-46185  24.049  12.652  13.856
77823CL-    CL-46186  21.716  32.501   3.768
77824CL-    CL-46187  21.224  19.556  14.323
77825CL-    CL-46188   4.288  32.956   4.119
77826CL-    CL-46189  40.932  17.630   2.184
77827CL-    CL-46190  12.816   9.693   1.883
77828CL-    CL-46191   0.773   7.880   4.340
77829CL-    CL-46192  16.139  12.347   2.339
77830CL-    CL-46193  33.091  15.307   1.215
77831CL-    CL-46194  39.314  29.100  14.937
77832CL-    CL-46195  34.066  22.107  13.982
77833CL-    CL-46196   1.856  37.510  13.046
77834CL-    CL-46197  36.406   2.933   1.364
77835CL-    CL-46198  36.583  23.071  12.085
77836CL-    CL-46199  18.131   4.836   0.916
77837CL-    CL-46200   3.936  32.018  11.962
77838CL-    CL-46201  35.039  21.644   1.803
77839CL-    CL-46202  26.457  14.222  14.957
77840CL-    CL-46203  34.103  37.396  13.900
77841CL-    CL-46204  22.076   1.891   2.410
77842CL-    CL-46205  17.616   5.258  12.888
77843CL-    CL-46206   7.338  11.652  12.015
77844CL-    CL-46207  30.441  24.128   3.683
77845CL-    CL-46208  21.719  27.473  11.049
77846CL-    CL-46209   2.737   0.277  13.814
77847CL-    CL-46210   7.194  42.029  10.488
77848CL-    CL-46211  30.127   4.938   4.770
77849CL-    CL-46212   7.285  26.526   2.387
77850CL-    CL-46213  18.206  24.657  13.911
77851CL-    CL-46214  30.644  39.475   2.663
77852CL-    CL-46215  14.781   2.961   4.159
77853CL-    CL-46216  25.008  43.458   4.304
77854CL-    CL-46217  37.841  20.264  13.837
77855CL-    CL-46218  31.982   6.308  11.047
77856CL-    CL-46219  35.425  42.330   1.289
77857CL-    CL-46220  43.836  21.200   3.684
77858CL-    CL-46221  17.235  41.324   1.346
77859CL-    CL-46222  28.481  43.297  13.919
77860CL-    CL-46223  31.956   3.323   2.746
77861CL-    CL-46224  11.741  19.774  12.093
77862CL-    CL-46225  22.168  27.098   4.698
77863CL-    CL-46226   3.863  27.084  12.994
77864CL-    CL-46227  37.939  22.635  12.343
77865CL-    CL-46228  16.693  18.051   0.475
77866CL-    CL-46229  40.484  43.000   2.223
77867CL-    CL-46230   9.837  16.239   4.762
77868CL-    CL-46231  37.917  37.542  11.532
77869CL-    CL-46232  18.179  33.033   0.466
77870CL-    CL-46233  26.004   1.240  14.841
77871CL-    CL-46234  43.922   9.342  12.933
77872CL-    CL-46235  20.071  10.635  12.041
77873CL-    CL-46236  44.976  42.298  13.825
77874CL-    CL-46237  33.074  12.674  13.015
77875CL-    CL-46238  12.138  29.029   3.789
77876CL-    CL-46239  36.985  28.463  11.922
77877CL-    CL-46240   1.308   7.197   4.667
77878CL-    CL-46241  31.939  13.289  12.534
77879CL-    CL-46242  27.958  23.070  10.977
77880CL-    CL-46243  36.084  18.591   3.658
77881CL-    CL-46244  31.600  13.164   2.804
77882CL-    CL-46245  21.557  44.993  14.515
77883CL-    CL-46246   0.962   5.695   2.278
77884CL-    CL-46247   0.955  33.083   3.250
77885CL-    CL-46248   4.828  44.927   2.671
77886CL-    CL-46249  12.763  33.975  14.836
77887CL-    CL-46250  20.675  30.504   1.819
77888CL-    CL-46251  38.990  24.650  10.464
77889CL-    CL-46252   4.416   8.238   3.652
77890CL-    CL-46253  37.025   3.438  14.759
77891CL-    CL-46254  37.385  40.399  12.495
77892CL-    CL-46255  33.609   3.305  13.539
77893CL-    CL-46256   9.347  28.649  11.407
77894CL-    CL-46257  21.097  24.488  13.026
77895CL-    CL-46258  13.217   6.867   9.654
77896CL-    CL-46259  25.687  24.638  10.632
77897CL-    CL-46260  10.845  33.073   0.420
77898CL-    CL-46261  42.380  22.652   4.662
77899CL-    CL-46262  38.519  41.934   3.785
77900CL-    CL-46263   8.884  38.959   2.207
77901CL-    CL-46264  36.857  10.830  12.948
77902CL-    CL-46265   2.381   0.299  11.087
77903CL-    CL-46266  32.492   1.314   2.717
77904CL-    CL-46267  34.389  42.993   3.239
77905CL-    CL-46268  14.104  38.950   1.372
77906CL-    CL-46269   3.931  24.594  10.508
77907CL-    CL-46270  25.508  38.821   3.823
77908CL-    CL-46271  15.729  16.798   3.381
77909CL-    CL-46272  10.330  36.467   4.824
77910CL-    CL-46273  12.808  26.980  12.351
77911CL-    CL-46274   8.244  43.382  11.604
77912CL-    CL-46275  30.499  39.399  14.993
77913CL-    CL-46276  28.598  32.464  14.965
77914CL-    CL-46277  43.989   5.904  10.486
77915CL-    CL-46278  42.795   0.485   3.330
77916CL-    CL-46279  28.639   8.360  12.956
77917CL-    CL-46280  17.095  13.732   4.722
77918CL-    CL-46281  32.049  26.133  14.355
77919CL-    CL-46282  11.694  21.071   1.245
77920CL-    CL-46283  30.475  39.856   2.181
77921CL-    CL-46284  37.493  25.033   4.666
77922CL-    CL-46285  34.929   5.388  14.921
77923CL-    CL-46286  40.507  33.566   3.866
77924CL-    CL-46287   2.389  23.166  14.499
77925CL-    CL-46288  34.411  42.384  14.303
77926CL-    CL-46289  12.138   7.329   4.218
77927CL-    CL-46290  36.443  19.049   1.814
77928CL-    CL-46291  29.975  30.638  12.064
77929CL-    CL-46292  14.106  25.007  12.343
77930CL-    CL-46293  10.177  17.769  11.037
77931CL-    CL-46294  12.812  31.604  10.894
77932CL-    CL-46295  41.501  20.541   0.881
77933CL-    CL-46296  23.133  29.648   3.348
77934CL-    CL-46297  43.816  15.646  13.372
77935CL-    CL-46298  34.981  12.297  10.983
77936CL-    CL-46299  37.419  13.667   3.759
77937CL-    CL-46300  18.601  43.844  10.118
77938CL-    CL-46301  15.195   3.256  10.070
77939CL-    CL-46302  32.485  22.514  10.161
77940CL-    CL-46303   4.916  19.194   3.368
77941CL-    CL-46304  38.977  42.901   0.390
77942CL-    CL-46305  40.320   4.834  12.047
77943CL-    CL-46306   4.783  23.732   3.759
77944CL-    CL-46307  29.064  25.033   0.342
77945CL-    CL-46308  43.480  30.907   1.244
77946CL-    CL-46309  43.831  35.380  14.367
77947CL-    CL-46310  20.641  36.954  11.564
77948CL-    CL-46311  39.407  44.406   1.935
77949CL-    CL-46312  20.647  40.546   1.826
77950CL-    CL-46313  41.434   5.401  11.961
77951CL-    CL-46314  42.964  22.186  10.587
77952CL-    CL-46315  25.627  29.548  12.872
77953CL-    CL-46316  16.596  30.456   1.228
77954CL-    CL-46317  39.935  39.487  13.038
77955CL-    CL-46318   9.251  22.574   3.329
77956CL-    CL-46319  16.754  28.016  12.961
77957CL-    CL-46320  27.644   4.391  10.975
77958CL-    CL-46321  44.448  37.356   1.897
77959CL-    CL-46322  44.280   1.458  10.469
77960CL-    CL-46323  20.048   9.308   4.239
77961CL-    CL-46324  27.453  28.574  14.971
77962CL-    CL-46325   3.411  31.060   1.214
77963CL-    CL-46326  39.434  36.572  12.425
77964CL-    CL-46327  17.249  13.785   0.920
77965CL-    CL-46328   0.862  15.765   3.862
77966CL-    CL-46329  35.949  23.592  12.988
77967CL-    CL-46330  16.603  12.793  14.513
77968CL-    CL-46331   5.214  22.024   0.967
77969CL-    CL-46332  30.609  24.190  14.800
77970CL-    CL-46333   0.368  37.546   0.471
77971CL-    CL-46334  27.151  15.812   0.372
77972CL-    CL-46335  22.582  37.488   5.114
77973CL-    CL-46336  21.556   3.423  14.943
77974CL-    CL-46337  11.724   6.341  10.421
77975CL-    CL-46338  16.140   3.944   1.378
77976CL-    CL-46339   7.315  42.823  14.450
77977CL-    CL-46340  16.203  30.142  14.937
77978CL-    CL-46341  36.929   0.785   2.723
77979CL-    CL-46342  38.536  43.342  10.925
77980CL-    CL-46343  12.724  25.100   1.728
77981CL-    CL-46344  13.636  27.118   1.752
77982CL-    CL-46345  37.487   2.936   2.768
77983CL-    CL-46346   8.268  36.087   3.246
77984CL-    CL-46347   2.404  31.505  10.527
77985CL-    CL-46348   0.777  27.963  13.010
77986CL-    CL-46349  26.678  25.109   3.749
77987CL-    CL-46350   0.321   2.728   0.903
77988CL-    CL-46351  16.315  19.735   3.832
77989CL-    CL-46352   3.307  27.494  13.984
77990CL-    CL-46353   2.835   2.822   0.764
77991CL-    CL-46354  32.542  33.622  11.047
77992CL-    CL-46355   1.295   9.829  13.366
77993CL-    CL-46356  35.367  10.836  11.947
77994CL-    CL-46357  18.605  18.152  10.902
77995CL-    CL-46358  13.691  11.698  14.838
77996CL-    CL-46359  15.649   4.411   3.290
77997CL-    CL-46360  38.419  17.204   3.256
77998CL-    CL-46361  22.052  10.173  13.007
77999CL-    CL-46362  38.884   4.243   3.805
78000CL-    CL-46363  20.721  40.918  11.555
78001CL-    CL-46364   0.473  18.546  14.875
78002CL-    CL-46365   2.943  15.630  13.007
78003CL-    CL-46366   5.713  21.718  12.359
78004CL-    CL-46367  21.730  36.442  10.959
78005CL-    CL-46368  13.699  25.523   3.840
78006CL-    CL-46369  14.145  26.009  14.968
78007CL-    CL-46370   7.867  39.963   9.928
78008CL-    CL-46371  40.361  23.020   2.322
78009CL-    CL-46372  25.025  23.707   2.230
78010CL-    CL-46373  24.486  14.132  10.940
78011CL-    CL-46374   8.823  17.277   0.793
78012CL-    CL-46375  36.078  37.572   3.711
78013CL-    CL-46376  28.161  27.160   2.675
78014CL-    CL-46377  37.423  22.647   3.215
78015CL-    CL-46378  26.697   9.327  14.398
78016CL-    CL-46379   4.815  30.438   2.863
78017CL-    CL-46380  16.077  10.153   4.749
78018CL-    CL-46381  26.651  41.003   1.316
78019CL-    CL-46382  44.003  36.074   3.695
78020CL-    CL-46383  11.861  29.948   0.942
78021CL-    CL-46384  10.222   4.386   3.337
78022CL-    CL-46385  35.522  17.749  13.046
78023CL-    CL-46386   3.827   9.658   3.222
78024CL-    CL-46387   5.418   0.255   2.287
78025CL-    CL-46388  36.518  20.639   3.669
78026CL-    CL-46389  35.496   0.871  14.308
78027CL-    CL-46390  33.017  30.136  14.934
78028CL-    CL-46391  18.676  36.904   3.762
78029CL-    CL-46392  32.048  37.851   5.310
78030CL-    CL-46393  13.648  25.576  12.991
78031CL-    CL-46394  37.934  16.798   3.367
78032CL-    CL-46395  23.708   5.770   4.123
78033CL-    CL-46396   9.887  16.602   0.402
78034CL-    CL-46397  26.539  33.569   5.194
78035CL-    CL-46398  29.106  15.676   3.646
78036CL-    CL-46399   8.855   3.891   3.149
78037CL-    CL-46400  25.471  37.832   2.709
78038CL-    CL-46401   2.267  38.879  10.009
78039CL-    CL-46402  16.568  43.814  14.382
78040CL-    CL-46403   7.297  29.062  12.924
78041CL-    CL-46404  13.747   6.893  10.504
78042CL-    CL-46405  12.284  32.033  11.519
78043CL-    CL-46406  43.328  17.068  11.505
78044CL-    CL-46407  35.867  23.067   3.787
78045CL-    CL-46408  37.538  10.177  14.877
78046CL-    CL-46409  38.846   0.941   1.373
78047CL-    CL-46410   7.320  35.972  14.372
78048CL-    CL-46411  34.043   6.737   0.325
78049CL-    CL-46412  42.030  32.634  11.988
78050CL-    CL-46413   9.650  34.522   3.327
78051CL-    CL-46414  35.877  29.940   4.195
78052CL-    CL-46415  33.540  33.576  10.058
78053CL-    CL-46416  18.768  17.277  11.883
78054CL-    CL-46417   9.801  40.942   1.348
78055CL-    CL-46418   0.818  39.320  10.944
78056CL-    CL-46419   2.733  39.369  13.508
78057CL-    CL-46420  16.142  37.564  11.600
78058CL-    CL-46421  33.494  11.346  10.608
78059CL-    CL-46422  11.358   9.717  14.343
78060CL-    CL-46423  32.455  33.129   2.322
78061CL-    CL-46424  21.086   4.348   1.275
78062CL-    CL-46425  37.409   7.874   4.181
78063CL-    CL-46426  27.956   2.397  11.081
78064CL-    CL-46427   5.371  29.928  13.868
78065CL-    CL-46428  11.779  23.077  14.282
78066CL-    CL-46429  34.905  12.193   0.936
78067CL-    CL-46430  26.553  30.524  13.873
78068CL-    CL-46431   5.726  22.109   1.417
78069CL-    CL-46432  22.239  13.163   2.269
78070CL-    CL-46433  13.722  26.473   2.765
78071CL-    CL-46434  12.251   8.167   2.319
78072CL-    CL-46435  38.852  43.768   2.757
78073CL-    CL-46436  33.974  36.350   2.729
78074CL-    CL-46437   8.753  34.535  13.951
78075CL-    CL-46438  20.163  33.921   1.885
78076CL-    CL-46439  23.578  16.177   0.481
78077CL-    CL-46440  11.749  24.158  11.876
78078CL-    CL-46441   2.414  37.024  13.864
78079CL-    CL-46442  38.396  14.607   3.708
78080CL-    CL-46443  34.440  38.832   2.721
78081CL-    CL-46444  34.573   5.692   0.904
78082CL-    CL-46445  30.159  41.024  11.959
78083CL-    CL-46446   9.695   2.746  13.335
78084CL-    CL-46447  43.970  35.448   4.305
78085CL-    CL-46448  18.119  19.163  11.417
78086CL-    CL-46449  16.630  43.949   2.222
78087CL-    CL-46450  23.725  43.290  13.307
78088CL-    CL-46451  28.474   5.238   1.242
78089CL-    CL-46452  18.731  20.763   3.646
78090CL-    CL-46453  40.970  15.631   0.265
78091CL-    CL-46454  23.101   6.427  12.546
78092CL-    CL-46455  20.668  29.569   0.244
78093CL-    CL-46456  31.450  40.814  12.967
78094CL-    CL-46457  32.135  21.534   2.743
78095CL-    CL-46458  14.275  22.521  14.787
78096CL-    CL-46459  41.794  37.498  13.906
78097CL-    CL-46460  28.445  25.687   1.397
78098CL-    CL-46461  23.009  44.851  12.031
78099CL-    CL-46462  18.193  33.613   3.291
78100CL-    CL-46463   0.762  10.637   0.829
78101CL-    CL-46464  31.979   4.908   5.190
78102CL-    CL-46465   4.939  25.980  11.984
78103CL-    CL-46466  10.764  27.537   1.721
78104CL-    CL-46467  16.075  15.637  14.363
78105CL-    CL-46468  23.148  29.643  11.462
78106CL-    CL-46469  29.643  44.821  13.480
78107CL-    CL-46470  34.023  20.165   2.234
78108CL-    CL-46471  44.803  41.005  14.334
78109CL-    CL-46472  39.815  39.439  13.798
78110CL-    CL-46473   9.822  15.613   3.265
78111CL-    CL-46474  40.957  40.018  12.865
78112CL-    CL-46475  15.670   5.765  12.578
78113CL-    CL-46476  23.051  18.051   3.752
78114CL-    CL-46477  31.143  25.697  13.538
78115CL-    CL-46478  33.609   5.344  12.362
78116CL-    CL-46479  33.131  12.116   2.288
78117CL-    CL-46480   0.753   5.761  12.353
78118CL-    CL-46481  13.752  35.980  12.852
78119CL-    CL-46482  27.148   3.874  14.988
78120CL-    CL-46483  18.604  40.347  10.997
78121CL-    CL-46484  16.098  20.767   2.200
78122CL-    CL-46485  31.149  13.633  10.442
78123CL-    CL-46486   1.977   1.337   2.364
78124CL-    CL-46487  36.572   4.250  14.305
78125CL-    CL-46488   9.692   3.429   4.760
78126CL-    CL-46489  22.672  24.536   1.250
78127CL-    CL-46490  31.569  22.541  14.467
78128CL-    CL-46491  29.503   8.699   4.178
78129CL-    CL-46492  38.468   9.292  11.128
78130CL-    CL-46493  42.783  26.966   4.799
78131CL-    CL-46494  14.748  26.640  10.979
78132CL-    CL-46495   9.818   2.925   4.247
78133CL-    CL-46496   7.880  28.460  13.982
78134CL-    CL-46497  17.269  32.900   3.331
78135CL-    CL-46498  26.531  26.034  11.429
78136CL-    CL-46499  36.587  42.368   1.388
78137CL-    CL-46500  19.157  38.331   4.185
78138CL-    CL-46501   5.712  36.916   1.367
78139CL-    CL-46502  41.885  17.281   2.790
78140CL-    CL-46503  33.983  36.868  12.464
78141CL-    CL-46504   7.374   8.256  14.915
78142CL-    CL-46505  17.120  29.087  10.903
78143CL-    CL-46506  36.011  28.607  13.424
78144CL-    CL-46507  18.227  15.769   5.154
78145CL-    CL-46508   7.841  44.929  13.044
78146CL-    CL-46509  29.527  40.945   0.901
78147CL-    CL-46510   4.910  30.537   3.385
78148CL-    CL-46511  30.538  43.289  12.343
78149CL-    CL-46512  23.199  14.818   2.318
78150CL-    CL-46513  26.548  16.193   4.615
78151CL-    CL-46514  38.868  24.617  11.008
78152CL-    CL-46515  32.556  20.674   4.142
78153CL-    CL-46516  36.562  18.260  13.456
78154CL-    CL-46517   0.369   0.761   2.272
78155CL-    CL-46518  14.600  20.690   3.194
78156CL-    CL-46519  11.274  16.111  14.288
78157CL-    CL-46520  33.919  22.105   0.903
78158CL-    CL-46521  17.094  39.326   1.416
78159CL-    CL-46522  38.404  13.766   2.260
78160CL-    CL-46523  43.402   6.320  11.898
78161CL-    CL-46524  18.633   0.755  14.956
78162CL-    CL-46525  40.052  19.556   2.382
78163CL-    CL-46526  17.681  18.755   3.829
78164CL-    CL-46527  13.814  32.130   1.879
78165CL-    CL-46528  43.372   0.384   4.228
78166CL-    CL-46529  37.521  31.132   1.244
78167CL-    CL-46530  40.534  10.847   2.354
78168CL-    CL-46531   9.251  37.978  10.555
78169CL-    CL-46532   5.199  36.005  14.343
78170CL-    CL-46533  39.921  32.490  11.436
78171CL-    CL-46534  30.613  41.353   3.237
78172CL-    CL-46535   7.363  32.593   1.404
78173CL-    CL-46536  38.433  37.987  14.890
78174CL-    CL-46537  19.768  21.583  14.799
78175CL-    CL-46538   5.850   8.360  11.460
78176CL-    CL-46539  20.119  34.895  13.025
78177CL-    CL-46540  27.125  36.556   3.732
78178CL-    CL-46541  32.541  26.526   1.296
78179CL-    CL-46542  18.052   6.712  14.488
78180CL-    CL-46543  28.570  32.080   3.310
78181CL-    CL-46544  10.796  36.446   2.222
78182CL-    CL-46545   9.234  10.318   2.264
78183CL-    CL-46546  36.410  17.573  10.571
78184CL-    CL-46547  25.552   8.789  12.961
78185CL-    CL-46548  12.224  16.722   0.876
78186CL-    CL-46549  11.643  26.640  11.898
78187CL-    CL-46550   4.293  24.526   0.833
78188CL-    CL-46551  17.128  35.000  11.466
78189CL-    CL-46552  27.545  24.075  14.503
78190CL-    CL-46553  39.841   0.457   0.381
78191CL-    CL-46554   0.952  40.311  12.920
78192CL-    CL-46555  11.828  19.212  12.881
78193CL-    CL-46556  25.023  19.097  14.861
78194CL-    CL-46557  43.001   3.919  12.920
78195CL-    CL-46558  33.603  29.965  13.839
78196CL-    CL-46559  43.944  37.979  10.936
78197CL-    CL-46560   7.321  44.408   4.312
78198CL-    CL-46561  20.538  35.512   3.869
78199CL-    CL-46562   0.862  37.556   0.465
78200CL-    CL-46563  11.708  42.850   2.902
78201CL-    CL-46564  14.698   1.772   3.350
78202CL-    CL-46565  14.732  43.806  11.036
78203CL-    CL-46566  33.462  27.977   1.331
78204CL-    CL-46567  29.941  28.942  13.940
78205CL-    CL-46568  37.843  26.498   0.863
78206CL-    CL-46569  18.603   7.739   1.789
78207CL-    CL-46570  20.541  30.977  10.951
78208CL-    CL-46571  26.129  34.483  12.913
78209CL-    CL-46572  44.310  44.262  11.491
78210CL-    CL-46573  19.150  17.681   4.301
78211CL-    CL-46574   7.813  27.535  13.867
78212CL-    CL-46575  20.059  22.700  14.963
78213CL-    CL-46576  43.368  10.819  12.978
78214CL-    CL-46577  30.583  36.356   4.234
78215CL-    CL-46578  24.504   3.217  12.881
78216CL-    CL-46579  24.202  28.543   1.774
78217CL-    CL-46580   7.321   7.780  12.826
78218CL-    CL-46581  17.567  28.579  11.123
78219CL-    CL-46582  23.544  11.630   0.896
78220CL-    CL-46583  38.967  33.449  12.535
78221CL-    CL-46584  17.202  28.031  11.072
78222CL-    CL-46585   2.964   6.350  12.556
78223CL-    CL-46586  24.215  26.139  13.021
78224CL-    CL-46587  38.909  33.543   3.155
78225CL-    CL-46588   5.742   7.701  11.945
78226CL-    CL-46589  18.069  13.809   3.868
78227CL-    CL-46590  43.388   0.793   4.639
78228CL-    CL-46591  12.818  10.809   2.739
78229CL-    CL-46592  28.988   8.237   2.820
78230CL-    CL-46593  25.064   8.265  13.521
78231CL-    CL-46594  42.923  10.729  10.638
78232CL-    CL-46595  19.215  29.110  14.339
78233CL-    CL-46596  17.184  26.022  13.484
78234CL-    CL-46597  43.476  39.557   1.875
78235CL-    CL-46598  32.922   4.319  11.523
78236CL-    CL-46599  39.036  31.614  11.588
78237CL-    CL-46600  35.395  11.184   2.706
78238CL-    CL-46601  14.176  38.457   3.708
78239CL-    CL-46602   2.401  37.067  11.522
78240CL-    CL-46603  20.132   1.933  10.534
78241CL-    CL-46604   8.882  35.596   3.669
78242CL-    CL-46605  27.640   2.769  10.426
78243CL-    CL-46606  19.122   8.718   1.695
78244CL-    CL-46607   2.794  27.654   2.884
78245CL-    CL-46608  19.069  22.568   3.175
78246CL-    CL-46609  18.659  39.008   3.690
78247CL-    CL-46610  42.454  25.617   4.154
78248CL-    CL-46611  32.108  15.261  10.997
78249CL-    CL-46612   5.204   6.423  10.544
78250CL-    CL-46613  35.493  38.895   3.186
78251CL-    CL-46614  37.056  36.855  12.563
78252CL-    CL-46615  22.202  36.879  12.949
78253CL-    CL-46616  18.213  41.295   3.282
78254CL-    CL-46617  16.142  24.670  14.485
78255CL-    CL-46618  14.611  42.851  14.315
78256CL-    CL-46619  20.233  34.990  14.341
78257CL-    CL-46620  24.117   6.719  14.808
78258CL-    CL-46621  39.459  19.117  13.824
78259CL-    CL-46622  21.094  27.606  14.769
78260CL-    CL-46623  44.785  40.332   2.182
78261CL-    CL-46624  38.540  24.672   0.914
78262CL-    CL-46625  13.759  44.994  13.002
78263CL-    CL-46626  39.385  28.495  13.403
78264CL-    CL-46627   8.338  17.114  14.478
78265CL-    CL-46628  28.554  23.649  11.470
78266CL-    CL-46629  41.473  40.819   3.848
78267CL-    CL-46630   8.835  15.097  13.038
78268CL-    CL-46631   3.294   7.178   0.321
78269CL-    CL-46632  35.950  16.697  13.922
78270CL-    CL-46633   1.469  13.633   2.355
78271CL-    CL-46634  22.033   6.755  14.799
78272CL-    CL-46635  24.596  23.236  12.472
78273CL-    CL-46636  33.601  19.246  11.866
78274CL-    CL-46637   5.869  25.474  13.912
78275CL-    CL-46638   5.931  28.454  12.079
78276CL-    CL-46639  12.152  11.634  12.437
78277CL-    CL-46640   8.856  27.514   3.155
78278CL-    CL-46641   6.296   6.737  12.395
78279CL-    CL-46642  40.988   0.973   3.702
78280CL-    CL-46643  26.013  41.371   0.424
78281CL-    CL-46644  27.108  24.598   1.257
78282CL-    CL-46645  16.183  38.017   2.285
78283CL-    CL-46646  25.636  42.463  14.963
78284CL-    CL-46647  42.325   9.378   0.824
78285CL-    CL-46648  27.099  25.004  10.975
78286CL-    CL-46649   0.415  13.202   2.357
78287CL-    CL-46650  34.887   8.733   1.439
78288CL-    CL-46651  30.639   9.224   3.324
78289CL-    CL-46652  34.372  44.911   0.792
78290CL-    CL-46653  23.097  22.728   3.856
78291CL-    CL-46654  24.224  28.940  12.374
78292CL-    CL-46655  25.712   3.255  12.372
78293CL-    CL-46656  32.058  10.635  14.793
78294CL-    CL-46657  27.170   5.438   1.767
78295CL-    CL-46658  26.565  15.739  13.910
78296CL-    CL-46659  24.501  28.091  14.911
78297CL-    CL-46660  26.518  22.607  13.791
78298CL-    CL-46661  44.418  26.963   4.722
78299CL-    CL-46662  38.033  34.071   3.634
78300CL-    CL-46663   8.199   1.896  14.917
78301CL-    CL-46664   5.424  11.186   4.129
78302CL-    CL-46665  33.100  28.047   4.647
78303CL-    CL-46666   0.792   4.739   2.269
78304CL-    CL-46667   5.790  43.308   0.841
78305CL-    CL-46668   8.366  26.669   1.784
78306CL-    CL-46669  40.340  36.413  10.904
78307CL-    CL-46670  15.196  44.438   1.368
78308CL-    CL-46671  16.625  41.349  14.422
78309CL-    CL-46672  39.959  10.738   5.170
78310CL-    CL-46673   8.177   6.321  13.031
78311CL-    CL-46674   4.764  21.159   1.291
78312CL-    CL-46675  24.568  20.719   3.763
78313CL-    CL-46676  42.868  44.341  10.039
78314CL-    CL-46677  10.878  23.131   3.798
78315CL-    CL-46678   3.216  19.116   0.356
78316CL-    CL-46679  26.005   2.345  11.994
78317CL-    CL-46680  21.166  37.988   4.219
78318CL-    CL-46681  16.141  23.497  13.830
78319CL-    CL-46682  31.603   6.784   4.185
78320CL-    CL-46683  27.472  37.885  10.593
78321CL-    CL-46684  24.546  26.488   3.752
78322CL-    CL-46685  16.294   7.780   1.860
78323CL-    CL-46686  11.298  12.186   4.680
78324CL-    CL-46687  25.192   8.779   4.171
78325CL-    CL-46688   1.331  38.451   4.125
78326CL-    CL-46689  42.352  25.640  11.542
78327CL-    CL-46690   2.430  34.878   4.312
78328CL-    CL-46691   0.398  19.149   3.791
78329CL-    CL-46692  16.287  18.072   2.790
78330CL-    CL-46693   9.745  20.121   0.919
78331CL-    CL-46694  42.393  17.720  11.860
78332CL-    CL-46695  14.612  12.206  13.948
78333CL-    CL-46696  38.378  14.257   0.327
78334CL-    CL-46697  34.520  37.909   0.758
78335CL-    CL-46698   6.685  37.990   2.197
78336CL-    CL-46699  38.528  25.976   2.205
78337CL-    CL-46700   9.715  39.516  11.117
78338CL-    CL-46701   1.355  36.910  14.930
78339CL-    CL-46702  33.022  41.415  10.507
78340CL-    CL-46703  41.850  24.496  13.474
78341CL-    CL-46704  13.165  31.633   3.721
78342CL-    CL-46705  43.376   1.865   1.795
78343CL-    CL-46706  41.413  28.443   4.216
78344CL-    CL-46707   6.281  31.512   0.773
78345CL-    CL-46708  22.136  15.234  14.952
78346CL-    CL-46709   5.342  20.576   3.177
78347CL-    CL-46710  17.692  33.422  10.571
78348CL-    CL-46711  11.243   6.383   2.234
78349CL-    CL-46712  35.451  11.202  11.916
78350CL-    CL-46713  10.324  12.171  13.463
78351CL-    CL-46714   4.211  30.533  11.909
78352CL-    CL-46715   5.328  23.673   2.395
78353CL-    CL-46716  28.094   4.855   1.242
78354CL-    CL-46717   2.924  23.130   3.744
78355CL-    CL-46718  39.468  30.929  12.924
78356CL-    CL-46719  30.599  43.400  10.478
78357CL-    CL-46720  41.842  19.056   1.355
78358CL-    CL-46721  42.468  11.275  11.965
78359CL-    CL-46722  14.754  23.688   1.702
78360CL-    CL-46723  42.796  23.095  11.535
78361CL-    CL-46724  22.551  18.095   4.353
78362CL-    CL-46725  40.996   9.360   1.917
78363CL-    CL-46726   0.470   0.282   4.624
78364CL-    CL-46727  38.932  42.031   3.233
78365CL-    CL-46728  32.455  15.293  13.814
78366CL-    CL-46729  25.022  23.197  11.043
78367CL-    CL-46730  22.705  44.915  14.875
78368CL-    CL-46731  35.947   9.834   1.899
78369CL-    CL-46732   2.451  36.416   0.429
78370CL-    CL-46733  14.655  38.552   0.848
78371CL-    CL-46734  12.267   6.322   3.280
78372CL-    CL-46735   2.918  37.549  12.062
78373CL-    CL-46736  38.378   3.268   1.787
78374CL-    CL-46737  19.144  37.555   4.619
78375CL-    CL-46738  28.580  44.283  13.528
78376CL-    CL-46739  43.295  25.186  14.024
78377CL-    CL-46740  41.038  26.677  13.815
78378CL-    CL-46741   6.737  29.547   2.327
78379CL-    CL-46742  30.070  17.081   1.774
78380CL-    CL-46743   2.388  43.438  10.413
78381CL-    CL-46744   7.261   3.430   3.255
78382CL-    CL-46745  36.555  26.541   2.662
78383CL-    CL-46746  34.520   8.677   3.818
78384CL-    CL-46747  29.124   1.413   1.714
78385CL-    CL-46748  26.984  19.252   4.784
78386CL-    CL-46749  29.499  40.024  12.967
78387CL-    CL-46750  12.814   7.229   4.830
78388CL-    CL-46751  23.638   4.859  12.395
78389CL-    CL-46752  12.261   3.926   1.702
78390CL-    CL-46753   5.243   4.372   3.200
78391CL-    CL-46754  23.551  36.088  12.056
78392CL-    CL-46755   5.856  25.117   4.297
78393CL-    CL-46756   4.348  40.306   4.296
78394CL-    CL-46757  36.925  20.670  11.108
78395CL-    CL-46758  24.587  15.718  14.908
78396CL-    CL-46759  37.503   3.931  13.816
78397CL-    CL-46760  18.063  32.027  12.502
78398CL-    CL-46761  37.492  38.556   1.721
78399CL-    CL-46762   5.844  13.187  10.451
78400CL-    CL-46763  13.809   0.930  12.574
78401CL-    CL-46764  36.528  34.873  14.833
78402CL-    CL-46765  36.882  16.703  13.821
78403CL-    CL-46766  19.647   4.803  10.557
78404CL-    CL-46767   4.781  15.592  11.881
78405CL-    CL-46768  14.701   3.721  14.426
78406CL-    CL-46769  43.494  16.237  10.560
78407CL-    CL-46770  40.051   9.326  13.444
78408CL-    CL-46771  14.098  31.972  10.436
78409CL-    CL-46772  35.573  27.051  13.041
78410CL-    CL-46773  42.405  35.034   3.859
78411CL-    CL-46774  22.711   6.334  11.426
78412CL-    CL-46775  24.158  22.055  11.046
78413CL-    CL-46776  28.648   3.735  13.053
78414CL-    CL-46777  23.149  28.121  12.904
78415CL-    CL-46778  29.490  25.117   1.294
78416CL-    CL-46779  15.226  40.978  11.435
78417CL-    CL-46780  37.925  31.645  11.023
78418CL-    CL-46781   4.921  25.613  12.083
78419CL-    CL-46782  23.683   7.385  12.489
78420CL-    CL-46783   9.681   8.767   0.315
78421CL-    CL-46784  37.928  17.179   4.697
78422CL-    CL-46785   3.295  14.807   2.256
78423CL-    CL-46786  35.511  10.159   0.466
78424CL-    CL-46787   5.352  36.094  13.917
78425CL-    CL-46788  17.668  44.998   4.766
78426CL-    CL-46789   4.945  38.415  14.912
78427CL-    CL-46790  37.933  41.818   3.771
78428CL-    CL-46791  27.964  13.162  11.502
78429CL-    CL-46792   1.264   8.739   3.357
78430CL-    CL-46793   0.798  37.408  14.323
78431CL-    CL-46794  24.074   7.371  10.156
78432CL-    CL-46795  27.496  23.006   0.820
78433CL-    CL-46796   1.964  12.329  13.511
78434CL-    CL-46797  26.582  29.467   3.803
78435CL-    CL-46798  29.980  14.625   4.774
78436CL-    CL-46799  24.671  28.975   0.846
78437CL-    CL-46800   3.251  19.647  12.926
78438CL-    CL-46801  31.961  36.590  11.856
78439CL-    CL-46802  22.590  35.394   1.891
78440CL-    CL-46803  16.626  20.234  10.994
78441CL-    CL-46804  36.490  11.265   4.173
78442CL-    CL-46805  26.557   1.311   2.728
78443CL-    CL-46806   6.883  37.535  14.457
78444CL-    CL-46807  43.324  43.380  13.319
78445CL-    CL-46808  32.946  20.134   3.653
78446CL-    CL-46809  27.639  30.099   0.954
78447CL-    CL-46810  19.671  32.019   2.847
78448CL-    CL-46811  33.121  14.784   3.342
78449CL-    CL-46812   1.854  38.441  14.469
78450CL-    CL-46813  42.794   6.681  10.589
78451CL-    CL-46814  35.387  25.090  10.547
78452CL-    CL-46815  31.926  42.363  14.383
78453CL-    CL-46816  34.434  27.997   2.696
78454CL-    CL-46817  24.077  20.532  11.857
78455CL-    CL-46818   2.877  43.329   0.388
78456CL-    CL-46819  10.333   5.306   0.940
78457CL-    CL-46820  38.432  23.999  12.485
78458CL-    CL-46821   6.343   7.775   9.927
78459CL-    CL-46822  40.957  36.020   3.701
78460CL-    CL-46823  10.230  32.096   1.837
78461CL-    CL-46824  26.587  37.002   3.682
78462CL-    CL-46825   9.849  11.245   4.631
78463CL-    CL-46826  14.790   9.780  12.860
78464CL-    CL-46827  15.790  18.290  13.009
78465CL-    CL-46828  24.645  26.954  13.429
78466CL-    CL-46829  15.664   8.707  10.998
78467CL-    CL-46830  24.183   1.746  14.936
78468CL-    CL-46831  25.472  28.639  14.874
78469CL-    CL-46832  16.137  37.881   1.449
78470CL-    CL-46833   8.273  37.364   0.810
78471CL-    CL-46834   1.369  10.833   0.380
78472CL-    CL-46835  43.280  23.020  11.082
78473CL-    CL-46836  41.344  25.681  11.441
78474CL-    CL-46837  40.539  32.962   2.773
78475CL-    CL-46838   2.451   6.708  13.894
78476CL-    CL-46839   4.749  11.646  14.989
78477CL-    CL-46840  10.382   3.898  10.994
78478CL-    CL-46841   4.743   1.316   4.733
78479CL-    CL-46842  30.012  10.364   1.825
78480CL-    CL-46843  41.335  39.407   3.285
78481CL-    CL-46844  39.451  12.736   9.969
78482CL-    CL-46845  28.605  21.115   1.248
78483CL-    CL-46846  44.384  33.928   1.247
78484CL-    CL-46847  29.947  24.507   0.795
78485CL-    CL-46848   6.677  33.590  14.951
78486CL-    CL-46849  43.833  14.729   2.345
78487CL-    CL-46850  30.916   6.270  11.381
78488CL-    CL-46851  16.292  43.881  10.542
78489CL-    CL-46852  13.120  25.696   2.259
78490CL-    CL-46853   0.795  39.994   1.248
78491CL-    CL-46854   3.950  22.221  12.899
78492CL-    CL-46855   1.247   8.404  12.905
78493CL-    CL-46856  22.580   8.226   2.317
78494CL-    CL-46857   1.883  29.949  13.966
78495CL-    CL-46858   3.779  12.166  12.484
78496CL-    CL-46859  22.083  32.027   4.785
78497CL-    CL-46860  19.644   4.855  11.088
78498CL-    CL-46861  35.035  10.187  13.382
78499CL-    CL-46862  38.397  30.145  14.514
78500CL-    CL-46863  10.776   4.725  13.334
78501CL-    CL-46864   5.316   2.364   3.675
78502CL-    CL-46865  14.097  27.173  14.916
78503CL-    CL-46866  20.119  44.008   4.216
78504CL-    CL-46867  17.107  42.832  13.058
78505CL-    CL-46868  15.594  38.490  10.099
78506CL-    CL-46869  34.934  40.021   0.814
78507CL-    CL-46870   7.286  38.841   0.956
78508CL-    CL-46871   0.372  15.675  11.562
78509CL-    CL-46872  14.241   3.751   0.297
78510CL-    CL-46873  25.069  27.036  12.076
78511CL-    CL-46874  30.533  18.588   4.804
78512CL-    CL-46875  41.478   9.157  12.849
78513CL-    CL-46876  27.149  21.606  14.894
78514CL-    CL-46877   2.729  26.045   2.744
78515CL-    CL-46878   9.888  23.500  12.925
78516CL-    CL-46879  42.838  28.109   4.788
78517CL-    CL-46880   4.892  27.964   1.902
78518CL-    CL-46881  17.198  24.506  11.524
78519CL-    CL-46882   5.885  22.007  11.923
78520CL-    CL-46883  26.021  11.194  14.968
78521CL-    CL-46884   3.918   0.934   4.737
78522CL-    CL-46885   5.890   8.798  14.959
78523CL-    CL-46886   5.855  30.469   3.216
78524CL-    CL-46887  21.233  22.089  10.584
78525CL-    CL-46888  28.968   5.804   1.836
78526CL-    CL-46889   5.883  39.375  12.914
78527CL-    CL-46890  12.769  13.200   0.323
78528CL-    CL-46891  15.758   4.813  12.488
78529CL-    CL-46892  38.394  29.023   0.343
78530CL-    CL-46893  32.438  24.134  11.866
78531CL-    CL-46894  30.993   2.958   1.289
78532CL-    CL-46895   8.827  23.599  14.278
78533CL-    CL-46896  41.800  33.008   2.257
78534CL-    CL-46897  43.012  26.162   3.633
78535CL-    CL-46898  28.156  31.554   4.254
78536CL-    CL-46899  17.084  19.044  11.063
78537CL-    CL-46900   7.317  18.249  14.456
78538CL-    CL-46901   4.829  37.969   4.672
78539CL-    CL-46902  14.701   2.231  10.502
78540CL-    CL-46903   1.918   5.240   2.840
78541CL-    CL-46904  27.197  21.092  11.021
78542CL-    CL-46905  40.540   1.441   1.374
78543CL-    CL-46906   4.242  21.090  12.839
78544CL-    CL-46907  43.430  13.823  10.641
78545CL-    CL-46908  10.182  39.320   0.391
78546CL-    CL-46909  41.913  28.019   1.252
78547CL-    CL-46910  18.684   8.176   1.233
78548CL-    CL-46911  29.568  11.131  11.100
78549CL-    CL-46912  27.110   7.747  13.470
78550CL-    CL-46913  21.205  24.167   0.416
78551CL-    CL-46914  44.415  43.454   2.202
78552CL-    CL-46915  37.849  17.279   1.427
78553CL-    CL-46916  19.648   1.771   0.346
78554CL-    CL-46917   0.286  16.195  11.873
78555CL-    CL-46918  11.713  26.143  11.059
78556CL-    CL-46919   2.415  22.092  13.903
78557CL-    CL-46920  20.202  15.157  12.493
78558CL-    CL-46921   2.861  25.060   5.635
78559CL-    CL-46922   7.733  11.734   5.205
78560CL-    CL-46923  19.685  26.633   9.980
78561CL-    CL-46924  43.373  40.377  10.919
78562CL-    CL-46925  37.561   8.296  11.064
78563CL-    CL-46926  13.783  11.672   4.301
78564CL-    CL-46927  19.096  12.848   2.809
78565CL-    CL-46928  43.427  31.036  13.828
78566CL-    CL-46929  17.687  24.990  14.968
78567CL-    CL-46930  26.456   2.740   0.915
78568CL-    CL-46931   6.223  34.499  12.469
78569CL-    CL-46932  25.051  42.782   3.678
78570CL-    CL-46933  36.471  16.679   0.281
78571CL-    CL-46934  39.487  33.516  10.994
78572CL-    CL-46935  43.313  44.432   2.743
78573CL-    CL-46936  26.117  24.484   2.393
78574CL-    CL-46937   7.250  19.647  14.031
78575CL-    CL-46938   6.416  29.053  10.106
78576CL-    CL-46939   0.410  26.566  14.972
78577CL-    CL-46940   8.188  32.517  11.065
78578CL-    CL-46941  20.047  37.409   0.738
78579CL-    CL-46942   6.893  12.160   4.212
78580CL-    CL-46943  36.593  16.732  12.452
78581CL-    CL-46944  39.013  43.302   4.700
78582CL-    CL-46945  21.045  27.130   2.348
78583CL-    CL-46946  37.347   1.469  13.351
78584CL-    CL-46947  26.496  27.079  11.008
78585CL-    CL-46948  11.758  34.391   4.749
78586CL-    CL-46949  26.122  42.936  12.862
78587CL-    CL-46950   0.388  26.617  13.400
78588CL-    CL-46951  43.798   7.366  10.921
78589CL-    CL-46952  42.286  23.091  11.442
78590CL-    CL-46953  41.042   6.693   4.206
78591CL-    CL-46954  31.622  40.969  13.797
78592CL-    CL-46955  27.480  34.566  14.321
78593CL-    CL-46956  39.016  39.543   0.472
78594CL-    CL-46957  37.899  30.541   3.727
78595CL-    CL-46958  24.493  25.044  14.929
78596CL-    CL-46959  41.487  37.471   5.319
78597CL-    CL-46960  43.999  38.473  13.821
78598CL-    CL-46961  19.749  11.624  14.395
78599CL-    CL-46962  17.769  22.574  14.955
78600CL-    CL-46963  29.945  13.177  14.797
78601CL-    CL-46964  25.542  38.554   0.377
78602CL-    CL-46965  20.628  32.597   1.399
78603CL-    CL-46966   8.245  39.048  10.922
78604CL-    CL-46967  34.520  18.127  14.305
78605CL-    CL-46968  43.441  26.048  13.362
78606CL-    CL-46969  37.380  38.470  14.920
78607CL-    CL-46970  28.447   4.410   4.259
78608CL-    CL-46971  19.067   4.701  12.967
78609CL-    CL-46972  39.497  21.139  12.910
78610CL-    CL-46973  36.884  17.158   2.849
78611CL-    CL-46974  10.378  15.320  10.083
78612CL-    CL-46975  39.041  20.734   0.381
78613CL-    CL-46976  11.280  13.603  14.862
78614CL-    CL-46977   3.391   2.247  12.476
78615CL-    CL-46978  28.059  18.140   1.804
78616CL-    CL-46979  11.686  36.007  11.091
78617CL-    CL-46980  20.659  18.134   2.249
78618CL-    CL-46981  13.225  17.609   0.784
78619CL-    CL-46982  25.474  26.021   0.816
78620CL-    CL-46983   7.749   0.947  13.964
78621CL-    CL-46984  39.384   7.200   1.748
78622CL-    CL-46985  10.260  44.807  13.824
78623CL-    CL-46986  31.561  43.019  12.071
78624CL-    CL-46987   0.456  37.452  10.576
78625CL-    CL-46988  35.042  15.252  13.907
78626CL-    CL-46989  32.980  27.608  12.522
78627CL-    CL-46990  34.028  29.045  10.533
78628CL-    CL-46991  20.180  14.196   1.390
78629CL-    CL-46992  35.535   6.819   3.245
78630CL-    CL-46993   1.314   9.770  15.000
78631CL-    CL-46994  20.126  15.581   0.409
78632CL-    CL-46995  41.789  14.752  10.621
78633CL-    CL-46996  26.606  18.057   4.704
78634CL-    CL-46997   4.708   0.305  14.930
78635CL-    CL-46998  23.726  43.820  11.597
78636CL-    CL-46999  27.063  16.296   5.783
78637CL-    CL-47000  14.805   9.252   4.661
78638CL-    CL-47001  37.575   1.313   1.235
78639CL-    CL-47002  20.535  41.003   4.192
78640CL-    CL-47003   4.246  21.525   3.752
78641CL-    CL-47004  19.766  26.040   4.758
78642CL-    CL-47005  41.814  28.173  11.922
78643CL-    CL-47006  31.103  42.331  10.477
78644CL-    CL-47007  24.089  23.532  12.903
78645CL-    CL-47008   6.902  10.246  13.854
78646CL-    CL-47009  14.827  32.513   1.883
78647CL-    CL-47010  14.732  11.849   1.425
78648CL-    CL-47011  29.636  36.350  13.393
78649CL-    CL-47012   0.457  12.216   4.200
78650CL-    CL-47013   8.831  17.680  11.374
78651CL-    CL-47014  33.516   4.289  14.967
78652CL-    CL-47015   6.196  40.533   4.730
78653CL-    CL-47016  16.672  31.038  14.992
78654CL-    CL-47017  38.826  37.385   3.208
78655CL-    CL-47018   2.797  17.786  14.784
78656CL-    CL-47019   6.297  41.791  11.521
78657CL-    CL-47020  23.642  29.658   1.332
78658CL-    CL-47021   4.731  29.096   2.239
78659CL-    CL-47022  23.016  21.173   0.255
78660CL-    CL-47023   4.806  20.583  10.938
78661CL-    CL-47024  17.671  10.683  12.490
78662CL-    CL-47025  43.764  21.721  11.392
78663CL-    CL-47026   4.278  21.737  14.798
78664CL-    CL-47027  17.149  24.517  12.939
78665CL-    CL-47028  20.186  25.050  12.444
78666CL-    CL-47029  29.427  24.686  10.438
78667CL-    CL-47030   1.967  44.266   4.619
78668CL-    CL-47031  34.541  17.292   4.702
78669CL-    CL-47032  21.020   5.398  14.760
78670CL-    CL-47033  34.396   1.255  12.896
78671CL-    CL-47034  24.204  44.772   0.929
78672CL-    CL-47035  22.646  21.146   9.955
78673CL-    CL-47036   8.682  36.468   4.287
78674CL-    CL-47037  19.707  25.204   4.317
78675CL-    CL-47038  10.352   2.282   0.412
78676CL-    CL-47039  13.841  37.068   0.874
78677CL-    CL-47040  36.906  30.987   2.805
78678CL-    CL-47041  26.204  17.618   0.412
78679CL-    CL-47042  42.849   0.362   1.277
78680CL-    CL-47043  38.837  41.337   1.837
78681CL-    CL-47044  42.923  11.718  10.504
78682CL-    CL-47045   9.666  36.542   1.878
78683CL-    CL-47046  23.075   2.370  13.021
78684CL-    CL-47047  41.389  33.387  14.423
78685CL-    CL-47048  44.771   0.316  11.479
78686CL-    CL-47049  14.737  27.525   1.698
78687CL-    CL-47050  30.086  38.823   1.821
78688CL-    CL-47051  23.615  21.190   3.212
78689CL-    CL-47052  15.158   3.252  14.389
78690CL-    CL-47053   4.763  10.296  14.439
78691CL-    CL-47054   3.888  32.089  11.083
78692CL-    CL-47055  27.637  13.276   3.823
78693CL-    CL-47056  15.770  20.051  11.073
78694CL-    CL-47057  40.993  18.554  12.494
78695CL-    CL-47058  15.718  27.599   4.277
78696CL-    CL-47059   6.923  16.733  11.123
78697CL-    CL-47060  16.295  16.765   0.877
78698CL-    CL-47061   3.405  10.154   3.741
78699CL-    CL-47062  11.219  25.690  11.950
78700CL-    CL-47063  14.099  16.700  12.005
78701CL-    CL-47064  15.790  39.389  14.291
78702CL-    CL-47065  14.328  14.163   2.896
78703CL-    CL-47066  23.024  28.591  14.824
78704CL-    CL-47067   6.733   5.788   0.271
78705CL-    CL-47068  33.412   3.875   0.247
78706CL-    CL-47069   5.348  17.245  10.977
78707CL-    CL-47070  42.494  42.985   2.415
78708CL-    CL-47071  16.244  39.873  11.082
78709CL-    CL-47072  11.647  41.892   4.157
78710CL-    CL-47073  44.476  24.023  10.471
78711CL-    CL-47074  25.113  25.198  14.328
78712CL-    CL-47075  28.008   9.699  11.580
78713CL-    CL-47076  34.921  17.239  13.993
78714CL-    CL-47077  11.724  32.488  13.010
78715CL-    CL-47078  17.210  10.320  10.405
78716CL-    CL-47079  15.649   1.761   4.730
78717CL-    CL-47080  29.634  10.352   3.254
78718CL-    CL-47081  14.224  37.036  14.861
78719CL-    CL-47082   7.756   4.744  14.769
78720CL-    CL-47083  25.576  42.800   3.281
78721CL-    CL-47084  37.894  13.636   1.921
78722CL-    CL-47085  41.822  14.790   4.162
78723CL-    CL-47086  40.340  27.570   2.870
78724CL-    CL-47087  42.800  36.979   1.409
78725CL-    CL-47088  19.571  24.223  12.928
78726CL-    CL-47089  20.634  27.088  11.977
78727CL-    CL-47090  26.469   2.755   1.767
78728CL-    CL-47091   4.338  36.401  10.558
78729CL-    CL-47092  28.440  28.613   3.861
78730CL-    CL-47093   0.847  36.860   4.832
78731CL-    CL-47094  13.306  12.221   0.286
78732CL-    CL-47095  15.102  43.448   2.838
78733CL-    CL-47096  24.004  20.616  13.444
78734CL-    CL-47097  37.920  44.429   3.200
78735CL-    CL-47098  38.011  28.509   3.707
78736CL-    CL-47099   6.798  15.689   3.829
78737CL-    CL-47100  10.795   3.839   0.327
78738CL-    CL-47101   2.303  23.072   0.818
78739CL-    CL-47102  39.941   6.390  11.381
78740CL-    CL-47103   2.243  17.697  12.515
78741CL-    CL-47104  17.624  10.735  14.341
78742CL-    CL-47105  17.278   1.831  12.053
78743CL-    CL-47106   1.957   8.289  12.090
78744CL-    CL-47107  15.083  38.049   1.850
78745CL-    CL-47108  39.408   7.831  12.991
78746CL-    CL-47109   1.775  43.474  12.401
78747CL-    CL-47110  44.959   4.385   4.713
78748CL-    CL-47111  17.579  17.228   4.804
78749CL-    CL-47112   2.887  34.414  12.443
78750CL-    CL-47113   0.394  40.327   2.405
78751CL-    CL-47114  35.975  30.953   2.413
78752CL-    CL-47115  28.446  17.772   1.376
78753CL-    CL-47116  43.426  22.232  12.418
78754CL-    CL-47117  38.478   2.911  10.494
78755CL-    CL-47118  41.858  28.148  12.959
78756CL-    CL-47119  23.054   7.844   4.664
78757CL-    CL-47120  24.989  21.137   3.791
78758CL-    CL-47121  33.599  41.879   1.334
78759CL-    CL-47122  15.329  39.559  11.428
78760CL-    CL-47123  15.210   1.792  10.575
78761CL-    CL-47124  32.433  35.891  14.920
78762CL-    CL-47125  32.583  23.089  12.491
78763CL-    CL-47126   2.264  34.040   0.778
78764CL-    CL-47127  27.507  40.003   1.781
78765CL-    CL-47128  38.497  18.642   0.819
78766CL-    CL-47129  28.015  24.696  10.615
78767CL-    CL-47130  13.607   9.311  11.551
78768CL-    CL-47131   0.413  43.871   0.334
78769CL-    CL-47132  31.491  40.529   2.307
78770CL-    CL-47133   1.805  13.113  13.865
78771CL-    CL-47134   9.827  30.079   2.205
78772CL-    CL-47135  30.073  39.837   3.309
78773CL-    CL-47136   9.359  39.808   2.312
78774CL-    CL-47137  11.623   0.773   5.112
78775CL-    CL-47138  16.171   9.365   4.325
78776CL-    CL-47139  13.276   3.279  10.467
78777CL-    CL-47140  24.546  25.194   4.271
78778CL-    CL-47141  10.771  39.060   0.796
78779CL-    CL-47142  28.098   7.261   4.288
78780CL-    CL-47143   5.753  28.542  12.496
78781CL-    CL-47144  13.747  23.064   0.273
78782CL-    CL-47145  40.901  16.309  13.830
78783CL-    CL-47146  26.481  27.094  12.553
78784CL-    CL-47147   7.344  10.702   4.228
78785CL-    CL-47148  14.311  14.595   0.847
78786CL-    CL-47149  32.615  44.347   2.222
78787CL-    CL-47150  14.271  39.555   0.781
78788CL-    CL-47151  31.605  10.826  13.355
78789CL-    CL-47152   4.379   2.860   0.406
78790CL-    CL-47153  39.540  14.741  13.464
78791CL-    CL-47154  31.439  30.583  14.393
78792CL-    CL-47155  39.047   0.399  10.923
78793CL-    CL-47156  33.626   8.161   4.633
78794CL-    CL-47157  15.813  26.488  11.001
78795CL-    CL-47158  30.478  18.064  10.997
78796CL-    CL-47159  24.537  18.271  11.552
78797CL-    CL-47160  42.292  20.093   4.308
78798CL-    CL-47161  27.615  40.033  11.585
78799CL-    CL-47162  15.595   3.857  10.938
78800CL-    CL-47163  30.016   6.278  13.319
78801CL-    CL-47164  29.969  42.883   3.749
78802CL-    CL-47165  20.638  17.605   1.276
78803CL-    CL-47166  37.528  41.871   2.724
78804CL-    CL-47167   3.899  23.063  13.412
78805CL-    CL-47168  15.205  16.194   9.579
78806CL-    CL-47169  39.040  33.085  12.029
78807CL-    CL-47170  16.280   3.437   1.219
78808CL-    CL-47171  41.794   4.714  12.405
78809CL-    CL-47172  30.061  21.695  10.944
78810CL-    CL-47173  33.532  27.639  10.540
78811CL-    CL-47174  38.399   1.389   3.803
78812CL-    CL-47175  18.757   8.273  10.546
78813CL-    CL-47176  20.225  34.537   2.210
78814CL-    CL-47177   2.454  41.820  13.540
78815CL-    CL-47178  32.581  36.850  11.064
78816CL-    CL-47179  32.120  34.895   2.755
78817CL-    CL-47180  21.235  23.169  13.834
78818CL-    CL-47181  40.809  20.211   1.273
78819CL-    CL-47182  34.059  31.547  14.800
78820CL-    CL-47183  12.758  14.291  13.803
78821CL-    CL-47184  37.017  18.711  14.275
78822CL-    CL-47185   7.239  23.013   1.787
78823CL-    CL-47186  12.671  15.738   2.260
78824CL-    CL-47187  28.460  15.788   0.304
78825CL-    CL-47188  24.568  31.997   1.839
78826CL-    CL-47189   5.293  14.651  13.834
78827CL-    CL-47190   3.445  24.700  12.912
78828CL-    CL-47191  34.116  31.545  13.794
78829CL-    CL-47192  13.203  32.988   1.390
78830CL-    CL-47193  32.021   4.315   1.899
78831CL-    CL-47194  31.529  20.561   1.819
78832CL-    CL-47195  23.021  33.019  10.442
78833CL-    CL-47196  43.939  19.779   0.934
78834CL-    CL-47197  35.473  30.607   1.316
78835CL-    CL-47198  34.441  34.900   1.935
78836CL-    CL-47199   6.861  35.548  14.947
78837CL-    CL-47200  30.648  22.224  13.476
78838CL-    CL-47201  40.305  14.730  14.030
78839CL-    CL-47202  29.113   8.755  14.458
78840CL-    CL-47203   3.799  35.949   2.804
78841CL-    CL-47204  14.726  43.313  14.823
78842CL-    CL-47205  11.795   8.393  14.398
78843CL-    CL-47206  15.321  20.099  12.843
78844CL-    CL-47207  24.665  41.903   2.760
78845CL-    CL-47208  18.758   0.297  10.487
78846CL-    CL-47209   0.369  24.724  14.968
78847CL-    CL-47210  39.456  10.712   1.233
78848CL-    CL-47211  29.125  20.694   2.243
78849CL-    CL-47212  28.937  34.541  11.057
78850CL-    CL-47213  16.201   1.392   3.250
78851CL-    CL-47214  25.554  12.699  14.870
78852CL-    CL-47215  43.368  18.170  10.973
78853CL-    CL-47216  23.145  24.184  14.891
78854CL-    CL-47217  37.540  36.403  12.895
78855CL-    CL-47218  24.604  18.791  10.457
78856CL-    CL-47219  40.446  40.874  14.965
78857CL-    CL-47220  36.058  36.915  14.437
78858CL-    CL-47221  35.863  21.041  14.321
78859CL-    CL-47222   8.401   9.704  11.009
78860CL-    CL-47223  17.207  16.119  13.381
78861CL-    CL-47224  36.411  14.614  11.858
78862CL-    CL-47225  30.020  27.963  11.612
78863CL-    CL-47226  24.997  42.521  14.513
78864CL-    CL-47227   0.968  35.514   1.914
78865CL-    CL-47228  32.460   8.868   3.775
78866CL-    CL-47229  19.198  42.514  10.505
78867CL-    CL-47230  31.585  32.636   4.127
78868CL-    CL-47231  44.414  31.023   3.267
78869CL-    CL-47232   5.352   0.978   2.793
78870CL-    CL-47233  10.244  21.227   0.261
78871CL-    CL-47234  30.528  40.843   0.285
78872CL-    CL-47235  23.048  30.628  11.523
78873CL-    CL-47236  20.048  40.539   3.162
78874CL-    CL-47237  13.117   7.257  12.084
78875CL-    CL-47238  41.007  32.008   4.125
78876CL-    CL-47239  31.500  37.580   3.815
78877CL-    CL-47240  14.195   4.833   0.927
78878CL-    CL-47241  12.128  37.008  14.516
78879CL-    CL-47242   3.287  12.670  13.869
78880CL-    CL-47243  17.113  25.050  14.434
78881CL-    CL-47244  42.943  11.655   4.337
78882CL-    CL-47245  38.394   9.387   2.276
78883CL-    CL-47246  36.404  37.364   4.281
78884CL-    CL-47247  37.848  17.640  12.515
78885CL-    CL-47248   5.264  32.987  13.804
78886CL-    CL-47249  40.984  21.057  13.438
78887CL-    CL-47250  35.929  38.557   0.844
78888CL-    CL-47251  23.193  35.078  13.387
78889CL-    CL-47252  41.906  26.118   0.441
78890CL-    CL-47253  14.734  41.960   0.929
78891CL-    CL-47254   6.263  37.445   3.279
78892CL-    CL-47255   8.852  38.837   4.784
78893CL-    CL-47256  15.314  40.936   4.332
78894CL-    CL-47257  31.979  29.619   2.808
78895CL-    CL-47258   1.946   7.746  14.279
78896CL-    CL-47259  41.317  18.662   3.763
78897CL-    CL-47260  43.873  39.063   4.681
78898CL-    CL-47261  35.365  32.942   4.189
78899CL-    CL-47262  19.255  18.181   1.319
78900CL-    CL-47263  36.502  30.123   4.345
78901CL-    CL-47264  30.908  17.185  14.878
78902CL-    CL-47265  42.372  15.595   0.895
78903CL-    CL-47266  42.479   7.417   2.381
78904CL-    CL-47267  44.008  41.911   2.830
78905CL-    CL-47268  44.379   6.881  11.558
78906CL-    CL-47269   8.901  26.658   3.346
78907CL-    CL-47270  29.610  27.145  10.995
78908CL-    CL-47271   9.644   9.377   0.329
78909CL-    CL-47272  23.727  11.818   0.458
78910CL-    CL-47273   4.330   1.415  10.025
78911CL-    CL-47274  23.075  42.919   4.701
78912CL-    CL-47275  22.103  21.197   1.885
78913CL-    CL-47276  28.502  13.200  11.912
78914CL-    CL-47277   9.320  26.168   2.702
78915CL-    CL-47278  40.006   1.444   3.228
78916CL-    CL-47279   1.336  32.084  13.503
78917CL-    CL-47280   7.801  44.264   3.686
78918CL-    CL-47281   7.267  35.957   3.305
78919CL-    CL-47282  18.200   1.929  14.419
78920CL-    CL-47283   5.277  34.391   3.382
78921CL-    CL-47284  27.663   2.922  13.437
78922CL-    CL-47285  21.644  32.100  11.964
78923CL-    CL-47286  19.642  19.267   3.214
78924CL-    CL-47287  11.807  34.521  13.466
78925CL-    CL-47288  18.700  41.814   3.701
78926CL-    CL-47289  31.527  32.551   2.368
78927CL-    CL-47290  23.994   2.759  11.005
78928CL-    CL-47291  17.607  19.611   2.877
78929CL-    CL-47292  39.042  32.437   0.325
78930CL-    CL-47293   4.705   6.730   4.272
78931CL-    CL-47294  36.062  26.587  13.842
78932CL-    CL-47295  38.929  11.292  10.988
78933CL-    CL-47296  14.124  41.470   2.409
78934CL-    CL-47297   0.316  39.941  14.997
78935CL-    CL-47298  24.133  14.269   5.102
78936CL-    CL-47299  22.578  44.946  13.524
78937CL-    CL-47300  11.675  44.277  12.010
78938CL-    CL-47301   8.249   3.438  13.439
78939CL-    CL-47302  12.635  32.502   4.314
78940CL-    CL-47303  39.967  28.568  10.555
78941CL-    CL-47304   1.957   6.884   3.212
78942CL-    CL-47305  17.688  30.003   0.861
78943CL-    CL-47306  12.653   9.380   0.831
78944CL-    CL-47307   7.751   2.746   3.197
78945CL-    CL-47308  33.385  17.081   0.334
78946CL-    CL-47309  40.812  34.379  13.059
78947CL-    CL-47310  41.467  26.951  10.983
78948CL-    CL-47311   0.836  36.072   1.708
78949CL-    CL-47312  39.429   1.803  13.884
78950CL-    CL-47313  39.557   0.791  11.505
78951CL-    CL-47314  11.834   7.747  11.954
78952CL-    CL-47315  13.215   2.257  10.939
78953CL-    CL-47316   7.708  38.862  11.530
78954CL-    CL-47317   1.742  15.624  13.420
78955CL-    CL-47318  31.059   4.419   2.662
78956CL-    CL-47319  19.707   0.749   4.303
78957CL-    CL-47320  33.005  19.770   0.320
78958CL-    CL-47321  34.058  16.771  12.554
78959CL-    CL-47322   2.893  17.209   3.212
78960CL-    CL-47323  37.553  17.144   4.701
78961CL-    CL-47324  35.402   1.744   4.630
78962CL-    CL-47325  10.351  14.228  10.046
78963CL-    CL-47326  28.026  40.403  11.399
78964CL-    CL-47327   8.898  39.519   3.206
78965CL-    CL-47328  14.295  16.782  13.818
78966CL-    CL-47329   7.273  11.797  14.379
78967CL-    CL-47330  11.313  34.900   2.825
78968CL-    CL-47331  10.183  29.962   3.375
78969CL-    CL-47332  36.377   5.878  13.541
78970CL-    CL-47333  41.439  43.348   1.260
78971CL-    CL-47334  28.575  20.561  11.943
78972CL-    CL-47335  27.543  14.606  14.761
78973CL-    CL-47336   4.902  31.065  10.578
78974CL-    CL-47337  24.668  26.180   0.963
78975CL-    CL-47338  19.680  43.894   3.361
78976CL-    CL-47339  13.320  16.116   1.438
78977CL-    CL-47340  36.021   0.974  12.853
78978CL-    CL-47341  18.254  29.964   3.324
78979CL-    CL-47342  34.988  20.585   4.247
78980CL-    CL-47343  12.328  36.045  10.476
78981CL-    CL-47344  27.050  23.692   1.916
78982CL-    CL-47345  37.396  38.003   4.117
78983CL-    CL-47346  24.147  24.213   0.938
78984CL-    CL-47347   2.463  31.522  14.401
78985CL-    CL-47348  32.936  16.306  14.804
78986CL-    CL-47349   1.318  35.598   2.864
78987CL-    CL-47350  31.445  19.157   2.417
78988CL-    CL-47351  40.008   2.731   0.920
78989CL-    CL-47352  23.210  20.612   3.231
78990CL-    CL-47353  30.636   4.751   1.910
78991CL-    CL-47354  38.325  43.342  12.467
78992CL-    CL-47355  23.560  42.879  14.958
78993CL-    CL-47356  29.167  33.522  14.015
78994CL-    CL-47357  43.920   8.374  12.903
78995CL-    CL-47358  10.224  14.098   4.286
78996CL-    CL-47359   8.713  38.011   3.343
78997CL-    CL-47360  33.931  20.060   3.169
78998CL-    CL-47361  28.498  24.626   1.715
78999CL-    CL-47362   6.800  44.357  14.322
79000CL-    CL-47363  24.620  15.211  11.525
79001CL-    CL-47364  35.513  41.493  10.939
79002CL-    CL-47365   9.349  39.381   3.679
79003CL-    CL-47366  42.937  36.352   3.637
79004CL-    CL-47367  12.614  26.081   2.809
79005CL-    CL-47368  24.573  12.796   4.685
79006CL-    CL-47369  34.077  28.015  13.919
79007CL-    CL-47370  34.532  34.591  10.456
79008CL-    CL-47371  25.525  20.646  13.453
79009CL-    CL-47372  18.561   1.811  11.501
79010CL-    CL-47373   4.886   4.945  13.424
79011CL-    CL-47374  32.932  35.075  11.863
79012CL-    CL-47375   2.242  15.213  13.025
79013CL-    CL-47376  19.704  28.483   2.215
79014CL-    CL-47377  38.925  18.241   3.849
79015CL-    CL-47378  32.955   2.929   0.413
79016CL-    CL-47379  23.054   7.296   4.787
79017CL-    CL-47380  23.728  42.499   1.321
79018CL-    CL-47381   0.395  25.489   3.788
79019CL-    CL-47382  20.601   2.374  12.499
79020CL-    CL-47383   5.693  31.972   0.949
79021CL-    CL-47384  36.062  18.784   1.336
79022CL-    CL-47385  34.504  31.491   1.259
79023CL-    CL-47386  11.837  12.621   2.739
79024CL-    CL-47387   7.726  29.126  11.083
79025CL-    CL-47388  43.343   1.340  11.498
79026CL-    CL-47389  42.384  40.915   4.759
79027CL-    CL-47390  39.408   0.777  13.495
79028CL-    CL-47391  36.415  40.323   0.784
79029CL-    CL-47392  44.475  41.026   2.792
79030CL-    CL-47393  10.874  20.679  14.323
79031CL-    CL-47394  10.781  41.897  13.821
79032CL-    CL-47395  17.683  26.537   3.186
79033CL-    CL-47396  36.070   5.424  14.928
79034CL-    CL-47397  10.841  17.610  10.895
79035CL-    CL-47398  32.081  41.370  11.612
79036CL-    CL-47399  21.668  36.396   3.720
79037CL-    CL-47400   9.738  34.405  10.966
79038CL-    CL-47401  44.856  23.702  11.948
79039CL-    CL-47402   6.293   8.725  10.003
79040CL-    CL-47403  14.790  40.372  11.556
79041CL-    CL-47404  28.477  39.066  13.541
79042CL-    CL-47405  23.695  18.216  10.576
79043CL-    CL-47406  33.433  42.478  11.056
79044CL-    CL-47407  14.814  30.633   3.274
79045CL-    CL-47408  18.672  38.982   2.880
79046CL-    CL-47409  36.524  21.600   0.829
79047CL-    CL-47410   2.350  18.655   1.275
79048CL-    CL-47411  31.010  31.534   3.227
79049CL-    CL-47412   7.849  29.627  12.859
79050CL-    CL-47413  30.576   8.755  10.975
79051CL-    CL-47414  28.640  40.494   4.247
79052CL-    CL-47415  43.434  34.021   4.801
79053CL-    CL-47416  44.358   6.234   4.339
79054CL-    CL-47417  37.850  33.530  10.160
79055CL-    CL-47418   7.829  35.574   0.934
79056CL-    CL-47419  28.953   1.360  14.514
79057CL-    CL-47420  41.482   2.225  14.983
79058CL-    CL-47421  44.969  15.170   0.340
79059CL-    CL-47422   9.282  27.134   4.227
79060CL-    CL-47423  37.538  21.043   2.760
79061CL-    CL-47424   8.231  31.102  14.978
79062CL-    CL-47425  37.478   7.181   1.790
79063CL-    CL-47426  13.663  35.445   2.727
79064CL-    CL-47427   6.783  19.133  11.379
79065CL-    CL-47428  23.634  42.989  12.856
79066CL-    CL-47429  39.864   0.280  13.973
79067CL-    CL-47430   0.953  11.319  10.602
79068CL-    CL-47431  36.993  44.367   4.809
79069CL-    CL-47432  16.729   1.872   1.826
79070CL-    CL-47433  10.752  36.944  13.375
79071CL-    CL-47434  28.986   7.193   0.776
79072CL-    CL-47435  18.230   8.826   1.911
79073CL-    CL-47436  33.973  28.536   4.248
79074CL-    CL-47437  17.268  25.074  13.915
79075CL-    CL-47438  15.590  26.613  11.520
79076CL-    CL-47439   2.786  34.991   0.945
79077CL-    CL-47440  15.253  21.230  14.794
79078CL-    CL-47441  10.206  41.423  14.405
79079CL-    CL-47442  27.597  30.051   2.873
79080CL-    CL-47443  31.994  34.070   3.689
79081CL-    CL-47444  37.081   6.293  12.563
79082CL-    CL-47445   7.250  11.868  13.895
79083CL-    CL-47446   6.857  23.094  13.994
79084CL-    CL-47447  34.059  33.537   4.744
79085CL-    CL-47448  36.578  33.452   0.808
79086CL-    CL-47449  17.676  20.686  12.358
79087CL-    CL-47450  36.404   8.867   4.759
79088CL-    CL-47451  33.570   2.887  13.867
79089CL-    CL-47452  23.505   2.227  11.969
79090CL-    CL-47453  32.603  16.126  13.307
79091CL-    CL-47454  16.592   7.853  10.473
79092CL-    CL-47455   7.417   0.384   2.227
79093CL-    CL-47456  16.639   8.810   4.172
79094CL-    CL-47457  12.329   1.408   2.680
79095CL-    CL-47458  17.075   9.255  14.352
79096CL-    CL-47459  40.807  25.547   3.171
79097CL-    CL-47460  31.583  23.511   1.834
79098CL-    CL-47461  40.532  30.544  14.278
79099CL-    CL-47462  32.098  40.902   0.416
79100CL-    CL-47463  23.527  34.452   4.666
79101CL-    CL-47464  22.038  17.607   2.819
79102CL-    CL-47465  17.651  30.591  12.843
79103CL-    CL-47466   1.857  32.599   1.343
79104CL-    CL-47467  11.273  41.363   0.389
79105CL-    CL-47468  14.265  31.443  10.950
79106CL-    CL-47469  35.948  23.594  10.553
79107CL-    CL-47470  32.610  11.821   4.680
79108CL-    CL-47471  44.776   3.257   2.376
79109CL-    CL-47472  31.070   1.241   2.189
79110CL-    CL-47473  24.202  26.147   4.168
79111CL-    CL-47474  43.473  36.002  12.029
79112CL-    CL-47475  37.562  30.589  10.068
79113CL-    CL-47476  42.285  33.550  11.927
79114CL-    CL-47477  33.519  34.119  14.286
79115CL-    CL-47478   1.316  44.774  14.762
79116CL-    CL-47479  12.121  44.941   3.228
79117CL-    CL-47480  22.198  21.598  12.022
79118CL-    CL-47481  36.053  28.939   2.294
79119CL-    CL-47482  18.113  33.544  13.950
79120CL-    CL-47483  13.143  15.581   3.751
79121CL-    CL-47484  14.771  35.413   1.268
79122CL-    CL-47485   0.354  21.125   1.926
79123CL-    CL-47486   2.247  31.603   4.775
79124CL-    CL-47487  33.055  33.602   1.893
79125CL-    CL-47488  22.723   4.339   2.272
79126CL-    CL-47489  39.335   0.373   2.317
79127CL-    CL-47490  36.893  34.929   1.258
79128CL-    CL-47491  38.485  34.401  11.396
79129CL-    CL-47492  32.080  39.015   3.708
79130CL-    CL-47493  26.162  42.317   2.287
79131CL-    CL-47494   6.682  13.784  12.464
79132CL-    CL-47495  17.162  20.271  13.025
79133CL-    CL-47496  35.393  21.539   4.803
79134CL-    CL-47497  31.603  37.949  12.520
79135CL-    CL-47498   6.352   1.446  14.983
79136CL-    CL-47499  17.757  37.544  11.550
79137CL-    CL-47500  41.516  39.539  12.405
79138CL-    CL-47501  11.845  37.529  12.400
79139CL-    CL-47502  18.674  13.637   1.411
79140CL-    CL-47503   0.425   1.933  13.959
79141CL-    CL-47504  37.892   6.349   1.317
79142CL-    CL-47505  19.244   1.977  14.308
79143CL-    CL-47506  39.039   2.781   0.746
79144CL-    CL-47507  34.010  37.018  12.036
79145CL-    CL-47508   7.366  24.695  12.356
79146CL-    CL-47509  16.583  26.524  12.447
79147CL-    CL-47510  23.696  33.498  12.347
79148CL-    CL-47511  18.600  41.927  14.943
79149CL-    CL-47512  39.369  36.969   3.693
79150CL-    CL-47513  38.335  40.839  12.957
79151CL-    CL-47514  10.231   2.335   2.853
79152CL-    CL-47515  35.921  42.829  13.955
79153CL-    CL-47516  30.562  38.922  11.564
79154CL-    CL-47517  15.755  21.032   2.795
79155CL-    CL-47518  21.197  36.532   4.734
79156CL-    CL-47519  11.762  32.962  14.385
79157CL-    CL-47520   1.359  35.066  10.583
79158CL-    CL-47521  30.639  42.414  11.537
79159CL-    CL-47522  17.775  16.660   4.286
79160CL-    CL-47523  11.754  44.411  12.857
79161CL-    CL-47524  25.061  36.004   2.277
79162CL-    CL-47525   5.334   0.406  13.503
79163CL-    CL-47526  26.081  10.235   4.717
79164CL-    CL-47527  36.413   3.754   2.319
79165CL-    CL-47528   5.315  43.859  10.104
79166CL-    CL-47529   8.257  39.916   1.798
79167CL-    CL-47530   3.400  24.094  11.454
79168CL-    CL-47531  42.952  37.544  11.098
79169CL-    CL-47532  40.041  37.884   2.214
79170CL-    CL-47533  23.687  11.351   0.296
79171CL-    CL-47534  37.412   3.828  12.342
79172CL-    CL-47535  32.088  40.987   4.164
79173CL-    CL-47536   9.250   3.253   2.201
79174CL-    CL-47537  32.029  44.963   4.193
79175CL-    CL-47538  13.152  35.439  13.418
79176CL-    CL-47539  19.126  37.033   4.720
79177CL-    CL-47540  38.391  13.779   5.792
79178CL-    CL-47541  11.245  39.935   2.324
79179CL-    CL-47542  10.317   2.959   2.855
79180CL-    CL-47543   9.339   1.373   4.714
79181CL-    CL-47544  38.357   7.796  14.497
79182CL-    CL-47545   3.400  40.386  10.989
79183CL-    CL-47546  44.402  24.014   0.290
79184CL-    CL-47547  41.798   8.795  14.972
79185CL-    CL-47548  40.820  29.955  11.476
79186CL-    CL-47549   1.882  37.958   1.388
79187CL-    CL-47550  11.669  31.041  12.908
79188CL-    CL-47551   3.838  13.641  12.425
79189CL-    CL-47552  23.680   2.396   3.671
79190CL-    CL-47553  22.025  43.989   0.411
79191CL-    CL-47554  35.426  30.138  13.348
79192CL-    CL-47555  28.028   0.396  12.391
79193CL-    CL-47556  33.938  39.943  12.501
79194CL-    CL-47557  24.224   6.403   3.832
79195CL-    CL-47558  25.168  15.279   1.759
79196CL-    CL-47559  39.055   2.340   2.327
79197CL-    CL-47560   5.824   9.209   2.896
79198CL-    CL-47561  40.543  22.728   3.385
79199CL-    CL-47562   9.854  22.230   3.748
79200CL-    CL-47563  32.630  14.703  10.959
79201CL-    CL-47564  10.841  29.070   0.288
79202CL-    CL-47565   1.297   4.812   1.814
79203CL-    CL-47566  25.528  43.443  11.957
79204CL-    CL-47567  13.756  25.676   2.213
79205CL-    CL-47568  26.613  10.310  14.927
79206CL-    CL-47569  42.294  37.373   1.299
79207CL-    CL-47570  33.499  16.626   3.839
79208CL-    CL-47571   0.933  42.462  13.919
79209CL-    CL-47572   3.242   7.717  12.477
79210CL-    CL-47573   4.802  42.343   2.202
79211CL-    CL-47574  24.999   7.308   3.659
79212CL-    CL-47575  29.541  38.331  11.529
79213CL-    CL-47576  32.048  31.932  12.924
79214CL-    CL-47577  22.190  14.284  14.388
79215CL-    CL-47578  24.986  40.853  13.863
79216CL-    CL-47579  44.765   0.311   1.228
79217CL-    CL-47580  14.189   7.399   4.160
79218CL-    CL-47581  34.377  16.185   4.347
79219CL-    CL-47582  17.780  39.962  13.022
79220CL-    CL-47583  12.310   6.857  11.381
79221CL-    CL-47584  26.533  16.657  14.375
79222CL-    CL-47585  28.943   9.379  14.501
79223CL-    CL-47586  27.189  17.645   4.738
79224CL-    CL-47587  35.994  29.112  10.557
79225CL-    CL-47588   0.773  29.609  13.815
79226CL-    CL-47589  44.363  30.140   0.257
79227CL-    CL-47590   8.789  13.146   3.326
79228CL-    CL-47591  27.569  13.240  14.328
79229CL-    CL-47592  28.047  30.631   1.931
79230CL-    CL-47593  20.195   3.395  14.931
79231CL-    CL-47594  15.273  13.645   4.136
79232CL-    CL-47595  21.254  27.550  12.561
79233CL-    CL-47596   1.383  33.555  13.531
79234CL-    CL-47597  32.546   2.377  11.025
79235CL-    CL-47598  39.543  22.075   1.773
79236CL-    CL-47599  18.216  35.397   3.149
79237CL-    CL-47600  29.978  13.254   1.303
79238CL-    CL-47601  27.600  19.581   0.393
79239CL-    CL-47602  20.758  15.254   4.284
79240CL-    CL-47603  29.434  42.445   3.652
79241CL-    CL-47604   1.847   3.342   4.723
79242CL-    CL-47605  31.572  25.122  14.767
79243CL-    CL-47606  13.217  44.273   5.257
79244CL-    CL-47607   5.236   3.227  11.426
79245CL-    CL-47608  38.417  16.144  13.033
79246CL-    CL-47609  40.028  43.307  11.590
79247CL-    CL-47610  13.223   8.276  14.998
79248CL-    CL-47611  28.564   0.409   2.733
79249CL-    CL-47612  37.043  30.517  13.436
79250CL-    CL-47613  10.697  22.221   2.340
79251CL-    CL-47614  11.632  28.125  10.489
79252CL-    CL-47615  36.590  22.525   4.300
79253CL-    CL-47616  43.288  42.338   0.318
79254CL-    CL-47617  36.881  38.863   2.195
79255CL-    CL-47618  34.077  30.493  14.320
79256CL-    CL-47619  15.154  38.500   1.434
79257CL-    CL-47620  32.579  33.482  14.404
79258CL-    CL-47621  38.944  39.013  11.469
79259CL-    CL-47622   5.312   6.188   4.638
79260CL-    CL-47623  34.564  12.245  13.841
79261CL-    CL-47624  43.274  38.530   4.194
79262CL-    CL-47625  37.448   3.868   3.870
79263CL-    CL-47626  20.698  14.767  11.558
79264CL-    CL-47627   5.735  27.180   3.866
79265CL-    CL-47628  42.513  40.913  13.844
79266CL-    CL-47629  25.594  35.479   1.857
79267CL-    CL-47630  23.622  32.889   1.769
79268CL-    CL-47631  16.580  11.733  11.569
79269CL-    CL-47632  24.663  14.322   2.670
79270CL-    CL-47633  44.429  31.952   2.178
79271CL-    CL-47634  11.348  29.582  14.913
79272CL-    CL-47635  26.034  42.903  11.423
79273CL-    CL-47636  10.853  33.121   4.168
79274CL-    CL-47637  39.424  14.282  11.480
79275CL-    CL-47638  31.930  43.949   0.742
79276CL-    CL-47639  39.495  24.193   0.967
79277CL-    CL-47640  43.881  27.086  14.281
79278CL-    CL-47641   7.777  39.856  13.482
79279CL-    CL-47642  40.544  23.554  14.494
79280CL-    CL-47643  17.214  38.396  14.413
79281CL-    CL-47644   6.285  23.005   4.304
79282CL-    CL-47645  20.133  43.412   1.390
79283CL-    CL-47646  33.939  19.644  14.004
79284CL-    CL-47647  40.821  23.088  11.444
79285CL-    CL-47648  10.718   8.322   1.753
79286CL-    CL-47649  35.061  42.376  14.430
79287CL-    CL-47650  14.741  22.507   1.785
79288CL-    CL-47651  44.932   7.229   3.375
79289CL-    CL-47652  22.602  30.949   0.924
79290CL-    CL-47653  37.337  16.101   2.305
79291CL-    CL-47654  33.017  33.494  10.602
79292CL-    CL-47655  18.747  40.403   1.284
79293CL-    CL-47656   8.164   6.767   1.741
79294CL-    CL-47657  41.295  42.283  13.502
79295CL-    CL-47658  35.931  43.367  10.484
79296CL-    CL-47659  32.458  32.567   0.908
79297CL-    CL-47660   1.953  44.768   2.849
79298CL-    CL-47661  38.064  13.732  11.423
79299CL-    CL-47662  30.148  11.251   1.748
79300CL-    CL-47663   1.341   4.302   1.713
79301CL-    CL-47664  41.327   6.912  13.954
79302CL-    CL-47665  23.689  40.503  12.517
79303CL-    CL-47666   8.887  21.176   0.748
79304CL-    CL-47667  12.338  12.794  14.412
79305CL-    CL-47668  44.280  26.152   0.751
79306CL-    CL-47669  26.556  28.158  12.490
79307CL-    CL-47670  41.443  37.848   5.160
79308CL-    CL-47671  22.505  36.914   1.286
79309CL-    CL-47672  32.959  19.230   4.691
79310CL-    CL-47673   4.435   4.445  11.519
79311CL-    CL-47674  19.616  26.606  14.764
79312CL-    CL-47675   4.323  12.306   4.299
79313CL-    CL-47676  41.521  31.068  14.946
79314CL-    CL-47677  29.654  21.713  13.845
79315CL-    CL-47678  11.238   0.491  13.498
79316CL-    CL-47679   2.810   9.761   3.208
79317CL-    CL-47680   8.831  10.255   0.339
79318CL-    CL-47681  33.031  33.055  14.343
79319CL-    CL-47682  27.586  10.191  12.911
79320CL-    CL-47683  37.445  21.247   2.274
79321CL-    CL-47684  33.393  23.999   4.272
79322CL-    CL-47685  23.190  25.152  11.446
79323CL-    CL-47686  29.595  20.703  13.342
79324CL-    CL-47687  41.823   1.802  13.810
79325CL-    CL-47688  23.554  42.474  13.795
79326CL-    CL-47689   8.333   8.665   4.342
79327CL-    CL-47690  22.599  28.512  10.153
79328CL-    CL-47691  37.358  41.534  11.412
79329CL-    CL-47692  22.667   9.270  13.480
79330CL-    CL-47693  43.381  35.518  10.564
79331CL-    CL-47694  16.178   5.434   2.875
79332CL-    CL-47695  35.915  17.588   2.677
79333CL-    CL-47696  42.843  17.772  10.517
79334CL-    CL-47697  42.882  36.593   2.361
79335CL-    CL-47698  34.931  29.658  14.793
79336CL-    CL-47699  13.264  30.515  12.860
79337CL-    CL-47700  18.140  39.010  11.432
79338CL-    CL-47701  14.778   8.358   0.773
79339CL-    CL-47702  28.599  20.716  14.897
79340CL-    CL-47703  38.393  44.382   0.767
79341CL-    CL-47704   4.246  39.319   1.355
79342CL-    CL-47705   0.893  36.911   4.195
79343CL-    CL-47706   8.657   5.199   2.178
79344CL-    CL-47707  29.657  12.789  13.825
79345CL-    CL-47708  41.837  31.539  14.789
79346CL-    CL-47709  27.173  39.811  10.497
79347CL-    CL-47710   7.814  15.692   0.943
79348CL-    CL-47711   1.339  43.806   0.460
79349CL-    CL-47712  30.955  44.908   3.185
79350CL-    CL-47713  35.589   7.886   2.781
79351CL-    CL-47714  22.609   2.386  13.828
79352CL-    CL-47715  37.532  26.513  10.626
79353CL-    CL-47716  12.783  24.541  14.003
79354CL-    CL-47717   9.673   7.285  12.072
79355CL-    CL-47718   5.364  12.255  13.851
79356CL-    CL-47719  34.914  13.296   3.704
79357CL-    CL-47720  25.583  21.026   5.104
79358CL-    CL-47721  21.126   9.324  13.460
79359CL-    CL-47722   4.228  36.905   0.836
79360CL-    CL-47723  39.556  40.819  11.532
79361CL-    CL-47724  15.588   7.715  12.003
79362CL-    CL-47725  43.776  37.878  12.531
79363CL-    CL-47726  39.526  39.845  11.988
79364CL-    CL-47727  36.044   6.243   0.422
79365CL-    CL-47728  44.877  36.898  13.541
79366CL-    CL-47729  22.148  24.541  11.883
79367CL-    CL-47730   6.682  24.157  13.958
79368CL-    CL-47731  27.563  37.887   3.790
79369CL-    CL-47732  17.739   2.790  13.963
79370CL-    CL-47733  27.448   9.813  14.796
79371CL-    CL-47734  18.756   7.684   2.830
79372CL-    CL-47735   0.767  42.910  10.121
79373CL-    CL-47736  32.417  16.159   3.803
79374CL-    CL-47737  26.556  35.020   3.228
79375CL-    CL-47738  20.050  37.907   1.891
79376CL-    CL-47739  22.227  21.522  10.978
79377CL-    CL-47740   3.270  32.633   3.264
79378CL-    CL-47741  39.994   3.780  14.909
79379CL-    CL-47742  40.028   0.815  14.803
79380CL-    CL-47743   5.370  28.491  13.893
79381CL-    CL-47744   4.247  23.031  11.582
79382CL-    CL-47745  36.541  44.476   3.750
79383CL-    CL-47746  43.278  39.349  12.397
79384CL-    CL-47747  12.779  39.437  14.346
79385CL-    CL-47748   9.862  10.665  11.589
79386CL-    CL-47749  29.583   5.293  11.488
79387CL-    CL-47750  38.408  14.137   3.724
79388CL-    CL-47751  12.707   8.844  12.420
79389CL-    CL-47752  35.922  24.583   3.342
79390CL-    CL-47753  14.665  15.653  10.418
79391CL-    CL-47754  14.786  37.514   1.253
79392CL-    CL-47755   3.943  25.540  14.944
79393CL-    CL-47756  25.542  23.177   2.888
79394CL-    CL-47757  35.431  35.952  10.491
79395CL-    CL-47758  19.603  14.636   1.836
79396CL-    CL-47759  25.480  24.053  14.414
79397CL-    CL-47760  15.258  31.001  11.968
79398CL-    CL-47761  38.054   8.194  14.811
79399CL-    CL-47762  11.195  16.237   0.244
79400CL-    CL-47763  29.520   4.372   3.676
79401CL-    CL-47764  14.666  23.025   0.307
79402CL-    CL-47765  11.650   7.408   9.944
79403CL-    CL-47766  21.210  40.514   4.147
79404CL-    CL-47767   4.787  10.166   3.348
79405CL-    CL-47768  28.666  15.759  14.953
79406CL-    CL-47769  18.099   6.722   3.205
79407CL-    CL-47770  44.861  39.064   9.996
79408CL-    CL-47771  10.824   4.707  14.499
79409CL-    CL-47772  33.956  14.671  14.457
79410CL-    CL-47773   1.478  12.770  12.927
79411CL-    CL-47774   6.311  30.589  10.065
79412CL-    CL-47775  35.470   0.830   2.861
79413CL-    CL-47776  44.273  43.930   0.849
79414CL-    CL-47777  19.158  10.762  10.907
79415CL-    CL-47778  42.395  42.004  14.364
79416CL-    CL-47779   1.821   7.225  12.060
79417CL-    CL-47780   0.409   6.232   4.632
79418CL-    CL-47781  39.910  42.307  11.912
79419CL-    CL-47782  23.503  18.731  11.482
79420CL-    CL-47783  34.111  12.821  10.618
79421CL-    CL-47784  13.634  21.728  14.404
79422CL-    CL-47785  38.517  41.816  12.939
79423CL-    CL-47786  30.919  15.735   1.873
79424CL-    CL-47787  23.201  32.495   4.668
79425CL-    CL-47788   7.900  30.429  12.908
79426CL-    CL-47789  11.840  10.819   4.662
79427CL-    CL-47790  32.589  37.076  14.887
79428CL-    CL-47791  35.474  11.655  12.058
79429CL-    CL-47792  37.358  39.830  12.468
79430CL-    CL-47793   8.268  36.994  14.825
79431CL-    CL-47794  41.917  33.950   3.657
79432CL-    CL-47795   6.315  40.382   4.343
79433CL-    CL-47796  25.106   4.216   2.864
79434CL-    CL-47797  12.143  39.031  13.389
79435CL-    CL-47798  27.094  36.066  12.378
79436CL-    CL-47799  41.978   3.237   9.983
79437CL-    CL-47800  26.524  26.466   4.157
79438CL-    CL-47801   9.847   0.810  13.309
79439CL-    CL-47802  41.843  13.119  13.970
79440CL-    CL-47803  18.212  30.546   3.861
79441CL-    CL-47804  26.131  35.006   4.339
79442CL-    CL-47805   0.295  42.438  10.929
79443CL-    CL-47806   2.845   1.352   4.740
79444CL-    CL-47807   5.733  42.506  12.543
79445CL-    CL-47808  24.599  17.623  13.898
79446CL-    CL-47809  30.022  27.594   3.204
79447CL-    CL-47810  37.464   7.177  13.322
79448CL-    CL-47811  34.097   0.288   3.831
79449CL-    CL-47812  39.453  31.499   4.141
79450CL-    CL-47813   1.344  36.847  13.963
79451CL-    CL-47814  11.320  35.375   2.689
79452CL-    CL-47815   3.937  19.242   4.833
79453CL-    CL-47816  31.026  35.927   4.656
79454CL-    CL-47817  18.601   2.808   0.865
79455CL-    CL-47818  23.217  16.286  13.966
79456CL-    CL-47819  20.203  37.886  10.943
79457CL-    CL-47820   7.376  36.480   3.863
79458CL-    CL-47821   8.656   1.737  13.814
79459CL-    CL-47822  24.702  29.576   1.411
79460CL-    CL-47823   8.216  10.680  12.437
79461CL-    CL-47824  40.033  40.969   2.283
79462CL-    CL-47825   7.876  41.856  12.054
79463CL-    CL-47826  36.875  11.245   2.845
79464CL-    CL-47827  14.238   2.391  11.985
79465CL-    CL-47828   3.415  15.264  14.819
79466CL-    CL-47829  29.138  25.548   1.733
79467CL-    CL-47830  19.207   6.921   4.651
79468CL-    CL-47831  28.057   1.281   3.309
79469CL-    CL-47832  17.192   4.448   4.612
79470CL-    CL-47833  12.321  22.149  10.464
79471CL-    CL-47834  35.530  11.815  14.971
79472CL-    CL-47835  22.047  19.048  10.634
79473CL-    CL-47836  33.547  43.923  13.487
79474CL-    CL-47837  21.091  34.598  14.397
79475CL-    CL-47838  18.253  25.010   4.259
79476CL-    CL-47839  26.458  17.134  13.440
79477CL-    CL-47840   0.348  32.901   4.185
79478CL-    CL-47841  29.971  42.435   2.883
79479CL-    CL-47842  42.836  37.388  12.399
79480CL-    CL-47843  42.404  44.939   3.320
79481CL-    CL-47844   8.360  16.719  12.503
79482CL-    CL-47845  37.859  41.810  14.902
79483CL-    CL-47846  41.303   1.796   1.447
79484CL-    CL-47847  25.545  36.361   1.282
79485CL-    CL-47848  36.987  21.663   3.637
79486CL-    CL-47849   6.849  22.190   3.720
79487CL-    CL-47850  22.080   0.382   1.223
79488CL-    CL-47851  44.286  16.137  10.908
79489CL-    CL-47852   5.924  42.510   1.445
79490CL-    CL-47853  23.730  37.384  12.075
79491CL-    CL-47854  35.949  26.551   2.403
79492CL-    CL-47855   2.782   2.464   4.116
79493CL-    CL-47856   6.886   9.356   0.271
79494CL-    CL-47857   1.435  40.013   1.403
79495CL-    CL-47858  24.034   0.485  11.120
79496CL-    CL-47859   8.171  13.242  11.412
79497CL-    CL-47860   1.788  13.233   4.662
79498CL-    CL-47861   9.185  28.013  12.894
79499CL-    CL-47862   3.308  27.142   2.893
79500CL-    CL-47863  44.915  43.772  11.005
79501CL-    CL-47864  30.545   2.301   1.319
79502CL-    CL-47865  27.076  33.955   3.779
79503CL-    CL-47866  24.994   4.745   0.383
79504CL-    CL-47867   6.740   5.888   0.792
79505CL-    CL-47868   3.327   5.753  14.475
79506CL-    CL-47869  38.917  26.048   4.779
79507CL-    CL-47870  43.327  35.503  14.011
79508CL-    CL-47871   7.385   2.931  14.911
79509CL-    CL-47872  10.251   1.932   1.262
79510CL-    CL-47873  13.739  13.808  11.998
79511CL-    CL-47874  34.375  24.615   0.890
79512CL-    CL-47875  17.765   1.838  12.955
79513CL-    CL-47876  12.852  13.741   0.954
79514CL-    CL-47877  28.457   8.838   3.721
79515CL-    CL-47878   8.768   4.847  10.626
79516CL-    CL-47879   0.885  30.122  14.491
79517CL-    CL-47880   7.840   1.431   1.332
79518CL-    CL-47881  23.654  20.523   1.834
79519CL-    CL-47882  11.279  33.618   3.265
79520CL-    CL-47883  16.772  32.038  11.070
79521CL-    CL-47884  35.544  14.310  13.445
79522CL-    CL-47885   2.292  41.920   3.844
79523CL-    CL-47886  21.535  41.336   3.862
79524CL-    CL-47887  27.689  16.203  12.070
79525CL-    CL-47888  17.172   4.355   0.945
79526CL-    CL-47889  10.258  40.353  14.353
79527CL-    CL-47890   3.818  34.605  10.456
79528CL-    CL-47891   2.832  38.955  13.445
79529CL-    CL-47892   1.479  26.633   4.791
79530CL-    CL-47893  19.077   9.752   3.302
79531CL-    CL-47894   4.336  16.151  14.373
79532CL-    CL-47895  35.519  17.617   1.217
79533CL-    CL-47896  44.793  22.999  13.931
79534CL-    CL-47897  32.518  42.992   2.346
79535CL-    CL-47898  26.101  26.701  12.386
79536CL-    CL-47899  42.298  16.687   3.631
79537CL-    CL-47900   0.388  22.054   4.764
79538CL-    CL-47901  14.189   2.394   3.381
79539CL-    CL-47902   5.360  16.581  14.360
79540CL-    CL-47903   1.337  30.976  11.371
79541CL-    CL-47904  18.712   9.692   2.219
79542CL-    CL-47905  27.997   8.269  13.797
79543CL-    CL-47906  27.619  38.843   2.683
79544CL-    CL-47907  26.539  27.584  13.461
79545CL-    CL-47908  27.130  28.068  10.611
79546CL-    CL-47909   8.212  42.424   2.902
79547CL-    CL-47910   0.489  24.031   1.336
79548CL-    CL-47911   3.423   1.461  11.100
79549CL-    CL-47912  21.149  20.735  13.912
79550CL-    CL-47913  39.540  23.653   2.397
79551CL-    CL-47914   1.264  22.191  14.895
79552CL-    CL-47915  13.293  10.336   0.462
79553CL-    CL-47916  10.715  39.515  12.070
79554CL-    CL-47917   6.216   2.384  14.003
79555CL-    CL-47918  32.528   8.860   0.401
79556CL-    CL-47919  44.832  36.936  13.987
79557CL-    CL-47920  21.757   3.950   1.717
79558CL-    CL-47921   5.722  37.534   0.802
79559CL-    CL-47922  11.739  21.249   9.929
79560CL-    CL-47923   3.434  43.866  13.976
79561CL-    CL-47924  33.448  23.515  11.410
79562CL-    CL-47925  29.664  42.996  11.509
79563CL-    CL-47926  37.953  36.555  11.554
79564CL-    CL-47927  39.480  16.576   4.790
79565CL-    CL-47928   6.768   6.267   2.388
79566CL-    CL-47929  20.039  26.137   2.315
79567CL-    CL-47930  18.185  43.437  13.894
79568CL-    CL-47931   3.265  41.434  12.084
79569CL-    CL-47932   2.769  25.708  12.973
79570CL-    CL-47933  41.865  35.050   2.267
79571CL-    CL-47934  14.294  22.179   3.636
79572CL-    CL-47935  14.096  37.865  14.780
79573CL-    CL-47936  40.375  37.548   0.412
79574CL-    CL-47937   6.276  18.656  10.075
79575CL-    CL-47938  42.420  41.501   3.676
79576CL-    CL-47939  25.519  13.331  11.904
79577CL-    CL-47940  21.046  13.258   0.381
79578CL-    CL-47941  18.194  12.139  12.378
79579CL-    CL-47942   4.380  44.396  11.602
79580CL-    CL-47943  16.246  42.511  10.113
79581CL-    CL-47944  21.258  40.406   3.225
79582CL-    CL-47945  28.141  21.532  13.975
79583CL-    CL-47946   7.742   0.937  14.875
79584CL-    CL-47947   7.776  12.718  14.402
79585CL-    CL-47948  33.940   6.381  12.417
79586CL-    CL-47949  31.451  38.425  14.387
79587CL-    CL-47950   7.410  25.024  14.391
79588CL-    CL-47951   3.423  14.131   1.695
79589CL-    CL-47952  44.842  34.053   4.715
79590CL-    CL-47953  37.403  27.121  11.979
79591CL-    CL-47954  31.620  28.180   3.645
79592CL-    CL-47955  14.742   0.819   2.680
79593CL-    CL-47956  29.575  37.927   0.943
79594CL-    CL-47957  36.964  20.632   4.210
79595CL-    CL-47958  43.773  15.201   4.704
79596CL-    CL-47959  15.199  37.469   1.343
79597CL-    CL-47960  22.247  10.705   1.710
79598CL-    CL-47961  28.617   1.457  12.094
79599CL-    CL-47962  26.063   9.231  12.093
79600CL-    CL-47963  40.837  35.087   4.130
79601CL-    CL-47964  40.968  22.584  13.959
79602CL-    CL-47965  25.055   7.382   0.438
79603CL-    CL-47966  29.459  23.583  10.499
79604CL-    CL-47967   5.283  20.606   1.699
79605CL-    CL-47968  20.184  39.470  11.904
79606CL-    CL-47969   5.437  16.245  14.796
79607CL-    CL-47970  41.395   6.321   1.924
79608CL-    CL-47971   4.715   1.357   3.727
79609CL-    CL-47972   2.387  44.858  12.865
79610CL-    CL-47973  43.293  16.710   4.270
79611CL-    CL-47974  15.730  14.157   2.783
79612CL-    CL-47975  15.190  40.427  10.408
79613CL-    CL-47976   5.893  44.470   3.728
79614CL-    CL-47977   0.488  10.687   2.902
79615CL-    CL-47978   7.683   0.275   0.961
79616CL-    CL-47979  12.660  12.179   3.661
79617CL-    CL-47980   3.885  36.046  10.084
79618CL-    CL-47981  27.620  36.469   4.203
79619CL-    CL-47982  38.467  36.933  10.939
79620CL-    CL-47983  25.675  22.532   4.353
79621CL-    CL-47984   0.305  35.429   3.365
79622CL-    CL-47985  39.428   2.252   4.308
79623CL-    CL-47986   9.755  42.393  14.353
79624CL-    CL-47987  40.321  41.442  10.991
79625CL-    CL-47988  18.547  21.047   2.836
79626CL-    CL-47989  15.597  25.469   3.227
79627CL-    CL-47990   7.234  19.721   0.389
79628CL-    CL-47991  25.570  37.954   1.293
79629CL-    CL-47992  28.138  42.890  14.907
79630CL-    CL-47993  32.390  11.310   2.216
79631CL-    CL-47994  20.202  13.253  13.373
79632CL-    CL-47995   3.922  27.627  12.581
  45.00000  45.00000  15.00000   0.00000   0.00000   0.00000   0.00000   0.00000   0.00000

